Protein in INSANE! Membrane UpperLeaflet>POPC=1.0 LowerLeaflet>POPC=1.0
243843
   22AUC    AUC    1  18.450  33.041   7.500
   23AUC    AUC    2  18.696  33.041   7.348
   24AUC    AUC    3  18.696  33.041   7.651
   25AUC    AUC    4  18.205  33.041   7.348
   26AUC    AUC    5  18.205  33.041   7.651
   27AUC    AUC    6  18.299  33.286   7.500
   28AUC    AUC    7  18.602  33.286   7.500
   29AUC    AUC    8  18.299  32.795   7.500
   30AUC    AUC    9  18.602  32.795   7.500
   31AUC    AUC   10  18.450  32.889   7.745
   32AUC    AUC   11  18.450  33.192   7.745
   33AUC    AUC   12  18.450  32.889   7.254
   34AUC    AUC   13  18.450  33.192   7.254
   35AUC    AUC   14  18.941  33.041   7.196
   36AUC    AUC   15  18.941  33.041   7.500
   37AUC    AUC   16  18.941  33.041   7.803
   38AUC    AUC   17  17.959  33.041   7.196
   39AUC    AUC   18  17.959  33.041   7.500
   40AUC    AUC   19  17.959  33.041   7.803
   41AUC    AUC   20  18.147  33.531   7.500
   42AUC    AUC   21  18.450  33.531   7.500
   43AUC    AUC   22  18.754  33.531   7.500
   44AUC    AUC   23  18.147  32.550   7.500
   45AUC    AUC   24  18.450  32.550   7.500
   46AUC    AUC   25  18.754  32.550   7.500
   47AUC    AUC   26  18.450  32.737   7.991
   48AUC    AUC   27  18.450  33.041   7.991
   49AUC    AUC   28  18.450  33.344   7.991
   50AUC    AUC   29  18.450  32.737   7.009
   51AUC    AUC   30  18.450  33.041   7.009
   52AUC    AUC   31  18.450  33.344   7.009
   53AUC    AUC   32  18.696  32.889   7.897
   54AUC    AUC   33  18.696  33.192   7.897
   55AUC    AUC   34  18.696  32.889   7.103
   56AUC    AUC   35  18.696  33.192   7.103
   57AUC    AUC   36  18.205  32.889   7.897
   58AUC    AUC   37  18.205  33.192   7.897
   59AUC    AUC   38  18.205  32.889   7.103
   60AUC    AUC   39  18.205  33.192   7.103
   61AUC    AUC   40  18.847  33.286   7.348
   62AUC    AUC   41  18.847  33.286   7.651
   63AUC    AUC   42  18.053  33.286   7.348
   64AUC    AUC   43  18.053  33.286   7.651
   65AUC    AUC   44  18.847  32.795   7.348
   66AUC    AUC   45  18.847  32.795   7.651
   67AUC    AUC   46  18.053  32.795   7.348
   68AUC    AUC   47  18.053  32.795   7.651
   69AUC    AUC   48  18.299  33.438   7.745
   70AUC    AUC   49  18.602  33.438   7.745
   71AUC    AUC   50  18.299  32.643   7.745
   72AUC    AUC   51  18.602  32.643   7.745
   73AUC    AUC   52  18.299  33.438   7.254
   74AUC    AUC   53  18.602  33.438   7.254
   75AUC    AUC   54  18.299  32.643   7.254
   76AUC    AUC   55  18.602  32.643   7.254
   77AUSL   AUS   56  18.859  33.041   8.080
   78AUSL   AUS   57  18.715  32.624   8.011
   79AUL    AUL   58  18.941  32.737   8.294
   80THSLK    S   59  18.833  32.436   8.156
   81ETHY    C1   60  18.929  32.068   8.412
   82ETHY    C1   61  19.107  31.685   8.753
   83ETHY    C1   62  19.349  31.385   9.130
   84ETHY    C1   63  19.645  31.166   9.534
   85THSLK    S   64  18.958  32.994   8.327
   86ETHY    C1   65  19.185  32.844   8.694
   87ETHY    C1   66  19.469  32.756   9.148
   88ETHY    C1   67  19.753  32.778   9.607
   89ETHY    C1   68  20.030  32.900  10.061
   90AUSL   AUS   69  18.614  32.889   8.173
   91AUSL   AUS   70  18.287  33.192   8.173
   92AUL    AUL   71  18.450  33.041   8.482
   93THSLK    S   72  18.695  32.838   8.418
   94ETHY    C1   73  18.785  32.620   8.810
   95ETHY    C1   74  18.913  32.446   9.308
   96ETHY    C1   75  19.059  32.381   9.823
   97ETHY    C1   76  19.216  32.415  10.346
   98THSLK    S   77  18.200  33.152   8.432
   99ETHY    C1   78  18.111  33.078   8.874
  100ETHY    C1   79  17.987  33.080   9.403
  101ETHY    C1   80  17.842  33.189   9.912
  102ETHY    C1   81  17.679  33.393  10.392
  103AUSL   AUS   82  18.614  33.192   8.173
  104AUSL   AUS   83  18.960  33.305   7.916
  105AUL    AUL   84  18.941  33.344   8.294
  106THSLK    S   85  18.701  33.244   8.416
  107ETHY    C1   86  18.789  33.461   8.809
  108ETHY    C1   87  18.914  33.634   9.308
  109ETHY    C1   88  19.059  33.700   9.823
  110ETHY    C1   89  19.222  33.667  10.345
  111THSLK    S   90  19.136  33.411   8.079
  112ETHY    C1   91  19.498  33.461   8.355
  113ETHY    C1   92  19.905  33.610   8.681
  114ETHY    C1   93  20.267  33.859   8.995
  115ETHY    C1   94  20.579  34.195   9.293
  116AUSL   AUS   95  18.859  33.041   6.920
  117AUSL   AUS   96  18.715  33.457   6.990
  118AUL    AUL   97  18.941  33.344   6.706
  119THSLK    S   98  18.963  32.994   6.676
  120ETHY    C1   99  19.190  32.844   6.308
  121ETHY    C1  100  19.469  32.756   5.851
  122ETHY    C1  101  19.753  32.778   5.393
  123ETHY    C1  102  20.035  32.900   4.941
  124THSLK    S  103  18.892  33.576   6.820
  125ETHY    C1  104  19.164  33.717   6.480
  126ETHY    C1  105  19.442  33.964   6.085
  127ETHY    C1  106  19.658  34.297   5.720
  128ETHY    C1  107  19.815  34.704   5.391
  129AUSL   AUS  108  18.614  32.889   6.826
  130AUSL   AUS  109  18.960  32.776   7.083
  131AUL    AUL  110  18.941  32.737   6.706
  132THSLK    S  111  19.100  32.585   6.939
  133ETHY    C1  112  19.333  32.268   6.707
  134ETHY    C1  113  19.663  31.961   6.403
  135ETHY    C1  114  20.043  31.752   6.083
  136ETHY    C1  115  20.464  31.635   5.754
  137THSLK    S  116  18.701  32.837   6.583
  138ETHY    C1  117  18.789  32.620   6.191
  139ETHY    C1  118  18.914  32.447   5.692
  140ETHY    C1  119  19.059  32.381   5.176
  141ETHY    C1  120  19.222  32.414   4.656
  142AUSL   AUS  121  18.614  33.192   6.826
  143AUSL   AUS  122  18.287  32.889   6.826
  144AUL    AUL  123  18.450  33.041   6.518
  145THSLK    S  124  18.191  32.837   6.586
  146ETHY    C1  125  18.052  32.622   6.206
  147ETHY    C1  126  17.895  32.451   5.717
  148ETHY    C1  127  17.756  32.385   5.199
  149ETHY    C1  128  17.640  32.416   4.666
  150THSLK    S  129  18.716  33.153   6.572
  151ETHY    C1  130  18.853  33.076   6.142
  152ETHY    C1  131  19.006  33.076   5.622
  153ETHY    C1  132  19.144  33.185   5.112
  154ETHY    C1  133  19.267  33.392   4.621
  155AUSL   AUS  134  18.041  33.041   8.080
  156AUSL   AUS  135  18.186  33.457   8.011
  157AUL    AUL  136  17.959  33.344   8.294
  158THSLK    S  137  17.937  32.994   8.325
  159ETHY    C1  138  17.711  32.844   8.691
  160ETHY    C1  139  17.431  32.756   9.148
  161ETHY    C1  140  17.148  32.778   9.607
  162ETHY    C1  141  16.865  32.900  10.058
  163THSLK    S  142  18.063  33.590   8.201
  164ETHY    C1  143  17.967  33.785   8.604
  165ETHY    C1  144  17.794  34.066   9.034
  166ETHY    C1  145  17.551  34.392   9.390
  167ETHY    C1  146  17.250  34.751   9.671
  168AUSL   AUS  147  18.287  32.889   8.173
  169AUSL   AUS  148  17.940  32.776   7.916
  170AUL    AUL  149  17.959  32.737   8.294
  171THSLK    S  150  17.761  32.610   8.032
  172ETHY    C1  151  17.400  32.363   8.166
  173ETHY    C1  152  16.995  32.097   8.410
  174ETHY    C1  153  16.634  31.877   8.745
  175ETHY    C1  154  16.318  31.704   9.156
  176THSLK    S  155  18.185  32.839   8.413
  177ETHY    C1  156  18.047  32.624   8.793
  178ETHY    C1  157  17.894  32.451   9.284
  179ETHY    C1  158  17.757  32.385   9.800
  180ETHY    C1  159  17.633  32.417  10.332
  181AUSL   AUS  160  18.041  33.041   6.920
  182AUSL   AUS  161  18.186  32.624   6.990
  183AUL    AUL  162  17.959  32.737   6.706
  184THSLK    S  163  17.942  32.994   6.673
  185ETHY    C1  164  17.715  32.844   6.305
  186ETHY    C1  165  17.432  32.756   5.851
  187ETHY    C1  166  17.148  32.778   5.393
  188ETHY    C1  167  16.871  32.900   4.938
  189THSLK    S  168  18.012  32.449   6.865
  190ETHY    C1  169  17.740  32.136   6.673
  191ETHY    C1  170  17.459  31.788   6.367
  192ETHY    C1  171  17.242  31.480   5.980
  193ETHY    C1  172  17.090  31.213   5.528
  194AUSL   AUS  173  18.287  33.192   6.826
  195AUSL   AUS  174  17.940  33.305   7.083
  196AUL    AUL  175  17.959  33.344   6.706
  197THSLK    S  176  17.804  33.436   6.893
  198ETHY    C1  177  17.570  33.557   6.518
  199ETHY    C1  178  17.238  33.745   6.132
  200ETHY    C1  179  16.858  33.984   5.833
  201ETHY    C1  180  16.441  34.264   5.618
  202THSLK    S  181  18.206  33.154   6.566
  203ETHY    C1  182  18.116  33.079   6.124
  204ETHY    C1  183  17.988  33.080   5.597
  205ETHY    C1  184  17.842  33.189   5.089
  206ETHY    C1  185  17.685  33.395   4.608
  207AUSL   AUS  186  19.030  33.450   7.500
  208AUSL   AUS  187  18.960  33.305   7.083
  209AUL    AUL  188  19.244  33.531   7.196
  210THSLK    S  189  19.140  33.412   6.925
  211ETHY    C1  190  19.501  33.462   6.648
  212ETHY    C1  191  19.905  33.610   6.319
  213ETHY    C1  192  20.267  33.859   6.005
  214ETHY    C1  193  20.583  34.196   5.713
  215THSLK    S  194  19.300  33.511   7.503
  216ETHY    C1  195  19.747  33.611   7.502
  217ETHY    C1  196  20.249  33.817   7.500
  218ETHY    C1  197  20.696  34.119   7.500
  219ETHY    C1  198  21.084  34.503   7.503
  220AUSL   AUS  199  19.124  33.204   7.348
  221AUSL   AUS  200  19.124  32.877   7.651
  222AUL    AUL  201  19.432  33.041   7.500
  223THSLK    S  202  19.386  33.251   7.345
  224ETHY    C1  203  19.836  33.220   7.270
  225ETHY    C1  204  20.368  33.275   7.179
  226ETHY    C1  205  20.875  33.438   7.091
  227ETHY    C1  206  21.350  33.696   7.011
  228THSLK    S  207  19.361  32.740   7.659
  229ETHY    C1  208  19.732  32.482   7.726
  230ETHY    C1  209  20.218  32.256   7.808
  231ETHY    C1  210  20.737  32.136   7.896
  232ETHY    C1  211  21.275  32.114   7.989
  233AUSL   AUS  212  19.124  33.204   7.651
  234AUSL   AUS  213  18.867  33.551   7.764
  235AUL    AUL  214  19.244  33.531   7.803
  236THSLK    S  215  19.052  33.675   7.924
  237ETHY    C1  216  19.409  33.867   8.136
  238ETHY    C1  217  19.786  34.174   8.377
  239ETHY    C1  218  20.087  34.561   8.602
  240ETHY    C1  219  20.314  35.012   8.809
  241THSLK    S  220  19.385  33.250   7.661
  242ETHY    C1  221  19.836  33.220   7.734
  243ETHY    C1  222  20.369  33.275   7.821
  244ETHY    C1  223  20.875  33.438   7.908
  245ETHY    C1  224  21.349  33.696   7.995
  246AUSL   AUS  225  17.870  33.450   7.500
  247AUSL   AUS  226  17.940  33.305   7.916
  248AUL    AUL  227  17.656  33.531   7.803
  249THSLK    S  228  17.800  33.431   8.107
  250ETHY    C1  229  17.567  33.552   8.482
  251ETHY    C1  230  17.238  33.745   8.868
  252ETHY    C1  231  16.858  33.984   9.166
  253ETHY    C1  232  16.437  34.259   9.381
  254THSLK    S  233  17.649  33.590   7.503
  255ETHY    C1  234  17.360  33.945   7.502
  256ETHY    C1  235  16.952  34.302   7.500
  257ETHY    C1  236  16.482  34.566   7.500
  258ETHY    C1  237  15.964  34.742   7.503
  259AUSL   AUS  238  17.777  33.204   7.348
  260AUSL   AUS  239  18.034  33.551   7.236
  261AUL    AUL  240  17.656  33.531   7.196
  262THSLK    S  241  17.540  33.318   7.303
  263ETHY    C1  242  17.168  33.492   7.101
  264ETHY    C1  243  16.682  33.668   6.936
  265ETHY    C1  244  16.164  33.800   6.868
  266ETHY    C1  245  15.626  33.892   6.890
  267THSLK    S  246  17.914  33.718   7.056
  268ETHY    C1  247  17.762  34.037   6.765
  269ETHY    C1  248  17.508  34.417   6.473
  270ETHY    C1  249  17.175  34.785   6.260
  271ETHY    C1  250  16.779  35.135   6.122
  272AUSL   AUS  251  17.777  33.204   7.651
  273AUSL   AUS  252  17.777  32.877   7.348
  274AUL    AUL  253  17.469  33.041   7.500
  275THSLK    S  254  17.515  32.802   7.384
  276ETHY    C1  255  17.065  32.751   7.446
  277ETHY    C1  256  16.532  32.648   7.434
  278ETHY    C1  257  16.025  32.498   7.327
  279ETHY    C1  258  15.552  32.305   7.135
  280THSLK    S  259  17.539  33.312   7.699
  281ETHY    C1  260  17.168  33.488   7.901
  282ETHY    C1  261  16.682  33.667   8.063
  283ETHY    C1  262  16.164  33.800   8.133
  284ETHY    C1  263  15.625  33.886   8.114
  285AUSL   AUS  264  19.030  32.631   7.500
  286AUSL   AUS  265  18.960  32.776   7.916
  287AUL    AUL  266  19.244  32.550   7.803
  288THSLK    S  267  19.251  32.491   7.503
  289ETHY    C1  268  19.540  32.136   7.502
  290ETHY    C1  269  19.949  31.779   7.500
  291ETHY    C1  270  20.419  31.515   7.500
  292ETHY    C1  271  20.936  31.339   7.503
  293THSLK    S  272  19.097  32.586   8.066
  294ETHY    C1  273  19.330  32.269   8.297
  295ETHY    C1  274  19.663  31.962   8.598
  296ETHY    C1  275  20.043  31.752   8.918
  297ETHY    C1  276  20.460  31.636   9.250
  298AUSL   AUS  277  19.124  32.877   7.348
  299AUSL   AUS  278  18.867  32.530   7.236
  300AUL    AUL  279  19.244  32.550   7.196
  301THSLK    S  280  19.362  32.740   7.346
  302ETHY    C1  281  19.733  32.482   7.279
  303ETHY    C1  282  20.218  32.256   7.192
  304ETHY    C1  283  20.737  32.136   7.103
  305ETHY    C1  284  21.276  32.114   7.018
  306THSLK    S  285  18.990  32.339   7.099
  307ETHY    C1  286  19.140  31.937   6.942
  308ETHY    C1  287  19.393  31.507   6.728
  309ETHY    C1  288  19.725  31.151   6.495
  310ETHY    C1  289  20.124  30.870   6.249
  311AUSL   AUS  290  17.870  32.631   7.500
  312AUSL   AUS  291  17.940  32.776   7.083
  313AUL    AUL  292  17.656  32.550   7.196
  314THSLK    S  293  17.765  32.605   6.966
  315ETHY    C1  294  17.403  32.359   6.833
  316ETHY    C1  295  16.995  32.096   6.589
  317ETHY    C1  296  16.634  31.877   6.255
  318ETHY    C1  297  16.322  31.699   5.843
  319THSLK    S  298  17.600  32.570   7.503
  320ETHY    C1  299  17.154  32.470   7.502
  321ETHY    C1  300  16.652  32.264   7.500
  322ETHY    C1  301  16.205  31.962   7.500
  323ETHY    C1  302  15.817  31.578   7.503
  324AUSL   AUS  303  17.777  32.877   7.651
  325AUSL   AUS  304  18.034  32.530   7.764
  326AUL    AUL  305  17.656  32.550   7.803
  327THSLK    S  306  17.846  32.382   7.881
  328ETHY    C1  307  17.490  32.106   7.958
  329ETHY    C1  308  17.115  31.749   8.122
  330ETHY    C1  309  16.814  31.375   8.367
  331ETHY    C1  310  16.583  30.993   8.682
  332THSLK    S  311  17.514  32.807   7.618
  333ETHY    C1  312  17.064  32.755   7.557
  334ETHY    C1  313  16.532  32.649   7.566
  335ETHY    C1  314  16.025  32.498   7.673
  336ETHY    C1  315  15.551  32.310   7.867
  337AUSL   AUS  316  18.450  33.621   7.909
  338AUSL   AUS  317  18.034  33.551   7.764
  339AUL    AUL  318  18.147  33.835   7.991
  340THSLK    S  319  17.911  33.713   7.948
  341ETHY    C1  320  17.760  34.033   8.237
  342ETHY    C1  321  17.507  34.416   8.527
  343ETHY    C1  322  17.175  34.784   8.740
  344ETHY    C1  323  16.776  35.130   8.881
  345THSLK    S  324  18.488  33.852   8.034
  346ETHY    C1  325  18.616  34.178   8.327
  347ETHY    C1  326  18.693  34.610   8.646
  348ETHY    C1  327  18.674  35.075   8.920
  349ETHY    C1  328  18.568  35.560   9.147
  350AUSL   AUS  329  18.299  33.714   7.663
  351AUSL   AUS  330  18.602  33.714   7.336
  352AUL    AUL  331  18.450  34.022   7.500
  353THSLK    S  332  18.336  33.966   7.772
  354ETHY    C1  333  18.409  34.390   7.929
  355ETHY    C1  334  18.406  34.906   8.095
  356ETHY    C1  335  18.298  35.417   8.229
  357ETHY    C1  336  18.094  35.913   8.336
  358THSLK    S  337  18.653  33.954   7.237
  359ETHY    C1  338  18.866  34.331   7.091
  360ETHY    C1  339  19.036  34.820   6.929
  361ETHY    C1  340  19.103  35.338   6.792
  362ETHY    C1  341  19.074  35.872   6.682
  363AUSL   AUS  342  18.602  33.714   7.663
  364AUSL   AUS  343  18.715  33.457   8.011
  365AUL    AUL  344  18.754  33.835   7.991
  366THSLK    S  345  18.888  33.574   8.184
  367ETHY    C1  346  19.161  33.715   8.522
  368ETHY    C1  347  19.442  33.964   8.915
  369ETHY    C1  348  19.658  34.297   9.279
  370ETHY    C1  349  19.810  34.702   9.614
  371THSLK    S  350  18.652  33.952   7.768
  372ETHY    C1  351  18.865  34.331   7.913
  373ETHY    C1  352  19.036  34.820   8.072
  374ETHY    C1  353  19.103  35.338   8.207
  375ETHY    C1  354  19.072  35.871   8.325
  376AUSL   AUS  355  18.450  32.460   7.909
  377AUSL   AUS  356  18.867  32.530   7.764
  378AUL    AUL  357  18.754  32.246   7.991
  379THSLK    S  358  18.409  32.203   7.992
  380ETHY    C1  359  18.282  31.794   8.152
  381ETHY    C1  360  18.208  31.313   8.391
  382ETHY    C1  361  18.227  30.861   8.684
  383ETHY    C1  362  18.329  30.443   9.021
  384THSLK    S  363  18.987  32.340   7.907
  385ETHY    C1  364  19.138  31.938   8.062
  386ETHY    C1  365  19.393  31.507   8.272
  387ETHY    C1  366  19.725  31.151   8.505
  388ETHY    C1  367  20.121  30.872   8.758
  389AUSL   AUS  368  18.299  32.367   7.663
  390AUSL   AUS  369  18.186  32.624   8.011
  391AUL    AUL  370  18.147  32.246   7.991
  392THSLK    S  371  18.248  32.122   7.744
  393ETHY    C1  372  18.035  31.723   7.812
  394ETHY    C1  373  17.864  31.220   7.925
  395ETHY    C1  374  17.798  30.706   8.072
  396ETHY    C1  375  17.827  30.191   8.252
  397THSLK    S  376  18.008  32.454   8.136
  398ETHY    C1  377  17.736  32.139   8.327
  399ETHY    C1  378  17.458  31.788   8.633
  400ETHY    C1  379  17.242  31.480   9.019
  401ETHY    C1  380  17.086  31.218   9.473
  402AUSL   AUS  381  18.602  32.367   7.663
  403AUSL   AUS  382  18.299  32.367   7.336
  404AUL    AUL  383  18.450  32.059   7.500
  405THSLK    S  384  18.249  32.120   7.261
  406ETHY    C1  385  18.036  31.722   7.192
  407ETHY    C1  386  17.864  31.220   7.076
  408ETHY    C1  387  17.798  30.706   6.927
  409ETHY    C1  388  17.829  30.189   6.754
  410THSLK    S  389  18.563  32.108   7.748
  411ETHY    C1  390  18.491  31.663   7.829
  412ETHY    C1  391  18.494  31.134   7.948
  413ETHY    C1  392  18.603  30.626   8.095
  414ETHY    C1  393  18.805  30.148   8.264
  415AUSL   AUS  394  18.450  33.621   7.091
  416AUSL   AUS  395  18.867  33.551   7.236
  417AUL    AUL  396  18.754  33.835   7.009
  418THSLK    S  397  18.492  33.855   6.971
  419ETHY    C1  398  18.619  34.180   6.676
  420ETHY    C1  399  18.693  34.610   6.353
  421ETHY    C1  400  18.674  35.075   6.080
  422ETHY    C1  401  18.571  35.563   5.857
  423THSLK    S  402  19.054  33.676   7.081
  424ETHY    C1  403  19.411  33.868   6.869
  425ETHY    C1  404  19.786  34.174   6.623
  426ETHY    C1  405  20.087  34.561   6.398
  427ETHY    C1  406  20.317  35.013   6.197
  428AUSL   AUS  407  18.299  33.714   7.336
  429AUSL   AUS  408  18.186  33.457   6.990
  430AUL    AUL  409  18.147  33.835   7.009
  431THSLK    S  410  18.338  33.968   7.233
  432ETHY    C1  411  18.410  34.391   7.074
  433ETHY    C1  412  18.407  34.907   6.906
  434ETHY    C1  413  18.298  35.417   6.770
  435ETHY    C1  414  18.096  35.915   6.670
  436THSLK    S  415  18.067  33.594   6.800
  437ETHY    C1  416  17.971  33.788   6.396
  438ETHY    C1  417  17.794  34.066   5.966
  439ETHY    C1  418  17.551  34.391   5.611
  440ETHY    C1  419  17.255  34.756   5.330
  441AUSL   AUS  420  18.450  32.460   7.091
  442AUSL   AUS  421  18.034  32.530   7.236
  443AUL    AUL  422  18.147  32.246   7.009
  444THSLK    S  423  17.849  32.377   7.122
  445ETHY    C1  424  17.492  32.103   7.044
  446ETHY    C1  425  17.115  31.749   6.878
  447ETHY    C1  426  16.813  31.375   6.633
  448ETHY    C1  427  16.586  30.988   6.321
  449THSLK    S  428  18.412  32.200   7.013
  450ETHY    C1  429  18.284  31.792   6.852
  451ETHY    C1  430  18.208  31.313   6.609
  452ETHY    C1  431  18.227  30.861   6.315
  453ETHY    C1  432  18.333  30.440   5.983
  454AUSL   AUS  433  18.602  32.367   7.336
  455AUSL   AUS  434  18.715  32.624   6.990
  456AUL    AUL  435  18.754  32.246   7.009
  457THSLK    S  436  18.565  32.107   7.258
  458ETHY    C1  437  18.492  31.662   7.175
  459ETHY    C1  438  18.494  31.134   7.052
  460ETHY    C1  439  18.602  30.626   6.905
  461ETHY    C1  440  18.807  30.147   6.742
  462THSLK    S  441  18.838  32.434   6.847
  463ETHY    C1  442  18.933  32.066   6.592
  464ETHY    C1  443  19.107  31.685   6.247
  465ETHY    C1  444  19.349  31.385   5.870
  466ETHY    C1  445  19.650  31.164   5.471
  467AUC    AUC  446  25.231  12.378   7.500
  468AUC    AUC  447  25.477  12.378   7.348
  469AUC    AUC  448  25.477  12.378   7.651
  470AUC    AUC  449  24.986  12.378   7.348
  471AUC    AUC  450  24.986  12.378   7.651
  472AUC    AUC  451  25.080  12.623   7.500
  473AUC    AUC  452  25.383  12.623   7.500
  474AUC    AUC  453  25.080  12.132   7.500
  475AUC    AUC  454  25.383  12.132   7.500
  476AUC    AUC  455  25.231  12.226   7.745
  477AUC    AUC  456  25.231  12.529   7.745
  478AUC    AUC  457  25.231  12.226   7.254
  479AUC    AUC  458  25.231  12.529   7.254
  480AUC    AUC  459  25.722  12.378   7.196
  481AUC    AUC  460  25.722  12.378   7.500
  482AUC    AUC  461  25.722  12.378   7.803
  483AUC    AUC  462  24.740  12.378   7.196
  484AUC    AUC  463  24.740  12.378   7.500
  485AUC    AUC  464  24.740  12.378   7.803
  486AUC    AUC  465  24.928  12.868   7.500
  487AUC    AUC  466  25.231  12.868   7.500
  488AUC    AUC  467  25.535  12.868   7.500
  489AUC    AUC  468  24.928  11.887   7.500
  490AUC    AUC  469  25.231  11.887   7.500
  491AUC    AUC  470  25.535  11.887   7.500
  492AUC    AUC  471  25.231  12.074   7.991
  493AUC    AUC  472  25.231  12.378   7.991
  494AUC    AUC  473  25.231  12.681   7.991
  495AUC    AUC  474  25.231  12.074   7.009
  496AUC    AUC  475  25.231  12.378   7.009
  497AUC    AUC  476  25.231  12.681   7.009
  498AUC    AUC  477  25.477  12.226   7.897
  499AUC    AUC  478  25.477  12.529   7.897
  500AUC    AUC  479  25.477  12.226   7.103
  501AUC    AUC  480  25.477  12.529   7.103
  502AUC    AUC  481  24.986  12.226   7.897
  503AUC    AUC  482  24.986  12.529   7.897
  504AUC    AUC  483  24.986  12.226   7.103
  505AUC    AUC  484  24.986  12.529   7.103
  506AUC    AUC  485  25.628  12.623   7.348
  507AUC    AUC  486  25.628  12.623   7.651
  508AUC    AUC  487  24.834  12.623   7.348
  509AUC    AUC  488  24.834  12.623   7.651
  510AUC    AUC  489  25.628  12.132   7.348
  511AUC    AUC  490  25.628  12.132   7.651
  512AUC    AUC  491  24.834  12.132   7.348
  513AUC    AUC  492  24.834  12.132   7.651
  514AUC    AUC  493  25.080  12.775   7.745
  515AUC    AUC  494  25.383  12.775   7.745
  516AUC    AUC  495  25.080  11.980   7.745
  517AUC    AUC  496  25.383  11.980   7.745
  518AUC    AUC  497  25.080  12.775   7.254
  519AUC    AUC  498  25.383  12.775   7.254
  520AUC    AUC  499  25.080  11.980   7.254
  521AUC    AUC  500  25.383  11.980   7.254
  522AUSL   AUS  501  25.640  12.378   8.080
  523AUSL   AUS  502  25.496  11.961   8.011
  524AUL    AUL  503  25.722  12.074   8.294
  525THSLK    S  504  25.614  11.773   8.156
  526ETHY    C1  505  25.710  11.405   8.412
  527ETHY    C1  506  25.888  11.022   8.753
  528ETHY    C1  507  26.130  10.722   9.130
  529ETHY    C1  508  26.426  10.503   9.534
  530THSLK    S  509  25.739  12.331   8.327
  531ETHY    C1  510  25.966  12.181   8.694
  532ETHY    C1  511  26.250  12.093   9.148
  533ETHY    C1  512  26.534  12.115   9.607
  534ETHY    C1  513  26.811  12.237  10.061
  535AUSL   AUS  514  25.395  12.226   8.173
  536AUSL   AUS  515  25.068  12.529   8.173
  537AUL    AUL  516  25.231  12.378   8.482
  538THSLK    S  517  25.476  12.175   8.418
  539ETHY    C1  518  25.566  11.957   8.810
  540ETHY    C1  519  25.694  11.783   9.308
  541ETHY    C1  520  25.840  11.718   9.823
  542ETHY    C1  521  25.997  11.752  10.346
  543THSLK    S  522  24.981  12.489   8.432
  544ETHY    C1  523  24.892  12.415   8.874
  545ETHY    C1  524  24.768  12.417   9.403
  546ETHY    C1  525  24.623  12.526   9.912
  547ETHY    C1  526  24.460  12.730  10.392
  548AUSL   AUS  527  25.395  12.529   8.173
  549AUSL   AUS  528  25.741  12.642   7.916
  550AUL    AUL  529  25.722  12.681   8.294
  551THSLK    S  530  25.482  12.581   8.416
  552ETHY    C1  531  25.570  12.798   8.809
  553ETHY    C1  532  25.695  12.971   9.308
  554ETHY    C1  533  25.840  13.037   9.823
  555ETHY    C1  534  26.003  13.004  10.345
  556THSLK    S  535  25.917  12.748   8.079
  557ETHY    C1  536  26.279  12.798   8.355
  558ETHY    C1  537  26.686  12.947   8.681
  559ETHY    C1  538  27.048  13.196   8.995
  560ETHY    C1  539  27.360  13.532   9.293
  561AUSL   AUS  540  25.640  12.378   6.920
  562AUSL   AUS  541  25.496  12.794   6.990
  563AUL    AUL  542  25.722  12.681   6.706
  564THSLK    S  543  25.744  12.331   6.676
  565ETHY    C1  544  25.971  12.181   6.308
  566ETHY    C1  545  26.250  12.093   5.851
  567ETHY    C1  546  26.534  12.115   5.393
  568ETHY    C1  547  26.816  12.237   4.941
  569THSLK    S  548  25.673  12.913   6.820
  570ETHY    C1  549  25.945  13.054   6.480
  571ETHY    C1  550  26.223  13.301   6.085
  572ETHY    C1  551  26.439  13.634   5.720
  573ETHY    C1  552  26.596  14.041   5.391
  574AUSL   AUS  553  25.395  12.226   6.826
  575AUSL   AUS  554  25.741  12.113   7.083
  576AUL    AUL  555  25.722  12.074   6.706
  577THSLK    S  556  25.881  11.922   6.939
  578ETHY    C1  557  26.114  11.605   6.707
  579ETHY    C1  558  26.444  11.298   6.403
  580ETHY    C1  559  26.824  11.089   6.083
  581ETHY    C1  560  27.245  10.972   5.754
  582THSLK    S  561  25.482  12.174   6.583
  583ETHY    C1  562  25.570  11.957   6.191
  584ETHY    C1  563  25.695  11.784   5.692
  585ETHY    C1  564  25.840  11.718   5.176
  586ETHY    C1  565  26.003  11.751   4.656
  587AUSL   AUS  566  25.395  12.529   6.826
  588AUSL   AUS  567  25.068  12.226   6.826
  589AUL    AUL  568  25.231  12.378   6.518
  590THSLK    S  569  24.972  12.174   6.586
  591ETHY    C1  570  24.833  11.959   6.206
  592ETHY    C1  571  24.676  11.788   5.717
  593ETHY    C1  572  24.537  11.722   5.199
  594ETHY    C1  573  24.421  11.753   4.666
  595THSLK    S  574  25.497  12.490   6.572
  596ETHY    C1  575  25.634  12.413   6.142
  597ETHY    C1  576  25.787  12.413   5.622
  598ETHY    C1  577  25.925  12.522   5.112
  599ETHY    C1  578  26.048  12.729   4.621
  600AUSL   AUS  579  24.822  12.378   8.080
  601AUSL   AUS  580  24.967  12.794   8.011
  602AUL    AUL  581  24.740  12.681   8.294
  603THSLK    S  582  24.718  12.331   8.325
  604ETHY    C1  583  24.492  12.181   8.691
  605ETHY    C1  584  24.212  12.093   9.148
  606ETHY    C1  585  23.929  12.115   9.607
  607ETHY    C1  586  23.646  12.237  10.058
  608THSLK    S  587  24.844  12.927   8.201
  609ETHY    C1  588  24.748  13.122   8.604
  610ETHY    C1  589  24.575  13.403   9.034
  611ETHY    C1  590  24.332  13.729   9.390
  612ETHY    C1  591  24.031  14.088   9.671
  613AUSL   AUS  592  25.068  12.226   8.173
  614AUSL   AUS  593  24.721  12.113   7.916
  615AUL    AUL  594  24.740  12.074   8.294
  616THSLK    S  595  24.542  11.947   8.032
  617ETHY    C1  596  24.181  11.700   8.166
  618ETHY    C1  597  23.776  11.434   8.410
  619ETHY    C1  598  23.415  11.214   8.745
  620ETHY    C1  599  23.099  11.041   9.156
  621THSLK    S  600  24.966  12.176   8.413
  622ETHY    C1  601  24.828  11.961   8.793
  623ETHY    C1  602  24.675  11.788   9.284
  624ETHY    C1  603  24.538  11.722   9.800
  625ETHY    C1  604  24.414  11.754  10.332
  626AUSL   AUS  605  24.822  12.378   6.920
  627AUSL   AUS  606  24.967  11.961   6.990
  628AUL    AUL  607  24.740  12.074   6.706
  629THSLK    S  608  24.723  12.331   6.673
  630ETHY    C1  609  24.496  12.181   6.305
  631ETHY    C1  610  24.213  12.093   5.851
  632ETHY    C1  611  23.929  12.115   5.393
  633ETHY    C1  612  23.652  12.237   4.938
  634THSLK    S  613  24.793  11.786   6.865
  635ETHY    C1  614  24.521  11.473   6.673
  636ETHY    C1  615  24.240  11.125   6.367
  637ETHY    C1  616  24.023  10.817   5.980
  638ETHY    C1  617  23.871  10.550   5.528
  639AUSL   AUS  618  25.068  12.529   6.826
  640AUSL   AUS  619  24.721  12.642   7.083
  641AUL    AUL  620  24.740  12.681   6.706
  642THSLK    S  621  24.585  12.773   6.893
  643ETHY    C1  622  24.351  12.894   6.518
  644ETHY    C1  623  24.019  13.082   6.132
  645ETHY    C1  624  23.639  13.321   5.833
  646ETHY    C1  625  23.222  13.601   5.618
  647THSLK    S  626  24.987  12.491   6.566
  648ETHY    C1  627  24.897  12.416   6.124
  649ETHY    C1  628  24.769  12.417   5.597
  650ETHY    C1  629  24.623  12.526   5.089
  651ETHY    C1  630  24.466  12.732   4.608
  652AUSL   AUS  631  25.811  12.787   7.500
  653AUSL   AUS  632  25.741  12.642   7.083
  654AUL    AUL  633  26.025  12.868   7.196
  655THSLK    S  634  25.921  12.749   6.925
  656ETHY    C1  635  26.282  12.799   6.648
  657ETHY    C1  636  26.686  12.947   6.319
  658ETHY    C1  637  27.048  13.196   6.005
  659ETHY    C1  638  27.364  13.533   5.713
  660THSLK    S  639  26.081  12.848   7.503
  661ETHY    C1  640  26.528  12.948   7.502
  662ETHY    C1  641  27.030  13.154   7.500
  663ETHY    C1  642  27.477  13.456   7.500
  664ETHY    C1  643  27.865  13.840   7.503
  665AUSL   AUS  644  25.905  12.541   7.348
  666AUSL   AUS  645  25.905  12.214   7.651
  667AUL    AUL  646  26.213  12.378   7.500
  668THSLK    S  647  26.167  12.588   7.345
  669ETHY    C1  648  26.617  12.557   7.270
  670ETHY    C1  649  27.149  12.612   7.179
  671ETHY    C1  650  27.656  12.775   7.091
  672ETHY    C1  651  28.131  13.033   7.011
  673THSLK    S  652  26.142  12.077   7.659
  674ETHY    C1  653  26.513  11.819   7.726
  675ETHY    C1  654  26.999  11.593   7.808
  676ETHY    C1  655  27.518  11.473   7.896
  677ETHY    C1  656  28.056  11.451   7.989
  678AUSL   AUS  657  25.905  12.541   7.651
  679AUSL   AUS  658  25.648  12.888   7.764
  680AUL    AUL  659  26.025  12.868   7.803
  681THSLK    S  660  25.833  13.012   7.924
  682ETHY    C1  661  26.190  13.204   8.136
  683ETHY    C1  662  26.567  13.511   8.377
  684ETHY    C1  663  26.868  13.898   8.602
  685ETHY    C1  664  27.095  14.349   8.809
  686THSLK    S  665  26.166  12.587   7.661
  687ETHY    C1  666  26.617  12.557   7.734
  688ETHY    C1  667  27.150  12.612   7.821
  689ETHY    C1  668  27.656  12.775   7.908
  690ETHY    C1  669  28.130  13.033   7.995
  691AUSL   AUS  670  24.651  12.787   7.500
  692AUSL   AUS  671  24.721  12.642   7.916
  693AUL    AUL  672  24.437  12.868   7.803
  694THSLK    S  673  24.581  12.768   8.107
  695ETHY    C1  674  24.348  12.889   8.482
  696ETHY    C1  675  24.019  13.082   8.868
  697ETHY    C1  676  23.639  13.321   9.166
  698ETHY    C1  677  23.218  13.596   9.381
  699THSLK    S  678  24.430  12.927   7.503
  700ETHY    C1  679  24.141  13.282   7.502
  701ETHY    C1  680  23.733  13.639   7.500
  702ETHY    C1  681  23.263  13.903   7.500
  703ETHY    C1  682  22.745  14.079   7.503
  704AUSL   AUS  683  24.558  12.541   7.348
  705AUSL   AUS  684  24.815  12.888   7.236
  706AUL    AUL  685  24.437  12.868   7.196
  707THSLK    S  686  24.321  12.655   7.303
  708ETHY    C1  687  23.949  12.829   7.101
  709ETHY    C1  688  23.463  13.005   6.936
  710ETHY    C1  689  22.945  13.137   6.868
  711ETHY    C1  690  22.407  13.229   6.890
  712THSLK    S  691  24.695  13.055   7.056
  713ETHY    C1  692  24.543  13.374   6.765
  714ETHY    C1  693  24.289  13.754   6.473
  715ETHY    C1  694  23.956  14.122   6.260
  716ETHY    C1  695  23.560  14.472   6.122
  717AUSL   AUS  696  24.558  12.541   7.651
  718AUSL   AUS  697  24.558  12.214   7.348
  719AUL    AUL  698  24.250  12.378   7.500
  720THSLK    S  699  24.296  12.139   7.384
  721ETHY    C1  700  23.846  12.088   7.446
  722ETHY    C1  701  23.313  11.985   7.434
  723ETHY    C1  702  22.806  11.835   7.327
  724ETHY    C1  703  22.333  11.642   7.135
  725THSLK    S  704  24.320  12.649   7.699
  726ETHY    C1  705  23.949  12.825   7.901
  727ETHY    C1  706  23.463  13.004   8.063
  728ETHY    C1  707  22.945  13.137   8.133
  729ETHY    C1  708  22.406  13.223   8.114
  730AUSL   AUS  709  25.811  11.968   7.500
  731AUSL   AUS  710  25.741  12.113   7.916
  732AUL    AUL  711  26.025  11.887   7.803
  733THSLK    S  712  26.032  11.828   7.503
  734ETHY    C1  713  26.321  11.473   7.502
  735ETHY    C1  714  26.730  11.116   7.500
  736ETHY    C1  715  27.200  10.852   7.500
  737ETHY    C1  716  27.717  10.676   7.503
  738THSLK    S  717  25.878  11.923   8.066
  739ETHY    C1  718  26.111  11.606   8.297
  740ETHY    C1  719  26.444  11.299   8.598
  741ETHY    C1  720  26.824  11.089   8.918
  742ETHY    C1  721  27.241  10.973   9.250
  743AUSL   AUS  722  25.905  12.214   7.348
  744AUSL   AUS  723  25.648  11.867   7.236
  745AUL    AUL  724  26.025  11.887   7.196
  746THSLK    S  725  26.143  12.077   7.346
  747ETHY    C1  726  26.514  11.819   7.279
  748ETHY    C1  727  26.999  11.593   7.192
  749ETHY    C1  728  27.518  11.473   7.103
  750ETHY    C1  729  28.057  11.451   7.018
  751THSLK    S  730  25.771  11.676   7.099
  752ETHY    C1  731  25.921  11.274   6.942
  753ETHY    C1  732  26.174  10.844   6.728
  754ETHY    C1  733  26.506  10.488   6.495
  755ETHY    C1  734  26.905  10.207   6.249
  756AUSL   AUS  735  24.651  11.968   7.500
  757AUSL   AUS  736  24.721  12.113   7.083
  758AUL    AUL  737  24.437  11.887   7.196
  759THSLK    S  738  24.546  11.942   6.966
  760ETHY    C1  739  24.184  11.696   6.833
  761ETHY    C1  740  23.776  11.433   6.589
  762ETHY    C1  741  23.415  11.214   6.255
  763ETHY    C1  742  23.103  11.036   5.843
  764THSLK    S  743  24.381  11.907   7.503
  765ETHY    C1  744  23.935  11.807   7.502
  766ETHY    C1  745  23.433  11.601   7.500
  767ETHY    C1  746  22.986  11.299   7.500
  768ETHY    C1  747  22.598  10.915   7.503
  769AUSL   AUS  748  24.558  12.214   7.651
  770AUSL   AUS  749  24.815  11.867   7.764
  771AUL    AUL  750  24.437  11.887   7.803
  772THSLK    S  751  24.627  11.719   7.881
  773ETHY    C1  752  24.271  11.443   7.958
  774ETHY    C1  753  23.896  11.086   8.122
  775ETHY    C1  754  23.595  10.712   8.367
  776ETHY    C1  755  23.364  10.330   8.682
  777THSLK    S  756  24.295  12.144   7.618
  778ETHY    C1  757  23.845  12.092   7.557
  779ETHY    C1  758  23.313  11.986   7.566
  780ETHY    C1  759  22.806  11.835   7.673
  781ETHY    C1  760  22.332  11.647   7.867
  782AUSL   AUS  761  25.231  12.958   7.909
  783AUSL   AUS  762  24.815  12.888   7.764
  784AUL    AUL  763  24.928  13.172   7.991
  785THSLK    S  764  24.692  13.050   7.948
  786ETHY    C1  765  24.541  13.370   8.237
  787ETHY    C1  766  24.288  13.753   8.527
  788ETHY    C1  767  23.956  14.121   8.740
  789ETHY    C1  768  23.557  14.467   8.881
  790THSLK    S  769  25.269  13.189   8.034
  791ETHY    C1  770  25.397  13.515   8.327
  792ETHY    C1  771  25.474  13.947   8.646
  793ETHY    C1  772  25.455  14.412   8.920
  794ETHY    C1  773  25.349  14.897   9.147
  795AUSL   AUS  774  25.080  13.051   7.663
  796AUSL   AUS  775  25.383  13.051   7.336
  797AUL    AUL  776  25.231  13.359   7.500
  798THSLK    S  777  25.117  13.303   7.772
  799ETHY    C1  778  25.190  13.727   7.929
  800ETHY    C1  779  25.187  14.243   8.095
  801ETHY    C1  780  25.079  14.754   8.229
  802ETHY    C1  781  24.875  15.250   8.336
  803THSLK    S  782  25.434  13.291   7.237
  804ETHY    C1  783  25.647  13.668   7.091
  805ETHY    C1  784  25.817  14.157   6.929
  806ETHY    C1  785  25.884  14.675   6.792
  807ETHY    C1  786  25.855  15.209   6.682
  808AUSL   AUS  787  25.383  13.051   7.663
  809AUSL   AUS  788  25.496  12.794   8.011
  810AUL    AUL  789  25.535  13.172   7.991
  811THSLK    S  790  25.669  12.911   8.184
  812ETHY    C1  791  25.942  13.052   8.522
  813ETHY    C1  792  26.223  13.301   8.915
  814ETHY    C1  793  26.439  13.634   9.279
  815ETHY    C1  794  26.591  14.039   9.614
  816THSLK    S  795  25.433  13.289   7.768
  817ETHY    C1  796  25.646  13.668   7.913
  818ETHY    C1  797  25.817  14.157   8.072
  819ETHY    C1  798  25.884  14.675   8.207
  820ETHY    C1  799  25.853  15.208   8.325
  821AUSL   AUS  800  25.231  11.797   7.909
  822AUSL   AUS  801  25.648  11.867   7.764
  823AUL    AUL  802  25.535  11.583   7.991
  824THSLK    S  803  25.190  11.540   7.992
  825ETHY    C1  804  25.063  11.131   8.152
  826ETHY    C1  805  24.989  10.650   8.391
  827ETHY    C1  806  25.008  10.198   8.684
  828ETHY    C1  807  25.110   9.780   9.021
  829THSLK    S  808  25.768  11.677   7.907
  830ETHY    C1  809  25.919  11.275   8.062
  831ETHY    C1  810  26.174  10.844   8.272
  832ETHY    C1  811  26.506  10.488   8.505
  833ETHY    C1  812  26.902  10.209   8.758
  834AUSL   AUS  813  25.080  11.704   7.663
  835AUSL   AUS  814  24.967  11.961   8.011
  836AUL    AUL  815  24.928  11.583   7.991
  837THSLK    S  816  25.029  11.459   7.744
  838ETHY    C1  817  24.816  11.060   7.812
  839ETHY    C1  818  24.645  10.557   7.925
  840ETHY    C1  819  24.579  10.043   8.072
  841ETHY    C1  820  24.608   9.528   8.252
  842THSLK    S  821  24.789  11.791   8.136
  843ETHY    C1  822  24.517  11.476   8.327
  844ETHY    C1  823  24.239  11.125   8.633
  845ETHY    C1  824  24.023  10.817   9.019
  846ETHY    C1  825  23.867  10.555   9.473
  847AUSL   AUS  826  25.383  11.704   7.663
  848AUSL   AUS  827  25.080  11.704   7.336
  849AUL    AUL  828  25.231  11.396   7.500
  850THSLK    S  829  25.030  11.457   7.261
  851ETHY    C1  830  24.817  11.059   7.192
  852ETHY    C1  831  24.645  10.557   7.076
  853ETHY    C1  832  24.579  10.043   6.927
  854ETHY    C1  833  24.610   9.526   6.754
  855THSLK    S  834  25.344  11.445   7.748
  856ETHY    C1  835  25.272  11.000   7.829
  857ETHY    C1  836  25.275  10.471   7.948
  858ETHY    C1  837  25.384   9.963   8.095
  859ETHY    C1  838  25.586   9.485   8.264
  860AUSL   AUS  839  25.231  12.958   7.091
  861AUSL   AUS  840  25.648  12.888   7.236
  862AUL    AUL  841  25.535  13.172   7.009
  863THSLK    S  842  25.273  13.192   6.971
  864ETHY    C1  843  25.400  13.517   6.676
  865ETHY    C1  844  25.474  13.947   6.353
  866ETHY    C1  845  25.455  14.412   6.080
  867ETHY    C1  846  25.352  14.900   5.857
  868THSLK    S  847  25.835  13.013   7.081
  869ETHY    C1  848  26.192  13.205   6.869
  870ETHY    C1  849  26.567  13.511   6.623
  871ETHY    C1  850  26.868  13.898   6.398
  872ETHY    C1  851  27.098  14.350   6.197
  873AUSL   AUS  852  25.080  13.051   7.336
  874AUSL   AUS  853  24.967  12.794   6.990
  875AUL    AUL  854  24.928  13.172   7.009
  876THSLK    S  855  25.119  13.305   7.233
  877ETHY    C1  856  25.191  13.728   7.074
  878ETHY    C1  857  25.188  14.244   6.906
  879ETHY    C1  858  25.079  14.754   6.770
  880ETHY    C1  859  24.877  15.252   6.670
  881THSLK    S  860  24.848  12.931   6.800
  882ETHY    C1  861  24.752  13.125   6.396
  883ETHY    C1  862  24.575  13.403   5.966
  884ETHY    C1  863  24.332  13.728   5.611
  885ETHY    C1  864  24.036  14.093   5.330
  886AUSL   AUS  865  25.231  11.797   7.091
  887AUSL   AUS  866  24.815  11.867   7.236
  888AUL    AUL  867  24.928  11.583   7.009
  889THSLK    S  868  24.630  11.714   7.122
  890ETHY    C1  869  24.273  11.440   7.044
  891ETHY    C1  870  23.896  11.086   6.878
  892ETHY    C1  871  23.594  10.712   6.633
  893ETHY    C1  872  23.367  10.325   6.321
  894THSLK    S  873  25.193  11.537   7.013
  895ETHY    C1  874  25.065  11.129   6.852
  896ETHY    C1  875  24.989  10.650   6.609
  897ETHY    C1  876  25.008  10.198   6.315
  898ETHY    C1  877  25.114   9.777   5.983
  899AUSL   AUS  878  25.383  11.704   7.336
  900AUSL   AUS  879  25.496  11.961   6.990
  901AUL    AUL  880  25.535  11.583   7.009
  902THSLK    S  881  25.346  11.444   7.258
  903ETHY    C1  882  25.273  10.999   7.175
  904ETHY    C1  883  25.275  10.471   7.052
  905ETHY    C1  884  25.383   9.963   6.905
  906ETHY    C1  885  25.588   9.484   6.742
  907THSLK    S  886  25.619  11.771   6.847
  908ETHY    C1  887  25.714  11.403   6.592
  909ETHY    C1  888  25.888  11.022   6.247
  910ETHY    C1  889  26.130  10.722   5.870
  911ETHY    C1  890  26.431  10.501   5.471
  912AUC    AUC  891  32.156  17.233   7.500
  913AUC    AUC  892  32.402  17.233   7.348
  914AUC    AUC  893  32.402  17.233   7.651
  915AUC    AUC  894  31.911  17.233   7.348
  916AUC    AUC  895  31.911  17.233   7.651
  917AUC    AUC  896  32.005  17.478   7.500
  918AUC    AUC  897  32.308  17.478   7.500
  919AUC    AUC  898  32.005  16.987   7.500
  920AUC    AUC  899  32.308  16.987   7.500
  921AUC    AUC  900  32.156  17.081   7.745
  922AUC    AUC  901  32.156  17.384   7.745
  923AUC    AUC  902  32.156  17.081   7.254
  924AUC    AUC  903  32.156  17.384   7.254
  925AUC    AUC  904  32.647  17.233   7.196
  926AUC    AUC  905  32.647  17.233   7.500
  927AUC    AUC  906  32.647  17.233   7.803
  928AUC    AUC  907  31.665  17.233   7.196
  929AUC    AUC  908  31.665  17.233   7.500
  930AUC    AUC  909  31.665  17.233   7.803
  931AUC    AUC  910  31.853  17.723   7.500
  932AUC    AUC  911  32.156  17.723   7.500
  933AUC    AUC  912  32.460  17.723   7.500
  934AUC    AUC  913  31.853  16.742   7.500
  935AUC    AUC  914  32.156  16.742   7.500
  936AUC    AUC  915  32.460  16.742   7.500
  937AUC    AUC  916  32.156  16.929   7.991
  938AUC    AUC  917  32.156  17.233   7.991
  939AUC    AUC  918  32.156  17.536   7.991
  940AUC    AUC  919  32.156  16.929   7.009
  941AUC    AUC  920  32.156  17.233   7.009
  942AUC    AUC  921  32.156  17.536   7.009
  943AUC    AUC  922  32.402  17.081   7.897
  944AUC    AUC  923  32.402  17.384   7.897
  945AUC    AUC  924  32.402  17.081   7.103
  946AUC    AUC  925  32.402  17.384   7.103
  947AUC    AUC  926  31.911  17.081   7.897
  948AUC    AUC  927  31.911  17.384   7.897
  949AUC    AUC  928  31.911  17.081   7.103
  950AUC    AUC  929  31.911  17.384   7.103
  951AUC    AUC  930  32.553  17.478   7.348
  952AUC    AUC  931  32.553  17.478   7.651
  953AUC    AUC  932  31.759  17.478   7.348
  954AUC    AUC  933  31.759  17.478   7.651
  955AUC    AUC  934  32.553  16.987   7.348
  956AUC    AUC  935  32.553  16.987   7.651
  957AUC    AUC  936  31.759  16.987   7.348
  958AUC    AUC  937  31.759  16.987   7.651
  959AUC    AUC  938  32.005  17.630   7.745
  960AUC    AUC  939  32.308  17.630   7.745
  961AUC    AUC  940  32.005  16.835   7.745
  962AUC    AUC  941  32.308  16.835   7.745
  963AUC    AUC  942  32.005  17.630   7.254
  964AUC    AUC  943  32.308  17.630   7.254
  965AUC    AUC  944  32.005  16.835   7.254
  966AUC    AUC  945  32.308  16.835   7.254
  967AUSL   AUS  946  32.565  17.233   8.080
  968AUSL   AUS  947  32.421  16.816   8.011
  969AUL    AUL  948  32.647  16.929   8.294
  970THSLK    S  949  32.539  16.628   8.156
  971ETHY    C1  950  32.635  16.260   8.412
  972ETHY    C1  951  32.813  15.877   8.753
  973ETHY    C1  952  33.055  15.577   9.130
  974ETHY    C1  953  33.351  15.358   9.534
  975THSLK    S  954  32.664  17.186   8.327
  976ETHY    C1  955  32.891  17.036   8.694
  977ETHY    C1  956  33.175  16.948   9.148
  978ETHY    C1  957  33.459  16.970   9.607
  979ETHY    C1  958  33.736  17.092  10.061
  980AUSL   AUS  959  32.320  17.081   8.173
  981AUSL   AUS  960  31.993  17.384   8.173
  982AUL    AUL  961  32.156  17.233   8.482
  983THSLK    S  962  32.401  17.030   8.418
  984ETHY    C1  963  32.491  16.812   8.810
  985ETHY    C1  964  32.619  16.638   9.308
  986ETHY    C1  965  32.765  16.573   9.823
  987ETHY    C1  966  32.922  16.607  10.346
  988THSLK    S  967  31.906  17.344   8.432
  989ETHY    C1  968  31.817  17.270   8.874
  990ETHY    C1  969  31.693  17.272   9.403
  991ETHY    C1  970  31.548  17.381   9.912
  992ETHY    C1  971  31.385  17.585  10.392
  993AUSL   AUS  972  32.320  17.384   8.173
  994AUSL   AUS  973  32.666  17.497   7.916
  995AUL    AUL  974  32.647  17.536   8.294
  996THSLK    S  975  32.407  17.436   8.416
  997ETHY    C1  976  32.495  17.653   8.809
  998ETHY    C1  977  32.620  17.826   9.308
  999ETHY    C1  978  32.765  17.892   9.823
 1000ETHY    C1  979  32.928  17.859  10.345
 1001THSLK    S  980  32.842  17.603   8.079
 1002ETHY    C1  981  33.204  17.653   8.355
 1003ETHY    C1  982  33.611  17.802   8.681
 1004ETHY    C1  983  33.973  18.051   8.995
 1005ETHY    C1  984  34.285  18.387   9.293
 1006AUSL   AUS  985  32.565  17.233   6.920
 1007AUSL   AUS  986  32.421  17.649   6.990
 1008AUL    AUL  987  32.647  17.536   6.706
 1009THSLK    S  988  32.669  17.186   6.676
 1010ETHY    C1  989  32.896  17.036   6.308
 1011ETHY    C1  990  33.175  16.948   5.851
 1012ETHY    C1  991  33.459  16.970   5.393
 1013ETHY    C1  992  33.741  17.092   4.941
 1014THSLK    S  993  32.598  17.768   6.820
 1015ETHY    C1  994  32.870  17.909   6.480
 1016ETHY    C1  995  33.148  18.156   6.085
 1017ETHY    C1  996  33.364  18.489   5.720
 1018ETHY    C1  997  33.521  18.896   5.391
 1019AUSL   AUS  998  32.320  17.081   6.826
 1020AUSL   AUS  999  32.666  16.968   7.083
 1021AUL    AUL 1000  32.647  16.929   6.706
 1022THSLK    S 1001  32.806  16.777   6.939
 1023ETHY    C1 1002  33.039  16.460   6.707
 1024ETHY    C1 1003  33.369  16.153   6.403
 1025ETHY    C1 1004  33.749  15.944   6.083
 1026ETHY    C1 1005  34.170  15.827   5.754
 1027THSLK    S 1006  32.407  17.029   6.583
 1028ETHY    C1 1007  32.495  16.812   6.191
 1029ETHY    C1 1008  32.620  16.639   5.692
 1030ETHY    C1 1009  32.765  16.573   5.176
 1031ETHY    C1 1010  32.928  16.606   4.656
 1032AUSL   AUS 1011  32.320  17.384   6.826
 1033AUSL   AUS 1012  31.993  17.081   6.826
 1034AUL    AUL 1013  32.156  17.233   6.518
 1035THSLK    S 1014  31.897  17.029   6.586
 1036ETHY    C1 1015  31.758  16.814   6.206
 1037ETHY    C1 1016  31.601  16.643   5.717
 1038ETHY    C1 1017  31.462  16.577   5.199
 1039ETHY    C1 1018  31.346  16.608   4.666
 1040THSLK    S 1019  32.422  17.345   6.572
 1041ETHY    C1 1020  32.559  17.268   6.142
 1042ETHY    C1 1021  32.712  17.268   5.622
 1043ETHY    C1 1022  32.850  17.377   5.112
 1044ETHY    C1 1023  32.973  17.584   4.621
 1045AUSL   AUS 1024  31.747  17.233   8.080
 1046AUSL   AUS 1025  31.892  17.649   8.011
 1047AUL    AUL 1026  31.665  17.536   8.294
 1048THSLK    S 1027  31.643  17.186   8.325
 1049ETHY    C1 1028  31.417  17.036   8.691
 1050ETHY    C1 1029  31.137  16.948   9.148
 1051ETHY    C1 1030  30.854  16.970   9.607
 1052ETHY    C1 1031  30.571  17.092  10.058
 1053THSLK    S 1032  31.769  17.782   8.201
 1054ETHY    C1 1033  31.673  17.977   8.604
 1055ETHY    C1 1034  31.500  18.258   9.034
 1056ETHY    C1 1035  31.257  18.584   9.390
 1057ETHY    C1 1036  30.956  18.943   9.671
 1058AUSL   AUS 1037  31.993  17.081   8.173
 1059AUSL   AUS 1038  31.646  16.968   7.916
 1060AUL    AUL 1039  31.665  16.929   8.294
 1061THSLK    S 1040  31.467  16.802   8.032
 1062ETHY    C1 1041  31.106  16.555   8.166
 1063ETHY    C1 1042  30.701  16.289   8.410
 1064ETHY    C1 1043  30.340  16.069   8.745
 1065ETHY    C1 1044  30.024  15.896   9.156
 1066THSLK    S 1045  31.891  17.031   8.413
 1067ETHY    C1 1046  31.753  16.816   8.793
 1068ETHY    C1 1047  31.600  16.643   9.284
 1069ETHY    C1 1048  31.463  16.577   9.800
 1070ETHY    C1 1049  31.339  16.609  10.332
 1071AUSL   AUS 1050  31.747  17.233   6.920
 1072AUSL   AUS 1051  31.892  16.816   6.990
 1073AUL    AUL 1052  31.665  16.929   6.706
 1074THSLK    S 1053  31.648  17.186   6.673
 1075ETHY    C1 1054  31.421  17.036   6.305
 1076ETHY    C1 1055  31.138  16.948   5.851
 1077ETHY    C1 1056  30.854  16.970   5.393
 1078ETHY    C1 1057  30.577  17.092   4.938
 1079THSLK    S 1058  31.718  16.641   6.865
 1080ETHY    C1 1059  31.446  16.328   6.673
 1081ETHY    C1 1060  31.165  15.980   6.367
 1082ETHY    C1 1061  30.948  15.672   5.980
 1083ETHY    C1 1062  30.796  15.405   5.528
 1084AUSL   AUS 1063  31.993  17.384   6.826
 1085AUSL   AUS 1064  31.646  17.497   7.083
 1086AUL    AUL 1065  31.665  17.536   6.706
 1087THSLK    S 1066  31.510  17.628   6.893
 1088ETHY    C1 1067  31.276  17.749   6.518
 1089ETHY    C1 1068  30.944  17.937   6.132
 1090ETHY    C1 1069  30.564  18.176   5.833
 1091ETHY    C1 1070  30.147  18.456   5.618
 1092THSLK    S 1071  31.912  17.346   6.566
 1093ETHY    C1 1072  31.822  17.271   6.124
 1094ETHY    C1 1073  31.694  17.272   5.597
 1095ETHY    C1 1074  31.548  17.381   5.089
 1096ETHY    C1 1075  31.391  17.587   4.608
 1097AUSL   AUS 1076  32.736  17.642   7.500
 1098AUSL   AUS 1077  32.666  17.497   7.083
 1099AUL    AUL 1078  32.950  17.723   7.196
 1100THSLK    S 1079  32.846  17.604   6.925
 1101ETHY    C1 1080  33.207  17.654   6.648
 1102ETHY    C1 1081  33.611  17.802   6.319
 1103ETHY    C1 1082  33.973  18.051   6.005
 1104ETHY    C1 1083  34.289  18.388   5.713
 1105THSLK    S 1084  33.006  17.703   7.503
 1106ETHY    C1 1085  33.453  17.803   7.502
 1107ETHY    C1 1086  33.955  18.009   7.500
 1108ETHY    C1 1087  34.402  18.311   7.500
 1109ETHY    C1 1088  34.790  18.695   7.503
 1110AUSL   AUS 1089  32.830  17.396   7.348
 1111AUSL   AUS 1090  32.830  17.069   7.651
 1112AUL    AUL 1091  33.138  17.233   7.500
 1113THSLK    S 1092  33.092  17.443   7.345
 1114ETHY    C1 1093  33.542  17.412   7.270
 1115ETHY    C1 1094  34.074  17.467   7.179
 1116ETHY    C1 1095  34.581  17.630   7.091
 1117ETHY    C1 1096  35.056  17.888   7.011
 1118THSLK    S 1097  33.067  16.932   7.659
 1119ETHY    C1 1098  33.438  16.674   7.726
 1120ETHY    C1 1099  33.924  16.448   7.808
 1121ETHY    C1 1100  34.443  16.328   7.896
 1122ETHY    C1 1101  34.981  16.306   7.989
 1123AUSL   AUS 1102  32.830  17.396   7.651
 1124AUSL   AUS 1103  32.573  17.743   7.764
 1125AUL    AUL 1104  32.950  17.723   7.803
 1126THSLK    S 1105  32.758  17.867   7.924
 1127ETHY    C1 1106  33.115  18.059   8.136
 1128ETHY    C1 1107  33.492  18.366   8.377
 1129ETHY    C1 1108  33.793  18.753   8.602
 1130ETHY    C1 1109  34.020  19.204   8.809
 1131THSLK    S 1110  33.091  17.442   7.661
 1132ETHY    C1 1111  33.542  17.412   7.734
 1133ETHY    C1 1112  34.075  17.467   7.821
 1134ETHY    C1 1113  34.581  17.630   7.908
 1135ETHY    C1 1114  35.055  17.888   7.995
 1136AUSL   AUS 1115  31.576  17.642   7.500
 1137AUSL   AUS 1116  31.646  17.497   7.916
 1138AUL    AUL 1117  31.362  17.723   7.803
 1139THSLK    S 1118  31.506  17.623   8.107
 1140ETHY    C1 1119  31.273  17.744   8.482
 1141ETHY    C1 1120  30.944  17.937   8.868
 1142ETHY    C1 1121  30.564  18.176   9.166
 1143ETHY    C1 1122  30.143  18.451   9.381
 1144THSLK    S 1123  31.355  17.782   7.503
 1145ETHY    C1 1124  31.066  18.137   7.502
 1146ETHY    C1 1125  30.658  18.494   7.500
 1147ETHY    C1 1126  30.188  18.758   7.500
 1148ETHY    C1 1127  29.670  18.934   7.503
 1149AUSL   AUS 1128  31.483  17.396   7.348
 1150AUSL   AUS 1129  31.740  17.743   7.236
 1151AUL    AUL 1130  31.362  17.723   7.196
 1152THSLK    S 1131  31.246  17.510   7.303
 1153ETHY    C1 1132  30.874  17.684   7.101
 1154ETHY    C1 1133  30.388  17.860   6.936
 1155ETHY    C1 1134  29.870  17.992   6.868
 1156ETHY    C1 1135  29.332  18.084   6.890
 1157THSLK    S 1136  31.620  17.910   7.056
 1158ETHY    C1 1137  31.468  18.229   6.765
 1159ETHY    C1 1138  31.214  18.609   6.473
 1160ETHY    C1 1139  30.881  18.977   6.260
 1161ETHY    C1 1140  30.485  19.327   6.122
 1162AUSL   AUS 1141  31.483  17.396   7.651
 1163AUSL   AUS 1142  31.483  17.069   7.348
 1164AUL    AUL 1143  31.175  17.233   7.500
 1165THSLK    S 1144  31.221  16.994   7.384
 1166ETHY    C1 1145  30.771  16.943   7.446
 1167ETHY    C1 1146  30.238  16.840   7.434
 1168ETHY    C1 1147  29.731  16.690   7.327
 1169ETHY    C1 1148  29.258  16.497   7.135
 1170THSLK    S 1149  31.245  17.504   7.699
 1171ETHY    C1 1150  30.874  17.680   7.901
 1172ETHY    C1 1151  30.388  17.859   8.063
 1173ETHY    C1 1152  29.870  17.992   8.133
 1174ETHY    C1 1153  29.331  18.078   8.114
 1175AUSL   AUS 1154  32.736  16.823   7.500
 1176AUSL   AUS 1155  32.666  16.968   7.916
 1177AUL    AUL 1156  32.950  16.742   7.803
 1178THSLK    S 1157  32.957  16.683   7.503
 1179ETHY    C1 1158  33.246  16.328   7.502
 1180ETHY    C1 1159  33.655  15.971   7.500
 1181ETHY    C1 1160  34.125  15.707   7.500
 1182ETHY    C1 1161  34.642  15.531   7.503
 1183THSLK    S 1162  32.803  16.778   8.066
 1184ETHY    C1 1163  33.036  16.461   8.297
 1185ETHY    C1 1164  33.369  16.154   8.598
 1186ETHY    C1 1165  33.749  15.944   8.918
 1187ETHY    C1 1166  34.166  15.828   9.250
 1188AUSL   AUS 1167  32.830  17.069   7.348
 1189AUSL   AUS 1168  32.573  16.722   7.236
 1190AUL    AUL 1169  32.950  16.742   7.196
 1191THSLK    S 1170  33.068  16.932   7.346
 1192ETHY    C1 1171  33.439  16.674   7.279
 1193ETHY    C1 1172  33.924  16.448   7.192
 1194ETHY    C1 1173  34.443  16.328   7.103
 1195ETHY    C1 1174  34.982  16.306   7.018
 1196THSLK    S 1175  32.696  16.531   7.099
 1197ETHY    C1 1176  32.846  16.129   6.942
 1198ETHY    C1 1177  33.099  15.699   6.728
 1199ETHY    C1 1178  33.431  15.343   6.495
 1200ETHY    C1 1179  33.830  15.062   6.249
 1201AUSL   AUS 1180  31.576  16.823   7.500
 1202AUSL   AUS 1181  31.646  16.968   7.083
 1203AUL    AUL 1182  31.362  16.742   7.196
 1204THSLK    S 1183  31.471  16.797   6.966
 1205ETHY    C1 1184  31.109  16.551   6.833
 1206ETHY    C1 1185  30.701  16.288   6.589
 1207ETHY    C1 1186  30.340  16.069   6.255
 1208ETHY    C1 1187  30.028  15.891   5.843
 1209THSLK    S 1188  31.306  16.762   7.503
 1210ETHY    C1 1189  30.860  16.662   7.502
 1211ETHY    C1 1190  30.358  16.456   7.500
 1212ETHY    C1 1191  29.911  16.154   7.500
 1213ETHY    C1 1192  29.523  15.770   7.503
 1214AUSL   AUS 1193  31.483  17.069   7.651
 1215AUSL   AUS 1194  31.740  16.722   7.764
 1216AUL    AUL 1195  31.362  16.742   7.803
 1217THSLK    S 1196  31.552  16.574   7.881
 1218ETHY    C1 1197  31.196  16.298   7.958
 1219ETHY    C1 1198  30.821  15.941   8.122
 1220ETHY    C1 1199  30.520  15.567   8.367
 1221ETHY    C1 1200  30.289  15.185   8.682
 1222THSLK    S 1201  31.220  16.999   7.618
 1223ETHY    C1 1202  30.770  16.947   7.557
 1224ETHY    C1 1203  30.238  16.841   7.566
 1225ETHY    C1 1204  29.731  16.690   7.673
 1226ETHY    C1 1205  29.257  16.502   7.867
 1227AUSL   AUS 1206  32.156  17.813   7.909
 1228AUSL   AUS 1207  31.740  17.743   7.764
 1229AUL    AUL 1208  31.853  18.027   7.991
 1230THSLK    S 1209  31.617  17.905   7.948
 1231ETHY    C1 1210  31.466  18.225   8.237
 1232ETHY    C1 1211  31.213  18.608   8.527
 1233ETHY    C1 1212  30.881  18.976   8.740
 1234ETHY    C1 1213  30.482  19.322   8.881
 1235THSLK    S 1214  32.194  18.044   8.034
 1236ETHY    C1 1215  32.322  18.370   8.327
 1237ETHY    C1 1216  32.399  18.802   8.646
 1238ETHY    C1 1217  32.380  19.267   8.920
 1239ETHY    C1 1218  32.274  19.752   9.147
 1240AUSL   AUS 1219  32.005  17.906   7.663
 1241AUSL   AUS 1220  32.308  17.906   7.336
 1242AUL    AUL 1221  32.156  18.214   7.500
 1243THSLK    S 1222  32.042  18.158   7.772
 1244ETHY    C1 1223  32.115  18.582   7.929
 1245ETHY    C1 1224  32.112  19.098   8.095
 1246ETHY    C1 1225  32.004  19.609   8.229
 1247ETHY    C1 1226  31.800  20.105   8.336
 1248THSLK    S 1227  32.359  18.146   7.237
 1249ETHY    C1 1228  32.572  18.523   7.091
 1250ETHY    C1 1229  32.742  19.012   6.929
 1251ETHY    C1 1230  32.809  19.530   6.792
 1252ETHY    C1 1231  32.780  20.064   6.682
 1253AUSL   AUS 1232  32.308  17.906   7.663
 1254AUSL   AUS 1233  32.421  17.649   8.011
 1255AUL    AUL 1234  32.460  18.027   7.991
 1256THSLK    S 1235  32.594  17.766   8.184
 1257ETHY    C1 1236  32.867  17.907   8.522
 1258ETHY    C1 1237  33.148  18.156   8.915
 1259ETHY    C1 1238  33.364  18.489   9.279
 1260ETHY    C1 1239  33.516  18.894   9.614
 1261THSLK    S 1240  32.358  18.144   7.768
 1262ETHY    C1 1241  32.571  18.523   7.913
 1263ETHY    C1 1242  32.742  19.012   8.072
 1264ETHY    C1 1243  32.809  19.530   8.207
 1265ETHY    C1 1244  32.778  20.063   8.325
 1266AUSL   AUS 1245  32.156  16.652   7.909
 1267AUSL   AUS 1246  32.573  16.722   7.764
 1268AUL    AUL 1247  32.460  16.438   7.991
 1269THSLK    S 1248  32.115  16.395   7.992
 1270ETHY    C1 1249  31.988  15.986   8.152
 1271ETHY    C1 1250  31.914  15.505   8.391
 1272ETHY    C1 1251  31.933  15.053   8.684
 1273ETHY    C1 1252  32.035  14.635   9.021
 1274THSLK    S 1253  32.693  16.532   7.907
 1275ETHY    C1 1254  32.844  16.130   8.062
 1276ETHY    C1 1255  33.099  15.699   8.272
 1277ETHY    C1 1256  33.431  15.343   8.505
 1278ETHY    C1 1257  33.827  15.064   8.758
 1279AUSL   AUS 1258  32.005  16.559   7.663
 1280AUSL   AUS 1259  31.892  16.816   8.011
 1281AUL    AUL 1260  31.853  16.438   7.991
 1282THSLK    S 1261  31.954  16.314   7.744
 1283ETHY    C1 1262  31.741  15.915   7.812
 1284ETHY    C1 1263  31.570  15.412   7.925
 1285ETHY    C1 1264  31.504  14.898   8.072
 1286ETHY    C1 1265  31.533  14.383   8.252
 1287THSLK    S 1266  31.714  16.646   8.136
 1288ETHY    C1 1267  31.442  16.331   8.327
 1289ETHY    C1 1268  31.164  15.980   8.633
 1290ETHY    C1 1269  30.948  15.672   9.019
 1291ETHY    C1 1270  30.792  15.410   9.473
 1292AUSL   AUS 1271  32.308  16.559   7.663
 1293AUSL   AUS 1272  32.005  16.559   7.336
 1294AUL    AUL 1273  32.156  16.251   7.500
 1295THSLK    S 1274  31.955  16.312   7.261
 1296ETHY    C1 1275  31.742  15.914   7.192
 1297ETHY    C1 1276  31.570  15.412   7.076
 1298ETHY    C1 1277  31.504  14.898   6.927
 1299ETHY    C1 1278  31.535  14.381   6.754
 1300THSLK    S 1279  32.269  16.300   7.748
 1301ETHY    C1 1280  32.197  15.855   7.829
 1302ETHY    C1 1281  32.200  15.326   7.948
 1303ETHY    C1 1282  32.309  14.818   8.095
 1304ETHY    C1 1283  32.511  14.340   8.264
 1305AUSL   AUS 1284  32.156  17.813   7.091
 1306AUSL   AUS 1285  32.573  17.743   7.236
 1307AUL    AUL 1286  32.460  18.027   7.009
 1308THSLK    S 1287  32.198  18.047   6.971
 1309ETHY    C1 1288  32.325  18.372   6.676
 1310ETHY    C1 1289  32.399  18.802   6.353
 1311ETHY    C1 1290  32.380  19.267   6.080
 1312ETHY    C1 1291  32.277  19.755   5.857
 1313THSLK    S 1292  32.760  17.868   7.081
 1314ETHY    C1 1293  33.117  18.060   6.869
 1315ETHY    C1 1294  33.492  18.366   6.623
 1316ETHY    C1 1295  33.793  18.753   6.398
 1317ETHY    C1 1296  34.023  19.205   6.197
 1318AUSL   AUS 1297  32.005  17.906   7.336
 1319AUSL   AUS 1298  31.892  17.649   6.990
 1320AUL    AUL 1299  31.853  18.027   7.009
 1321THSLK    S 1300  32.044  18.160   7.233
 1322ETHY    C1 1301  32.116  18.583   7.074
 1323ETHY    C1 1302  32.113  19.099   6.906
 1324ETHY    C1 1303  32.004  19.609   6.770
 1325ETHY    C1 1304  31.802  20.107   6.670
 1326THSLK    S 1305  31.773  17.786   6.800
 1327ETHY    C1 1306  31.677  17.980   6.396
 1328ETHY    C1 1307  31.500  18.258   5.966
 1329ETHY    C1 1308  31.257  18.583   5.611
 1330ETHY    C1 1309  30.961  18.948   5.330
 1331AUSL   AUS 1310  32.156  16.652   7.091
 1332AUSL   AUS 1311  31.740  16.722   7.236
 1333AUL    AUL 1312  31.853  16.438   7.009
 1334THSLK    S 1313  31.555  16.569   7.122
 1335ETHY    C1 1314  31.198  16.295   7.044
 1336ETHY    C1 1315  30.821  15.941   6.878
 1337ETHY    C1 1316  30.519  15.567   6.633
 1338ETHY    C1 1317  30.292  15.180   6.321
 1339THSLK    S 1318  32.118  16.392   7.013
 1340ETHY    C1 1319  31.990  15.984   6.852
 1341ETHY    C1 1320  31.914  15.505   6.609
 1342ETHY    C1 1321  31.933  15.053   6.315
 1343ETHY    C1 1322  32.039  14.632   5.983
 1344AUSL   AUS 1323  32.308  16.559   7.336
 1345AUSL   AUS 1324  32.421  16.816   6.990
 1346AUL    AUL 1325  32.460  16.438   7.009
 1347THSLK    S 1326  32.271  16.299   7.258
 1348ETHY    C1 1327  32.198  15.854   7.175
 1349ETHY    C1 1328  32.200  15.326   7.052
 1350ETHY    C1 1329  32.308  14.818   6.905
 1351ETHY    C1 1330  32.513  14.339   6.742
 1352THSLK    S 1331  32.544  16.626   6.847
 1353ETHY    C1 1332  32.639  16.258   6.592
 1354ETHY    C1 1333  32.813  15.877   6.247
 1355ETHY    C1 1334  33.055  15.577   5.870
 1356ETHY    C1 1335  33.356  15.356   5.471
 1357AUC    AUC 1336  38.824  30.566   7.500
 1358AUC    AUC 1337  39.070  30.566   7.348
 1359AUC    AUC 1338  39.070  30.566   7.651
 1360AUC    AUC 1339  38.579  30.566   7.348
 1361AUC    AUC 1340  38.579  30.566   7.651
 1362AUC    AUC 1341  38.673  30.811   7.500
 1363AUC    AUC 1342  38.976  30.811   7.500
 1364AUC    AUC 1343  38.673  30.320   7.500
 1365AUC    AUC 1344  38.976  30.320   7.500
 1366AUC    AUC 1345  38.824  30.414   7.745
 1367AUC    AUC 1346  38.824  30.717   7.745
 1368AUC    AUC 1347  38.824  30.414   7.254
 1369AUC    AUC 1348  38.824  30.717   7.254
 1370AUC    AUC 1349  39.315  30.566   7.196
 1371AUC    AUC 1350  39.315  30.566   7.500
 1372AUC    AUC 1351  39.315  30.566   7.803
 1373AUC    AUC 1352  38.333  30.566   7.196
 1374AUC    AUC 1353  38.333  30.566   7.500
 1375AUC    AUC 1354  38.333  30.566   7.803
 1376AUC    AUC 1355  38.521  31.056   7.500
 1377AUC    AUC 1356  38.824  31.056   7.500
 1378AUC    AUC 1357  39.128  31.056   7.500
 1379AUC    AUC 1358  38.521  30.075   7.500
 1380AUC    AUC 1359  38.824  30.075   7.500
 1381AUC    AUC 1360  39.128  30.075   7.500
 1382AUC    AUC 1361  38.824  30.262   7.991
 1383AUC    AUC 1362  38.824  30.566   7.991
 1384AUC    AUC 1363  38.824  30.869   7.991
 1385AUC    AUC 1364  38.824  30.262   7.009
 1386AUC    AUC 1365  38.824  30.566   7.009
 1387AUC    AUC 1366  38.824  30.869   7.009
 1388AUC    AUC 1367  39.070  30.414   7.897
 1389AUC    AUC 1368  39.070  30.717   7.897
 1390AUC    AUC 1369  39.070  30.414   7.103
 1391AUC    AUC 1370  39.070  30.717   7.103
 1392AUC    AUC 1371  38.579  30.414   7.897
 1393AUC    AUC 1372  38.579  30.717   7.897
 1394AUC    AUC 1373  38.579  30.414   7.103
 1395AUC    AUC 1374  38.579  30.717   7.103
 1396AUC    AUC 1375  39.221  30.811   7.348
 1397AUC    AUC 1376  39.221  30.811   7.651
 1398AUC    AUC 1377  38.427  30.811   7.348
 1399AUC    AUC 1378  38.427  30.811   7.651
 1400AUC    AUC 1379  39.221  30.320   7.348
 1401AUC    AUC 1380  39.221  30.320   7.651
 1402AUC    AUC 1381  38.427  30.320   7.348
 1403AUC    AUC 1382  38.427  30.320   7.651
 1404AUC    AUC 1383  38.673  30.963   7.745
 1405AUC    AUC 1384  38.976  30.963   7.745
 1406AUC    AUC 1385  38.673  30.168   7.745
 1407AUC    AUC 1386  38.976  30.168   7.745
 1408AUC    AUC 1387  38.673  30.963   7.254
 1409AUC    AUC 1388  38.976  30.963   7.254
 1410AUC    AUC 1389  38.673  30.168   7.254
 1411AUC    AUC 1390  38.976  30.168   7.254
 1412AUSL   AUS 1391  39.233  30.566   8.080
 1413AUSL   AUS 1392  39.089  30.149   8.011
 1414AUL    AUL 1393  39.315  30.262   8.294
 1415THSLK    S 1394  39.207  29.961   8.156
 1416ETHY    C1 1395  39.303  29.593   8.412
 1417ETHY    C1 1396  39.481  29.210   8.753
 1418ETHY    C1 1397  39.723  28.910   9.130
 1419ETHY    C1 1398  40.019  28.691   9.534
 1420THSLK    S 1399  39.332  30.519   8.327
 1421ETHY    C1 1400  39.559  30.369   8.694
 1422ETHY    C1 1401  39.843  30.281   9.148
 1423ETHY    C1 1402  40.127  30.303   9.607
 1424ETHY    C1 1403  40.404  30.425  10.061
 1425AUSL   AUS 1404  38.988  30.414   8.173
 1426AUSL   AUS 1405  38.661  30.717   8.173
 1427AUL    AUL 1406  38.824  30.566   8.482
 1428THSLK    S 1407  39.069  30.363   8.418
 1429ETHY    C1 1408  39.159  30.145   8.810
 1430ETHY    C1 1409  39.287  29.971   9.308
 1431ETHY    C1 1410  39.433  29.906   9.823
 1432ETHY    C1 1411  39.590  29.940  10.346
 1433THSLK    S 1412  38.574  30.677   8.432
 1434ETHY    C1 1413  38.485  30.603   8.874
 1435ETHY    C1 1414  38.361  30.605   9.403
 1436ETHY    C1 1415  38.216  30.714   9.912
 1437ETHY    C1 1416  38.053  30.918  10.392
 1438AUSL   AUS 1417  38.988  30.717   8.173
 1439AUSL   AUS 1418  39.334  30.830   7.916
 1440AUL    AUL 1419  39.315  30.869   8.294
 1441THSLK    S 1420  39.075  30.769   8.416
 1442ETHY    C1 1421  39.163  30.986   8.809
 1443ETHY    C1 1422  39.288  31.159   9.308
 1444ETHY    C1 1423  39.433  31.225   9.823
 1445ETHY    C1 1424  39.596  31.192  10.345
 1446THSLK    S 1425  39.510  30.936   8.079
 1447ETHY    C1 1426  39.872  30.986   8.355
 1448ETHY    C1 1427  40.279  31.135   8.681
 1449ETHY    C1 1428  40.641  31.384   8.995
 1450ETHY    C1 1429  40.953  31.720   9.293
 1451AUSL   AUS 1430  39.233  30.566   6.920
 1452AUSL   AUS 1431  39.089  30.982   6.990
 1453AUL    AUL 1432  39.315  30.869   6.706
 1454THSLK    S 1433  39.337  30.519   6.676
 1455ETHY    C1 1434  39.564  30.369   6.308
 1456ETHY    C1 1435  39.843  30.281   5.851
 1457ETHY    C1 1436  40.127  30.303   5.393
 1458ETHY    C1 1437  40.409  30.425   4.941
 1459THSLK    S 1438  39.266  31.101   6.820
 1460ETHY    C1 1439  39.538  31.242   6.480
 1461ETHY    C1 1440  39.816  31.489   6.085
 1462ETHY    C1 1441  40.032  31.822   5.720
 1463ETHY    C1 1442  40.189  32.229   5.391
 1464AUSL   AUS 1443  38.988  30.414   6.826
 1465AUSL   AUS 1444  39.334  30.301   7.083
 1466AUL    AUL 1445  39.315  30.262   6.706
 1467THSLK    S 1446  39.474  30.110   6.939
 1468ETHY    C1 1447  39.707  29.793   6.707
 1469ETHY    C1 1448  40.037  29.486   6.403
 1470ETHY    C1 1449  40.417  29.277   6.083
 1471ETHY    C1 1450  40.838  29.160   5.754
 1472THSLK    S 1451  39.075  30.362   6.583
 1473ETHY    C1 1452  39.163  30.145   6.191
 1474ETHY    C1 1453  39.288  29.972   5.692
 1475ETHY    C1 1454  39.433  29.906   5.176
 1476ETHY    C1 1455  39.596  29.939   4.656
 1477AUSL   AUS 1456  38.988  30.717   6.826
 1478AUSL   AUS 1457  38.661  30.414   6.826
 1479AUL    AUL 1458  38.824  30.566   6.518
 1480THSLK    S 1459  38.565  30.362   6.586
 1481ETHY    C1 1460  38.426  30.147   6.206
 1482ETHY    C1 1461  38.269  29.976   5.717
 1483ETHY    C1 1462  38.130  29.910   5.199
 1484ETHY    C1 1463  38.014  29.941   4.666
 1485THSLK    S 1464  39.090  30.678   6.572
 1486ETHY    C1 1465  39.227  30.601   6.142
 1487ETHY    C1 1466  39.380  30.601   5.622
 1488ETHY    C1 1467  39.518  30.710   5.112
 1489ETHY    C1 1468  39.641  30.917   4.621
 1490AUSL   AUS 1469  38.415  30.566   8.080
 1491AUSL   AUS 1470  38.560  30.982   8.011
 1492AUL    AUL 1471  38.333  30.869   8.294
 1493THSLK    S 1472  38.311  30.519   8.325
 1494ETHY    C1 1473  38.085  30.369   8.691
 1495ETHY    C1 1474  37.805  30.281   9.148
 1496ETHY    C1 1475  37.522  30.303   9.607
 1497ETHY    C1 1476  37.239  30.425  10.058
 1498THSLK    S 1477  38.437  31.115   8.201
 1499ETHY    C1 1478  38.341  31.310   8.604
 1500ETHY    C1 1479  38.168  31.591   9.034
 1501ETHY    C1 1480  37.925  31.917   9.390
 1502ETHY    C1 1481  37.624  32.276   9.671
 1503AUSL   AUS 1482  38.661  30.414   8.173
 1504AUSL   AUS 1483  38.314  30.301   7.916
 1505AUL    AUL 1484  38.333  30.262   8.294
 1506THSLK    S 1485  38.135  30.135   8.032
 1507ETHY    C1 1486  37.774  29.888   8.166
 1508ETHY    C1 1487  37.369  29.622   8.410
 1509ETHY    C1 1488  37.008  29.402   8.745
 1510ETHY    C1 1489  36.692  29.229   9.156
 1511THSLK    S 1490  38.559  30.364   8.413
 1512ETHY    C1 1491  38.421  30.149   8.793
 1513ETHY    C1 1492  38.268  29.976   9.284
 1514ETHY    C1 1493  38.131  29.910   9.800
 1515ETHY    C1 1494  38.007  29.942  10.332
 1516AUSL   AUS 1495  38.415  30.566   6.920
 1517AUSL   AUS 1496  38.560  30.149   6.990
 1518AUL    AUL 1497  38.333  30.262   6.706
 1519THSLK    S 1498  38.316  30.519   6.673
 1520ETHY    C1 1499  38.089  30.369   6.305
 1521ETHY    C1 1500  37.806  30.281   5.851
 1522ETHY    C1 1501  37.522  30.303   5.393
 1523ETHY    C1 1502  37.245  30.425   4.938
 1524THSLK    S 1503  38.386  29.974   6.865
 1525ETHY    C1 1504  38.114  29.661   6.673
 1526ETHY    C1 1505  37.833  29.313   6.367
 1527ETHY    C1 1506  37.616  29.005   5.980
 1528ETHY    C1 1507  37.464  28.738   5.528
 1529AUSL   AUS 1508  38.661  30.717   6.826
 1530AUSL   AUS 1509  38.314  30.830   7.083
 1531AUL    AUL 1510  38.333  30.869   6.706
 1532THSLK    S 1511  38.178  30.961   6.893
 1533ETHY    C1 1512  37.944  31.082   6.518
 1534ETHY    C1 1513  37.612  31.270   6.132
 1535ETHY    C1 1514  37.232  31.509   5.833
 1536ETHY    C1 1515  36.815  31.789   5.618
 1537THSLK    S 1516  38.580  30.679   6.566
 1538ETHY    C1 1517  38.490  30.604   6.124
 1539ETHY    C1 1518  38.362  30.605   5.597
 1540ETHY    C1 1519  38.216  30.714   5.089
 1541ETHY    C1 1520  38.059  30.920   4.608
 1542AUSL   AUS 1521  39.404  30.975   7.500
 1543AUSL   AUS 1522  39.334  30.830   7.083
 1544AUL    AUL 1523  39.618  31.056   7.196
 1545THSLK    S 1524  39.514  30.937   6.925
 1546ETHY    C1 1525  39.875  30.987   6.648
 1547ETHY    C1 1526  40.279  31.135   6.319
 1548ETHY    C1 1527  40.641  31.384   6.005
 1549ETHY    C1 1528  40.957  31.721   5.713
 1550THSLK    S 1529  39.674  31.036   7.503
 1551ETHY    C1 1530  40.121  31.136   7.502
 1552ETHY    C1 1531  40.623  31.342   7.500
 1553ETHY    C1 1532  41.070  31.644   7.500
 1554ETHY    C1 1533  41.458  32.028   7.503
 1555AUSL   AUS 1534  39.498  30.729   7.348
 1556AUSL   AUS 1535  39.498  30.402   7.651
 1557AUL    AUL 1536  39.806  30.566   7.500
 1558THSLK    S 1537  39.760  30.776   7.345
 1559ETHY    C1 1538  40.210  30.745   7.270
 1560ETHY    C1 1539  40.742  30.800   7.179
 1561ETHY    C1 1540  41.249  30.963   7.091
 1562ETHY    C1 1541  41.724  31.221   7.011
 1563THSLK    S 1542  39.735  30.265   7.659
 1564ETHY    C1 1543  40.106  30.007   7.726
 1565ETHY    C1 1544  40.592  29.781   7.808
 1566ETHY    C1 1545  41.111  29.661   7.896
 1567ETHY    C1 1546  41.649  29.639   7.989
 1568AUSL   AUS 1547  39.498  30.729   7.651
 1569AUSL   AUS 1548  39.241  31.076   7.764
 1570AUL    AUL 1549  39.618  31.056   7.803
 1571THSLK    S 1550  39.426  31.200   7.924
 1572ETHY    C1 1551  39.783  31.392   8.136
 1573ETHY    C1 1552  40.160  31.699   8.377
 1574ETHY    C1 1553  40.461  32.086   8.602
 1575ETHY    C1 1554  40.688  32.537   8.809
 1576THSLK    S 1555  39.759  30.775   7.661
 1577ETHY    C1 1556  40.210  30.745   7.734
 1578ETHY    C1 1557  40.743  30.800   7.821
 1579ETHY    C1 1558  41.249  30.963   7.908
 1580ETHY    C1 1559  41.723  31.221   7.995
 1581AUSL   AUS 1560  38.244  30.975   7.500
 1582AUSL   AUS 1561  38.314  30.830   7.916
 1583AUL    AUL 1562  38.030  31.056   7.803
 1584THSLK    S 1563  38.174  30.956   8.107
 1585ETHY    C1 1564  37.941  31.077   8.482
 1586ETHY    C1 1565  37.612  31.270   8.868
 1587ETHY    C1 1566  37.232  31.509   9.166
 1588ETHY    C1 1567  36.811  31.784   9.381
 1589THSLK    S 1568  38.023  31.115   7.503
 1590ETHY    C1 1569  37.734  31.470   7.502
 1591ETHY    C1 1570  37.326  31.827   7.500
 1592ETHY    C1 1571  36.856  32.091   7.500
 1593ETHY    C1 1572  36.338  32.267   7.503
 1594AUSL   AUS 1573  38.151  30.729   7.348
 1595AUSL   AUS 1574  38.408  31.076   7.236
 1596AUL    AUL 1575  38.030  31.056   7.196
 1597THSLK    S 1576  37.914  30.843   7.303
 1598ETHY    C1 1577  37.542  31.017   7.101
 1599ETHY    C1 1578  37.056  31.193   6.936
 1600ETHY    C1 1579  36.538  31.325   6.868
 1601ETHY    C1 1580  36.000  31.417   6.890
 1602THSLK    S 1581  38.288  31.243   7.056
 1603ETHY    C1 1582  38.136  31.562   6.765
 1604ETHY    C1 1583  37.882  31.942   6.473
 1605ETHY    C1 1584  37.549  32.310   6.260
 1606ETHY    C1 1585  37.153  32.660   6.122
 1607AUSL   AUS 1586  38.151  30.729   7.651
 1608AUSL   AUS 1587  38.151  30.402   7.348
 1609AUL    AUL 1588  37.843  30.566   7.500
 1610THSLK    S 1589  37.889  30.327   7.384
 1611ETHY    C1 1590  37.439  30.276   7.446
 1612ETHY    C1 1591  36.906  30.173   7.434
 1613ETHY    C1 1592  36.399  30.023   7.327
 1614ETHY    C1 1593  35.926  29.830   7.135
 1615THSLK    S 1594  37.913  30.837   7.699
 1616ETHY    C1 1595  37.542  31.013   7.901
 1617ETHY    C1 1596  37.056  31.192   8.063
 1618ETHY    C1 1597  36.538  31.325   8.133
 1619ETHY    C1 1598  35.999  31.411   8.114
 1620AUSL   AUS 1599  39.404  30.156   7.500
 1621AUSL   AUS 1600  39.334  30.301   7.916
 1622AUL    AUL 1601  39.618  30.075   7.803
 1623THSLK    S 1602  39.625  30.016   7.503
 1624ETHY    C1 1603  39.914  29.661   7.502
 1625ETHY    C1 1604  40.323  29.304   7.500
 1626ETHY    C1 1605  40.793  29.040   7.500
 1627ETHY    C1 1606  41.310  28.864   7.503
 1628THSLK    S 1607  39.471  30.111   8.066
 1629ETHY    C1 1608  39.704  29.794   8.297
 1630ETHY    C1 1609  40.037  29.487   8.598
 1631ETHY    C1 1610  40.417  29.277   8.918
 1632ETHY    C1 1611  40.834  29.161   9.250
 1633AUSL   AUS 1612  39.498  30.402   7.348
 1634AUSL   AUS 1613  39.241  30.055   7.236
 1635AUL    AUL 1614  39.618  30.075   7.196
 1636THSLK    S 1615  39.736  30.265   7.346
 1637ETHY    C1 1616  40.107  30.007   7.279
 1638ETHY    C1 1617  40.592  29.781   7.192
 1639ETHY    C1 1618  41.111  29.661   7.103
 1640ETHY    C1 1619  41.650  29.639   7.018
 1641THSLK    S 1620  39.364  29.864   7.099
 1642ETHY    C1 1621  39.514  29.462   6.942
 1643ETHY    C1 1622  39.767  29.032   6.728
 1644ETHY    C1 1623  40.099  28.676   6.495
 1645ETHY    C1 1624  40.498  28.395   6.249
 1646AUSL   AUS 1625  38.244  30.156   7.500
 1647AUSL   AUS 1626  38.314  30.301   7.083
 1648AUL    AUL 1627  38.030  30.075   7.196
 1649THSLK    S 1628  38.139  30.130   6.966
 1650ETHY    C1 1629  37.777  29.884   6.833
 1651ETHY    C1 1630  37.369  29.621   6.589
 1652ETHY    C1 1631  37.008  29.402   6.255
 1653ETHY    C1 1632  36.696  29.224   5.843
 1654THSLK    S 1633  37.974  30.095   7.503
 1655ETHY    C1 1634  37.528  29.995   7.502
 1656ETHY    C1 1635  37.026  29.789   7.500
 1657ETHY    C1 1636  36.579  29.487   7.500
 1658ETHY    C1 1637  36.191  29.103   7.503
 1659AUSL   AUS 1638  38.151  30.402   7.651
 1660AUSL   AUS 1639  38.408  30.055   7.764
 1661AUL    AUL 1640  38.030  30.075   7.803
 1662THSLK    S 1641  38.220  29.907   7.881
 1663ETHY    C1 1642  37.864  29.631   7.958
 1664ETHY    C1 1643  37.489  29.274   8.122
 1665ETHY    C1 1644  37.188  28.900   8.367
 1666ETHY    C1 1645  36.957  28.518   8.682
 1667THSLK    S 1646  37.888  30.332   7.618
 1668ETHY    C1 1647  37.438  30.280   7.557
 1669ETHY    C1 1648  36.906  30.174   7.566
 1670ETHY    C1 1649  36.399  30.023   7.673
 1671ETHY    C1 1650  35.925  29.835   7.867
 1672AUSL   AUS 1651  38.824  31.146   7.909
 1673AUSL   AUS 1652  38.408  31.076   7.764
 1674AUL    AUL 1653  38.521  31.360   7.991
 1675THSLK    S 1654  38.285  31.238   7.948
 1676ETHY    C1 1655  38.134  31.558   8.237
 1677ETHY    C1 1656  37.881  31.941   8.527
 1678ETHY    C1 1657  37.549  32.309   8.740
 1679ETHY    C1 1658  37.150  32.655   8.881
 1680THSLK    S 1659  38.862  31.377   8.034
 1681ETHY    C1 1660  38.990  31.703   8.327
 1682ETHY    C1 1661  39.067  32.135   8.646
 1683ETHY    C1 1662  39.048  32.600   8.920
 1684ETHY    C1 1663  38.942  33.085   9.147
 1685AUSL   AUS 1664  38.673  31.239   7.663
 1686AUSL   AUS 1665  38.976  31.239   7.336
 1687AUL    AUL 1666  38.824  31.547   7.500
 1688THSLK    S 1667  38.710  31.491   7.772
 1689ETHY    C1 1668  38.783  31.915   7.929
 1690ETHY    C1 1669  38.780  32.431   8.095
 1691ETHY    C1 1670  38.672  32.942   8.229
 1692ETHY    C1 1671  38.468  33.438   8.336
 1693THSLK    S 1672  39.027  31.479   7.237
 1694ETHY    C1 1673  39.240  31.856   7.091
 1695ETHY    C1 1674  39.410  32.345   6.929
 1696ETHY    C1 1675  39.477  32.863   6.792
 1697ETHY    C1 1676  39.448  33.397   6.682
 1698AUSL   AUS 1677  38.976  31.239   7.663
 1699AUSL   AUS 1678  39.089  30.982   8.011
 1700AUL    AUL 1679  39.128  31.360   7.991
 1701THSLK    S 1680  39.262  31.099   8.184
 1702ETHY    C1 1681  39.535  31.240   8.522
 1703ETHY    C1 1682  39.816  31.489   8.915
 1704ETHY    C1 1683  40.032  31.822   9.279
 1705ETHY    C1 1684  40.184  32.227   9.614
 1706THSLK    S 1685  39.026  31.477   7.768
 1707ETHY    C1 1686  39.239  31.856   7.913
 1708ETHY    C1 1687  39.410  32.345   8.072
 1709ETHY    C1 1688  39.477  32.863   8.207
 1710ETHY    C1 1689  39.446  33.396   8.325
 1711AUSL   AUS 1690  38.824  29.985   7.909
 1712AUSL   AUS 1691  39.241  30.055   7.764
 1713AUL    AUL 1692  39.128  29.771   7.991
 1714THSLK    S 1693  38.783  29.728   7.992
 1715ETHY    C1 1694  38.656  29.319   8.152
 1716ETHY    C1 1695  38.582  28.838   8.391
 1717ETHY    C1 1696  38.601  28.386   8.684
 1718ETHY    C1 1697  38.703  27.968   9.021
 1719THSLK    S 1698  39.361  29.865   7.907
 1720ETHY    C1 1699  39.512  29.463   8.062
 1721ETHY    C1 1700  39.767  29.032   8.272
 1722ETHY    C1 1701  40.099  28.676   8.505
 1723ETHY    C1 1702  40.495  28.397   8.758
 1724AUSL   AUS 1703  38.673  29.892   7.663
 1725AUSL   AUS 1704  38.560  30.149   8.011
 1726AUL    AUL 1705  38.521  29.771   7.991
 1727THSLK    S 1706  38.622  29.647   7.744
 1728ETHY    C1 1707  38.409  29.248   7.812
 1729ETHY    C1 1708  38.238  28.745   7.925
 1730ETHY    C1 1709  38.172  28.231   8.072
 1731ETHY    C1 1710  38.201  27.716   8.252
 1732THSLK    S 1711  38.382  29.979   8.136
 1733ETHY    C1 1712  38.110  29.664   8.327
 1734ETHY    C1 1713  37.832  29.313   8.633
 1735ETHY    C1 1714  37.616  29.005   9.019
 1736ETHY    C1 1715  37.460  28.743   9.473
 1737AUSL   AUS 1716  38.976  29.892   7.663
 1738AUSL   AUS 1717  38.673  29.892   7.336
 1739AUL    AUL 1718  38.824  29.584   7.500
 1740THSLK    S 1719  38.623  29.645   7.261
 1741ETHY    C1 1720  38.410  29.247   7.192
 1742ETHY    C1 1721  38.238  28.745   7.076
 1743ETHY    C1 1722  38.172  28.231   6.927
 1744ETHY    C1 1723  38.203  27.714   6.754
 1745THSLK    S 1724  38.937  29.633   7.748
 1746ETHY    C1 1725  38.865  29.188   7.829
 1747ETHY    C1 1726  38.868  28.659   7.948
 1748ETHY    C1 1727  38.977  28.151   8.095
 1749ETHY    C1 1728  39.179  27.673   8.264
 1750AUSL   AUS 1729  38.824  31.146   7.091
 1751AUSL   AUS 1730  39.241  31.076   7.236
 1752AUL    AUL 1731  39.128  31.360   7.009
 1753THSLK    S 1732  38.866  31.380   6.971
 1754ETHY    C1 1733  38.993  31.705   6.676
 1755ETHY    C1 1734  39.067  32.135   6.353
 1756ETHY    C1 1735  39.048  32.600   6.080
 1757ETHY    C1 1736  38.945  33.088   5.857
 1758THSLK    S 1737  39.428  31.201   7.081
 1759ETHY    C1 1738  39.785  31.393   6.869
 1760ETHY    C1 1739  40.160  31.699   6.623
 1761ETHY    C1 1740  40.461  32.086   6.398
 1762ETHY    C1 1741  40.691  32.538   6.197
 1763AUSL   AUS 1742  38.673  31.239   7.336
 1764AUSL   AUS 1743  38.560  30.982   6.990
 1765AUL    AUL 1744  38.521  31.360   7.009
 1766THSLK    S 1745  38.712  31.493   7.233
 1767ETHY    C1 1746  38.784  31.916   7.074
 1768ETHY    C1 1747  38.781  32.432   6.906
 1769ETHY    C1 1748  38.672  32.942   6.770
 1770ETHY    C1 1749  38.470  33.440   6.670
 1771THSLK    S 1750  38.441  31.119   6.800
 1772ETHY    C1 1751  38.345  31.313   6.396
 1773ETHY    C1 1752  38.168  31.591   5.966
 1774ETHY    C1 1753  37.925  31.916   5.611
 1775ETHY    C1 1754  37.629  32.281   5.330
 1776AUSL   AUS 1755  38.824  29.985   7.091
 1777AUSL   AUS 1756  38.408  30.055   7.236
 1778AUL    AUL 1757  38.521  29.771   7.009
 1779THSLK    S 1758  38.223  29.902   7.122
 1780ETHY    C1 1759  37.866  29.628   7.044
 1781ETHY    C1 1760  37.489  29.274   6.878
 1782ETHY    C1 1761  37.187  28.900   6.633
 1783ETHY    C1 1762  36.960  28.513   6.321
 1784THSLK    S 1763  38.786  29.725   7.013
 1785ETHY    C1 1764  38.658  29.317   6.852
 1786ETHY    C1 1765  38.582  28.838   6.609
 1787ETHY    C1 1766  38.601  28.386   6.315
 1788ETHY    C1 1767  38.707  27.965   5.983
 1789AUSL   AUS 1768  38.976  29.892   7.336
 1790AUSL   AUS 1769  39.089  30.149   6.990
 1791AUL    AUL 1770  39.128  29.771   7.009
 1792THSLK    S 1771  38.939  29.632   7.258
 1793ETHY    C1 1772  38.866  29.187   7.175
 1794ETHY    C1 1773  38.868  28.659   7.052
 1795ETHY    C1 1774  38.976  28.151   6.905
 1796ETHY    C1 1775  39.181  27.672   6.742
 1797THSLK    S 1776  39.212  29.959   6.847
 1798ETHY    C1 1777  39.307  29.591   6.592
 1799ETHY    C1 1778  39.481  29.210   6.247
 1800ETHY    C1 1779  39.723  28.910   5.870
 1801ETHY    C1 1780  40.024  28.689   5.471
 1802AUC    AUC 1781  12.183  12.084   7.500
 1803AUC    AUC 1782  12.429  12.084   7.348
 1804AUC    AUC 1783  12.429  12.084   7.651
 1805AUC    AUC 1784  11.938  12.084   7.348
 1806AUC    AUC 1785  11.938  12.084   7.651
 1807AUC    AUC 1786  12.032  12.329   7.500
 1808AUC    AUC 1787  12.335  12.329   7.500
 1809AUC    AUC 1788  12.032  11.838   7.500
 1810AUC    AUC 1789  12.335  11.838   7.500
 1811AUC    AUC 1790  12.183  11.932   7.745
 1812AUC    AUC 1791  12.183  12.235   7.745
 1813AUC    AUC 1792  12.183  11.932   7.254
 1814AUC    AUC 1793  12.183  12.235   7.254
 1815AUC    AUC 1794  12.674  12.084   7.196
 1816AUC    AUC 1795  12.674  12.084   7.500
 1817AUC    AUC 1796  12.674  12.084   7.803
 1818AUC    AUC 1797  11.692  12.084   7.196
 1819AUC    AUC 1798  11.692  12.084   7.500
 1820AUC    AUC 1799  11.692  12.084   7.803
 1821AUC    AUC 1800  11.880  12.574   7.500
 1822AUC    AUC 1801  12.183  12.574   7.500
 1823AUC    AUC 1802  12.487  12.574   7.500
 1824AUC    AUC 1803  11.880  11.593   7.500
 1825AUC    AUC 1804  12.183  11.593   7.500
 1826AUC    AUC 1805  12.487  11.593   7.500
 1827AUC    AUC 1806  12.183  11.780   7.991
 1828AUC    AUC 1807  12.183  12.084   7.991
 1829AUC    AUC 1808  12.183  12.387   7.991
 1830AUC    AUC 1809  12.183  11.780   7.009
 1831AUC    AUC 1810  12.183  12.084   7.009
 1832AUC    AUC 1811  12.183  12.387   7.009
 1833AUC    AUC 1812  12.429  11.932   7.897
 1834AUC    AUC 1813  12.429  12.235   7.897
 1835AUC    AUC 1814  12.429  11.932   7.103
 1836AUC    AUC 1815  12.429  12.235   7.103
 1837AUC    AUC 1816  11.938  11.932   7.897
 1838AUC    AUC 1817  11.938  12.235   7.897
 1839AUC    AUC 1818  11.938  11.932   7.103
 1840AUC    AUC 1819  11.938  12.235   7.103
 1841AUC    AUC 1820  12.580  12.329   7.348
 1842AUC    AUC 1821  12.580  12.329   7.651
 1843AUC    AUC 1822  11.786  12.329   7.348
 1844AUC    AUC 1823  11.786  12.329   7.651
 1845AUC    AUC 1824  12.580  11.838   7.348
 1846AUC    AUC 1825  12.580  11.838   7.651
 1847AUC    AUC 1826  11.786  11.838   7.348
 1848AUC    AUC 1827  11.786  11.838   7.651
 1849AUC    AUC 1828  12.032  12.481   7.745
 1850AUC    AUC 1829  12.335  12.481   7.745
 1851AUC    AUC 1830  12.032  11.686   7.745
 1852AUC    AUC 1831  12.335  11.686   7.745
 1853AUC    AUC 1832  12.032  12.481   7.254
 1854AUC    AUC 1833  12.335  12.481   7.254
 1855AUC    AUC 1834  12.032  11.686   7.254
 1856AUC    AUC 1835  12.335  11.686   7.254
 1857AUSL   AUS 1836  12.592  12.084   8.080
 1858AUSL   AUS 1837  12.448  11.667   8.011
 1859AUL    AUL 1838  12.674  11.780   8.294
 1860THSLK    S 1839  12.566  11.479   8.156
 1861ETHY    C1 1840  12.662  11.111   8.412
 1862ETHY    C1 1841  12.840  10.728   8.753
 1863ETHY    C1 1842  13.082  10.428   9.130
 1864ETHY    C1 1843  13.378  10.209   9.534
 1865THSLK    S 1844  12.691  12.037   8.327
 1866ETHY    C1 1845  12.918  11.887   8.694
 1867ETHY    C1 1846  13.202  11.799   9.148
 1868ETHY    C1 1847  13.486  11.821   9.607
 1869ETHY    C1 1848  13.763  11.943  10.061
 1870AUSL   AUS 1849  12.347  11.932   8.173
 1871AUSL   AUS 1850  12.020  12.235   8.173
 1872AUL    AUL 1851  12.183  12.084   8.482
 1873THSLK    S 1852  12.428  11.881   8.418
 1874ETHY    C1 1853  12.518  11.663   8.810
 1875ETHY    C1 1854  12.646  11.489   9.308
 1876ETHY    C1 1855  12.792  11.424   9.823
 1877ETHY    C1 1856  12.949  11.458  10.346
 1878THSLK    S 1857  11.933  12.195   8.432
 1879ETHY    C1 1858  11.844  12.121   8.874
 1880ETHY    C1 1859  11.720  12.123   9.403
 1881ETHY    C1 1860  11.575  12.232   9.912
 1882ETHY    C1 1861  11.412  12.436  10.392
 1883AUSL   AUS 1862  12.347  12.235   8.173
 1884AUSL   AUS 1863  12.693  12.348   7.916
 1885AUL    AUL 1864  12.674  12.387   8.294
 1886THSLK    S 1865  12.434  12.287   8.416
 1887ETHY    C1 1866  12.522  12.504   8.809
 1888ETHY    C1 1867  12.647  12.677   9.308
 1889ETHY    C1 1868  12.792  12.743   9.823
 1890ETHY    C1 1869  12.955  12.710  10.345
 1891THSLK    S 1870  12.869  12.454   8.079
 1892ETHY    C1 1871  13.231  12.504   8.355
 1893ETHY    C1 1872  13.638  12.653   8.681
 1894ETHY    C1 1873  14.000  12.902   8.995
 1895ETHY    C1 1874  14.312  13.238   9.293
 1896AUSL   AUS 1875  12.592  12.084   6.920
 1897AUSL   AUS 1876  12.448  12.500   6.990
 1898AUL    AUL 1877  12.674  12.387   6.706
 1899THSLK    S 1878  12.696  12.037   6.676
 1900ETHY    C1 1879  12.923  11.887   6.308
 1901ETHY    C1 1880  13.202  11.799   5.851
 1902ETHY    C1 1881  13.486  11.821   5.393
 1903ETHY    C1 1882  13.768  11.943   4.941
 1904THSLK    S 1883  12.625  12.619   6.820
 1905ETHY    C1 1884  12.897  12.760   6.480
 1906ETHY    C1 1885  13.175  13.007   6.085
 1907ETHY    C1 1886  13.391  13.340   5.720
 1908ETHY    C1 1887  13.548  13.747   5.391
 1909AUSL   AUS 1888  12.347  11.932   6.826
 1910AUSL   AUS 1889  12.693  11.819   7.083
 1911AUL    AUL 1890  12.674  11.780   6.706
 1912THSLK    S 1891  12.833  11.628   6.939
 1913ETHY    C1 1892  13.066  11.311   6.707
 1914ETHY    C1 1893  13.396  11.004   6.403
 1915ETHY    C1 1894  13.776  10.795   6.083
 1916ETHY    C1 1895  14.197  10.678   5.754
 1917THSLK    S 1896  12.434  11.880   6.583
 1918ETHY    C1 1897  12.522  11.663   6.191
 1919ETHY    C1 1898  12.647  11.490   5.692
 1920ETHY    C1 1899  12.792  11.424   5.176
 1921ETHY    C1 1900  12.955  11.457   4.656
 1922AUSL   AUS 1901  12.347  12.235   6.826
 1923AUSL   AUS 1902  12.020  11.932   6.826
 1924AUL    AUL 1903  12.183  12.084   6.518
 1925THSLK    S 1904  11.924  11.880   6.586
 1926ETHY    C1 1905  11.785  11.665   6.206
 1927ETHY    C1 1906  11.628  11.494   5.717
 1928ETHY    C1 1907  11.489  11.428   5.199
 1929ETHY    C1 1908  11.373  11.459   4.666
 1930THSLK    S 1909  12.449  12.196   6.572
 1931ETHY    C1 1910  12.586  12.119   6.142
 1932ETHY    C1 1911  12.739  12.119   5.622
 1933ETHY    C1 1912  12.877  12.228   5.112
 1934ETHY    C1 1913  13.000  12.435   4.621
 1935AUSL   AUS 1914  11.774  12.084   8.080
 1936AUSL   AUS 1915  11.919  12.500   8.011
 1937AUL    AUL 1916  11.692  12.387   8.294
 1938THSLK    S 1917  11.670  12.037   8.325
 1939ETHY    C1 1918  11.444  11.887   8.691
 1940ETHY    C1 1919  11.164  11.799   9.148
 1941ETHY    C1 1920  10.881  11.821   9.607
 1942ETHY    C1 1921  10.598  11.943  10.058
 1943THSLK    S 1922  11.796  12.633   8.201
 1944ETHY    C1 1923  11.700  12.828   8.604
 1945ETHY    C1 1924  11.527  13.109   9.034
 1946ETHY    C1 1925  11.284  13.435   9.390
 1947ETHY    C1 1926  10.983  13.794   9.671
 1948AUSL   AUS 1927  12.020  11.932   8.173
 1949AUSL   AUS 1928  11.673  11.819   7.916
 1950AUL    AUL 1929  11.692  11.780   8.294
 1951THSLK    S 1930  11.494  11.653   8.032
 1952ETHY    C1 1931  11.133  11.406   8.166
 1953ETHY    C1 1932  10.728  11.140   8.410
 1954ETHY    C1 1933  10.367  10.920   8.745
 1955ETHY    C1 1934  10.051  10.747   9.156
 1956THSLK    S 1935  11.918  11.882   8.413
 1957ETHY    C1 1936  11.780  11.667   8.793
 1958ETHY    C1 1937  11.627  11.494   9.284
 1959ETHY    C1 1938  11.490  11.428   9.800
 1960ETHY    C1 1939  11.366  11.460  10.332
 1961AUSL   AUS 1940  11.774  12.084   6.920
 1962AUSL   AUS 1941  11.919  11.667   6.990
 1963AUL    AUL 1942  11.692  11.780   6.706
 1964THSLK    S 1943  11.675  12.037   6.673
 1965ETHY    C1 1944  11.448  11.887   6.305
 1966ETHY    C1 1945  11.165  11.799   5.851
 1967ETHY    C1 1946  10.881  11.821   5.393
 1968ETHY    C1 1947  10.604  11.943   4.938
 1969THSLK    S 1948  11.745  11.492   6.865
 1970ETHY    C1 1949  11.473  11.179   6.673
 1971ETHY    C1 1950  11.192  10.831   6.367
 1972ETHY    C1 1951  10.975  10.523   5.980
 1973ETHY    C1 1952  10.823  10.256   5.528
 1974AUSL   AUS 1953  12.020  12.235   6.826
 1975AUSL   AUS 1954  11.673  12.348   7.083
 1976AUL    AUL 1955  11.692  12.387   6.706
 1977THSLK    S 1956  11.537  12.479   6.893
 1978ETHY    C1 1957  11.303  12.600   6.518
 1979ETHY    C1 1958  10.971  12.788   6.132
 1980ETHY    C1 1959  10.591  13.027   5.833
 1981ETHY    C1 1960  10.174  13.307   5.618
 1982THSLK    S 1961  11.939  12.197   6.566
 1983ETHY    C1 1962  11.849  12.122   6.124
 1984ETHY    C1 1963  11.721  12.123   5.597
 1985ETHY    C1 1964  11.575  12.232   5.089
 1986ETHY    C1 1965  11.418  12.438   4.608
 1987AUSL   AUS 1966  12.763  12.493   7.500
 1988AUSL   AUS 1967  12.693  12.348   7.083
 1989AUL    AUL 1968  12.977  12.574   7.196
 1990THSLK    S 1969  12.873  12.455   6.925
 1991ETHY    C1 1970  13.234  12.505   6.648
 1992ETHY    C1 1971  13.638  12.653   6.319
 1993ETHY    C1 1972  14.000  12.902   6.005
 1994ETHY    C1 1973  14.316  13.239   5.713
 1995THSLK    S 1974  13.033  12.554   7.503
 1996ETHY    C1 1975  13.480  12.654   7.502
 1997ETHY    C1 1976  13.982  12.860   7.500
 1998ETHY    C1 1977  14.429  13.162   7.500
 1999ETHY    C1 1978  14.817  13.546   7.503
 2000AUSL   AUS 1979  12.857  12.247   7.348
 2001AUSL   AUS 1980  12.857  11.920   7.651
 2002AUL    AUL 1981  13.165  12.084   7.500
 2003THSLK    S 1982  13.119  12.294   7.345
 2004ETHY    C1 1983  13.569  12.263   7.270
 2005ETHY    C1 1984  14.101  12.318   7.179
 2006ETHY    C1 1985  14.608  12.481   7.091
 2007ETHY    C1 1986  15.083  12.739   7.011
 2008THSLK    S 1987  13.094  11.783   7.659
 2009ETHY    C1 1988  13.465  11.525   7.726
 2010ETHY    C1 1989  13.951  11.299   7.808
 2011ETHY    C1 1990  14.470  11.179   7.896
 2012ETHY    C1 1991  15.008  11.157   7.989
 2013AUSL   AUS 1992  12.857  12.247   7.651
 2014AUSL   AUS 1993  12.600  12.594   7.764
 2015AUL    AUL 1994  12.977  12.574   7.803
 2016THSLK    S 1995  12.785  12.718   7.924
 2017ETHY    C1 1996  13.142  12.910   8.136
 2018ETHY    C1 1997  13.519  13.217   8.377
 2019ETHY    C1 1998  13.820  13.604   8.602
 2020ETHY    C1 1999  14.047  14.055   8.809
 2021THSLK    S 2000  13.118  12.293   7.661
 2022ETHY    C1 2001  13.569  12.263   7.734
 2023ETHY    C1 2002  14.102  12.318   7.821
 2024ETHY    C1 2003  14.608  12.481   7.908
 2025ETHY    C1 2004  15.082  12.739   7.995
 2026AUSL   AUS 2005  11.603  12.493   7.500
 2027AUSL   AUS 2006  11.673  12.348   7.916
 2028AUL    AUL 2007  11.389  12.574   7.803
 2029THSLK    S 2008  11.533  12.474   8.107
 2030ETHY    C1 2009  11.300  12.595   8.482
 2031ETHY    C1 2010  10.971  12.788   8.868
 2032ETHY    C1 2011  10.591  13.027   9.166
 2033ETHY    C1 2012  10.170  13.302   9.381
 2034THSLK    S 2013  11.382  12.633   7.503
 2035ETHY    C1 2014  11.093  12.988   7.502
 2036ETHY    C1 2015  10.685  13.345   7.500
 2037ETHY    C1 2016  10.215  13.609   7.500
 2038ETHY    C1 2017   9.697  13.785   7.503
 2039AUSL   AUS 2018  11.510  12.247   7.348
 2040AUSL   AUS 2019  11.767  12.594   7.236
 2041AUL    AUL 2020  11.389  12.574   7.196
 2042THSLK    S 2021  11.273  12.361   7.303
 2043ETHY    C1 2022  10.901  12.535   7.101
 2044ETHY    C1 2023  10.415  12.711   6.936
 2045ETHY    C1 2024   9.897  12.843   6.868
 2046ETHY    C1 2025   9.359  12.935   6.890
 2047THSLK    S 2026  11.647  12.761   7.056
 2048ETHY    C1 2027  11.495  13.080   6.765
 2049ETHY    C1 2028  11.241  13.460   6.473
 2050ETHY    C1 2029  10.908  13.828   6.260
 2051ETHY    C1 2030  10.512  14.178   6.122
 2052AUSL   AUS 2031  11.510  12.247   7.651
 2053AUSL   AUS 2032  11.510  11.920   7.348
 2054AUL    AUL 2033  11.202  12.084   7.500
 2055THSLK    S 2034  11.248  11.845   7.384
 2056ETHY    C1 2035  10.798  11.794   7.446
 2057ETHY    C1 2036  10.265  11.691   7.434
 2058ETHY    C1 2037   9.758  11.541   7.327
 2059ETHY    C1 2038   9.285  11.348   7.135
 2060THSLK    S 2039  11.272  12.355   7.699
 2061ETHY    C1 2040  10.901  12.531   7.901
 2062ETHY    C1 2041  10.415  12.710   8.063
 2063ETHY    C1 2042   9.897  12.843   8.133
 2064ETHY    C1 2043   9.358  12.929   8.114
 2065AUSL   AUS 2044  12.763  11.674   7.500
 2066AUSL   AUS 2045  12.693  11.819   7.916
 2067AUL    AUL 2046  12.977  11.593   7.803
 2068THSLK    S 2047  12.984  11.534   7.503
 2069ETHY    C1 2048  13.273  11.179   7.502
 2070ETHY    C1 2049  13.682  10.822   7.500
 2071ETHY    C1 2050  14.152  10.558   7.500
 2072ETHY    C1 2051  14.669  10.382   7.503
 2073THSLK    S 2052  12.830  11.629   8.066
 2074ETHY    C1 2053  13.063  11.312   8.297
 2075ETHY    C1 2054  13.396  11.005   8.598
 2076ETHY    C1 2055  13.776  10.795   8.918
 2077ETHY    C1 2056  14.193  10.679   9.250
 2078AUSL   AUS 2057  12.857  11.920   7.348
 2079AUSL   AUS 2058  12.600  11.573   7.236
 2080AUL    AUL 2059  12.977  11.593   7.196
 2081THSLK    S 2060  13.095  11.783   7.346
 2082ETHY    C1 2061  13.466  11.525   7.279
 2083ETHY    C1 2062  13.951  11.299   7.192
 2084ETHY    C1 2063  14.470  11.179   7.103
 2085ETHY    C1 2064  15.009  11.157   7.018
 2086THSLK    S 2065  12.723  11.382   7.099
 2087ETHY    C1 2066  12.873  10.980   6.942
 2088ETHY    C1 2067  13.126  10.550   6.728
 2089ETHY    C1 2068  13.458  10.194   6.495
 2090ETHY    C1 2069  13.857   9.913   6.249
 2091AUSL   AUS 2070  11.603  11.674   7.500
 2092AUSL   AUS 2071  11.673  11.819   7.083
 2093AUL    AUL 2072  11.389  11.593   7.196
 2094THSLK    S 2073  11.498  11.648   6.966
 2095ETHY    C1 2074  11.136  11.402   6.833
 2096ETHY    C1 2075  10.728  11.139   6.589
 2097ETHY    C1 2076  10.367  10.920   6.255
 2098ETHY    C1 2077  10.055  10.742   5.843
 2099THSLK    S 2078  11.333  11.613   7.503
 2100ETHY    C1 2079  10.887  11.513   7.502
 2101ETHY    C1 2080  10.385  11.307   7.500
 2102ETHY    C1 2081   9.938  11.005   7.500
 2103ETHY    C1 2082   9.550  10.621   7.503
 2104AUSL   AUS 2083  11.510  11.920   7.651
 2105AUSL   AUS 2084  11.767  11.573   7.764
 2106AUL    AUL 2085  11.389  11.593   7.803
 2107THSLK    S 2086  11.579  11.425   7.881
 2108ETHY    C1 2087  11.223  11.149   7.958
 2109ETHY    C1 2088  10.848  10.792   8.122
 2110ETHY    C1 2089  10.547  10.418   8.367
 2111ETHY    C1 2090  10.316  10.036   8.682
 2112THSLK    S 2091  11.247  11.850   7.618
 2113ETHY    C1 2092  10.797  11.798   7.557
 2114ETHY    C1 2093  10.265  11.692   7.566
 2115ETHY    C1 2094   9.758  11.541   7.673
 2116ETHY    C1 2095   9.284  11.353   7.867
 2117AUSL   AUS 2096  12.183  12.664   7.909
 2118AUSL   AUS 2097  11.767  12.594   7.764
 2119AUL    AUL 2098  11.880  12.878   7.991
 2120THSLK    S 2099  11.644  12.756   7.948
 2121ETHY    C1 2100  11.493  13.076   8.237
 2122ETHY    C1 2101  11.240  13.459   8.527
 2123ETHY    C1 2102  10.908  13.827   8.740
 2124ETHY    C1 2103  10.509  14.173   8.881
 2125THSLK    S 2104  12.221  12.895   8.034
 2126ETHY    C1 2105  12.349  13.221   8.327
 2127ETHY    C1 2106  12.426  13.653   8.646
 2128ETHY    C1 2107  12.407  14.118   8.920
 2129ETHY    C1 2108  12.301  14.603   9.147
 2130AUSL   AUS 2109  12.032  12.757   7.663
 2131AUSL   AUS 2110  12.335  12.757   7.336
 2132AUL    AUL 2111  12.183  13.065   7.500
 2133THSLK    S 2112  12.069  13.009   7.772
 2134ETHY    C1 2113  12.142  13.433   7.929
 2135ETHY    C1 2114  12.139  13.949   8.095
 2136ETHY    C1 2115  12.031  14.460   8.229
 2137ETHY    C1 2116  11.827  14.956   8.336
 2138THSLK    S 2117  12.386  12.997   7.237
 2139ETHY    C1 2118  12.599  13.374   7.091
 2140ETHY    C1 2119  12.769  13.863   6.929
 2141ETHY    C1 2120  12.836  14.381   6.792
 2142ETHY    C1 2121  12.807  14.915   6.682
 2143AUSL   AUS 2122  12.335  12.757   7.663
 2144AUSL   AUS 2123  12.448  12.500   8.011
 2145AUL    AUL 2124  12.487  12.878   7.991
 2146THSLK    S 2125  12.621  12.617   8.184
 2147ETHY    C1 2126  12.894  12.758   8.522
 2148ETHY    C1 2127  13.175  13.007   8.915
 2149ETHY    C1 2128  13.391  13.340   9.279
 2150ETHY    C1 2129  13.543  13.745   9.614
 2151THSLK    S 2130  12.385  12.995   7.768
 2152ETHY    C1 2131  12.598  13.374   7.913
 2153ETHY    C1 2132  12.769  13.863   8.072
 2154ETHY    C1 2133  12.836  14.381   8.207
 2155ETHY    C1 2134  12.805  14.914   8.325
 2156AUSL   AUS 2135  12.183  11.503   7.909
 2157AUSL   AUS 2136  12.600  11.573   7.764
 2158AUL    AUL 2137  12.487  11.289   7.991
 2159THSLK    S 2138  12.142  11.246   7.992
 2160ETHY    C1 2139  12.015  10.837   8.152
 2161ETHY    C1 2140  11.941  10.356   8.391
 2162ETHY    C1 2141  11.960   9.904   8.684
 2163ETHY    C1 2142  12.062   9.486   9.021
 2164THSLK    S 2143  12.720  11.383   7.907
 2165ETHY    C1 2144  12.871  10.981   8.062
 2166ETHY    C1 2145  13.126  10.550   8.272
 2167ETHY    C1 2146  13.458  10.194   8.505
 2168ETHY    C1 2147  13.854   9.915   8.758
 2169AUSL   AUS 2148  12.032  11.410   7.663
 2170AUSL   AUS 2149  11.919  11.667   8.011
 2171AUL    AUL 2150  11.880  11.289   7.991
 2172THSLK    S 2151  11.981  11.165   7.744
 2173ETHY    C1 2152  11.768  10.766   7.812
 2174ETHY    C1 2153  11.597  10.263   7.925
 2175ETHY    C1 2154  11.531   9.749   8.072
 2176ETHY    C1 2155  11.560   9.234   8.252
 2177THSLK    S 2156  11.741  11.497   8.136
 2178ETHY    C1 2157  11.469  11.182   8.327
 2179ETHY    C1 2158  11.191  10.831   8.633
 2180ETHY    C1 2159  10.975  10.523   9.019
 2181ETHY    C1 2160  10.819  10.261   9.473
 2182AUSL   AUS 2161  12.335  11.410   7.663
 2183AUSL   AUS 2162  12.032  11.410   7.336
 2184AUL    AUL 2163  12.183  11.102   7.500
 2185THSLK    S 2164  11.982  11.163   7.261
 2186ETHY    C1 2165  11.769  10.765   7.192
 2187ETHY    C1 2166  11.597  10.263   7.076
 2188ETHY    C1 2167  11.531   9.749   6.927
 2189ETHY    C1 2168  11.562   9.232   6.754
 2190THSLK    S 2169  12.296  11.151   7.748
 2191ETHY    C1 2170  12.224  10.706   7.829
 2192ETHY    C1 2171  12.227  10.177   7.948
 2193ETHY    C1 2172  12.336   9.669   8.095
 2194ETHY    C1 2173  12.538   9.191   8.264
 2195AUSL   AUS 2174  12.183  12.664   7.091
 2196AUSL   AUS 2175  12.600  12.594   7.236
 2197AUL    AUL 2176  12.487  12.878   7.009
 2198THSLK    S 2177  12.225  12.898   6.971
 2199ETHY    C1 2178  12.352  13.223   6.676
 2200ETHY    C1 2179  12.426  13.653   6.353
 2201ETHY    C1 2180  12.407  14.118   6.080
 2202ETHY    C1 2181  12.304  14.606   5.857
 2203THSLK    S 2182  12.787  12.719   7.081
 2204ETHY    C1 2183  13.144  12.911   6.869
 2205ETHY    C1 2184  13.519  13.217   6.623
 2206ETHY    C1 2185  13.820  13.604   6.398
 2207ETHY    C1 2186  14.050  14.056   6.197
 2208AUSL   AUS 2187  12.032  12.757   7.336
 2209AUSL   AUS 2188  11.919  12.500   6.990
 2210AUL    AUL 2189  11.880  12.878   7.009
 2211THSLK    S 2190  12.071  13.011   7.233
 2212ETHY    C1 2191  12.143  13.434   7.074
 2213ETHY    C1 2192  12.140  13.950   6.906
 2214ETHY    C1 2193  12.031  14.460   6.770
 2215ETHY    C1 2194  11.829  14.958   6.670
 2216THSLK    S 2195  11.800  12.637   6.800
 2217ETHY    C1 2196  11.704  12.831   6.396
 2218ETHY    C1 2197  11.527  13.109   5.966
 2219ETHY    C1 2198  11.284  13.434   5.611
 2220ETHY    C1 2199  10.988  13.799   5.330
 2221AUSL   AUS 2200  12.183  11.503   7.091
 2222AUSL   AUS 2201  11.767  11.573   7.236
 2223AUL    AUL 2202  11.880  11.289   7.009
 2224THSLK    S 2203  11.582  11.420   7.122
 2225ETHY    C1 2204  11.225  11.146   7.044
 2226ETHY    C1 2205  10.848  10.792   6.878
 2227ETHY    C1 2206  10.546  10.418   6.633
 2228ETHY    C1 2207  10.319  10.031   6.321
 2229THSLK    S 2208  12.145  11.243   7.013
 2230ETHY    C1 2209  12.017  10.835   6.852
 2231ETHY    C1 2210  11.941  10.356   6.609
 2232ETHY    C1 2211  11.960   9.904   6.315
 2233ETHY    C1 2212  12.066   9.483   5.983
 2234AUSL   AUS 2213  12.335  11.410   7.336
 2235AUSL   AUS 2214  12.448  11.667   6.990
 2236AUL    AUL 2215  12.487  11.289   7.009
 2237THSLK    S 2216  12.298  11.150   7.258
 2238ETHY    C1 2217  12.225  10.705   7.175
 2239ETHY    C1 2218  12.227  10.177   7.052
 2240ETHY    C1 2219  12.335   9.669   6.905
 2241ETHY    C1 2220  12.540   9.190   6.742
 2242THSLK    S 2221  12.571  11.477   6.847
 2243ETHY    C1 2222  12.666  11.109   6.592
 2244ETHY    C1 2223  12.840  10.728   6.247
 2245ETHY    C1 2224  13.082  10.428   5.870
 2246ETHY    C1 2225  13.383  10.207   5.471
 2247AUC    AUC 2226   1.979  35.973   7.500
 2248AUC    AUC 2227   2.225  35.973   7.348
 2249AUC    AUC 2228   2.225  35.973   7.651
 2250AUC    AUC 2229   1.734  35.973   7.348
 2251AUC    AUC 2230   1.734  35.973   7.651
 2252AUC    AUC 2231   1.828  36.218   7.500
 2253AUC    AUC 2232   2.131  36.218   7.500
 2254AUC    AUC 2233   1.828  35.727   7.500
 2255AUC    AUC 2234   2.131  35.727   7.500
 2256AUC    AUC 2235   1.979  35.821   7.745
 2257AUC    AUC 2236   1.979  36.124   7.745
 2258AUC    AUC 2237   1.979  35.821   7.254
 2259AUC    AUC 2238   1.979  36.124   7.254
 2260AUC    AUC 2239   2.470  35.973   7.196
 2261AUC    AUC 2240   2.470  35.973   7.500
 2262AUC    AUC 2241   2.470  35.973   7.803
 2263AUC    AUC 2242   1.488  35.973   7.196
 2264AUC    AUC 2243   1.488  35.973   7.500
 2265AUC    AUC 2244   1.488  35.973   7.803
 2266AUC    AUC 2245   1.676  36.463   7.500
 2267AUC    AUC 2246   1.979  36.463   7.500
 2268AUC    AUC 2247   2.283  36.463   7.500
 2269AUC    AUC 2248   1.676  35.482   7.500
 2270AUC    AUC 2249   1.979  35.482   7.500
 2271AUC    AUC 2250   2.283  35.482   7.500
 2272AUC    AUC 2251   1.979  35.669   7.991
 2273AUC    AUC 2252   1.979  35.973   7.991
 2274AUC    AUC 2253   1.979  36.276   7.991
 2275AUC    AUC 2254   1.979  35.669   7.009
 2276AUC    AUC 2255   1.979  35.973   7.009
 2277AUC    AUC 2256   1.979  36.276   7.009
 2278AUC    AUC 2257   2.225  35.821   7.897
 2279AUC    AUC 2258   2.225  36.124   7.897
 2280AUC    AUC 2259   2.225  35.821   7.103
 2281AUC    AUC 2260   2.225  36.124   7.103
 2282AUC    AUC 2261   1.734  35.821   7.897
 2283AUC    AUC 2262   1.734  36.124   7.897
 2284AUC    AUC 2263   1.734  35.821   7.103
 2285AUC    AUC 2264   1.734  36.124   7.103
 2286AUC    AUC 2265   2.376  36.218   7.348
 2287AUC    AUC 2266   2.376  36.218   7.651
 2288AUC    AUC 2267   1.582  36.218   7.348
 2289AUC    AUC 2268   1.582  36.218   7.651
 2290AUC    AUC 2269   2.376  35.727   7.348
 2291AUC    AUC 2270   2.376  35.727   7.651
 2292AUC    AUC 2271   1.582  35.727   7.348
 2293AUC    AUC 2272   1.582  35.727   7.651
 2294AUC    AUC 2273   1.828  36.370   7.745
 2295AUC    AUC 2274   2.131  36.370   7.745
 2296AUC    AUC 2275   1.828  35.575   7.745
 2297AUC    AUC 2276   2.131  35.575   7.745
 2298AUC    AUC 2277   1.828  36.370   7.254
 2299AUC    AUC 2278   2.131  36.370   7.254
 2300AUC    AUC 2279   1.828  35.575   7.254
 2301AUC    AUC 2280   2.131  35.575   7.254
 2302AUSL   AUS 2281   2.388  35.973   8.080
 2303AUSL   AUS 2282   2.244  35.556   8.011
 2304AUL    AUL 2283   2.470  35.669   8.294
 2305THSLK    S 2284   2.362  35.368   8.156
 2306ETHY    C1 2285   2.458  35.000   8.412
 2307ETHY    C1 2286   2.636  34.617   8.753
 2308ETHY    C1 2287   2.878  34.317   9.130
 2309ETHY    C1 2288   3.174  34.098   9.534
 2310THSLK    S 2289   2.487  35.926   8.327
 2311ETHY    C1 2290   2.714  35.776   8.694
 2312ETHY    C1 2291   2.998  35.688   9.148
 2313ETHY    C1 2292   3.282  35.710   9.607
 2314ETHY    C1 2293   3.559  35.832  10.061
 2315AUSL   AUS 2294   2.143  35.821   8.173
 2316AUSL   AUS 2295   1.816  36.124   8.173
 2317AUL    AUL 2296   1.979  35.973   8.482
 2318THSLK    S 2297   2.224  35.770   8.418
 2319ETHY    C1 2298   2.314  35.552   8.810
 2320ETHY    C1 2299   2.442  35.378   9.308
 2321ETHY    C1 2300   2.588  35.313   9.823
 2322ETHY    C1 2301   2.745  35.347  10.346
 2323THSLK    S 2302   1.729  36.084   8.432
 2324ETHY    C1 2303   1.640  36.010   8.874
 2325ETHY    C1 2304   1.516  36.012   9.403
 2326ETHY    C1 2305   1.371  36.121   9.912
 2327ETHY    C1 2306   1.208  36.325  10.392
 2328AUSL   AUS 2307   2.143  36.124   8.173
 2329AUSL   AUS 2308   2.489  36.237   7.916
 2330AUL    AUL 2309   2.470  36.276   8.294
 2331THSLK    S 2310   2.230  36.176   8.416
 2332ETHY    C1 2311   2.318  36.393   8.809
 2333ETHY    C1 2312   2.443  36.566   9.308
 2334ETHY    C1 2313   2.588  36.632   9.823
 2335ETHY    C1 2314   2.751  36.599  10.345
 2336THSLK    S 2315   2.665  36.343   8.079
 2337ETHY    C1 2316   3.027  36.393   8.355
 2338ETHY    C1 2317   3.434  36.542   8.681
 2339ETHY    C1 2318   3.796  36.791   8.995
 2340ETHY    C1 2319   4.108  37.127   9.293
 2341AUSL   AUS 2320   2.388  35.973   6.920
 2342AUSL   AUS 2321   2.244  36.389   6.990
 2343AUL    AUL 2322   2.470  36.276   6.706
 2344THSLK    S 2323   2.492  35.926   6.676
 2345ETHY    C1 2324   2.719  35.776   6.308
 2346ETHY    C1 2325   2.998  35.688   5.851
 2347ETHY    C1 2326   3.282  35.710   5.393
 2348ETHY    C1 2327   3.564  35.832   4.941
 2349THSLK    S 2328   2.421  36.508   6.820
 2350ETHY    C1 2329   2.693  36.649   6.480
 2351ETHY    C1 2330   2.971  36.896   6.085
 2352ETHY    C1 2331   3.187  37.229   5.720
 2353ETHY    C1 2332   3.344  37.636   5.391
 2354AUSL   AUS 2333   2.143  35.821   6.826
 2355AUSL   AUS 2334   2.489  35.708   7.083
 2356AUL    AUL 2335   2.470  35.669   6.706
 2357THSLK    S 2336   2.629  35.517   6.939
 2358ETHY    C1 2337   2.862  35.200   6.707
 2359ETHY    C1 2338   3.192  34.893   6.403
 2360ETHY    C1 2339   3.572  34.684   6.083
 2361ETHY    C1 2340   3.993  34.567   5.754
 2362THSLK    S 2341   2.230  35.769   6.583
 2363ETHY    C1 2342   2.318  35.552   6.191
 2364ETHY    C1 2343   2.443  35.379   5.692
 2365ETHY    C1 2344   2.588  35.313   5.176
 2366ETHY    C1 2345   2.751  35.346   4.656
 2367AUSL   AUS 2346   2.143  36.124   6.826
 2368AUSL   AUS 2347   1.816  35.821   6.826
 2369AUL    AUL 2348   1.979  35.973   6.518
 2370THSLK    S 2349   1.720  35.769   6.586
 2371ETHY    C1 2350   1.581  35.554   6.206
 2372ETHY    C1 2351   1.424  35.383   5.717
 2373ETHY    C1 2352   1.285  35.317   5.199
 2374ETHY    C1 2353   1.169  35.348   4.666
 2375THSLK    S 2354   2.245  36.085   6.572
 2376ETHY    C1 2355   2.382  36.008   6.142
 2377ETHY    C1 2356   2.535  36.008   5.622
 2378ETHY    C1 2357   2.673  36.117   5.112
 2379ETHY    C1 2358   2.796  36.324   4.621
 2380AUSL   AUS 2359   1.570  35.973   8.080
 2381AUSL   AUS 2360   1.715  36.389   8.011
 2382AUL    AUL 2361   1.488  36.276   8.294
 2383THSLK    S 2362   1.466  35.926   8.325
 2384ETHY    C1 2363   1.240  35.776   8.691
 2385ETHY    C1 2364   0.960  35.688   9.148
 2386ETHY    C1 2365   0.677  35.710   9.607
 2387ETHY    C1 2366   0.394  35.832  10.058
 2388THSLK    S 2367   1.592  36.522   8.201
 2389ETHY    C1 2368   1.496  36.717   8.604
 2390ETHY    C1 2369   1.323  36.998   9.034
 2391ETHY    C1 2370   1.080  37.324   9.390
 2392ETHY    C1 2371   0.779  37.683   9.671
 2393AUSL   AUS 2372   1.816  35.821   8.173
 2394AUSL   AUS 2373   1.469  35.708   7.916
 2395AUL    AUL 2374   1.488  35.669   8.294
 2396THSLK    S 2375   1.290  35.542   8.032
 2397ETHY    C1 2376   0.929  35.295   8.166
 2398ETHY    C1 2377   0.524  35.029   8.410
 2399ETHY    C1 2378   0.163  34.809   8.745
 2400ETHY    C1 2379  -0.153  34.636   9.156
 2401THSLK    S 2380   1.714  35.771   8.413
 2402ETHY    C1 2381   1.576  35.556   8.793
 2403ETHY    C1 2382   1.423  35.383   9.284
 2404ETHY    C1 2383   1.286  35.317   9.800
 2405ETHY    C1 2384   1.162  35.349  10.332
 2406AUSL   AUS 2385   1.570  35.973   6.920
 2407AUSL   AUS 2386   1.715  35.556   6.990
 2408AUL    AUL 2387   1.488  35.669   6.706
 2409THSLK    S 2388   1.471  35.926   6.673
 2410ETHY    C1 2389   1.244  35.776   6.305
 2411ETHY    C1 2390   0.961  35.688   5.851
 2412ETHY    C1 2391   0.677  35.710   5.393
 2413ETHY    C1 2392   0.400  35.832   4.938
 2414THSLK    S 2393   1.541  35.381   6.865
 2415ETHY    C1 2394   1.269  35.068   6.673
 2416ETHY    C1 2395   0.988  34.720   6.367
 2417ETHY    C1 2396   0.771  34.412   5.980
 2418ETHY    C1 2397   0.619  34.145   5.528
 2419AUSL   AUS 2398   1.816  36.124   6.826
 2420AUSL   AUS 2399   1.469  36.237   7.083
 2421AUL    AUL 2400   1.488  36.276   6.706
 2422THSLK    S 2401   1.333  36.368   6.893
 2423ETHY    C1 2402   1.099  36.489   6.518
 2424ETHY    C1 2403   0.767  36.677   6.132
 2425ETHY    C1 2404   0.387  36.916   5.833
 2426ETHY    C1 2405  -0.030  37.196   5.618
 2427THSLK    S 2406   1.735  36.086   6.566
 2428ETHY    C1 2407   1.645  36.011   6.124
 2429ETHY    C1 2408   1.517  36.012   5.597
 2430ETHY    C1 2409   1.371  36.121   5.089
 2431ETHY    C1 2410   1.214  36.327   4.608
 2432AUSL   AUS 2411   2.559  36.382   7.500
 2433AUSL   AUS 2412   2.489  36.237   7.083
 2434AUL    AUL 2413   2.773  36.463   7.196
 2435THSLK    S 2414   2.669  36.344   6.925
 2436ETHY    C1 2415   3.030  36.394   6.648
 2437ETHY    C1 2416   3.434  36.542   6.319
 2438ETHY    C1 2417   3.796  36.791   6.005
 2439ETHY    C1 2418   4.112  37.128   5.713
 2440THSLK    S 2419   2.829  36.443   7.503
 2441ETHY    C1 2420   3.276  36.543   7.502
 2442ETHY    C1 2421   3.778  36.749   7.500
 2443ETHY    C1 2422   4.225  37.051   7.500
 2444ETHY    C1 2423   4.613  37.435   7.503
 2445AUSL   AUS 2424   2.653  36.136   7.348
 2446AUSL   AUS 2425   2.653  35.809   7.651
 2447AUL    AUL 2426   2.961  35.973   7.500
 2448THSLK    S 2427   2.915  36.183   7.345
 2449ETHY    C1 2428   3.365  36.152   7.270
 2450ETHY    C1 2429   3.897  36.207   7.179
 2451ETHY    C1 2430   4.404  36.370   7.091
 2452ETHY    C1 2431   4.879  36.628   7.011
 2453THSLK    S 2432   2.890  35.672   7.659
 2454ETHY    C1 2433   3.261  35.414   7.726
 2455ETHY    C1 2434   3.747  35.188   7.808
 2456ETHY    C1 2435   4.266  35.068   7.896
 2457ETHY    C1 2436   4.804  35.046   7.989
 2458AUSL   AUS 2437   2.653  36.136   7.651
 2459AUSL   AUS 2438   2.396  36.483   7.764
 2460AUL    AUL 2439   2.773  36.463   7.803
 2461THSLK    S 2440   2.581  36.607   7.924
 2462ETHY    C1 2441   2.938  36.799   8.136
 2463ETHY    C1 2442   3.315  37.106   8.377
 2464ETHY    C1 2443   3.616  37.493   8.602
 2465ETHY    C1 2444   3.843  37.944   8.809
 2466THSLK    S 2445   2.914  36.182   7.661
 2467ETHY    C1 2446   3.365  36.152   7.734
 2468ETHY    C1 2447   3.898  36.207   7.821
 2469ETHY    C1 2448   4.404  36.370   7.908
 2470ETHY    C1 2449   4.878  36.628   7.995
 2471AUSL   AUS 2450   1.399  36.382   7.500
 2472AUSL   AUS 2451   1.469  36.237   7.916
 2473AUL    AUL 2452   1.185  36.463   7.803
 2474THSLK    S 2453   1.329  36.363   8.107
 2475ETHY    C1 2454   1.096  36.484   8.482
 2476ETHY    C1 2455   0.767  36.677   8.868
 2477ETHY    C1 2456   0.387  36.916   9.166
 2478ETHY    C1 2457  -0.034  37.191   9.381
 2479THSLK    S 2458   1.178  36.522   7.503
 2480ETHY    C1 2459   0.889  36.877   7.502
 2481ETHY    C1 2460   0.481  37.234   7.500
 2482ETHY    C1 2461   0.011  37.498   7.500
 2483ETHY    C1 2462  -0.507  37.674   7.503
 2484AUSL   AUS 2463   1.306  36.136   7.348
 2485AUSL   AUS 2464   1.563  36.483   7.236
 2486AUL    AUL 2465   1.185  36.463   7.196
 2487THSLK    S 2466   1.069  36.250   7.303
 2488ETHY    C1 2467   0.697  36.424   7.101
 2489ETHY    C1 2468   0.211  36.600   6.936
 2490ETHY    C1 2469  -0.307  36.732   6.868
 2491ETHY    C1 2470  -0.845  36.824   6.890
 2492THSLK    S 2471   1.443  36.650   7.056
 2493ETHY    C1 2472   1.291  36.969   6.765
 2494ETHY    C1 2473   1.037  37.349   6.473
 2495ETHY    C1 2474   0.704  37.717   6.260
 2496ETHY    C1 2475   0.308  38.067   6.122
 2497AUSL   AUS 2476   1.306  36.136   7.651
 2498AUSL   AUS 2477   1.306  35.809   7.348
 2499AUL    AUL 2478   0.998  35.973   7.500
 2500THSLK    S 2479   1.044  35.734   7.384
 2501ETHY    C1 2480   0.594  35.683   7.446
 2502ETHY    C1 2481   0.061  35.580   7.434
 2503ETHY    C1 2482  -0.446  35.430   7.327
 2504ETHY    C1 2483  -0.919  35.237   7.135
 2505THSLK    S 2484   1.068  36.244   7.699
 2506ETHY    C1 2485   0.697  36.420   7.901
 2507ETHY    C1 2486   0.211  36.599   8.063
 2508ETHY    C1 2487  -0.307  36.732   8.133
 2509ETHY    C1 2488  -0.846  36.818   8.114
 2510AUSL   AUS 2489   2.559  35.563   7.500
 2511AUSL   AUS 2490   2.489  35.708   7.916
 2512AUL    AUL 2491   2.773  35.482   7.803
 2513THSLK    S 2492   2.780  35.423   7.503
 2514ETHY    C1 2493   3.069  35.068   7.502
 2515ETHY    C1 2494   3.478  34.711   7.500
 2516ETHY    C1 2495   3.948  34.447   7.500
 2517ETHY    C1 2496   4.465  34.271   7.503
 2518THSLK    S 2497   2.626  35.518   8.066
 2519ETHY    C1 2498   2.859  35.201   8.297
 2520ETHY    C1 2499   3.192  34.894   8.598
 2521ETHY    C1 2500   3.572  34.684   8.918
 2522ETHY    C1 2501   3.989  34.568   9.250
 2523AUSL   AUS 2502   2.653  35.809   7.348
 2524AUSL   AUS 2503   2.396  35.462   7.236
 2525AUL    AUL 2504   2.773  35.482   7.196
 2526THSLK    S 2505   2.891  35.672   7.346
 2527ETHY    C1 2506   3.262  35.414   7.279
 2528ETHY    C1 2507   3.747  35.188   7.192
 2529ETHY    C1 2508   4.266  35.068   7.103
 2530ETHY    C1 2509   4.805  35.046   7.018
 2531THSLK    S 2510   2.519  35.271   7.099
 2532ETHY    C1 2511   2.669  34.869   6.942
 2533ETHY    C1 2512   2.922  34.439   6.728
 2534ETHY    C1 2513   3.254  34.083   6.495
 2535ETHY    C1 2514   3.653  33.802   6.249
 2536AUSL   AUS 2515   1.399  35.563   7.500
 2537AUSL   AUS 2516   1.469  35.708   7.083
 2538AUL    AUL 2517   1.185  35.482   7.196
 2539THSLK    S 2518   1.294  35.537   6.966
 2540ETHY    C1 2519   0.932  35.291   6.833
 2541ETHY    C1 2520   0.524  35.028   6.589
 2542ETHY    C1 2521   0.163  34.809   6.255
 2543ETHY    C1 2522  -0.149  34.631   5.843
 2544THSLK    S 2523   1.129  35.502   7.503
 2545ETHY    C1 2524   0.683  35.402   7.502
 2546ETHY    C1 2525   0.181  35.196   7.500
 2547ETHY    C1 2526  -0.266  34.894   7.500
 2548ETHY    C1 2527  -0.654  34.510   7.503
 2549AUSL   AUS 2528   1.306  35.809   7.651
 2550AUSL   AUS 2529   1.563  35.462   7.764
 2551AUL    AUL 2530   1.185  35.482   7.803
 2552THSLK    S 2531   1.375  35.314   7.881
 2553ETHY    C1 2532   1.019  35.038   7.958
 2554ETHY    C1 2533   0.644  34.681   8.122
 2555ETHY    C1 2534   0.343  34.307   8.367
 2556ETHY    C1 2535   0.112  33.925   8.682
 2557THSLK    S 2536   1.043  35.739   7.618
 2558ETHY    C1 2537   0.593  35.687   7.557
 2559ETHY    C1 2538   0.061  35.581   7.566
 2560ETHY    C1 2539  -0.446  35.430   7.673
 2561ETHY    C1 2540  -0.920  35.242   7.867
 2562AUSL   AUS 2541   1.979  36.553   7.909
 2563AUSL   AUS 2542   1.563  36.483   7.764
 2564AUL    AUL 2543   1.676  36.767   7.991
 2565THSLK    S 2544   1.440  36.645   7.948
 2566ETHY    C1 2545   1.289  36.965   8.237
 2567ETHY    C1 2546   1.036  37.348   8.527
 2568ETHY    C1 2547   0.704  37.716   8.740
 2569ETHY    C1 2548   0.305  38.062   8.881
 2570THSLK    S 2549   2.017  36.784   8.034
 2571ETHY    C1 2550   2.145  37.110   8.327
 2572ETHY    C1 2551   2.222  37.542   8.646
 2573ETHY    C1 2552   2.203  38.007   8.920
 2574ETHY    C1 2553   2.097  38.492   9.147
 2575AUSL   AUS 2554   1.828  36.646   7.663
 2576AUSL   AUS 2555   2.131  36.646   7.336
 2577AUL    AUL 2556   1.979  36.954   7.500
 2578THSLK    S 2557   1.865  36.898   7.772
 2579ETHY    C1 2558   1.938  37.322   7.929
 2580ETHY    C1 2559   1.935  37.838   8.095
 2581ETHY    C1 2560   1.827  38.349   8.229
 2582ETHY    C1 2561   1.623  38.845   8.336
 2583THSLK    S 2562   2.182  36.886   7.237
 2584ETHY    C1 2563   2.395  37.263   7.091
 2585ETHY    C1 2564   2.565  37.752   6.929
 2586ETHY    C1 2565   2.632  38.270   6.792
 2587ETHY    C1 2566   2.603  38.804   6.682
 2588AUSL   AUS 2567   2.131  36.646   7.663
 2589AUSL   AUS 2568   2.244  36.389   8.011
 2590AUL    AUL 2569   2.283  36.767   7.991
 2591THSLK    S 2570   2.417  36.506   8.184
 2592ETHY    C1 2571   2.690  36.647   8.522
 2593ETHY    C1 2572   2.971  36.896   8.915
 2594ETHY    C1 2573   3.187  37.229   9.279
 2595ETHY    C1 2574   3.339  37.634   9.614
 2596THSLK    S 2575   2.181  36.884   7.768
 2597ETHY    C1 2576   2.394  37.263   7.913
 2598ETHY    C1 2577   2.565  37.752   8.072
 2599ETHY    C1 2578   2.632  38.270   8.207
 2600ETHY    C1 2579   2.601  38.803   8.325
 2601AUSL   AUS 2580   1.979  35.392   7.909
 2602AUSL   AUS 2581   2.396  35.462   7.764
 2603AUL    AUL 2582   2.283  35.178   7.991
 2604THSLK    S 2583   1.938  35.135   7.992
 2605ETHY    C1 2584   1.811  34.726   8.152
 2606ETHY    C1 2585   1.737  34.245   8.391
 2607ETHY    C1 2586   1.756  33.793   8.684
 2608ETHY    C1 2587   1.858  33.375   9.021
 2609THSLK    S 2588   2.516  35.272   7.907
 2610ETHY    C1 2589   2.667  34.870   8.062
 2611ETHY    C1 2590   2.922  34.439   8.272
 2612ETHY    C1 2591   3.254  34.083   8.505
 2613ETHY    C1 2592   3.650  33.804   8.758
 2614AUSL   AUS 2593   1.828  35.299   7.663
 2615AUSL   AUS 2594   1.715  35.556   8.011
 2616AUL    AUL 2595   1.676  35.178   7.991
 2617THSLK    S 2596   1.777  35.054   7.744
 2618ETHY    C1 2597   1.564  34.655   7.812
 2619ETHY    C1 2598   1.393  34.152   7.925
 2620ETHY    C1 2599   1.327  33.638   8.072
 2621ETHY    C1 2600   1.356  33.123   8.252
 2622THSLK    S 2601   1.537  35.386   8.136
 2623ETHY    C1 2602   1.265  35.071   8.327
 2624ETHY    C1 2603   0.987  34.720   8.633
 2625ETHY    C1 2604   0.771  34.412   9.019
 2626ETHY    C1 2605   0.615  34.150   9.473
 2627AUSL   AUS 2606   2.131  35.299   7.663
 2628AUSL   AUS 2607   1.828  35.299   7.336
 2629AUL    AUL 2608   1.979  34.991   7.500
 2630THSLK    S 2609   1.778  35.052   7.261
 2631ETHY    C1 2610   1.565  34.654   7.192
 2632ETHY    C1 2611   1.393  34.152   7.076
 2633ETHY    C1 2612   1.327  33.638   6.927
 2634ETHY    C1 2613   1.358  33.121   6.754
 2635THSLK    S 2614   2.092  35.040   7.748
 2636ETHY    C1 2615   2.020  34.595   7.829
 2637ETHY    C1 2616   2.023  34.066   7.948
 2638ETHY    C1 2617   2.132  33.558   8.095
 2639ETHY    C1 2618   2.334  33.080   8.264
 2640AUSL   AUS 2619   1.979  36.553   7.091
 2641AUSL   AUS 2620   2.396  36.483   7.236
 2642AUL    AUL 2621   2.283  36.767   7.009
 2643THSLK    S 2622   2.021  36.787   6.971
 2644ETHY    C1 2623   2.148  37.112   6.676
 2645ETHY    C1 2624   2.222  37.542   6.353
 2646ETHY    C1 2625   2.203  38.007   6.080
 2647ETHY    C1 2626   2.100  38.495   5.857
 2648THSLK    S 2627   2.583  36.608   7.081
 2649ETHY    C1 2628   2.940  36.800   6.869
 2650ETHY    C1 2629   3.315  37.106   6.623
 2651ETHY    C1 2630   3.616  37.493   6.398
 2652ETHY    C1 2631   3.846  37.945   6.197
 2653AUSL   AUS 2632   1.828  36.646   7.336
 2654AUSL   AUS 2633   1.715  36.389   6.990
 2655AUL    AUL 2634   1.676  36.767   7.009
 2656THSLK    S 2635   1.867  36.900   7.233
 2657ETHY    C1 2636   1.939  37.323   7.074
 2658ETHY    C1 2637   1.936  37.839   6.906
 2659ETHY    C1 2638   1.827  38.349   6.770
 2660ETHY    C1 2639   1.625  38.847   6.670
 2661THSLK    S 2640   1.596  36.526   6.800
 2662ETHY    C1 2641   1.500  36.720   6.396
 2663ETHY    C1 2642   1.323  36.998   5.966
 2664ETHY    C1 2643   1.080  37.323   5.611
 2665ETHY    C1 2644   0.784  37.688   5.330
 2666AUSL   AUS 2645   1.979  35.392   7.091
 2667AUSL   AUS 2646   1.563  35.462   7.236
 2668AUL    AUL 2647   1.676  35.178   7.009
 2669THSLK    S 2648   1.378  35.309   7.122
 2670ETHY    C1 2649   1.021  35.035   7.044
 2671ETHY    C1 2650   0.644  34.681   6.878
 2672ETHY    C1 2651   0.342  34.307   6.633
 2673ETHY    C1 2652   0.115  33.920   6.321
 2674THSLK    S 2653   1.941  35.132   7.013
 2675ETHY    C1 2654   1.813  34.724   6.852
 2676ETHY    C1 2655   1.737  34.245   6.609
 2677ETHY    C1 2656   1.756  33.793   6.315
 2678ETHY    C1 2657   1.862  33.372   5.983
 2679AUSL   AUS 2658   2.131  35.299   7.336
 2680AUSL   AUS 2659   2.244  35.556   6.990
 2681AUL    AUL 2660   2.283  35.178   7.009
 2682THSLK    S 2661   2.094  35.039   7.258
 2683ETHY    C1 2662   2.021  34.594   7.175
 2684ETHY    C1 2663   2.023  34.066   7.052
 2685ETHY    C1 2664   2.131  33.558   6.905
 2686ETHY    C1 2665   2.336  33.079   6.742
 2687THSLK    S 2666   2.367  35.366   6.847
 2688ETHY    C1 2667   2.462  34.998   6.592
 2689ETHY    C1 2668   2.636  34.617   6.247
 2690ETHY    C1 2669   2.878  34.317   5.870
 2691ETHY    C1 2670   3.179  34.096   5.471
 2692AUC    AUC 2671  25.590  34.474   7.500
 2693AUC    AUC 2672  25.836  34.474   7.348
 2694AUC    AUC 2673  25.836  34.474   7.651
 2695AUC    AUC 2674  25.345  34.474   7.348
 2696AUC    AUC 2675  25.345  34.474   7.651
 2697AUC    AUC 2676  25.439  34.719   7.500
 2698AUC    AUC 2677  25.742  34.719   7.500
 2699AUC    AUC 2678  25.439  34.228   7.500
 2700AUC    AUC 2679  25.742  34.228   7.500
 2701AUC    AUC 2680  25.590  34.322   7.745
 2702AUC    AUC 2681  25.590  34.625   7.745
 2703AUC    AUC 2682  25.590  34.322   7.254
 2704AUC    AUC 2683  25.590  34.625   7.254
 2705AUC    AUC 2684  26.081  34.474   7.196
 2706AUC    AUC 2685  26.081  34.474   7.500
 2707AUC    AUC 2686  26.081  34.474   7.803
 2708AUC    AUC 2687  25.099  34.474   7.196
 2709AUC    AUC 2688  25.099  34.474   7.500
 2710AUC    AUC 2689  25.099  34.474   7.803
 2711AUC    AUC 2690  25.287  34.964   7.500
 2712AUC    AUC 2691  25.590  34.964   7.500
 2713AUC    AUC 2692  25.894  34.964   7.500
 2714AUC    AUC 2693  25.287  33.983   7.500
 2715AUC    AUC 2694  25.590  33.983   7.500
 2716AUC    AUC 2695  25.894  33.983   7.500
 2717AUC    AUC 2696  25.590  34.170   7.991
 2718AUC    AUC 2697  25.590  34.474   7.991
 2719AUC    AUC 2698  25.590  34.777   7.991
 2720AUC    AUC 2699  25.590  34.170   7.009
 2721AUC    AUC 2700  25.590  34.474   7.009
 2722AUC    AUC 2701  25.590  34.777   7.009
 2723AUC    AUC 2702  25.836  34.322   7.897
 2724AUC    AUC 2703  25.836  34.625   7.897
 2725AUC    AUC 2704  25.836  34.322   7.103
 2726AUC    AUC 2705  25.836  34.625   7.103
 2727AUC    AUC 2706  25.345  34.322   7.897
 2728AUC    AUC 2707  25.345  34.625   7.897
 2729AUC    AUC 2708  25.345  34.322   7.103
 2730AUC    AUC 2709  25.345  34.625   7.103
 2731AUC    AUC 2710  25.987  34.719   7.348
 2732AUC    AUC 2711  25.987  34.719   7.651
 2733AUC    AUC 2712  25.193  34.719   7.348
 2734AUC    AUC 2713  25.193  34.719   7.651
 2735AUC    AUC 2714  25.987  34.228   7.348
 2736AUC    AUC 2715  25.987  34.228   7.651
 2737AUC    AUC 2716  25.193  34.228   7.348
 2738AUC    AUC 2717  25.193  34.228   7.651
 2739AUC    AUC 2718  25.439  34.871   7.745
 2740AUC    AUC 2719  25.742  34.871   7.745
 2741AUC    AUC 2720  25.439  34.076   7.745
 2742AUC    AUC 2721  25.742  34.076   7.745
 2743AUC    AUC 2722  25.439  34.871   7.254
 2744AUC    AUC 2723  25.742  34.871   7.254
 2745AUC    AUC 2724  25.439  34.076   7.254
 2746AUC    AUC 2725  25.742  34.076   7.254
 2747AUSL   AUS 2726  25.999  34.474   8.080
 2748AUSL   AUS 2727  25.855  34.057   8.011
 2749AUL    AUL 2728  26.081  34.170   8.294
 2750THSLK    S 2729  25.973  33.869   8.156
 2751ETHY    C1 2730  26.069  33.501   8.412
 2752ETHY    C1 2731  26.247  33.118   8.753
 2753ETHY    C1 2732  26.489  32.818   9.130
 2754ETHY    C1 2733  26.785  32.599   9.534
 2755THSLK    S 2734  26.098  34.427   8.327
 2756ETHY    C1 2735  26.325  34.277   8.694
 2757ETHY    C1 2736  26.609  34.189   9.148
 2758ETHY    C1 2737  26.893  34.211   9.607
 2759ETHY    C1 2738  27.170  34.333  10.061
 2760AUSL   AUS 2739  25.754  34.322   8.173
 2761AUSL   AUS 2740  25.427  34.625   8.173
 2762AUL    AUL 2741  25.590  34.474   8.482
 2763THSLK    S 2742  25.835  34.271   8.418
 2764ETHY    C1 2743  25.925  34.053   8.810
 2765ETHY    C1 2744  26.053  33.879   9.308
 2766ETHY    C1 2745  26.199  33.814   9.823
 2767ETHY    C1 2746  26.356  33.848  10.346
 2768THSLK    S 2747  25.340  34.585   8.432
 2769ETHY    C1 2748  25.251  34.511   8.874
 2770ETHY    C1 2749  25.127  34.513   9.403
 2771ETHY    C1 2750  24.982  34.622   9.912
 2772ETHY    C1 2751  24.819  34.826  10.392
 2773AUSL   AUS 2752  25.754  34.625   8.173
 2774AUSL   AUS 2753  26.100  34.738   7.916
 2775AUL    AUL 2754  26.081  34.777   8.294
 2776THSLK    S 2755  25.841  34.677   8.416
 2777ETHY    C1 2756  25.929  34.894   8.809
 2778ETHY    C1 2757  26.054  35.067   9.308
 2779ETHY    C1 2758  26.199  35.133   9.823
 2780ETHY    C1 2759  26.362  35.100  10.345
 2781THSLK    S 2760  26.276  34.844   8.079
 2782ETHY    C1 2761  26.638  34.894   8.355
 2783ETHY    C1 2762  27.045  35.043   8.681
 2784ETHY    C1 2763  27.407  35.292   8.995
 2785ETHY    C1 2764  27.719  35.628   9.293
 2786AUSL   AUS 2765  25.999  34.474   6.920
 2787AUSL   AUS 2766  25.855  34.890   6.990
 2788AUL    AUL 2767  26.081  34.777   6.706
 2789THSLK    S 2768  26.103  34.427   6.676
 2790ETHY    C1 2769  26.330  34.277   6.308
 2791ETHY    C1 2770  26.609  34.189   5.851
 2792ETHY    C1 2771  26.893  34.211   5.393
 2793ETHY    C1 2772  27.175  34.333   4.941
 2794THSLK    S 2773  26.032  35.009   6.820
 2795ETHY    C1 2774  26.304  35.150   6.480
 2796ETHY    C1 2775  26.582  35.397   6.085
 2797ETHY    C1 2776  26.798  35.730   5.720
 2798ETHY    C1 2777  26.955  36.137   5.391
 2799AUSL   AUS 2778  25.754  34.322   6.826
 2800AUSL   AUS 2779  26.100  34.209   7.083
 2801AUL    AUL 2780  26.081  34.170   6.706
 2802THSLK    S 2781  26.240  34.018   6.939
 2803ETHY    C1 2782  26.473  33.701   6.707
 2804ETHY    C1 2783  26.803  33.394   6.403
 2805ETHY    C1 2784  27.183  33.185   6.083
 2806ETHY    C1 2785  27.604  33.068   5.754
 2807THSLK    S 2786  25.841  34.270   6.583
 2808ETHY    C1 2787  25.929  34.053   6.191
 2809ETHY    C1 2788  26.054  33.880   5.692
 2810ETHY    C1 2789  26.199  33.814   5.176
 2811ETHY    C1 2790  26.362  33.847   4.656
 2812AUSL   AUS 2791  25.754  34.625   6.826
 2813AUSL   AUS 2792  25.427  34.322   6.826
 2814AUL    AUL 2793  25.590  34.474   6.518
 2815THSLK    S 2794  25.331  34.270   6.586
 2816ETHY    C1 2795  25.192  34.055   6.206
 2817ETHY    C1 2796  25.035  33.884   5.717
 2818ETHY    C1 2797  24.896  33.818   5.199
 2819ETHY    C1 2798  24.780  33.849   4.666
 2820THSLK    S 2799  25.856  34.586   6.572
 2821ETHY    C1 2800  25.993  34.509   6.142
 2822ETHY    C1 2801  26.146  34.509   5.622
 2823ETHY    C1 2802  26.284  34.618   5.112
 2824ETHY    C1 2803  26.407  34.825   4.621
 2825AUSL   AUS 2804  25.181  34.474   8.080
 2826AUSL   AUS 2805  25.326  34.890   8.011
 2827AUL    AUL 2806  25.099  34.777   8.294
 2828THSLK    S 2807  25.077  34.427   8.325
 2829ETHY    C1 2808  24.851  34.277   8.691
 2830ETHY    C1 2809  24.571  34.189   9.148
 2831ETHY    C1 2810  24.288  34.211   9.607
 2832ETHY    C1 2811  24.005  34.333  10.058
 2833THSLK    S 2812  25.203  35.023   8.201
 2834ETHY    C1 2813  25.107  35.218   8.604
 2835ETHY    C1 2814  24.934  35.499   9.034
 2836ETHY    C1 2815  24.691  35.825   9.390
 2837ETHY    C1 2816  24.390  36.184   9.671
 2838AUSL   AUS 2817  25.427  34.322   8.173
 2839AUSL   AUS 2818  25.080  34.209   7.916
 2840AUL    AUL 2819  25.099  34.170   8.294
 2841THSLK    S 2820  24.901  34.043   8.032
 2842ETHY    C1 2821  24.540  33.796   8.166
 2843ETHY    C1 2822  24.135  33.530   8.410
 2844ETHY    C1 2823  23.774  33.310   8.745
 2845ETHY    C1 2824  23.458  33.137   9.156
 2846THSLK    S 2825  25.325  34.272   8.413
 2847ETHY    C1 2826  25.187  34.057   8.793
 2848ETHY    C1 2827  25.034  33.884   9.284
 2849ETHY    C1 2828  24.897  33.818   9.800
 2850ETHY    C1 2829  24.773  33.850  10.332
 2851AUSL   AUS 2830  25.181  34.474   6.920
 2852AUSL   AUS 2831  25.326  34.057   6.990
 2853AUL    AUL 2832  25.099  34.170   6.706
 2854THSLK    S 2833  25.082  34.427   6.673
 2855ETHY    C1 2834  24.855  34.277   6.305
 2856ETHY    C1 2835  24.572  34.189   5.851
 2857ETHY    C1 2836  24.288  34.211   5.393
 2858ETHY    C1 2837  24.011  34.333   4.938
 2859THSLK    S 2838  25.152  33.882   6.865
 2860ETHY    C1 2839  24.880  33.569   6.673
 2861ETHY    C1 2840  24.599  33.221   6.367
 2862ETHY    C1 2841  24.382  32.913   5.980
 2863ETHY    C1 2842  24.230  32.646   5.528
 2864AUSL   AUS 2843  25.427  34.625   6.826
 2865AUSL   AUS 2844  25.080  34.738   7.083
 2866AUL    AUL 2845  25.099  34.777   6.706
 2867THSLK    S 2846  24.944  34.869   6.893
 2868ETHY    C1 2847  24.710  34.990   6.518
 2869ETHY    C1 2848  24.378  35.178   6.132
 2870ETHY    C1 2849  23.998  35.417   5.833
 2871ETHY    C1 2850  23.581  35.697   5.618
 2872THSLK    S 2851  25.346  34.587   6.566
 2873ETHY    C1 2852  25.256  34.512   6.124
 2874ETHY    C1 2853  25.128  34.513   5.597
 2875ETHY    C1 2854  24.982  34.622   5.089
 2876ETHY    C1 2855  24.825  34.828   4.608
 2877AUSL   AUS 2856  26.170  34.883   7.500
 2878AUSL   AUS 2857  26.100  34.738   7.083
 2879AUL    AUL 2858  26.384  34.964   7.196
 2880THSLK    S 2859  26.280  34.845   6.925
 2881ETHY    C1 2860  26.641  34.895   6.648
 2882ETHY    C1 2861  27.045  35.043   6.319
 2883ETHY    C1 2862  27.407  35.292   6.005
 2884ETHY    C1 2863  27.723  35.629   5.713
 2885THSLK    S 2864  26.440  34.944   7.503
 2886ETHY    C1 2865  26.887  35.044   7.502
 2887ETHY    C1 2866  27.389  35.250   7.500
 2888ETHY    C1 2867  27.836  35.552   7.500
 2889ETHY    C1 2868  28.224  35.936   7.503
 2890AUSL   AUS 2869  26.264  34.637   7.348
 2891AUSL   AUS 2870  26.264  34.310   7.651
 2892AUL    AUL 2871  26.572  34.474   7.500
 2893THSLK    S 2872  26.526  34.684   7.345
 2894ETHY    C1 2873  26.976  34.653   7.270
 2895ETHY    C1 2874  27.508  34.708   7.179
 2896ETHY    C1 2875  28.015  34.871   7.091
 2897ETHY    C1 2876  28.490  35.129   7.011
 2898THSLK    S 2877  26.501  34.173   7.659
 2899ETHY    C1 2878  26.872  33.915   7.726
 2900ETHY    C1 2879  27.358  33.689   7.808
 2901ETHY    C1 2880  27.877  33.569   7.896
 2902ETHY    C1 2881  28.415  33.547   7.989
 2903AUSL   AUS 2882  26.264  34.637   7.651
 2904AUSL   AUS 2883  26.007  34.984   7.764
 2905AUL    AUL 2884  26.384  34.964   7.803
 2906THSLK    S 2885  26.192  35.108   7.924
 2907ETHY    C1 2886  26.549  35.300   8.136
 2908ETHY    C1 2887  26.926  35.607   8.377
 2909ETHY    C1 2888  27.227  35.994   8.602
 2910ETHY    C1 2889  27.454  36.445   8.809
 2911THSLK    S 2890  26.525  34.683   7.661
 2912ETHY    C1 2891  26.976  34.653   7.734
 2913ETHY    C1 2892  27.509  34.708   7.821
 2914ETHY    C1 2893  28.015  34.871   7.908
 2915ETHY    C1 2894  28.489  35.129   7.995
 2916AUSL   AUS 2895  25.010  34.883   7.500
 2917AUSL   AUS 2896  25.080  34.738   7.916
 2918AUL    AUL 2897  24.796  34.964   7.803
 2919THSLK    S 2898  24.940  34.864   8.107
 2920ETHY    C1 2899  24.707  34.985   8.482
 2921ETHY    C1 2900  24.378  35.178   8.868
 2922ETHY    C1 2901  23.998  35.417   9.166
 2923ETHY    C1 2902  23.577  35.692   9.381
 2924THSLK    S 2903  24.789  35.023   7.503
 2925ETHY    C1 2904  24.500  35.378   7.502
 2926ETHY    C1 2905  24.092  35.735   7.500
 2927ETHY    C1 2906  23.622  35.999   7.500
 2928ETHY    C1 2907  23.104  36.175   7.503
 2929AUSL   AUS 2908  24.917  34.637   7.348
 2930AUSL   AUS 2909  25.174  34.984   7.236
 2931AUL    AUL 2910  24.796  34.964   7.196
 2932THSLK    S 2911  24.680  34.751   7.303
 2933ETHY    C1 2912  24.308  34.925   7.101
 2934ETHY    C1 2913  23.822  35.101   6.936
 2935ETHY    C1 2914  23.304  35.233   6.868
 2936ETHY    C1 2915  22.766  35.325   6.890
 2937THSLK    S 2916  25.054  35.151   7.056
 2938ETHY    C1 2917  24.902  35.470   6.765
 2939ETHY    C1 2918  24.648  35.850   6.473
 2940ETHY    C1 2919  24.315  36.218   6.260
 2941ETHY    C1 2920  23.919  36.568   6.122
 2942AUSL   AUS 2921  24.917  34.637   7.651
 2943AUSL   AUS 2922  24.917  34.310   7.348
 2944AUL    AUL 2923  24.609  34.474   7.500
 2945THSLK    S 2924  24.655  34.235   7.384
 2946ETHY    C1 2925  24.205  34.184   7.446
 2947ETHY    C1 2926  23.672  34.081   7.434
 2948ETHY    C1 2927  23.165  33.931   7.327
 2949ETHY    C1 2928  22.692  33.738   7.135
 2950THSLK    S 2929  24.679  34.745   7.699
 2951ETHY    C1 2930  24.308  34.921   7.901
 2952ETHY    C1 2931  23.822  35.100   8.063
 2953ETHY    C1 2932  23.304  35.233   8.133
 2954ETHY    C1 2933  22.765  35.319   8.114
 2955AUSL   AUS 2934  26.170  34.064   7.500
 2956AUSL   AUS 2935  26.100  34.209   7.916
 2957AUL    AUL 2936  26.384  33.983   7.803
 2958THSLK    S 2937  26.391  33.924   7.503
 2959ETHY    C1 2938  26.680  33.569   7.502
 2960ETHY    C1 2939  27.089  33.212   7.500
 2961ETHY    C1 2940  27.559  32.948   7.500
 2962ETHY    C1 2941  28.076  32.772   7.503
 2963THSLK    S 2942  26.237  34.019   8.066
 2964ETHY    C1 2943  26.470  33.702   8.297
 2965ETHY    C1 2944  26.803  33.395   8.598
 2966ETHY    C1 2945  27.183  33.185   8.918
 2967ETHY    C1 2946  27.600  33.069   9.250
 2968AUSL   AUS 2947  26.264  34.310   7.348
 2969AUSL   AUS 2948  26.007  33.963   7.236
 2970AUL    AUL 2949  26.384  33.983   7.196
 2971THSLK    S 2950  26.502  34.173   7.346
 2972ETHY    C1 2951  26.873  33.915   7.279
 2973ETHY    C1 2952  27.358  33.689   7.192
 2974ETHY    C1 2953  27.877  33.569   7.103
 2975ETHY    C1 2954  28.416  33.547   7.018
 2976THSLK    S 2955  26.130  33.772   7.099
 2977ETHY    C1 2956  26.280  33.370   6.942
 2978ETHY    C1 2957  26.533  32.940   6.728
 2979ETHY    C1 2958  26.865  32.584   6.495
 2980ETHY    C1 2959  27.264  32.303   6.249
 2981AUSL   AUS 2960  25.010  34.064   7.500
 2982AUSL   AUS 2961  25.080  34.209   7.083
 2983AUL    AUL 2962  24.796  33.983   7.196
 2984THSLK    S 2963  24.905  34.038   6.966
 2985ETHY    C1 2964  24.543  33.792   6.833
 2986ETHY    C1 2965  24.135  33.529   6.589
 2987ETHY    C1 2966  23.774  33.310   6.255
 2988ETHY    C1 2967  23.462  33.132   5.843
 2989THSLK    S 2968  24.740  34.003   7.503
 2990ETHY    C1 2969  24.294  33.903   7.502
 2991ETHY    C1 2970  23.792  33.697   7.500
 2992ETHY    C1 2971  23.345  33.395   7.500
 2993ETHY    C1 2972  22.957  33.011   7.503
 2994AUSL   AUS 2973  24.917  34.310   7.651
 2995AUSL   AUS 2974  25.174  33.963   7.764
 2996AUL    AUL 2975  24.796  33.983   7.803
 2997THSLK    S 2976  24.986  33.815   7.881
 2998ETHY    C1 2977  24.630  33.539   7.958
 2999ETHY    C1 2978  24.255  33.182   8.122
 3000ETHY    C1 2979  23.954  32.808   8.367
 3001ETHY    C1 2980  23.723  32.426   8.682
 3002THSLK    S 2981  24.654  34.240   7.618
 3003ETHY    C1 2982  24.204  34.188   7.557
 3004ETHY    C1 2983  23.672  34.082   7.566
 3005ETHY    C1 2984  23.165  33.931   7.673
 3006ETHY    C1 2985  22.691  33.743   7.867
 3007AUSL   AUS 2986  25.590  35.054   7.909
 3008AUSL   AUS 2987  25.174  34.984   7.764
 3009AUL    AUL 2988  25.287  35.268   7.991
 3010THSLK    S 2989  25.051  35.146   7.948
 3011ETHY    C1 2990  24.900  35.466   8.237
 3012ETHY    C1 2991  24.647  35.849   8.527
 3013ETHY    C1 2992  24.315  36.217   8.740
 3014ETHY    C1 2993  23.916  36.563   8.881
 3015THSLK    S 2994  25.628  35.285   8.034
 3016ETHY    C1 2995  25.756  35.611   8.327
 3017ETHY    C1 2996  25.833  36.043   8.646
 3018ETHY    C1 2997  25.814  36.508   8.920
 3019ETHY    C1 2998  25.708  36.993   9.147
 3020AUSL   AUS 2999  25.439  35.147   7.663
 3021AUSL   AUS 3000  25.742  35.147   7.336
 3022AUL    AUL 3001  25.590  35.455   7.500
 3023THSLK    S 3002  25.476  35.399   7.772
 3024ETHY    C1 3003  25.549  35.823   7.929
 3025ETHY    C1 3004  25.546  36.339   8.095
 3026ETHY    C1 3005  25.438  36.850   8.229
 3027ETHY    C1 3006  25.234  37.346   8.336
 3028THSLK    S 3007  25.793  35.387   7.237
 3029ETHY    C1 3008  26.006  35.764   7.091
 3030ETHY    C1 3009  26.176  36.253   6.929
 3031ETHY    C1 3010  26.243  36.771   6.792
 3032ETHY    C1 3011  26.214  37.305   6.682
 3033AUSL   AUS 3012  25.742  35.147   7.663
 3034AUSL   AUS 3013  25.855  34.890   8.011
 3035AUL    AUL 3014  25.894  35.268   7.991
 3036THSLK    S 3015  26.028  35.007   8.184
 3037ETHY    C1 3016  26.301  35.148   8.522
 3038ETHY    C1 3017  26.582  35.397   8.915
 3039ETHY    C1 3018  26.798  35.730   9.279
 3040ETHY    C1 3019  26.950  36.135   9.614
 3041THSLK    S 3020  25.792  35.385   7.768
 3042ETHY    C1 3021  26.005  35.764   7.913
 3043ETHY    C1 3022  26.176  36.253   8.072
 3044ETHY    C1 3023  26.243  36.771   8.207
 3045ETHY    C1 3024  26.212  37.304   8.325
 3046AUSL   AUS 3025  25.590  33.893   7.909
 3047AUSL   AUS 3026  26.007  33.963   7.764
 3048AUL    AUL 3027  25.894  33.679   7.991
 3049THSLK    S 3028  25.549  33.636   7.992
 3050ETHY    C1 3029  25.422  33.227   8.152
 3051ETHY    C1 3030  25.348  32.746   8.391
 3052ETHY    C1 3031  25.367  32.294   8.684
 3053ETHY    C1 3032  25.469  31.876   9.021
 3054THSLK    S 3033  26.127  33.773   7.907
 3055ETHY    C1 3034  26.278  33.371   8.062
 3056ETHY    C1 3035  26.533  32.940   8.272
 3057ETHY    C1 3036  26.865  32.584   8.505
 3058ETHY    C1 3037  27.261  32.305   8.758
 3059AUSL   AUS 3038  25.439  33.800   7.663
 3060AUSL   AUS 3039  25.326  34.057   8.011
 3061AUL    AUL 3040  25.287  33.679   7.991
 3062THSLK    S 3041  25.388  33.555   7.744
 3063ETHY    C1 3042  25.175  33.156   7.812
 3064ETHY    C1 3043  25.004  32.653   7.925
 3065ETHY    C1 3044  24.938  32.139   8.072
 3066ETHY    C1 3045  24.967  31.624   8.252
 3067THSLK    S 3046  25.148  33.887   8.136
 3068ETHY    C1 3047  24.876  33.572   8.327
 3069ETHY    C1 3048  24.598  33.221   8.633
 3070ETHY    C1 3049  24.382  32.913   9.019
 3071ETHY    C1 3050  24.226  32.651   9.473
 3072AUSL   AUS 3051  25.742  33.800   7.663
 3073AUSL   AUS 3052  25.439  33.800   7.336
 3074AUL    AUL 3053  25.590  33.492   7.500
 3075THSLK    S 3054  25.389  33.553   7.261
 3076ETHY    C1 3055  25.176  33.155   7.192
 3077ETHY    C1 3056  25.004  32.653   7.076
 3078ETHY    C1 3057  24.938  32.139   6.927
 3079ETHY    C1 3058  24.969  31.622   6.754
 3080THSLK    S 3059  25.703  33.541   7.748
 3081ETHY    C1 3060  25.631  33.096   7.829
 3082ETHY    C1 3061  25.634  32.567   7.948
 3083ETHY    C1 3062  25.743  32.059   8.095
 3084ETHY    C1 3063  25.945  31.581   8.264
 3085AUSL   AUS 3064  25.590  35.054   7.091
 3086AUSL   AUS 3065  26.007  34.984   7.236
 3087AUL    AUL 3066  25.894  35.268   7.009
 3088THSLK    S 3067  25.632  35.288   6.971
 3089ETHY    C1 3068  25.759  35.613   6.676
 3090ETHY    C1 3069  25.833  36.043   6.353
 3091ETHY    C1 3070  25.814  36.508   6.080
 3092ETHY    C1 3071  25.711  36.996   5.857
 3093THSLK    S 3072  26.194  35.109   7.081
 3094ETHY    C1 3073  26.551  35.301   6.869
 3095ETHY    C1 3074  26.926  35.607   6.623
 3096ETHY    C1 3075  27.227  35.994   6.398
 3097ETHY    C1 3076  27.457  36.446   6.197
 3098AUSL   AUS 3077  25.439  35.147   7.336
 3099AUSL   AUS 3078  25.326  34.890   6.990
 3100AUL    AUL 3079  25.287  35.268   7.009
 3101THSLK    S 3080  25.478  35.401   7.233
 3102ETHY    C1 3081  25.550  35.824   7.074
 3103ETHY    C1 3082  25.547  36.340   6.906
 3104ETHY    C1 3083  25.438  36.850   6.770
 3105ETHY    C1 3084  25.236  37.348   6.670
 3106THSLK    S 3085  25.207  35.027   6.800
 3107ETHY    C1 3086  25.111  35.221   6.396
 3108ETHY    C1 3087  24.934  35.499   5.966
 3109ETHY    C1 3088  24.691  35.824   5.611
 3110ETHY    C1 3089  24.395  36.189   5.330
 3111AUSL   AUS 3090  25.590  33.893   7.091
 3112AUSL   AUS 3091  25.174  33.963   7.236
 3113AUL    AUL 3092  25.287  33.679   7.009
 3114THSLK    S 3093  24.989  33.810   7.122
 3115ETHY    C1 3094  24.632  33.536   7.044
 3116ETHY    C1 3095  24.255  33.182   6.878
 3117ETHY    C1 3096  23.953  32.808   6.633
 3118ETHY    C1 3097  23.726  32.421   6.321
 3119THSLK    S 3098  25.552  33.633   7.013
 3120ETHY    C1 3099  25.424  33.225   6.852
 3121ETHY    C1 3100  25.348  32.746   6.609
 3122ETHY    C1 3101  25.367  32.294   6.315
 3123ETHY    C1 3102  25.473  31.873   5.983
 3124AUSL   AUS 3103  25.742  33.800   7.336
 3125AUSL   AUS 3104  25.855  34.057   6.990
 3126AUL    AUL 3105  25.894  33.679   7.009
 3127THSLK    S 3106  25.705  33.540   7.258
 3128ETHY    C1 3107  25.632  33.095   7.175
 3129ETHY    C1 3108  25.634  32.567   7.052
 3130ETHY    C1 3109  25.742  32.059   6.905
 3131ETHY    C1 3110  25.947  31.580   6.742
 3132THSLK    S 3111  25.978  33.867   6.847
 3133ETHY    C1 3112  26.073  33.499   6.592
 3134ETHY    C1 3113  26.247  33.118   6.247
 3135ETHY    C1 3114  26.489  32.818   5.870
 3136ETHY    C1 3115  26.790  32.597   5.471
 3137AUC    AUC 3116  16.706  24.295   7.500
 3138AUC    AUC 3117  16.952  24.295   7.348
 3139AUC    AUC 3118  16.952  24.295   7.651
 3140AUC    AUC 3119  16.461  24.295   7.348
 3141AUC    AUC 3120  16.461  24.295   7.651
 3142AUC    AUC 3121  16.555  24.540   7.500
 3143AUC    AUC 3122  16.858  24.540   7.500
 3144AUC    AUC 3123  16.555  24.049   7.500
 3145AUC    AUC 3124  16.858  24.049   7.500
 3146AUC    AUC 3125  16.706  24.143   7.745
 3147AUC    AUC 3126  16.706  24.446   7.745
 3148AUC    AUC 3127  16.706  24.143   7.254
 3149AUC    AUC 3128  16.706  24.446   7.254
 3150AUC    AUC 3129  17.197  24.295   7.196
 3151AUC    AUC 3130  17.197  24.295   7.500
 3152AUC    AUC 3131  17.197  24.295   7.803
 3153AUC    AUC 3132  16.215  24.295   7.196
 3154AUC    AUC 3133  16.215  24.295   7.500
 3155AUC    AUC 3134  16.215  24.295   7.803
 3156AUC    AUC 3135  16.403  24.785   7.500
 3157AUC    AUC 3136  16.706  24.785   7.500
 3158AUC    AUC 3137  17.010  24.785   7.500
 3159AUC    AUC 3138  16.403  23.804   7.500
 3160AUC    AUC 3139  16.706  23.804   7.500
 3161AUC    AUC 3140  17.010  23.804   7.500
 3162AUC    AUC 3141  16.706  23.991   7.991
 3163AUC    AUC 3142  16.706  24.295   7.991
 3164AUC    AUC 3143  16.706  24.598   7.991
 3165AUC    AUC 3144  16.706  23.991   7.009
 3166AUC    AUC 3145  16.706  24.295   7.009
 3167AUC    AUC 3146  16.706  24.598   7.009
 3168AUC    AUC 3147  16.952  24.143   7.897
 3169AUC    AUC 3148  16.952  24.446   7.897
 3170AUC    AUC 3149  16.952  24.143   7.103
 3171AUC    AUC 3150  16.952  24.446   7.103
 3172AUC    AUC 3151  16.461  24.143   7.897
 3173AUC    AUC 3152  16.461  24.446   7.897
 3174AUC    AUC 3153  16.461  24.143   7.103
 3175AUC    AUC 3154  16.461  24.446   7.103
 3176AUC    AUC 3155  17.103  24.540   7.348
 3177AUC    AUC 3156  17.103  24.540   7.651
 3178AUC    AUC 3157  16.309  24.540   7.348
 3179AUC    AUC 3158  16.309  24.540   7.651
 3180AUC    AUC 3159  17.103  24.049   7.348
 3181AUC    AUC 3160  17.103  24.049   7.651
 3182AUC    AUC 3161  16.309  24.049   7.348
 3183AUC    AUC 3162  16.309  24.049   7.651
 3184AUC    AUC 3163  16.555  24.692   7.745
 3185AUC    AUC 3164  16.858  24.692   7.745
 3186AUC    AUC 3165  16.555  23.897   7.745
 3187AUC    AUC 3166  16.858  23.897   7.745
 3188AUC    AUC 3167  16.555  24.692   7.254
 3189AUC    AUC 3168  16.858  24.692   7.254
 3190AUC    AUC 3169  16.555  23.897   7.254
 3191AUC    AUC 3170  16.858  23.897   7.254
 3192AUSL   AUS 3171  17.115  24.295   8.080
 3193AUSL   AUS 3172  16.971  23.878   8.011
 3194AUL    AUL 3173  17.197  23.991   8.294
 3195THSLK    S 3174  17.089  23.690   8.156
 3196ETHY    C1 3175  17.185  23.322   8.412
 3197ETHY    C1 3176  17.363  22.939   8.753
 3198ETHY    C1 3177  17.605  22.639   9.130
 3199ETHY    C1 3178  17.901  22.420   9.534
 3200THSLK    S 3179  17.214  24.248   8.327
 3201ETHY    C1 3180  17.441  24.098   8.694
 3202ETHY    C1 3181  17.725  24.010   9.148
 3203ETHY    C1 3182  18.009  24.032   9.607
 3204ETHY    C1 3183  18.286  24.154  10.061
 3205AUSL   AUS 3184  16.870  24.143   8.173
 3206AUSL   AUS 3185  16.543  24.446   8.173
 3207AUL    AUL 3186  16.706  24.295   8.482
 3208THSLK    S 3187  16.951  24.092   8.418
 3209ETHY    C1 3188  17.041  23.874   8.810
 3210ETHY    C1 3189  17.169  23.700   9.308
 3211ETHY    C1 3190  17.315  23.635   9.823
 3212ETHY    C1 3191  17.472  23.669  10.346
 3213THSLK    S 3192  16.456  24.406   8.432
 3214ETHY    C1 3193  16.367  24.332   8.874
 3215ETHY    C1 3194  16.243  24.334   9.403
 3216ETHY    C1 3195  16.098  24.443   9.912
 3217ETHY    C1 3196  15.935  24.647  10.392
 3218AUSL   AUS 3197  16.870  24.446   8.173
 3219AUSL   AUS 3198  17.216  24.559   7.916
 3220AUL    AUL 3199  17.197  24.598   8.294
 3221THSLK    S 3200  16.957  24.498   8.416
 3222ETHY    C1 3201  17.045  24.715   8.809
 3223ETHY    C1 3202  17.170  24.888   9.308
 3224ETHY    C1 3203  17.315  24.954   9.823
 3225ETHY    C1 3204  17.478  24.921  10.345
 3226THSLK    S 3205  17.392  24.665   8.079
 3227ETHY    C1 3206  17.754  24.715   8.355
 3228ETHY    C1 3207  18.161  24.864   8.681
 3229ETHY    C1 3208  18.523  25.113   8.995
 3230ETHY    C1 3209  18.835  25.449   9.293
 3231AUSL   AUS 3210  17.115  24.295   6.920
 3232AUSL   AUS 3211  16.971  24.711   6.990
 3233AUL    AUL 3212  17.197  24.598   6.706
 3234THSLK    S 3213  17.219  24.248   6.676
 3235ETHY    C1 3214  17.446  24.098   6.308
 3236ETHY    C1 3215  17.725  24.010   5.851
 3237ETHY    C1 3216  18.009  24.032   5.393
 3238ETHY    C1 3217  18.291  24.154   4.941
 3239THSLK    S 3218  17.148  24.830   6.820
 3240ETHY    C1 3219  17.420  24.971   6.480
 3241ETHY    C1 3220  17.698  25.218   6.085
 3242ETHY    C1 3221  17.914  25.551   5.720
 3243ETHY    C1 3222  18.071  25.958   5.391
 3244AUSL   AUS 3223  16.870  24.143   6.826
 3245AUSL   AUS 3224  17.216  24.030   7.083
 3246AUL    AUL 3225  17.197  23.991   6.706
 3247THSLK    S 3226  17.356  23.839   6.939
 3248ETHY    C1 3227  17.589  23.522   6.707
 3249ETHY    C1 3228  17.919  23.215   6.403
 3250ETHY    C1 3229  18.299  23.006   6.083
 3251ETHY    C1 3230  18.720  22.889   5.754
 3252THSLK    S 3231  16.957  24.091   6.583
 3253ETHY    C1 3232  17.045  23.874   6.191
 3254ETHY    C1 3233  17.170  23.701   5.692
 3255ETHY    C1 3234  17.315  23.635   5.176
 3256ETHY    C1 3235  17.478  23.668   4.656
 3257AUSL   AUS 3236  16.870  24.446   6.826
 3258AUSL   AUS 3237  16.543  24.143   6.826
 3259AUL    AUL 3238  16.706  24.295   6.518
 3260THSLK    S 3239  16.447  24.091   6.586
 3261ETHY    C1 3240  16.308  23.876   6.206
 3262ETHY    C1 3241  16.151  23.705   5.717
 3263ETHY    C1 3242  16.012  23.639   5.199
 3264ETHY    C1 3243  15.896  23.670   4.666
 3265THSLK    S 3244  16.972  24.407   6.572
 3266ETHY    C1 3245  17.109  24.330   6.142
 3267ETHY    C1 3246  17.262  24.330   5.622
 3268ETHY    C1 3247  17.400  24.439   5.112
 3269ETHY    C1 3248  17.523  24.646   4.621
 3270AUSL   AUS 3249  16.297  24.295   8.080
 3271AUSL   AUS 3250  16.442  24.711   8.011
 3272AUL    AUL 3251  16.215  24.598   8.294
 3273THSLK    S 3252  16.193  24.248   8.325
 3274ETHY    C1 3253  15.967  24.098   8.691
 3275ETHY    C1 3254  15.687  24.010   9.148
 3276ETHY    C1 3255  15.404  24.032   9.607
 3277ETHY    C1 3256  15.121  24.154  10.058
 3278THSLK    S 3257  16.319  24.844   8.201
 3279ETHY    C1 3258  16.223  25.039   8.604
 3280ETHY    C1 3259  16.050  25.320   9.034
 3281ETHY    C1 3260  15.807  25.646   9.390
 3282ETHY    C1 3261  15.506  26.005   9.671
 3283AUSL   AUS 3262  16.543  24.143   8.173
 3284AUSL   AUS 3263  16.196  24.030   7.916
 3285AUL    AUL 3264  16.215  23.991   8.294
 3286THSLK    S 3265  16.017  23.864   8.032
 3287ETHY    C1 3266  15.656  23.617   8.166
 3288ETHY    C1 3267  15.251  23.351   8.410
 3289ETHY    C1 3268  14.890  23.131   8.745
 3290ETHY    C1 3269  14.574  22.958   9.156
 3291THSLK    S 3270  16.441  24.093   8.413
 3292ETHY    C1 3271  16.303  23.878   8.793
 3293ETHY    C1 3272  16.150  23.705   9.284
 3294ETHY    C1 3273  16.013  23.639   9.800
 3295ETHY    C1 3274  15.889  23.671  10.332
 3296AUSL   AUS 3275  16.297  24.295   6.920
 3297AUSL   AUS 3276  16.442  23.878   6.990
 3298AUL    AUL 3277  16.215  23.991   6.706
 3299THSLK    S 3278  16.198  24.248   6.673
 3300ETHY    C1 3279  15.971  24.098   6.305
 3301ETHY    C1 3280  15.688  24.010   5.851
 3302ETHY    C1 3281  15.404  24.032   5.393
 3303ETHY    C1 3282  15.127  24.154   4.938
 3304THSLK    S 3283  16.268  23.703   6.865
 3305ETHY    C1 3284  15.996  23.390   6.673
 3306ETHY    C1 3285  15.715  23.042   6.367
 3307ETHY    C1 3286  15.498  22.734   5.980
 3308ETHY    C1 3287  15.346  22.467   5.528
 3309AUSL   AUS 3288  16.543  24.446   6.826
 3310AUSL   AUS 3289  16.196  24.559   7.083
 3311AUL    AUL 3290  16.215  24.598   6.706
 3312THSLK    S 3291  16.060  24.690   6.893
 3313ETHY    C1 3292  15.826  24.811   6.518
 3314ETHY    C1 3293  15.494  24.999   6.132
 3315ETHY    C1 3294  15.114  25.238   5.833
 3316ETHY    C1 3295  14.697  25.518   5.618
 3317THSLK    S 3296  16.462  24.408   6.566
 3318ETHY    C1 3297  16.372  24.333   6.124
 3319ETHY    C1 3298  16.244  24.334   5.597
 3320ETHY    C1 3299  16.098  24.443   5.089
 3321ETHY    C1 3300  15.941  24.649   4.608
 3322AUSL   AUS 3301  17.286  24.704   7.500
 3323AUSL   AUS 3302  17.216  24.559   7.083
 3324AUL    AUL 3303  17.500  24.785   7.196
 3325THSLK    S 3304  17.396  24.666   6.925
 3326ETHY    C1 3305  17.757  24.716   6.648
 3327ETHY    C1 3306  18.161  24.864   6.319
 3328ETHY    C1 3307  18.523  25.113   6.005
 3329ETHY    C1 3308  18.839  25.450   5.713
 3330THSLK    S 3309  17.556  24.765   7.503
 3331ETHY    C1 3310  18.003  24.865   7.502
 3332ETHY    C1 3311  18.505  25.071   7.500
 3333ETHY    C1 3312  18.952  25.373   7.500
 3334ETHY    C1 3313  19.340  25.757   7.503
 3335AUSL   AUS 3314  17.380  24.458   7.348
 3336AUSL   AUS 3315  17.380  24.131   7.651
 3337AUL    AUL 3316  17.688  24.295   7.500
 3338THSLK    S 3317  17.642  24.505   7.345
 3339ETHY    C1 3318  18.092  24.474   7.270
 3340ETHY    C1 3319  18.624  24.529   7.179
 3341ETHY    C1 3320  19.131  24.692   7.091
 3342ETHY    C1 3321  19.606  24.950   7.011
 3343THSLK    S 3322  17.617  23.994   7.659
 3344ETHY    C1 3323  17.988  23.736   7.726
 3345ETHY    C1 3324  18.474  23.510   7.808
 3346ETHY    C1 3325  18.993  23.390   7.896
 3347ETHY    C1 3326  19.531  23.368   7.989
 3348AUSL   AUS 3327  17.380  24.458   7.651
 3349AUSL   AUS 3328  17.123  24.805   7.764
 3350AUL    AUL 3329  17.500  24.785   7.803
 3351THSLK    S 3330  17.308  24.929   7.924
 3352ETHY    C1 3331  17.665  25.121   8.136
 3353ETHY    C1 3332  18.042  25.428   8.377
 3354ETHY    C1 3333  18.343  25.815   8.602
 3355ETHY    C1 3334  18.570  26.266   8.809
 3356THSLK    S 3335  17.641  24.504   7.661
 3357ETHY    C1 3336  18.092  24.474   7.734
 3358ETHY    C1 3337  18.625  24.529   7.821
 3359ETHY    C1 3338  19.131  24.692   7.908
 3360ETHY    C1 3339  19.605  24.950   7.995
 3361AUSL   AUS 3340  16.126  24.704   7.500
 3362AUSL   AUS 3341  16.196  24.559   7.916
 3363AUL    AUL 3342  15.912  24.785   7.803
 3364THSLK    S 3343  16.056  24.685   8.107
 3365ETHY    C1 3344  15.823  24.806   8.482
 3366ETHY    C1 3345  15.494  24.999   8.868
 3367ETHY    C1 3346  15.114  25.238   9.166
 3368ETHY    C1 3347  14.693  25.513   9.381
 3369THSLK    S 3348  15.905  24.844   7.503
 3370ETHY    C1 3349  15.616  25.199   7.502
 3371ETHY    C1 3350  15.208  25.556   7.500
 3372ETHY    C1 3351  14.738  25.820   7.500
 3373ETHY    C1 3352  14.220  25.996   7.503
 3374AUSL   AUS 3353  16.033  24.458   7.348
 3375AUSL   AUS 3354  16.290  24.805   7.236
 3376AUL    AUL 3355  15.912  24.785   7.196
 3377THSLK    S 3356  15.796  24.572   7.303
 3378ETHY    C1 3357  15.424  24.746   7.101
 3379ETHY    C1 3358  14.938  24.922   6.936
 3380ETHY    C1 3359  14.420  25.054   6.868
 3381ETHY    C1 3360  13.882  25.146   6.890
 3382THSLK    S 3361  16.170  24.972   7.056
 3383ETHY    C1 3362  16.018  25.291   6.765
 3384ETHY    C1 3363  15.764  25.671   6.473
 3385ETHY    C1 3364  15.431  26.039   6.260
 3386ETHY    C1 3365  15.035  26.389   6.122
 3387AUSL   AUS 3366  16.033  24.458   7.651
 3388AUSL   AUS 3367  16.033  24.131   7.348
 3389AUL    AUL 3368  15.725  24.295   7.500
 3390THSLK    S 3369  15.771  24.056   7.384
 3391ETHY    C1 3370  15.321  24.005   7.446
 3392ETHY    C1 3371  14.788  23.902   7.434
 3393ETHY    C1 3372  14.281  23.752   7.327
 3394ETHY    C1 3373  13.808  23.559   7.135
 3395THSLK    S 3374  15.795  24.566   7.699
 3396ETHY    C1 3375  15.424  24.742   7.901
 3397ETHY    C1 3376  14.938  24.921   8.063
 3398ETHY    C1 3377  14.420  25.054   8.133
 3399ETHY    C1 3378  13.881  25.140   8.114
 3400AUSL   AUS 3379  17.286  23.885   7.500
 3401AUSL   AUS 3380  17.216  24.030   7.916
 3402AUL    AUL 3381  17.500  23.804   7.803
 3403THSLK    S 3382  17.507  23.745   7.503
 3404ETHY    C1 3383  17.796  23.390   7.502
 3405ETHY    C1 3384  18.205  23.033   7.500
 3406ETHY    C1 3385  18.675  22.769   7.500
 3407ETHY    C1 3386  19.192  22.593   7.503
 3408THSLK    S 3387  17.353  23.840   8.066
 3409ETHY    C1 3388  17.586  23.523   8.297
 3410ETHY    C1 3389  17.919  23.216   8.598
 3411ETHY    C1 3390  18.299  23.006   8.918
 3412ETHY    C1 3391  18.716  22.890   9.250
 3413AUSL   AUS 3392  17.380  24.131   7.348
 3414AUSL   AUS 3393  17.123  23.784   7.236
 3415AUL    AUL 3394  17.500  23.804   7.196
 3416THSLK    S 3395  17.618  23.994   7.346
 3417ETHY    C1 3396  17.989  23.736   7.279
 3418ETHY    C1 3397  18.474  23.510   7.192
 3419ETHY    C1 3398  18.993  23.390   7.103
 3420ETHY    C1 3399  19.532  23.368   7.018
 3421THSLK    S 3400  17.246  23.593   7.099
 3422ETHY    C1 3401  17.396  23.191   6.942
 3423ETHY    C1 3402  17.649  22.761   6.728
 3424ETHY    C1 3403  17.981  22.405   6.495
 3425ETHY    C1 3404  18.380  22.124   6.249
 3426AUSL   AUS 3405  16.126  23.885   7.500
 3427AUSL   AUS 3406  16.196  24.030   7.083
 3428AUL    AUL 3407  15.912  23.804   7.196
 3429THSLK    S 3408  16.021  23.859   6.966
 3430ETHY    C1 3409  15.659  23.613   6.833
 3431ETHY    C1 3410  15.251  23.350   6.589
 3432ETHY    C1 3411  14.890  23.131   6.255
 3433ETHY    C1 3412  14.578  22.953   5.843
 3434THSLK    S 3413  15.856  23.824   7.503
 3435ETHY    C1 3414  15.410  23.724   7.502
 3436ETHY    C1 3415  14.908  23.518   7.500
 3437ETHY    C1 3416  14.461  23.216   7.500
 3438ETHY    C1 3417  14.073  22.832   7.503
 3439AUSL   AUS 3418  16.033  24.131   7.651
 3440AUSL   AUS 3419  16.290  23.784   7.764
 3441AUL    AUL 3420  15.912  23.804   7.803
 3442THSLK    S 3421  16.102  23.636   7.881
 3443ETHY    C1 3422  15.746  23.360   7.958
 3444ETHY    C1 3423  15.371  23.003   8.122
 3445ETHY    C1 3424  15.070  22.629   8.367
 3446ETHY    C1 3425  14.839  22.247   8.682
 3447THSLK    S 3426  15.770  24.061   7.618
 3448ETHY    C1 3427  15.320  24.009   7.557
 3449ETHY    C1 3428  14.788  23.903   7.566
 3450ETHY    C1 3429  14.281  23.752   7.673
 3451ETHY    C1 3430  13.807  23.564   7.867
 3452AUSL   AUS 3431  16.706  24.875   7.909
 3453AUSL   AUS 3432  16.290  24.805   7.764
 3454AUL    AUL 3433  16.403  25.089   7.991
 3455THSLK    S 3434  16.167  24.967   7.948
 3456ETHY    C1 3435  16.016  25.287   8.237
 3457ETHY    C1 3436  15.763  25.670   8.527
 3458ETHY    C1 3437  15.431  26.038   8.740
 3459ETHY    C1 3438  15.032  26.384   8.881
 3460THSLK    S 3439  16.744  25.106   8.034
 3461ETHY    C1 3440  16.872  25.432   8.327
 3462ETHY    C1 3441  16.949  25.864   8.646
 3463ETHY    C1 3442  16.930  26.329   8.920
 3464ETHY    C1 3443  16.824  26.814   9.147
 3465AUSL   AUS 3444  16.555  24.968   7.663
 3466AUSL   AUS 3445  16.858  24.968   7.336
 3467AUL    AUL 3446  16.706  25.276   7.500
 3468THSLK    S 3447  16.592  25.220   7.772
 3469ETHY    C1 3448  16.665  25.644   7.929
 3470ETHY    C1 3449  16.662  26.160   8.095
 3471ETHY    C1 3450  16.554  26.671   8.229
 3472ETHY    C1 3451  16.350  27.167   8.336
 3473THSLK    S 3452  16.909  25.208   7.237
 3474ETHY    C1 3453  17.122  25.585   7.091
 3475ETHY    C1 3454  17.292  26.074   6.929
 3476ETHY    C1 3455  17.359  26.592   6.792
 3477ETHY    C1 3456  17.330  27.126   6.682
 3478AUSL   AUS 3457  16.858  24.968   7.663
 3479AUSL   AUS 3458  16.971  24.711   8.011
 3480AUL    AUL 3459  17.010  25.089   7.991
 3481THSLK    S 3460  17.144  24.828   8.184
 3482ETHY    C1 3461  17.417  24.969   8.522
 3483ETHY    C1 3462  17.698  25.218   8.915
 3484ETHY    C1 3463  17.914  25.551   9.279
 3485ETHY    C1 3464  18.066  25.956   9.614
 3486THSLK    S 3465  16.908  25.206   7.768
 3487ETHY    C1 3466  17.121  25.585   7.913
 3488ETHY    C1 3467  17.292  26.074   8.072
 3489ETHY    C1 3468  17.359  26.592   8.207
 3490ETHY    C1 3469  17.328  27.125   8.325
 3491AUSL   AUS 3470  16.706  23.714   7.909
 3492AUSL   AUS 3471  17.123  23.784   7.764
 3493AUL    AUL 3472  17.010  23.500   7.991
 3494THSLK    S 3473  16.665  23.457   7.992
 3495ETHY    C1 3474  16.538  23.048   8.152
 3496ETHY    C1 3475  16.464  22.567   8.391
 3497ETHY    C1 3476  16.483  22.115   8.684
 3498ETHY    C1 3477  16.585  21.697   9.021
 3499THSLK    S 3478  17.243  23.594   7.907
 3500ETHY    C1 3479  17.394  23.192   8.062
 3501ETHY    C1 3480  17.649  22.761   8.272
 3502ETHY    C1 3481  17.981  22.405   8.505
 3503ETHY    C1 3482  18.377  22.126   8.758
 3504AUSL   AUS 3483  16.555  23.621   7.663
 3505AUSL   AUS 3484  16.442  23.878   8.011
 3506AUL    AUL 3485  16.403  23.500   7.991
 3507THSLK    S 3486  16.504  23.376   7.744
 3508ETHY    C1 3487  16.291  22.977   7.812
 3509ETHY    C1 3488  16.120  22.474   7.925
 3510ETHY    C1 3489  16.054  21.960   8.072
 3511ETHY    C1 3490  16.083  21.445   8.252
 3512THSLK    S 3491  16.264  23.708   8.136
 3513ETHY    C1 3492  15.992  23.393   8.327
 3514ETHY    C1 3493  15.714  23.042   8.633
 3515ETHY    C1 3494  15.498  22.734   9.019
 3516ETHY    C1 3495  15.342  22.472   9.473
 3517AUSL   AUS 3496  16.858  23.621   7.663
 3518AUSL   AUS 3497  16.555  23.621   7.336
 3519AUL    AUL 3498  16.706  23.313   7.500
 3520THSLK    S 3499  16.505  23.374   7.261
 3521ETHY    C1 3500  16.292  22.976   7.192
 3522ETHY    C1 3501  16.120  22.474   7.076
 3523ETHY    C1 3502  16.054  21.960   6.927
 3524ETHY    C1 3503  16.085  21.443   6.754
 3525THSLK    S 3504  16.819  23.362   7.748
 3526ETHY    C1 3505  16.747  22.917   7.829
 3527ETHY    C1 3506  16.750  22.388   7.948
 3528ETHY    C1 3507  16.859  21.880   8.095
 3529ETHY    C1 3508  17.061  21.402   8.264
 3530AUSL   AUS 3509  16.706  24.875   7.091
 3531AUSL   AUS 3510  17.123  24.805   7.236
 3532AUL    AUL 3511  17.010  25.089   7.009
 3533THSLK    S 3512  16.748  25.109   6.971
 3534ETHY    C1 3513  16.875  25.434   6.676
 3535ETHY    C1 3514  16.949  25.864   6.353
 3536ETHY    C1 3515  16.930  26.329   6.080
 3537ETHY    C1 3516  16.827  26.817   5.857
 3538THSLK    S 3517  17.310  24.930   7.081
 3539ETHY    C1 3518  17.667  25.122   6.869
 3540ETHY    C1 3519  18.042  25.428   6.623
 3541ETHY    C1 3520  18.343  25.815   6.398
 3542ETHY    C1 3521  18.573  26.267   6.197
 3543AUSL   AUS 3522  16.555  24.968   7.336
 3544AUSL   AUS 3523  16.442  24.711   6.990
 3545AUL    AUL 3524  16.403  25.089   7.009
 3546THSLK    S 3525  16.594  25.222   7.233
 3547ETHY    C1 3526  16.666  25.645   7.074
 3548ETHY    C1 3527  16.663  26.161   6.906
 3549ETHY    C1 3528  16.554  26.671   6.770
 3550ETHY    C1 3529  16.352  27.169   6.670
 3551THSLK    S 3530  16.323  24.848   6.800
 3552ETHY    C1 3531  16.227  25.042   6.396
 3553ETHY    C1 3532  16.050  25.320   5.966
 3554ETHY    C1 3533  15.807  25.645   5.611
 3555ETHY    C1 3534  15.511  26.010   5.330
 3556AUSL   AUS 3535  16.706  23.714   7.091
 3557AUSL   AUS 3536  16.290  23.784   7.236
 3558AUL    AUL 3537  16.403  23.500   7.009
 3559THSLK    S 3538  16.105  23.631   7.122
 3560ETHY    C1 3539  15.748  23.357   7.044
 3561ETHY    C1 3540  15.371  23.003   6.878
 3562ETHY    C1 3541  15.069  22.629   6.633
 3563ETHY    C1 3542  14.842  22.242   6.321
 3564THSLK    S 3543  16.668  23.454   7.013
 3565ETHY    C1 3544  16.540  23.046   6.852
 3566ETHY    C1 3545  16.464  22.567   6.609
 3567ETHY    C1 3546  16.483  22.115   6.315
 3568ETHY    C1 3547  16.589  21.694   5.983
 3569AUSL   AUS 3548  16.858  23.621   7.336
 3570AUSL   AUS 3549  16.971  23.878   6.990
 3571AUL    AUL 3550  17.010  23.500   7.009
 3572THSLK    S 3551  16.821  23.361   7.258
 3573ETHY    C1 3552  16.748  22.916   7.175
 3574ETHY    C1 3553  16.750  22.388   7.052
 3575ETHY    C1 3554  16.858  21.880   6.905
 3576ETHY    C1 3555  17.063  21.401   6.742
 3577THSLK    S 3556  17.094  23.688   6.847
 3578ETHY    C1 3557  17.189  23.320   6.592
 3579ETHY    C1 3558  17.363  22.939   6.247
 3580ETHY    C1 3559  17.605  22.639   5.870
 3581ETHY    C1 3560  17.906  22.418   5.471
 3582AUC    AUC 3561  16.437  17.734   7.500
 3583AUC    AUC 3562  16.683  17.734   7.348
 3584AUC    AUC 3563  16.683  17.734   7.651
 3585AUC    AUC 3564  16.192  17.734   7.348
 3586AUC    AUC 3565  16.192  17.734   7.651
 3587AUC    AUC 3566  16.286  17.979   7.500
 3588AUC    AUC 3567  16.589  17.979   7.500
 3589AUC    AUC 3568  16.286  17.488   7.500
 3590AUC    AUC 3569  16.589  17.488   7.500
 3591AUC    AUC 3570  16.437  17.582   7.745
 3592AUC    AUC 3571  16.437  17.885   7.745
 3593AUC    AUC 3572  16.437  17.582   7.254
 3594AUC    AUC 3573  16.437  17.885   7.254
 3595AUC    AUC 3574  16.928  17.734   7.196
 3596AUC    AUC 3575  16.928  17.734   7.500
 3597AUC    AUC 3576  16.928  17.734   7.803
 3598AUC    AUC 3577  15.946  17.734   7.196
 3599AUC    AUC 3578  15.946  17.734   7.500
 3600AUC    AUC 3579  15.946  17.734   7.803
 3601AUC    AUC 3580  16.134  18.224   7.500
 3602AUC    AUC 3581  16.437  18.224   7.500
 3603AUC    AUC 3582  16.741  18.224   7.500
 3604AUC    AUC 3583  16.134  17.243   7.500
 3605AUC    AUC 3584  16.437  17.243   7.500
 3606AUC    AUC 3585  16.741  17.243   7.500
 3607AUC    AUC 3586  16.437  17.430   7.991
 3608AUC    AUC 3587  16.437  17.734   7.991
 3609AUC    AUC 3588  16.437  18.037   7.991
 3610AUC    AUC 3589  16.437  17.430   7.009
 3611AUC    AUC 3590  16.437  17.734   7.009
 3612AUC    AUC 3591  16.437  18.037   7.009
 3613AUC    AUC 3592  16.683  17.582   7.897
 3614AUC    AUC 3593  16.683  17.885   7.897
 3615AUC    AUC 3594  16.683  17.582   7.103
 3616AUC    AUC 3595  16.683  17.885   7.103
 3617AUC    AUC 3596  16.192  17.582   7.897
 3618AUC    AUC 3597  16.192  17.885   7.897
 3619AUC    AUC 3598  16.192  17.582   7.103
 3620AUC    AUC 3599  16.192  17.885   7.103
 3621AUC    AUC 3600  16.834  17.979   7.348
 3622AUC    AUC 3601  16.834  17.979   7.651
 3623AUC    AUC 3602  16.040  17.979   7.348
 3624AUC    AUC 3603  16.040  17.979   7.651
 3625AUC    AUC 3604  16.834  17.488   7.348
 3626AUC    AUC 3605  16.834  17.488   7.651
 3627AUC    AUC 3606  16.040  17.488   7.348
 3628AUC    AUC 3607  16.040  17.488   7.651
 3629AUC    AUC 3608  16.286  18.131   7.745
 3630AUC    AUC 3609  16.589  18.131   7.745
 3631AUC    AUC 3610  16.286  17.336   7.745
 3632AUC    AUC 3611  16.589  17.336   7.745
 3633AUC    AUC 3612  16.286  18.131   7.254
 3634AUC    AUC 3613  16.589  18.131   7.254
 3635AUC    AUC 3614  16.286  17.336   7.254
 3636AUC    AUC 3615  16.589  17.336   7.254
 3637AUSL   AUS 3616  16.846  17.734   8.080
 3638AUSL   AUS 3617  16.702  17.317   8.011
 3639AUL    AUL 3618  16.928  17.430   8.294
 3640THSLK    S 3619  16.820  17.129   8.156
 3641ETHY    C1 3620  16.916  16.761   8.412
 3642ETHY    C1 3621  17.094  16.378   8.753
 3643ETHY    C1 3622  17.336  16.078   9.130
 3644ETHY    C1 3623  17.632  15.859   9.534
 3645THSLK    S 3624  16.945  17.687   8.327
 3646ETHY    C1 3625  17.172  17.537   8.694
 3647ETHY    C1 3626  17.456  17.449   9.148
 3648ETHY    C1 3627  17.740  17.471   9.607
 3649ETHY    C1 3628  18.017  17.593  10.061
 3650AUSL   AUS 3629  16.601  17.582   8.173
 3651AUSL   AUS 3630  16.274  17.885   8.173
 3652AUL    AUL 3631  16.437  17.734   8.482
 3653THSLK    S 3632  16.682  17.531   8.418
 3654ETHY    C1 3633  16.772  17.313   8.810
 3655ETHY    C1 3634  16.900  17.139   9.308
 3656ETHY    C1 3635  17.046  17.074   9.823
 3657ETHY    C1 3636  17.203  17.108  10.346
 3658THSLK    S 3637  16.187  17.845   8.432
 3659ETHY    C1 3638  16.098  17.771   8.874
 3660ETHY    C1 3639  15.974  17.773   9.403
 3661ETHY    C1 3640  15.829  17.882   9.912
 3662ETHY    C1 3641  15.666  18.086  10.392
 3663AUSL   AUS 3642  16.601  17.885   8.173
 3664AUSL   AUS 3643  16.947  17.998   7.916
 3665AUL    AUL 3644  16.928  18.037   8.294
 3666THSLK    S 3645  16.688  17.937   8.416
 3667ETHY    C1 3646  16.776  18.154   8.809
 3668ETHY    C1 3647  16.901  18.327   9.308
 3669ETHY    C1 3648  17.046  18.393   9.823
 3670ETHY    C1 3649  17.209  18.360  10.345
 3671THSLK    S 3650  17.123  18.104   8.079
 3672ETHY    C1 3651  17.485  18.154   8.355
 3673ETHY    C1 3652  17.892  18.303   8.681
 3674ETHY    C1 3653  18.254  18.552   8.995
 3675ETHY    C1 3654  18.566  18.888   9.293
 3676AUSL   AUS 3655  16.846  17.734   6.920
 3677AUSL   AUS 3656  16.702  18.150   6.990
 3678AUL    AUL 3657  16.928  18.037   6.706
 3679THSLK    S 3658  16.950  17.687   6.676
 3680ETHY    C1 3659  17.177  17.537   6.308
 3681ETHY    C1 3660  17.456  17.449   5.851
 3682ETHY    C1 3661  17.740  17.471   5.393
 3683ETHY    C1 3662  18.022  17.593   4.941
 3684THSLK    S 3663  16.879  18.269   6.820
 3685ETHY    C1 3664  17.151  18.410   6.480
 3686ETHY    C1 3665  17.429  18.657   6.085
 3687ETHY    C1 3666  17.645  18.990   5.720
 3688ETHY    C1 3667  17.802  19.397   5.391
 3689AUSL   AUS 3668  16.601  17.582   6.826
 3690AUSL   AUS 3669  16.947  17.469   7.083
 3691AUL    AUL 3670  16.928  17.430   6.706
 3692THSLK    S 3671  17.087  17.278   6.939
 3693ETHY    C1 3672  17.320  16.961   6.707
 3694ETHY    C1 3673  17.650  16.654   6.403
 3695ETHY    C1 3674  18.030  16.445   6.083
 3696ETHY    C1 3675  18.451  16.328   5.754
 3697THSLK    S 3676  16.688  17.530   6.583
 3698ETHY    C1 3677  16.776  17.313   6.191
 3699ETHY    C1 3678  16.901  17.140   5.692
 3700ETHY    C1 3679  17.046  17.074   5.176
 3701ETHY    C1 3680  17.209  17.107   4.656
 3702AUSL   AUS 3681  16.601  17.885   6.826
 3703AUSL   AUS 3682  16.274  17.582   6.826
 3704AUL    AUL 3683  16.437  17.734   6.518
 3705THSLK    S 3684  16.178  17.530   6.586
 3706ETHY    C1 3685  16.039  17.315   6.206
 3707ETHY    C1 3686  15.882  17.144   5.717
 3708ETHY    C1 3687  15.743  17.078   5.199
 3709ETHY    C1 3688  15.627  17.109   4.666
 3710THSLK    S 3689  16.703  17.846   6.572
 3711ETHY    C1 3690  16.840  17.769   6.142
 3712ETHY    C1 3691  16.993  17.769   5.622
 3713ETHY    C1 3692  17.131  17.878   5.112
 3714ETHY    C1 3693  17.254  18.085   4.621
 3715AUSL   AUS 3694  16.028  17.734   8.080
 3716AUSL   AUS 3695  16.173  18.150   8.011
 3717AUL    AUL 3696  15.946  18.037   8.294
 3718THSLK    S 3697  15.924  17.687   8.325
 3719ETHY    C1 3698  15.698  17.537   8.691
 3720ETHY    C1 3699  15.418  17.449   9.148
 3721ETHY    C1 3700  15.135  17.471   9.607
 3722ETHY    C1 3701  14.852  17.593  10.058
 3723THSLK    S 3702  16.050  18.283   8.201
 3724ETHY    C1 3703  15.954  18.478   8.604
 3725ETHY    C1 3704  15.781  18.759   9.034
 3726ETHY    C1 3705  15.538  19.085   9.390
 3727ETHY    C1 3706  15.237  19.444   9.671
 3728AUSL   AUS 3707  16.274  17.582   8.173
 3729AUSL   AUS 3708  15.927  17.469   7.916
 3730AUL    AUL 3709  15.946  17.430   8.294
 3731THSLK    S 3710  15.748  17.303   8.032
 3732ETHY    C1 3711  15.387  17.056   8.166
 3733ETHY    C1 3712  14.982  16.790   8.410
 3734ETHY    C1 3713  14.621  16.570   8.745
 3735ETHY    C1 3714  14.305  16.397   9.156
 3736THSLK    S 3715  16.172  17.532   8.413
 3737ETHY    C1 3716  16.034  17.317   8.793
 3738ETHY    C1 3717  15.881  17.144   9.284
 3739ETHY    C1 3718  15.744  17.078   9.800
 3740ETHY    C1 3719  15.620  17.110  10.332
 3741AUSL   AUS 3720  16.028  17.734   6.920
 3742AUSL   AUS 3721  16.173  17.317   6.990
 3743AUL    AUL 3722  15.946  17.430   6.706
 3744THSLK    S 3723  15.929  17.687   6.673
 3745ETHY    C1 3724  15.702  17.537   6.305
 3746ETHY    C1 3725  15.419  17.449   5.851
 3747ETHY    C1 3726  15.135  17.471   5.393
 3748ETHY    C1 3727  14.858  17.593   4.938
 3749THSLK    S 3728  15.999  17.142   6.865
 3750ETHY    C1 3729  15.727  16.829   6.673
 3751ETHY    C1 3730  15.446  16.481   6.367
 3752ETHY    C1 3731  15.229  16.173   5.980
 3753ETHY    C1 3732  15.077  15.906   5.528
 3754AUSL   AUS 3733  16.274  17.885   6.826
 3755AUSL   AUS 3734  15.927  17.998   7.083
 3756AUL    AUL 3735  15.946  18.037   6.706
 3757THSLK    S 3736  15.791  18.129   6.893
 3758ETHY    C1 3737  15.557  18.250   6.518
 3759ETHY    C1 3738  15.225  18.438   6.132
 3760ETHY    C1 3739  14.845  18.677   5.833
 3761ETHY    C1 3740  14.428  18.957   5.618
 3762THSLK    S 3741  16.193  17.847   6.566
 3763ETHY    C1 3742  16.103  17.772   6.124
 3764ETHY    C1 3743  15.975  17.773   5.597
 3765ETHY    C1 3744  15.829  17.882   5.089
 3766ETHY    C1 3745  15.672  18.088   4.608
 3767AUSL   AUS 3746  17.017  18.143   7.500
 3768AUSL   AUS 3747  16.947  17.998   7.083
 3769AUL    AUL 3748  17.231  18.224   7.196
 3770THSLK    S 3749  17.127  18.105   6.925
 3771ETHY    C1 3750  17.488  18.155   6.648
 3772ETHY    C1 3751  17.892  18.303   6.319
 3773ETHY    C1 3752  18.254  18.552   6.005
 3774ETHY    C1 3753  18.570  18.889   5.713
 3775THSLK    S 3754  17.287  18.204   7.503
 3776ETHY    C1 3755  17.734  18.304   7.502
 3777ETHY    C1 3756  18.236  18.510   7.500
 3778ETHY    C1 3757  18.683  18.812   7.500
 3779ETHY    C1 3758  19.071  19.196   7.503
 3780AUSL   AUS 3759  17.111  17.897   7.348
 3781AUSL   AUS 3760  17.111  17.570   7.651
 3782AUL    AUL 3761  17.419  17.734   7.500
 3783THSLK    S 3762  17.373  17.944   7.345
 3784ETHY    C1 3763  17.823  17.913   7.270
 3785ETHY    C1 3764  18.355  17.968   7.179
 3786ETHY    C1 3765  18.862  18.131   7.091
 3787ETHY    C1 3766  19.337  18.389   7.011
 3788THSLK    S 3767  17.348  17.433   7.659
 3789ETHY    C1 3768  17.719  17.175   7.726
 3790ETHY    C1 3769  18.205  16.949   7.808
 3791ETHY    C1 3770  18.724  16.829   7.896
 3792ETHY    C1 3771  19.262  16.807   7.989
 3793AUSL   AUS 3772  17.111  17.897   7.651
 3794AUSL   AUS 3773  16.854  18.244   7.764
 3795AUL    AUL 3774  17.231  18.224   7.803
 3796THSLK    S 3775  17.039  18.368   7.924
 3797ETHY    C1 3776  17.396  18.560   8.136
 3798ETHY    C1 3777  17.773  18.867   8.377
 3799ETHY    C1 3778  18.074  19.254   8.602
 3800ETHY    C1 3779  18.301  19.705   8.809
 3801THSLK    S 3780  17.372  17.943   7.661
 3802ETHY    C1 3781  17.823  17.913   7.734
 3803ETHY    C1 3782  18.356  17.968   7.821
 3804ETHY    C1 3783  18.862  18.131   7.908
 3805ETHY    C1 3784  19.336  18.389   7.995
 3806AUSL   AUS 3785  15.857  18.143   7.500
 3807AUSL   AUS 3786  15.927  17.998   7.916
 3808AUL    AUL 3787  15.643  18.224   7.803
 3809THSLK    S 3788  15.787  18.124   8.107
 3810ETHY    C1 3789  15.554  18.245   8.482
 3811ETHY    C1 3790  15.225  18.438   8.868
 3812ETHY    C1 3791  14.845  18.677   9.166
 3813ETHY    C1 3792  14.424  18.952   9.381
 3814THSLK    S 3793  15.636  18.283   7.503
 3815ETHY    C1 3794  15.347  18.638   7.502
 3816ETHY    C1 3795  14.939  18.995   7.500
 3817ETHY    C1 3796  14.469  19.259   7.500
 3818ETHY    C1 3797  13.951  19.435   7.503
 3819AUSL   AUS 3798  15.764  17.897   7.348
 3820AUSL   AUS 3799  16.021  18.244   7.236
 3821AUL    AUL 3800  15.643  18.224   7.196
 3822THSLK    S 3801  15.527  18.011   7.303
 3823ETHY    C1 3802  15.155  18.185   7.101
 3824ETHY    C1 3803  14.669  18.361   6.936
 3825ETHY    C1 3804  14.151  18.493   6.868
 3826ETHY    C1 3805  13.613  18.585   6.890
 3827THSLK    S 3806  15.901  18.411   7.056
 3828ETHY    C1 3807  15.749  18.730   6.765
 3829ETHY    C1 3808  15.495  19.110   6.473
 3830ETHY    C1 3809  15.162  19.478   6.260
 3831ETHY    C1 3810  14.766  19.828   6.122
 3832AUSL   AUS 3811  15.764  17.897   7.651
 3833AUSL   AUS 3812  15.764  17.570   7.348
 3834AUL    AUL 3813  15.456  17.734   7.500
 3835THSLK    S 3814  15.502  17.495   7.384
 3836ETHY    C1 3815  15.052  17.444   7.446
 3837ETHY    C1 3816  14.519  17.341   7.434
 3838ETHY    C1 3817  14.012  17.191   7.327
 3839ETHY    C1 3818  13.539  16.998   7.135
 3840THSLK    S 3819  15.526  18.005   7.699
 3841ETHY    C1 3820  15.155  18.181   7.901
 3842ETHY    C1 3821  14.669  18.360   8.063
 3843ETHY    C1 3822  14.151  18.493   8.133
 3844ETHY    C1 3823  13.612  18.579   8.114
 3845AUSL   AUS 3824  17.017  17.324   7.500
 3846AUSL   AUS 3825  16.947  17.469   7.916
 3847AUL    AUL 3826  17.231  17.243   7.803
 3848THSLK    S 3827  17.238  17.184   7.503
 3849ETHY    C1 3828  17.527  16.829   7.502
 3850ETHY    C1 3829  17.936  16.472   7.500
 3851ETHY    C1 3830  18.406  16.208   7.500
 3852ETHY    C1 3831  18.923  16.032   7.503
 3853THSLK    S 3832  17.084  17.279   8.066
 3854ETHY    C1 3833  17.317  16.962   8.297
 3855ETHY    C1 3834  17.650  16.655   8.598
 3856ETHY    C1 3835  18.030  16.445   8.918
 3857ETHY    C1 3836  18.447  16.329   9.250
 3858AUSL   AUS 3837  17.111  17.570   7.348
 3859AUSL   AUS 3838  16.854  17.223   7.236
 3860AUL    AUL 3839  17.231  17.243   7.196
 3861THSLK    S 3840  17.349  17.433   7.346
 3862ETHY    C1 3841  17.720  17.175   7.279
 3863ETHY    C1 3842  18.205  16.949   7.192
 3864ETHY    C1 3843  18.724  16.829   7.103
 3865ETHY    C1 3844  19.263  16.807   7.018
 3866THSLK    S 3845  16.977  17.032   7.099
 3867ETHY    C1 3846  17.127  16.630   6.942
 3868ETHY    C1 3847  17.380  16.200   6.728
 3869ETHY    C1 3848  17.712  15.844   6.495
 3870ETHY    C1 3849  18.111  15.563   6.249
 3871AUSL   AUS 3850  15.857  17.324   7.500
 3872AUSL   AUS 3851  15.927  17.469   7.083
 3873AUL    AUL 3852  15.643  17.243   7.196
 3874THSLK    S 3853  15.752  17.298   6.966
 3875ETHY    C1 3854  15.390  17.052   6.833
 3876ETHY    C1 3855  14.982  16.789   6.589
 3877ETHY    C1 3856  14.621  16.570   6.255
 3878ETHY    C1 3857  14.309  16.392   5.843
 3879THSLK    S 3858  15.587  17.263   7.503
 3880ETHY    C1 3859  15.141  17.163   7.502
 3881ETHY    C1 3860  14.639  16.957   7.500
 3882ETHY    C1 3861  14.192  16.655   7.500
 3883ETHY    C1 3862  13.804  16.271   7.503
 3884AUSL   AUS 3863  15.764  17.570   7.651
 3885AUSL   AUS 3864  16.021  17.223   7.764
 3886AUL    AUL 3865  15.643  17.243   7.803
 3887THSLK    S 3866  15.833  17.075   7.881
 3888ETHY    C1 3867  15.477  16.799   7.958
 3889ETHY    C1 3868  15.102  16.442   8.122
 3890ETHY    C1 3869  14.801  16.068   8.367
 3891ETHY    C1 3870  14.570  15.686   8.682
 3892THSLK    S 3871  15.501  17.500   7.618
 3893ETHY    C1 3872  15.051  17.448   7.557
 3894ETHY    C1 3873  14.519  17.342   7.566
 3895ETHY    C1 3874  14.012  17.191   7.673
 3896ETHY    C1 3875  13.538  17.003   7.867
 3897AUSL   AUS 3876  16.437  18.314   7.909
 3898AUSL   AUS 3877  16.021  18.244   7.764
 3899AUL    AUL 3878  16.134  18.528   7.991
 3900THSLK    S 3879  15.898  18.406   7.948
 3901ETHY    C1 3880  15.747  18.726   8.237
 3902ETHY    C1 3881  15.494  19.109   8.527
 3903ETHY    C1 3882  15.162  19.477   8.740
 3904ETHY    C1 3883  14.763  19.823   8.881
 3905THSLK    S 3884  16.475  18.545   8.034
 3906ETHY    C1 3885  16.603  18.871   8.327
 3907ETHY    C1 3886  16.680  19.303   8.646
 3908ETHY    C1 3887  16.661  19.768   8.920
 3909ETHY    C1 3888  16.555  20.253   9.147
 3910AUSL   AUS 3889  16.286  18.407   7.663
 3911AUSL   AUS 3890  16.589  18.407   7.336
 3912AUL    AUL 3891  16.437  18.715   7.500
 3913THSLK    S 3892  16.323  18.659   7.772
 3914ETHY    C1 3893  16.396  19.083   7.929
 3915ETHY    C1 3894  16.393  19.599   8.095
 3916ETHY    C1 3895  16.285  20.110   8.229
 3917ETHY    C1 3896  16.081  20.606   8.336
 3918THSLK    S 3897  16.640  18.647   7.237
 3919ETHY    C1 3898  16.853  19.024   7.091
 3920ETHY    C1 3899  17.023  19.513   6.929
 3921ETHY    C1 3900  17.090  20.031   6.792
 3922ETHY    C1 3901  17.061  20.565   6.682
 3923AUSL   AUS 3902  16.589  18.407   7.663
 3924AUSL   AUS 3903  16.702  18.150   8.011
 3925AUL    AUL 3904  16.741  18.528   7.991
 3926THSLK    S 3905  16.875  18.267   8.184
 3927ETHY    C1 3906  17.148  18.408   8.522
 3928ETHY    C1 3907  17.429  18.657   8.915
 3929ETHY    C1 3908  17.645  18.990   9.279
 3930ETHY    C1 3909  17.797  19.395   9.614
 3931THSLK    S 3910  16.639  18.645   7.768
 3932ETHY    C1 3911  16.852  19.024   7.913
 3933ETHY    C1 3912  17.023  19.513   8.072
 3934ETHY    C1 3913  17.090  20.031   8.207
 3935ETHY    C1 3914  17.059  20.564   8.325
 3936AUSL   AUS 3915  16.437  17.153   7.909
 3937AUSL   AUS 3916  16.854  17.223   7.764
 3938AUL    AUL 3917  16.741  16.939   7.991
 3939THSLK    S 3918  16.396  16.896   7.992
 3940ETHY    C1 3919  16.269  16.487   8.152
 3941ETHY    C1 3920  16.195  16.006   8.391
 3942ETHY    C1 3921  16.214  15.554   8.684
 3943ETHY    C1 3922  16.316  15.136   9.021
 3944THSLK    S 3923  16.974  17.033   7.907
 3945ETHY    C1 3924  17.125  16.631   8.062
 3946ETHY    C1 3925  17.380  16.200   8.272
 3947ETHY    C1 3926  17.712  15.844   8.505
 3948ETHY    C1 3927  18.108  15.565   8.758
 3949AUSL   AUS 3928  16.286  17.060   7.663
 3950AUSL   AUS 3929  16.173  17.317   8.011
 3951AUL    AUL 3930  16.134  16.939   7.991
 3952THSLK    S 3931  16.235  16.815   7.744
 3953ETHY    C1 3932  16.022  16.416   7.812
 3954ETHY    C1 3933  15.851  15.913   7.925
 3955ETHY    C1 3934  15.785  15.399   8.072
 3956ETHY    C1 3935  15.814  14.884   8.252
 3957THSLK    S 3936  15.995  17.147   8.136
 3958ETHY    C1 3937  15.723  16.832   8.327
 3959ETHY    C1 3938  15.445  16.481   8.633
 3960ETHY    C1 3939  15.229  16.173   9.019
 3961ETHY    C1 3940  15.073  15.911   9.473
 3962AUSL   AUS 3941  16.589  17.060   7.663
 3963AUSL   AUS 3942  16.286  17.060   7.336
 3964AUL    AUL 3943  16.437  16.752   7.500
 3965THSLK    S 3944  16.236  16.813   7.261
 3966ETHY    C1 3945  16.023  16.415   7.192
 3967ETHY    C1 3946  15.851  15.913   7.076
 3968ETHY    C1 3947  15.785  15.399   6.927
 3969ETHY    C1 3948  15.816  14.882   6.754
 3970THSLK    S 3949  16.550  16.801   7.748
 3971ETHY    C1 3950  16.478  16.356   7.829
 3972ETHY    C1 3951  16.481  15.827   7.948
 3973ETHY    C1 3952  16.590  15.319   8.095
 3974ETHY    C1 3953  16.792  14.841   8.264
 3975AUSL   AUS 3954  16.437  18.314   7.091
 3976AUSL   AUS 3955  16.854  18.244   7.236
 3977AUL    AUL 3956  16.741  18.528   7.009
 3978THSLK    S 3957  16.479  18.548   6.971
 3979ETHY    C1 3958  16.606  18.873   6.676
 3980ETHY    C1 3959  16.680  19.303   6.353
 3981ETHY    C1 3960  16.661  19.768   6.080
 3982ETHY    C1 3961  16.558  20.256   5.857
 3983THSLK    S 3962  17.041  18.369   7.081
 3984ETHY    C1 3963  17.398  18.561   6.869
 3985ETHY    C1 3964  17.773  18.867   6.623
 3986ETHY    C1 3965  18.074  19.254   6.398
 3987ETHY    C1 3966  18.304  19.706   6.197
 3988AUSL   AUS 3967  16.286  18.407   7.336
 3989AUSL   AUS 3968  16.173  18.150   6.990
 3990AUL    AUL 3969  16.134  18.528   7.009
 3991THSLK    S 3970  16.325  18.661   7.233
 3992ETHY    C1 3971  16.397  19.084   7.074
 3993ETHY    C1 3972  16.394  19.600   6.906
 3994ETHY    C1 3973  16.285  20.110   6.770
 3995ETHY    C1 3974  16.083  20.608   6.670
 3996THSLK    S 3975  16.054  18.287   6.800
 3997ETHY    C1 3976  15.958  18.481   6.396
 3998ETHY    C1 3977  15.781  18.759   5.966
 3999ETHY    C1 3978  15.538  19.084   5.611
 4000ETHY    C1 3979  15.242  19.449   5.330
 4001AUSL   AUS 3980  16.437  17.153   7.091
 4002AUSL   AUS 3981  16.021  17.223   7.236
 4003AUL    AUL 3982  16.134  16.939   7.009
 4004THSLK    S 3983  15.836  17.070   7.122
 4005ETHY    C1 3984  15.479  16.796   7.044
 4006ETHY    C1 3985  15.102  16.442   6.878
 4007ETHY    C1 3986  14.800  16.068   6.633
 4008ETHY    C1 3987  14.573  15.681   6.321
 4009THSLK    S 3988  16.399  16.893   7.013
 4010ETHY    C1 3989  16.271  16.485   6.852
 4011ETHY    C1 3990  16.195  16.006   6.609
 4012ETHY    C1 3991  16.214  15.554   6.315
 4013ETHY    C1 3992  16.320  15.133   5.983
 4014AUSL   AUS 3993  16.589  17.060   7.336
 4015AUSL   AUS 3994  16.702  17.317   6.990
 4016AUL    AUL 3995  16.741  16.939   7.009
 4017THSLK    S 3996  16.552  16.800   7.258
 4018ETHY    C1 3997  16.479  16.355   7.175
 4019ETHY    C1 3998  16.481  15.827   7.052
 4020ETHY    C1 3999  16.589  15.319   6.905
 4021ETHY    C1 4000  16.794  14.840   6.742
 4022THSLK    S 4001  16.825  17.127   6.847
 4023ETHY    C1 4002  16.920  16.759   6.592
 4024ETHY    C1 4003  17.094  16.378   6.247
 4025ETHY    C1 4004  17.336  16.078   5.870
 4026ETHY    C1 4005  17.637  15.857   5.471
 4027AUC    AUC 4006  37.445   7.768   7.500
 4028AUC    AUC 4007  37.691   7.768   7.348
 4029AUC    AUC 4008  37.691   7.768   7.651
 4030AUC    AUC 4009  37.200   7.768   7.348
 4031AUC    AUC 4010  37.200   7.768   7.651
 4032AUC    AUC 4011  37.294   8.013   7.500
 4033AUC    AUC 4012  37.597   8.013   7.500
 4034AUC    AUC 4013  37.294   7.522   7.500
 4035AUC    AUC 4014  37.597   7.522   7.500
 4036AUC    AUC 4015  37.445   7.616   7.745
 4037AUC    AUC 4016  37.445   7.919   7.745
 4038AUC    AUC 4017  37.445   7.616   7.254
 4039AUC    AUC 4018  37.445   7.919   7.254
 4040AUC    AUC 4019  37.936   7.768   7.196
 4041AUC    AUC 4020  37.936   7.768   7.500
 4042AUC    AUC 4021  37.936   7.768   7.803
 4043AUC    AUC 4022  36.954   7.768   7.196
 4044AUC    AUC 4023  36.954   7.768   7.500
 4045AUC    AUC 4024  36.954   7.768   7.803
 4046AUC    AUC 4025  37.142   8.258   7.500
 4047AUC    AUC 4026  37.445   8.258   7.500
 4048AUC    AUC 4027  37.749   8.258   7.500
 4049AUC    AUC 4028  37.142   7.277   7.500
 4050AUC    AUC 4029  37.445   7.277   7.500
 4051AUC    AUC 4030  37.749   7.277   7.500
 4052AUC    AUC 4031  37.445   7.464   7.991
 4053AUC    AUC 4032  37.445   7.768   7.991
 4054AUC    AUC 4033  37.445   8.071   7.991
 4055AUC    AUC 4034  37.445   7.464   7.009
 4056AUC    AUC 4035  37.445   7.768   7.009
 4057AUC    AUC 4036  37.445   8.071   7.009
 4058AUC    AUC 4037  37.691   7.616   7.897
 4059AUC    AUC 4038  37.691   7.919   7.897
 4060AUC    AUC 4039  37.691   7.616   7.103
 4061AUC    AUC 4040  37.691   7.919   7.103
 4062AUC    AUC 4041  37.200   7.616   7.897
 4063AUC    AUC 4042  37.200   7.919   7.897
 4064AUC    AUC 4043  37.200   7.616   7.103
 4065AUC    AUC 4044  37.200   7.919   7.103
 4066AUC    AUC 4045  37.842   8.013   7.348
 4067AUC    AUC 4046  37.842   8.013   7.651
 4068AUC    AUC 4047  37.048   8.013   7.348
 4069AUC    AUC 4048  37.048   8.013   7.651
 4070AUC    AUC 4049  37.842   7.522   7.348
 4071AUC    AUC 4050  37.842   7.522   7.651
 4072AUC    AUC 4051  37.048   7.522   7.348
 4073AUC    AUC 4052  37.048   7.522   7.651
 4074AUC    AUC 4053  37.294   8.165   7.745
 4075AUC    AUC 4054  37.597   8.165   7.745
 4076AUC    AUC 4055  37.294   7.370   7.745
 4077AUC    AUC 4056  37.597   7.370   7.745
 4078AUC    AUC 4057  37.294   8.165   7.254
 4079AUC    AUC 4058  37.597   8.165   7.254
 4080AUC    AUC 4059  37.294   7.370   7.254
 4081AUC    AUC 4060  37.597   7.370   7.254
 4082AUSL   AUS 4061  37.854   7.768   8.080
 4083AUSL   AUS 4062  37.710   7.351   8.011
 4084AUL    AUL 4063  37.936   7.464   8.294
 4085THSLK    S 4064  37.828   7.163   8.156
 4086ETHY    C1 4065  37.924   6.795   8.412
 4087ETHY    C1 4066  38.102   6.412   8.753
 4088ETHY    C1 4067  38.344   6.112   9.130
 4089ETHY    C1 4068  38.640   5.893   9.534
 4090THSLK    S 4069  37.953   7.721   8.327
 4091ETHY    C1 4070  38.180   7.571   8.694
 4092ETHY    C1 4071  38.464   7.483   9.148
 4093ETHY    C1 4072  38.748   7.505   9.607
 4094ETHY    C1 4073  39.025   7.627  10.061
 4095AUSL   AUS 4074  37.609   7.616   8.173
 4096AUSL   AUS 4075  37.282   7.919   8.173
 4097AUL    AUL 4076  37.445   7.768   8.482
 4098THSLK    S 4077  37.690   7.565   8.418
 4099ETHY    C1 4078  37.780   7.347   8.810
 4100ETHY    C1 4079  37.908   7.173   9.308
 4101ETHY    C1 4080  38.054   7.108   9.823
 4102ETHY    C1 4081  38.211   7.142  10.346
 4103THSLK    S 4082  37.195   7.879   8.432
 4104ETHY    C1 4083  37.106   7.805   8.874
 4105ETHY    C1 4084  36.982   7.807   9.403
 4106ETHY    C1 4085  36.837   7.916   9.912
 4107ETHY    C1 4086  36.674   8.120  10.392
 4108AUSL   AUS 4087  37.609   7.919   8.173
 4109AUSL   AUS 4088  37.955   8.032   7.916
 4110AUL    AUL 4089  37.936   8.071   8.294
 4111THSLK    S 4090  37.696   7.971   8.416
 4112ETHY    C1 4091  37.784   8.188   8.809
 4113ETHY    C1 4092  37.909   8.361   9.308
 4114ETHY    C1 4093  38.054   8.427   9.823
 4115ETHY    C1 4094  38.217   8.394  10.345
 4116THSLK    S 4095  38.131   8.138   8.079
 4117ETHY    C1 4096  38.493   8.188   8.355
 4118ETHY    C1 4097  38.900   8.337   8.681
 4119ETHY    C1 4098  39.262   8.586   8.995
 4120ETHY    C1 4099  39.574   8.922   9.293
 4121AUSL   AUS 4100  37.854   7.768   6.920
 4122AUSL   AUS 4101  37.710   8.184   6.990
 4123AUL    AUL 4102  37.936   8.071   6.706
 4124THSLK    S 4103  37.958   7.721   6.676
 4125ETHY    C1 4104  38.185   7.571   6.308
 4126ETHY    C1 4105  38.464   7.483   5.851
 4127ETHY    C1 4106  38.748   7.505   5.393
 4128ETHY    C1 4107  39.030   7.627   4.941
 4129THSLK    S 4108  37.887   8.303   6.820
 4130ETHY    C1 4109  38.159   8.444   6.480
 4131ETHY    C1 4110  38.437   8.691   6.085
 4132ETHY    C1 4111  38.653   9.024   5.720
 4133ETHY    C1 4112  38.810   9.431   5.391
 4134AUSL   AUS 4113  37.609   7.616   6.826
 4135AUSL   AUS 4114  37.955   7.503   7.083
 4136AUL    AUL 4115  37.936   7.464   6.706
 4137THSLK    S 4116  38.095   7.312   6.939
 4138ETHY    C1 4117  38.328   6.995   6.707
 4139ETHY    C1 4118  38.658   6.688   6.403
 4140ETHY    C1 4119  39.038   6.479   6.083
 4141ETHY    C1 4120  39.459   6.362   5.754
 4142THSLK    S 4121  37.696   7.564   6.583
 4143ETHY    C1 4122  37.784   7.347   6.191
 4144ETHY    C1 4123  37.909   7.174   5.692
 4145ETHY    C1 4124  38.054   7.108   5.176
 4146ETHY    C1 4125  38.217   7.141   4.656
 4147AUSL   AUS 4126  37.609   7.919   6.826
 4148AUSL   AUS 4127  37.282   7.616   6.826
 4149AUL    AUL 4128  37.445   7.768   6.518
 4150THSLK    S 4129  37.186   7.564   6.586
 4151ETHY    C1 4130  37.047   7.349   6.206
 4152ETHY    C1 4131  36.890   7.178   5.717
 4153ETHY    C1 4132  36.751   7.112   5.199
 4154ETHY    C1 4133  36.635   7.143   4.666
 4155THSLK    S 4134  37.711   7.880   6.572
 4156ETHY    C1 4135  37.848   7.803   6.142
 4157ETHY    C1 4136  38.001   7.803   5.622
 4158ETHY    C1 4137  38.139   7.912   5.112
 4159ETHY    C1 4138  38.262   8.119   4.621
 4160AUSL   AUS 4139  37.036   7.768   8.080
 4161AUSL   AUS 4140  37.181   8.184   8.011
 4162AUL    AUL 4141  36.954   8.071   8.294
 4163THSLK    S 4142  36.932   7.721   8.325
 4164ETHY    C1 4143  36.706   7.571   8.691
 4165ETHY    C1 4144  36.426   7.483   9.148
 4166ETHY    C1 4145  36.143   7.505   9.607
 4167ETHY    C1 4146  35.860   7.627  10.058
 4168THSLK    S 4147  37.058   8.317   8.201
 4169ETHY    C1 4148  36.962   8.512   8.604
 4170ETHY    C1 4149  36.789   8.793   9.034
 4171ETHY    C1 4150  36.546   9.119   9.390
 4172ETHY    C1 4151  36.245   9.478   9.671
 4173AUSL   AUS 4152  37.282   7.616   8.173
 4174AUSL   AUS 4153  36.935   7.503   7.916
 4175AUL    AUL 4154  36.954   7.464   8.294
 4176THSLK    S 4155  36.756   7.337   8.032
 4177ETHY    C1 4156  36.395   7.090   8.166
 4178ETHY    C1 4157  35.990   6.824   8.410
 4179ETHY    C1 4158  35.629   6.604   8.745
 4180ETHY    C1 4159  35.313   6.431   9.156
 4181THSLK    S 4160  37.180   7.566   8.413
 4182ETHY    C1 4161  37.042   7.351   8.793
 4183ETHY    C1 4162  36.889   7.178   9.284
 4184ETHY    C1 4163  36.752   7.112   9.800
 4185ETHY    C1 4164  36.628   7.144  10.332
 4186AUSL   AUS 4165  37.036   7.768   6.920
 4187AUSL   AUS 4166  37.181   7.351   6.990
 4188AUL    AUL 4167  36.954   7.464   6.706
 4189THSLK    S 4168  36.937   7.721   6.673
 4190ETHY    C1 4169  36.710   7.571   6.305
 4191ETHY    C1 4170  36.427   7.483   5.851
 4192ETHY    C1 4171  36.143   7.505   5.393
 4193ETHY    C1 4172  35.866   7.627   4.938
 4194THSLK    S 4173  37.007   7.176   6.865
 4195ETHY    C1 4174  36.735   6.863   6.673
 4196ETHY    C1 4175  36.454   6.515   6.367
 4197ETHY    C1 4176  36.237   6.207   5.980
 4198ETHY    C1 4177  36.085   5.940   5.528
 4199AUSL   AUS 4178  37.282   7.919   6.826
 4200AUSL   AUS 4179  36.935   8.032   7.083
 4201AUL    AUL 4180  36.954   8.071   6.706
 4202THSLK    S 4181  36.799   8.163   6.893
 4203ETHY    C1 4182  36.565   8.284   6.518
 4204ETHY    C1 4183  36.233   8.472   6.132
 4205ETHY    C1 4184  35.853   8.711   5.833
 4206ETHY    C1 4185  35.436   8.991   5.618
 4207THSLK    S 4186  37.201   7.881   6.566
 4208ETHY    C1 4187  37.111   7.806   6.124
 4209ETHY    C1 4188  36.983   7.807   5.597
 4210ETHY    C1 4189  36.837   7.916   5.089
 4211ETHY    C1 4190  36.680   8.122   4.608
 4212AUSL   AUS 4191  38.025   8.177   7.500
 4213AUSL   AUS 4192  37.955   8.032   7.083
 4214AUL    AUL 4193  38.239   8.258   7.196
 4215THSLK    S 4194  38.135   8.139   6.925
 4216ETHY    C1 4195  38.496   8.189   6.648
 4217ETHY    C1 4196  38.900   8.337   6.319
 4218ETHY    C1 4197  39.262   8.586   6.005
 4219ETHY    C1 4198  39.578   8.923   5.713
 4220THSLK    S 4199  38.295   8.238   7.503
 4221ETHY    C1 4200  38.742   8.338   7.502
 4222ETHY    C1 4201  39.244   8.544   7.500
 4223ETHY    C1 4202  39.691   8.846   7.500
 4224ETHY    C1 4203  40.079   9.230   7.503
 4225AUSL   AUS 4204  38.119   7.931   7.348
 4226AUSL   AUS 4205  38.119   7.604   7.651
 4227AUL    AUL 4206  38.427   7.768   7.500
 4228THSLK    S 4207  38.381   7.978   7.345
 4229ETHY    C1 4208  38.831   7.947   7.270
 4230ETHY    C1 4209  39.363   8.002   7.179
 4231ETHY    C1 4210  39.870   8.165   7.091
 4232ETHY    C1 4211  40.345   8.423   7.011
 4233THSLK    S 4212  38.356   7.467   7.659
 4234ETHY    C1 4213  38.727   7.209   7.726
 4235ETHY    C1 4214  39.213   6.983   7.808
 4236ETHY    C1 4215  39.732   6.863   7.896
 4237ETHY    C1 4216  40.270   6.841   7.989
 4238AUSL   AUS 4217  38.119   7.931   7.651
 4239AUSL   AUS 4218  37.862   8.278   7.764
 4240AUL    AUL 4219  38.239   8.258   7.803
 4241THSLK    S 4220  38.047   8.402   7.924
 4242ETHY    C1 4221  38.404   8.594   8.136
 4243ETHY    C1 4222  38.781   8.901   8.377
 4244ETHY    C1 4223  39.082   9.288   8.602
 4245ETHY    C1 4224  39.309   9.739   8.809
 4246THSLK    S 4225  38.380   7.977   7.661
 4247ETHY    C1 4226  38.831   7.947   7.734
 4248ETHY    C1 4227  39.364   8.002   7.821
 4249ETHY    C1 4228  39.870   8.165   7.908
 4250ETHY    C1 4229  40.344   8.423   7.995
 4251AUSL   AUS 4230  36.865   8.177   7.500
 4252AUSL   AUS 4231  36.935   8.032   7.916
 4253AUL    AUL 4232  36.651   8.258   7.803
 4254THSLK    S 4233  36.795   8.158   8.107
 4255ETHY    C1 4234  36.562   8.279   8.482
 4256ETHY    C1 4235  36.233   8.472   8.868
 4257ETHY    C1 4236  35.853   8.711   9.166
 4258ETHY    C1 4237  35.432   8.986   9.381
 4259THSLK    S 4238  36.644   8.317   7.503
 4260ETHY    C1 4239  36.355   8.672   7.502
 4261ETHY    C1 4240  35.947   9.029   7.500
 4262ETHY    C1 4241  35.477   9.293   7.500
 4263ETHY    C1 4242  34.959   9.469   7.503
 4264AUSL   AUS 4243  36.772   7.931   7.348
 4265AUSL   AUS 4244  37.029   8.278   7.236
 4266AUL    AUL 4245  36.651   8.258   7.196
 4267THSLK    S 4246  36.535   8.045   7.303
 4268ETHY    C1 4247  36.163   8.219   7.101
 4269ETHY    C1 4248  35.677   8.395   6.936
 4270ETHY    C1 4249  35.159   8.527   6.868
 4271ETHY    C1 4250  34.621   8.619   6.890
 4272THSLK    S 4251  36.909   8.445   7.056
 4273ETHY    C1 4252  36.757   8.764   6.765
 4274ETHY    C1 4253  36.503   9.144   6.473
 4275ETHY    C1 4254  36.170   9.512   6.260
 4276ETHY    C1 4255  35.774   9.862   6.122
 4277AUSL   AUS 4256  36.772   7.931   7.651
 4278AUSL   AUS 4257  36.772   7.604   7.348
 4279AUL    AUL 4258  36.464   7.768   7.500
 4280THSLK    S 4259  36.510   7.529   7.384
 4281ETHY    C1 4260  36.060   7.478   7.446
 4282ETHY    C1 4261  35.527   7.375   7.434
 4283ETHY    C1 4262  35.020   7.225   7.327
 4284ETHY    C1 4263  34.547   7.032   7.135
 4285THSLK    S 4264  36.534   8.039   7.699
 4286ETHY    C1 4265  36.163   8.215   7.901
 4287ETHY    C1 4266  35.677   8.394   8.063
 4288ETHY    C1 4267  35.159   8.527   8.133
 4289ETHY    C1 4268  34.620   8.613   8.114
 4290AUSL   AUS 4269  38.025   7.358   7.500
 4291AUSL   AUS 4270  37.955   7.503   7.916
 4292AUL    AUL 4271  38.239   7.277   7.803
 4293THSLK    S 4272  38.246   7.218   7.503
 4294ETHY    C1 4273  38.535   6.863   7.502
 4295ETHY    C1 4274  38.944   6.506   7.500
 4296ETHY    C1 4275  39.414   6.242   7.500
 4297ETHY    C1 4276  39.931   6.066   7.503
 4298THSLK    S 4277  38.092   7.313   8.066
 4299ETHY    C1 4278  38.325   6.996   8.297
 4300ETHY    C1 4279  38.658   6.689   8.598
 4301ETHY    C1 4280  39.038   6.479   8.918
 4302ETHY    C1 4281  39.455   6.363   9.250
 4303AUSL   AUS 4282  38.119   7.604   7.348
 4304AUSL   AUS 4283  37.862   7.257   7.236
 4305AUL    AUL 4284  38.239   7.277   7.196
 4306THSLK    S 4285  38.357   7.467   7.346
 4307ETHY    C1 4286  38.728   7.209   7.279
 4308ETHY    C1 4287  39.213   6.983   7.192
 4309ETHY    C1 4288  39.732   6.863   7.103
 4310ETHY    C1 4289  40.271   6.841   7.018
 4311THSLK    S 4290  37.985   7.066   7.099
 4312ETHY    C1 4291  38.135   6.664   6.942
 4313ETHY    C1 4292  38.388   6.234   6.728
 4314ETHY    C1 4293  38.720   5.878   6.495
 4315ETHY    C1 4294  39.119   5.597   6.249
 4316AUSL   AUS 4295  36.865   7.358   7.500
 4317AUSL   AUS 4296  36.935   7.503   7.083
 4318AUL    AUL 4297  36.651   7.277   7.196
 4319THSLK    S 4298  36.760   7.332   6.966
 4320ETHY    C1 4299  36.398   7.086   6.833
 4321ETHY    C1 4300  35.990   6.823   6.589
 4322ETHY    C1 4301  35.629   6.604   6.255
 4323ETHY    C1 4302  35.317   6.426   5.843
 4324THSLK    S 4303  36.595   7.297   7.503
 4325ETHY    C1 4304  36.149   7.197   7.502
 4326ETHY    C1 4305  35.647   6.991   7.500
 4327ETHY    C1 4306  35.200   6.689   7.500
 4328ETHY    C1 4307  34.812   6.305   7.503
 4329AUSL   AUS 4308  36.772   7.604   7.651
 4330AUSL   AUS 4309  37.029   7.257   7.764
 4331AUL    AUL 4310  36.651   7.277   7.803
 4332THSLK    S 4311  36.841   7.109   7.881
 4333ETHY    C1 4312  36.485   6.833   7.958
 4334ETHY    C1 4313  36.110   6.476   8.122
 4335ETHY    C1 4314  35.809   6.102   8.367
 4336ETHY    C1 4315  35.578   5.720   8.682
 4337THSLK    S 4316  36.509   7.534   7.618
 4338ETHY    C1 4317  36.059   7.482   7.557
 4339ETHY    C1 4318  35.527   7.376   7.566
 4340ETHY    C1 4319  35.020   7.225   7.673
 4341ETHY    C1 4320  34.546   7.037   7.867
 4342AUSL   AUS 4321  37.445   8.348   7.909
 4343AUSL   AUS 4322  37.029   8.278   7.764
 4344AUL    AUL 4323  37.142   8.562   7.991
 4345THSLK    S 4324  36.906   8.440   7.948
 4346ETHY    C1 4325  36.755   8.760   8.237
 4347ETHY    C1 4326  36.502   9.143   8.527
 4348ETHY    C1 4327  36.170   9.511   8.740
 4349ETHY    C1 4328  35.771   9.857   8.881
 4350THSLK    S 4329  37.483   8.579   8.034
 4351ETHY    C1 4330  37.611   8.905   8.327
 4352ETHY    C1 4331  37.688   9.337   8.646
 4353ETHY    C1 4332  37.669   9.802   8.920
 4354ETHY    C1 4333  37.563  10.287   9.147
 4355AUSL   AUS 4334  37.294   8.441   7.663
 4356AUSL   AUS 4335  37.597   8.441   7.336
 4357AUL    AUL 4336  37.445   8.749   7.500
 4358THSLK    S 4337  37.331   8.693   7.772
 4359ETHY    C1 4338  37.404   9.117   7.929
 4360ETHY    C1 4339  37.401   9.633   8.095
 4361ETHY    C1 4340  37.293  10.144   8.229
 4362ETHY    C1 4341  37.089  10.640   8.336
 4363THSLK    S 4342  37.648   8.681   7.237
 4364ETHY    C1 4343  37.861   9.058   7.091
 4365ETHY    C1 4344  38.031   9.547   6.929
 4366ETHY    C1 4345  38.098  10.065   6.792
 4367ETHY    C1 4346  38.069  10.599   6.682
 4368AUSL   AUS 4347  37.597   8.441   7.663
 4369AUSL   AUS 4348  37.710   8.184   8.011
 4370AUL    AUL 4349  37.749   8.562   7.991
 4371THSLK    S 4350  37.883   8.301   8.184
 4372ETHY    C1 4351  38.156   8.442   8.522
 4373ETHY    C1 4352  38.437   8.691   8.915
 4374ETHY    C1 4353  38.653   9.024   9.279
 4375ETHY    C1 4354  38.805   9.429   9.614
 4376THSLK    S 4355  37.647   8.679   7.768
 4377ETHY    C1 4356  37.860   9.058   7.913
 4378ETHY    C1 4357  38.031   9.547   8.072
 4379ETHY    C1 4358  38.098  10.065   8.207
 4380ETHY    C1 4359  38.067  10.598   8.325
 4381AUSL   AUS 4360  37.445   7.187   7.909
 4382AUSL   AUS 4361  37.862   7.257   7.764
 4383AUL    AUL 4362  37.749   6.973   7.991
 4384THSLK    S 4363  37.404   6.930   7.992
 4385ETHY    C1 4364  37.277   6.521   8.152
 4386ETHY    C1 4365  37.203   6.040   8.391
 4387ETHY    C1 4366  37.222   5.588   8.684
 4388ETHY    C1 4367  37.324   5.170   9.021
 4389THSLK    S 4368  37.982   7.067   7.907
 4390ETHY    C1 4369  38.133   6.665   8.062
 4391ETHY    C1 4370  38.388   6.234   8.272
 4392ETHY    C1 4371  38.720   5.878   8.505
 4393ETHY    C1 4372  39.116   5.599   8.758
 4394AUSL   AUS 4373  37.294   7.094   7.663
 4395AUSL   AUS 4374  37.181   7.351   8.011
 4396AUL    AUL 4375  37.142   6.973   7.991
 4397THSLK    S 4376  37.243   6.849   7.744
 4398ETHY    C1 4377  37.030   6.450   7.812
 4399ETHY    C1 4378  36.859   5.947   7.925
 4400ETHY    C1 4379  36.793   5.433   8.072
 4401ETHY    C1 4380  36.822   4.918   8.252
 4402THSLK    S 4381  37.003   7.181   8.136
 4403ETHY    C1 4382  36.731   6.866   8.327
 4404ETHY    C1 4383  36.453   6.515   8.633
 4405ETHY    C1 4384  36.237   6.207   9.019
 4406ETHY    C1 4385  36.081   5.945   9.473
 4407AUSL   AUS 4386  37.597   7.094   7.663
 4408AUSL   AUS 4387  37.294   7.094   7.336
 4409AUL    AUL 4388  37.445   6.786   7.500
 4410THSLK    S 4389  37.244   6.847   7.261
 4411ETHY    C1 4390  37.031   6.449   7.192
 4412ETHY    C1 4391  36.859   5.947   7.076
 4413ETHY    C1 4392  36.793   5.433   6.927
 4414ETHY    C1 4393  36.824   4.916   6.754
 4415THSLK    S 4394  37.558   6.835   7.748
 4416ETHY    C1 4395  37.486   6.390   7.829
 4417ETHY    C1 4396  37.489   5.861   7.948
 4418ETHY    C1 4397  37.598   5.353   8.095
 4419ETHY    C1 4398  37.800   4.875   8.264
 4420AUSL   AUS 4399  37.445   8.348   7.091
 4421AUSL   AUS 4400  37.862   8.278   7.236
 4422AUL    AUL 4401  37.749   8.562   7.009
 4423THSLK    S 4402  37.487   8.582   6.971
 4424ETHY    C1 4403  37.614   8.907   6.676
 4425ETHY    C1 4404  37.688   9.337   6.353
 4426ETHY    C1 4405  37.669   9.802   6.080
 4427ETHY    C1 4406  37.566  10.290   5.857
 4428THSLK    S 4407  38.049   8.403   7.081
 4429ETHY    C1 4408  38.406   8.595   6.869
 4430ETHY    C1 4409  38.781   8.901   6.623
 4431ETHY    C1 4410  39.082   9.288   6.398
 4432ETHY    C1 4411  39.312   9.740   6.197
 4433AUSL   AUS 4412  37.294   8.441   7.336
 4434AUSL   AUS 4413  37.181   8.184   6.990
 4435AUL    AUL 4414  37.142   8.562   7.009
 4436THSLK    S 4415  37.333   8.695   7.233
 4437ETHY    C1 4416  37.405   9.118   7.074
 4438ETHY    C1 4417  37.402   9.634   6.906
 4439ETHY    C1 4418  37.293  10.144   6.770
 4440ETHY    C1 4419  37.091  10.642   6.670
 4441THSLK    S 4420  37.062   8.321   6.800
 4442ETHY    C1 4421  36.966   8.515   6.396
 4443ETHY    C1 4422  36.789   8.793   5.966
 4444ETHY    C1 4423  36.546   9.118   5.611
 4445ETHY    C1 4424  36.250   9.483   5.330
 4446AUSL   AUS 4425  37.445   7.187   7.091
 4447AUSL   AUS 4426  37.029   7.257   7.236
 4448AUL    AUL 4427  37.142   6.973   7.009
 4449THSLK    S 4428  36.844   7.104   7.122
 4450ETHY    C1 4429  36.487   6.830   7.044
 4451ETHY    C1 4430  36.110   6.476   6.878
 4452ETHY    C1 4431  35.808   6.102   6.633
 4453ETHY    C1 4432  35.581   5.715   6.321
 4454THSLK    S 4433  37.407   6.927   7.013
 4455ETHY    C1 4434  37.279   6.519   6.852
 4456ETHY    C1 4435  37.203   6.040   6.609
 4457ETHY    C1 4436  37.222   5.588   6.315
 4458ETHY    C1 4437  37.328   5.167   5.983
 4459AUSL   AUS 4438  37.597   7.094   7.336
 4460AUSL   AUS 4439  37.710   7.351   6.990
 4461AUL    AUL 4440  37.749   6.973   7.009
 4462THSLK    S 4441  37.560   6.834   7.258
 4463ETHY    C1 4442  37.487   6.389   7.175
 4464ETHY    C1 4443  37.489   5.861   7.052
 4465ETHY    C1 4444  37.597   5.353   6.905
 4466ETHY    C1 4445  37.802   4.874   6.742
 4467THSLK    S 4446  37.833   7.161   6.847
 4468ETHY    C1 4447  37.928   6.793   6.592
 4469ETHY    C1 4448  38.102   6.412   6.247
 4470ETHY    C1 4449  38.344   6.112   5.870
 4471ETHY    C1 4450  38.645   5.891   5.471
 4472POPC   NC3 4451  25.250  16.726   9.450
 4472POPC   PO4 4452  25.218  16.726   9.150
 4472POPC   GL1 4453  25.296  16.745   8.850
 4472POPC   GL2 4454  25.205  16.568   8.850
 4472POPC   C1A 4455  25.277  16.718   8.550
 4472POPC   D2A 4456  25.304  16.758   8.250
 4472POPC   C3A 4457  25.263  16.721   7.950
 4472POPC   C4A 4458  25.244  16.708   7.650
 4472POPC   C1B 4459  25.219  16.511   8.550
 4472POPC   C2B 4460  25.260  16.489   8.250
 4472POPC   C3B 4461  25.270  16.498   7.950
 4472POPC   C4B 4462  25.233  16.470   7.650
 4473POPC   NC3 4463  36.943  17.549   9.450
 4473POPC   PO4 4464  36.892  17.499   9.150
 4473POPC   GL1 4465  36.952  17.496   8.850
 4473POPC   GL2 4466  36.908  17.674   8.850
 4473POPC   C1A 4467  36.882  17.542   8.550
 4473POPC   D2A 4468  36.899  17.472   8.250
 4473POPC   C3A 4469  36.941  17.481   7.950
 4473POPC   C4A 4470  36.912  17.519   7.650
 4473POPC   C1B 4471  36.834  17.698   8.550
 4473POPC   C2B 4472  36.838  17.726   8.250
 4473POPC   C3B 4473  36.792  17.754   7.950
 4473POPC   C4B 4474  36.849  17.727   7.650
 4474POPC   NC3 4475  33.827  42.384   9.450
 4474POPC   PO4 4476  33.769  42.304   9.150
 4474POPC   GL1 4477  33.769  42.326   8.850
 4474POPC   GL2 4478  33.964  42.305   8.850
 4474POPC   C1A 4479  33.792  42.314   8.550
 4474POPC   D2A 4480  33.774  42.296   8.250
 4474POPC   C3A 4481  33.802  42.319   7.950
 4474POPC   C4A 4482  33.806  42.335   7.650
 4474POPC   C1B 4483  34.002  42.328   8.550
 4474POPC   C2B 4484  34.077  42.369   8.250
 4474POPC   C3B 4485  34.037  42.366   7.950
 4474POPC   C4B 4486  34.080  42.347   7.650
 4475POPC   NC3 4487  43.897  36.145   9.450
 4475POPC   PO4 4488  43.846  36.107   9.150
 4475POPC   GL1 4489  43.931  36.103   8.850
 4475POPC   GL2 4490  43.882  36.217   8.850
 4475POPC   C1A 4491  43.881  36.164   8.550
 4475POPC   D2A 4492  43.933  36.136   8.250
 4475POPC   C3A 4493  43.855  36.097   7.950
 4475POPC   C4A 4494  43.840  36.172   7.650
 4475POPC   C1B 4495  43.899  36.403   8.550
 4475POPC   C2B 4496  43.949  36.379   8.250
 4475POPC   C3B 4497  43.899  36.414   7.950
 4475POPC   C4B 4498  43.934  36.336   7.650
 4476POPC   NC3 4499  39.983  16.740   9.450
 4476POPC   PO4 4500  40.050  16.712   9.150
 4476POPC   GL1 4501  39.992  16.747   8.850
 4476POPC   GL2 4502  40.094  16.800   8.850
 4476POPC   C1A 4503  40.030  16.759   8.550
 4476POPC   D2A 4504  39.961  16.736   8.250
 4476POPC   C3A 4505  39.966  16.756   7.950
 4476POPC   C4A 4506  39.966  16.705   7.650
 4476POPC   C1B 4507  40.191  16.886   8.550
 4476POPC   C2B 4508  40.275  16.837   8.250
 4476POPC   C3B 4509  40.270  16.797   7.950
 4476POPC   C4B 4510  40.183  16.842   7.650
 4477POPC   NC3 4511  19.015   6.652   9.450
 4477POPC   PO4 4512  19.009   6.662   9.150
 4477POPC   GL1 4513  19.016   6.596   8.850
 4477POPC   GL2 4514  18.964   6.577   8.850
 4477POPC   C1A 4515  19.081   6.655   8.550
 4477POPC   D2A 4516  19.010   6.679   8.250
 4477POPC   C3A 4517  19.046   6.656   7.950
 4477POPC   C4A 4518  19.032   6.692   7.650
 4477POPC   C1B 4519  18.856   6.530   8.550
 4477POPC   C2B 4520  18.821   6.596   8.250
 4477POPC   C3B 4521  18.798   6.531   7.950
 4477POPC   C4B 4522  18.825   6.509   7.650
 4478POPC   NC3 4523  15.190   9.792   9.450
 4478POPC   PO4 4524  15.196   9.739   9.150
 4478POPC   GL1 4525  15.229   9.770   8.850
 4478POPC   GL2 4526  15.215   9.904   8.850
 4478POPC   C1A 4527  15.180   9.733   8.550
 4478POPC   D2A 4528  15.168   9.757   8.250
 4478POPC   C3A 4529  15.172   9.743   7.950
 4478POPC   C4A 4530  15.135   9.747   7.650
 4478POPC   C1B 4531  15.233  10.022   8.550
 4478POPC   C2B 4532  15.323   9.941   8.250
 4478POPC   C3B 4533  15.308   9.931   7.950
 4478POPC   C4B 4534  15.271   9.996   7.650
 4479POPC   NC3 4535  36.125  36.115   9.450
 4479POPC   PO4 4536  36.154  36.123   9.150
 4479POPC   GL1 4537  36.108  36.161   8.850
 4479POPC   GL2 4538  36.003  36.100   8.850
 4479POPC   C1A 4539  36.135  36.145   8.550
 4479POPC   D2A 4540  36.093  36.117   8.250
 4479POPC   C3A 4541  36.113  36.141   7.950
 4479POPC   C4A 4542  36.091  36.089   7.650
 4479POPC   C1B 4543  35.879  35.941   8.550
 4479POPC   C2B 4544  35.973  35.985   8.250
 4479POPC   C3B 4545  35.907  35.932   7.950
 4479POPC   C4B 4546  35.917  36.012   7.650
 4480POPC   NC3 4547  35.376  39.970   9.450
 4480POPC   PO4 4548  35.363  40.048   9.150
 4480POPC   GL1 4549  35.385  39.996   8.850
 4480POPC   GL2 4550  35.353  40.087   8.850
 4480POPC   C1A 4551  35.354  39.985   8.550
 4480POPC   D2A 4552  35.392  40.052   8.250
 4480POPC   C3A 4553  35.333  39.960   7.950
 4480POPC   C4A 4554  35.382  39.962   7.650
 4480POPC   C1B 4555  35.261  40.264   8.550
 4480POPC   C2B 4556  35.237  40.258   8.250
 4480POPC   C3B 4557  35.264  40.199   7.950
 4480POPC   C4B 4558  35.305  40.264   7.650
 4481POPC   NC3 4559   8.235  29.967   9.450
 4481POPC   PO4 4560   8.172  29.962   9.150
 4481POPC   GL1 4561   8.235  29.917   8.850
 4481POPC   GL2 4562   8.123  29.897   8.850
 4481POPC   C1A 4563   8.233  29.894   8.550
 4481POPC   D2A 4564   8.172  29.956   8.250
 4481POPC   C3A 4565   8.181  29.911   7.950
 4481POPC   C4A 4566   8.193  29.924   7.650
 4481POPC   C1B 4567   7.917  29.999   8.550
 4481POPC   C2B 4568   7.934  29.996   8.250
 4481POPC   C3B 4569   7.915  29.961   7.950
 4481POPC   C4B 4570   7.905  29.929   7.650
 4482POPC   NC3 4571  34.551  28.348   9.450
 4482POPC   PO4 4572  34.529  28.409   9.150
 4482POPC   GL1 4573  34.569  28.352   8.850
 4482POPC   GL2 4574  34.555  28.539   8.850
 4482POPC   C1A 4575  34.609  28.389   8.550
 4482POPC   D2A 4576  34.598  28.416   8.250
 4482POPC   C3A 4577  34.591  28.398   7.950
 4482POPC   C4A 4578  34.579  28.394   7.650
 4482POPC   C1B 4579  34.513  28.616   8.550
 4482POPC   C2B 4580  34.487  28.618   8.250
 4482POPC   C3B 4581  34.527  28.592   7.950
 4482POPC   C4B 4582  34.506  28.578   7.650
 4483POPC   NC3 4583  23.686  42.362   9.450
 4483POPC   PO4 4584  23.699  42.335   9.150
 4483POPC   GL1 4585  23.688  42.379   8.850
 4483POPC   GL2 4586  23.677  42.493   8.850
 4483POPC   C1A 4587  23.738  42.335   8.550
 4483POPC   D2A 4588  23.738  42.327   8.250
 4483POPC   C3A 4589  23.708  42.340   7.950
 4483POPC   C4A 4590  23.666  42.332   7.650
 4483POPC   C1B 4591  23.642  42.514   8.550
 4483POPC   C2B 4592  23.581  42.514   8.250
 4483POPC   C3B 4593  23.581  42.597   7.950
 4483POPC   C4B 4594  23.582  42.571   7.650
 4484POPC   NC3 4595   4.293   1.222   9.450
 4484POPC   PO4 4596   4.295   1.181   9.150
 4484POPC   GL1 4597   4.284   1.209   8.850
 4484POPC   GL2 4598   4.366   1.104   8.850
 4484POPC   C1A 4599   4.315   1.190   8.550
 4484POPC   D2A 4600   4.334   1.248   8.250
 4484POPC   C3A 4601   4.299   1.190   7.950
 4484POPC   C4A 4602   4.293   1.231   7.650
 4484POPC   C1B 4603   4.429   1.034   8.550
 4484POPC   C2B 4604   4.471   1.027   8.250
 4484POPC   C3B 4605   4.480   1.016   7.950
 4484POPC   C4B 4606   4.438   1.033   7.650
 4485POPC   NC3 4607   8.170  39.958   9.450
 4485POPC   PO4 4608   8.226  40.036   9.150
 4485POPC   GL1 4609   8.151  39.998   8.850
 4485POPC   GL2 4610   8.063  39.920   8.850
 4485POPC   C1A 4611   8.242  39.978   8.550
 4485POPC   D2A 4612   8.237  39.987   8.250
 4485POPC   C3A 4613   8.193  40.055   7.950
 4485POPC   C4A 4614   8.217  40.045   7.650
 4485POPC   C1B 4615   7.999  39.838   8.550
 4485POPC   C2B 4616   8.046  39.860   8.250
 4485POPC   C3B 4617   8.014  39.882   7.950
 4485POPC   C4B 4618   7.948  39.827   7.650
 4486POPC   NC3 4619   1.256  43.152   9.450
 4486POPC   PO4 4620   1.231  43.092   9.150
 4486POPC   GL1 4621   1.261  43.158   8.850
 4486POPC   GL2 4622   1.300  43.151   8.850
 4486POPC   C1A 4623   1.200  43.140   8.550
 4486POPC   D2A 4624   1.221  43.159   8.250
 4486POPC   C3A 4625   1.220  43.074   7.950
 4486POPC   C4A 4626   1.252  43.108   7.650
 4486POPC   C1B 4627   1.382  43.217   8.550
 4486POPC   C2B 4628   1.370  43.238   8.250
 4486POPC   C3B 4629   1.387  43.280   7.950
 4486POPC   C4B 4630   1.430  43.263   7.650
 4487POPC   NC3 4631  13.585  36.078   9.450
 4487POPC   PO4 4632  13.611  36.137   9.150
 4487POPC   GL1 4633  13.587  36.094   8.850
 4487POPC   GL2 4634  13.564  36.027   8.850
 4487POPC   C1A 4635  13.639  36.140   8.550
 4487POPC   D2A 4636  13.580  36.162   8.250
 4487POPC   C3A 4637  13.630  36.163   7.950
 4487POPC   C4A 4638  13.636  36.118   7.650
 4487POPC   C1B 4639  13.542  35.960   8.550
 4487POPC   C2B 4640  13.505  35.926   8.250
 4487POPC   C3B 4641  13.513  35.954   7.950
 4487POPC   C4B 4642  13.493  35.943   7.650
 4488POPC   NC3 4643  44.684  34.537   9.450
 4488POPC   PO4 4644  44.631  34.561   9.150
 4488POPC   GL1 4645  44.696  34.625   8.850
 4488POPC   GL2 4646  44.635  34.491   8.850
 4488POPC   C1A 4647  44.708  34.557   8.550
 4488POPC   D2A 4648  44.663  34.557   8.250
 4488POPC   C3A 4649  44.641  34.614   7.950
 4488POPC   C4A 4650  44.618  34.606   7.650
 4488POPC   C1B 4651  44.620  34.325   8.550
 4488POPC   C2B 4652  44.605  34.369   8.250
 4488POPC   C3B 4653  44.579  34.345   7.950
 4488POPC   C4B 4654  44.616  34.333   7.650
 4489POPC   NC3 4655  19.856  12.809   9.450
 4489POPC   PO4 4656  19.884  12.887   9.150
 4489POPC   GL1 4657  19.848  12.810   8.850
 4489POPC   GL2 4658  19.848  12.731   8.850
 4489POPC   C1A 4659  19.867  12.868   8.550
 4489POPC   D2A 4660  19.875  12.879   8.250
 4489POPC   C3A 4661  19.870  12.892   7.950
 4489POPC   C4A 4662  19.809  12.824   7.650
 4489POPC   C1B 4663  19.901  12.637   8.550
 4489POPC   C2B 4664  19.895  12.576   8.250
 4489POPC   C3B 4665  19.940  12.584   7.950
 4489POPC   C4B 4666  19.954  12.626   7.650
 4490POPC   NC3 4667   3.503  25.248   9.450
 4490POPC   PO4 4668   3.583  25.260   9.150
 4490POPC   GL1 4669   3.501  25.243   8.850
 4490POPC   GL2 4670   3.694  25.188   8.850
 4490POPC   C1A 4671   3.556  25.228   8.550
 4490POPC   D2A 4672   3.574  25.293   8.250
 4490POPC   C3A 4673   3.537  25.245   7.950
 4490POPC   C4A 4674   3.507  25.250   7.650
 4490POPC   C1B 4675   3.788  25.188   8.550
 4490POPC   C2B 4676   3.803  25.164   8.250
 4490POPC   C3B 4677   3.755  25.103   7.950
 4490POPC   C4B 4678   3.751  25.170   7.650
 4491POPC   NC3 4679  12.856  36.866   9.450
 4491POPC   PO4 4680  12.852  36.936   9.150
 4491POPC   GL1 4681  12.805  36.939   8.850
 4491POPC   GL2 4682  12.969  36.808   8.850
 4491POPC   C1A 4683  12.813  36.929   8.550
 4491POPC   D2A 4684  12.879  36.926   8.250
 4491POPC   C3A 4685  12.866  36.936   7.950
 4491POPC   C4A 4686  12.853  36.896   7.650
 4491POPC   C1B 4687  13.087  36.807   8.550
 4491POPC   C2B 4688  13.102  36.743   8.250
 4491POPC   C3B 4689  13.061  36.813   7.950
 4491POPC   C4B 4690  13.023  36.774   7.650
 4492POPC   NC3 4691  16.779   9.743   9.450
 4492POPC   PO4 4692  16.722   9.778   9.150
 4492POPC   GL1 4693  16.688   9.721   8.850
 4492POPC   GL2 4694  16.893   9.794   8.850
 4492POPC   C1A 4695  16.715   9.745   8.550
 4492POPC   D2A 4696  16.707   9.730   8.250
 4492POPC   C3A 4697  16.728   9.710   7.950
 4492POPC   C4A 4698  16.775   9.732   7.650
 4492POPC   C1B 4699  16.940   9.748   8.550
 4492POPC   C2B 4700  17.017   9.765   8.250
 4492POPC   C3B 4701  16.964   9.810   7.950
 4492POPC   C4B 4702  17.005   9.743   7.650
 4493POPC   NC3 4703  19.873  22.128   9.450
 4493POPC   PO4 4704  19.786  22.175   9.150
 4493POPC   GL1 4705  19.878  22.183   8.850
 4493POPC   GL2 4706  19.835  22.027   8.850
 4493POPC   C1A 4707  19.861  22.164   8.550
 4493POPC   D2A 4708  19.802  22.116   8.250
 4493POPC   C3A 4709  19.814  22.147   7.950
 4493POPC   C4A 4710  19.810  22.131   7.650
 4493POPC   C1B 4711  19.800  21.948   8.550
 4493POPC   C2B 4712  19.813  21.886   8.250
 4493POPC   C3B 4713  19.819  21.896   7.950
 4493POPC   C4B 4714  19.827  21.881   7.650
 4494POPC   NC3 4715   8.235  22.147   9.450
 4494POPC   PO4 4716   8.149  22.112   9.150
 4494POPC   GL1 4717   8.177  22.126   8.850
 4494POPC   GL2 4718   8.369  22.226   8.850
 4494POPC   C1A 4719   8.182  22.158   8.550
 4494POPC   D2A 4720   8.152  22.203   8.250
 4494POPC   C3A 4721   8.222  22.160   7.950
 4494POPC   C4A 4722   8.192  22.121   7.650
 4494POPC   C1B 4723   8.413  22.224   8.550
 4494POPC   C2B 4724   8.397  22.184   8.250
 4494POPC   C3B 4725   8.439  22.257   7.950
 4494POPC   C4B 4726   8.438  22.249   7.650
 4495POPC   NC3 4727  24.529   1.971   9.450
 4495POPC   PO4 4728  24.472   1.964   9.150
 4495POPC   GL1 4729  24.453   2.014   8.850
 4495POPC   GL2 4730  24.614   1.962   8.850
 4495POPC   C1A 4731  24.498   2.022   8.550
 4495POPC   D2A 4732  24.493   1.953   8.250
 4495POPC   C3A 4733  24.465   1.972   7.950
 4495POPC   C4A 4734  24.493   1.980   7.650
 4495POPC   C1B 4735  24.735   1.956   8.550
 4495POPC   C2B 4736  24.704   2.009   8.250
 4495POPC   C3B 4737  24.729   2.037   7.950
 4495POPC   C4B 4738  24.788   2.017   7.650
 4496POPC   NC3 4739  21.399  17.522   9.450
 4496POPC   PO4 4740  21.397  17.531   9.150
 4496POPC   GL1 4741  21.349  17.533   8.850
 4496POPC   GL2 4742  21.287  17.436   8.850
 4496POPC   C1A 4743  21.410  17.537   8.550
 4496POPC   D2A 4744  21.414  17.523   8.250
 4496POPC   C3A 4745  21.407  17.474   7.950
 4496POPC   C4A 4746  21.411  17.464   7.650
 4496POPC   C1B 4747  21.162  17.479   8.550
 4496POPC   C2B 4748  21.182  17.477   8.250
 4496POPC   C3B 4749  21.103  17.428   7.950
 4496POPC   C4B 4750  21.135  17.428   7.650
 4497POPC   NC3 4751  42.335  19.809   9.450
 4497POPC   PO4 4752  42.315  19.836   9.150
 4497POPC   GL1 4753  42.304  19.832   8.850
 4497POPC   GL2 4754  42.489  19.862   8.850
 4497POPC   C1A 4755  42.359  19.859   8.550
 4497POPC   D2A 4756  42.368  19.846   8.250
 4497POPC   C3A 4757  42.334  19.834   7.950
 4497POPC   C4A 4758  42.290  19.852   7.650
 4497POPC   C1B 4759  42.629  19.865   8.550
 4497POPC   C2B 4760  42.589  19.855   8.250
 4497POPC   C3B 4761  42.624  19.855   7.950
 4497POPC   C4B 4762  42.587  19.785   7.650
 4498POPC   NC3 4763   8.950   1.184   9.450
 4498POPC   PO4 4764   8.924   1.263   9.150
 4498POPC   GL1 4765   8.986   1.201   8.850
 4498POPC   GL2 4766   9.000   1.077   8.850
 4498POPC   C1A 4767   8.965   1.239   8.550
 4498POPC   D2A 4768   8.972   1.195   8.250
 4498POPC   C3A 4769   8.969   1.183   7.950
 4498POPC   C4A 4770   8.949   1.207   7.650
 4498POPC   C1B 4771   8.959   0.956   8.550
 4498POPC   C2B 4772   9.024   0.968   8.250
 4498POPC   C3B 4773   9.024   0.987   7.950
 4498POPC   C4B 4774   8.944   0.964   7.650
 4499POPC   NC3 4775  29.930  34.596   9.450
 4499POPC   PO4 4776  29.939  34.573   9.150
 4499POPC   GL1 4777  29.931  34.535   8.850
 4499POPC   GL2 4778  29.851  34.457   8.850
 4499POPC   C1A 4779  29.937  34.568   8.550
 4499POPC   D2A 4780  29.903  34.546   8.250
 4499POPC   C3A 4781  29.935  34.595   7.950
 4499POPC   C4A 4782  29.915  34.530   7.650
 4499POPC   C1B 4783  29.836  34.301   8.550
 4499POPC   C2B 4784  29.802  34.384   8.250
 4499POPC   C3B 4785  29.791  34.331   7.950
 4499POPC   C4B 4786  29.769  34.372   7.650
 4500POPC   NC3 4787   0.389  28.393   9.450
 4500POPC   PO4 4788   0.472  28.412   9.150
 4500POPC   GL1 4789   0.394  28.333   8.850
 4500POPC   GL2 4790   0.508  28.255   8.850
 4500POPC   C1A 4791   0.477  28.363   8.550
 4500POPC   D2A 4792   0.478  28.408   8.250
 4500POPC   C3A 4793   0.404  28.362   7.950
 4500POPC   C4A 4794   0.476  28.379   7.650
 4500POPC   C1B 4795   0.530  28.140   8.550
 4500POPC   C2B 4796   0.607  28.114   8.250
 4500POPC   C3B 4797   0.539  28.187   7.950
 4500POPC   C4B 4798   0.525  28.155   7.650
 4501POPC   NC3 4799  36.946  39.218   9.450
 4501POPC   PO4 4800  36.879  39.223   9.150
 4501POPC   GL1 4801  36.872  39.213   8.850
 4501POPC   GL2 4802  37.029  39.250   8.850
 4501POPC   C1A 4803  36.941  39.234   8.550
 4501POPC   D2A 4804  36.862  39.222   8.250
 4501POPC   C3A 4805  36.871  39.197   7.950
 4501POPC   C4A 4806  36.952  39.203   7.650
 4501POPC   C1B 4807  37.117  39.354   8.550
 4501POPC   C2B 4808  37.126  39.378   8.250
 4501POPC   C3B 4809  37.140  39.305   7.950
 4501POPC   C4B 4810  37.089  39.334   7.650
 4502POPC   NC3 4811  15.143  33.826   9.450
 4502POPC   PO4 4812  15.213  33.816   9.150
 4502POPC   GL1 4813  15.224  33.822   8.850
 4502POPC   GL2 4814  15.059  33.762   8.850
 4502POPC   C1A 4815  15.149  33.828   8.550
 4502POPC   D2A 4816  15.215  33.804   8.250
 4502POPC   C3A 4817  15.174  33.783   7.950
 4502POPC   C4A 4818  15.227  33.750   7.650
 4502POPC   C1B 4819  14.952  33.679   8.550
 4502POPC   C2B 4820  15.026  33.681   8.250
 4502POPC   C3B 4821  15.035  33.604   7.950
 4502POPC   C4B 4822  14.947  33.625   7.650
 4503POPC   NC3 4823  29.928  26.866   9.450
 4503POPC   PO4 4824  29.961  26.792   9.150
 4503POPC   GL1 4825  29.954  26.847   8.850
 4503POPC   GL2 4826  29.897  26.701   8.850
 4503POPC   C1A 4827  29.889  26.803   8.550
 4503POPC   D2A 4828  29.967  26.773   8.250
 4503POPC   C3A 4829  29.886  26.788   7.950
 4503POPC   C4A 4830  29.873  26.777   7.650
 4503POPC   C1B 4831  29.836  26.648   8.550
 4503POPC   C2B 4832  29.750  26.595   8.250
 4503POPC   C3B 4833  29.782  26.631   7.950
 4503POPC   C4B 4834  29.836  26.556   7.650
 4504POPC   NC3 4835   4.357   2.760   9.450
 4504POPC   PO4 4836   4.326   2.781   9.150
 4504POPC   GL1 4837   4.357   2.770   8.850
 4504POPC   GL2 4838   4.255   2.846   8.850
 4504POPC   C1A 4839   4.278   2.731   8.550
 4504POPC   D2A 4840   4.314   2.735   8.250
 4504POPC   C3A 4841   4.305   2.780   7.950
 4504POPC   C4A 4842   4.338   2.767   7.650
 4504POPC   C1B 4843   4.268   2.987   8.550
 4504POPC   C2B 4844   4.285   3.047   8.250
 4504POPC   C3B 4845   4.317   2.978   7.950
 4504POPC   C4B 4846   4.218   3.038   7.650
 4505POPC   NC3 4847   5.827  21.416   9.450
 4505POPC   PO4 4848   5.910  21.412   9.150
 4505POPC   GL1 4849   5.820  21.366   8.850
 4505POPC   GL2 4850   5.860  21.260   8.850
 4505POPC   C1A 4851   5.892  21.342   8.550
 4505POPC   D2A 4852   5.883  21.365   8.250
 4505POPC   C3A 4853   5.877  21.341   7.950
 4505POPC   C4A 4854   5.895  21.336   7.650
 4505POPC   C1B 4855   5.823  21.158   8.550
 4505POPC   C2B 4856   5.800  21.194   8.250
 4505POPC   C3B 4857   5.800  21.163   7.950
 4505POPC   C4B 4858   5.804  21.192   7.650
 4506POPC   NC3 4859  36.163  17.477   9.450
 4506POPC   PO4 4860  36.174  17.517   9.150
 4506POPC   GL1 4861  36.108  17.471   8.850
 4506POPC   GL2 4862  36.100  17.395   8.850
 4506POPC   C1A 4863  36.164  17.512   8.550
 4506POPC   D2A 4864  36.101  17.552   8.250
 4506POPC   C3A 4865  36.101  17.537   7.950
 4506POPC   C4A 4866  36.115  17.542   7.650
 4506POPC   C1B 4867  36.030  17.270   8.550
 4506POPC   C2B 4868  36.014  17.323   8.250
 4506POPC   C3B 4869  35.981  17.279   7.950
 4506POPC   C4B 4870  35.999  17.251   7.650
 4507POPC   NC3 4871   7.412  36.080   9.450
 4507POPC   PO4 4872   7.396  36.174   9.150
 4507POPC   GL1 4873   7.436  36.097   8.850
 4507POPC   GL2 4874   7.382  36.248   8.850
 4507POPC   C1A 4875   7.453  36.176   8.550
 4507POPC   D2A 4876   7.442  36.145   8.250
 4507POPC   C3A 4877   7.383  36.155   7.950
 4507POPC   C4A 4878   7.467  36.085   7.650
 4507POPC   C1B 4879   7.316  36.398   8.550
 4507POPC   C2B 4880   7.365  36.352   8.250
 4507POPC   C3B 4881   7.352  36.375   7.950
 4507POPC   C4B 4882   7.357  36.373   7.650
 4508POPC   NC3 4883  12.803   7.419   9.450
 4508POPC   PO4 4884  12.846   7.402   9.150
 4508POPC   GL1 4885  12.830   7.454   8.850
 4508POPC   GL2 4886  12.868   7.502   8.850
 4508POPC   C1A 4887  12.834   7.394   8.550
 4508POPC   D2A 4888  12.818   7.372   8.250
 4508POPC   C3A 4889  12.842   7.467   7.950
 4508POPC   C4A 4890  12.827   7.419   7.650
 4508POPC   C1B 4891  12.867   7.677   8.550
 4508POPC   C2B 4892  12.851   7.693   8.250
 4508POPC   C3B 4893  12.842   7.706   7.950
 4508POPC   C4B 4894  12.872   7.669   7.650
 4509POPC   NC3 4895  43.921  12.095   9.450
 4509POPC   PO4 4896  43.841  12.106   9.150
 4509POPC   GL1 4897  43.918  12.101   8.850
 4509POPC   GL2 4898  43.885  11.941   8.850
 4509POPC   C1A 4899  43.913  12.098   8.550
 4509POPC   D2A 4900  43.897  12.054   8.250
 4509POPC   C3A 4901  43.847  12.077   7.950
 4509POPC   C4A 4902  43.886  12.034   7.650
 4509POPC   C1B 4903  43.935  11.864   8.550
 4509POPC   C2B 4904  43.940  11.846   8.250
 4509POPC   C3B 4905  43.951  11.800   7.950
 4509POPC   C4B 4906  43.918  11.832   7.650
 4510POPC   NC3 4907   8.195  34.587   9.450
 4510POPC   PO4 4908   8.216  34.551   9.150
 4510POPC   GL1 4909   8.164  34.558   8.850
 4510POPC   GL2 4910   8.229  34.717   8.850
 4510POPC   C1A 4911   8.242  34.589   8.550
 4510POPC   D2A 4912   8.242  34.566   8.250
 4510POPC   C3A 4913   8.166  34.587   7.950
 4510POPC   C4A 4914   8.186  34.590   7.650
 4510POPC   C1B 4915   8.144  34.857   8.550
 4510POPC   C2B 4916   8.223  34.849   8.250
 4510POPC   C3B 4917   8.156  34.803   7.950
 4510POPC   C4B 4918   8.215  34.852   7.650
 4511POPC   NC3 4919  12.112  29.936   9.450
 4511POPC   PO4 4920  12.044  29.929   9.150
 4511POPC   GL1 4921  12.071  29.884   8.850
 4511POPC   GL2 4922  11.935  29.854   8.850
 4511POPC   C1A 4923  12.061  29.950   8.550
 4511POPC   D2A 4924  12.088  29.875   8.250
 4511POPC   C3A 4925  12.040  29.890   7.950
 4511POPC   C4A 4926  12.036  29.910   7.650
 4511POPC   C1B 4927  11.860  29.849   8.550
 4511POPC   C2B 4928  11.818  29.783   8.250
 4511POPC   C3B 4929  11.847  29.798   7.950
 4511POPC   C4B 4930  11.833  29.835   7.650
 4512POPC   NC3 4931   4.302  22.146   9.450
 4512POPC   PO4 4932   4.333  22.198   9.150
 4512POPC   GL1 4933   4.286  22.201   8.850
 4512POPC   GL2 4934   4.411  22.096   8.850
 4512POPC   C1A 4935   4.283  22.166   8.550
 4512POPC   D2A 4936   4.281  22.115   8.250
 4512POPC   C3A 4937   4.288  22.136   7.950
 4512POPC   C4A 4938   4.335  22.120   7.650
 4512POPC   C1B 4939   4.486  21.960   8.550
 4512POPC   C2B 4940   4.531  22.004   8.250
 4512POPC   C3B 4941   4.496  21.941   7.950
 4512POPC   C4B 4942   4.465  21.993   7.650
 4513POPC   NC3 4943  22.183  38.428   9.450
 4513POPC   PO4 4944  22.186  38.489   9.150
 4513POPC   GL1 4945  22.208  38.491   8.850
 4513POPC   GL2 4946  22.250  38.465   8.850
 4513POPC   C1A 4947  22.122  38.444   8.550
 4513POPC   D2A 4948  22.162  38.418   8.250
 4513POPC   C3A 4949  22.176  38.419   7.950
 4513POPC   C4A 4950  22.181  38.460   7.650
 4513POPC   C1B 4951  22.415  38.506   8.550
 4513POPC   C2B 4952  22.426  38.510   8.250
 4513POPC   C3B 4953  22.406  38.488   7.950
 4513POPC   C4B 4954  22.411  38.481   7.650
 4514POPC   NC3 4955  42.320  32.265   9.450
 4514POPC   PO4 4956  42.349  32.251   9.150
 4514POPC   GL1 4957  42.307  32.226   8.850
 4514POPC   GL2 4958  42.196  32.294   8.850
 4514POPC   C1A 4959  42.299  32.278   8.550
 4514POPC   D2A 4960  42.359  32.275   8.250
 4514POPC   C3A 4961  42.384  32.257   7.950
 4514POPC   C4A 4962  42.310  32.208   7.650
 4514POPC   C1B 4963  42.171  32.411   8.550
 4514POPC   C2B 4964  42.109  32.407   8.250
 4514POPC   C3B 4965  42.127  32.430   7.950
 4514POPC   C4B 4966  42.103  32.408   7.650
 4515POPC   NC3 4967  28.327   1.176   9.450
 4515POPC   PO4 4968  28.336   1.213   9.150
 4515POPC   GL1 4969  28.328   1.228   8.850
 4515POPC   GL2 4970  28.480   1.360   8.850
 4515POPC   C1A 4971  28.389   1.245   8.550
 4515POPC   D2A 4972  28.391   1.252   8.250
 4515POPC   C3A 4973  28.362   1.221   7.950
 4515POPC   C4A 4974  28.368   1.196   7.650
 4515POPC   C1B 4975  28.547   1.453   8.550
 4515POPC   C2B 4976  28.512   1.402   8.250
 4515POPC   C3B 4977  28.533   1.459   7.950
 4515POPC   C4B 4978  28.498   1.378   7.650
 4516POPC   NC3 4979  35.353  26.845   9.450
 4516POPC   PO4 4980  35.347  26.805   9.150
 4516POPC   GL1 4981  35.337  26.837   8.850
 4516POPC   GL2 4982  35.271  26.740   8.850
 4516POPC   C1A 4983  35.373  26.814   8.550
 4516POPC   D2A 4984  35.334  26.771   8.250
 4516POPC   C3A 4985  35.306  26.819   7.950
 4516POPC   C4A 4986  35.379  26.781   7.650
 4516POPC   C1B 4987  35.277  26.607   8.550
 4516POPC   C2B 4988  35.210  26.602   8.250
 4516POPC   C3B 4989  35.228  26.640   7.950
 4516POPC   C4B 4990  35.258  26.616   7.650
 4517POPC   NC3 4991  35.340  14.363   9.450
 4517POPC   PO4 4992  35.303  14.403   9.150
 4517POPC   GL1 4993  35.339  14.448   8.850
 4517POPC   GL2 4994  35.394  14.541   8.850
 4517POPC   C1A 4995  35.309  14.396   8.550
 4517POPC   D2A 4996  35.385  14.450   8.250
 4517POPC   C3A 4997  35.311  14.410   7.950
 4517POPC   C4A 4998  35.385  14.422   7.650
 4517POPC   C1B 4999  35.419  14.638   8.550
 4517POPC   C2B 5000  35.479  14.664   8.250
 4517POPC   C3B 5001  35.424  14.588   7.950
 4517POPC   C4B 5002  35.468  14.618   7.650
 4518POPC   NC3 5003  19.804   2.770   9.450
 4518POPC   PO4 5004  19.789   2.748   9.150
 4518POPC   GL1 5005  19.806   2.806   8.850
 4518POPC   GL2 5006  19.973   2.767   8.850
 4518POPC   C1A 5007  19.824   2.729   8.550
 4518POPC   D2A 5008  19.815   2.782   8.250
 4518POPC   C3A 5009  19.842   2.731   7.950
 4518POPC   C4A 5010  19.799   2.747   7.650
 4518POPC   C1B 5011  20.084   2.760   8.550
 4518POPC   C2B 5012  20.128   2.724   8.250
 4518POPC   C3B 5013  20.060   2.759   7.950
 4518POPC   C4B 5014  20.107   2.714   7.650
 4519POPC   NC3 5015  22.129  26.046   9.450
 4519POPC   PO4 5016  22.139  26.009   9.150
 4519POPC   GL1 5017  22.123  26.028   8.850
 4519POPC   GL2 5018  22.303  26.050   8.850
 4519POPC   C1A 5019  22.165  26.085   8.550
 4519POPC   D2A 5020  22.155  26.047   8.250
 4519POPC   C3A 5021  22.156  26.027   7.950
 4519POPC   C4A 5022  22.113  26.008   7.650
 4519POPC   C1B 5023  22.410  25.944   8.550
 4519POPC   C2B 5024  22.398  25.940   8.250
 4519POPC   C3B 5025  22.414  25.927   7.950
 4519POPC   C4B 5026  22.419  25.936   7.650
 4520POPC   NC3 5027  40.807  42.295   9.450
 4520POPC   PO4 5028  40.760  42.364   9.150
 4520POPC   GL1 5029  40.825  42.344   8.850
 4520POPC   GL2 5030  40.781  42.194   8.850
 4520POPC   C1A 5031  40.814  42.322   8.550
 4520POPC   D2A 5032  40.805  42.359   8.250
 4520POPC   C3A 5033  40.825  42.295   7.950
 4520POPC   C4A 5034  40.749  42.345   7.650
 4520POPC   C1B 5035  40.823  42.074   8.550
 4520POPC   C2B 5036  40.842  42.058   8.250
 4520POPC   C3B 5037  40.778  42.118   7.950
 4520POPC   C4B 5038  40.778  42.073   7.650
 4521POPC   NC3 5039  37.638  18.250   9.450
 4521POPC   PO4 5040  37.718  18.315   9.150
 4521POPC   GL1 5041  37.726  18.302   8.850
 4521POPC   GL2 5042  37.774  18.214   8.850
 4521POPC   C1A 5043  37.649  18.276   8.550
 4521POPC   D2A 5044  37.643  18.301   8.250
 4521POPC   C3A 5045  37.653  18.237   7.950
 4521POPC   C4A 5046  37.649  18.280   7.650
 4521POPC   C1B 5047  37.960  18.249   8.550
 4521POPC   C2B 5048  37.965  18.219   8.250
 4521POPC   C3B 5049  37.951  18.215   7.950
 4521POPC   C4B 5050  37.901  18.213   7.650
 4522POPC   NC3 5051  12.831  33.027   9.450
 4522POPC   PO4 5052  12.853  33.015   9.150
 4522POPC   GL1 5053  12.852  33.049   8.850
 4522POPC   GL2 5054  12.978  33.069   8.850
 4522POPC   C1A 5055  12.852  33.060   8.550
 4522POPC   D2A 5056  12.892  33.008   8.250
 4522POPC   C3A 5057  12.815  33.050   7.950
 4522POPC   C4A 5058  12.856  33.031   7.650
 4522POPC   C1B 5059  13.072  33.043   8.550
 4522POPC   C2B 5060  13.050  33.024   8.250
 4522POPC   C3B 5061  13.077  33.057   7.950
 4522POPC   C4B 5062  13.137  33.013   7.650
 4523POPC   NC3 5063   0.417   2.728   9.450
 4523POPC   PO4 5064   0.433   2.793   9.150
 4523POPC   GL1 5065   0.395   2.724   8.850
 4523POPC   GL2 5066   0.459   2.898   8.850
 4523POPC   C1A 5067   0.423   2.805   8.550
 4523POPC   D2A 5068   0.434   2.721   8.250
 4523POPC   C3A 5069   0.403   2.745   7.950
 4523POPC   C4A 5070   0.392   2.793   7.650
 4523POPC   C1B 5071   0.530   2.952   8.550
 4523POPC   C2B 5072   0.595   2.995   8.250
 4523POPC   C3B 5073   0.578   2.959   7.950
 4523POPC   C4B 5074   0.525   2.990   7.650
 4524POPC   NC3 5075   7.403  28.331   9.450
 4524POPC   PO4 5076   7.421  28.366   9.150
 4524POPC   GL1 5077   7.441  28.386   8.850
 4524POPC   GL2 5078   7.479  28.504   8.850
 4524POPC   C1A 5079   7.420  28.367   8.550
 4524POPC   D2A 5080   7.395  28.348   8.250
 4524POPC   C3A 5081   7.461  28.329   7.950
 4524POPC   C4A 5082   7.412  28.366   7.650
 4524POPC   C1B 5083   7.479  28.598   8.550
 4524POPC   C2B 5084   7.514  28.621   8.250
 4524POPC   C3B 5085   7.493  28.579   7.950
 4524POPC   C4B 5086   7.435  28.580   7.650
 4525POPC   NC3 5087  29.187  12.874   9.450
 4525POPC   PO4 5088  29.190  12.807   9.150
 4525POPC   GL1 5089  29.128  12.892   8.850
 4525POPC   GL2 5090  29.039  12.851   8.850
 4525POPC   C1A 5091  29.184  12.830   8.550
 4525POPC   D2A 5092  29.190  12.815   8.250
 4525POPC   C3A 5093  29.186  12.900   7.950
 4525POPC   C4A 5094  29.177  12.844   7.650
 4525POPC   C1B 5095  28.871  12.886   8.550
 4525POPC   C2B 5096  28.866  12.898   8.250
 4525POPC   C3B 5097  28.874  12.892   7.950
 4525POPC   C4B 5098  28.876  12.944   7.650
 4526POPC   NC3 5099  38.504  19.788   9.450
 4526POPC   PO4 5100  38.422  19.816   9.150
 4526POPC   GL1 5101  38.455  19.871   8.850
 4526POPC   GL2 5102  38.546  19.818   8.850
 4526POPC   C1A 5103  38.420  19.876   8.550
 4526POPC   D2A 5104  38.474  19.880   8.250
 4526POPC   C3A 5105  38.408  19.823   7.950
 4526POPC   C4A 5106  38.456  19.879   7.650
 4526POPC   C1B 5107  38.718  19.901   8.550
 4526POPC   C2B 5108  38.651  19.878   8.250
 4526POPC   C3B 5109  38.739  19.913   7.950
 4526POPC   C4B 5110  38.745  19.847   7.650
 4527POPC   NC3 5111  12.034   7.424   9.450
 4527POPC   PO4 5112  12.047   7.373   9.150
 4527POPC   GL1 5113  12.095   7.416   8.850
 4527POPC   GL2 5114  12.054   7.352   8.850
 4527POPC   C1A 5115  12.121   7.454   8.550
 4527POPC   D2A 5116  12.100   7.470   8.250
 4527POPC   C3A 5117  12.107   7.443   7.950
 4527POPC   C4A 5118  12.109   7.393   7.650
 4527POPC   C1B 5119  11.934   7.167   8.550
 4527POPC   C2B 5120  12.020   7.229   8.250
 4527POPC   C3B 5121  11.969   7.219   7.950
 4527POPC   C4B 5122  11.951   7.203   7.650
 4528POPC   NC3 5123  43.099  15.958   9.450
 4528POPC   PO4 5124  43.128  15.934   9.150
 4528POPC   GL1 5125  43.065  15.947   8.850
 4528POPC   GL2 5126  43.024  16.101   8.850
 4528POPC   C1A 5127  43.131  15.912   8.550
 4528POPC   D2A 5128  43.062  15.985   8.250
 4528POPC   C3A 5129  43.073  15.928   7.950
 4528POPC   C4A 5130  43.076  15.974   7.650
 4528POPC   C1B 5131  43.014  16.179   8.550
 4528POPC   C2B 5132  43.054  16.139   8.250
 4528POPC   C3B 5133  43.002  16.213   7.950
 4528POPC   C4B 5134  43.051  16.203   7.650
 4529POPC   NC3 5135  10.481  27.606   9.450
 4529POPC   PO4 5136  10.524  27.554   9.150
 4529POPC   GL1 5137  10.512  27.589   8.850
 4529POPC   GL2 5138  10.399  27.731   8.850
 4529POPC   C1A 5139  10.495  27.596   8.550
 4529POPC   D2A 5140  10.562  27.589   8.250
 4529POPC   C3A 5141  10.542  27.632   7.950
 4529POPC   C4A 5142  10.487  27.576   7.650
 4529POPC   C1B 5143  10.339  27.783   8.550
 4529POPC   C2B 5144  10.376  27.831   8.250
 4529POPC   C3B 5145  10.356  27.751   7.950
 4529POPC   C4B 5146  10.353  27.798   7.650
 4530POPC   NC3 5147   9.769   0.389   9.450
 4530POPC   PO4 5148   9.755   0.442   9.150
 4530POPC   GL1 5149   9.775   0.449   8.850
 4530POPC   GL2 5150   9.855   0.443   8.850
 4530POPC   C1A 5151   9.700   0.409   8.550
 4530POPC   D2A 5152   9.705   0.428   8.250
 4530POPC   C3A 5153   9.738   0.447   7.950
 4530POPC   C4A 5154   9.791   0.435   7.650
 4530POPC   C1B 5155  10.035   0.502   8.550
 4530POPC   C2B 5156   9.984   0.466   8.250
 4530POPC   C3B 5157   9.957   0.455   7.950
 4530POPC   C4B 5158  10.031   0.428   7.650
 4531POPC   NC3 5159  41.571  41.606   9.450
 4531POPC   PO4 5160  41.577  41.575   9.150
 4531POPC   GL1 5161  41.547  41.554   8.850
 4531POPC   GL2 5162  41.517  41.692   8.850
 4531POPC   C1A 5163  41.576  41.567   8.550
 4531POPC   D2A 5164  41.556  41.542   8.250
 4531POPC   C3A 5165  41.573  41.557   7.950
 4531POPC   C4A 5166  41.534  41.521   7.650
 4531POPC   C1B 5167  41.518  41.836   8.550
 4531POPC   C2B 5168  41.603  41.828   8.250
 4531POPC   C3B 5169  41.532  41.838   7.950
 4531POPC   C4B 5170  41.586  41.774   7.650
 4532POPC   NC3 5171   6.615  18.315   9.450
 4532POPC   PO4 5172   6.620  18.318   9.150
 4532POPC   GL1 5173   6.633  18.298   8.850
 4532POPC   GL2 5174   6.691  18.409   8.850
 4532POPC   C1A 5175   6.623  18.323   8.550
 4532POPC   D2A 5176   6.669  18.250   8.250
 4532POPC   C3A 5177   6.611  18.296   7.950
 4532POPC   C4A 5178   6.678  18.237   7.650
 4532POPC   C1B 5179   6.802  18.469   8.550
 4532POPC   C2B 5180   6.800  18.493   8.250
 4532POPC   C3B 5181   6.812  18.464   7.950
 4532POPC   C4B 5182   6.739  18.473   7.650
 4533POPC   NC3 5183  22.980  38.448   9.450
 4533POPC   PO4 5184  22.904  38.479   9.150
 4533POPC   GL1 5185  22.915  38.462   8.850
 4533POPC   GL2 5186  22.842  38.484   8.850
 4533POPC   C1A 5187  22.960  38.503   8.550
 4533POPC   D2A 5188  22.976  38.504   8.250
 4533POPC   C3A 5189  22.962  38.444   7.950
 4533POPC   C4A 5190  22.972  38.451   7.650
 4533POPC   C1B 5191  22.714  38.554   8.550
 4533POPC   C2B 5192  22.697  38.472   8.250
 4533POPC   C3B 5193  22.686  38.499   7.950
 4533POPC   C4B 5194  22.715  38.488   7.650
 4534POPC   NC3 5195   5.095  11.286   9.450
 4534POPC   PO4 5196   5.100  11.286   9.150
 4534POPC   GL1 5197   5.097  11.303   8.850
 4534POPC   GL2 5198   5.171  11.245   8.850
 4534POPC   C1A 5199   5.131  11.329   8.550
 4534POPC   D2A 5200   5.052  11.281   8.250
 4534POPC   C3A 5201   5.064  11.327   7.950
 4534POPC   C4A 5202   5.056  11.279   7.650
 4534POPC   C1B 5203   5.241  11.174   8.550
 4534POPC   C2B 5204   5.302  11.111   8.250
 4534POPC   C3B 5205   5.333  11.190   7.950
 4534POPC   C4B 5206   5.281  11.138   7.650
 4535POPC   NC3 5207  34.605  27.631   9.450
 4535POPC   PO4 5208  34.620  27.633   9.150
 4535POPC   GL1 5209  34.583  27.568   8.850
 4535POPC   GL2 5210  34.551  27.725   8.850
 4535POPC   C1A 5211  34.564  27.617   8.550
 4535POPC   D2A 5212  34.620  27.604   8.250
 4535POPC   C3A 5213  34.607  27.579   7.950
 4535POPC   C4A 5214  34.568  27.637   7.650
 4535POPC   C1B 5215  34.641  27.848   8.550
 4535POPC   C2B 5216  34.657  27.840   8.250
 4535POPC   C3B 5217  34.633  27.829   7.950
 4535POPC   C4B 5218  34.645  27.821   7.650
 4536POPC   NC3 5219   3.563   0.406   9.450
 4536POPC   PO4 5220   3.541   0.391   9.150
 4536POPC   GL1 5221   3.521   0.420   8.850
 4536POPC   GL2 5222   3.479   0.355   8.850
 4536POPC   C1A 5223   3.503   0.424   8.550
 4536POPC   D2A 5224   3.573   0.455   8.250
 4536POPC   C3A 5225   3.575   0.459   7.950
 4536POPC   C4A 5226   3.508   0.467   7.650
 4536POPC   C1B 5227   3.526   0.242   8.550
 4536POPC   C2B 5228   3.479   0.210   8.250
 4536POPC   C3B 5229   3.520   0.164   7.950
 4536POPC   C4B 5230   3.460   0.203   7.650
 4537POPC   NC3 5231  11.253  22.907   9.450
 4537POPC   PO4 5232  11.263  22.951   9.150
 4537POPC   GL1 5233  11.286  22.908   8.850
 4537POPC   GL2 5234  11.203  23.031   8.850
 4537POPC   C1A 5235  11.333  22.930   8.550
 4537POPC   D2A 5236  11.300  22.931   8.250
 4537POPC   C3A 5237  11.298  22.900   7.950
 4537POPC   C4A 5238  11.314  22.958   7.650
 4537POPC   C1B 5239  11.143  23.138   8.550
 4537POPC   C2B 5240  11.176  23.132   8.250
 4537POPC   C3B 5241  11.092  23.169   7.950
 4537POPC   C4B 5242  11.170  23.075   7.650
 4538POPC   NC3 5243  32.259  12.097   9.450
 4538POPC   PO4 5244  32.263  12.076   9.150
 4538POPC   GL1 5245  32.223  12.042   8.850
 4538POPC   GL2 5246  32.219  11.942   8.850
 4538POPC   C1A 5247  32.219  12.035   8.550
 4538POPC   D2A 5248  32.268  12.035   8.250
 4538POPC   C3A 5249  32.274  12.043   7.950
 4538POPC   C4A 5250  32.204  12.105   7.650
 4538POPC   C1B 5251  32.169  11.824   8.550
 4538POPC   C2B 5252  32.120  11.848   8.250
 4538POPC   C3B 5253  32.165  11.811   7.950
 4538POPC   C4B 5254  32.129  11.881   7.650
 4539POPC   NC3 5255  30.739   1.194   9.450
 4539POPC   PO4 5256  30.699   1.249   9.150
 4539POPC   GL1 5257  30.722   1.233   8.850
 4539POPC   GL2 5258  30.618   1.227   8.850
 4539POPC   C1A 5259  30.649   1.250   8.550
 4539POPC   D2A 5260  30.742   1.255   8.250
 4539POPC   C3A 5261  30.660   1.252   7.950
 4539POPC   C4A 5262  30.677   1.174   7.650
 4539POPC   C1B 5263  30.444   1.217   8.550
 4539POPC   C2B 5264  30.421   1.183   8.250
 4539POPC   C3B 5265  30.418   1.228   7.950
 4539POPC   C4B 5266  30.426   1.185   7.650
 4540POPC   NC3 5267  15.179  41.524   9.450
 4540POPC   PO4 5268  15.213  41.581   9.150
 4540POPC   GL1 5269  15.183  41.558   8.850
 4540POPC   GL2 5270  15.227  41.616   8.850
 4540POPC   C1A 5271  15.212  41.513   8.550
 4540POPC   D2A 5272  15.132  41.526   8.250
 4540POPC   C3A 5273  15.143  41.535   7.950
 4540POPC   C4A 5274  15.151  41.573   7.650
 4540POPC   C1B 5275  15.335  41.737   8.550
 4540POPC   C2B 5276  15.387  41.732   8.250
 4540POPC   C3B 5277  15.352  41.704   7.950
 4540POPC   C4B 5278  15.358  41.765   7.650
 4541POPC   NC3 5279  43.085   5.821   9.450
 4541POPC   PO4 5280  43.141   5.916   9.150
 4541POPC   GL1 5281  43.125   5.887   8.850
 4541POPC   GL2 5282  43.251   5.746   8.850
 4541POPC   C1A 5283  43.107   5.834   8.550
 4541POPC   D2A 5284  43.140   5.871   8.250
 4541POPC   C3A 5285  43.139   5.877   7.950
 4541POPC   C4A 5286  43.078   5.914   7.650
 4541POPC   C1B 5287  43.268   5.690   8.550
 4541POPC   C2B 5288  43.304   5.756   8.250
 4541POPC   C3B 5289  43.257   5.694   7.950
 4541POPC   C4B 5290  43.259   5.702   7.650
 4542POPC   NC3 5291  32.288  24.458   9.450
 4542POPC   PO4 5292  32.225  24.532   9.150
 4542POPC   GL1 5293  32.268  24.524   8.850
 4542POPC   GL2 5294  32.218  24.390   8.850
 4542POPC   C1A 5295  32.295  24.508   8.550
 4542POPC   D2A 5296  32.292  24.502   8.250
 4542POPC   C3A 5297  32.226  24.539   7.950
 4542POPC   C4A 5298  32.206  24.534   7.650
 4542POPC   C1B 5299  32.168  24.250   8.550
 4542POPC   C2B 5300  32.196  24.236   8.250
 4542POPC   C3B 5301  32.179  24.275   7.950
 4542POPC   C4B 5302  32.157  24.269   7.650
 4543POPC   NC3 5303  22.208   4.362   9.450
 4543POPC   PO4 5304  22.200   4.320   9.150
 4543POPC   GL1 5305  22.208   4.282   8.850
 4543POPC   GL2 5306  22.067   4.417   8.850
 4543POPC   C1A 5307  22.196   4.290   8.550
 4543POPC   D2A 5308  22.135   4.307   8.250
 4543POPC   C3A 5309  22.138   4.301   7.950
 4543POPC   C4A 5310  22.139   4.288   7.650
 4543POPC   C1B 5311  22.093   4.582   8.550
 4543POPC   C2B 5312  22.049   4.582   8.250
 4543POPC   C3B 5313  22.059   4.567   7.950
 4543POPC   C4B 5314  22.105   4.508   7.650
 4544POPC   NC3 5315  26.054   9.002   9.450
 4544POPC   PO4 5316  26.033   8.955   9.150
 4544POPC   GL1 5317  26.025   8.966   8.850
 4544POPC   GL2 5318  26.153   8.901   8.850
 4544POPC   C1A 5319  26.006   8.967   8.550
 4544POPC   D2A 5320  26.057   8.928   8.250
 4544POPC   C3A 5321  26.091   9.019   7.950
 4544POPC   C4A 5322  26.018   8.939   7.650
 4544POPC   C1B 5323  26.205   8.749   8.550
 4544POPC   C2B 5324  26.175   8.740   8.250
 4544POPC   C3B 5325  26.162   8.796   7.950
 4544POPC   C4B 5326  26.123   8.756   7.650
 4545POPC   NC3 5327  19.047  13.675   9.450
 4545POPC   PO4 5328  19.010  13.620   9.150
 4545POPC   GL1 5329  19.017  13.604   8.850
 4545POPC   GL2 5330  18.938  13.525   8.850
 4545POPC   C1A 5331  19.105  13.593   8.550
 4545POPC   D2A 5332  19.104  13.601   8.250
 4545POPC   C3A 5333  19.010  13.614   7.950
 4545POPC   C4A 5334  19.028  13.632   7.650
 4545POPC   C1B 5335  18.883  13.457   8.550
 4545POPC   C2B 5336  18.864  13.457   8.250
 4545POPC   C3B 5337  18.885  13.531   7.950
 4545POPC   C4B 5338  18.834  13.522   7.650
 4546POPC   NC3 5339  33.777  23.736   9.450
 4546POPC   PO4 5340  33.790  23.683   9.150
 4546POPC   GL1 5341  33.821  23.685   8.850
 4546POPC   GL2 5342  33.839  23.622   8.850
 4546POPC   C1A 5343  33.786  23.685   8.550
 4546POPC   D2A 5344  33.813  23.665   8.250
 4546POPC   C3A 5345  33.838  23.694   7.950
 4546POPC   C4A 5346  33.785  23.755   7.650
 4546POPC   C1B 5347  33.805  23.462   8.550
 4546POPC   C2B 5348  33.770  23.482   8.250
 4546POPC   C3B 5349  33.840  23.488   7.950
 4546POPC   C4B 5350  33.744  23.473   7.650
 4547POPC   NC3 5351  15.133   0.476   9.450
 4547POPC   PO4 5352  15.158   0.389   9.150
 4547POPC   GL1 5353  15.176   0.429   8.850
 4547POPC   GL2 5354  15.077   0.577   8.850
 4547POPC   C1A 5355  15.177   0.403   8.550
 4547POPC   D2A 5356  15.150   0.464   8.250
 4547POPC   C3A 5357  15.225   0.395   7.950
 4547POPC   C4A 5358  15.178   0.407   7.650
 4547POPC   C1B 5359  15.060   0.664   8.550
 4547POPC   C2B 5360  15.116   0.641   8.250
 4547POPC   C3B 5361  15.074   0.617   7.950
 4547POPC   C4B 5362  15.099   0.670   7.650
 4548POPC   NC3 5363  15.990  28.388   9.450
 4548POPC   PO4 5364  15.942  28.408   9.150
 4548POPC   GL1 5365  15.951  28.406   8.850
 4548POPC   GL2 5366  15.863  28.300   8.850
 4548POPC   C1A 5367  15.925  28.358   8.550
 4548POPC   D2A 5368  15.953  28.354   8.250
 4548POPC   C3A 5369  15.943  28.324   7.950
 4548POPC   C4A 5370  15.954  28.373   7.650
 4548POPC   C1B 5371  15.867  28.193   8.550
 4548POPC   C2B 5372  15.820  28.175   8.250
 4548POPC   C3B 5373  15.806  28.162   7.950
 4548POPC   C4B 5374  15.832  28.160   7.650
 4549POPC   NC3 5375  30.742   4.317   9.450
 4549POPC   PO4 5376  30.740   4.279   9.150
 4549POPC   GL1 5377  30.739   4.353   8.850
 4549POPC   GL2 5378  30.660   4.180   8.850
 4549POPC   C1A 5379  30.671   4.348   8.550
 4549POPC   D2A 5380  30.731   4.348   8.250
 4549POPC   C3A 5381  30.712   4.319   7.950
 4549POPC   C4A 5382  30.741   4.364   7.650
 4549POPC   C1B 5383  30.491   4.117   8.550
 4549POPC   C2B 5384  30.572   4.160   8.250
 4549POPC   C3B 5385  30.568   4.114   7.950
 4549POPC   C4B 5386  30.509   4.086   7.650
 4550POPC   NC3 5387  19.060  29.193   9.450
 4550POPC   PO4 5388  19.054  29.143   9.150
 4550POPC   GL1 5389  19.059  29.187   8.850
 4550POPC   GL2 5390  18.941  29.100   8.850
 4550POPC   C1A 5391  19.014  29.163   8.550
 4550POPC   D2A 5392  19.044  29.123   8.250
 4550POPC   C3A 5393  19.034  29.150   7.950
 4550POPC   C4A 5394  19.078  29.147   7.650
 4550POPC   C1B 5395  18.764  29.073   8.550
 4550POPC   C2B 5396  18.769  29.154   8.250
 4550POPC   C3B 5397  18.766  29.127   7.950
 4550POPC   C4B 5398  18.785  29.163   7.650
 4551POPC   NC3 5399   0.412   4.327   9.450
 4551POPC   PO4 5400   0.413   4.272   9.150
 4551POPC   GL1 5401   0.417   4.358   8.850
 4551POPC   GL2 5402   0.325   4.305   8.850
 4551POPC   C1A 5403   0.453   4.347   8.550
 4551POPC   D2A 5404   0.470   4.344   8.250
 4551POPC   C3A 5405   0.426   4.365   7.950
 4551POPC   C4A 5406   0.457   4.317   7.650
 4551POPC   C1B 5407   0.229   4.408   8.550
 4551POPC   C2B 5408   0.217   4.356   8.250
 4551POPC   C3B 5409   0.162   4.372   7.950
 4551POPC   C4B 5410   0.192   4.407   7.650
 4552POPC   NC3 5411  36.864   3.577   9.450
 4552POPC   PO4 5412  36.917   3.574   9.150
 4552POPC   GL1 5413  36.883   3.508   8.850
 4552POPC   GL2 5414  36.876   3.460   8.850
 4552POPC   C1A 5415  36.861   3.531   8.550
 4552POPC   D2A 5416  36.906   3.497   8.250
 4552POPC   C3A 5417  36.916   3.591   7.950
 4552POPC   C4A 5418  36.890   3.545   7.650
 4552POPC   C1B 5419  36.917   3.323   8.550
 4552POPC   C2B 5420  36.917   3.298   8.250
 4552POPC   C3B 5421  36.949   3.288   7.950
 4552POPC   C4B 5422  36.955   3.331   7.650
 4553POPC   NC3 5423  36.880   1.170   9.450
 4553POPC   PO4 5424  36.940   1.171   9.150
 4553POPC   GL1 5425  36.911   1.259   8.850
 4553POPC   GL2 5426  37.018   1.145   8.850
 4553POPC   C1A 5427  36.915   1.196   8.550
 4553POPC   D2A 5428  36.902   1.175   8.250
 4553POPC   C3A 5429  36.923   1.166   7.950
 4553POPC   C4A 5430  36.948   1.196   7.650
 4553POPC   C1B 5431  37.171   1.099   8.550
 4553POPC   C2B 5432  37.090   1.102   8.250
 4553POPC   C3B 5433  37.109   1.110   7.950
 4553POPC   C4B 5434  37.172   1.071   7.650
 4554POPC   NC3 5435  22.135  34.536   9.450
 4554POPC   PO4 5436  22.165  34.581   9.150
 4554POPC   GL1 5437  22.190  34.605   8.850
 4554POPC   GL2 5438  22.136  34.488   8.850
 4554POPC   C1A 5439  22.118  34.609   8.550
 4554POPC   D2A 5440  22.153  34.565   8.250
 4554POPC   C3A 5441  22.190  34.600   7.950
 4554POPC   C4A 5442  22.122  34.611   7.650
 4554POPC   C1B 5443  22.086  34.318   8.550
 4554POPC   C2B 5444  22.111  34.323   8.250
 4554POPC   C3B 5445  22.037  34.382   7.950
 4554POPC   C4B 5446  22.077  34.327   7.650
 4555POPC   NC3 5447  29.133  36.093   9.450
 4555POPC   PO4 5448  29.114  36.154   9.150
 4555POPC   GL1 5449  29.168  36.176   8.850
 4555POPC   GL2 5450  29.009  36.036   8.850
 4555POPC   C1A 5451  29.157  36.166   8.550
 4555POPC   D2A 5452  29.182  36.090   8.250
 4555POPC   C3A 5453  29.114  36.119   7.950
 4555POPC   C4A 5454  29.177  36.109   7.650
 4555POPC   C1B 5455  28.970  35.928   8.550
 4555POPC   C2B 5456  28.970  35.972   8.250
 4555POPC   C3B 5457  28.996  35.947   7.950
 4555POPC   C4B 5458  28.954  35.989   7.650
 4556POPC   NC3 5459  29.141  42.375   9.450
 4556POPC   PO4 5460  29.186  42.319   9.150
 4556POPC   GL1 5461  29.194  42.356   8.850
 4556POPC   GL2 5462  29.093  42.178   8.850
 4556POPC   C1A 5463  29.188  42.323   8.550
 4556POPC   D2A 5464  29.167  42.342   8.250
 4556POPC   C3A 5465  29.122  42.317   7.950
 4556POPC   C4A 5466  29.184  42.359   7.650
 4556POPC   C1B 5467  29.161  42.049   8.550
 4556POPC   C2B 5468  29.121  42.082   8.250
 4556POPC   C3B 5469  29.095  42.077   7.950
 4556POPC   C4B 5470  29.128  42.098   7.650
 4557POPC   NC3 5471  23.691  34.616   9.450
 4557POPC   PO4 5472  23.720  34.571   9.150
 4557POPC   GL1 5473  23.754  34.594   8.850
 4557POPC   GL2 5474  23.669  34.667   8.850
 4557POPC   C1A 5475  23.712  34.613   8.550
 4557POPC   D2A 5476  23.709  34.530   8.250
 4557POPC   C3A 5477  23.721  34.571   7.950
 4557POPC   C4A 5478  23.711  34.590   7.650
 4557POPC   C1B 5479  23.641  34.788   8.550
 4557POPC   C2B 5480  23.673  34.804   8.250
 4557POPC   C3B 5481  23.654  34.789   7.950
 4557POPC   C4B 5482  23.625  34.792   7.650
 4558POPC   NC3 5483  12.042  22.135   9.450
 4558POPC   PO4 5484  12.054  22.140   9.150
 4558POPC   GL1 5485  12.040  22.185   8.850
 4558POPC   GL2 5486  12.023  22.030   8.850
 4558POPC   C1A 5487  12.105  22.199   8.550
 4558POPC   D2A 5488  12.040  22.148   8.250
 4558POPC   C3A 5489  12.107  22.161   7.950
 4558POPC   C4A 5490  12.050  22.211   7.650
 4558POPC   C1B 5491  11.899  21.957   8.550
 4558POPC   C2B 5492  11.916  21.969   8.250
 4558POPC   C3B 5493  11.933  22.002   7.950
 4558POPC   C4B 5494  11.940  21.950   7.650
 4559POPC   NC3 5495  15.173  40.011   9.450
 4559POPC   PO4 5496  15.215  40.055   9.150
 4559POPC   GL1 5497  15.205  39.971   8.850
 4559POPC   GL2 5498  15.290  39.957   8.850
 4559POPC   C1A 5499  15.205  39.999   8.550
 4559POPC   D2A 5500  15.189  40.025   8.250
 4559POPC   C3A 5501  15.178  40.003   7.950
 4559POPC   C4A 5502  15.157  40.001   7.650
 4559POPC   C1B 5503  15.377  39.925   8.550
 4559POPC   C2B 5504  15.391  39.973   8.250
 4559POPC   C3B 5505  15.393  39.996   7.950
 4559POPC   C4B 5506  15.375  39.958   7.650
 4560POPC   NC3 5507   1.193   1.983   9.450
 4560POPC   PO4 5508   1.193   1.993   9.150
 4560POPC   GL1 5509   1.183   1.949   8.850
 4560POPC   GL2 5510   1.097   1.959   8.850
 4560POPC   C1A 5511   1.241   1.965   8.550
 4560POPC   D2A 5512   1.196   2.008   8.250
 4560POPC   C3A 5513   1.168   1.988   7.950
 4560POPC   C4A 5514   1.249   1.989   7.650
 4560POPC   C1B 5515   0.991   1.866   8.550
 4560POPC   C2B 5516   0.927   1.898   8.250
 4560POPC   C3B 5517   1.000   1.895   7.950
 4560POPC   C4B 5518   0.946   1.893   7.650
 4561POPC   NC3 5519   2.789   2.805   9.450
 4561POPC   PO4 5520   2.775   2.787   9.150
 4561POPC   GL1 5521   2.809   2.755   8.850
 4561POPC   GL2 5522   2.913   2.644   8.850
 4561POPC   C1A 5523   2.768   2.769   8.550
 4561POPC   D2A 5524   2.736   2.774   8.250
 4561POPC   C3A 5525   2.809   2.737   7.950
 4561POPC   C4A 5526   2.730   2.732   7.650
 4561POPC   C1B 5527   2.973   2.597   8.550
 4561POPC   C2B 5528   3.017   2.632   8.250
 4561POPC   C3B 5529   2.995   2.588   7.950
 4561POPC   C4B 5530   2.975   2.589   7.650
 4562POPC   NC3 5531   5.065  12.854   9.450
 4562POPC   PO4 5532   5.057  12.866   9.150
 4562POPC   GL1 5533   5.140  12.869   8.850
 4562POPC   GL2 5534   5.068  12.734   8.850
 4562POPC   C1A 5535   5.142  12.872   8.550
 4562POPC   D2A 5536   5.121  12.822   8.250
 4562POPC   C3A 5537   5.139  12.878   7.950
 4562POPC   C4A 5538   5.123  12.868   7.650
 4562POPC   C1B 5539   5.016  12.637   8.550
 4562POPC   C2B 5540   5.017  12.629   8.250
 4562POPC   C3B 5541   5.015  12.614   7.950
 4562POPC   C4B 5542   5.025  12.599   7.650
 4563POPC   NC3 5543  28.351  13.663   9.450
 4563POPC   PO4 5544  28.406  13.650   9.150
 4563POPC   GL1 5545  28.355  13.627   8.850
 4563POPC   GL2 5546  28.249  13.669   8.850
 4563POPC   C1A 5547  28.417  13.643   8.550
 4563POPC   D2A 5548  28.377  13.659   8.250
 4563POPC   C3A 5549  28.346  13.597   7.950
 4563POPC   C4A 5550  28.402  13.669   7.650
 4563POPC   C1B 5551  28.134  13.654   8.550
 4563POPC   C2B 5552  28.158  13.647   8.250
 4563POPC   C3B 5553  28.156  13.627   7.950
 4563POPC   C4B 5554  28.163  13.610   7.650
 4564POPC   NC3 5555  15.168  30.678   9.450
 4564POPC   PO4 5556  15.131  30.659   9.150
 4564POPC   GL1 5557  15.159  30.717   8.850
 4564POPC   GL2 5558  15.263  30.540   8.850
 4564POPC   C1A 5559  15.187  30.660   8.550
 4564POPC   D2A 5560  15.175  30.722   8.250
 4564POPC   C3A 5561  15.206  30.655   7.950
 4564POPC   C4A 5562  15.189  30.743   7.650
 4564POPC   C1B 5563  15.253  30.476   8.550
 4564POPC   C2B 5564  15.320  30.506   8.250
 4564POPC   C3B 5565  15.324  30.499   7.950
 4564POPC   C4B 5566  15.312  30.491   7.650
 4565POPC   NC3 5567   1.218  41.521   9.450
 4565POPC   PO4 5568   1.197  41.523   9.150
 4565POPC   GL1 5569   1.263  41.525   8.850
 4565POPC   GL2 5570   1.146  41.632   8.850
 4565POPC   C1A 5571   1.246  41.542   8.550
 4565POPC   D2A 5572   1.263  41.519   8.250
 4565POPC   C3A 5573   1.204  41.542   7.950
 4565POPC   C4A 5574   1.202  41.517   7.650
 4565POPC   C1B 5575   1.158  41.802   8.550
 4565POPC   C2B 5576   1.114  41.783   8.250
 4565POPC   C3B 5577   1.128  41.834   7.950
 4565POPC   C4B 5578   1.182  41.843   7.650
 4566POPC   NC3 5579  19.824  20.567   9.450
 4566POPC   PO4 5580  19.830  20.612   9.150
 4566POPC   GL1 5581  19.820  20.586   8.850
 4566POPC   GL2 5582  19.941  20.528   8.850
 4566POPC   C1A 5583  19.879  20.580   8.550
 4566POPC   D2A 5584  19.805  20.593   8.250
 4566POPC   C3A 5585  19.851  20.567   7.950
 4566POPC   C4A 5586  19.827  20.591   7.650
 4566POPC   C1B 5587  20.028  20.515   8.550
 4566POPC   C2B 5588  20.018  20.450   8.250
 4566POPC   C3B 5589  20.077  20.491   7.950
 4566POPC   C4B 5590  19.995  20.516   7.650
 4567POPC   NC3 5591  18.272  36.902   9.450
 4567POPC   PO4 5592  18.277  36.937   9.150
 4567POPC   GL1 5593  18.307  36.908   8.850
 4567POPC   GL2 5594  18.282  36.802   8.850
 4567POPC   C1A 5595  18.239  36.942   8.550
 4567POPC   D2A 5596  18.244  36.922   8.250
 4567POPC   C3A 5597  18.290  36.942   7.950
 4567POPC   C4A 5598  18.310  36.946   7.650
 4567POPC   C1B 5599  18.307  36.694   8.550
 4567POPC   C2B 5600  18.225  36.691   8.250
 4567POPC   C3B 5601  18.297  36.613   7.950
 4567POPC   C4B 5602  18.236  36.612   7.650
 4568POPC   NC3 5603  42.339   7.393   9.450
 4568POPC   PO4 5604  42.300   7.439   9.150
 4568POPC   GL1 5605  42.340   7.408   8.850
 4568POPC   GL2 5606  42.246   7.511   8.850
 4568POPC   C1A 5607  42.337   7.453   8.550
 4568POPC   D2A 5608  42.380   7.392   8.250
 4568POPC   C3A 5609  42.317   7.464   7.950
 4568POPC   C4A 5610  42.320   7.409   7.650
 4568POPC   C1B 5611  42.162   7.628   8.550
 4568POPC   C2B 5612  42.262   7.659   8.250
 4568POPC   C3B 5613  42.215   7.652   7.950
 4568POPC   C4B 5614  42.175   7.632   7.650
 4569POPC   NC3 5615   7.460  31.459   9.450
 4569POPC   PO4 5616   7.443  31.476   9.150
 4569POPC   GL1 5617   7.399  31.442   8.850
 4569POPC   GL2 5618   7.292  31.538   8.850
 4569POPC   C1A 5619   7.413  31.466   8.550
 4569POPC   D2A 5620   7.391  31.490   8.250
 4569POPC   C3A 5621   7.465  31.482   7.950
 4569POPC   C4A 5622   7.419  31.500   7.650
 4569POPC   C1B 5623   7.274  31.643   8.550
 4569POPC   C2B 5624   7.239  31.699   8.250
 4569POPC   C3B 5625   7.232  31.632   7.950
 4569POPC   C4B 5626   7.279  31.671   7.650
 4570POPC   NC3 5627  43.076   4.356   9.450
 4570POPC   PO4 5628  43.095   4.331   9.150
 4570POPC   GL1 5629  43.143   4.277   8.850
 4570POPC   GL2 5630  42.994   4.253   8.850
 4570POPC   C1A 5631  43.074   4.314   8.550
 4570POPC   D2A 5632  43.148   4.290   8.250
 4570POPC   C3A 5633  43.141   4.353   7.950
 4570POPC   C4A 5634  43.145   4.310   7.650
 4570POPC   C1B 5635  42.928   4.153   8.550
 4570POPC   C2B 5636  42.927   4.115   8.250
 4570POPC   C3B 5637  42.959   4.152   7.950
 4570POPC   C4B 5638  42.962   4.175   7.650
 4571POPC   NC3 5639  27.568  20.610   9.450
 4571POPC   PO4 5640  27.624  20.660   9.150
 4571POPC   GL1 5641  27.560  20.615   8.850
 4571POPC   GL2 5642  27.435  20.644   8.850
 4571POPC   C1A 5643  27.627  20.630   8.550
 4571POPC   D2A 5644  27.604  20.645   8.250
 4571POPC   C3A 5645  27.582  20.643   7.950
 4571POPC   C4A 5646  27.636  20.659   7.650
 4571POPC   C1B 5647  27.355  20.646   8.550
 4571POPC   C2B 5648  27.398  20.699   8.250
 4571POPC   C3B 5649  27.383  20.670   7.950
 4571POPC   C4B 5650  27.316  20.677   7.650
 4572POPC   NC3 5651   9.719  28.398   9.450
 4572POPC   PO4 5652   9.735  28.408   9.150
 4572POPC   GL1 5653   9.742  28.401   8.850
 4572POPC   GL2 5654   9.751  28.250   8.850
 4572POPC   C1A 5655   9.706  28.374   8.550
 4572POPC   D2A 5656   9.703  28.400   8.250
 4572POPC   C3A 5657   9.707  28.361   7.950
 4572POPC   C4A 5658   9.764  28.368   7.650
 4572POPC   C1B 5659   9.812  28.166   8.550
 4572POPC   C2B 5660   9.763  28.147   8.250
 4572POPC   C3B 5661   9.763  28.112   7.950
 4572POPC   C4B 5662   9.776  28.120   7.650
 4573POPC   NC3 5663   8.956  24.442   9.450
 4573POPC   PO4 5664   8.995  24.483   9.150
 4573POPC   GL1 5665   8.974  24.467   8.850
 4573POPC   GL2 5666   9.060  24.485   8.850
 4573POPC   C1A 5667   8.968  24.525   8.550
 4573POPC   D2A 5668   8.969  24.471   8.250
 4573POPC   C3A 5669   9.013  24.453   7.950
 4573POPC   C4A 5670   8.996  24.496   7.650
 4573POPC   C1B 5671   9.249  24.484   8.550
 4573POPC   C2B 5672   9.260  24.497   8.250
 4573POPC   C3B 5673   9.227  24.471   7.950
 4573POPC   C4B 5674   9.202  24.528   7.650
 4574POPC   NC3 5675  23.707  40.036   9.450
 4574POPC   PO4 5676  23.726  40.053   9.150
 4574POPC   GL1 5677  23.748  40.044   8.850
 4574POPC   GL2 5678  23.555  39.963   8.850
 4574POPC   C1A 5679  23.738  39.973   8.550
 4574POPC   D2A 5680  23.713  39.959   8.250
 4574POPC   C3A 5681  23.713  40.036   7.950
 4574POPC   C4A 5682  23.708  39.997   7.650
 4574POPC   C1B 5683  23.477  39.890   8.550
 4574POPC   C2B 5684  23.479  39.916   8.250
 4574POPC   C3B 5685  23.476  39.873   7.950
 4574POPC   C4B 5686  23.435  39.886   7.650
 4575POPC   NC3 5687  40.045  23.732   9.450
 4575POPC   PO4 5688  39.965  23.667   9.150
 4575POPC   GL1 5689  39.959  23.669   8.850
 4575POPC   GL2 5690  40.117  23.791   8.850
 4575POPC   C1A 5691  39.970  23.730   8.550
 4575POPC   D2A 5692  40.034  23.697   8.250
 4575POPC   C3A 5693  39.958  23.747   7.950
 4575POPC   C4A 5694  40.011  23.760   7.650
 4575POPC   C1B 5695  40.176  23.805   8.550
 4575POPC   C2B 5696  40.238  23.863   8.250
 4575POPC   C3B 5697  40.247  23.793   7.950
 4575POPC   C4B 5698  40.191  23.887   7.650
 4576POPC   NC3 5699  17.545  37.712   9.450
 4576POPC   PO4 5700  17.549  37.678   9.150
 4576POPC   GL1 5701  17.528  37.660   8.850
 4576POPC   GL2 5702  17.408  37.651   8.850
 4576POPC   C1A 5703  17.530  37.706   8.550
 4576POPC   D2A 5704  17.503  37.635   8.250
 4576POPC   C3A 5705  17.529  37.702   7.950
 4576POPC   C4A 5706  17.513  37.658   7.650
 4576POPC   C1B 5707  17.309  37.688   8.550
 4576POPC   C2B 5708  17.300  37.612   8.250
 4576POPC   C3B 5709  17.231  37.649   7.950
 4576POPC   C4B 5710  17.283  37.640   7.650
 4577POPC   NC3 5711  33.790   8.945   9.450
 4577POPC   PO4 5712  33.754   9.004   9.150
 4577POPC   GL1 5713  33.828   8.978   8.850
 4577POPC   GL2 5714  33.837   9.066   8.850
 4577POPC   C1A 5715  33.776   8.990   8.550
 4577POPC   D2A 5716  33.841   9.020   8.250
 4577POPC   C3A 5717  33.815   8.972   7.950
 4577POPC   C4A 5718  33.804   8.923   7.650
 4577POPC   C1B 5719  33.818   9.258   8.550
 4577POPC   C2B 5720  33.872   9.230   8.250
 4577POPC   C3B 5721  33.862   9.183   7.950
 4577POPC   C4B 5722  33.847   9.196   7.650
 4578POPC   NC3 5723   1.208  38.428   9.450
 4578POPC   PO4 5724   1.202  38.500   9.150
 4578POPC   GL1 5725   1.164  38.434   8.850
 4578POPC   GL2 5726   1.282  38.350   8.850
 4578POPC   C1A 5727   1.214  38.462   8.550
 4578POPC   D2A 5728   1.240  38.495   8.250
 4578POPC   C3A 5729   1.171  38.412   7.950
 4578POPC   C4A 5730   1.223  38.412   7.650
 4578POPC   C1B 5731   1.371  38.244   8.550
 4578POPC   C2B 5732   1.366  38.288   8.250
 4578POPC   C3B 5733   1.361  38.221   7.950
 4578POPC   C4B 5734   1.386  38.254   7.650
 4579POPC   NC3 5735  22.924  23.737   9.450
 4579POPC   PO4 5736  22.975  23.692   9.150
 4579POPC   GL1 5737  22.939  23.721   8.850
 4579POPC   GL2 5738  22.869  23.628   8.850
 4579POPC   C1A 5739  22.933  23.694   8.550
 4579POPC   D2A 5740  22.938  23.682   8.250
 4579POPC   C3A 5741  22.926  23.707   7.950
 4579POPC   C4A 5742  22.932  23.707   7.650
 4579POPC   C1B 5743  22.748  23.564   8.550
 4579POPC   C2B 5744  22.712  23.595   8.250
 4579POPC   C3B 5745  22.730  23.528   7.950
 4579POPC   C4B 5746  22.787  23.581   7.650
 4580POPC   NC3 5747  40.753   5.888   9.450
 4580POPC   PO4 5748  40.814   5.904   9.150
 4580POPC   GL1 5749  40.820   5.895   8.850
 4580POPC   GL2 5750  40.931   5.886   8.850
 4580POPC   C1A 5751  40.781   5.863   8.550
 4580POPC   D2A 5752  40.749   5.848   8.250
 4580POPC   C3A 5753  40.810   5.877   7.950
 4580POPC   C4A 5754  40.751   5.848   7.650
 4580POPC   C1B 5755  40.995   5.917   8.550
 4580POPC   C2B 5756  41.017   5.845   8.250
 4580POPC   C3B 5757  41.072   5.863   7.950
 4580POPC   C4B 5758  41.080   5.940   7.650
 4581POPC   NC3 5759   5.067  23.678   9.450
 4581POPC   PO4 5760   5.111  23.728   9.150
 4581POPC   GL1 5761   5.128  23.755   8.850
 4581POPC   GL2 5762   5.000  23.762   8.850
 4581POPC   C1A 5763   5.053  23.705   8.550
 4581POPC   D2A 5764   5.130  23.700   8.250
 4581POPC   C3A 5765   5.104  23.673   7.950
 4581POPC   C4A 5766   5.057  23.719   7.650
 4581POPC   C1B 5767   4.864  23.817   8.550
 4581POPC   C2B 5768   4.848  23.761   8.250
 4581POPC   C3B 5769   4.819  23.804   7.950
 4581POPC   C4B 5770   4.811  23.740   7.650
 4582POPC   NC3 5771  10.555  43.141   9.450
 4582POPC   PO4 5772  10.540  43.146   9.150
 4582POPC   GL1 5773  10.483  43.124   8.850
 4582POPC   GL2 5774  10.667  43.201   8.850
 4582POPC   C1A 5775  10.568  43.128   8.550
 4582POPC   D2A 5776  10.528  43.111   8.250
 4582POPC   C3A 5777  10.570  43.074   7.950
 4582POPC   C4A 5778  10.514  43.158   7.650
 4582POPC   C1B 5779  10.729  43.275   8.550
 4582POPC   C2B 5780  10.737  43.262   8.250
 4582POPC   C3B 5781  10.699  43.253   7.950
 4582POPC   C4B 5782  10.688  43.228   7.650
 4583POPC   NC3 5783  13.597  22.204   9.450
 4583POPC   PO4 5784  13.598  22.211   9.150
 4583POPC   GL1 5785  13.652  22.130   8.850
 4583POPC   GL2 5786  13.694  22.317   8.850
 4583POPC   C1A 5787  13.668  22.164   8.550
 4583POPC   D2A 5788  13.579  22.203   8.250
 4583POPC   C3A 5789  13.594  22.116   7.950
 4583POPC   C4A 5790  13.667  22.190   7.650
 4583POPC   C1B 5791  13.714  22.392   8.550
 4583POPC   C2B 5792  13.718  22.426   8.250
 4583POPC   C3B 5793  13.711  22.423   7.950
 4583POPC   C4B 5794  13.768  22.358   7.650
 4584POPC   NC3 5795  14.444  41.583   9.450
 4584POPC   PO4 5796  14.405  41.542   9.150
 4584POPC   GL1 5797  14.405  41.525   8.850
 4584POPC   GL2 5798  14.474  41.461   8.850
 4584POPC   C1A 5799  14.378  41.587   8.550
 4584POPC   D2A 5800  14.372  41.569   8.250
 4584POPC   C3A 5801  14.364  41.585   7.950
 4584POPC   C4A 5802  14.430  41.574   7.650
 4584POPC   C1B 5803  14.493  41.358   8.550
 4584POPC   C2B 5804  14.518  41.368   8.250
 4584POPC   C3B 5805  14.445  41.345   7.950
 4584POPC   C4B 5806  14.536  41.372   7.650
 4585POPC   NC3 5807  14.391  32.235   9.450
 4585POPC   PO4 5808  14.368  32.233   9.150
 4585POPC   GL1 5809  14.424  32.235   8.850
 4585POPC   GL2 5810  14.366  32.088   8.850
 4585POPC   C1A 5811  14.438  32.207   8.550
 4585POPC   D2A 5812  14.361  32.285   8.250
 4585POPC   C3A 5813  14.408  32.222   7.950
 4585POPC   C4A 5814  14.402  32.227   7.650
 4585POPC   C1B 5815  14.292  32.042   8.550
 4585POPC   C2B 5816  14.284  32.006   8.250
 4585POPC   C3B 5817  14.360  32.039   7.950
 4585POPC   C4B 5818  14.319  31.999   7.650
 4586POPC   NC3 5819  31.453   2.018   9.450
 4586POPC   PO4 5820  31.445   2.002   9.150
 4586POPC   GL1 5821  31.495   1.958   8.850
 4586POPC   GL2 5822  31.392   2.056   8.850
 4586POPC   C1A 5823  31.426   2.022   8.550
 4586POPC   D2A 5824  31.464   2.028   8.250
 4586POPC   C3A 5825  31.487   1.967   7.950
 4586POPC   C4A 5826  31.431   1.944   7.650
 4586POPC   C1B 5827  31.220   2.124   8.550
 4586POPC   C2B 5828  31.276   2.057   8.250
 4586POPC   C3B 5829  31.200   2.113   7.950
 4586POPC   C4B 5830  31.199   2.107   7.650
 4587POPC   NC3 5831  14.396   8.148   9.450
 4587POPC   PO4 5832  14.359   8.190   9.150
 4587POPC   GL1 5833  14.358   8.192   8.850
 4587POPC   GL2 5834  14.518   8.252   8.850
 4587POPC   C1A 5835  14.383   8.188   8.550
 4587POPC   D2A 5836  14.403   8.228   8.250
 4587POPC   C3A 5837  14.414   8.216   7.950
 4587POPC   C4A 5838  14.434   8.182   7.650
 4587POPC   C1B 5839  14.581   8.336   8.550
 4587POPC   C2B 5840  14.597   8.418   8.250
 4587POPC   C3B 5841  14.608   8.396   7.950
 4587POPC   C4B 5842  14.598   8.379   7.650
 4588POPC   NC3 5843  19.866  21.418   9.450
 4588POPC   PO4 5844  19.869  21.342   9.150
 4588POPC   GL1 5845  19.824  21.423   8.850
 4588POPC   GL2 5846  19.755  21.479   8.850
 4588POPC   C1A 5847  19.871  21.432   8.550
 4588POPC   D2A 5848  19.848  21.418   8.250
 4588POPC   C3A 5849  19.821  21.351   7.950
 4588POPC   C4A 5850  19.788  21.402   7.650
 4588POPC   C1B 5851  19.669  21.531   8.550
 4588POPC   C2B 5852  19.633  21.530   8.250
 4588POPC   C3B 5853  19.669  21.541   7.950
 4588POPC   C4B 5854  19.617  21.572   7.650
 4589POPC   NC3 5855  44.693  37.700   9.450
 4589POPC   PO4 5856  44.709  37.724   9.150
 4589POPC   GL1 5857  44.666  37.717   8.850
 4589POPC   GL2 5858  44.605  37.792   8.850
 4589POPC   C1A 5859  44.685  37.648   8.550
 4589POPC   D2A 5860  44.639  37.654   8.250
 4589POPC   C3A 5861  44.678  37.671   7.950
 4589POPC   C4A 5862  44.649  37.707   7.650
 4589POPC   C1B 5863  44.467  37.835   8.550
 4589POPC   C2B 5864  44.481  37.775   8.250
 4589POPC   C3B 5865  44.420  37.856   7.950
 4589POPC   C4B 5866  44.442  37.796   7.650
 4590POPC   NC3 5867  19.068  20.573   9.450
 4590POPC   PO4 5868  19.022  20.593   9.150
 4590POPC   GL1 5869  19.025  20.580   8.850
 4590POPC   GL2 5870  19.016  20.510   8.850
 4590POPC   C1A 5871  19.097  20.606   8.550
 4590POPC   D2A 5872  19.020  20.658   8.250
 4590POPC   C3A 5873  19.047  20.569   7.950
 4590POPC   C4A 5874  19.060  20.633   7.650
 4590POPC   C1B 5875  19.029  20.347   8.550
 4590POPC   C2B 5876  18.961  20.399   8.250
 4590POPC   C3B 5877  18.973  20.370   7.950
 4590POPC   C4B 5878  19.000  20.359   7.650
 4591POPC   NC3 5879   8.992  19.842   9.450
 4591POPC   PO4 5880   8.952  19.874   9.150
 4591POPC   GL1 5881   8.982  19.852   8.850
 4591POPC   GL2 5882   8.962  19.737   8.850
 4591POPC   C1A 5883   8.967  19.806   8.550
 4591POPC   D2A 5884   9.001  19.849   8.250
 4591POPC   C3A 5885   9.017  19.841   7.950
 4591POPC   C4A 5886   8.966  19.868   7.650
 4591POPC   C1B 5887   8.953  19.601   8.550
 4591POPC   C2B 5888   8.953  19.580   8.250
 4591POPC   C3B 5889   8.923  19.567   7.950
 4591POPC   C4B 5890   8.920  19.595   7.650
 4592POPC   NC3 5891   5.825   6.663   9.450
 4592POPC   PO4 5892   5.862   6.612   9.150
 4592POPC   GL1 5893   5.901   6.655   8.850
 4592POPC   GL2 5894   5.826   6.537   8.850
 4592POPC   C1A 5895   5.917   6.653   8.550
 4592POPC   D2A 5896   5.842   6.621   8.250
 4592POPC   C3A 5897   5.848   6.607   7.950
 4592POPC   C4A 5898   5.855   6.612   7.650
 4592POPC   C1B 5899   5.707   6.480   8.550
 4592POPC   C2B 5900   5.733   6.422   8.250
 4592POPC   C3B 5901   5.695   6.428   7.950
 4592POPC   C4B 5902   5.755   6.413   7.650
 4593POPC   NC3 5903  42.317  18.272   9.450
 4593POPC   PO4 5904  42.296  18.287   9.150
 4593POPC   GL1 5905  42.296  18.310   8.850
 4593POPC   GL2 5906  42.418  18.371   8.850
 4593POPC   C1A 5907  42.315  18.301   8.550
 4593POPC   D2A 5908  42.291  18.235   8.250
 4593POPC   C3A 5909  42.321  18.318   7.950
 4593POPC   C4A 5910  42.374  18.283   7.650
 4593POPC   C1B 5911  42.574  18.367   8.550
 4593POPC   C2B 5912  42.561  18.360   8.250
 4593POPC   C3B 5913  42.547  18.428   7.950
 4593POPC   C4B 5914  42.517  18.442   7.650
 4594POPC   NC3 5915  34.593  37.684   9.450
 4594POPC   PO4 5916  34.553  37.635   9.150
 4594POPC   GL1 5917  34.572  37.637   8.850
 4594POPC   GL2 5918  34.698  37.746   8.850
 4594POPC   C1A 5919  34.572  37.671   8.550
 4594POPC   D2A 5920  34.580  37.655   8.250
 4594POPC   C3A 5921  34.625  37.684   7.950
 4594POPC   C4A 5922  34.588  37.698   7.650
 4594POPC   C1B 5923  34.771  37.784   8.550
 4594POPC   C2B 5924  34.786  37.820   8.250
 4594POPC   C3B 5925  34.791  37.803   7.950
 4594POPC   C4B 5926  34.758  37.732   7.650
 4595POPC   NC3 5927   6.616  12.865   9.450
 4595POPC   PO4 5928   6.634  12.890   9.150
 4595POPC   GL1 5929   6.634  12.886   8.850
 4595POPC   GL2 5930   6.641  12.751   8.850
 4595POPC   C1A 5931   6.680  12.866   8.550
 4595POPC   D2A 5932   6.676  12.830   8.250
 4595POPC   C3A 5933   6.636  12.885   7.950
 4595POPC   C4A 5934   6.654  12.886   7.650
 4595POPC   C1B 5935   6.746  12.609   8.550
 4595POPC   C2B 5936   6.718  12.568   8.250
 4595POPC   C3B 5937   6.686  12.610   7.950
 4595POPC   C4B 5938   6.691  12.626   7.650
 4596POPC   NC3 5939   5.070  39.975   9.450
 4596POPC   PO4 5940   5.102  40.045   9.150
 4596POPC   GL1 5941   5.046  40.030   8.850
 4596POPC   GL2 5942   5.198  40.005   8.850
 4596POPC   C1A 5943   5.060  40.013   8.550
 4596POPC   D2A 5944   5.054  39.989   8.250
 4596POPC   C3A 5945   5.096  40.030   7.950
 4596POPC   C4A 5946   5.063  40.043   7.650
 4596POPC   C1B 5947   5.388  40.015   8.550
 4596POPC   C2B 5948   5.333  39.951   8.250
 4596POPC   C3B 5949   5.351  39.998   7.950
 4596POPC   C4B 5950   5.303  39.979   7.650
 4597POPC   NC3 5951  16.780   7.400   9.450
 4597POPC   PO4 5952  16.715   7.424   9.150
 4597POPC   GL1 5953  16.712   7.382   8.850
 4597POPC   GL2 5954  16.788   7.513   8.850
 4597POPC   C1A 5955  16.752   7.454   8.550
 4597POPC   D2A 5956  16.763   7.456   8.250
 4597POPC   C3A 5957  16.775   7.411   7.950
 4597POPC   C4A 5958  16.743   7.445   7.650
 4597POPC   C1B 5959  16.745   7.634   8.550
 4597POPC   C2B 5960  16.771   7.685   8.250
 4597POPC   C3B 5961  16.810   7.668   7.950
 4597POPC   C4B 5962  16.764   7.674   7.650
 4598POPC   NC3 5963   6.646   1.964   9.450
 4598POPC   PO4 5964   6.681   1.967   9.150
 4598POPC   GL1 5965   6.687   1.968   8.850
 4598POPC   GL2 5966   6.542   2.087   8.850
 4598POPC   C1A 5967   6.682   2.018   8.550
 4598POPC   D2A 5968   6.692   2.033   8.250
 4598POPC   C3A 5969   6.610   2.024   7.950
 4598POPC   C4A 5970   6.681   1.992   7.650
 4598POPC   C1B 5971   6.486   2.110   8.550
 4598POPC   C2B 5972   6.396   2.121   8.250
 4598POPC   C3B 5973   6.475   2.179   7.950
 4598POPC   C4B 5974   6.403   2.096   7.650
 4599POPC   NC3 5975  25.279  26.042   9.450
 4599POPC   PO4 5976  25.273  26.045   9.150
 4599POPC   GL1 5977  25.247  26.091   8.850
 4599POPC   GL2 5978  25.119  26.000   8.850
 4599POPC   C1A 5979  25.247  26.057   8.550
 4599POPC   D2A 5980  25.272  26.010   8.250
 4599POPC   C3A 5981  25.288  26.005   7.950
 4599POPC   C4A 5982  25.253  26.076   7.650
 4599POPC   C1B 5983  25.012  25.935   8.550
 4599POPC   C2B 5984  25.042  25.935   8.250
 4599POPC   C3B 5985  25.042  25.857   7.950
 4599POPC   C4B 5986  25.049  25.929   7.650
 4600POPC   NC3 5987  42.378  17.551   9.450
 4600POPC   PO4 5988  42.328  17.484   9.150
 4600POPC   GL1 5989  42.369  17.457   8.850
 4600POPC   GL2 5990  42.161  17.510   8.850
 4600POPC   C1A 5991  42.350  17.505   8.550
 4600POPC   D2A 5992  42.361  17.461   8.250
 4600POPC   C3A 5993  42.345  17.483   7.950
 4600POPC   C4A 5994  42.368  17.555   7.650
 4600POPC   C1B 5995  42.106  17.523   8.550
 4600POPC   C2B 5996  42.079  17.539   8.250
 4600POPC   C3B 5997  42.089  17.543   7.950
 4600POPC   C4B 5998  42.117  17.503   7.650
 4601POPC   NC3 5999  22.974   2.034   9.450
 4601POPC   PO4 6000  22.935   1.992   9.150
 4601POPC   GL1 6001  22.895   1.985   8.850
 4601POPC   GL2 6002  23.024   2.102   8.850
 4601POPC   C1A 6003  22.929   1.949   8.550
 4601POPC   D2A 6004  22.937   2.037   8.250
 4601POPC   C3A 6005  22.895   2.014   7.950
 4601POPC   C4A 6006  22.958   1.957   7.650
 4601POPC   C1B 6007  23.151   2.145   8.550
 4601POPC   C2B 6008  23.111   2.159   8.250
 4601POPC   C3B 6009  23.114   2.103   7.950
 4601POPC   C4B 6010  23.163   2.124   7.650
 4602POPC   NC3 6011  15.965  11.279   9.450
 4602POPC   PO4 6012  15.940  11.255   9.150
 4602POPC   GL1 6013  15.953  11.339   8.850
 4602POPC   GL2 6014  16.099  11.341   8.850
 4602POPC   C1A 6015  15.920  11.275   8.550
 4602POPC   D2A 6016  15.938  11.266   8.250
 4602POPC   C3A 6017  15.949  11.296   7.950
 4602POPC   C4A 6018  15.960  11.311   7.650
 4602POPC   C1B 6019  16.148  11.428   8.550
 4602POPC   C2B 6020  16.195  11.436   8.250
 4602POPC   C3B 6021  16.158  11.383   7.950
 4602POPC   C4B 6022  16.177  11.421   7.650
 4603POPC   NC3 6023  22.947  20.652   9.450
 4603POPC   PO4 6024  22.909  20.578   9.150
 4603POPC   GL1 6025  22.965  20.635   8.850
 4603POPC   GL2 6026  22.828  20.554   8.850
 4603POPC   C1A 6027  22.950  20.617   8.550
 4603POPC   D2A 6028  22.955  20.568   8.250
 4603POPC   C3A 6029  22.907  20.645   7.950
 4603POPC   C4A 6030  22.910  20.659   7.650
 4603POPC   C1B 6031  22.714  20.478   8.550
 4603POPC   C2B 6032  22.723  20.492   8.250
 4603POPC   C3B 6033  22.682  20.457   7.950
 4603POPC   C4B 6034  22.715  20.462   7.650
 4604POPC   NC3 6035   9.006  15.996   9.450
 4604POPC   PO4 6036   9.014  15.938   9.150
 4604POPC   GL1 6037   8.924  15.951   8.850
 4604POPC   GL2 6038   9.080  16.040   8.850
 4604POPC   C1A 6039   8.934  15.976   8.550
 4604POPC   D2A 6040   8.965  15.959   8.250
 4604POPC   C3A 6041   8.954  15.909   7.950
 4604POPC   C4A 6042   8.986  15.970   7.650
 4604POPC   C1B 6043   9.098  16.197   8.550
 4604POPC   C2B 6044   9.056  16.183   8.250
 4604POPC   C3B 6045   9.071  16.197   7.950
 4604POPC   C4B 6046   9.137  16.184   7.650
 4605POPC   NC3 6047  15.997   6.614   9.450
 4605POPC   PO4 6048  15.995   6.660   9.150
 4605POPC   GL1 6049  16.001   6.661   8.850
 4605POPC   GL2 6050  16.046   6.551   8.850
 4605POPC   C1A 6051  15.997   6.608   8.550
 4605POPC   D2A 6052  15.977   6.600   8.250
 4605POPC   C3A 6053  15.913   6.667   7.950
 4605POPC   C4A 6054  15.947   6.599   7.650
 4605POPC   C1B 6055  16.173   6.548   8.550
 4605POPC   C2B 6056  16.182   6.569   8.250
 4605POPC   C3B 6057  16.148   6.531   7.950
 4605POPC   C4B 6058  16.164   6.576   7.650
 4606POPC   NC3 6059  43.867  32.977   9.450
 4606POPC   PO4 6060  43.929  33.038   9.150
 4606POPC   GL1 6061  43.933  33.024   8.850
 4606POPC   GL2 6062  43.907  33.148   8.850
 4606POPC   C1A 6063  43.869  32.982   8.550
 4606POPC   D2A 6064  43.904  33.029   8.250
 4606POPC   C3A 6065  43.875  33.000   7.950
 4606POPC   C4A 6066  43.926  33.045   7.650
 4606POPC   C1B 6067  43.871  33.225   8.550
 4606POPC   C2B 6068  43.781  33.302   8.250
 4606POPC   C3B 6069  43.823  33.249   7.950
 4606POPC   C4B 6070  43.858  33.256   7.650
 4607POPC   NC3 6071   4.350  12.840   9.450
 4607POPC   PO4 6072   4.276  12.804   9.150
 4607POPC   GL1 6073   4.316  12.862   8.850
 4607POPC   GL2 6074   4.295  12.708   8.850
 4607POPC   C1A 6075   4.331  12.855   8.550
 4607POPC   D2A 6076   4.290  12.861   8.250
 4607POPC   C3A 6077   4.293  12.804   7.950
 4607POPC   C4A 6078   4.301  12.853   7.650
 4607POPC   C1B 6079   4.293  12.603   8.550
 4607POPC   C2B 6080   4.209  12.624   8.250
 4607POPC   C3B 6081   4.278  12.647   7.950
 4607POPC   C4B 6082   4.227  12.596   7.650
 4608POPC   NC3 6083   2.725  19.832   9.450
 4608POPC   PO4 6084   2.751  19.870   9.150
 4608POPC   GL1 6085   2.796  19.792   8.850
 4608POPC   GL2 6086   2.674  19.739   8.850
 4608POPC   C1A 6087   2.736  19.854   8.550
 4608POPC   D2A 6088   2.741  19.857   8.250
 4608POPC   C3A 6089   2.748  19.794   7.950
 4608POPC   C4A 6090   2.745  19.787   7.650
 4608POPC   C1B 6091   2.562  19.782   8.550
 4608POPC   C2B 6092   2.535  19.699   8.250
 4608POPC   C3B 6093   2.506  19.761   7.950
 4608POPC   C4B 6094   2.577  19.734   7.650
 4609POPC   NC3 6095  26.069  26.067   9.450
 4609POPC   PO4 6096  26.041  26.037   9.150
 4609POPC   GL1 6097  26.001  26.081   8.850
 4609POPC   GL2 6098  26.023  25.970   8.850
 4609POPC   C1A 6099  26.065  26.015   8.550
 4609POPC   D2A 6100  26.044  26.005   8.250
 4609POPC   C3A 6101  26.002  25.999   7.950
 4609POPC   C4A 6102  26.035  26.041   7.650
 4609POPC   C1B 6103  25.943  25.827   8.550
 4609POPC   C2B 6104  25.974  25.841   8.250
 4609POPC   C3B 6105  25.894  25.803   7.950
 4609POPC   C4B 6106  25.901  25.819   7.650
 4610POPC   NC3 6107  43.143  42.317   9.450
 4610POPC   PO4 6108  43.076  42.297   9.150
 4610POPC   GL1 6109  43.072  42.319   8.850
 4610POPC   GL2 6110  43.204  42.358   8.850
 4610POPC   C1A 6111  43.109  42.335   8.550
 4610POPC   D2A 6112  43.089  42.294   8.250
 4610POPC   C3A 6113  43.105  42.334   7.950
 4610POPC   C4A 6114  43.078  42.350   7.650
 4610POPC   C1B 6115  43.363  42.424   8.550
 4610POPC   C2B 6116  43.384  42.377   8.250
 4610POPC   C3B 6117  43.359  42.424   7.950
 4610POPC   C4B 6118  43.353  42.363   7.650
 4611POPC   NC3 6119  22.959  30.734   9.450
 4611POPC   PO4 6120  22.921  30.659   9.150
 4611POPC   GL1 6121  22.895  30.691   8.850
 4611POPC   GL2 6122  23.111  30.672   8.850
 4611POPC   C1A 6123  22.919  30.651   8.550
 4611POPC   D2A 6124  22.923  30.714   8.250
 4611POPC   C3A 6125  22.941  30.733   7.950
 4611POPC   C4A 6126  22.932  30.673   7.650
 4611POPC   C1B 6127  23.156  30.632   8.550
 4611POPC   C2B 6128  23.189  30.678   8.250
 4611POPC   C3B 6129  23.217  30.658   7.950
 4611POPC   C4B 6130  23.179  30.680   7.650
 4612POPC   NC3 6131  31.442  39.254   9.450
 4612POPC   PO4 6132  31.489  39.254   9.150
 4612POPC   GL1 6133  31.455  39.261   8.850
 4612POPC   GL2 6134  31.387  39.268   8.850
 4612POPC   C1A 6135  31.427  39.269   8.550
 4612POPC   D2A 6136  31.456  39.187   8.250
 4612POPC   C3A 6137  31.478  39.254   7.950
 4612POPC   C4A 6138  31.439  39.233   7.650
 4612POPC   C1B 6139  31.266  39.270   8.550
 4612POPC   C2B 6140  31.253  39.213   8.250
 4612POPC   C3B 6141  31.236  39.221   7.950
 4612POPC   C4B 6142  31.218  39.242   7.650
 4613POPC   NC3 6143  43.065  33.840   9.450
 4613POPC   PO4 6144  43.103  33.792   9.150
 4613POPC   GL1 6145  43.064  33.757   8.850
 4613POPC   GL2 6146  43.174  33.832   8.850
 4613POPC   C1A 6147  43.148  33.822   8.550
 4613POPC   D2A 6148  43.063  33.848   8.250
 4613POPC   C3A 6149  43.160  33.833   7.950
 4613POPC   C4A 6150  43.125  33.848   7.650
 4613POPC   C1B 6151  43.350  33.951   8.550
 4613POPC   C2B 6152  43.283  33.983   8.250
 4613POPC   C3B 6153  43.263  33.943   7.950
 4613POPC   C4B 6154  43.325  33.915   7.650
 4614POPC   NC3 6155  29.911  24.510   9.450
 4614POPC   PO4 6156  29.948  24.485   9.150
 4614POPC   GL1 6157  29.938  24.445   8.850
 4614POPC   GL2 6158  29.906  24.616   8.850
 4614POPC   C1A 6159  29.910  24.510   8.550
 4614POPC   D2A 6160  29.902  24.468   8.250
 4614POPC   C3A 6161  29.947  24.456   7.950
 4614POPC   C4A 6162  29.924  24.519   7.650
 4614POPC   C1B 6163  29.944  24.776   8.550
 4614POPC   C2B 6164  29.956  24.718   8.250
 4614POPC   C3B 6165  30.009  24.771   7.950
 4614POPC   C4B 6166  30.024  24.703   7.650
 4615POPC   NC3 6167  44.639   6.635   9.450
 4615POPC   PO4 6168  44.628   6.661   9.150
 4615POPC   GL1 6169  44.626   6.667   8.850
 4615POPC   GL2 6170  44.833   6.624   8.850
 4615POPC   C1A 6171  44.619   6.596   8.550
 4615POPC   D2A 6172  44.677   6.665   8.250
 4615POPC   C3A 6173  44.640   6.605   7.950
 4615POPC   C4A 6174  44.655   6.637   7.650
 4615POPC   C1B 6175  44.859   6.728   8.550
 4615POPC   C2B 6176  44.870   6.672   8.250
 4615POPC   C3B 6177  44.950   6.687   7.950
 4615POPC   C4B 6178  44.947   6.673   7.650
 4616POPC   NC3 6179  42.291   2.779   9.450
 4616POPC   PO4 6180  42.380   2.716   9.150
 4616POPC   GL1 6181  42.359   2.721   8.850
 4616POPC   GL2 6182  42.165   2.743   8.850
 4616POPC   C1A 6183  42.300   2.739   8.550
 4616POPC   D2A 6184  42.325   2.766   8.250
 4616POPC   C3A 6185  42.325   2.757   7.950
 4616POPC   C4A 6186  42.374   2.735   7.650
 4616POPC   C1B 6187  42.048   2.784   8.550
 4616POPC   C2B 6188  42.052   2.770   8.250
 4616POPC   C3B 6189  42.125   2.792   7.950
 4616POPC   C4B 6190  42.039   2.749   7.650
 4617POPC   NC3 6191   5.856   7.390   9.450
 4617POPC   PO4 6192   5.857   7.426   9.150
 4617POPC   GL1 6193   5.917   7.384   8.850
 4617POPC   GL2 6194   5.933   7.524   8.850
 4617POPC   C1A 6195   5.915   7.462   8.550
 4617POPC   D2A 6196   5.898   7.383   8.250
 4617POPC   C3A 6197   5.838   7.382   7.950
 4617POPC   C4A 6198   5.896   7.373   7.650
 4617POPC   C1B 6199   6.067   7.545   8.550
 4617POPC   C2B 6200   6.032   7.595   8.250
 4617POPC   C3B 6201   6.102   7.590   7.950
 4617POPC   C4B 6202   6.064   7.539   7.650
 4618POPC   NC3 6203  11.297  18.268   9.450
 4618POPC   PO4 6204  11.343  18.252   9.150
 4618POPC   GL1 6205  11.287  18.302   8.850
 4618POPC   GL2 6206  11.220  18.314   8.850
 4618POPC   C1A 6207  11.317  18.242   8.550
 4618POPC   D2A 6208  11.257  18.260   8.250
 4618POPC   C3A 6209  11.263  18.301   7.950
 4618POPC   C4A 6210  11.297  18.288   7.650
 4618POPC   C1B 6211  11.112  18.399   8.550
 4618POPC   C2B 6212  11.112  18.376   8.250
 4618POPC   C3B 6213  11.080  18.320   7.950
 4618POPC   C4B 6214  11.035  18.411   7.650
 4619POPC   NC3 6215  37.672  19.036   9.450
 4619POPC   PO4 6216  37.642  19.082   9.150
 4619POPC   GL1 6217  37.670  19.054   8.850
 4619POPC   GL2 6218  37.822  19.066   8.850
 4619POPC   C1A 6219  37.675  19.104   8.550
 4619POPC   D2A 6220  37.718  19.057   8.250
 4619POPC   C3A 6221  37.701  19.013   7.950
 4619POPC   C4A 6222  37.643  19.073   7.650
 4619POPC   C1B 6223  37.936  19.102   8.550
 4619POPC   C2B 6224  37.929  19.144   8.250
 4619POPC   C3B 6225  37.910  19.112   7.950
 4619POPC   C4B 6226  37.919  19.144   7.650
 4620POPC   NC3 6227  36.115   5.064   9.450
 4620POPC   PO4 6228  36.141   5.079   9.150
 4620POPC   GL1 6229  36.091   5.122   8.850
 4620POPC   GL2 6230  36.102   5.200   8.850
 4620POPC   C1A 6231  36.149   5.070   8.550
 4620POPC   D2A 6232  36.148   5.105   8.250
 4620POPC   C3A 6233  36.122   5.139   7.950
 4620POPC   C4A 6234  36.156   5.048   7.650
 4620POPC   C1B 6235  36.112   5.316   8.550
 4620POPC   C2B 6236  36.185   5.356   8.250
 4620POPC   C3B 6237  36.181   5.316   7.950
 4620POPC   C4B 6238  36.124   5.375   7.650
 4621POPC   NC3 6239  22.891   5.057   9.450
 4621POPC   PO4 6240  22.936   5.054   9.150
 4621POPC   GL1 6241  22.917   5.124   8.850
 4621POPC   GL2 6242  23.046   5.066   8.850
 4621POPC   C1A 6243  22.928   5.097   8.550
 4621POPC   D2A 6244  22.911   5.113   8.250
 4621POPC   C3A 6245  22.904   5.113   7.950
 4621POPC   C4A 6246  22.965   5.119   7.650
 4621POPC   C1B 6247  23.197   5.035   8.550
 4621POPC   C2B 6248  23.217   4.982   8.250
 4621POPC   C3B 6249  23.221   4.967   7.950
 4621POPC   C4B 6250  23.143   4.987   7.650
 4622POPC   NC3 6251  35.396   1.964   9.450
 4622POPC   PO4 6252  35.400   1.973   9.150
 4622POPC   GL1 6253  35.338   1.946   8.850
 4622POPC   GL2 6254  35.405   1.822   8.850
 4622POPC   C1A 6255  35.360   1.981   8.550
 4622POPC   D2A 6256  35.401   1.946   8.250
 4622POPC   C3A 6257  35.323   2.008   7.950
 4622POPC   C4A 6258  35.326   2.028   7.650
 4622POPC   C1B 6259  35.408   1.730   8.550
 4622POPC   C2B 6260  35.444   1.736   8.250
 4622POPC   C3B 6261  35.368   1.737   7.950
 4622POPC   C4B 6262  35.461   1.715   7.650
 4623POPC   NC3 6263  22.898  39.974   9.450
 4623POPC   PO4 6264  22.934  40.055   9.150
 4623POPC   GL1 6265  22.945  40.008   8.850
 4623POPC   GL2 6266  23.038  39.939   8.850
 4623POPC   C1A 6267  22.907  40.008   8.550
 4623POPC   D2A 6268  22.924  40.039   8.250
 4623POPC   C3A 6269  22.922  40.053   7.950
 4623POPC   C4A 6270  22.970  39.965   7.650
 4623POPC   C1B 6271  23.175  39.912   8.550
 4623POPC   C2B 6272  23.202  39.919   8.250
 4623POPC   C3B 6273  23.111  39.934   7.950
 4623POPC   C4B 6274  23.197  39.921   7.650
 4624POPC   NC3 6275   1.950  22.196   9.450
 4624POPC   PO4 6276   1.976  22.181   9.150
 4624POPC   GL1 6277   2.005  22.143   8.850
 4624POPC   GL2 6278   1.850  22.162   8.850
 4624POPC   C1A 6279   1.984  22.151   8.550
 4624POPC   D2A 6280   2.003  22.160   8.250
 4624POPC   C3A 6281   1.987  22.201   7.950
 4624POPC   C4A 6282   2.008  22.140   7.650
 4624POPC   C1B 6283   1.801  22.208   8.550
 4624POPC   C2B 6284   1.763  22.226   8.250
 4624POPC   C3B 6285   1.763  22.296   7.950
 4624POPC   C4B 6286   1.765  22.260   7.650
 4625POPC   NC3 6287  10.489  34.565   9.450
 4625POPC   PO4 6288  10.545  34.625   9.150
 4625POPC   GL1 6289  10.535  34.588   8.850
 4625POPC   GL2 6290  10.437  34.733   8.850
 4625POPC   C1A 6291  10.561  34.594   8.550
 4625POPC   D2A 6292  10.561  34.608   8.250
 4625POPC   C3A 6293  10.503  34.587   7.950
 4625POPC   C4A 6294  10.560  34.568   7.650
 4625POPC   C1B 6295  10.488  34.839   8.550
 4625POPC   C2B 6296  10.465  34.819   8.250
 4625POPC   C3B 6297  10.496  34.782   7.950
 4625POPC   C4B 6298  10.442  34.804   7.650
 4626POPC   NC3 6299  13.600  33.022   9.450
 4626POPC   PO4 6300  13.585  33.060   9.150
 4626POPC   GL1 6301  13.583  33.004   8.850
 4626POPC   GL2 6302  13.552  32.919   8.850
 4626POPC   C1A 6303  13.613  32.987   8.550
 4626POPC   D2A 6304  13.631  33.012   8.250
 4626POPC   C3A 6305  13.671  33.073   7.950
 4626POPC   C4A 6306  13.608  32.988   7.650
 4626POPC   C1B 6307  13.483  32.848   8.550
 4626POPC   C2B 6308  13.543  32.765   8.250
 4626POPC   C3B 6309  13.504  32.845   7.950
 4626POPC   C4B 6310  13.507  32.832   7.650
 4627POPC   NC3 6311  29.192  17.514   9.450
 4627POPC   PO4 6312  29.175  17.516   9.150
 4627POPC   GL1 6313  29.096  17.524   8.850
 4627POPC   GL2 6314  29.269  17.552   8.850
 4627POPC   C1A 6315  29.158  17.495   8.550
 4627POPC   D2A 6316  29.148  17.458   8.250
 4627POPC   C3A 6317  29.177  17.513   7.950
 4627POPC   C4A 6318  29.189  17.491   7.650
 4627POPC   C1B 6319  29.367  17.660   8.550
 4627POPC   C2B 6320  29.390  17.684   8.250
 4627POPC   C3B 6321  29.371  17.621   7.950
 4627POPC   C4B 6322  29.367  17.608   7.650
 4628POPC   NC3 6323  30.692  38.444   9.450
 4628POPC   PO4 6324  30.715  38.503   9.150
 4628POPC   GL1 6325  30.699  38.413   8.850
 4628POPC   GL2 6326  30.804  38.539   8.850
 4628POPC   C1A 6327  30.714  38.491   8.550
 4628POPC   D2A 6328  30.733  38.433   8.250
 4628POPC   C3A 6329  30.651  38.487   7.950
 4628POPC   C4A 6330  30.700  38.430   7.650
 4628POPC   C1B 6331  30.920  38.625   8.550
 4628POPC   C2B 6332  30.869  38.600   8.250
 4628POPC   C3B 6333  30.929  38.559   7.950
 4628POPC   C4B 6334  30.957  38.536   7.650
 4629POPC   NC3 6335  22.968  39.209   9.450
 4629POPC   PO4 6336  22.943  39.247   9.150
 4629POPC   GL1 6337  22.936  39.228   8.850
 4629POPC   GL2 6338  22.793  39.217   8.850
 4629POPC   C1A 6339  22.981  39.202   8.550
 4629POPC   D2A 6340  22.935  39.228   8.250
 4629POPC   C3A 6341  22.898  39.268   7.950
 4629POPC   C4A 6342  22.959  39.226   7.650
 4629POPC   C1B 6343  22.685  39.177   8.550
 4629POPC   C2B 6344  22.720  39.227   8.250
 4629POPC   C3B 6345  22.735  39.148   7.950
 4629POPC   C4B 6346  22.654  39.180   7.650
 4630POPC   NC3 6347  29.872  31.428   9.450
 4630POPC   PO4 6348  29.917  31.501   9.150
 4630POPC   GL1 6349  29.875  31.496   8.850
 4630POPC   GL2 6350  29.854  31.555   8.850
 4630POPC   C1A 6351  29.959  31.490   8.550
 4630POPC   D2A 6352  29.906  31.516   8.250
 4630POPC   C3A 6353  29.891  31.458   7.950
 4630POPC   C4A 6354  29.914  31.487   7.650
 4630POPC   C1B 6355  29.749  31.624   8.550
 4630POPC   C2B 6356  29.697  31.587   8.250
 4630POPC   C3B 6357  29.733  31.600   7.950
 4630POPC   C4B 6358  29.737  31.603   7.650
 4631POPC   NC3 6359  29.142  43.142   9.450
 4631POPC   PO4 6360  29.161  43.139   9.150
 4631POPC   GL1 6361  29.185  43.099   8.850
 4631POPC   GL2 6362  29.002  43.043   8.850
 4631POPC   C1A 6363  29.133  43.129   8.550
 4631POPC   D2A 6364  29.193  43.071   8.250
 4631POPC   C3A 6365  29.125  43.134   7.950
 4631POPC   C4A 6366  29.155  43.131   7.650
 4631POPC   C1B 6367  28.876  43.016   8.550
 4631POPC   C2B 6368  28.900  43.074   8.250
 4631POPC   C3B 6369  28.869  42.975   7.950
 4631POPC   C4B 6370  28.887  43.010   7.650
 4632POPC   NC3 6371  14.408  36.091   9.450
 4632POPC   PO4 6372  14.402  36.159   9.150
 4632POPC   GL1 6373  14.371  36.166   8.850
 4632POPC   GL2 6374  14.330  36.270   8.850
 4632POPC   C1A 6375  14.448  36.126   8.550
 4632POPC   D2A 6376  14.384  36.145   8.250
 4632POPC   C3A 6377  14.386  36.104   7.950
 4632POPC   C4A 6378  14.364  36.101   7.650
 4632POPC   C1B 6379  14.346  36.370   8.550
 4632POPC   C2B 6380  14.333  36.417   8.250
 4632POPC   C3B 6381  14.327  36.367   7.950
 4632POPC   C4B 6382  14.389  36.387   7.650
 4633POPC   NC3 6383  21.430   1.985   9.450
 4633POPC   PO4 6384  21.428   2.039   9.150
 4633POPC   GL1 6385  21.384   2.032   8.850
 4633POPC   GL2 6386  21.499   1.940   8.850
 4633POPC   C1A 6387  21.369   1.965   8.550
 4633POPC   D2A 6388  21.375   2.021   8.250
 4633POPC   C3A 6389  21.356   2.012   7.950
 4633POPC   C4A 6390  21.392   1.991   7.650
 4633POPC   C1B 6391  21.591   1.830   8.550
 4633POPC   C2B 6392  21.553   1.855   8.250
 4633POPC   C3B 6393  21.620   1.895   7.950
 4633POPC   C4B 6394  21.564   1.832   7.650
 4634POPC   NC3 6395  15.180   1.194   9.450
 4634POPC   PO4 6396  15.142   1.263   9.150
 4634POPC   GL1 6397  15.130   1.225   8.850
 4634POPC   GL2 6398  15.109   1.082   8.850
 4634POPC   C1A 6399  15.137   1.193   8.550
 4634POPC   D2A 6400  15.145   1.249   8.250
 4634POPC   C3A 6401  15.154   1.177   7.950
 4634POPC   C4A 6402  15.184   1.208   7.650
 4634POPC   C1B 6403  15.105   0.999   8.550
 4634POPC   C2B 6404  15.168   0.939   8.250
 4634POPC   C3B 6405  15.128   1.013   7.950
 4634POPC   C4B 6406  15.127   0.966   7.650
 4635POPC   NC3 6407  12.883  43.087   9.450
 4635POPC   PO4 6408  12.851  43.151   9.150
 4635POPC   GL1 6409  12.875  43.076   8.850
 4635POPC   GL2 6410  12.748  43.182   8.850
 4635POPC   C1A 6411  12.875  43.067   8.550
 4635POPC   D2A 6412  12.870  43.090   8.250
 4635POPC   C3A 6413  12.873  43.107   7.950
 4635POPC   C4A 6414  12.811  43.138   7.650
 4635POPC   C1B 6415  12.633  43.256   8.550
 4635POPC   C2B 6416  12.609  43.235   8.250
 4635POPC   C3B 6417  12.672  43.222   7.950
 4635POPC   C4B 6418  12.613  43.195   7.650
 4636POPC   NC3 6419  38.465   3.494   9.450
 4636POPC   PO4 6420  38.480   3.567   9.150
 4636POPC   GL1 6421  38.478   3.505   8.850
 4636POPC   GL2 6422  38.370   3.420   8.850
 4636POPC   C1A 6423  38.429   3.562   8.550
 4636POPC   D2A 6424  38.499   3.515   8.250
 4636POPC   C3A 6425  38.459   3.514   7.950
 4636POPC   C4A 6426  38.496   3.493   7.650
 4636POPC   C1B 6427  38.281   3.376   8.550
 4636POPC   C2B 6428  38.228   3.402   8.250
 4636POPC   C3B 6429  38.233   3.349   7.950
 4636POPC   C4B 6430  38.300   3.382   7.650
 4637POPC   NC3 6431  31.501  27.591   9.450
 4637POPC   PO4 6432  31.426  27.631   9.150
 4637POPC   GL1 6433  31.462  27.598   8.850
 4637POPC   GL2 6434  31.545  27.464   8.850
 4637POPC   C1A 6435  31.435  27.601   8.550
 4637POPC   D2A 6436  31.474  27.570   8.250
 4637POPC   C3A 6437  31.451  27.570   7.950
 4637POPC   C4A 6438  31.489  27.614   7.650
 4637POPC   C1B 6439  31.610  27.359   8.550
 4637POPC   C2B 6440  31.569  27.338   8.250
 4637POPC   C3B 6441  31.560  27.414   7.950
 4637POPC   C4B 6442  31.628  27.389   7.650
 4638POPC   NC3 6443   5.863  36.864   9.450
 4638POPC   PO4 6444   5.851  36.882   9.150
 4638POPC   GL1 6445   5.827  36.917   8.850
 4638POPC   GL2 6446   5.707  36.982   8.850
 4638POPC   C1A 6447   5.844  36.913   8.550
 4638POPC   D2A 6448   5.827  36.878   8.250
 4638POPC   C3A 6449   5.873  36.917   7.950
 4638POPC   C4A 6450   5.915  36.907   7.650
 4638POPC   C1B 6451   5.682  37.007   8.550
 4638POPC   C2B 6452   5.616  37.046   8.250
 4638POPC   C3B 6453   5.653  37.043   7.950
 4638POPC   C4B 6454   5.663  37.022   7.650
 4639POPC   NC3 6455  27.567  29.960   9.450
 4639POPC   PO4 6456  27.616  29.887   9.150
 4639POPC   GL1 6457  27.636  29.948   8.850
 4639POPC   GL2 6458  27.528  30.061   8.850
 4639POPC   C1A 6459  27.612  29.875   8.550
 4639POPC   D2A 6460  27.572  29.896   8.250
 4639POPC   C3A 6461  27.593  29.916   7.950
 4639POPC   C4A 6462  27.556  29.923   7.650
 4639POPC   C1B 6463  27.559  30.201   8.550
 4639POPC   C2B 6464  27.580  30.195   8.250
 4639POPC   C3B 6465  27.535  30.139   7.950
 4639POPC   C4B 6466  27.504  30.147   7.650
 4640POPC   NC3 6467  19.025  22.177   9.450
 4640POPC   PO4 6468  19.053  22.180   9.150
 4640POPC   GL1 6469  19.091  22.158   8.850
 4640POPC   GL2 6470  18.950  22.114   8.850
 4640POPC   C1A 6471  19.072  22.192   8.550
 4640POPC   D2A 6472  19.010  22.142   8.250
 4640POPC   C3A 6473  19.088  22.146   7.950
 4640POPC   C4A 6474  19.086  22.145   7.650
 4640POPC   C1B 6475  18.850  22.045   8.550
 4640POPC   C2B 6476  18.868  22.015   8.250
 4640POPC   C3B 6477  18.820  21.973   7.950
 4640POPC   C4B 6478  18.878  21.966   7.650
 4641POPC   NC3 6479  41.600  43.104   9.450
 4641POPC   PO4 6480  41.511  43.061   9.150
 4641POPC   GL1 6481  41.515  43.096   8.850
 4641POPC   GL2 6482  41.428  43.026   8.850
 4641POPC   C1A 6483  41.561  43.139   8.550
 4641POPC   D2A 6484  41.545  43.125   8.250
 4641POPC   C3A 6485  41.551  43.073   7.950
 4641POPC   C4A 6486  41.594  43.107   7.650
 4641POPC   C1B 6487  41.314  42.987   8.550
 4641POPC   C2B 6488  41.346  42.972   8.250
 4641POPC   C3B 6489  41.311  43.060   7.950
 4641POPC   C4B 6490  41.296  43.049   7.650
 4642POPC   NC3 6491   4.363   9.740   9.450
 4642POPC   PO4 6492   4.308   9.765   9.150
 4642POPC   GL1 6493   4.295   9.773   8.850
 4642POPC   GL2 6494   4.438   9.674   8.850
 4642POPC   C1A 6495   4.360   9.794   8.550
 4642POPC   D2A 6496   4.285   9.776   8.250
 4642POPC   C3A 6497   4.346   9.719   7.950
 4642POPC   C4A 6498   4.338   9.712   7.650
 4642POPC   C1B 6499   4.488   9.572   8.550
 4642POPC   C2B 6500   4.492   9.594   8.250
 4642POPC   C3B 6501   4.491   9.558   7.950
 4642POPC   C4B 6502   4.489   9.638   7.650
 4643POPC   NC3 6503  13.636  36.900   9.450
 4643POPC   PO4 6504  13.631  36.929   9.150
 4643POPC   GL1 6505  13.612  36.890   8.850
 4643POPC   GL2 6506  13.738  36.886   8.850
 4643POPC   C1A 6507  13.627  36.874   8.550
 4643POPC   D2A 6508  13.636  36.856   8.250
 4643POPC   C3A 6509  13.578  36.859   7.950
 4643POPC   C4A 6510  13.649  36.939   7.650
 4643POPC   C1B 6511  13.826  36.922   8.550
 4643POPC   C2B 6512  13.905  36.973   8.250
 4643POPC   C3B 6513  13.915  36.907   7.950
 4643POPC   C4B 6514  13.899  36.912   7.650
 4644POPC   NC3 6515   8.949   9.723   9.450
 4644POPC   PO4 6516   8.958   9.724   9.150
 4644POPC   GL1 6517   9.021   9.793   8.850
 4644POPC   GL2 6518   8.898   9.597   8.850
 4644POPC   C1A 6519   8.939   9.732   8.550
 4644POPC   D2A 6520   9.001   9.748   8.250
 4644POPC   C3A 6521   8.992   9.774   7.950
 4644POPC   C4A 6522   8.938   9.739   7.650
 4644POPC   C1B 6523   8.935   9.517   8.550
 4644POPC   C2B 6524   8.859   9.556   8.250
 4644POPC   C3B 6525   8.880   9.482   7.950
 4644POPC   C4B 6526   8.900   9.487   7.650
 4645POPC   NC3 6527  36.875  38.406   9.450
 4645POPC   PO4 6528  36.917  38.432   9.150
 4645POPC   GL1 6529  36.940  38.489   8.850
 4645POPC   GL2 6530  36.989  38.423   8.850
 4645POPC   C1A 6531  36.939  38.469   8.550
 4645POPC   D2A 6532  36.886  38.409   8.250
 4645POPC   C3A 6533  36.951  38.452   7.950
 4645POPC   C4A 6534  36.887  38.430   7.650
 4645POPC   C1B 6535  37.145  38.406   8.550
 4645POPC   C2B 6536  37.125  38.332   8.250
 4645POPC   C3B 6537  37.143  38.329   7.950
 4645POPC   C4B 6538  37.151  38.381   7.650
 4646POPC   NC3 6539  39.258  12.862   9.450
 4646POPC   PO4 6540  39.239  12.838   9.150
 4646POPC   GL1 6541  39.261  12.850   8.850
 4646POPC   GL2 6542  39.079  12.831   8.850
 4646POPC   C1A 6543  39.235  12.859   8.550
 4646POPC   D2A 6544  39.196  12.865   8.250
 4646POPC   C3A 6545  39.226  12.873   7.950
 4646POPC   C4A 6546  39.254  12.892   7.650
 4646POPC   C1B 6547  38.971  12.837   8.550
 4646POPC   C2B 6548  39.009  12.889   8.250
 4646POPC   C3B 6549  38.954  12.847   7.950
 4646POPC   C4B 6550  38.971  12.869   7.650
 4647POPC   NC3 6551  43.079  10.506   9.450
 4647POPC   PO4 6552  43.105  10.513   9.150
 4647POPC   GL1 6553  43.134  10.535   8.850
 4647POPC   GL2 6554  43.195  10.524   8.850
 4647POPC   C1A 6555  43.155  10.491   8.550
 4647POPC   D2A 6556  43.155  10.554   8.250
 4647POPC   C3A 6557  43.109  10.505   7.950
 4647POPC   C4A 6558  43.078  10.574   7.650
 4647POPC   C1B 6559  43.401  10.547   8.550
 4647POPC   C2B 6560  43.334  10.588   8.250
 4647POPC   C3B 6561  43.403  10.626   7.950
 4647POPC   C4B 6562  43.393  10.577   7.650
 4648POPC   NC3 6563   1.186   1.222   9.450
 4648POPC   PO4 6564   1.225   1.235   9.150
 4648POPC   GL1 6565   1.195   1.249   8.850
 4648POPC   GL2 6566   1.097   1.349   8.850
 4648POPC   C1A 6567   1.258   1.250   8.550
 4648POPC   D2A 6568   1.197   1.197   8.250
 4648POPC   C3A 6569   1.245   1.211   7.950
 4648POPC   C4A 6570   1.224   1.207   7.650
 4648POPC   C1B 6571   1.101   1.424   8.550
 4648POPC   C2B 6572   1.069   1.378   8.250
 4648POPC   C3B 6573   1.039   1.382   7.950
 4648POPC   C4B 6574   1.076   1.408   7.650
 4649POPC   NC3 6575   5.122   0.389   9.450
 4649POPC   PO4 6576   5.063   0.400   9.150
 4649POPC   GL1 6577   5.051   0.401   8.850
 4649POPC   GL2 6578   5.131   0.583   8.850
 4649POPC   C1A 6579   5.075   0.394   8.550
 4649POPC   D2A 6580   5.060   0.474   8.250
 4649POPC   C3A 6581   5.053   0.394   7.950
 4649POPC   C4A 6582   5.065   0.388   7.650
 4649POPC   C1B 6583   5.129   0.641   8.550
 4649POPC   C2B 6584   5.121   0.638   8.250
 4649POPC   C3B 6585   5.131   0.675   7.950
 4649POPC   C4B 6586   5.180   0.668   7.650
 4650POPC   NC3 6587  39.261  14.383   9.450
 4650POPC   PO4 6588  39.191  14.366   9.150
 4650POPC   GL1 6589  39.222  14.411   8.850
 4650POPC   GL2 6590  39.355  14.407   8.850
 4650POPC   C1A 6591  39.252  14.400   8.550
 4650POPC   D2A 6592  39.192  14.390   8.250
 4650POPC   C3A 6593  39.194  14.444   7.950
 4650POPC   C4A 6594  39.231  14.397   7.650
 4650POPC   C1B 6595  39.419  14.468   8.550
 4650POPC   C2B 6596  39.457  14.478   8.250
 4650POPC   C3B 6597  39.432  14.474   7.950
 4650POPC   C4B 6598  39.495  14.511   7.650
 4651POPC   NC3 6599  23.693  41.556   9.450
 4651POPC   PO4 6600  23.728  41.578   9.150
 4651POPC   GL1 6601  23.706  41.530   8.850
 4651POPC   GL2 6602  23.825  41.588   8.850
 4651POPC   C1A 6603  23.716  41.524   8.550
 4651POPC   D2A 6604  23.704  41.593   8.250
 4651POPC   C3A 6605  23.700  41.530   7.950
 4651POPC   C4A 6606  23.762  41.515   7.650
 4651POPC   C1B 6607  23.986  41.670   8.550
 4651POPC   C2B 6608  23.993  41.637   8.250
 4651POPC   C3B 6609  23.934  41.646   7.950
 4651POPC   C4B 6610  23.985  41.676   7.650
 4652POPC   NC3 6611   5.051  15.906   9.450
 4652POPC   PO4 6612   5.044  15.906   9.150
 4652POPC   GL1 6613   5.114  15.956   8.850
 4652POPC   GL2 6614   5.184  15.875   8.850
 4652POPC   C1A 6615   5.109  15.955   8.550
 4652POPC   D2A 6616   5.090  15.925   8.250
 4652POPC   C3A 6617   5.084  15.986   7.950
 4652POPC   C4A 6618   5.075  15.913   7.650
 4652POPC   C1B 6619   5.288  15.842   8.550
 4652POPC   C2B 6620   5.352  15.859   8.250
 4652POPC   C3B 6621   5.315  15.789   7.950
 4652POPC   C4B 6622   5.356  15.859   7.650
 4653POPC   NC3 6623  21.394  12.803   9.450
 4653POPC   PO4 6624  21.434  12.803   9.150
 4653POPC   GL1 6625  21.405  12.858   8.850
 4653POPC   GL2 6626  21.337  12.914   8.850
 4653POPC   C1A 6627  21.347  12.890   8.550
 4653POPC   D2A 6628  21.373  12.851   8.250
 4653POPC   C3A 6629  21.428  12.813   7.950
 4653POPC   C4A 6630  21.371  12.811   7.650
 4653POPC   C1B 6631  21.262  13.045   8.550
 4653POPC   C2B 6632  21.263  13.042   8.250
 4653POPC   C3B 6633  21.181  13.076   7.950
 4653POPC   C4B 6634  21.194  13.000   7.650
 4654POPC   NC3 6635  33.008  39.191   9.450
 4654POPC   PO4 6636  32.984  39.267   9.150
 4654POPC   GL1 6637  33.008  39.188   8.850
 4654POPC   GL2 6638  32.878  39.193   8.850
 4654POPC   C1A 6639  33.066  39.236   8.550
 4654POPC   D2A 6640  33.012  39.226   8.250
 4654POPC   C3A 6641  33.059  39.198   7.950
 4654POPC   C4A 6642  32.979  39.277   7.650
 4654POPC   C1B 6643  32.802  39.133   8.550
 4654POPC   C2B 6644  32.828  39.106   8.250
 4654POPC   C3B 6645  32.796  39.123   7.950
 4654POPC   C4B 6646  32.784  39.083   7.650
 4655POPC   NC3 6647  44.673  42.369   9.450
 4655POPC   PO4 6648  44.653  42.295   9.150
 4655POPC   GL1 6649  44.699  42.335   8.850
 4655POPC   GL2 6650  44.705  42.495   8.850
 4655POPC   C1A 6651  44.688  42.348   8.550
 4655POPC   D2A 6652  44.663  42.294   8.250
 4655POPC   C3A 6653  44.695  42.352   7.950
 4655POPC   C4A 6654  44.653  42.295   7.650
 4655POPC   C1B 6655  44.739  42.604   8.550
 4655POPC   C2B 6656  44.738  42.624   8.250
 4655POPC   C3B 6657  44.736  42.626   7.950
 4655POPC   C4B 6658  44.642  42.614   7.650
 4656POPC   NC3 6659   8.975  43.126   9.450
 4656POPC   PO4 6660   9.017  43.124   9.150
 4656POPC   GL1 6661   8.928  43.067   8.850
 4656POPC   GL2 6662   8.877  43.022   8.850
 4656POPC   C1A 6663   8.940  43.083   8.550
 4656POPC   D2A 6664   9.018  43.139   8.250
 4656POPC   C3A 6665   8.933  43.134   7.950
 4656POPC   C4A 6666   8.950  43.069   7.650
 4656POPC   C1B 6667   8.708  42.986   8.550
 4656POPC   C2B 6668   8.742  43.011   8.250
 4656POPC   C3B 6669   8.780  43.060   7.950
 4656POPC   C4B 6670   8.700  42.982   7.650
 4657POPC   NC3 6671  12.853  26.775   9.450
 4657POPC   PO4 6672  12.878  26.821   9.150
 4657POPC   GL1 6673  12.884  26.858   8.850
 4657POPC   GL2 6674  12.773  26.807   8.850
 4657POPC   C1A 6675  12.844  26.856   8.550
 4657POPC   D2A 6676  12.848  26.794   8.250
 4657POPC   C3A 6677  12.815  26.803   7.950
 4657POPC   C4A 6678  12.824  26.811   7.650
 4657POPC   C1B 6679  12.604  26.825   8.550
 4657POPC   C2B 6680  12.558  26.871   8.250
 4657POPC   C3B 6681  12.653  26.906   7.950
 4657POPC   C4B 6682  12.638  26.842   7.650
 4658POPC   NC3 6683  12.877  22.925   9.450
 4658POPC   PO4 6684  12.841  22.891   9.150
 4658POPC   GL1 6685  12.885  22.951   8.850
 4658POPC   GL2 6686  12.969  22.827   8.850
 4658POPC   C1A 6687  12.821  22.951   8.550
 4658POPC   D2A 6688  12.878  22.916   8.250
 4658POPC   C3A 6689  12.869  22.979   7.950
 4658POPC   C4A 6690  12.816  22.980   7.650
 4658POPC   C1B 6691  13.012  22.816   8.550
 4658POPC   C2B 6692  13.012  22.825   8.250
 4658POPC   C3B 6693  13.015  22.803   7.950
 4658POPC   C4B 6694  13.029  22.757   7.650
 4659POPC   NC3 6695  32.990  27.615   9.450
 4659POPC   PO4 6696  32.988  27.614   9.150
 4659POPC   GL1 6697  33.016  27.622   8.850
 4659POPC   GL2 6698  32.965  27.743   8.850
 4659POPC   C1A 6699  33.058  27.557   8.550
 4659POPC   D2A 6700  33.053  27.618   8.250
 4659POPC   C3A 6701  33.068  27.633   7.950
 4659POPC   C4A 6702  32.978  27.622   7.650
 4659POPC   C1B 6703  32.888  27.870   8.550
 4659POPC   C2B 6704  32.927  27.793   8.250
 4659POPC   C3B 6705  32.924  27.861   7.950
 4659POPC   C4B 6706  32.970  27.853   7.650
 4660POPC   NC3 6707  19.811  29.919   9.450
 4660POPC   PO4 6708  19.865  29.927   9.150
 4660POPC   GL1 6709  19.876  29.873   8.850
 4660POPC   GL2 6710  19.846  30.001   8.850
 4660POPC   C1A 6711  19.845  29.940   8.550
 4660POPC   D2A 6712  19.829  29.939   8.250
 4660POPC   C3A 6713  19.789  29.884   7.950
 4660POPC   C4A 6714  19.821  29.928   7.650
 4660POPC   C1B 6715  19.946  30.183   8.550
 4660POPC   C2B 6716  19.963  30.117   8.250
 4660POPC   C3B 6717  19.970  30.167   7.950
 4660POPC   C4B 6718  19.917  30.103   7.650
 4661POPC   NC3 6719  43.085  40.001   9.450
 4661POPC   PO4 6720  43.115  40.030   9.150
 4661POPC   GL1 6721  43.143  39.967   8.850
 4661POPC   GL2 6722  43.228  39.999   8.850
 4661POPC   C1A 6723  43.129  39.999   8.550
 4661POPC   D2A 6724  43.140  40.046   8.250
 4661POPC   C3A 6725  43.129  40.046   7.950
 4661POPC   C4A 6726  43.126  40.006   7.650
 4661POPC   C1B 6727  43.347  39.886   8.550
 4661POPC   C2B 6728  43.330  39.951   8.250
 4661POPC   C3B 6729  43.317  39.967   7.950
 4661POPC   C4B 6730  43.306  39.916   7.650
 4662POPC   NC3 6731  29.155  20.569   9.450
 4662POPC   PO4 6732  29.105  20.620   9.150
 4662POPC   GL1 6733  29.133  20.636   8.850
 4662POPC   GL2 6734  29.233  20.496   8.850
 4662POPC   C1A 6735  29.159  20.574   8.550
 4662POPC   D2A 6736  29.112  20.625   8.250
 4662POPC   C3A 6737  29.184  20.580   7.950
 4662POPC   C4A 6738  29.111  20.593   7.650
 4662POPC   C1B 6739  29.315  20.379   8.550
 4662POPC   C2B 6740  29.270  20.415   8.250
 4662POPC   C3B 6741  29.250  20.345   7.950
 4662POPC   C4B 6742  29.241  20.441   7.650
 4663POPC   NC3 6743  24.473  30.719   9.450
 4663POPC   PO4 6744  24.457  30.683   9.150
 4663POPC   GL1 6745  24.533  30.700   8.850
 4663POPC   GL2 6746  24.464  30.851   8.850
 4663POPC   C1A 6747  24.449  30.669   8.550
 4663POPC   D2A 6748  24.447  30.711   8.250
 4663POPC   C3A 6749  24.525  30.720   7.950
 4663POPC   C4A 6750  24.479  30.705   7.650
 4663POPC   C1B 6751  24.428  30.978   8.550
 4663POPC   C2B 6752  24.473  30.906   8.250
 4663POPC   C3B 6753  24.494  30.926   7.950
 4663POPC   C4B 6754  24.448  30.901   7.650
 4664POPC   NC3 6755  16.693  40.011   9.450
 4664POPC   PO4 6756  16.729  40.046   9.150
 4664POPC   GL1 6757  16.706  39.980   8.850
 4664POPC   GL2 6758  16.878  40.048   8.850
 4664POPC   C1A 6759  16.767  39.993   8.550
 4664POPC   D2A 6760  16.742  40.026   8.250
 4664POPC   C3A 6761  16.766  39.981   7.950
 4664POPC   C4A 6762  16.775  40.007   7.650
 4664POPC   C1B 6763  16.985  40.032   8.550
 4664POPC   C2B 6764  16.957  40.077   8.250
 4664POPC   C3B 6765  16.994  40.069   7.950
 4664POPC   C4B 6766  16.977  40.047   7.650
 4665POPC   NC3 6767  23.710  26.786   9.450
 4665POPC   PO4 6768  23.666  26.834   9.150
 4665POPC   GL1 6769  23.671  26.775   8.850
 4665POPC   GL2 6770  23.818  26.714   8.850
 4665POPC   C1A 6771  23.761  26.844   8.550
 4665POPC   D2A 6772  23.744  26.768   8.250
 4665POPC   C3A 6773  23.698  26.815   7.950
 4665POPC   C4A 6774  23.743  26.801   7.650
 4665POPC   C1B 6775  23.804  26.573   8.550
 4665POPC   C2B 6776  23.831  26.578   8.250
 4665POPC   C3B 6777  23.832  26.618   7.950
 4665POPC   C4B 6778  23.830  26.554   7.650
 4666POPC   NC3 6779  39.968  14.440   9.450
 4666POPC   PO4 6780  40.054  14.404   9.150
 4666POPC   GL1 6781  40.016  14.379   8.850
 4666POPC   GL2 6782  40.074  14.322   8.850
 4666POPC   C1A 6783  39.987  14.368   8.550
 4666POPC   D2A 6784  40.030  14.438   8.250
 4666POPC   C3A 6785  40.038  14.379   7.950
 4666POPC   C4A 6786  39.979  14.392   7.650
 4666POPC   C1B 6787  40.076  14.130   8.550
 4666POPC   C2B 6788  40.121  14.148   8.250
 4666POPC   C3B 6789  40.068  14.167   7.950
 4666POPC   C4B 6790  40.049  14.163   7.650
 4667POPC   NC3 6791  39.181  10.513   9.450
 4667POPC   PO4 6792  39.232  10.566   9.150
 4667POPC   GL1 6793  39.244  10.532   8.850
 4667POPC   GL2 6794  39.196  10.688   8.850
 4667POPC   C1A 6795  39.221  10.494   8.550
 4667POPC   D2A 6796  39.261  10.565   8.250
 4667POPC   C3A 6797  39.228  10.482   7.950
 4667POPC   C4A 6798  39.269  10.493   7.650
 4667POPC   C1B 6799  39.227  10.783   8.550
 4667POPC   C2B 6800  39.239  10.798   8.250
 4667POPC   C3B 6801  39.195  10.760   7.950
 4667POPC   C4B 6802  39.262  10.762   7.650
 4668POPC   NC3 6803   7.386   5.112   9.450
 4668POPC   PO4 6804   7.455   5.101   9.150
 4668POPC   GL1 6805   7.454   5.096   8.850
 4668POPC   GL2 6806   7.431   5.206   8.850
 4668POPC   C1A 6807   7.451   5.062   8.550
 4668POPC   D2A 6808   7.407   5.099   8.250
 4668POPC   C3A 6809   7.419   5.076   7.950
 4668POPC   C4A 6810   7.464   5.079   7.650
 4668POPC   C1B 6811   7.509   5.272   8.550
 4668POPC   C2B 6812   7.582   5.313   8.250
 4668POPC   C3B 6813   7.567   5.346   7.950
 4668POPC   C4B 6814   7.547   5.302   7.650
 4669POPC   NC3 6815   6.681  31.467   9.450
 4669POPC   PO4 6816   6.645  31.504   9.150
 4669POPC   GL1 6817   6.627  31.487   8.850
 4669POPC   GL2 6818   6.737  31.492   8.850
 4669POPC   C1A 6819   6.664  31.507   8.550
 4669POPC   D2A 6820   6.653  31.497   8.250
 4669POPC   C3A 6821   6.666  31.423   7.950
 4669POPC   C4A 6822   6.689  31.479   7.650
 4669POPC   C1B 6823   6.887  31.499   8.550
 4669POPC   C2B 6824   6.861  31.527   8.250
 4669POPC   C3B 6825   6.874  31.545   7.950
 4669POPC   C4B 6826   6.934  31.542   7.650
 4670POPC   NC3 6827   1.223  24.478   9.450
 4670POPC   PO4 6828   1.219  24.446   9.150
 4670POPC   GL1 6829   1.221  24.479   8.850
 4670POPC   GL2 6830   1.301  24.598   8.850
 4670POPC   C1A 6831   1.202  24.448   8.550
 4670POPC   D2A 6832   1.248  24.446   8.250
 4670POPC   C3A 6833   1.213  24.469   7.950
 4670POPC   C4A 6834   1.236  24.465   7.650
 4670POPC   C1B 6835   1.447  24.595   8.550
 4670POPC   C2B 6836   1.471  24.611   8.250
 4670POPC   C3B 6837   1.450  24.665   7.950
 4670POPC   C4B 6838   1.428  24.605   7.650
 4671POPC   NC3 6839  39.270  20.610   9.450
 4671POPC   PO4 6840  39.275  20.568   9.150
 4671POPC   GL1 6841  39.232  20.642   8.850
 4671POPC   GL2 6842  39.354  20.631   8.850
 4671POPC   C1A 6843  39.188  20.643   8.550
 4671POPC   D2A 6844  39.218  20.639   8.250
 4671POPC   C3A 6845  39.208  20.568   7.950
 4671POPC   C4A 6846  39.186  20.590   7.650
 4671POPC   C1B 6847  39.456  20.628   8.550
 4671POPC   C2B 6848  39.524  20.611   8.250
 4671POPC   C3B 6849  39.523  20.611   7.950
 4671POPC   C4B 6850  39.472  20.620   7.650
 4672POPC   NC3 6851  36.933  15.154   9.450
 4672POPC   PO4 6852  36.864  15.210   9.150
 4672POPC   GL1 6853  36.948  15.135   8.850
 4672POPC   GL2 6854  36.979  15.117   8.850
 4672POPC   C1A 6855  36.916  15.163   8.550
 4672POPC   D2A 6856  36.937  15.175   8.250
 4672POPC   C3A 6857  36.934  15.182   7.950
 4672POPC   C4A 6858  36.922  15.140   7.650
 4672POPC   C1B 6859  37.064  14.972   8.550
 4672POPC   C2B 6860  36.990  15.014   8.250
 4672POPC   C3B 6861  36.997  15.012   7.950
 4672POPC   C4B 6862  37.044  14.980   7.650
 4673POPC   NC3 6863  24.455  18.263   9.450
 4673POPC   PO4 6864  24.471  18.310   9.150
 4673POPC   GL1 6865  24.464  18.244   8.850
 4673POPC   GL2 6866  24.333  18.259   8.850
 4673POPC   C1A 6867  24.454  18.311   8.550
 4673POPC   D2A 6868  24.509  18.292   8.250
 4673POPC   C3A 6869  24.441  18.240   7.950
 4673POPC   C4A 6870  24.452  18.237   7.650
 4673POPC   C1B 6871  24.278  18.362   8.550
 4673POPC   C2B 6872  24.275  18.361   8.250
 4673POPC   C3B 6873  24.288  18.343   7.950
 4673POPC   C4B 6874  24.195  18.275   7.650
 4674POPC   NC3 6875  15.976   7.466   9.450
 4674POPC   PO4 6876  15.950   7.430   9.150
 4674POPC   GL1 6877  15.925   7.410   8.850
 4674POPC   GL2 6878  16.003   7.570   8.850
 4674POPC   C1A 6879  15.932   7.440   8.550
 4674POPC   D2A 6880  15.906   7.434   8.250
 4674POPC   C3A 6881  15.931   7.395   7.950
 4674POPC   C4A 6882  15.916   7.392   7.650
 4674POPC   C1B 6883  16.003   7.662   8.550
 4674POPC   C2B 6884  16.029   7.663   8.250
 4674POPC   C3B 6885  15.990   7.641   7.950
 4674POPC   C4B 6886  16.058   7.611   7.650
 4675POPC   NC3 6887  35.375  13.617   9.450
 4675POPC   PO4 6888  35.308  13.583   9.150
 4675POPC   GL1 6889  35.382  13.641   8.850
 4675POPC   GL2 6890  35.459  13.643   8.850
 4675POPC   C1A 6891  35.327  13.609   8.550
 4675POPC   D2A 6892  35.382  13.620   8.250
 4675POPC   C3A 6893  35.328  13.651   7.950
 4675POPC   C4A 6894  35.380  13.613   7.650
 4675POPC   C1B 6895  35.590  13.712   8.550
 4675POPC   C2B 6896  35.583  13.728   8.250
 4675POPC   C3B 6897  35.587  13.703   7.950
 4675POPC   C4B 6898  35.634  13.708   7.650
 4676POPC   NC3 6899  43.897  23.719   9.450
 4676POPC   PO4 6900  43.870  23.670   9.150
 4676POPC   GL1 6901  43.865  23.713   8.850
 4676POPC   GL2 6902  43.837  23.778   8.850
 4676POPC   C1A 6903  43.844  23.751   8.550
 4676POPC   D2A 6904  43.874  23.763   8.250
 4676POPC   C3A 6905  43.887  23.718   7.950
 4676POPC   C4A 6906  43.887  23.757   7.650
 4676POPC   C1B 6907  43.805  23.936   8.550
 4676POPC   C2B 6908  43.767  23.903   8.250
 4676POPC   C3B 6909  43.817  23.981   7.950
 4676POPC   C4B 6910  43.795  23.945   7.650
 4677POPC   NC3 6911   0.431  22.158   9.450
 4677POPC   PO4 6912   0.473  22.196   9.150
 4677POPC   GL1 6913   0.425  22.182   8.850
 4677POPC   GL2 6914   0.329  22.173   8.850
 4677POPC   C1A 6915   0.413  22.121   8.550
 4677POPC   D2A 6916   0.391  22.113   8.250
 4677POPC   C3A 6917   0.469  22.129   7.950
 4677POPC   C4A 6918   0.462  22.145   7.650
 4677POPC   C1B 6919   0.143  22.180   8.550
 4677POPC   C2B 6920   0.214  22.124   8.250
 4677POPC   C3B 6921   0.220  22.167   7.950
 4677POPC   C4B 6922   0.228  22.088   7.650
 4678POPC   NC3 6923  34.613  30.704   9.450
 4678POPC   PO4 6924  34.574  30.730   9.150
 4678POPC   GL1 6925  34.534  30.727   8.850
 4678POPC   GL2 6926  34.624  30.811   8.850
 4678POPC   C1A 6927  34.568  30.734   8.550
 4678POPC   D2A 6928  34.607  30.690   8.250
 4678POPC   C3A 6929  34.573  30.690   7.950
 4678POPC   C4A 6930  34.612  30.739   7.650
 4678POPC   C1B 6931  34.620  30.924   8.550
 4678POPC   C2B 6932  34.661  30.942   8.250
 4678POPC   C3B 6933  34.659  30.976   7.950
 4678POPC   C4B 6934  34.680  30.946   7.650
 4679POPC   NC3 6935  26.018  25.239   9.450
 4679POPC   PO4 6936  26.015  25.226   9.150
 4679POPC   GL1 6937  26.001  25.274   8.850
 4679POPC   GL2 6938  26.137  25.342   8.850
 4679POPC   C1A 6939  26.071  25.234   8.550
 4679POPC   D2A 6940  26.015  25.263   8.250
 4679POPC   C3A 6941  26.081  25.301   7.950
 4679POPC   C4A 6942  26.083  25.291   7.650
 4679POPC   C1B 6943  26.250  25.429   8.550
 4679POPC   C2B 6944  26.186  25.472   8.250
 4679POPC   C3B 6945  26.257  25.419   7.950
 4679POPC   C4B 6946  26.281  25.401   7.650
 4680POPC   NC3 6947  36.862   1.942   9.450
 4680POPC   PO4 6948  36.938   2.032   9.150
 4680POPC   GL1 6949  36.943   1.970   8.850
 4680POPC   GL2 6950  36.846   2.132   8.850
 4680POPC   C1A 6951  36.950   2.003   8.550
 4680POPC   D2A 6952  36.900   1.996   8.250
 4680POPC   C3A 6953  36.891   1.942   7.950
 4680POPC   C4A 6954  36.868   2.011   7.650
 4680POPC   C1B 6955  36.773   2.238   8.550
 4680POPC   C2B 6956  36.802   2.234   8.250
 4680POPC   C3B 6957  36.775   2.200   7.950
 4680POPC   C4B 6958  36.726   2.220   7.650
 4681POPC   NC3 6959  10.559  36.933   9.450
 4681POPC   PO4 6960  10.493  36.921   9.150
 4681POPC   GL1 6961  10.487  36.888   8.850
 4681POPC   GL2 6962  10.488  37.056   8.850
 4681POPC   C1A 6963  10.509  36.948   8.550
 4681POPC   D2A 6964  10.556  36.885   8.250
 4681POPC   C3A 6965  10.524  36.858   7.950
 4681POPC   C4A 6966  10.482  36.932   7.650
 4681POPC   C1B 6967  10.403  37.130   8.550
 4681POPC   C2B 6968  10.412  37.103   8.250
 4681POPC   C3B 6969  10.492  37.106   7.950
 4681POPC   C4B 6970  10.441  37.104   7.650
 4682POPC   NC3 6971  42.364  27.553   9.450
 4682POPC   PO4 6972  42.295  27.606   9.150
 4682POPC   GL1 6973  42.378  27.557   8.850
 4682POPC   GL2 6974  42.485  27.583   8.850
 4682POPC   C1A 6975  42.311  27.556   8.550
 4682POPC   D2A 6976  42.326  27.569   8.250
 4682POPC   C3A 6977  42.335  27.605   7.950
 4682POPC   C4A 6978  42.337  27.595   7.650
 4682POPC   C1B 6979  42.545  27.543   8.550
 4682POPC   C2B 6980  42.595  27.490   8.250
 4682POPC   C3B 6981  42.606  27.484   7.950
 4682POPC   C4B 6982  42.534  27.528   7.650
 4683POPC   NC3 6983  30.737  33.006   9.450
 4683POPC   PO4 6984  30.664  33.061   9.150
 4683POPC   GL1 6985  30.702  32.993   8.850
 4683POPC   GL2 6986  30.766  33.058   8.850
 4683POPC   C1A 6987  30.676  32.978   8.550
 4683POPC   D2A 6988  30.743  33.007   8.250
 4683POPC   C3A 6989  30.718  32.981   7.950
 4683POPC   C4A 6990  30.725  33.045   7.650
 4683POPC   C1B 6991  30.932  33.124   8.550
 4683POPC   C2B 6992  30.927  33.134   8.250
 4683POPC   C3B 6993  30.920  33.191   7.950
 4683POPC   C4B 6994  30.895  33.123   7.650
 4684POPC   NC3 6995   9.776  26.786   9.450
 4684POPC   PO4 6996   9.763  26.860   9.150
 4684POPC   GL1 6997   9.762  26.800   8.850
 4684POPC   GL2 6998   9.815  26.912   8.850
 4684POPC   C1A 6999   9.728  26.797   8.550
 4684POPC   D2A 7000   9.762  26.787   8.250
 4684POPC   C3A 7001   9.774  26.822   7.950
 4684POPC   C4A 7002   9.715  26.833   7.650
 4684POPC   C1B 7003   9.790  27.062   8.550
 4684POPC   C2B 7004   9.846  27.064   8.250
 4684POPC   C3B 7005   9.809  27.055   7.950
 4684POPC   C4B 7006   9.798  27.069   7.650
 4685POPC   NC3 7007  21.381  31.474   9.450
 4685POPC   PO4 7008  21.388  31.511   9.150
 4685POPC   GL1 7009  21.396  31.483   8.850
 4685POPC   GL2 7010  21.420  31.374   8.850
 4685POPC   C1A 7011  21.433  31.480   8.550
 4685POPC   D2A 7012  21.413  31.522   8.250
 4685POPC   C3A 7013  21.423  31.438   7.950
 4685POPC   C4A 7014  21.377  31.442   7.650
 4685POPC   C1B 7015  21.535  31.285   8.550
 4685POPC   C2B 7016  21.573  31.328   8.250
 4685POPC   C3B 7017  21.594  31.270   7.950
 4685POPC   C4B 7018  21.572  31.274   7.650
 4686POPC   NC3 7019  31.517  42.384   9.450
 4686POPC   PO4 7020  31.456  42.335   9.150
 4686POPC   GL1 7021  31.518  42.288   8.850
 4686POPC   GL2 7022  31.463  42.466   8.850
 4686POPC   C1A 7023  31.518  42.345   8.550
 4686POPC   D2A 7024  31.431  42.348   8.250
 4686POPC   C3A 7025  31.426  42.378   7.950
 4686POPC   C4A 7026  31.430  42.343   7.650
 4686POPC   C1B 7027  31.428  42.563   8.550
 4686POPC   C2B 7028  31.444  42.632   8.250
 4686POPC   C3B 7029  31.485  42.621   7.950
 4686POPC   C4B 7030  31.433  42.543   7.650
 4687POPC   NC3 7031  21.380  12.085   9.450
 4687POPC   PO4 7032  21.399  12.117   9.150
 4687POPC   GL1 7033  21.393  12.100   8.850
 4687POPC   GL2 7034  21.302  12.188   8.850
 4687POPC   C1A 7035  21.374  12.043   8.550
 4687POPC   D2A 7036  21.367  12.029   8.250
 4687POPC   C3A 7037  21.386  12.084   7.950
 4687POPC   C4A 7038  21.376  12.067   7.650
 4687POPC   C1B 7039  21.195  12.215   8.550
 4687POPC   C2B 7040  21.236  12.186   8.250
 4687POPC   C3B 7041  21.218  12.187   7.950
 4687POPC   C4B 7042  21.187  12.193   7.650
 4688POPC   NC3 7043   1.985   4.336   9.450
 4688POPC   PO4 7044   2.023   4.293   9.150
 4688POPC   GL1 7045   2.024   4.362   8.850
 4688POPC   GL2 7046   1.897   4.322   8.850
 4688POPC   C1A 7047   1.996   4.366   8.550
 4688POPC   D2A 7048   1.944   4.289   8.250
 4688POPC   C3A 7049   1.943   4.308   7.950
 4688POPC   C4A 7050   1.974   4.348   7.650
 4688POPC   C1B 7051   1.782   4.442   8.550
 4688POPC   C2B 7052   1.776   4.454   8.250
 4688POPC   C3B 7053   1.799   4.430   7.950
 4688POPC   C4B 7054   1.718   4.451   7.650
 4689POPC   NC3 7055  33.769  20.657   9.450
 4689POPC   PO4 7056  33.829  20.563   9.150
 4689POPC   GL1 7057  33.847  20.587   8.850
 4689POPC   GL2 7058  33.686  20.612   8.850
 4689POPC   C1A 7059  33.784  20.603   8.550
 4689POPC   D2A 7060  33.799  20.659   8.250
 4689POPC   C3A 7061  33.797  20.563   7.950
 4689POPC   C4A 7062  33.779  20.641   7.650
 4689POPC   C1B 7063  33.588  20.554   8.550
 4689POPC   C2B 7064  33.550  20.523   8.250
 4689POPC   C3B 7065  33.613  20.512   7.950
 4689POPC   C4B 7066  33.539  20.511   7.650
 4690POPC   NC3 7067  32.223  10.536   9.450
 4690POPC   PO4 7068  32.216  10.529   9.150
 4690POPC   GL1 7069  32.202  10.549   8.850
 4690POPC   GL2 7070  32.197  10.446   8.850
 4690POPC   C1A 7071  32.206  10.560   8.550
 4690POPC   D2A 7072  32.250  10.574   8.250
 4690POPC   C3A 7073  32.268  10.475   7.950
 4690POPC   C4A 7074  32.223  10.526   7.650
 4690POPC   C1B 7075  32.097  10.352   8.550
 4690POPC   C2B 7076  32.057  10.350   8.250
 4690POPC   C3B 7077  32.016  10.399   7.950
 4690POPC   C4B 7078  32.068  10.368   7.650
 4691POPC   NC3 7079  27.588  16.741   9.450
 4691POPC   PO4 7080  27.587  16.730   9.150
 4691POPC   GL1 7081  27.564  16.772   8.850
 4691POPC   GL2 7082  27.477  16.656   8.850
 4691POPC   C1A 7083  27.628  16.703   8.550
 4691POPC   D2A 7084  27.624  16.703   8.250
 4691POPC   C3A 7085  27.612  16.748   7.950
 4691POPC   C4A 7086  27.600  16.731   7.650
 4691POPC   C1B 7087  27.318  16.636   8.550
 4691POPC   C2B 7088  27.359  16.689   8.250
 4691POPC   C3B 7089  27.380  16.611   7.950
 4691POPC   C4B 7090  27.317  16.658   7.650
 4692POPC   NC3 7091  29.170  38.493   9.450
 4692POPC   PO4 7092  29.128  38.449   9.150
 4692POPC   GL1 7093  29.148  38.422   8.850
 4692POPC   GL2 7094  29.001  38.437   8.850
 4692POPC   C1A 7095  29.118  38.495   8.550
 4692POPC   D2A 7096  29.116  38.452   8.250
 4692POPC   C3A 7097  29.118  38.422   7.950
 4692POPC   C4A 7098  29.131  38.485   7.650
 4692POPC   C1B 7099  28.901  38.341   8.550
 4692POPC   C2B 7100  28.891  38.391   8.250
 4692POPC   C3B 7101  28.898  38.372   7.950
 4692POPC   C4B 7102  28.888  38.346   7.650
 4693POPC   NC3 7103   8.174   5.841   9.450
 4693POPC   PO4 7104   8.214   5.875   9.150
 4693POPC   GL1 7105   8.176   5.833   8.850
 4693POPC   GL2 7106   8.098   6.005   8.850
 4693POPC   C1A 7107   8.156   5.873   8.550
 4693POPC   D2A 7108   8.229   5.836   8.250
 4693POPC   C3A 7109   8.245   5.828   7.950
 4693POPC   C4A 7110   8.235   5.868   7.650
 4693POPC   C1B 7111   8.025   6.023   8.550
 4693POPC   C2B 7112   8.026   6.017   8.250
 4693POPC   C3B 7113   7.979   6.034   7.950
 4693POPC   C4B 7114   8.057   6.094   7.650
 4694POPC   NC3 7115  28.333  10.511   9.450
 4694POPC   PO4 7116  28.353  10.537   9.150
 4694POPC   GL1 7117  28.379  10.572   8.850
 4694POPC   GL2 7118  28.244  10.481   8.850
 4694POPC   C1A 7119  28.398  10.486   8.550
 4694POPC   D2A 7120  28.361  10.552   8.250
 4694POPC   C3A 7121  28.352  10.523   7.950
 4694POPC   C4A 7122  28.338  10.565   7.650
 4694POPC   C1B 7123  28.100  10.483   8.550
 4694POPC   C2B 7124  28.118  10.492   8.250
 4694POPC   C3B 7125  28.131  10.449   7.950
 4694POPC   C4B 7126  28.152  10.505   7.650
 4695POPC   NC3 7127  27.608  43.069   9.450
 4695POPC   PO4 7128  27.608  43.130   9.150
 4695POPC   GL1 7129  27.583  43.080   8.850
 4695POPC   GL2 7130  27.510  43.106   8.850
 4695POPC   C1A 7131  27.559  43.121   8.550
 4695POPC   D2A 7132  27.624  43.062   8.250
 4695POPC   C3A 7133  27.630  43.105   7.950
 4695POPC   C4A 7134  27.633  43.076   7.650
 4695POPC   C1B 7135  27.308  43.045   8.550
 4695POPC   C2B 7136  27.311  43.014   8.250
 4695POPC   C3B 7137  27.331  43.033   7.950
 4695POPC   C4B 7138  27.333  43.034   7.650
 4696POPC   NC3 7139   6.634  39.985   9.450
 4696POPC   PO4 7140   6.633  40.016   9.150
 4696POPC   GL1 7141   6.647  40.008   8.850
 4696POPC   GL2 7142   6.759  39.881   8.850
 4696POPC   C1A 7143   6.681  40.028   8.550
 4696POPC   D2A 7144   6.615  40.033   8.250
 4696POPC   C3A 7145   6.693  40.052   7.950
 4696POPC   C4A 7146   6.643  39.977   7.650
 4696POPC   C1B 7147   6.863  39.861   8.550
 4696POPC   C2B 7148   6.823  39.843   8.250
 4696POPC   C3B 7149   6.838  39.792   7.950
 4696POPC   C4B 7150   6.850  39.876   7.650
 4697POPC   NC3 7151  44.649  40.005   9.450
 4697POPC   PO4 7152  44.702  39.981   9.150
 4697POPC   GL1 7153  44.681  40.039   8.850
 4697POPC   GL2 7154  44.763  39.877   8.850
 4697POPC   C1A 7155  44.648  40.006   8.550
 4697POPC   D2A 7156  44.636  40.052   8.250
 4697POPC   C3A 7157  44.645  40.014   7.950
 4697POPC   C4A 7158  44.680  39.979   7.650
 4697POPC   C1B 7159  44.854  39.794   8.550
 4697POPC   C2B 7160  44.799  39.845   8.250
 4697POPC   C3B 7161  44.848  39.809   7.950
 4697POPC   C4B 7162  44.842  39.855   7.650
 4698POPC   NC3 7163  26.050  22.144   9.450
 4698POPC   PO4 7164  26.059  22.206   9.150
 4698POPC   GL1 7165  26.077  22.195   8.850
 4698POPC   GL2 7166  26.092  22.061   8.850
 4698POPC   C1A 7167  26.089  22.170   8.550
 4698POPC   D2A 7168  26.052  22.175   8.250
 4698POPC   C3A 7169  26.041  22.188   7.950
 4698POPC   C4A 7170  25.992  22.190   7.650
 4698POPC   C1B 7171  26.118  21.922   8.550
 4698POPC   C2B 7172  26.091  21.912   8.250
 4698POPC   C3B 7173  26.092  21.911   7.950
 4698POPC   C4B 7174  26.107  21.971   7.650
 4699POPC   NC3 7175   5.917  10.548   9.450
 4699POPC   PO4 7176   5.899  10.488   9.150
 4699POPC   GL1 7177   5.907  10.502   8.850
 4699POPC   GL2 7178   5.852  10.351   8.850
 4699POPC   C1A 7179   5.907  10.495   8.550
 4699POPC   D2A 7180   5.864  10.515   8.250
 4699POPC   C3A 7181   5.868  10.491   7.950
 4699POPC   C4A 7182   5.905  10.546   7.650
 4699POPC   C1B 7183   5.944  10.305   8.550
 4699POPC   C2B 7184   5.892  10.250   8.250
 4699POPC   C3B 7185   5.866  10.307   7.950
 4699POPC   C4B 7186   5.945  10.253   7.650
 4700POPC   NC3 7187  22.180  25.224   9.450
 4700POPC   PO4 7188  22.187  25.296   9.150
 4700POPC   GL1 7189  22.201  25.299   8.850
 4700POPC   GL2 7190  22.178  25.384   8.850
 4700POPC   C1A 7191  22.118  25.250   8.550
 4700POPC   D2A 7192  22.125  25.297   8.250
 4700POPC   C3A 7193  22.173  25.260   7.950
 4700POPC   C4A 7194  22.114  25.302   7.650
 4700POPC   C1B 7195  22.249  25.462   8.550
 4700POPC   C2B 7196  22.238  25.515   8.250
 4700POPC   C3B 7197  22.219  25.503   7.950
 4700POPC   C4B 7198  22.201  25.456   7.650
 4701POPC   NC3 7199  34.531   0.441   9.450
 4701POPC   PO4 7200  34.552   0.423   9.150
 4701POPC   GL1 7201  34.581   0.461   8.850
 4701POPC   GL2 7202  34.473   0.386   8.850
 4701POPC   C1A 7203  34.584   0.392   8.550
 4701POPC   D2A 7204  34.562   0.441   8.250
 4701POPC   C3A 7205  34.622   0.402   7.950
 4701POPC   C4A 7206  34.611   0.429   7.650
 4701POPC   C1B 7207  34.307   0.412   8.550
 4701POPC   C2B 7208  34.315   0.364   8.250
 4701POPC   C3B 7209  34.327   0.400   7.950
 4701POPC   C4B 7210  34.313   0.410   7.650
 4702POPC   NC3 7211  39.975  43.123   9.450
 4702POPC   PO4 7212  40.049  43.060   9.150
 4702POPC   GL1 7213  40.016  43.140   8.850
 4702POPC   GL2 7214  39.955  43.051   8.850
 4702POPC   C1A 7215  39.965  43.120   8.550
 4702POPC   D2A 7216  39.970  43.156   8.250
 4702POPC   C3A 7217  39.968  43.062   7.950
 4702POPC   C4A 7218  39.977  43.121   7.650
 4702POPC   C1B 7219  39.830  42.964   8.550
 4702POPC   C2B 7220  39.842  42.926   8.250
 4702POPC   C3B 7221  39.804  42.967   7.950
 4702POPC   C4B 7222  39.814  42.999   7.650
 4703POPC   NC3 7223   5.823  25.292   9.450
 4703POPC   PO4 7224   5.841  25.223   9.150
 4703POPC   GL1 7225   5.896  25.263   8.850
 4703POPC   GL2 7226   5.753  25.346   8.850
 4703POPC   C1A 7227   5.829  25.271   8.550
 4703POPC   D2A 7228   5.881  25.237   8.250
 4703POPC   C3A 7229   5.893  25.252   7.950
 4703POPC   C4A 7230   5.891  25.296   7.650
 4703POPC   C1B 7231   5.692  25.417   8.550
 4703POPC   C2B 7232   5.616  25.343   8.250
 4703POPC   C3B 7233   5.685  25.367   7.950
 4703POPC   C4B 7234   5.613  25.361   7.650
 4704POPC   NC3 7235   1.245  11.300   9.450
 4704POPC   PO4 7236   1.167  11.300   9.150
 4704POPC   GL1 7237   1.230  11.310   8.850
 4704POPC   GL2 7238   1.343  11.265   8.850
 4704POPC   C1A 7239   1.206  11.333   8.550
 4704POPC   D2A 7240   1.168  11.260   8.250
 4704POPC   C3A 7241   1.220  11.260   7.950
 4704POPC   C4A 7242   1.186  11.332   7.650
 4704POPC   C1B 7243   1.487  11.259   8.550
 4704POPC   C2B 7244   1.442  11.234   8.250
 4704POPC   C3B 7245   1.467  11.208   7.950
 4704POPC   C4B 7246   1.448  11.234   7.650
 4705POPC   NC3 7247  12.884   1.952   9.450
 4705POPC   PO4 7248  12.853   2.025   9.150
 4705POPC   GL1 7249  12.895   1.997   8.850
 4705POPC   GL2 7250  12.737   2.077   8.850
 4705POPC   C1A 7251  12.898   1.986   8.550
 4705POPC   D2A 7252  12.838   1.959   8.250
 4705POPC   C3A 7253  12.879   2.008   7.950
 4705POPC   C4A 7254  12.880   2.024   7.650
 4705POPC   C1B 7255  12.637   2.065   8.550
 4705POPC   C2B 7256  12.619   2.087   8.250
 4705POPC   C3B 7257  12.586   2.108   7.950
 4705POPC   C4B 7258  12.634   2.103   7.650
 4706POPC   NC3 7259   5.060  29.179   9.450
 4706POPC   PO4 7260   5.046  29.100   9.150
 4706POPC   GL1 7261   5.053  29.150   8.850
 4706POPC   GL2 7262   5.179  29.176   8.850
 4706POPC   C1A 7263   5.135  29.166   8.550
 4706POPC   D2A 7264   5.057  29.101   8.250
 4706POPC   C3A 7265   5.065  29.175   7.950
 4706POPC   C4A 7266   5.100  29.180   7.650
 4706POPC   C1B 7267   5.310  29.190   8.550
 4706POPC   C2B 7268   5.297  29.176   8.250
 4706POPC   C3B 7269   5.365  29.147   7.950
 4706POPC   C4B 7270   5.324  29.141   7.650
 4707POPC   NC3 7271   9.728   6.689   9.450
 4707POPC   PO4 7272   9.725   6.619   9.150
 4707POPC   GL1 7273   9.754   6.599   8.850
 4707POPC   GL2 7274   9.656   6.658   8.850
 4707POPC   C1A 7275   9.729   6.660   8.550
 4707POPC   D2A 7276   9.782   6.604   8.250
 4707POPC   C3A 7277   9.704   6.611   7.950
 4707POPC   C4A 7278   9.776   6.613   7.650
 4707POPC   C1B 7279   9.533   6.770   8.550
 4707POPC   C2B 7280   9.477   6.783   8.250
 4707POPC   C3B 7281   9.498   6.768   7.950
 4707POPC   C4B 7282   9.567   6.738   7.650
 4708POPC   NC3 7283  22.142   0.450   9.450
 4708POPC   PO4 7284  22.203   0.455   9.150
 4708POPC   GL1 7285  22.195   0.397   8.850
 4708POPC   GL2 7286  22.072   0.566   8.850
 4708POPC   C1A 7287  22.136   0.473   8.550
 4708POPC   D2A 7288  22.137   0.453   8.250
 4708POPC   C3A 7289  22.156   0.433   7.950
 4708POPC   C4A 7290  22.180   0.472   7.650
 4708POPC   C1B 7291  22.064   0.661   8.550
 4708POPC   C2B 7292  22.025   0.667   8.250
 4708POPC   C3B 7293  22.057   0.679   7.950
 4708POPC   C4B 7294  22.045   0.605   7.650
 4709POPC   NC3 7295  20.646  29.150   9.450
 4709POPC   PO4 7296  20.615  29.163   9.150
 4709POPC   GL1 7297  20.659  29.108   8.850
 4709POPC   GL2 7298  20.727  29.163   8.850
 4709POPC   C1A 7299  20.595  29.112   8.550
 4709POPC   D2A 7300  20.607  29.119   8.250
 4709POPC   C3A 7301  20.653  29.158   7.950
 4709POPC   C4A 7302  20.620  29.102   7.650
 4709POPC   C1B 7303  20.896  29.164   8.550
 4709POPC   C2B 7304  20.866  29.178   8.250
 4709POPC   C3B 7305  20.899  29.240   7.950
 4709POPC   C4B 7306  20.879  29.234   7.650
 4710POPC   NC3 7307   1.217  26.056   9.450
 4710POPC   PO4 7308   1.260  26.045   9.150
 4710POPC   GL1 7309   1.231  26.064   8.850
 4710POPC   GL2 7310   1.097  26.125   8.850
 4710POPC   C1A 7311   1.215  26.067   8.550
 4710POPC   D2A 7312   1.261  26.011   8.250
 4710POPC   C3A 7313   1.255  26.036   7.950
 4710POPC   C4A 7314   1.217  26.023   7.650
 4710POPC   C1B 7315   0.958  26.125   8.550
 4710POPC   C2B 7316   0.953  26.142   8.250
 4710POPC   C3B 7317   0.952  26.115   7.950
 4710POPC   C4B 7318   0.929  26.154   7.650
 4711POPC   NC3 7319  19.870  27.559   9.450
 4711POPC   PO4 7320  19.844  27.604   9.150
 4711POPC   GL1 7321  19.860  27.571   8.850
 4711POPC   GL2 7322  19.724  27.544   8.850
 4711POPC   C1A 7323  19.860  27.553   8.550
 4711POPC   D2A 7324  19.880  27.617   8.250
 4711POPC   C3A 7325  19.880  27.637   7.950
 4711POPC   C4A 7326  19.838  27.552   7.650
 4711POPC   C1B 7327  19.599  27.464   8.550
 4711POPC   C2B 7328  19.623  27.473   8.250
 4711POPC   C3B 7329  19.562  27.542   7.950
 4711POPC   C4B 7330  19.640  27.540   7.650
 4712POPC   NC3 7331  18.302   0.418   9.450
 4712POPC   PO4 7332  18.249   0.405   9.150
 4712POPC   GL1 7333  18.291   0.487   8.850
 4712POPC   GL2 7334  18.177   0.364   8.850
 4712POPC   C1A 7335  18.328   0.435   8.550
 4712POPC   D2A 7336  18.290   0.465   8.250
 4712POPC   C3A 7337  18.272   0.407   7.950
 4712POPC   C4A 7338  18.253   0.416   7.650
 4712POPC   C1B 7339  18.033   0.370   8.550
 4712POPC   C2B 7340  18.024   0.387   8.250
 4712POPC   C3B 7341  18.047   0.333   7.950
 4712POPC   C4B 7342  17.999   0.388   7.650
 4713POPC   NC3 7343  19.042  40.029   9.450
 4713POPC   PO4 7344  19.049  39.968   9.150
 4713POPC   GL1 7345  19.063  40.044   8.850
 4713POPC   GL2 7346  19.109  39.894   8.850
 4713POPC   C1A 7347  19.064  39.974   8.550
 4713POPC   D2A 7348  19.086  39.959   8.250
 4713POPC   C3A 7349  19.101  40.028   7.950
 4713POPC   C4A 7350  19.064  40.008   7.650
 4713POPC   C1B 7351  19.077  39.768   8.550
 4713POPC   C2B 7352  19.092  39.780   8.250
 4713POPC   C3B 7353  19.061  39.803   7.950
 4713POPC   C4B 7354  19.101  39.767   7.650
 4714POPC   NC3 7355  31.461  25.315   9.450
 4714POPC   PO4 7356  31.430  25.315   9.150
 4714POPC   GL1 7357  31.424  25.240   8.850
 4714POPC   GL2 7358  31.514  25.197   8.850
 4714POPC   C1A 7359  31.466  25.249   8.550
 4714POPC   D2A 7360  31.473  25.254   8.250
 4714POPC   C3A 7361  31.445  25.238   7.950
 4714POPC   C4A 7362  31.469  25.235   7.650
 4714POPC   C1B 7363  31.584  25.088   8.550
 4714POPC   C2B 7364  31.657  25.063   8.250
 4714POPC   C3B 7365  31.581  25.115   7.950
 4714POPC   C4B 7366  31.595  25.022   7.650
 4715POPC   NC3 7367  17.459  11.260   9.450
 4715POPC   PO4 7368  17.493  11.277   9.150
 4715POPC   GL1 7369  17.528  11.349   8.850
 4715POPC   GL2 7370  17.479  11.454   8.850
 4715POPC   C1A 7371  17.490  11.254   8.550
 4715POPC   D2A 7372  17.493  11.253   8.250
 4715POPC   C3A 7373  17.494  11.263   7.950
 4715POPC   C4A 7374  17.550  11.313   7.650
 4715POPC   C1B 7375  17.349  11.465   8.550
 4715POPC   C2B 7376  17.391  11.488   8.250
 4715POPC   C3B 7377  17.348  11.550   7.950
 4715POPC   C4B 7378  17.420  11.514   7.650
 4716POPC   NC3 7379  20.562  37.716   9.450
 4716POPC   PO4 7380  20.581  37.682   9.150
 4716POPC   GL1 7381  20.616  37.669   8.850
 4716POPC   GL2 7382  20.654  37.624   8.850
 4716POPC   C1A 7383  20.652  37.643   8.550
 4716POPC   D2A 7384  20.566  37.632   8.250
 4716POPC   C3A 7385  20.630  37.647   7.950
 4716POPC   C4A 7386  20.595  37.660   7.650
 4716POPC   C1B 7387  20.780  37.462   8.550
 4716POPC   C2B 7388  20.828  37.480   8.250
 4716POPC   C3B 7389  20.816  37.530   7.950
 4716POPC   C4B 7390  20.767  37.464   7.650
 4717POPC   NC3 7391  44.653  25.225   9.450
 4717POPC   PO4 7392  44.673  25.256   9.150
 4717POPC   GL1 7393  44.637  25.233   8.850
 4717POPC   GL2 7394  44.541  25.159   8.850
 4717POPC   C1A 7395  44.660  25.298   8.550
 4717POPC   D2A 7396  44.630  25.288   8.250
 4717POPC   C3A 7397  44.704  25.293   7.950
 4717POPC   C4A 7398  44.624  25.262   7.650
 4717POPC   C1B 7399  44.420  25.163   8.550
 4717POPC   C2B 7400  44.442  25.077   8.250
 4717POPC   C3B 7401  44.411  25.150   7.950
 4717POPC   C4B 7402  44.446  25.084   7.650
 4718POPC   NC3 7403  41.569   9.770   9.450
 4718POPC   PO4 7404  41.538   9.712   9.150
 4718POPC   GL1 7405  41.601   9.739   8.850
 4718POPC   GL2 7406  41.432   9.866   8.850
 4718POPC   C1A 7407  41.609   9.734   8.550
 4718POPC   D2A 7408  41.567   9.793   8.250
 4718POPC   C3A 7409  41.561   9.751   7.950
 4718POPC   C4A 7410  41.576   9.710   7.650
 4718POPC   C1B 7411  41.394   9.885   8.550
 4718POPC   C2B 7412  41.343   9.957   8.250
 4718POPC   C3B 7413  41.424   9.884   7.950
 4718POPC   C4B 7414  41.375   9.890   7.650
 4719POPC   NC3 7415  33.041  40.013   9.450
 4719POPC   PO4 7416  33.052  40.005   9.150
 4719POPC   GL1 7417  33.046  39.971   8.850
 4719POPC   GL2 7418  32.931  40.159   8.850
 4719POPC   C1A 7419  32.978  40.015   8.550
 4719POPC   D2A 7420  33.031  39.999   8.250
 4719POPC   C3A 7421  33.072  39.997   7.950
 4719POPC   C4A 7422  32.994  40.054   7.650
 4719POPC   C1B 7423  32.893  40.202   8.550
 4719POPC   C2B 7424  32.935  40.203   8.250
 4719POPC   C3B 7425  32.924  40.204   7.950
 4719POPC   C4B 7426  32.877  40.228   7.650
 4720POPC   NC3 7427  10.502  37.695   9.450
 4720POPC   PO4 7428  10.560  37.649   9.150
 4720POPC   GL1 7429  10.523  37.703   8.850
 4720POPC   GL2 7430  10.586  37.552   8.850
 4720POPC   C1A 7431  10.508  37.639   8.550
 4720POPC   D2A 7432  10.507  37.652   8.250
 4720POPC   C3A 7433  10.554  37.698   7.950
 4720POPC   C4A 7434  10.535  37.640   7.650
 4720POPC   C1B 7435  10.613  37.477   8.550
 4720POPC   C2B 7436  10.677  37.443   8.250
 4720POPC   C3B 7437  10.617  37.484   7.950
 4720POPC   C4B 7438  10.627  37.495   7.650
 4721POPC   NC3 7439  33.847   1.996   9.450
 4721POPC   PO4 7440  33.784   1.997   9.150
 4721POPC   GL1 7441  33.787   1.987   8.850
 4721POPC   GL2 7442  33.632   1.953   8.850
 4721POPC   C1A 7443  33.799   2.000   8.550
 4721POPC   D2A 7444  33.760   1.957   8.250
 4721POPC   C3A 7445  33.799   1.974   7.950
 4721POPC   C4A 7446  33.771   2.017   7.650
 4721POPC   C1B 7447  33.565   1.987   8.550
 4721POPC   C2B 7448  33.588   1.953   8.250
 4721POPC   C3B 7449  33.559   2.017   7.950
 4721POPC   C4B 7450  33.516   1.977   7.650
 4722POPC   NC3 7451  23.678  15.219   9.450
 4722POPC   PO4 7452  23.751  15.164   9.150
 4722POPC   GL1 7453  23.738  15.189   8.850
 4722POPC   GL2 7454  23.642  15.089   8.850
 4722POPC   C1A 7455  23.666  15.149   8.550
 4722POPC   D2A 7456  23.746  15.206   8.250
 4722POPC   C3A 7457  23.737  15.201   7.950
 4722POPC   C4A 7458  23.755  15.213   7.650
 4722POPC   C1B 7459  23.606  14.973   8.550
 4722POPC   C2B 7460  23.608  15.005   8.250
 4722POPC   C3B 7461  23.570  15.000   7.950
 4722POPC   C4B 7462  23.562  14.924   7.650
 4723POPC   NC3 7463  27.632   8.922   9.450
 4723POPC   PO4 7464  27.621   8.986   9.150
 4723POPC   GL1 7465  27.562   8.952   8.850
 4723POPC   GL2 7466  27.499   8.828   8.850
 4723POPC   C1A 7467  27.569   8.961   8.550
 4723POPC   D2A 7468  27.567   8.997   8.250
 4723POPC   C3A 7469  27.584   8.933   7.950
 4723POPC   C4A 7470  27.598   8.940   7.650
 4723POPC   C1B 7471  27.468   8.823   8.550
 4723POPC   C2B 7472  27.451   8.792   8.250
 4723POPC   C3B 7473  27.448   8.759   7.950
 4723POPC   C4B 7474  27.427   8.730   7.650
 4724POPC   NC3 7475  39.990   1.952   9.450
 4724POPC   PO4 7476  39.960   1.972   9.150
 4724POPC   GL1 7477  39.966   2.035   8.850
 4724POPC   GL2 7478  39.936   2.079   8.850
 4724POPC   C1A 7479  39.983   1.956   8.550
 4724POPC   D2A 7480  39.987   2.032   8.250
 4724POPC   C3A 7481  39.980   1.946   7.950
 4724POPC   C4A 7482  39.994   2.020   7.650
 4724POPC   C1B 7483  39.882   2.166   8.550
 4724POPC   C2B 7484  39.855   2.157   8.250
 4724POPC   C3B 7485  39.801   2.162   7.950
 4724POPC   C4B 7486  39.877   2.165   7.650
 4725POPC   NC3 7487   9.769   2.756   9.450
 4725POPC   PO4 7488   9.796   2.807   9.150
 4725POPC   GL1 7489   9.725   2.746   8.850
 4725POPC   GL2 7490   9.708   2.842   8.850
 4725POPC   C1A 7491   9.779   2.803   8.550
 4725POPC   D2A 7492   9.718   2.781   8.250
 4725POPC   C3A 7493   9.786   2.815   7.950
 4725POPC   C4A 7494   9.716   2.796   7.650
 4725POPC   C1B 7495   9.615   2.969   8.550
 4725POPC   C2B 7496   9.658   2.942   8.250
 4725POPC   C3B 7497   9.603   2.942   7.950
 4725POPC   C4B 7498   9.620   3.031   7.650
 4726POPC   NC3 7499   9.792   4.348   9.450
 4726POPC   PO4 7500   9.764   4.290   9.150
 4726POPC   GL1 7501   9.746   4.276   8.850
 4726POPC   GL2 7502   9.783   4.221   8.850
 4726POPC   C1A 7503   9.749   4.346   8.550
 4726POPC   D2A 7504   9.784   4.274   8.250
 4726POPC   C3A 7505   9.727   4.309   7.950
 4726POPC   C4A 7506   9.731   4.339   7.650
 4726POPC   C1B 7507   9.732   4.052   8.550
 4726POPC   C2B 7508   9.795   4.033   8.250
 4726POPC   C3B 7509   9.767   4.103   7.950
 4726POPC   C4B 7510   9.790   4.020   7.650
 4727POPC   NC3 7511  13.605  24.535   9.450
 4727POPC   PO4 7512  13.637  24.510   9.150
 4727POPC   GL1 7513  13.672  24.449   8.850
 4727POPC   GL2 7514  13.742  24.630   8.850
 4727POPC   C1A 7515  13.637  24.480   8.550
 4727POPC   D2A 7516  13.615  24.450   8.250
 4727POPC   C3A 7517  13.650  24.447   7.950
 4727POPC   C4A 7518  13.668  24.447   7.650
 4727POPC   C1B 7519  13.795  24.635   8.550
 4727POPC   C2B 7520  13.761  24.639   8.250
 4727POPC   C3B 7521  13.824  24.634   7.950
 4727POPC   C4B 7522  13.759  24.642   7.650
 4728POPC   NC3 7523   0.390   3.574   9.450
 4728POPC   PO4 7524   0.461   3.546   9.150
 4728POPC   GL1 7525   0.447   3.549   8.850
 4728POPC   GL2 7526   0.369   3.459   8.850
 4728POPC   C1A 7527   0.388   3.534   8.550
 4728POPC   D2A 7528   0.463   3.572   8.250
 4728POPC   C3A 7529   0.453   3.525   7.950
 4728POPC   C4A 7530   0.469   3.526   7.650
 4728POPC   C1B 7531   0.294   3.358   8.550
 4728POPC   C2B 7532   0.380   3.308   8.250
 4728POPC   C3B 7533   0.323   3.319   7.950
 4728POPC   C4B 7534   0.317   3.333   7.650
 4729POPC   NC3 7535   5.864  26.776   9.450
 4729POPC   PO4 7536   5.833  26.799   9.150
 4729POPC   GL1 7537   5.841  26.771   8.850
 4729POPC   GL2 7538   5.694  26.853   8.850
 4729POPC   C1A 7539   5.826  26.800   8.550
 4729POPC   D2A 7540   5.892  26.802   8.250
 4729POPC   C3A 7541   5.857  26.857   7.950
 4729POPC   C4A 7542   5.869  26.850   7.650
 4729POPC   C1B 7543   5.655  26.857   8.550
 4729POPC   C2B 7544   5.668  26.814   8.250
 4729POPC   C3B 7545   5.625  26.801   7.950
 4729POPC   C4B 7546   5.633  26.836   7.650
 4730POPC   NC3 7547  29.132   8.161   9.450
 4730POPC   PO4 7548  29.136   8.203   9.150
 4730POPC   GL1 7549  29.169   8.241   8.850
 4730POPC   GL2 7550  29.100   8.097   8.850
 4730POPC   C1A 7551  29.137   8.235   8.550
 4730POPC   D2A 7552  29.133   8.195   8.250
 4730POPC   C3A 7553  29.168   8.156   7.950
 4730POPC   C4A 7554  29.139   8.239   7.650
 4730POPC   C1B 7555  29.017   8.034   8.550
 4730POPC   C2B 7556  28.987   8.052   8.250
 4730POPC   C3B 7557  28.983   7.974   7.950
 4730POPC   C4B 7558  28.945   8.007   7.650
 4731POPC   NC3 7559  42.333  21.417   9.450
 4731POPC   PO4 7560  42.327  21.412   9.150
 4731POPC   GL1 7561  42.338  21.414   8.850
 4731POPC   GL2 7562  42.455  21.312   8.850
 4731POPC   C1A 7563  42.311  21.401   8.550
 4731POPC   D2A 7564  42.313  21.338   8.250
 4731POPC   C3A 7565  42.361  21.349   7.950
 4731POPC   C4A 7566  42.285  21.343   7.650
 4731POPC   C1B 7567  42.483  21.209   8.550
 4731POPC   C2B 7568  42.506  21.186   8.250
 4731POPC   C3B 7569  42.528  21.162   7.950
 4731POPC   C4B 7570  42.542  21.201   7.650
 4732POPC   NC3 7571  21.436   7.374   9.450
 4732POPC   PO4 7572  21.407   7.385   9.150
 4732POPC   GL1 7573  21.435   7.444   8.850
 4732POPC   GL2 7574  21.388   7.541   8.850
 4732POPC   C1A 7575  21.349   7.398   8.550
 4732POPC   D2A 7576  21.362   7.469   8.250
 4732POPC   C3A 7577  21.406   7.413   7.950
 4732POPC   C4A 7578  21.350   7.395   7.650
 4732POPC   C1B 7579  21.340   7.672   8.550
 4732POPC   C2B 7580  21.372   7.639   8.250
 4732POPC   C3B 7581  21.308   7.699   7.950
 4732POPC   C4B 7582  21.391   7.694   7.650
 4733POPC   NC3 7583   2.001  30.720   9.450
 4733POPC   PO4 7584   1.956  30.697   9.150
 4733POPC   GL1 7585   2.023  30.659   8.850
 4733POPC   GL2 7586   1.881  30.646   8.850
 4733POPC   C1A 7587   1.995  30.722   8.550
 4733POPC   D2A 7588   1.988  30.679   8.250
 4733POPC   C3A 7589   2.021  30.708   7.950
 4733POPC   C4A 7590   1.984  30.662   7.650
 4733POPC   C1B 7591   1.723  30.718   8.550
 4733POPC   C2B 7592   1.762  30.713   8.250
 4733POPC   C3B 7593   1.764  30.666   7.950
 4733POPC   C4B 7594   1.748  30.701   7.650
 4734POPC   NC3 7595  20.620  16.681   9.450
 4734POPC   PO4 7596  20.568  16.773   9.150
 4734POPC   GL1 7597  20.640  16.772   8.850
 4734POPC   GL2 7598  20.522  16.760   8.850
 4734POPC   C1A 7599  20.635  16.684   8.550
 4734POPC   D2A 7600  20.629  16.763   8.250
 4734POPC   C3A 7601  20.563  16.740   7.950
 4734POPC   C4A 7602  20.597  16.772   7.650
 4734POPC   C1B 7603  20.389  16.730   8.550
 4734POPC   C2B 7604  20.322  16.703   8.250
 4734POPC   C3B 7605  20.367  16.729   7.950
 4734POPC   C4B 7606  20.353  16.776   7.650
 4735POPC   NC3 7607   8.229  38.405   9.450
 4735POPC   PO4 7608   8.158  38.497   9.150
 4735POPC   GL1 7609   8.159  38.405   8.850
 4735POPC   GL2 7610   8.145  38.292   8.850
 4735POPC   C1A 7611   8.163  38.419   8.550
 4735POPC   D2A 7612   8.187  38.425   8.250
 4735POPC   C3A 7613   8.215  38.494   7.950
 4735POPC   C4A 7614   8.207  38.449   7.650
 4735POPC   C1B 7615   8.114  38.261   8.550
 4735POPC   C2B 7616   8.125  38.254   8.250
 4735POPC   C3B 7617   8.159  38.192   7.950
 4735POPC   C4B 7618   8.132  38.163   7.650
 4736POPC   NC3 7619  11.256  37.664   9.450
 4736POPC   PO4 7620  11.347  37.706   9.150
 4736POPC   GL1 7621  11.301  37.722   8.850
 4736POPC   GL2 7622  11.427  37.643   8.850
 4736POPC   C1A 7623  11.307  37.726   8.550
 4736POPC   D2A 7624  11.321  37.694   8.250
 4736POPC   C3A 7625  11.338  37.684   7.950
 4736POPC   C4A 7626  11.261  37.703   7.650
 4736POPC   C1B 7627  11.480  37.581   8.550
 4736POPC   C2B 7628  11.522  37.491   8.250
 4736POPC   C3B 7629  11.535  37.506   7.950
 4736POPC   C4B 7630  11.497  37.499   7.650
 4737POPC   NC3 7631  14.387   7.412   9.450
 4737POPC   PO4 7632  14.415   7.416   9.150
 4737POPC   GL1 7633  14.418   7.439   8.850
 4737POPC   GL2 7634  14.330   7.558   8.850
 4737POPC   C1A 7635  14.380   7.382   8.550
 4737POPC   D2A 7636  14.409   7.429   8.250
 4737POPC   C3A 7637  14.357   7.378   7.950
 4737POPC   C4A 7638  14.396   7.380   7.650
 4737POPC   C1B 7639  14.282   7.585   8.550
 4737POPC   C2B 7640  14.222   7.640   8.250
 4737POPC   C3B 7641  14.294   7.615   7.950
 4737POPC   C4B 7642  14.223   7.674   7.650
 4738POPC   NC3 7643  24.494  21.371   9.450
 4738POPC   PO4 7644  24.472  21.414   9.150
 4738POPC   GL1 7645  24.530  21.378   8.850
 4738POPC   GL2 7646  24.655  21.374   8.850
 4738POPC   C1A 7647  24.484  21.365   8.550
 4738POPC   D2A 7648  24.474  21.418   8.250
 4738POPC   C3A 7649  24.470  21.422   7.950
 4738POPC   C4A 7650  24.501  21.422   7.650
 4738POPC   C1B 7651  24.754  21.381   8.550
 4738POPC   C2B 7652  24.725  21.345   8.250
 4738POPC   C3B 7653  24.718  21.341   7.950
 4738POPC   C4B 7654  24.761  21.335   7.650
 4739POPC   NC3 7655  10.495   2.003   9.450
 4739POPC   PO4 7656  10.537   2.000   9.150
 4739POPC   GL1 7657  10.536   2.035   8.850
 4739POPC   GL2 7658  10.458   1.850   8.850
 4739POPC   C1A 7659  10.484   1.980   8.550
 4739POPC   D2A 7660  10.534   2.038   8.250
 4739POPC   C3A 7661  10.515   1.998   7.950
 4739POPC   C4A 7662  10.491   1.979   7.650
 4739POPC   C1B 7663  10.437   1.773   8.550
 4739POPC   C2B 7664  10.417   1.795   8.250
 4739POPC   C3B 7665  10.438   1.714   7.950
 4739POPC   C4B 7666  10.465   1.723   7.650
 4740POPC   NC3 7667  25.270  29.959   9.450
 4740POPC   PO4 7668  25.284  29.905   9.150
 4740POPC   GL1 7669  25.274  29.909   8.850
 4740POPC   GL2 7670  25.215  30.034   8.850
 4740POPC   C1A 7671  25.263  29.939   8.550
 4740POPC   D2A 7672  25.288  29.912   8.250
 4740POPC   C3A 7673  25.305  29.934   7.950
 4740POPC   C4A 7674  25.223  29.962   7.650
 4740POPC   C1B 7675  25.112  30.134   8.550
 4740POPC   C2B 7676  25.097  30.175   8.250
 4740POPC   C3B 7677  25.109  30.163   7.950
 4740POPC   C4B 7678  25.115  30.152   7.650
 4741POPC   NC3 7679   6.693  28.359   9.450
 4741POPC   PO4 7680   6.669  28.369   9.150
 4741POPC   GL1 7681   6.647  28.341   8.850
 4741POPC   GL2 7682   6.559  28.483   8.850
 4741POPC   C1A 7683   6.626  28.359   8.550
 4741POPC   D2A 7684   6.673  28.371   8.250
 4741POPC   C3A 7685   6.629  28.410   7.950
 4741POPC   C4A 7686   6.662  28.370   7.650
 4741POPC   C1B 7687   6.603  28.634   8.550
 4741POPC   C2B 7688   6.562  28.576   8.250
 4741POPC   C3B 7689   6.512  28.596   7.950
 4741POPC   C4B 7690   6.542  28.651   7.650
 4742POPC   NC3 7691  21.416  11.277   9.450
 4742POPC   PO4 7692  21.346  11.252   9.150
 4742POPC   GL1 7693  21.347  11.303   8.850
 4742POPC   GL2 7694  21.467  11.185   8.850
 4742POPC   C1A 7695  21.371  11.270   8.550
 4742POPC   D2A 7696  21.341  11.307   8.250
 4742POPC   C3A 7697  21.407  11.308   7.950
 4742POPC   C4A 7698  21.417  11.280   7.650
 4742POPC   C1B 7699  21.534  11.105   8.550
 4742POPC   C2B 7700  21.558  11.125   8.250
 4742POPC   C3B 7701  21.599  11.149   7.950
 4742POPC   C4B 7702  21.564  11.137   7.650
 4743POPC   NC3 7703  10.501  26.045   9.450
 4743POPC   PO4 7704  10.484  26.090   9.150
 4743POPC   GL1 7705  10.535  26.039   8.850
 4743POPC   GL2 7706  10.562  26.091   8.850
 4743POPC   C1A 7707  10.518  26.063   8.550
 4743POPC   D2A 7708  10.527  26.046   8.250
 4743POPC   C3A 7709  10.546  26.047   7.950
 4743POPC   C4A 7710  10.544  26.039   7.650
 4743POPC   C1B 7711  10.705  26.215   8.550
 4743POPC   C2B 7712  10.725  26.216   8.250
 4743POPC   C3B 7713  10.717  26.258   7.950
 4743POPC   C4B 7714  10.663  26.244   7.650
 4744POPC   NC3 7715   8.946  42.363   9.450
 4744POPC   PO4 7716   9.002  42.373   9.150
 4744POPC   GL1 7717   8.973  42.303   8.850
 4744POPC   GL2 7718   8.920  42.191   8.850
 4744POPC   C1A 7719   8.954  42.290   8.550
 4744POPC   D2A 7720   8.926  42.358   8.250
 4744POPC   C3A 7721   8.963  42.353   7.950
 4744POPC   C4A 7722   9.013  42.340   7.650
 4744POPC   C1B 7723   8.926  42.093   8.550
 4744POPC   C2B 7724   8.928  42.062   8.250
 4744POPC   C3B 7725   8.951  42.062   7.950
 4744POPC   C4B 7726   8.925  42.065   7.650
 4745POPC   NC3 7727  28.334  30.677   9.450
 4745POPC   PO4 7728  28.380  30.692   9.150
 4745POPC   GL1 7729  28.347  30.678   8.850
 4745POPC   GL2 7730  28.364  30.772   8.850
 4745POPC   C1A 7731  28.344  30.740   8.550
 4745POPC   D2A 7732  28.391  30.746   8.250
 4745POPC   C3A 7733  28.388  30.674   7.950
 4745POPC   C4A 7734  28.323  30.712   7.650
 4745POPC   C1B 7735  28.439  30.977   8.550
 4745POPC   C2B 7736  28.372  30.959   8.250
 4745POPC   C3B 7737  28.454  30.898   7.950
 4745POPC   C4B 7738  28.431  30.901   7.650
 4746POPC   NC3 7739  33.025   0.482   9.450
 4746POPC   PO4 7740  33.046   0.403   9.150
 4746POPC   GL1 7741  33.030   0.398   8.850
 4746POPC   GL2 7742  32.900   0.487   8.850
 4746POPC   C1A 7743  33.002   0.487   8.550
 4746POPC   D2A 7744  33.043   0.417   8.250
 4746POPC   C3A 7745  33.009   0.413   7.950
 4746POPC   C4A 7746  33.047   0.454   7.650
 4746POPC   C1B 7747  32.783   0.530   8.550
 4746POPC   C2B 7748  32.861   0.559   8.250
 4746POPC   C3B 7749  32.827   0.565   7.950
 4746POPC   C4B 7750  32.838   0.534   7.650
 4747POPC   NC3 7751  42.358  25.304   9.450
 4747POPC   PO4 7752  42.353  25.234   9.150
 4747POPC   GL1 7753  42.311  25.274   8.850
 4747POPC   GL2 7754  42.250  25.111   8.850
 4747POPC   C1A 7755  42.346  25.246   8.550
 4747POPC   D2A 7756  42.358  25.231   8.250
 4747POPC   C3A 7757  42.343  25.299   7.950
 4747POPC   C4A 7758  42.297  25.233   7.650
 4747POPC   C1B 7759  42.288  24.982   8.550
 4747POPC   C2B 7760  42.270  24.988   8.250
 4747POPC   C3B 7761  42.267  24.990   7.950
 4747POPC   C4B 7762  42.225  25.013   7.650
 4748POPC   NC3 7763   6.636  29.163   9.450
 4748POPC   PO4 7764   6.615  29.166   9.150
 4748POPC   GL1 7765   6.686  29.154   8.850
 4748POPC   GL2 7766   6.717  29.001   8.850
 4748POPC   C1A 7767   6.655  29.193   8.550
 4748POPC   D2A 7768   6.610  29.117   8.250
 4748POPC   C3A 7769   6.674  29.167   7.950
 4748POPC   C4A 7770   6.635  29.194   7.650
 4748POPC   C1B 7771   6.812  28.904   8.550
 4748POPC   C2B 7772   6.798  28.953   8.250
 4748POPC   C3B 7773   6.768  28.947   7.950
 4748POPC   C4B 7774   6.769  28.886   7.650
 4749POPC   NC3 7775  24.533   2.777   9.450
 4749POPC   PO4 7776  24.504   2.753   9.150
 4749POPC   GL1 7777  24.473   2.814   8.850
 4749POPC   GL2 7778  24.562   2.879   8.850
 4749POPC   C1A 7779  24.469   2.722   8.550
 4749POPC   D2A 7780  24.490   2.804   8.250
 4749POPC   C3A 7781  24.520   2.720   7.950
 4749POPC   C4A 7782  24.451   2.721   7.650
 4749POPC   C1B 7783  24.691   2.946   8.550
 4749POPC   C2B 7784  24.647   2.957   8.250
 4749POPC   C3B 7785  24.628   2.911   7.950
 4749POPC   C4B 7786  24.675   2.909   7.650
 4750POPC   NC3 7787  20.563  42.289   9.450
 4750POPC   PO4 7788  20.583  42.366   9.150
 4750POPC   GL1 7789  20.588  42.317   8.850
 4750POPC   GL2 7790  20.442  42.357   8.850
 4750POPC   C1A 7791  20.563  42.328   8.550
 4750POPC   D2A 7792  20.575  42.363   8.250
 4750POPC   C3A 7793  20.592  42.336   7.950
 4750POPC   C4A 7794  20.656  42.293   7.650
 4750POPC   C1B 7795  20.385  42.400   8.550
 4750POPC   C2B 7796  20.349  42.395   8.250
 4750POPC   C3B 7797  20.327  42.442   7.950
 4750POPC   C4B 7798  20.323  42.387   7.650
 4751POPC   NC3 7799  12.852  19.025   9.450
 4751POPC   PO4 7800  12.876  19.043   9.150
 4751POPC   GL1 7801  12.816  19.051   8.850
 4751POPC   GL2 7802  12.915  18.987   8.850
 4751POPC   C1A 7803  12.895  19.011   8.550
 4751POPC   D2A 7804  12.896  19.079   8.250
 4751POPC   C3A 7805  12.835  19.099   7.950
 4751POPC   C4A 7806  12.897  19.054   7.650
 4751POPC   C1B 7807  13.015  18.890   8.550
 4751POPC   C2B 7808  12.997  18.876   8.250
 4751POPC   C3B 7809  12.999  18.868   7.950
 4751POPC   C4B 7810  13.056  18.927   7.650
 4752POPC   NC3 7811   6.605  43.088   9.450
 4752POPC   PO4 7812   6.648  43.109   9.150
 4752POPC   GL1 7813   6.668  43.150   8.850
 4752POPC   GL2 7814   6.550  43.050   8.850
 4752POPC   C1A 7815   6.648  43.106   8.550
 4752POPC   D2A 7816   6.653  43.095   8.250
 4752POPC   C3A 7817   6.634  43.082   7.950
 4752POPC   C4A 7818   6.632  43.067   7.650
 4752POPC   C1B 7819   6.509  42.925   8.550
 4752POPC   C2B 7820   6.452  42.878   8.250
 4752POPC   C3B 7821   6.452  42.863   7.950
 4752POPC   C4B 7822   6.526  42.890   7.650
 4753POPC   NC3 7823  25.293   4.346   9.450
 4753POPC   PO4 7824  25.238   4.309   9.150
 4753POPC   GL1 7825  25.297   4.297   8.850
 4753POPC   GL2 7826  25.257   4.439   8.850
 4753POPC   C1A 7827  25.229   4.279   8.550
 4753POPC   D2A 7828  25.282   4.305   8.250
 4753POPC   C3A 7829  25.238   4.303   7.950
 4753POPC   C4A 7830  25.307   4.362   7.650
 4753POPC   C1B 7831  25.158   4.557   8.550
 4753POPC   C2B 7832  25.154   4.584   8.250
 4753POPC   C3B 7833  25.146   4.569   7.950
 4753POPC   C4B 7834  25.150   4.539   7.650
 4754POPC   NC3 7835  20.567  27.579   9.450
 4754POPC   PO4 7836  20.621  27.609   9.150
 4754POPC   GL1 7837  20.649  27.600   8.850
 4754POPC   GL2 7838  20.648  27.480   8.850
 4754POPC   C1A 7839  20.643  27.550   8.550
 4754POPC   D2A 7840  20.563  27.609   8.250
 4754POPC   C3A 7841  20.598  27.602   7.950
 4754POPC   C4A 7842  20.657  27.618   7.650
 4754POPC   C1B 7843  20.675  27.388   8.550
 4754POPC   C2B 7844  20.719  27.398   8.250
 4754POPC   C3B 7845  20.676  27.317   7.950
 4754POPC   C4B 7846  20.708  27.397   7.650
 4755POPC   NC3 7847  28.326  26.070   9.450
 4755POPC   PO4 7848  28.349  26.064   9.150
 4755POPC   GL1 7849  28.360  26.042   8.850
 4755POPC   GL2 7850  28.409  25.943   8.850
 4755POPC   C1A 7851  28.407  26.085   8.550
 4755POPC   D2A 7852  28.382  26.043   8.250
 4755POPC   C3A 7853  28.340  26.011   7.950
 4755POPC   C4A 7854  28.336  26.078   7.650
 4755POPC   C1B 7855  28.554  25.818   8.550
 4755POPC   C2B 7856  28.540  25.870   8.250
 4755POPC   C3B 7857  28.470  25.840   7.950
 4755POPC   C4B 7858  28.493  25.850   7.650
 4756POPC   NC3 7859  19.850  41.551   9.450
 4756POPC   PO4 7860  19.848  41.579   9.150
 4756POPC   GL1 7861  19.879  41.576   8.850
 4756POPC   GL2 7862  19.741  41.607   8.850
 4756POPC   C1A 7863  19.814  41.591   8.550
 4756POPC   D2A 7864  19.884  41.553   8.250
 4756POPC   C3A 7865  19.839  41.578   7.950
 4756POPC   C4A 7866  19.880  41.520   7.650
 4756POPC   C1B 7867  19.593  41.547   8.550
 4756POPC   C2B 7868  19.609  41.627   8.250
 4756POPC   C3B 7869  19.585  41.605   7.950
 4756POPC   C4B 7870  19.618  41.547   7.650
 4757POPC   NC3 7871  12.895   4.292   9.450
 4757POPC   PO4 7872  12.855   4.285   9.150
 4757POPC   GL1 7873  12.901   4.324   8.850
 4757POPC   GL2 7874  12.685   4.347   8.850
 4757POPC   C1A 7875  12.853   4.348   8.550
 4757POPC   D2A 7876  12.809   4.291   8.250
 4757POPC   C3A 7877  12.805   4.288   7.950
 4757POPC   C4A 7878  12.895   4.331   7.650
 4757POPC   C1B 7879  12.570   4.322   8.550
 4757POPC   C2B 7880  12.600   4.313   8.250
 4757POPC   C3B 7881  12.631   4.327   7.950
 4757POPC   C4B 7882  12.636   4.313   7.650
 4758POPC   NC3 7883  36.102  12.826   9.450
 4758POPC   PO4 7884  36.159  12.861   9.150
 4758POPC   GL1 7885  36.107  12.843   8.850
 4758POPC   GL2 7886  36.084  12.961   8.850
 4758POPC   C1A 7887  36.084  12.883   8.550
 4758POPC   D2A 7888  36.157  12.838   8.250
 4758POPC   C3A 7889  36.138  12.863   7.950
 4758POPC   C4A 7890  36.100  12.858   7.650
 4758POPC   C1B 7891  36.136  13.101   8.550
 4758POPC   C2B 7892  36.089  13.126   8.250
 4758POPC   C3B 7893  36.075  13.090   7.950
 4758POPC   C4B 7894  36.057  13.143   7.650
 4759POPC   NC3 7895  44.662   8.219   9.450
 4759POPC   PO4 7896  44.674   8.188   9.150
 4759POPC   GL1 7897  44.614   8.229   8.850
 4759POPC   GL2 7898  44.767   8.172   8.850
 4759POPC   C1A 7899  44.654   8.149   8.550
 4759POPC   D2A 7900  44.624   8.201   8.250
 4759POPC   C3A 7901  44.670   8.205   7.950
 4759POPC   C4A 7902  44.682   8.231   7.650
 4759POPC   C1B 7903  44.878   8.117   8.550
 4759POPC   C2B 7904  44.912   8.039   8.250
 4759POPC   C3B 7905  44.858   8.081   7.950
 4759POPC   C4B 7906  44.915   8.043   7.650
 4760POPC   NC3 7907  29.896  22.181   9.450
 4760POPC   PO4 7908  29.930  22.166   9.150
 4760POPC   GL1 7909  29.877  22.155   8.850
 4760POPC   GL2 7910  29.911  22.056   8.850
 4760POPC   C1A 7911  29.886  22.212   8.550
 4760POPC   D2A 7912  29.919  22.194   8.250
 4760POPC   C3A 7913  29.924  22.180   7.950
 4760POPC   C4A 7914  29.946  22.162   7.650
 4760POPC   C1B 7915  29.922  21.871   8.550
 4760POPC   C2B 7916  29.926  21.929   8.250
 4760POPC   C3B 7917  29.879  21.901   7.950
 4760POPC   C4B 7918  29.859  21.868   7.650
 4761POPC   NC3 7919   8.242  40.782   9.450
 4761POPC   PO4 7920   8.167  40.792   9.150
 4761POPC   GL1 7921   8.233  40.786   8.850
 4761POPC   GL2 7922   8.148  40.822   8.850
 4761POPC   C1A 7923   8.188  40.760   8.550
 4761POPC   D2A 7924   8.157  40.795   8.250
 4761POPC   C3A 7925   8.188  40.751   7.950
 4761POPC   C4A 7926   8.148  40.771   7.650
 4761POPC   C1B 7927   8.036  40.978   8.550
 4761POPC   C2B 7928   7.976  40.934   8.250
 4761POPC   C3B 7929   7.981  40.948   7.950
 4761POPC   C4B 7930   8.000  40.987   7.650
 4762POPC   NC3 7931  14.362   2.726   9.450
 4762POPC   PO4 7932  14.397   2.758   9.150
 4762POPC   GL1 7933  14.406   2.748   8.850
 4762POPC   GL2 7934  14.438   2.902   8.850
 4762POPC   C1A 7935  14.391   2.781   8.550
 4762POPC   D2A 7936  14.372   2.790   8.250
 4762POPC   C3A 7937  14.427   2.814   7.950
 4762POPC   C4A 7938  14.393   2.732   7.650
 4762POPC   C1B 7939  14.466   2.962   8.550
 4762POPC   C2B 7940  14.533   3.023   8.250
 4762POPC   C3B 7941  14.511   2.995   7.950
 4762POPC   C4B 7942  14.475   2.993   7.650
 4763POPC   NC3 7943   3.519  44.674   9.450
 4763POPC   PO4 7944   3.579  44.639   9.150
 4763POPC   GL1 7945   3.565  44.635   8.850
 4763POPC   GL2 7946   3.579  44.532   8.850
 4763POPC   C1A 7947   3.541  44.707   8.550
 4763POPC   D2A 7948   3.558  44.631   8.250
 4763POPC   C3A 7949   3.533  44.682   7.950
 4763POPC   C4A 7950   3.498  44.633   7.650
 4763POPC   C1B 7951   3.607  44.455   8.550
 4763POPC   C2B 7952   3.610  44.436   8.250
 4763POPC   C3B 7953   3.599  44.437   7.950
 4763POPC   C4B 7954   3.601  44.401   7.650
 4764POPC   NC3 7955  35.306  19.041   9.450
 4764POPC   PO4 7956  35.320  19.099   9.150
 4764POPC   GL1 7957  35.322  19.076   8.850
 4764POPC   GL2 7958  35.212  19.098   8.850
 4764POPC   C1A 7959  35.356  19.074   8.550
 4764POPC   D2A 7960  35.398  19.031   8.250
 4764POPC   C3A 7961  35.334  19.103   7.950
 4764POPC   C4A 7962  35.393  19.015   7.650
 4764POPC   C1B 7963  35.136  19.183   8.550
 4764POPC   C2B 7964  35.181  19.170   8.250
 4764POPC   C3B 7965  35.163  19.187   7.950
 4764POPC   C4B 7966  35.114  19.259   7.650
 4765POPC   NC3 7967  15.206  29.903   9.450
 4765POPC   PO4 7968  15.160  29.969   9.150
 4765POPC   GL1 7969  15.130  29.963   8.850
 4765POPC   GL2 7970  15.115  29.816   8.850
 4765POPC   C1A 7971  15.164  29.940   8.550
 4765POPC   D2A 7972  15.221  29.959   8.250
 4765POPC   C3A 7973  15.168  29.922   7.950
 4765POPC   C4A 7974  15.153  29.934   7.650
 4765POPC   C1B 7975  14.920  29.757   8.550
 4765POPC   C2B 7976  14.994  29.788   8.250
 4765POPC   C3B 7977  14.963  29.848   7.950
 4765POPC   C4B 7978  14.968  29.805   7.650
 4766POPC   NC3 7979   9.788  22.983   9.450
 4766POPC   PO4 7980   9.714  22.903   9.150
 4766POPC   GL1 7981   9.788  22.933   8.850
 4766POPC   GL2 7982   9.680  23.029   8.850
 4766POPC   C1A 7983   9.755  22.922   8.550
 4766POPC   D2A 7984   9.741  22.927   8.250
 4766POPC   C3A 7985   9.715  22.958   7.950
 4766POPC   C4A 7986   9.754  22.935   7.650
 4766POPC   C1B 7987   9.643  23.146   8.550
 4766POPC   C2B 7988   9.730  23.162   8.250
 4766POPC   C3B 7989   9.687  23.180   7.950
 4766POPC   C4B 7990   9.717  23.201   7.650
 4767POPC   NC3 7991   5.073   9.729   9.450
 4767POPC   PO4 7992   5.119   9.789   9.150
 4767POPC   GL1 7993   5.088   9.710   8.850
 4767POPC   GL2 7994   5.005   9.592   8.850
 4767POPC   C1A 7995   5.135   9.698   8.550
 4767POPC   D2A 7996   5.086   9.770   8.250
 4767POPC   C3A 7997   5.107   9.798   7.950
 4767POPC   C4A 7998   5.071   9.749   7.650
 4767POPC   C1B 7999   4.981   9.551   8.550
 4767POPC   C2B 8000   5.042   9.500   8.250
 4767POPC   C3B 8001   5.039   9.542   7.950
 4767POPC   C4B 8002   5.028   9.467   7.650
 4768POPC   NC3 8003  22.958   8.196   9.450
 4768POPC   PO4 8004  22.934   8.192   9.150
 4768POPC   GL1 8005  22.914   8.238   8.850
 4768POPC   GL2 8006  22.993   8.354   8.850
 4768POPC   C1A 8007  22.973   8.179   8.550
 4768POPC   D2A 8008  22.969   8.155   8.250
 4768POPC   C3A 8009  22.928   8.223   7.950
 4768POPC   C4A 8010  22.968   8.203   7.650
 4768POPC   C1B 8011  23.019   8.380   8.550
 4768POPC   C2B 8012  22.993   8.468   8.250
 4768POPC   C3B 8013  23.035   8.461   7.950
 4768POPC   C4B 8014  23.057   8.436   7.650
 4769POPC   NC3 8015   8.938  27.571   9.450
 4769POPC   PO4 8016   8.967  27.579   9.150
 4769POPC   GL1 8017   9.017  27.617   8.850
 4769POPC   GL2 8018   9.097  27.533   8.850
 4769POPC   C1A 8019   8.974  27.564   8.550
 4769POPC   D2A 8020   8.983  27.607   8.250
 4769POPC   C3A 8021   8.950  27.643   7.950
 4769POPC   C4A 8022   8.998  27.590   7.650
 4769POPC   C1B 8023   9.213  27.525   8.550
 4769POPC   C2B 8024   9.241  27.563   8.250
 4769POPC   C3B 8025   9.168  27.567   7.950
 4769POPC   C4B 8026   9.248  27.504   7.650
 4770POPC   NC3 8027  40.787   3.541   9.450
 4770POPC   PO4 8028  40.786   3.501   9.150
 4770POPC   GL1 8029  40.827   3.512   8.850
 4770POPC   GL2 8030  40.798   3.411   8.850
 4770POPC   C1A 8031  40.764   3.588   8.550
 4770POPC   D2A 8032  40.808   3.503   8.250
 4770POPC   C3A 8033  40.739   3.531   7.950
 4770POPC   C4A 8034  40.778   3.531   7.650
 4770POPC   C1B 8035  40.880   3.280   8.550
 4770POPC   C2B 8036  40.925   3.298   8.250
 4770POPC   C3B 8037  40.844   3.299   7.950
 4770POPC   C4B 8038  40.915   3.358   7.650
 4771POPC   NC3 8039  28.387  42.294   9.450
 4771POPC   PO4 8040  28.342  42.302   9.150
 4771POPC   GL1 8041  28.365  42.351   8.850
 4771POPC   GL2 8042  28.395  42.233   8.850
 4771POPC   C1A 8043  28.341  42.323   8.550
 4771POPC   D2A 8044  28.395  42.384   8.250
 4771POPC   C3A 8045  28.395  42.303   7.950
 4771POPC   C4A 8046  28.388  42.316   7.650
 4771POPC   C1B 8047  28.342  42.066   8.550
 4771POPC   C2B 8048  28.279  42.049   8.250
 4771POPC   C3B 8049  28.364  42.086   7.950
 4771POPC   C4B 8050  28.286  42.084   7.650
 4772POPC   NC3 8051   8.222  20.635   9.450
 4772POPC   PO4 8052   8.242  20.635   9.150
 4772POPC   GL1 8053   8.235  20.587   8.850
 4772POPC   GL2 8054   8.367  20.667   8.850
 4772POPC   C1A 8055   8.176  20.573   8.550
 4772POPC   D2A 8056   8.162  20.582   8.250
 4772POPC   C3A 8057   8.232  20.574   7.950
 4772POPC   C4A 8058   8.150  20.593   7.650
 4772POPC   C1B 8059   8.478  20.595   8.550
 4772POPC   C2B 8060   8.467  20.634   8.250
 4772POPC   C3B 8061   8.491  20.600   7.950
 4772POPC   C4B 8062   8.415  20.589   7.650
 4773POPC   NC3 8063  11.311  30.722   9.450
 4773POPC   PO4 8064  11.349  30.658   9.150
 4773POPC   GL1 8065  11.254  30.663   8.850
 4773POPC   GL2 8066  11.178  30.732   8.850
 4773POPC   C1A 8067  11.333  30.684   8.550
 4773POPC   D2A 8068  11.321  30.725   8.250
 4773POPC   C3A 8069  11.262  30.739   7.950
 4773POPC   C4A 8070  11.336  30.694   7.650
 4773POPC   C1B 8071  11.152  30.815   8.550
 4773POPC   C2B 8072  11.121  30.861   8.250
 4773POPC   C3B 8073  11.068  30.867   7.950
 4773POPC   C4B 8074  11.141  30.856   7.650
 4774POPC   NC3 8075  34.553  24.481   9.450
 4774POPC   PO4 8076  34.569  24.473   9.150
 4774POPC   GL1 8077  34.615  24.449   8.850
 4774POPC   GL2 8078  34.619  24.627   8.850
 4774POPC   C1A 8079  34.590  24.497   8.550
 4774POPC   D2A 8080  34.606  24.533   8.250
 4774POPC   C3A 8081  34.582  24.450   7.950
 4774POPC   C4A 8082  34.621  24.508   7.650
 4774POPC   C1B 8083  34.532  24.768   8.550
 4774POPC   C2B 8084  34.532  24.690   8.250
 4774POPC   C3B 8085  34.533  24.699   7.950
 4774POPC   C4B 8086  34.537  24.710   7.650
 4775POPC   NC3 8087  33.034  24.445   9.450
 4775POPC   PO4 8088  32.990  24.505   9.150
 4775POPC   GL1 8089  33.021  24.443   8.850
 4775POPC   GL2 8090  32.901  24.373   8.850
 4775POPC   C1A 8091  33.011  24.467   8.550
 4775POPC   D2A 8092  32.987  24.470   8.250
 4775POPC   C3A 8093  33.054  24.507   7.950
 4775POPC   C4A 8094  33.025  24.480   7.650
 4775POPC   C1B 8095  32.788  24.303   8.550
 4775POPC   C2B 8096  32.857  24.326   8.250
 4775POPC   C3B 8097  32.798  24.370   7.950
 4775POPC   C4B 8098  32.841  24.310   7.650
 4776POPC   NC3 8099  31.467  40.770   9.450
 4776POPC   PO4 8100  31.486  40.818   9.150
 4776POPC   GL1 8101  31.505  40.830   8.850
 4776POPC   GL2 8102  31.365  40.690   8.850
 4776POPC   C1A 8103  31.494  40.800   8.550
 4776POPC   D2A 8104  31.509  40.734   8.250
 4776POPC   C3A 8105  31.464  40.796   7.950
 4776POPC   C4A 8106  31.481  40.825   7.650
 4776POPC   C1B 8107  31.335  40.640   8.550
 4776POPC   C2B 8108  31.353  40.616   8.250
 4776POPC   C3B 8109  31.273  40.587   7.950
 4776POPC   C4B 8110  31.301  40.622   7.650
 4777POPC   NC3 8111  31.486  41.523   9.450
 4777POPC   PO4 8112  31.461  41.584   9.150
 4777POPC   GL1 8113  31.492  41.539   8.850
 4777POPC   GL2 8114  31.507  41.487   8.850
 4777POPC   C1A 8115  31.423  41.567   8.550
 4777POPC   D2A 8116  31.485  41.511   8.250
 4777POPC   C3A 8117  31.492  41.562   7.950
 4777POPC   C4A 8118  31.509  41.581   7.650
 4777POPC   C1B 8119  31.580  41.296   8.550
 4777POPC   C2B 8120  31.577  41.354   8.250
 4777POPC   C3B 8121  31.531  41.362   7.950
 4777POPC   C4B 8122  31.538  41.353   7.650
 4778POPC   NC3 8123   3.495  29.129   9.450
 4778POPC   PO4 8124   3.567  29.098   9.150
 4778POPC   GL1 8125   3.502  29.145   8.850
 4778POPC   GL2 8126   3.446  29.054   8.850
 4778POPC   C1A 8127   3.515  29.104   8.550
 4778POPC   D2A 8128   3.526  29.140   8.250
 4778POPC   C3A 8129   3.545  29.155   7.950
 4778POPC   C4A 8130   3.554  29.108   7.650
 4778POPC   C1B 8131   3.424  28.870   8.550
 4778POPC   C2B 8132   3.397  28.954   8.250
 4778POPC   C3B 8133   3.473  28.871   7.950
 4778POPC   C4B 8134   3.407  28.939   7.650
 4779POPC   NC3 8135  15.151   6.657   9.450
 4779POPC   PO4 8136  15.133   6.644   9.150
 4779POPC   GL1 8137  15.163   6.626   8.850
 4779POPC   GL2 8138  15.194   6.556   8.850
 4779POPC   C1A 8139  15.161   6.641   8.550
 4779POPC   D2A 8140  15.200   6.691   8.250
 4779POPC   C3A 8141  15.155   6.637   7.950
 4779POPC   C4A 8142  15.214   6.656   7.650
 4779POPC   C1B 8143  15.142   6.407   8.550
 4779POPC   C2B 8144  15.198   6.398   8.250
 4779POPC   C3B 8145  15.119   6.435   7.950
 4779POPC   C4B 8146  15.150   6.358   7.650
 4780POPC   NC3 8147  28.341  26.861   9.450
 4780POPC   PO4 8148  28.361  26.786   9.150
 4780POPC   GL1 8149  28.393  26.804   8.850
 4780POPC   GL2 8150  28.422  26.921   8.850
 4780POPC   C1A 8151  28.387  26.809   8.550
 4780POPC   D2A 8152  28.410  26.784   8.250
 4780POPC   C3A 8153  28.357  26.832   7.950
 4780POPC   C4A 8154  28.373  26.839   7.650
 4780POPC   C1B 8155  28.501  27.059   8.550
 4780POPC   C2B 8156  28.464  27.016   8.250
 4780POPC   C3B 8157  28.504  27.070   7.950
 4780POPC   C4B 8158  28.497  27.069   7.650
 4781POPC   NC3 8159  24.485  20.629   9.450
 4781POPC   PO4 8160  24.522  20.576   9.150
 4781POPC   GL1 8161  24.445  20.592   8.850
 4781POPC   GL2 8162  24.579  20.651   8.850
 4781POPC   C1A 8163  24.440  20.579   8.550
 4781POPC   D2A 8164  24.539  20.573   8.250
 4781POPC   C3A 8165  24.508  20.609   7.950
 4781POPC   C4A 8166  24.477  20.572   7.650
 4781POPC   C1B 8167  24.708  20.762   8.550
 4781POPC   C2B 8168  24.658  20.796   8.250
 4781POPC   C3B 8169  24.663  20.818   7.950
 4781POPC   C4B 8170  24.709  20.808   7.650
 4782POPC   NC3 8171  13.578   5.827   9.450
 4782POPC   PO4 8172  13.622   5.866   9.150
 4782POPC   GL1 8173  13.608   5.856   8.850
 4782POPC   GL2 8174  13.744   5.848   8.850
 4782POPC   C1A 8175  13.585   5.856   8.550
 4782POPC   D2A 8176  13.629   5.887   8.250
 4782POPC   C3A 8177  13.599   5.859   7.950
 4782POPC   C4A 8178  13.615   5.848   7.650
 4782POPC   C1B 8179  13.821   5.761   8.550
 4782POPC   C2B 8180  13.810   5.752   8.250
 4782POPC   C3B 8181  13.838   5.689   7.950
 4782POPC   C4B 8182  13.868   5.728   7.650
 4783POPC   NC3 8183   8.245  19.831   9.450
 4783POPC   PO4 8184   8.164  19.854   9.150
 4783POPC   GL1 8185   8.184  19.835   8.850
 4783POPC   GL2 8186   8.202  19.937   8.850
 4783POPC   C1A 8187   8.239  19.814   8.550
 4783POPC   D2A 8188   8.154  19.792   8.250
 4783POPC   C3A 8189   8.178  19.877   7.950
 4783POPC   C4A 8190   8.227  19.853   7.650
 4783POPC   C1B 8191   8.224  20.095   8.550
 4783POPC   C2B 8192   8.227  20.099   8.250
 4783POPC   C3B 8193   8.269  20.097   7.950
 4783POPC   C4B 8194   8.244  20.121   7.650
 4784POPC   NC3 8195  37.715  44.673   9.450
 4784POPC   PO4 8196  37.694  44.624   9.150
 4784POPC   GL1 8197  37.657  44.696   8.850
 4784POPC   GL2 8198  37.762  44.539   8.850
 4784POPC   C1A 8199  37.679  44.689   8.550
 4784POPC   D2A 8200  37.699  44.665   8.250
 4784POPC   C3A 8201  37.709  44.618   7.950
 4784POPC   C4A 8202  37.698  44.634   7.650
 4784POPC   C1B 8203  37.921  44.464   8.550
 4784POPC   C2B 8204  37.922  44.492   8.250
 4784POPC   C3B 8205  37.884  44.523   7.950
 4784POPC   C4B 8206  37.928  44.491   7.650
 4785POPC   NC3 8207  28.380  29.884   9.450
 4785POPC   PO4 8208  28.382  29.896   9.150
 4785POPC   GL1 8209  28.407  29.897   8.850
 4785POPC   GL2 8210  28.414  30.025   8.850
 4785POPC   C1A 8211  28.403  29.915   8.550
 4785POPC   D2A 8212  28.320  29.872   8.250
 4785POPC   C3A 8213  28.359  29.970   7.950
 4785POPC   C4A 8214  28.361  29.904   7.650
 4785POPC   C1B 8215  28.457  30.129   8.550
 4785POPC   C2B 8216  28.473  30.188   8.250
 4785POPC   C3B 8217  28.524  30.141   7.950
 4785POPC   C4B 8218  28.495  30.103   7.650
 4786POPC   NC3 8219   3.492  16.770   9.450
 4786POPC   PO4 8220   3.542  16.755   9.150
 4786POPC   GL1 8221   3.585  16.730   8.850
 4786POPC   GL2 8222   3.710  16.717   8.850
 4786POPC   C1A 8223   3.543  16.735   8.550
 4786POPC   D2A 8224   3.545  16.716   8.250
 4786POPC   C3A 8225   3.551  16.693   7.950
 4786POPC   C4A 8226   3.495  16.745   7.650
 4786POPC   C1B 8227   3.777  16.738   8.550
 4786POPC   C2B 8228   3.761  16.699   8.250
 4786POPC   C3B 8229   3.821  16.755   7.950
 4786POPC   C4B 8230   3.766  16.754   7.650
 4787POPC   NC3 8231   5.124  36.117   9.450
 4787POPC   PO4 8232   5.079  36.158   9.150
 4787POPC   GL1 8233   5.055  36.130   8.850
 4787POPC   GL2 8234   5.160  36.118   8.850
 4787POPC   C1A 8235   5.065  36.120   8.550
 4787POPC   D2A 8236   5.097  36.116   8.250
 4787POPC   C3A 8237   5.084  36.142   7.950
 4787POPC   C4A 8238   5.088  36.104   7.650
 4787POPC   C1B 8239   5.333  36.033   8.550
 4787POPC   C2B 8240   5.359  35.978   8.250
 4787POPC   C3B 8241   5.282  36.040   7.950
 4787POPC   C4B 8242   5.346  36.015   7.650
 4788POPC   NC3 8243   6.642   0.464   9.450
 4788POPC   PO4 8244   6.653   0.450   9.150
 4788POPC   GL1 8245   6.634   0.459   8.850
 4788POPC   GL2 8246   6.571   0.516   8.850
 4788POPC   C1A 8247   6.640   0.434   8.550
 4788POPC   D2A 8248   6.644   0.423   8.250
 4788POPC   C3A 8249   6.613   0.413   7.950
 4788POPC   C4A 8250   6.653   0.396   7.650
 4788POPC   C1B 8251   6.444   0.598   8.550
 4788POPC   C2B 8252   6.469   0.531   8.250
 4788POPC   C3B 8253   6.453   0.552   7.950
 4788POPC   C4B 8254   6.451   0.580   7.650
 4789POPC   NC3 8255  32.999  20.647   9.450
 4789POPC   PO4 8256  33.009  20.608   9.150
 4789POPC   GL1 8257  33.054  20.601   8.850
 4789POPC   GL2 8258  33.015  20.485   8.850
 4789POPC   C1A 8259  33.031  20.574   8.550
 4789POPC   D2A 8260  32.998  20.619   8.250
 4789POPC   C3A 8261  33.048  20.621   7.950
 4789POPC   C4A 8262  33.062  20.591   7.650
 4789POPC   C1B 8263  33.074  20.353   8.550
 4789POPC   C2B 8264  33.137  20.415   8.250
 4789POPC   C3B 8265  33.061  20.361   7.950
 4789POPC   C4B 8266  33.102  20.420   7.650
 4790POPC   NC3 8267  15.174   8.237   9.450
 4790POPC   PO4 8268  15.228   8.216   9.150
 4790POPC   GL1 8269  15.204   8.205   8.850
 4790POPC   GL2 8270  15.077   8.189   8.850
 4790POPC   C1A 8271  15.163   8.189   8.550
 4790POPC   D2A 8272  15.225   8.167   8.250
 4790POPC   C3A 8273  15.161   8.210   7.950
 4790POPC   C4A 8274  15.220   8.172   7.650
 4790POPC   C1B 8275  14.956   8.163   8.550
 4790POPC   C2B 8276  14.945   8.190   8.250
 4790POPC   C3B 8277  14.910   8.160   7.950
 4790POPC   C4B 8278  14.927   8.224   7.650
 4791POPC   NC3 8279   7.465   0.408   9.450
 4791POPC   PO4 8280   7.400   0.472   9.150
 4791POPC   GL1 8281   7.446   0.439   8.850
 4791POPC   GL2 8282   7.364   0.531   8.850
 4791POPC   C1A 8283   7.454   0.441   8.550
 4791POPC   D2A 8284   7.457   0.459   8.250
 4791POPC   C3A 8285   7.426   0.484   7.950
 4791POPC   C4A 8286   7.470   0.407   7.650
 4791POPC   C1B 8287   7.389   0.721   8.550
 4791POPC   C2B 8288   7.385   0.690   8.250
 4791POPC   C3B 8289   7.417   0.724   7.950
 4791POPC   C4B 8290   7.369   0.725   7.650
 4792POPC   NC3 8291   2.783   4.282   9.450
 4792POPC   PO4 8292   2.777   4.290   9.150
 4792POPC   GL1 8293   2.771   4.287   8.850
 4792POPC   GL2 8294   2.651   4.200   8.850
 4792POPC   C1A 8295   2.760   4.306   8.550
 4792POPC   D2A 8296   2.750   4.268   8.250
 4792POPC   C3A 8297   2.809   4.332   7.950
 4792POPC   C4A 8298   2.793   4.272   7.650
 4792POPC   C1B 8299   2.632   4.114   8.550
 4792POPC   C2B 8300   2.584   4.123   8.250
 4792POPC   C3B 8301   2.580   4.167   7.950
 4792POPC   C4B 8302   2.605   4.141   7.650
 4793POPC   NC3 8303  41.586  23.762   9.450
 4793POPC   PO4 8304  41.583  23.695   9.150
 4793POPC   GL1 8305  41.556  23.717   8.850
 4793POPC   GL2 8306  41.630  23.669   8.850
 4793POPC   C1A 8307  41.598  23.697   8.550
 4793POPC   D2A 8308  41.537  23.688   8.250
 4793POPC   C3A 8309  41.573  23.701   7.950
 4793POPC   C4A 8310  41.573  23.701   7.650
 4793POPC   C1B 8311  41.732  23.572   8.550
 4793POPC   C2B 8312  41.743  23.577   8.250
 4793POPC   C3B 8313  41.785  23.584   7.950
 4793POPC   C4B 8314  41.763  23.614   7.650
 4794POPC   NC3 8315   3.497  14.374   9.450
 4794POPC   PO4 8316   3.565  14.393   9.150
 4794POPC   GL1 8317   3.550  14.358   8.850
 4794POPC   GL2 8318   3.602  14.545   8.850
 4794POPC   C1A 8319   3.579  14.355   8.550
 4794POPC   D2A 8320   3.550  14.439   8.250
 4794POPC   C3A 8321   3.552  14.447   7.950
 4794POPC   C4A 8322   3.515  14.446   7.650
 4794POPC   C1B 8323   3.706  14.627   8.550
 4794POPC   C2B 8324   3.709  14.585   8.250
 4794POPC   C3B 8325   3.624  14.612   7.950
 4794POPC   C4B 8326   3.633  14.610   7.650
 4795POPC   NC3 8327   6.640  10.564   9.450
 4795POPC   PO4 8328   6.623  10.479   9.150
 4795POPC   GL1 8329   6.609  10.530   8.850
 4795POPC   GL2 8330   6.573  10.436   8.850
 4795POPC   C1A 8331   6.688  10.535   8.550
 4795POPC   D2A 8332   6.603  10.571   8.250
 4795POPC   C3A 8333   6.676  10.558   7.950
 4795POPC   C4A 8334   6.642  10.488   7.650
 4795POPC   C1B 8335   6.582  10.331   8.550
 4795POPC   C2B 8336   6.613  10.266   8.250
 4795POPC   C3B 8337   6.621  10.330   7.950
 4795POPC   C4B 8338   6.612  10.304   7.650
 4796POPC   NC3 8339  33.756  31.433   9.450
 4796POPC   PO4 8340  33.814  31.429   9.150
 4796POPC   GL1 8341  33.830  31.446   8.850
 4796POPC   GL2 8342  33.973  31.435   8.850
 4796POPC   C1A 8343  33.815  31.440   8.550
 4796POPC   D2A 8344  33.824  31.475   8.250
 4796POPC   C3A 8345  33.751  31.488   7.950
 4796POPC   C4A 8346  33.845  31.426   7.650
 4796POPC   C1B 8347  34.064  31.427   8.550
 4796POPC   C2B 8348  34.091  31.516   8.250
 4796POPC   C3B 8349  34.010  31.469   7.950
 4796POPC   C4B 8350  34.024  31.424   7.650
 4797POPC   NC3 8351  29.964  29.938   9.450
 4797POPC   PO4 8352  29.882  29.873   9.150
 4797POPC   GL1 8353  29.923  29.934   8.850
 4797POPC   GL2 8354  29.770  29.909   8.850
 4797POPC   C1A 8355  29.896  29.925   8.550
 4797POPC   D2A 8356  29.953  29.901   8.250
 4797POPC   C3A 8357  29.914  29.888   7.950
 4797POPC   C4A 8358  29.891  29.919   7.650
 4797POPC   C1B 8359  29.676  29.959   8.550
 4797POPC   C2B 8360  29.675  29.974   8.250
 4797POPC   C3B 8361  29.668  30.019   7.950
 4797POPC   C4B 8362  29.671  30.014   7.650
 4798POPC   NC3 8363  11.279   3.571   9.450
 4798POPC   PO4 8364  11.264   3.501   9.150
 4798POPC   GL1 8365  11.277   3.534   8.850
 4798POPC   GL2 8366  11.372   3.693   8.850
 4798POPC   C1A 8367  11.251   3.529   8.550
 4798POPC   D2A 8368  11.318   3.553   8.250
 4798POPC   C3A 8369  11.286   3.561   7.950
 4798POPC   C4A 8370  11.341   3.507   7.650
 4798POPC   C1B 8371  11.387   3.750   8.550
 4798POPC   C2B 8372  11.470   3.784   8.250
 4798POPC   C3B 8373  11.418   3.708   7.950
 4798POPC   C4B 8374  11.383   3.754   7.650
 4799POPC   NC3 8375  21.349  43.934   9.450
 4799POPC   PO4 8376  21.378  43.919   9.150
 4799POPC   GL1 8377  21.420  43.928   8.850
 4799POPC   GL2 8378  21.333  43.719   8.850
 4799POPC   C1A 8379  21.430  43.892   8.550
 4799POPC   D2A 8380  21.391  43.851   8.250
 4799POPC   C3A 8381  21.409  43.915   7.950
 4799POPC   C4A 8382  21.351  43.872   7.650
 4799POPC   C1B 8383  21.348  43.598   8.550
 4799POPC   C2B 8384  21.292  43.685   8.250
 4799POPC   C3B 8385  21.319  43.633   7.950
 4799POPC   C4B 8386  21.297  43.606   7.650
 4800POPC   NC3 8387  33.824  24.448   9.450
 4800POPC   PO4 8388  33.791  24.531   9.150
 4800POPC   GL1 8389  33.783  24.468   8.850
 4800POPC   GL2 8390  33.750  24.339   8.850
 4800POPC   C1A 8391  33.765  24.519   8.550
 4800POPC   D2A 8392  33.845  24.465   8.250
 4800POPC   C3A 8393  33.787  24.493   7.950
 4800POPC   C4A 8394  33.826  24.510   7.650
 4800POPC   C1B 8395  33.739  24.249   8.550
 4800POPC   C2B 8396  33.705  24.207   8.250
 4800POPC   C3B 8397  33.670  24.273   7.950
 4800POPC   C4B 8398  33.667  24.280   7.650
 4801POPC   NC3 8399  10.554  31.504   9.450
 4801POPC   PO4 8400  10.522  31.495   9.150
 4801POPC   GL1 8401  10.572  31.443   8.850
 4801POPC   GL2 8402  10.610  31.413   8.850
 4801POPC   C1A 8403  10.530  31.502   8.550
 4801POPC   D2A 8404  10.506  31.506   8.250
 4801POPC   C3A 8405  10.482  31.426   7.950
 4801POPC   C4A 8406  10.551  31.516   7.650
 4801POPC   C1B 8407  10.742  31.398   8.550
 4801POPC   C2B 8408  10.738  31.341   8.250
 4801POPC   C3B 8409  10.789  31.417   7.950
 4801POPC   C4B 8410  10.738  31.362   7.650
 4802POPC   NC3 8411  38.431  21.364   9.450
 4802POPC   PO4 8412  38.407  21.419   9.150
 4802POPC   GL1 8413  38.448  21.424   8.850
 4802POPC   GL2 8414  38.361  21.416   8.850
 4802POPC   C1A 8415  38.470  21.365   8.550
 4802POPC   D2A 8416  38.474  21.395   8.250
 4802POPC   C3A 8417  38.482  21.401   7.950
 4802POPC   C4A 8418  38.485  21.382   7.650
 4802POPC   C1B 8419  38.213  21.504   8.550
 4802POPC   C2B 8420  38.239  21.460   8.250
 4802POPC   C3B 8421  38.252  21.542   7.950
 4802POPC   C4B 8422  38.233  21.519   7.650
 4803POPC   NC3 8423  41.600  28.398   9.450
 4803POPC   PO4 8424  41.522  28.374   9.150
 4803POPC   GL1 8425  41.513  28.345   8.850
 4803POPC   GL2 8426  41.453  28.338   8.850
 4803POPC   C1A 8427  41.515  28.405   8.550
 4803POPC   D2A 8428  41.556  28.344   8.250
 4803POPC   C3A 8429  41.535  28.346   7.950
 4803POPC   C4A 8430  41.514  28.364   7.650
 4803POPC   C1B 8431  41.351  28.309   8.550
 4803POPC   C2B 8432  41.329  28.292   8.250
 4803POPC   C3B 8433  41.335  28.248   7.950
 4803POPC   C4B 8434  41.311  28.273   7.650
 4804POPC   NC3 8435   4.325  42.364   9.450
 4804POPC   PO4 8436   4.333  42.368   9.150
 4804POPC   GL1 8437   4.344  42.347   8.850
 4804POPC   GL2 8438   4.151  42.339   8.850
 4804POPC   C1A 8439   4.344  42.330   8.550
 4804POPC   D2A 8440   4.335  42.375   8.250
 4804POPC   C3A 8441   4.294  42.291   7.950
 4804POPC   C4A 8442   4.312  42.316   7.650
 4804POPC   C1B 8443   4.036  42.279   8.550
 4804POPC   C2B 8444   4.129  42.255   8.250
 4804POPC   C3B 8445   4.052  42.293   7.950
 4804POPC   C4B 8446   4.052  42.270   7.650
 4805POPC   NC3 8447  37.701  16.698   9.450
 4805POPC   PO4 8448  37.661  16.683   9.150
 4805POPC   GL1 8449  37.652  16.779   8.850
 4805POPC   GL2 8450  37.800  16.738   8.850
 4805POPC   C1A 8451  37.690  16.773   8.550
 4805POPC   D2A 8452  37.653  16.694   8.250
 4805POPC   C3A 8453  37.652  16.745   7.950
 4805POPC   C4A 8454  37.650  16.689   7.650
 4805POPC   C1B 8455  37.969  16.656   8.550
 4805POPC   C2B 8456  37.926  16.712   8.250
 4805POPC   C3B 8457  37.888  16.685   7.950
 4805POPC   C4B 8458  37.922  16.678   7.650
 4806POPC   NC3 8459  22.187   7.372   9.450
 4806POPC   PO4 8460  22.182   7.372   9.150
 4806POPC   GL1 8461  22.136   7.420   8.850
 4806POPC   GL2 8462  22.028   7.422   8.850
 4806POPC   C1A 8463  22.183   7.374   8.550
 4806POPC   D2A 8464  22.177   7.383   8.250
 4806POPC   C3A 8465  22.169   7.465   7.950
 4806POPC   C4A 8466  22.197   7.377   7.650
 4806POPC   C1B 8467  21.918   7.392   8.550
 4806POPC   C2B 8468  21.914   7.392   8.250
 4806POPC   C3B 8469  21.908   7.331   7.950
 4806POPC   C4B 8470  21.893   7.315   7.650
 4807POPC   NC3 8471  32.287   9.771   9.450
 4807POPC   PO4 8472  32.250   9.745   9.150
 4807POPC   GL1 8473  32.284   9.731   8.850
 4807POPC   GL2 8474  32.219   9.644   8.850
 4807POPC   C1A 8475  32.279   9.779   8.550
 4807POPC   D2A 8476  32.287   9.725   8.250
 4807POPC   C3A 8477  32.287   9.793   7.950
 4807POPC   C4A 8478  32.225   9.760   7.650
 4807POPC   C1B 8479  32.101   9.544   8.550
 4807POPC   C2B 8480  32.069   9.503   8.250
 4807POPC   C3B 8481  32.110   9.489   7.950
 4807POPC   C4B 8482  32.120   9.560   7.650
 4808POPC   NC3 8483  29.152   0.460   9.450
 4808POPC   PO4 8484  29.147   0.469   9.150
 4808POPC   GL1 8485  29.174   0.431   8.850
 4808POPC   GL2 8486  29.223   0.341   8.850
 4808POPC   C1A 8487  29.117   0.392   8.550
 4808POPC   D2A 8488  29.096   0.469   8.250
 4808POPC   C3A 8489  29.172   0.462   7.950
 4808POPC   C4A 8490  29.144   0.484   7.650
 4808POPC   C1B 8491  29.303   0.242   8.550
 4808POPC   C2B 8492  29.279   0.278   8.250
 4808POPC   C3B 8493  29.275   0.269   7.950
 4808POPC   C4B 8494  29.272   0.223   7.650
 4809POPC   NC3 8495  26.796   7.403   9.450
 4809POPC   PO4 8496  26.797   7.372   9.150
 4809POPC   GL1 8497  26.772   7.391   8.850
 4809POPC   GL2 8498  26.769   7.332   8.850
 4809POPC   C1A 8499  26.792   7.469   8.550
 4809POPC   D2A 8500  26.775   7.383   8.250
 4809POPC   C3A 8501  26.822   7.438   7.950
 4809POPC   C4A 8502  26.776   7.459   7.650
 4809POPC   C1B 8503  26.698   7.233   8.550
 4809POPC   C2B 8504  26.717   7.223   8.250
 4809POPC   C3B 8505  26.683   7.212   7.950
 4809POPC   C4B 8506  26.695   7.217   7.650
 4810POPC   NC3 8507  33.011  36.159   9.450
 4810POPC   PO4 8508  33.050  36.126   9.150
 4810POPC   GL1 8509  33.047  36.106   8.850
 4810POPC   GL2 8510  33.114  36.037   8.850
 4810POPC   C1A 8511  32.977  36.154   8.550
 4810POPC   D2A 8512  32.976  36.121   8.250
 4810POPC   C3A 8513  33.004  36.151   7.950
 4810POPC   C4A 8514  33.030  36.139   7.650
 4810POPC   C1B 8515  33.222  36.041   8.550
 4810POPC   C2B 8516  33.292  36.058   8.250
 4810POPC   C3B 8517  33.221  36.059   7.950
 4810POPC   C4B 8518  33.286  36.029   7.650
 4811POPC   NC3 8519  31.429  33.821   9.450
 4811POPC   PO4 8520  31.476  33.798   9.150
 4811POPC   GL1 8521  31.504  33.809   8.850
 4811POPC   GL2 8522  31.379  33.846   8.850
 4811POPC   C1A 8523  31.519  33.832   8.550
 4811POPC   D2A 8524  31.474  33.769   8.250
 4811POPC   C3A 8525  31.473  33.848   7.950
 4811POPC   C4A 8526  31.491  33.794   7.650
 4811POPC   C1B 8527  31.204  33.916   8.550
 4811POPC   C2B 8528  31.245  33.904   8.250
 4811POPC   C3B 8529  31.275  33.846   7.950
 4811POPC   C4B 8530  31.205  33.858   7.650
 4812POPC   NC3 8531  34.564  22.930   9.450
 4812POPC   PO4 8532  34.572  22.949   9.150
 4812POPC   GL1 8533  34.565  22.988   8.850
 4812POPC   GL2 8534  34.702  22.978   8.850
 4812POPC   C1A 8535  34.562  22.972   8.550
 4812POPC   D2A 8536  34.564  22.980   8.250
 4812POPC   C3A 8537  34.620  22.967   7.950
 4812POPC   C4A 8538  34.530  22.898   7.650
 4812POPC   C1B 8539  34.815  23.057   8.550
 4812POPC   C2B 8540  34.811  23.086   8.250
 4812POPC   C3B 8541  34.769  23.005   7.950
 4812POPC   C4B 8542  34.855  23.069   7.650
 4813POPC   NC3 8543  43.868   1.961   9.450
 4813POPC   PO4 8544  43.900   1.954   9.150
 4813POPC   GL1 8545  43.921   1.964   8.850
 4813POPC   GL2 8546  43.790   1.975   8.850
 4813POPC   C1A 8547  43.862   1.946   8.550
 4813POPC   D2A 8548  43.853   1.966   8.250
 4813POPC   C3A 8549  43.838   2.031   7.950
 4813POPC   C4A 8550  43.906   1.994   7.650
 4813POPC   C1B 8551  43.686   2.095   8.550
 4813POPC   C2B 8552  43.632   2.059   8.250
 4813POPC   C3B 8553  43.615   2.047   7.950
 4813POPC   C4B 8554  43.652   2.010   7.650
 4814POPC   NC3 8555  42.301  15.906   9.450
 4814POPC   PO4 8556  42.351  15.950   9.150
 4814POPC   GL1 8557  42.384  15.923   8.850
 4814POPC   GL2 8558  42.358  15.847   8.850
 4814POPC   C1A 8559  42.320  15.908   8.550
 4814POPC   D2A 8560  42.356  15.972   8.250
 4814POPC   C3A 8561  42.317  15.954   7.950
 4814POPC   C4A 8562  42.345  15.982   7.650
 4814POPC   C1B 8563  42.348  15.687   8.550
 4814POPC   C2B 8564  42.408  15.671   8.250
 4814POPC   C3B 8565  42.357  15.685   7.950
 4814POPC   C4B 8566  42.334  15.691   7.650
 4815POPC   NC3 8567  36.950  43.152   9.450
 4815POPC   PO4 8568  36.910  43.110   9.150
 4815POPC   GL1 8569  36.948  43.063   8.850
 4815POPC   GL2 8570  36.747  43.131   8.850
 4815POPC   C1A 8571  36.894  43.134   8.550
 4815POPC   D2A 8572  36.895  43.124   8.250
 4815POPC   C3A 8573  36.897  43.133   7.950
 4815POPC   C4A 8574  36.937  43.127   7.650
 4815POPC   C1B 8575  36.649  43.028   8.550
 4815POPC   C2B 8576  36.639  43.061   8.250
 4815POPC   C3B 8577  36.678  43.046   7.950
 4815POPC   C4B 8578  36.697  43.063   7.650
 4816POPC   NC3 8579  40.831  15.922   9.450
 4816POPC   PO4 8580  40.736  15.917   9.150
 4816POPC   GL1 8581  40.799  15.956   8.850
 4816POPC   GL2 8582  40.862  15.844   8.850
 4816POPC   C1A 8583  40.830  15.921   8.550
 4816POPC   D2A 8584  40.787  15.936   8.250
 4816POPC   C3A 8585  40.799  15.965   7.950
 4816POPC   C4A 8586  40.814  15.916   7.650
 4816POPC   C1B 8587  40.969  15.767   8.550
 4816POPC   C2B 8588  40.906  15.761   8.250
 4816POPC   C3B 8589  40.929  15.779   7.950
 4816POPC   C4B 8590  40.896  15.777   7.650
 4817POPC   NC3 8591  13.661  33.789   9.450
 4817POPC   PO4 8592  13.616  33.803   9.150
 4817POPC   GL1 8593  13.590  33.754   8.850
 4817POPC   GL2 8594  13.670  33.964   8.850
 4817POPC   C1A 8595  13.620  33.827   8.550
 4817POPC   D2A 8596  13.664  33.849   8.250
 4817POPC   C3A 8597  13.582  33.790   7.950
 4817POPC   C4A 8598  13.656  33.778   7.650
 4817POPC   C1B 8599  13.601  34.092   8.550
 4817POPC   C2B 8600  13.595  34.098   8.250
 4817POPC   C3B 8601  13.654  34.054   7.950
 4817POPC   C4B 8602  13.602  34.030   7.650
 4818POPC   NC3 8603  28.346  21.405   9.450
 4818POPC   PO4 8604  28.354  21.339   9.150
 4818POPC   GL1 8605  28.382  21.429   8.850
 4818POPC   GL2 8606  28.324  21.558   8.850
 4818POPC   C1A 8607  28.331  21.405   8.550
 4818POPC   D2A 8608  28.348  21.336   8.250
 4818POPC   C3A 8609  28.376  21.429   7.950
 4818POPC   C4A 8610  28.343  21.435   7.650
 4818POPC   C1B 8611  28.351  21.626   8.550
 4818POPC   C2B 8612  28.335  21.665   8.250
 4818POPC   C3B 8613  28.347  21.673   7.950
 4818POPC   C4B 8614  28.311  21.660   7.650
 4819POPC   NC3 8615  44.637  39.263   9.450
 4819POPC   PO4 8616  44.644  39.263   9.150
 4819POPC   GL1 8617  44.644  39.275   8.850
 4819POPC   GL2 8618  44.686  39.096   8.850
 4819POPC   C1A 8619  44.639  39.274   8.550
 4819POPC   D2A 8620  44.694  39.241   8.250
 4819POPC   C3A 8621  44.622  39.270   7.950
 4819POPC   C4A 8622  44.665  39.255   7.650
 4819POPC   C1B 8623  44.714  38.994   8.550
 4819POPC   C2B 8624  44.705  38.937   8.250
 4819POPC   C3B 8625  44.713  38.988   7.950
 4819POPC   C4B 8626  44.700  39.030   7.650
 4820POPC   NC3 8627  31.425  13.630   9.450
 4820POPC   PO4 8628  31.449  13.596   9.150
 4820POPC   GL1 8629  31.476  13.639   8.850
 4820POPC   GL2 8630  31.503  13.535   8.850
 4820POPC   C1A 8631  31.441  13.597   8.550
 4820POPC   D2A 8632  31.454  13.622   8.250
 4820POPC   C3A 8633  31.486  13.611   7.950
 4820POPC   C4A 8634  31.428  13.675   7.650
 4820POPC   C1B 8635  31.614  13.383   8.550
 4820POPC   C2B 8636  31.611  13.359   8.250
 4820POPC   C3B 8637  31.563  13.400   7.950
 4820POPC   C4B 8638  31.604  13.447   7.650
 4821POPC   NC3 8639  10.530   3.557   9.450
 4821POPC   PO4 8640  10.492   3.514   9.150
 4821POPC   GL1 8641  10.523   3.572   8.850
 4821POPC   GL2 8642  10.612   3.567   8.850
 4821POPC   C1A 8643  10.565   3.528   8.550
 4821POPC   D2A 8644  10.532   3.495   8.250
 4821POPC   C3A 8645  10.563   3.590   7.950
 4821POPC   C4A 8646  10.536   3.577   7.650
 4821POPC   C1B 8647  10.703   3.617   8.550
 4821POPC   C2B 8648  10.772   3.624   8.250
 4821POPC   C3B 8649  10.710   3.666   7.950
 4821POPC   C4B 8650  10.751   3.676   7.650
 4822POPC   NC3 8651  18.302  37.674   9.450
 4822POPC   PO4 8652  18.252  37.679   9.150
 4822POPC   GL1 8653  18.330  37.696   8.850
 4822POPC   GL2 8654  18.366  37.688   8.850
 4822POPC   C1A 8655  18.289  37.711   8.550
 4822POPC   D2A 8656  18.248  37.630   8.250
 4822POPC   C3A 8657  18.284  37.676   7.950
 4822POPC   C4A 8658  18.244  37.642   7.650
 4822POPC   C1B 8659  18.530  37.642   8.550
 4822POPC   C2B 8660  18.484  37.728   8.250
 4822POPC   C3B 8661  18.499  37.695   7.950
 4822POPC   C4B 8662  18.506  37.723   7.650
 4823POPC   NC3 8663  24.442  26.077   9.450
 4823POPC   PO4 8664  24.445  26.004   9.150
 4823POPC   GL1 8665  24.516  26.025   8.850
 4823POPC   GL2 8666  24.592  26.034   8.850
 4823POPC   C1A 8667  24.458  26.089   8.550
 4823POPC   D2A 8668  24.521  26.057   8.250
 4823POPC   C3A 8669  24.482  25.994   7.950
 4823POPC   C4A 8670  24.461  26.027   7.650
 4823POPC   C1B 8671  24.733  26.038   8.550
 4823POPC   C2B 8672  24.765  26.075   8.250
 4823POPC   C3B 8673  24.690  26.021   7.950
 4823POPC   C4B 8674  24.761  25.991   7.650
 4824POPC   NC3 8675  35.309  43.867   9.450
 4824POPC   PO4 8676  35.399  43.896   9.150
 4824POPC   GL1 8677  35.339  43.850   8.850
 4824POPC   GL2 8678  35.247  43.877   8.850
 4824POPC   C1A 8679  35.333  43.929   8.550
 4824POPC   D2A 8680  35.386  43.860   8.250
 4824POPC   C3A 8681  35.333  43.871   7.950
 4824POPC   C4A 8682  35.319  43.913   7.650
 4824POPC   C1B 8683  35.116  43.897   8.550
 4824POPC   C2B 8684  35.107  43.866   8.250
 4824POPC   C3B 8685  35.065  43.890   7.950
 4824POPC   C4B 8686  35.058  43.855   7.650
 4825POPC   NC3 8687  19.045   5.057   9.450
 4825POPC   PO4 8688  19.027   5.114   9.150
 4825POPC   GL1 8689  19.047   5.136   8.850
 4825POPC   GL2 8690  19.083   4.958   8.850
 4825POPC   C1A 8691  19.010   5.076   8.550
 4825POPC   D2A 8692  19.016   5.049   8.250
 4825POPC   C3A 8693  19.027   5.057   7.950
 4825POPC   C4A 8694  19.038   5.138   7.650
 4825POPC   C1B 8695  19.111   4.834   8.550
 4825POPC   C2B 8696  19.066   4.852   8.250
 4825POPC   C3B 8697  19.122   4.892   7.950
 4825POPC   C4B 8698  19.125   4.888   7.650
 4826POPC   NC3 8699  30.671  13.626   9.450
 4826POPC   PO4 8700  30.652  13.664   9.150
 4826POPC   GL1 8701  30.664  13.587   8.850
 4826POPC   GL2 8702  30.777  13.498   8.850
 4826POPC   C1A 8703  30.684  13.620   8.550
 4826POPC   D2A 8704  30.731  13.631   8.250
 4826POPC   C3A 8705  30.674  13.600   7.950
 4826POPC   C4A 8706  30.706  13.624   7.650
 4826POPC   C1B 8707  30.822  13.424   8.550
 4826POPC   C2B 8708  30.883  13.394   8.250
 4826POPC   C3B 8709  30.824  13.444   7.950
 4826POPC   C4B 8710  30.852  13.400   7.650
 4827POPC   NC3 8711   4.334  44.645   9.450
 4827POPC   PO4 8712   4.298  44.655   9.150
 4827POPC   GL1 8713   4.321  44.652   8.850
 4827POPC   GL2 8714   4.355  44.749   8.850
 4827POPC   C1A 8715   4.280  44.647   8.550
 4827POPC   D2A 8716   4.311  44.650   8.250
 4827POPC   C3A 8717   4.287  44.659   7.950
 4827POPC   C4A 8718   4.297  44.631   7.650
 4827POPC   C1B 8719   4.338  44.891   8.550
 4827POPC   C2B 8720   4.362  44.928   8.250
 4827POPC   C3B 8721   4.378  44.949   7.950
 4827POPC   C4B 8722   4.310  44.866   7.650
 4828POPC   NC3 8723  40.052  18.277   9.450
 4828POPC   PO4 8724  39.998  18.309   9.150
 4828POPC   GL1 8725  39.964  18.316   8.850
 4828POPC   GL2 8726  40.048  18.393   8.850
 4828POPC   C1A 8727  40.042  18.248   8.550
 4828POPC   D2A 8728  39.992  18.278   8.250
 4828POPC   C3A 8729  39.961  18.265   7.950
 4828POPC   C4A 8730  39.978  18.328   7.650
 4828POPC   C1B 8731  40.177  18.489   8.550
 4828POPC   C2B 8732  40.185  18.452   8.250
 4828POPC   C3B 8733  40.126  18.480   7.950
 4828POPC   C4B 8734  40.165  18.490   7.650
 4829POPC   NC3 8735   5.883  26.015   9.450
 4829POPC   PO4 8736   5.830  26.053   9.150
 4829POPC   GL1 8737   5.826  26.037   8.850
 4829POPC   GL2 8738   5.852  26.166   8.850
 4829POPC   C1A 8739   5.832  26.076   8.550
 4829POPC   D2A 8740   5.917  26.035   8.250
 4829POPC   C3A 8741   5.911  26.072   7.950
 4829POPC   C4A 8742   5.823  26.050   7.650
 4829POPC   C1B 8743   5.832  26.252   8.550
 4829POPC   C2B 8744   5.851  26.294   8.250
 4829POPC   C3B 8745   5.858  26.315   7.950
 4829POPC   C4B 8746   5.875  26.311   7.650
 4830POPC   NC3 8747  34.618   1.982   9.450
 4830POPC   PO4 8748  34.605   2.000   9.150
 4830POPC   GL1 8749  34.601   1.955   8.850
 4830POPC   GL2 8750  34.676   1.975   8.850
 4830POPC   C1A 8751  34.612   1.978   8.550
 4830POPC   D2A 8752  34.536   2.009   8.250
 4830POPC   C3A 8753  34.582   1.946   7.950
 4830POPC   C4A 8754  34.619   1.953   7.650
 4830POPC   C1B 8755  34.810   1.935   8.550
 4830POPC   C2B 8756  34.777   1.916   8.250
 4830POPC   C3B 8757  34.846   1.906   7.950
 4830POPC   C4B 8758  34.860   1.953   7.650
 4831POPC   NC3 8759  42.294   5.821   9.450
 4831POPC   PO4 8760  42.358   5.915   9.150
 4831POPC   GL1 8761  42.324   5.894   8.850
 4831POPC   GL2 8762  42.418   5.898   8.850
 4831POPC   C1A 8763  42.293   5.911   8.550
 4831POPC   D2A 8764  42.298   5.858   8.250
 4831POPC   C3A 8765  42.371   5.839   7.950
 4831POPC   C4A 8766  42.382   5.901   7.650
 4831POPC   C1B 8767  42.579   5.812   8.550
 4831POPC   C2B 8768  42.555   5.853   8.250
 4831POPC   C3B 8769  42.601   5.780   7.950
 4831POPC   C4B 8770  42.565   5.826   7.650
 4832POPC   NC3 8771  15.977  36.164   9.450
 4832POPC   PO4 8772  15.934  36.165   9.150
 4832POPC   GL1 8773  15.974  36.094   8.850
 4832POPC   GL2 8774  15.985  35.998   8.850
 4832POPC   C1A 8775  15.999  36.113   8.550
 4832POPC   D2A 8776  15.972  36.120   8.250
 4832POPC   C3A 8777  15.968  36.151   7.950
 4832POPC   C4A 8778  15.944  36.082   7.650
 4832POPC   C1B 8779  16.004  35.904   8.550
 4832POPC   C2B 8780  15.948  35.890   8.250
 4832POPC   C3B 8781  15.931  35.864   7.950
 4832POPC   C4B 8782  15.990  35.924   7.650
 4833POPC   NC3 8783  21.357   3.587   9.450
 4833POPC   PO4 8784  21.389   3.561   9.150
 4833POPC   GL1 8785  21.404   3.553   8.850
 4833POPC   GL2 8786  21.338   3.666   8.850
 4833POPC   C1A 8787  21.414   3.493   8.550
 4833POPC   D2A 8788  21.370   3.528   8.250
 4833POPC   C3A 8789  21.418   3.519   7.950
 4833POPC   C4A 8790  21.351   3.588   7.650
 4833POPC   C1B 8791  21.310   3.804   8.550
 4833POPC   C2B 8792  21.232   3.799   8.250
 4833POPC   C3B 8793  21.248   3.769   7.950
 4833POPC   C4B 8794  21.303   3.759   7.650
 4834POPC   NC3 8795  10.522  32.289   9.450
 4834POPC   PO4 8796  10.561  32.274   9.150
 4834POPC   GL1 8797  10.532  32.297   8.850
 4834POPC   GL2 8798  10.642  32.272   8.850
 4834POPC   C1A 8799  10.484  32.205   8.550
 4834POPC   D2A 8800  10.542  32.224   8.250
 4834POPC   C3A 8801  10.544  32.265   7.950
 4834POPC   C4A 8802  10.481  32.264   7.650
 4834POPC   C1B 8803  10.748  32.278   8.550
 4834POPC   C2B 8804  10.773  32.326   8.250
 4834POPC   C3B 8805  10.739  32.269   7.950
 4834POPC   C4B 8806  10.814  32.264   7.650
 4835POPC   NC3 8807  39.215  15.144   9.450
 4835POPC   PO4 8808  39.198  15.155   9.150
 4835POPC   GL1 8809  39.183  15.182   8.850
 4835POPC   GL2 8810  39.345  15.202   8.850
 4835POPC   C1A 8811  39.203  15.143   8.550
 4835POPC   D2A 8812  39.210  15.140   8.250
 4835POPC   C3A 8813  39.270  15.131   7.950
 4835POPC   C4A 8814  39.198  15.175   7.650
 4835POPC   C1B 8815  39.473  15.115   8.550
 4835POPC   C2B 8816  39.431  15.175   8.250
 4835POPC   C3B 8817  39.444  15.147   7.950
 4835POPC   C4B 8818  39.439  15.127   7.650
 4836POPC   NC3 8819  31.443  28.379   9.450
 4836POPC   PO4 8820  31.463  28.398   9.150
 4836POPC   GL1 8821  31.437  28.418   8.850
 4836POPC   GL2 8822  31.406  28.424   8.850
 4836POPC   C1A 8823  31.469  28.326   8.550
 4836POPC   D2A 8824  31.446  28.336   8.250
 4836POPC   C3A 8825  31.505  28.326   7.950
 4836POPC   C4A 8826  31.470  28.358   7.650
 4836POPC   C1B 8827  31.335  28.593   8.550
 4836POPC   C2B 8828  31.332  28.515   8.250
 4836POPC   C3B 8829  31.308  28.606   7.950
 4836POPC   C4B 8830  31.322  28.520   7.650
 4837POPC   NC3 8831  19.047  26.844   9.450
 4837POPC   PO4 8832  19.043  26.861   9.150
 4837POPC   GL1 8833  19.065  26.858   8.850
 4837POPC   GL2 8834  18.941  26.682   8.850
 4837POPC   C1A 8835  19.035  26.835   8.550
 4837POPC   D2A 8836  19.084  26.839   8.250
 4837POPC   C3A 8837  19.063  26.844   7.950
 4837POPC   C4A 8838  19.043  26.863   7.650
 4837POPC   C1B 8839  18.921  26.664   8.550
 4837POPC   C2B 8840  18.891  26.640   8.250
 4837POPC   C3B 8841  18.933  26.611   7.950
 4837POPC   C4B 8842  18.911  26.605   7.650
 4838POPC   NC3 8843  26.769  43.130   9.450
 4838POPC   PO4 8844  26.818  43.154   9.150
 4838POPC   GL1 8845  26.815  43.137   8.850
 4838POPC   GL2 8846  26.739  43.158   8.850
 4838POPC   C1A 8847  26.813  43.144   8.550
 4838POPC   D2A 8848  26.803  43.072   8.250
 4838POPC   C3A 8849  26.859  43.143   7.950
 4838POPC   C4A 8850  26.804  43.102   7.650
 4838POPC   C1B 8851  26.616  43.084   8.550
 4838POPC   C2B 8852  26.568  43.156   8.250
 4838POPC   C3B 8853  26.556  43.149   7.950
 4838POPC   C4B 8854  26.545  43.155   7.650
 4839POPC   NC3 8855  31.468  30.743   9.450
 4839POPC   PO4 8856  31.482  30.650   9.150
 4839POPC   GL1 8857  31.474  30.708   8.850
 4839POPC   GL2 8858  31.511  30.615   8.850
 4839POPC   C1A 8859  31.519  30.660   8.550
 4839POPC   D2A 8860  31.521  30.658   8.250
 4839POPC   C3A 8861  31.463  30.706   7.950
 4839POPC   C4A 8862  31.486  30.724   7.650
 4839POPC   C1B 8863  31.515  30.410   8.550
 4839POPC   C2B 8864  31.497  30.415   8.250
 4839POPC   C3B 8865  31.550  30.419   7.950
 4839POPC   C4B 8866  31.534  30.481   7.650
 4840POPC   NC3 8867  39.244  11.291   9.450
 4840POPC   PO4 8868  39.183  11.303   9.150
 4840POPC   GL1 8869  39.190  11.250   8.850
 4840POPC   GL2 8870  39.238  11.452   8.850
 4840POPC   C1A 8871  39.249  11.336   8.550
 4840POPC   D2A 8872  39.204  11.269   8.250
 4840POPC   C3A 8873  39.272  11.306   7.950
 4840POPC   C4A 8874  39.219  11.282   7.650
 4840POPC   C1B 8875  39.232  11.510   8.550
 4840POPC   C2B 8876  39.271  11.535   8.250
 4840POPC   C3B 8877  39.309  11.509   7.950
 4840POPC   C4B 8878  39.290  11.585   7.650
 4841POPC   NC3 8879  36.146  40.802   9.450
 4841POPC   PO4 8880  36.178  40.740   9.150
 4841POPC   GL1 8881  36.105  40.754   8.850
 4841POPC   GL2 8882  36.009  40.733   8.850
 4841POPC   C1A 8883  36.107  40.821   8.550
 4841POPC   D2A 8884  36.111  40.777   8.250
 4841POPC   C3A 8885  36.154  40.770   7.950
 4841POPC   C4A 8886  36.162  40.823   7.650
 4841POPC   C1B 8887  35.925  40.672   8.550
 4841POPC   C2B 8888  35.918  40.738   8.250
 4841POPC   C3B 8889  35.852  40.748   7.950
 4841POPC   C4B 8890  35.876  40.738   7.650
 4842POPC   NC3 8891  24.518  15.941   9.450
 4842POPC   PO4 8892  24.454  15.997   9.150
 4842POPC   GL1 8893  24.463  15.992   8.850
 4842POPC   GL2 8894  24.472  16.108   8.850
 4842POPC   C1A 8895  24.535  15.919   8.550
 4842POPC   D2A 8896  24.536  16.001   8.250
 4842POPC   C3A 8897  24.520  15.985   7.950
 4842POPC   C4A 8898  24.442  15.976   7.650
 4842POPC   C1B 8899  24.358  16.232   8.550
 4842POPC   C2B 8900  24.408  16.216   8.250
 4842POPC   C3B 8901  24.435  16.214   7.950
 4842POPC   C4B 8902  24.399  16.152   7.650
 4843POPC   NC3 8903  21.342  42.352   9.450
 4843POPC   PO4 8904  21.417  42.303   9.150
 4843POPC   GL1 8905  21.364  42.352   8.850
 4843POPC   GL2 8906  21.420  42.237   8.850
 4843POPC   C1A 8907  21.406  42.286   8.550
 4843POPC   D2A 8908  21.411  42.353   8.250
 4843POPC   C3A 8909  21.420  42.351   7.950
 4843POPC   C4A 8910  21.375  42.368   7.650
 4843POPC   C1B 8911  21.450  42.111   8.550
 4843POPC   C2B 8912  21.504  42.120   8.250
 4843POPC   C3B 8913  21.533  42.066   7.950
 4843POPC   C4B 8914  21.502  42.071   7.650
 4844POPC   NC3 8915  29.096   9.710   9.450
 4844POPC   PO4 8916  29.124   9.739   9.150
 4844POPC   GL1 8917  29.105   9.716   8.850
 4844POPC   GL2 8918  29.075   9.603   8.850
 4844POPC   C1A 8919  29.147   9.699   8.550
 4844POPC   D2A 8920  29.180   9.768   8.250
 4844POPC   C3A 8921  29.103   9.772   7.950
 4844POPC   C4A 8922  29.169   9.711   7.650
 4844POPC   C1B 8923  29.056   9.464   8.550
 4844POPC   C2B 8924  29.083   9.536   8.250
 4844POPC   C3B 8925  29.108   9.488   7.950
 4844POPC   C4B 8926  29.117   9.465   7.650
 4845POPC   NC3 8927  26.865  15.171   9.450
 4845POPC   PO4 8928  26.836  15.221   9.150
 4845POPC   GL1 8929  26.772  15.151   8.850
 4845POPC   GL2 8930  26.800  15.045   8.850
 4845POPC   C1A 8931  26.798  15.221   8.550
 4845POPC   D2A 8932  26.844  15.195   8.250
 4845POPC   C3A 8933  26.831  15.205   7.950
 4845POPC   C4A 8934  26.845  15.160   7.650
 4845POPC   C1B 8935  26.692  14.938   8.550
 4845POPC   C2B 8936  26.724  14.963   8.250
 4845POPC   C3B 8937  26.705  15.001   7.950
 4845POPC   C4B 8938  26.664  14.936   7.650
 4846POPC   NC3 8939  12.862  32.264   9.450
 4846POPC   PO4 8940  12.862  32.219   9.150
 4846POPC   GL1 8941  12.863  32.252   8.850
 4846POPC   GL2 8942  12.797  32.120   8.850
 4846POPC   C1A 8943  12.901  32.213   8.550
 4846POPC   D2A 8944  12.888  32.235   8.250
 4846POPC   C3A 8945  12.846  32.213   7.950
 4846POPC   C4A 8946  12.883  32.234   7.650
 4846POPC   C1B 8947  12.665  32.037   8.550
 4846POPC   C2B 8948  12.750  32.059   8.250
 4846POPC   C3B 8949  12.706  32.059   7.950
 4846POPC   C4B 8950  12.708  32.045   7.650
 4847POPC   NC3 8951  17.529  43.064   9.450
 4847POPC   PO4 8952  17.466  43.134   9.150
 4847POPC   GL1 8953  17.555  43.136   8.850
 4847POPC   GL2 8954  17.484  42.978   8.850
 4847POPC   C1A 8955  17.523  43.065   8.550
 4847POPC   D2A 8956  17.480  43.146   8.250
 4847POPC   C3A 8957  17.530  43.088   7.950
 4847POPC   C4A 8958  17.497  43.122   7.650
 4847POPC   C1B 8959  17.506  42.905   8.550
 4847POPC   C2B 8960  17.522  42.861   8.250
 4847POPC   C3B 8961  17.508  42.879   7.950
 4847POPC   C4B 8962  17.499  42.819   7.650
 4848POPC   NC3 8963   1.968  44.633   9.450
 4848POPC   PO4 8964   2.015  44.662   9.150
 4848POPC   GL1 8965   2.021  44.706   8.850
 4848POPC   GL2 8966   1.937  44.588   8.850
 4848POPC   C1A 8967   1.955  44.694   8.550
 4848POPC   D2A 8968   1.977  44.644   8.250
 4848POPC   C3A 8969   2.034  44.672   7.950
 4848POPC   C4A 8970   1.949  44.668   7.650
 4848POPC   C1B 8971   1.826  44.498   8.550
 4848POPC   C2B 8972   1.828  44.434   8.250
 4848POPC   C3B 8973   1.856  44.502   7.950
 4848POPC   C4B 8974   1.858  44.455   7.650
 4849POPC   NC3 8975  29.188  25.280   9.450
 4849POPC   PO4 8976  29.114  25.279   9.150
 4849POPC   GL1 8977  29.126  25.225   8.850
 4849POPC   GL2 8978  29.072  25.233   8.850
 4849POPC   C1A 8979  29.194  25.302   8.550
 4849POPC   D2A 8980  29.167  25.302   8.250
 4849POPC   C3A 8981  29.108  25.258   7.950
 4849POPC   C4A 8982  29.184  25.313   7.650
 4849POPC   C1B 8983  28.933  25.213   8.550
 4849POPC   C2B 8984  28.871  25.163   8.250
 4849POPC   C3B 8985  28.885  25.223   7.950
 4849POPC   C4B 8986  28.866  25.175   7.650
 4850POPC   NC3 8987  35.317  20.601   9.450
 4850POPC   PO4 8988  35.308  20.602   9.150
 4850POPC   GL1 8989  35.395  20.599   8.850
 4850POPC   GL2 8990  35.413  20.473   8.850
 4850POPC   C1A 8991  35.351  20.622   8.550
 4850POPC   D2A 8992  35.392  20.619   8.250
 4850POPC   C3A 8993  35.302  20.574   7.950
 4850POPC   C4A 8994  35.318  20.651   7.650
 4850POPC   C1B 8995  35.345  20.392   8.550
 4850POPC   C2B 8996  35.361  20.392   8.250
 4850POPC   C3B 8997  35.411  20.411   7.950
 4850POPC   C4B 8998  35.418  20.349   7.650
 4851POPC   NC3 8999  42.302  28.328   9.450
 4851POPC   PO4 9000  42.331  28.395   9.150
 4851POPC   GL1 9001  42.369  28.319   8.850
 4851POPC   GL2 9002  42.461  28.369   8.850
 4851POPC   C1A 9003  42.300  28.355   8.550
 4851POPC   D2A 9004  42.319  28.415   8.250
 4851POPC   C3A 9005  42.348  28.403   7.950
 4851POPC   C4A 9006  42.332  28.354   7.650
 4851POPC   C1B 9007  42.629  28.346   8.550
 4851POPC   C2B 9008  42.581  28.322   8.250
 4851POPC   C3B 9009  42.595  28.401   7.950
 4851POPC   C4B 9010  42.597  28.365   7.650
 4852POPC   NC3 9011  19.012   1.186   9.450
 4852POPC   PO4 9012  19.084   1.202   9.150
 4852POPC   GL1 9013  19.031   1.254   8.850
 4852POPC   GL2 9014  18.913   1.329   8.850
 4852POPC   C1A 9015  19.080   1.228   8.550
 4852POPC   D2A 9016  19.098   1.184   8.250
 4852POPC   C3A 9017  19.010   1.216   7.950
 4852POPC   C4A 9018  19.099   1.212   7.650
 4852POPC   C1B 9019  18.830   1.367   8.550
 4852POPC   C2B 9020  18.859   1.365   8.250
 4852POPC   C3B 9021  18.842   1.393   7.950
 4852POPC   C4B 9022  18.865   1.368   7.650
 4853POPC   NC3 9023   2.010  26.841   9.450
 4853POPC   PO4 9024   1.947  26.830   9.150
 4853POPC   GL1 9025   1.988  26.833   8.850
 4853POPC   GL2 9026   2.010  26.730   8.850
 4853POPC   C1A 9027   1.983  26.781   8.550
 4853POPC   D2A 9028   2.019  26.852   8.250
 4853POPC   C3A 9029   2.007  26.823   7.950
 4853POPC   C4A 9030   1.950  26.807   7.650
 4853POPC   C1B 9031   1.912  26.614   8.550
 4853POPC   C2B 9032   1.978  26.589   8.250
 4853POPC   C3B 9033   1.915  26.575   7.950
 4853POPC   C4B 9034   1.979  26.545   7.650
 4854POPC   NC3 9035  36.147  35.313   9.450
 4854POPC   PO4 9036  36.078  35.334   9.150
 4854POPC   GL1 9037  36.151  35.304   8.850
 4854POPC   GL2 9038  35.962  35.343   8.850
 4854POPC   C1A 9039  36.133  35.314   8.550
 4854POPC   D2A 9040  36.174  35.352   8.250
 4854POPC   C3A 9041  36.106  35.375   7.950
 4854POPC   C4A 9042  36.163  35.336   7.650
 4854POPC   C1B 9043  35.905  35.296   8.550
 4854POPC   C2B 9044  35.849  35.233   8.250
 4854POPC   C3B 9045  35.926  35.258   7.950
 4854POPC   C4B 9046  35.917  35.266   7.650
 4855POPC   NC3 9047   2.794  32.203   9.450
 4855POPC   PO4 9048   2.782  32.204   9.150
 4855POPC   GL1 9049   2.789  32.207   8.850
 4855POPC   GL2 9050   2.702  32.097   8.850
 4855POPC   C1A 9051   2.748  32.247   8.550
 4855POPC   D2A 9052   2.750  32.262   8.250
 4855POPC   C3A 9053   2.734  32.267   7.950
 4855POPC   C4A 9054   2.776  32.256   7.650
 4855POPC   C1B 9055   2.759  32.017   8.550
 4855POPC   C2B 9056   2.727  31.994   8.250
 4855POPC   C3B 9057   2.674  31.955   7.950
 4855POPC   C4B 9058   2.710  32.013   7.650
 4856POPC   NC3 9059  26.797   3.577   9.450
 4856POPC   PO4 9060  26.774   3.495   9.150
 4856POPC   GL1 9061  26.827   3.571   8.850
 4856POPC   GL2 9062  26.980   3.588   8.850
 4856POPC   C1A 9063  26.790   3.566   8.550
 4856POPC   D2A 9064  26.804   3.555   8.250
 4856POPC   C3A 9065  26.769   3.495   7.950
 4856POPC   C4A 9066  26.794   3.558   7.650
 4856POPC   C1B 9067  27.064   3.602   8.550
 4856POPC   C2B 9068  27.070   3.578   8.250
 4856POPC   C3B 9069  27.051   3.599   7.950
 4856POPC   C4B 9070  27.067   3.614   7.650
 4857POPC   NC3 9071   8.955   8.223   9.450
 4857POPC   PO4 9072   8.981   8.232   9.150
 4857POPC   GL1 9073   8.952   8.183   8.850
 4857POPC   GL2 9074   8.840   8.247   8.850
 4857POPC   C1A 9075   8.979   8.196   8.550
 4857POPC   D2A 9076   8.950   8.169   8.250
 4857POPC   C3A 9077   8.954   8.214   7.950
 4857POPC   C4A 9078   8.944   8.224   7.650
 4857POPC   C1B 9079   8.715   8.264   8.550
 4857POPC   C2B 9080   8.726   8.272   8.250
 4857POPC   C3B 9081   8.738   8.241   7.950
 4857POPC   C4B 9082   8.696   8.298   7.650
 4858POPC   NC3 9083  43.936  15.208   9.450
 4858POPC   PO4 9084  43.854  15.144   9.150
 4858POPC   GL1 9085  43.920  15.202   8.850
 4858POPC   GL2 9086  43.780  15.179   8.850
 4858POPC   C1A 9087  43.936  15.150   8.550
 4858POPC   D2A 9088  43.876  15.212   8.250
 4858POPC   C3A 9089  43.837  15.192   7.950
 4858POPC   C4A 9090  43.849  15.220   7.650
 4858POPC   C1B 9091  43.683  15.166   8.550
 4858POPC   C2B 9092  43.605  15.186   8.250
 4858POPC   C3B 9093  43.663  15.142   7.950
 4858POPC   C4B 9094  43.655  15.099   7.650
 4859POPC   NC3 9095   2.768   6.656   9.450
 4859POPC   PO4 9096   2.773   6.611   9.150
 4859POPC   GL1 9097   2.767   6.635   8.850
 4859POPC   GL2 9098   2.894   6.621   8.850
 4859POPC   C1A 9099   2.791   6.614   8.550
 4859POPC   D2A 9100   2.801   6.647   8.250
 4859POPC   C3A 9101   2.744   6.680   7.950
 4859POPC   C4A 9102   2.753   6.629   7.650
 4859POPC   C1B 9103   2.978   6.574   8.550
 4859POPC   C2B 9104   3.032   6.578   8.250
 4859POPC   C3B 9105   2.974   6.592   7.950
 4859POPC   C4B 9106   3.011   6.641   7.650
 4860POPC   NC3 9107   8.936  19.046   9.450
 4860POPC   PO4 9108   9.015  19.063   9.150
 4860POPC   GL1 9109   8.987  19.020   8.850
 4860POPC   GL2 9110   9.116  18.958   8.850
 4860POPC   C1A 9111   8.985  19.040   8.550
 4860POPC   D2A 9112   8.961  19.095   8.250
 4860POPC   C3A 9113   9.012  19.103   7.950
 4860POPC   C4A 9114   9.003  19.060   7.650
 4860POPC   C1B 9115   9.157  18.972   8.550
 4860POPC   C2B 9116   9.203  18.932   8.250
 4860POPC   C3B 9117   9.197  18.888   7.950
 4860POPC   C4B 9118   9.221  18.906   7.650
 4861POPC   NC3 9119  18.259  12.038   9.450
 4861POPC   PO4 9120  18.256  12.045   9.150
 4861POPC   GL1 9121  18.268  12.117   8.850
 4861POPC   GL2 9122  18.140  12.046   8.850
 4861POPC   C1A 9123  18.277  12.055   8.550
 4861POPC   D2A 9124  18.260  12.117   8.250
 4861POPC   C3A 9125  18.246  12.110   7.950
 4861POPC   C4A 9126  18.317  12.125   7.650
 4861POPC   C1B 9127  18.017  12.107   8.550
 4861POPC   C2B 9128  17.985  12.111   8.250
 4861POPC   C3B 9129  18.058  12.080   7.950
 4861POPC   C4B 9130  18.014  12.102   7.650
 4862POPC   NC3 9131  10.516  43.876   9.450
 4862POPC   PO4 9132  10.495  43.883   9.150
 4862POPC   GL1 9133  10.551  43.922   8.850
 4862POPC   GL2 9134  10.459  43.811   8.850
 4862POPC   C1A 9135  10.557  43.847   8.550
 4862POPC   D2A 9136  10.521  43.928   8.250
 4862POPC   C3A 9137  10.505  43.894   7.950
 4862POPC   C4A 9138  10.510  43.930   7.650
 4862POPC   C1B 9139  10.418  43.712   8.550
 4862POPC   C2B 9140  10.404  43.644   8.250
 4862POPC   C3B 9141  10.364  43.675   7.950
 4862POPC   C4B 9142  10.377  43.712   7.650
 4863POPC   NC3 9143  31.483   2.719   9.450
 4863POPC   PO4 9144  31.502   2.776   9.150
 4863POPC   GL1 9145  31.431   2.745   8.850
 4863POPC   GL2 9146  31.567   2.836   8.850
 4863POPC   C1A 9147  31.516   2.745   8.550
 4863POPC   D2A 9148  31.429   2.778   8.250
 4863POPC   C3A 9149  31.471   2.775   7.950
 4863POPC   C4A 9150  31.463   2.761   7.650
 4863POPC   C1B 9151  31.699   2.868   8.550
 4863POPC   C2B 9152  31.722   2.916   8.250
 4863POPC   C3B 9153  31.669   2.945   7.950
 4863POPC   C4B 9154  31.670   2.913   7.650
 4864POPC   NC3 9155   0.398   9.791   9.450
 4864POPC   PO4 9156   0.403   9.734   9.150
 4864POPC   GL1 9157   0.481   9.775   8.850
 4864POPC   GL2 9158   0.534   9.837   8.850
 4864POPC   C1A 9159   0.472   9.772   8.550
 4864POPC   D2A 9160   0.392   9.765   8.250
 4864POPC   C3A 9161   0.465   9.726   7.950
 4864POPC   C4A 9162   0.477   9.750   7.650
 4864POPC   C1B 9163   0.702   9.905   8.550
 4864POPC   C2B 9164   0.703   9.819   8.250
 4864POPC   C3B 9165   0.635   9.819   7.950
 4864POPC   C4B 9166   0.694   9.906   7.650
 4865POPC   NC3 9167   5.103  15.197   9.450
 4865POPC   PO4 9168   5.123  15.141   9.150
 4865POPC   GL1 9169   5.080  15.165   8.850
 4865POPC   GL2 9170   4.974  15.210   8.850
 4865POPC   C1A 9171   5.075  15.187   8.550
 4865POPC   D2A 9172   5.063  15.197   8.250
 4865POPC   C3A 9173   5.049  15.152   7.950
 4865POPC   C4A 9174   5.126  15.189   7.650
 4865POPC   C1B 9175   4.909  15.372   8.550
 4865POPC   C2B 9176   4.902  15.307   8.250
 4865POPC   C3B 9177   4.888  15.351   7.950
 4865POPC   C4B 9178   4.905  15.364   7.650
 4866POPC   NC3 9179  20.589   5.066   9.450
 4866POPC   PO4 9180  20.608   5.143   9.150
 4866POPC   GL1 9181  20.562   5.098   8.850
 4866POPC   GL2 9182  20.572   5.150   8.850
 4866POPC   C1A 9183  20.616   5.049   8.550
 4866POPC   D2A 9184  20.601   5.062   8.250
 4866POPC   C3A 9185  20.626   5.086   7.950
 4866POPC   C4A 9186  20.595   5.107   7.650
 4866POPC   C1B 9187  20.486   5.276   8.550
 4866POPC   C2B 9188  20.458   5.273   8.250
 4866POPC   C3B 9189  20.421   5.271   7.950
 4866POPC   C4B 9190  20.398   5.248   7.650
 4867POPC   NC3 9191   2.732  27.636   9.450
 4867POPC   PO4 9192   2.793  27.564   9.150
 4867POPC   GL1 9193   2.721  27.545   8.850
 4867POPC   GL2 9194   2.651  27.680   8.850
 4867POPC   C1A 9195   2.803  27.548   8.550
 4867POPC   D2A 9196   2.734  27.617   8.250
 4867POPC   C3A 9197   2.771  27.552   7.950
 4867POPC   C4A 9198   2.722  27.559   7.650
 4867POPC   C1B 9199   2.572  27.785   8.550
 4867POPC   C2B 9200   2.614  27.789   8.250
 4867POPC   C3B 9201   2.550  27.799   7.950
 4867POPC   C4B 9202   2.555  27.733   7.650
 4868POPC   NC3 9203  33.778   5.907   9.450
 4868POPC   PO4 9204  33.821   5.889   9.150
 4868POPC   GL1 9205  33.777   5.835   8.850
 4868POPC   GL2 9206  33.939   5.855   8.850
 4868POPC   C1A 9207  33.761   5.845   8.550
 4868POPC   D2A 9208  33.830   5.891   8.250
 4868POPC   C3A 9209  33.839   5.872   7.950
 4868POPC   C4A 9210  33.778   5.847   7.650
 4868POPC   C1B 9211  33.991   5.827   8.550
 4868POPC   C2B 9212  34.037   5.838   8.250
 4868POPC   C3B 9213  34.003   5.760   7.950
 4868POPC   C4B 9214  34.039   5.782   7.650
 4869POPC   NC3 9215  31.498  33.026   9.450
 4869POPC   PO4 9216  31.450  33.043   9.150
 4869POPC   GL1 9217  31.504  32.983   8.850
 4869POPC   GL2 9218  31.574  33.113   8.850
 4869POPC   C1A 9219  31.492  32.987   8.550
 4869POPC   D2A 9220  31.476  33.043   8.250
 4869POPC   C3A 9221  31.474  33.030   7.950
 4869POPC   C4A 9222  31.456  33.018   7.650
 4869POPC   C1B 9223  31.637  33.251   8.550
 4869POPC   C2B 9224  31.606  33.194   8.250
 4869POPC   C3B 9225  31.609  33.259   7.950
 4869POPC   C4B 9226  31.644  33.260   7.650
 4870POPC   NC3 9227  12.088   2.014   9.450
 4870POPC   PO4 9228  12.105   2.028   9.150
 4870POPC   GL1 9229  12.115   1.957   8.850
 4870POPC   GL2 9230  12.102   2.099   8.850
 4870POPC   C1A 9231  12.121   1.971   8.550
 4870POPC   D2A 9232  12.110   1.962   8.250
 4870POPC   C3A 9233  12.067   1.972   7.950
 4870POPC   C4A 9234  12.064   2.036   7.650
 4870POPC   C1B 9235  12.213   2.234   8.550
 4870POPC   C2B 9236  12.173   2.173   8.250
 4870POPC   C3B 9237  12.168   2.238   7.950
 4870POPC   C4B 9238  12.139   2.191   7.650
 4871POPC   NC3 9239  43.093  15.167   9.450
 4871POPC   PO4 9240  43.065  15.161   9.150
 4871POPC   GL1 9241  43.102  15.142   8.850
 4871POPC   GL2 9242  43.161  15.259   8.850
 4871POPC   C1A 9243  43.065  15.154   8.550
 4871POPC   D2A 9244  43.154  15.176   8.250
 4871POPC   C3A 9245  43.061  15.210   7.950
 4871POPC   C4A 9246  43.097  15.219   7.650
 4871POPC   C1B 9247  43.239  15.386   8.550
 4871POPC   C2B 9248  43.236  15.396   8.250
 4871POPC   C3B 9249  43.261  15.426   7.950
 4871POPC   C4B 9250  43.270  15.409   7.650
 4872POPC   NC3 9251  25.999  28.403   9.450
 4872POPC   PO4 9252  26.014  28.407   9.150
 4872POPC   GL1 9253  26.012  28.388   8.850
 4872POPC   GL2 9254  26.104  28.251   8.850
 4872POPC   C1A 9255  26.074  28.335   8.550
 4872POPC   D2A 9256  26.086  28.399   8.250
 4872POPC   C3A 9257  26.006  28.376   7.950
 4872POPC   C4A 9258  26.043  28.415   7.650
 4872POPC   C1B 9259  26.141  28.105   8.550
 4872POPC   C2B 9260  26.138  28.094   8.250
 4872POPC   C3B 9261  26.156  28.094   7.950
 4872POPC   C4B 9262  26.133  28.170   7.650
 4873POPC   NC3 9263   0.454   2.019   9.450
 4873POPC   PO4 9264   0.457   1.995   9.150
 4873POPC   GL1 9265   0.440   1.943   8.850
 4873POPC   GL2 9266   0.340   1.878   8.850
 4873POPC   C1A 9267   0.455   1.969   8.550
 4873POPC   D2A 9268   0.462   2.025   8.250
 4873POPC   C3A 9269   0.454   2.014   7.950
 4873POPC   C4A 9270   0.468   2.035   7.650
 4873POPC   C1B 9271   0.269   1.882   8.550
 4873POPC   C2B 9272   0.251   1.832   8.250
 4873POPC   C3B 9273   0.274   1.810   7.950
 4873POPC   C4B 9274   0.252   1.839   7.650
 4874POPC   NC3 9275   5.103  27.640   9.450
 4874POPC   PO4 9276   5.118  27.614   9.150
 4874POPC   GL1 9277   5.049  27.636   8.850
 4874POPC   GL2 9278   5.260  27.646   8.850
 4874POPC   C1A 9279   5.119  27.604   8.550
 4874POPC   D2A 9280   5.057  27.627   8.250
 4874POPC   C3A 9281   5.073  27.569   7.950
 4874POPC   C4A 9282   5.090  27.621   7.650
 4874POPC   C1B 9283   5.343  27.654   8.550
 4874POPC   C2B 9284   5.310  27.614   8.250
 4874POPC   C3B 9285   5.369  27.687   7.950
 4874POPC   C4B 9286   5.352  27.657   7.650
 4875POPC   NC3 9287  22.191  36.949   9.450
 4875POPC   PO4 9288  22.127  36.855   9.150
 4875POPC   GL1 9289  22.199  36.861   8.850
 4875POPC   GL2 9290  22.193  36.739   8.850
 4875POPC   C1A 9291  22.208  36.909   8.550
 4875POPC   D2A 9292  22.150  36.918   8.250
 4875POPC   C3A 9293  22.167  36.886   7.950
 4875POPC   C4A 9294  22.167  36.913   7.650
 4875POPC   C1B 9295  22.141  36.628   8.550
 4875POPC   C2B 9296  22.223  36.634   8.250
 4875POPC   C3B 9297  22.184  36.661   7.950
 4875POPC   C4B 9298  22.195  36.607   7.650
 4876POPC   NC3 9299  30.676  37.700   9.450
 4876POPC   PO4 9300  30.736  37.656   9.150
 4876POPC   GL1 9301  30.713  37.672   8.850
 4876POPC   GL2 9302  30.688  37.819   8.850
 4876POPC   C1A 9303  30.719  37.636   8.550
 4876POPC   D2A 9304  30.704  37.728   8.250
 4876POPC   C3A 9305  30.718  37.683   7.950
 4876POPC   C4A 9306  30.731  37.649   7.650
 4876POPC   C1B 9307  30.782  37.873   8.550
 4876POPC   C2B 9308  30.765  37.878   8.250
 4876POPC   C3B 9309  30.814  37.908   7.950
 4876POPC   C4B 9310  30.735  37.948   7.650
 4877POPC   NC3 9311   8.153  36.943   9.450
 4877POPC   PO4 9312   8.212  36.892   9.150
 4877POPC   GL1 9313   8.164  36.883   8.850
 4877POPC   GL2 9314   8.257  36.981   8.850
 4877POPC   C1A 9315   8.246  36.868   8.550
 4877POPC   D2A 9316   8.202  36.874   8.250
 4877POPC   C3A 9317   8.234  36.911   7.950
 4877POPC   C4A 9318   8.185  36.942   7.650
 4877POPC   C1B 9319   8.386  37.112   8.550
 4877POPC   C2B 9320   8.375  37.055   8.250
 4877POPC   C3B 9321   8.323  37.082   7.950
 4877POPC   C4B 9322   8.407  37.050   7.650
 4878POPC   NC3 9323  22.182  10.549   9.450
 4878POPC   PO4 9324  22.133  10.520   9.150
 4878POPC   GL1 9325  22.181  10.551   8.850
 4878POPC   GL2 9326  22.033  10.445   8.850
 4878POPC   C1A 9327  22.174  10.567   8.550
 4878POPC   D2A 9328  22.179  10.478   8.250
 4878POPC   C3A 9329  22.211  10.497   7.950
 4878POPC   C4A 9330  22.116  10.488   7.650
 4878POPC   C1B 9331  21.911  10.351   8.550
 4878POPC   C2B 9332  21.934  10.444   8.250
 4878POPC   C3B 9333  21.957  10.420   7.950
 4878POPC   C4B 9334  21.985  10.435   7.650
 4879POPC   NC3 9335  40.778  34.612   9.450
 4879POPC   PO4 9336  40.803  34.584   9.150
 4879POPC   GL1 9337  40.796  34.543   8.850
 4879POPC   GL2 9338  40.654  34.503   8.850
 4879POPC   C1A 9339  40.754  34.554   8.550
 4879POPC   D2A 9340  40.812  34.597   8.250
 4879POPC   C3A 9341  40.759  34.608   7.950
 4879POPC   C4A 9342  40.748  34.591   7.650
 4879POPC   C1B 9343  40.596  34.474   8.550
 4879POPC   C2B 9344  40.558  34.421   8.250
 4879POPC   C3B 9345  40.564  34.430   7.950
 4879POPC   C4B 9346  40.606  34.485   7.650
 4880POPC   NC3 9347  37.670  36.863   9.450
 4880POPC   PO4 9348  37.729  36.925   9.150
 4880POPC   GL1 9349  37.638  36.858   8.850
 4880POPC   GL2 9350  37.771  37.037   8.850
 4880POPC   C1A 9351  37.681  36.938   8.550
 4880POPC   D2A 9352  37.714  36.874   8.250
 4880POPC   C3A 9353  37.720  36.895   7.950
 4880POPC   C4A 9354  37.662  36.906   7.650
 4880POPC   C1B 9355  37.837  37.128   8.550
 4880POPC   C2B 9356  37.793  37.155   8.250
 4880POPC   C3B 9357  37.840  37.076   7.950
 4880POPC   C4B 9358  37.824  37.159   7.650
 4881POPC   NC3 9359   0.463   8.172   9.450
 4881POPC   PO4 9360   0.448   8.206   9.150
 4881POPC   GL1 9361   0.437   8.171   8.850
 4881POPC   GL2 9362   0.442   8.083   8.850
 4881POPC   C1A 9363   0.440   8.216   8.550
 4881POPC   D2A 9364   0.484   8.229   8.250
 4881POPC   C3A 9365   0.422   8.225   7.950
 4881POPC   C4A 9366   0.478   8.168   7.650
 4881POPC   C1B 9367   0.503   7.990   8.550
 4881POPC   C2B 9368   0.567   7.984   8.250
 4881POPC   C3B 9369   0.557   7.919   7.950
 4881POPC   C4B 9370   0.477   7.989   7.650
 4882POPC   NC3 9371   5.066  44.630   9.450
 4882POPC   PO4 9372   5.066  44.704   9.150
 4882POPC   GL1 9373   5.134  44.712   8.850
 4882POPC   GL2 9374   5.117  44.828   8.850
 4882POPC   C1A 9375   5.085  44.663   8.550
 4882POPC   D2A 9376   5.083  44.682   8.250
 4882POPC   C3A 9377   5.119  44.629   7.950
 4882POPC   C4A 9378   5.097  44.675   7.650
 4882POPC   C1B 9379   5.156  44.922   8.550
 4882POPC   C2B 9380   5.137  44.959   8.250
 4882POPC   C3B 9381   5.127  44.936   7.950
 4882POPC   C4B 9382   5.139  44.902   7.650
 4883POPC   NC3 9383  27.641   5.068   9.450
 4883POPC   PO4 9384  27.623   5.081   9.150
 4883POPC   GL1 9385  27.558   5.091   8.850
 4883POPC   GL2 9386  27.478   5.242   8.850
 4883POPC   C1A 9387  27.609   5.100   8.550
 4883POPC   D2A 9388  27.587   5.051   8.250
 4883POPC   C3A 9389  27.619   5.125   7.950
 4883POPC   C4A 9390  27.590   5.089   7.650
 4883POPC   C1B 9391  27.471   5.332   8.550
 4883POPC   C2B 9392  27.438   5.338   8.250
 4883POPC   C3B 9393  27.464   5.266   7.950
 4883POPC   C4B 9394  27.427   5.330   7.650
 4884POPC   NC3 9395   1.944   5.089   9.450
 4884POPC   PO4 9396   1.954   5.128   9.150
 4884POPC   GL1 9397   2.017   5.123   8.850
 4884POPC   GL2 9398   2.006   5.181   8.850
 4884POPC   C1A 9399   1.961   5.073   8.550
 4884POPC   D2A 9400   1.982   5.092   8.250
 4884POPC   C3A 9401   1.976   5.119   7.950
 4884POPC   C4A 9402   1.991   5.119   7.650
 4884POPC   C1B 9403   2.053   5.384   8.550
 4884POPC   C2B 9404   2.023   5.364   8.250
 4884POPC   C3B 9405   2.022   5.296   7.950
 4884POPC   C4B 9406   2.017   5.380   7.650
 4885POPC   NC3 9407  10.487  44.645   9.450
 4885POPC   PO4 9408  10.479  44.617   9.150
 4885POPC   GL1 9409  10.565  44.649   8.850
 4885POPC   GL2 9410  10.574  44.498   8.850
 4885POPC   C1A 9411  10.565  44.685   8.550
 4885POPC   D2A 9412  10.538  44.665   8.250
 4885POPC   C3A 9413  10.548  44.686   7.950
 4885POPC   C4A 9414  10.561  44.671   7.650
 4885POPC   C1B 9415  10.644  44.452   8.550
 4885POPC   C2B 9416  10.641  44.397   8.250
 4885POPC   C3B 9417  10.632  44.415   7.950
 4885POPC   C4B 9418  10.574  44.418   7.650
 4886POPC   NC3 9419   8.944  22.980   9.450
 4886POPC   PO4 9420   8.948  22.903   9.150
 4886POPC   GL1 9421   8.954  22.900   8.850
 4886POPC   GL2 9422   9.010  22.791   8.850
 4886POPC   C1A 9423   8.957  22.897   8.550
 4886POPC   D2A 9424   8.981  22.903   8.250
 4886POPC   C3A 9425   9.003  22.964   7.950
 4886POPC   C4A 9426   9.019  22.947   7.650
 4886POPC   C1B 9427   9.011  22.710   8.550
 4886POPC   C2B 9428   9.074  22.714   8.250
 4886POPC   C3B 9429   9.013  22.733   7.950
 4886POPC   C4B 9430   9.032  22.681   7.650
 4887POPC   NC3 9431  22.917  16.780   9.450
 4887POPC   PO4 9432  22.912  16.746   9.150
 4887POPC   GL1 9433  22.932  16.739   8.850
 4887POPC   GL2 9434  23.012  16.618   8.850
 4887POPC   C1A 9435  22.920  16.700   8.550
 4887POPC   D2A 9436  22.986  16.693   8.250
 4887POPC   C3A 9437  22.950  16.717   7.950
 4887POPC   C4A 9438  22.899  16.759   7.650
 4887POPC   C1B 9439  23.156  16.561   8.550
 4887POPC   C2B 9440  23.172  16.624   8.250
 4887POPC   C3B 9441  23.175  16.642   7.950
 4887POPC   C4B 9442  23.179  16.565   7.650
 4888POPC   NC3 9443   0.433  24.496   9.450
 4888POPC   PO4 9444   0.395  24.450   9.150
 4888POPC   GL1 9445   0.436  24.489   8.850
 4888POPC   GL2 9446   0.276  24.527   8.850
 4888POPC   C1A 9447   0.392  24.504   8.550
 4888POPC   D2A 9448   0.462  24.473   8.250
 4888POPC   C3A 9449   0.420  24.487   7.950
 4888POPC   C4A 9450   0.485  24.472   7.650
 4888POPC   C1B 9451   0.225  24.569   8.550
 4888POPC   C2B 9452   0.147  24.565   8.250
 4888POPC   C3B 9453   0.214  24.510   7.950
 4888POPC   C4B 9454   0.232  24.549   7.650
 4889POPC   NC3 9455   1.189  32.276   9.450
 4889POPC   PO4 9456   1.255  32.255   9.150
 4889POPC   GL1 9457   1.211  32.235   8.850
 4889POPC   GL2 9458   1.162  32.127   8.850
 4889POPC   C1A 9459   1.208  32.213   8.550
 4889POPC   D2A 9460   1.182  32.273   8.250
 4889POPC   C3A 9461   1.191  32.208   7.950
 4889POPC   C4A 9462   1.257  32.247   7.650
 4889POPC   C1B 9463   1.082  32.082   8.550
 4889POPC   C2B 9464   1.116  32.023   8.250
 4889POPC   C3B 9465   1.067  32.036   7.950
 4889POPC   C4B 9466   1.080  31.998   7.650
 4890POPC   NC3 9467  23.721   7.392   9.450
 4890POPC   PO4 9468  23.741   7.400   9.150
 4890POPC   GL1 9469  23.698   7.450   8.850
 4890POPC   GL2 9470  23.765   7.344   8.850
 4890POPC   C1A 9471  23.712   7.420   8.550
 4890POPC   D2A 9472  23.693   7.405   8.250
 4890POPC   C3A 9473  23.698   7.434   7.950
 4890POPC   C4A 9474  23.740   7.375   7.650
 4890POPC   C1B 9475  23.787   7.229   8.550
 4890POPC   C2B 9476  23.807   7.186   8.250
 4890POPC   C3B 9477  23.813   7.186   7.950
 4890POPC   C4B 9478  23.810   7.186   7.650
 4891POPC   NC3 9479  15.176  28.409   9.450
 4891POPC   PO4 9480  15.178  28.410   9.150
 4891POPC   GL1 9481  15.166  28.336   8.850
 4891POPC   GL2 9482  15.143  28.465   8.850
 4891POPC   C1A 9483  15.223  28.363   8.550
 4891POPC   D2A 9484  15.141  28.375   8.250
 4891POPC   C3A 9485  15.184  28.397   7.950
 4891POPC   C4A 9486  15.148  28.416   7.650
 4891POPC   C1B 9487  15.076  28.540   8.550
 4891POPC   C2B 9488  15.107  28.568   8.250
 4891POPC   C3B 9489  15.059  28.576   7.950
 4891POPC   C4B 9490  15.102  28.611   7.650
 4892POPC   NC3 9491  30.702  42.295   9.450
 4892POPC   PO4 9492  30.710  42.346   9.150
 4892POPC   GL1 9493  30.686  42.337   8.850
 4892POPC   GL2 9494  30.657  42.216   8.850
 4892POPC   C1A 9495  30.712  42.370   8.550
 4892POPC   D2A 9496  30.734  42.345   8.250
 4892POPC   C3A 9497  30.718  42.374   7.950
 4892POPC   C4A 9498  30.663  42.289   7.650
 4892POPC   C1B 9499  30.516  42.112   8.550
 4892POPC   C2B 9500  30.566  42.151   8.250
 4892POPC   C3B 9501  30.522  42.170   7.950
 4892POPC   C4B 9502  30.586  42.083   7.650
 4893POPC   NC3 9503  32.990  22.970   9.450
 4893POPC   PO4 9504  32.977  22.967   9.150
 4893POPC   GL1 9505  33.063  22.932   8.850
 4893POPC   GL2 9506  33.111  22.988   8.850
 4893POPC   C1A 9507  33.039  22.942   8.550
 4893POPC   D2A 9508  33.005  22.888   8.250
 4893POPC   C3A 9509  32.994  22.963   7.950
 4893POPC   C4A 9510  33.029  22.964   7.650
 4893POPC   C1B 9511  33.309  22.982   8.550
 4893POPC   C2B 9512  33.284  22.955   8.250
 4893POPC   C3B 9513  33.293  23.013   7.950
 4893POPC   C4B 9514  33.281  22.931   7.650
 4894POPC   NC3 9515   4.307  30.733   9.450
 4894POPC   PO4 9516   4.292  30.653   9.150
 4894POPC   GL1 9517   4.278  30.700   8.850
 4894POPC   GL2 9518   4.194  30.614   8.850
 4894POPC   C1A 9519   4.342  30.688   8.550
 4894POPC   D2A 9520   4.359  30.741   8.250
 4894POPC   C3A 9521   4.286  30.694   7.950
 4894POPC   C4A 9522   4.293  30.663   7.650
 4894POPC   C1B 9523   4.125  30.527   8.550
 4894POPC   C2B 9524   4.112  30.551   8.250
 4894POPC   C3B 9525   4.154  30.498   7.950
 4894POPC   C4B 9526   4.106  30.547   7.650
 4895POPC   NC3 9527  38.476  35.307   9.450
 4895POPC   PO4 9528  38.497  35.341   9.150
 4895POPC   GL1 9529  38.458  35.315   8.850
 4895POPC   GL2 9530  38.542  35.396   8.850
 4895POPC   C1A 9531  38.435  35.346   8.550
 4895POPC   D2A 9532  38.449  35.350   8.250
 4895POPC   C3A 9533  38.469  35.369   7.950
 4895POPC   C4A 9534  38.451  35.397   7.650
 4895POPC   C1B 9535  38.680  35.350   8.550
 4895POPC   C2B 9536  38.742  35.341   8.250
 4895POPC   C3B 9537  38.716  35.390   7.950
 4895POPC   C4B 9538  38.713  35.379   7.650
 4896POPC   NC3 9539  15.987   4.305   9.450
 4896POPC   PO4 9540  15.973   4.279   9.150
 4896POPC   GL1 9541  15.928   4.351   8.850
 4896POPC   GL2 9542  16.038   4.446   8.850
 4896POPC   C1A 9543  15.920   4.272   8.550
 4896POPC   D2A 9544  15.934   4.305   8.250
 4896POPC   C3A 9545  15.942   4.360   7.950
 4896POPC   C4A 9546  15.988   4.354   7.650
 4896POPC   C1B 9547  16.024   4.539   8.550
 4896POPC   C2B 9548  16.038   4.518   8.250
 4896POPC   C3B 9549  16.008   4.578   7.950
 4896POPC   C4B 9550  16.028   4.580   7.650
 4897POPC   NC3 9551  11.334  36.912   9.450
 4897POPC   PO4 9552  11.256  36.898   9.150
 4897POPC   GL1 9553  11.320  36.870   8.850
 4897POPC   GL2 9554  11.278  36.775   8.850
 4897POPC   C1A 9555  11.255  36.921   8.550
 4897POPC   D2A 9556  11.304  36.890   8.250
 4897POPC   C3A 9557  11.312  36.922   7.950
 4897POPC   C4A 9558  11.300  36.925   7.650
 4897POPC   C1B 9559  11.254  36.640   8.550
 4897POPC   C2B 9560  11.280  36.679   8.250
 4897POPC   C3B 9561  11.272  36.647   7.950
 4897POPC   C4B 9562  11.205  36.631   7.650
 4898POPC   NC3 9563  30.647  26.777   9.450
 4898POPC   PO4 9564  30.652  26.828   9.150
 4898POPC   GL1 9565  30.681  26.771   8.850
 4898POPC   GL2 9566  30.761  26.882   8.850
 4898POPC   C1A 9567  30.719  26.815   8.550
 4898POPC   D2A 9568  30.701  26.818   8.250
 4898POPC   C3A 9569  30.664  26.851   7.950
 4898POPC   C4A 9570  30.735  26.827   7.650
 4898POPC   C1B 9571  30.890  26.984   8.550
 4898POPC   C2B 9572  30.856  26.950   8.250
 4898POPC   C3B 9573  30.919  26.963   7.950
 4898POPC   C4B 9574  30.898  26.936   7.650
 4899POPC   NC3 9575  43.899   6.652   9.450
 4899POPC   PO4 9576  43.924   6.633   9.150
 4899POPC   GL1 9577  43.902   6.674   8.850
 4899POPC   GL2 9578  44.016   6.765   8.850
 4899POPC   C1A 9579  43.876   6.645   8.550
 4899POPC   D2A 9580  43.872   6.620   8.250
 4899POPC   C3A 9581  43.883   6.656   7.950
 4899POPC   C4A 9582  43.919   6.641   7.650
 4899POPC   C1B 9583  44.097   6.775   8.550
 4899POPC   C2B 9584  44.075   6.846   8.250
 4899POPC   C3B 9585  44.090   6.791   7.950
 4899POPC   C4B 9586  44.104   6.814   7.650
 4900POPC   NC3 9587  16.004  39.973   9.450
 4900POPC   PO4 9588  15.918  39.978   9.150
 4900POPC   GL1 9589  15.956  40.047   8.850
 4900POPC   GL2 9590  15.878  39.864   8.850
 4900POPC   C1A 9591  15.947  39.962   8.550
 4900POPC   D2A 9592  15.977  40.053   8.250
 4900POPC   C3A 9593  15.981  39.987   7.950
 4900POPC   C4A 9594  15.911  40.017   7.650
 4900POPC   C1B 9595  15.861  39.747   8.550
 4900POPC   C2B 9596  15.868  39.799   8.250
 4900POPC   C3B 9597  15.821  39.790   7.950
 4900POPC   C4B 9598  15.900  39.788   7.650
 4901POPC   NC3 9599   5.824  28.418   9.450
 4901POPC   PO4 9600   5.824  28.417   9.150
 4901POPC   GL1 9601   5.825  28.348   8.850
 4901POPC   GL2 9602   5.790  28.396   8.850
 4901POPC   C1A 9603   5.913  28.326   8.550
 4901POPC   D2A 9604   5.874  28.346   8.250
 4901POPC   C3A 9605   5.862  28.405   7.950
 4901POPC   C4A 9606   5.867  28.353   7.650
 4901POPC   C1B 9607   5.631  28.327   8.550
 4901POPC   C2B 9608   5.659  28.331   8.250
 4901POPC   C3B 9609   5.667  28.350   7.950
 4901POPC   C4B 9610   5.640  28.406   7.650
 4902POPC   NC3 9611  39.238  19.877   9.450
 4902POPC   PO4 9612  39.267  19.854   9.150
 4902POPC   GL1 9613  39.194  19.796   8.850
 4902POPC   GL2 9614  39.315  19.951   8.850
 4902POPC   C1A 9615  39.192  19.828   8.550
 4902POPC   D2A 9616  39.195  19.791   8.250
 4902POPC   C3A 9617  39.280  19.786   7.950
 4902POPC   C4A 9618  39.225  19.819   7.650
 4902POPC   C1B 9619  39.355  20.056   8.550
 4902POPC   C2B 9620  39.369  20.087   8.250
 4902POPC   C3B 9621  39.393  20.024   7.950
 4902POPC   C4B 9622  39.389  20.017   7.650
 4903POPC   NC3 9623  40.809  39.269   9.450
 4903POPC   PO4 9624  40.792  39.238   9.150
 4903POPC   GL1 9625  40.825  39.274   8.850
 4903POPC   GL2 9626  40.719  39.214   8.850
 4903POPC   C1A 9627  40.828  39.208   8.550
 4903POPC   D2A 9628  40.761  39.279   8.250
 4903POPC   C3A 9629  40.736  39.245   7.950
 4903POPC   C4A 9630  40.737  39.190   7.650
 4903POPC   C1B 9631  40.513  39.089   8.550
 4903POPC   C2B 9632  40.579  39.130   8.250
 4903POPC   C3B 9633  40.514  39.168   7.950
 4903POPC   C4B 9634  40.569  39.142   7.650
 4904POPC   NC3 9635   2.805  12.048   9.450
 4904POPC   PO4 9636   2.762  12.083   9.150
 4904POPC   GL1 9637   2.721  12.054   8.850
 4904POPC   GL2 9638   2.711  12.150   8.850
 4904POPC   C1A 9639   2.731  12.082   8.550
 4904POPC   D2A 9640   2.784  12.041   8.250
 4904POPC   C3A 9641   2.772  12.086   7.950
 4904POPC   C4A 9642   2.808  12.116   7.650
 4904POPC   C1B 9643   2.571  12.233   8.550
 4904POPC   C2B 9644   2.532  12.208   8.250
 4904POPC   C3B 9645   2.582  12.236   7.950
 4904POPC   C4B 9646   2.558  12.218   7.650
 4905POPC   NC3 9647  10.515  22.932   9.450
 4905POPC   PO4 9648  10.503  22.975   9.150
 4905POPC   GL1 9649  10.506  22.953   8.850
 4905POPC   GL2 9650  10.650  23.013   8.850
 4905POPC   C1A 9651  10.530  22.894   8.550
 4905POPC   D2A 9652  10.570  22.963   8.250
 4905POPC   C3A 9653  10.507  22.959   7.950
 4905POPC   C4A 9654  10.502  22.940   7.650
 4905POPC   C1B 9655  10.802  22.982   8.550
 4905POPC   C2B 9656  10.777  22.962   8.250
 4905POPC   C3B 9657  10.743  22.983   7.950
 4905POPC   C4B 9658  10.723  23.031   7.650
 4906POPC   NC3 9659   8.237  15.188   9.450
 4906POPC   PO4 9660   8.160  15.135   9.150
 4906POPC   GL1 9661   8.154  15.226   8.850
 4906POPC   GL2 9662   8.181  15.010   8.850
 4906POPC   C1A 9663   8.235  15.158   8.550
 4906POPC   D2A 9664   8.180  15.194   8.250
 4906POPC   C3A 9665   8.244  15.223   7.950
 4906POPC   C4A 9666   8.171  15.226   7.650
 4906POPC   C1B 9667   8.219  14.977   8.550
 4906POPC   C2B 9668   8.190  14.949   8.250
 4906POPC   C3B 9669   8.250  14.955   7.950
 4906POPC   C4B 9670   8.212  14.952   7.650
 4907POPC   NC3 9671  22.937  37.684   9.450
 4907POPC   PO4 9672  22.911  37.686   9.150
 4907POPC   GL1 9673  22.977  37.679   8.850
 4907POPC   GL2 9674  22.949  37.549   8.850
 4907POPC   C1A 9675  22.980  37.715   8.550
 4907POPC   D2A 9676  22.944  37.687   8.250
 4907POPC   C3A 9677  22.952  37.710   7.950
 4907POPC   C4A 9678  22.957  37.675   7.650
 4907POPC   C1B 9679  22.922  37.454   8.550
 4907POPC   C2B 9680  22.976  37.398   8.250
 4907POPC   C3B 9681  22.986  37.403   7.950
 4907POPC   C4B 9682  22.926  37.427   7.650
 4908POPC   NC3 9683  43.928  29.118   9.450
 4908POPC   PO4 9684  43.869  29.185   9.150
 4908POPC   GL1 9685  43.882  29.174   8.850
 4908POPC   GL2 9686  44.021  29.191   8.850
 4908POPC   C1A 9687  43.842  29.190   8.550
 4908POPC   D2A 9688  43.877  29.120   8.250
 4908POPC   C3A 9689  43.884  29.101   7.950
 4908POPC   C4A 9690  43.862  29.178   7.650
 4908POPC   C1B 9691  44.134  29.276   8.550
 4908POPC   C2B 9692  44.158  29.252   8.250
 4908POPC   C3B 9693  44.116  29.230   7.950
 4908POPC   C4B 9694  44.091  29.221   7.650
 4909POPC   NC3 9695   3.570  24.472   9.450
 4909POPC   PO4 9696   3.498  24.503   9.150
 4909POPC   GL1 9697   3.561  24.449   8.850
 4909POPC   GL2 9698   3.683  24.545   8.850
 4909POPC   C1A 9699   3.512  24.457   8.550
 4909POPC   D2A 9700   3.534  24.538   8.250
 4909POPC   C3A 9701   3.555  24.506   7.950
 4909POPC   C4A 9702   3.579  24.528   7.650
 4909POPC   C1B 9703   3.689  24.646   8.550
 4909POPC   C2B 9704   3.724  24.602   8.250
 4909POPC   C3B 9705   3.701  24.662   7.950
 4909POPC   C4B 9706   3.722  24.636   7.650
 4910POPC   NC3 9707  42.363  26.034   9.450
 4910POPC   PO4 9708  42.375  26.079   9.150
 4910POPC   GL1 9709  42.300  26.059   8.850
 4910POPC   GL2 9710  42.252  26.055   8.850
 4910POPC   C1A 9711  42.341  26.015   8.550
 4910POPC   D2A 9712  42.379  25.998   8.250
 4910POPC   C3A 9713  42.305  26.049   7.950
 4910POPC   C4A 9714  42.325  26.041   7.650
 4910POPC   C1B 9715  42.045  26.062   8.550
 4910POPC   C2B 9716  42.083  26.092   8.250
 4910POPC   C3B 9717  42.055  26.026   7.950
 4910POPC   C4B 9718  42.133  26.058   7.650
 4911POPC   NC3 9719   0.422  12.864   9.450
 4911POPC   PO4 9720   0.389  12.898   9.150
 4911POPC   GL1 9721   0.472  12.824   8.850
 4911POPC   GL2 9722   0.445  13.023   8.850
 4911POPC   C1A 9723   0.430  12.861   8.550
 4911POPC   D2A 9724   0.478  12.811   8.250
 4911POPC   C3A 9725   0.438  12.859   7.950
 4911POPC   C4A 9726   0.403  12.876   7.650
 4911POPC   C1B 9727   0.445  13.137   8.550
 4911POPC   C2B 9728   0.501  13.085   8.250
 4911POPC   C3B 9729   0.485  13.133   7.950
 4911POPC   C4B 9730   0.440  13.107   7.650
 4912POPC   NC3 9731   8.154   4.304   9.450
 4912POPC   PO4 9732   8.210   4.354   9.150
 4912POPC   GL1 9733   8.219   4.334   8.850
 4912POPC   GL2 9734   8.265   4.188   8.850
 4912POPC   C1A 9735   8.244   4.326   8.550
 4912POPC   D2A 9736   8.167   4.315   8.250
 4912POPC   C3A 9737   8.230   4.335   7.950
 4912POPC   C4A 9738   8.231   4.357   7.650
 4912POPC   C1B 9739   8.227   4.089   8.550
 4912POPC   C2B 9740   8.248   4.026   8.250
 4912POPC   C3B 9741   8.269   4.092   7.950
 4912POPC   C4B 9742   8.222   4.082   7.650
 4913POPC   NC3 9743  29.132   4.348   9.450
 4913POPC   PO4 9744  29.165   4.324   9.150
 4913POPC   GL1 9745  29.176   4.349   8.850
 4913POPC   GL2 9746  29.224   4.463   8.850
 4913POPC   C1A 9747  29.136   4.350   8.550
 4913POPC   D2A 9748  29.137   4.319   8.250
 4913POPC   C3A 9749  29.146   4.312   7.950
 4913POPC   C4A 9750  29.095   4.366   7.650
 4913POPC   C1B 9751  29.339   4.540   8.550
 4913POPC   C2B 9752  29.278   4.477   8.250
 4913POPC   C3B 9753  29.318   4.506   7.950
 4913POPC   C4B 9754  29.271   4.565   7.650
 4914POPC   NC3 9755  14.446  19.863   9.450
 4914POPC   PO4 9756  14.370  19.880   9.150
 4914POPC   GL1 9757  14.449  19.827   8.850
 4914POPC   GL2 9758  14.524  19.845   8.850
 4914POPC   C1A 9759  14.409  19.837   8.550
 4914POPC   D2A 9760  14.367  19.868   8.250
 4914POPC   C3A 9761  14.418  19.816   7.950
 4914POPC   C4A 9762  14.401  19.820   7.650
 4914POPC   C1B 9763  14.605  19.912   8.550
 4914POPC   C2B 9764  14.655  19.964   8.250
 4914POPC   C3B 9765  14.622  19.918   7.950
 4914POPC   C4B 9766  14.618  19.881   7.650
 4915POPC   NC3 9767  36.141  39.205   9.450
 4915POPC   PO4 9768  36.128  39.226   9.150
 4915POPC   GL1 9769  36.099  39.184   8.850
 4915POPC   GL2 9770  36.129  39.147   8.850
 4915POPC   C1A 9771  36.125  39.263   8.550
 4915POPC   D2A 9772  36.160  39.193   8.250
 4915POPC   C3A 9773  36.105  39.276   7.950
 4915POPC   C4A 9774  36.170  39.262   7.650
 4915POPC   C1B 9775  36.036  38.977   8.550
 4915POPC   C2B 9776  36.113  39.016   8.250
 4915POPC   C3B 9777  36.056  38.966   7.950
 4915POPC   C4B 9778  36.120  39.024   7.650
 4916POPC   NC3 9779  19.809  39.981   9.450
 4916POPC   PO4 9780  19.833  40.046   9.150
 4916POPC   GL1 9781  19.839  40.006   8.850
 4916POPC   GL2 9782  19.758  40.091   8.850
 4916POPC   C1A 9783  19.802  40.049   8.550
 4916POPC   D2A 9784  19.796  39.979   8.250
 4916POPC   C3A 9785  19.860  40.027   7.950
 4916POPC   C4A 9786  19.860  39.967   7.650
 4916POPC   C1B 9787  19.653  40.131   8.550
 4916POPC   C2B 9788  19.676  40.219   8.250
 4916POPC   C3B 9789  19.685  40.186   7.950
 4916POPC   C4B 9790  19.614  40.138   7.650
 4917POPC   NC3 9791  28.339  15.160   9.450
 4917POPC   PO4 9792  28.408  15.213   9.150
 4917POPC   GL1 9793  28.337  15.183   8.850
 4917POPC   GL2 9794  28.460  15.085   8.850
 4917POPC   C1A 9795  28.398  15.201   8.550
 4917POPC   D2A 9796  28.410  15.177   8.250
 4917POPC   C3A 9797  28.389  15.187   7.950
 4917POPC   C4A 9798  28.411  15.189   7.650
 4917POPC   C1B 9799  28.487  14.957   8.550
 4917POPC   C2B 9800  28.501  15.008   8.250
 4917POPC   C3B 9801  28.465  15.002   7.950
 4917POPC   C4B 9802  28.535  15.002   7.650
 4918POPC   NC3 9803  27.565  12.028   9.450
 4918POPC   PO4 9804  27.624  12.063   9.150
 4918POPC   GL1 9805  27.610  12.092   8.850
 4918POPC   GL2 9806  27.662  11.981   8.850
 4918POPC   C1A 9807  27.575  12.125   8.550
 4918POPC   D2A 9808  27.571  12.102   8.250
 4918POPC   C3A 9809  27.568  12.036   7.950
 4918POPC   C4A 9810  27.568  12.078   7.650
 4918POPC   C1B 9811  27.735  11.884   8.550
 4918POPC   C2B 9812  27.756  11.914   8.250
 4918POPC   C3B 9813  27.772  11.875   7.950
 4918POPC   C4B 9814  27.768  11.865   7.650
 4919POPC   NC3 9815  22.889  19.792   9.450
 4919POPC   PO4 9816  22.890  19.871   9.150
 4919POPC   GL1 9817  22.923  19.827   8.850
 4919POPC   GL2 9818  22.858  19.770   8.850
 4919POPC   C1A 9819  22.937  19.810   8.550
 4919POPC   D2A 9820  22.916  19.839   8.250
 4919POPC   C3A 9821  22.924  19.858   7.950
 4919POPC   C4A 9822  22.896  19.875   7.650
 4919POPC   C1B 9823  22.744  19.718   8.550
 4919POPC   C2B 9824  22.731  19.706   8.250
 4919POPC   C3B 9825  22.703  19.784   7.950
 4919POPC   C4B 9826  22.687  19.714   7.650
 4920POPC   NC3 9827  30.695   5.875   9.450
 4920POPC   PO4 9828  30.721   5.876   9.150
 4920POPC   GL1 9829  30.662   5.847   8.850
 4920POPC   GL2 9830  30.639   5.780   8.850
 4920POPC   C1A 9831  30.699   5.837   8.550
 4920POPC   D2A 9832  30.726   5.827   8.250
 4920POPC   C3A 9833  30.742   5.832   7.950
 4920POPC   C4A 9834  30.735   5.877   7.650
 4920POPC   C1B 9835  30.658   5.576   8.550
 4920POPC   C2B 9836  30.711   5.609   8.250
 4920POPC   C3B 9837  30.623   5.669   7.950
 4920POPC   C4B 9838  30.661   5.609   7.650
 4921POPC   NC3 9839   4.319  33.819   9.450
 4921POPC   PO4 9840   4.276  33.785   9.150
 4921POPC   GL1 9841   4.359  33.821   8.850
 4921POPC   GL2 9842   4.451  33.751   8.850
 4921POPC   C1A 9843   4.306  33.777   8.550
 4921POPC   D2A 9844   4.276  33.848   8.250
 4921POPC   C3A 9845   4.359  33.836   7.950
 4921POPC   C4A 9846   4.307  33.844   7.650
 4921POPC   C1B 9847   4.458  33.609   8.550
 4921POPC   C2B 9848   4.500  33.682   8.250
 4921POPC   C3B 9849   4.487  33.593   7.950
 4921POPC   C4B 9850   4.537  33.606   7.650
 4922POPC   NC3 9851   9.732  33.839   9.450
 4922POPC   PO4 9852   9.716  33.831   9.150
 4922POPC   GL1 9853   9.723  33.799   8.850
 4922POPC   GL2 9854   9.646  33.918   8.850
 4922POPC   C1A 9855   9.725  33.765   8.550
 4922POPC   D2A 9856   9.794  33.793   8.250
 4922POPC   C3A 9857   9.774  33.822   7.950
 4922POPC   C4A 9858   9.730  33.800   7.650
 4922POPC   C1B 9859   9.532  33.955   8.550
 4922POPC   C2B 9860   9.528  33.974   8.250
 4922POPC   C3B 9861   9.586  33.909   7.950
 4922POPC   C4B 9862   9.538  33.930   7.650
 4923POPC   NC3 9863   5.138  28.372   9.450
 4923POPC   PO4 9864   5.073  28.319   9.150
 4923POPC   GL1 9865   5.097  28.356   8.850
 4923POPC   GL2 9866   5.223  28.363   8.850
 4923POPC   C1A 9867   5.055  28.364   8.550
 4923POPC   D2A 9868   5.074  28.393   8.250
 4923POPC   C3A 9869   5.043  28.332   7.950
 4923POPC   C4A 9870   5.078  28.389   7.650
 4923POPC   C1B 9871   5.365  28.335   8.550
 4923POPC   C2B 9872   5.373  28.312   8.250
 4923POPC   C3B 9873   5.312  28.392   7.950
 4923POPC   C4B 9874   5.349  28.350   7.650
 4924POPC   NC3 9875   7.435  29.935   9.450
 4924POPC   PO4 9876   7.398  29.920   9.150
 4924POPC   GL1 9877   7.427  29.949   8.850
 4924POPC   GL2 9878   7.505  30.020   8.850
 4924POPC   C1A 9879   7.415  29.963   8.550
 4924POPC   D2A 9880   7.379  29.909   8.250
 4924POPC   C3A 9881   7.431  29.928   7.950
 4924POPC   C4A 9882   7.400  29.926   7.650
 4924POPC   C1B 9883   7.504  30.108   8.550
 4924POPC   C2B 9884   7.502  30.166   8.250
 4924POPC   C3B 9885   7.499  30.138   7.950
 4924POPC   C4B 9886   7.575  30.108   7.650
 4925POPC   NC3 9887  17.480   7.461   9.450
 4925POPC   PO4 9888  17.539   7.387   9.150
 4925POPC   GL1 9889  17.513   7.420   8.850
 4925POPC   GL2 9890  17.575   7.583   8.850
 4925POPC   C1A 9891  17.548   7.371   8.550
 4925POPC   D2A 9892  17.462   7.446   8.250
 4925POPC   C3A 9893  17.495   7.397   7.950
 4925POPC   C4A 9894  17.548   7.450   7.650
 4925POPC   C1B 9895  17.527   7.672   8.550
 4925POPC   C2B 9896  17.620   7.654   8.250
 4925POPC   C3B 9897  17.604   7.644   7.950
 4925POPC   C4B 9898  17.582   7.688   7.650
 4926POPC   NC3 9899  40.755  14.372   9.450
 4926POPC   PO4 9900  40.742  14.421   9.150
 4926POPC   GL1 9901  40.764  14.429   8.850
 4926POPC   GL2 9902  40.706  14.468   8.850
 4926POPC   C1A 9903  40.771  14.397   8.550
 4926POPC   D2A 9904  40.812  14.363   8.250
 4926POPC   C3A 9905  40.781  14.433   7.950
 4926POPC   C4A 9906  40.733  14.437   7.650
 4926POPC   C1B 9907  40.584  14.468   8.550
 4926POPC   C2B 9908  40.562  14.467   8.250
 4926POPC   C3B 9909  40.567  14.445   7.950
 4926POPC   C4B 9910  40.539  14.451   7.650
 4927POPC   NC3 9911  33.799   8.179   9.450
 4927POPC   PO4 9912  33.756   8.199   9.150
 4927POPC   GL1 9913  33.841   8.160   8.850
 4927POPC   GL2 9914  33.747   8.273   8.850
 4927POPC   C1A 9915  33.841   8.180   8.550
 4927POPC   D2A 9916  33.815   8.161   8.250
 4927POPC   C3A 9917  33.796   8.173   7.950
 4927POPC   C4A 9918  33.818   8.244   7.650
 4927POPC   C1B 9919  33.757   8.420   8.550
 4927POPC   C2B 9920  33.727   8.389   8.250
 4927POPC   C3B 9921  33.762   8.455   7.950
 4927POPC   C4B 9922  33.687   8.486   7.650
 4928POPC   NC3 9923   4.349  23.760   9.450
 4928POPC   PO4 9924   4.314  23.714   9.150
 4928POPC   GL1 9925   4.279  23.732   8.850
 4928POPC   GL2 9926   4.327  23.877   8.850
 4928POPC   C1A 9927   4.301  23.664   8.550
 4928POPC   D2A 9928   4.285  23.730   8.250
 4928POPC   C3A 9929   4.314  23.690   7.950
 4928POPC   C4A 9930   4.361  23.743   7.650
 4928POPC   C1B 9931   4.344  23.992   8.550
 4928POPC   C2B 9932   4.290  24.010   8.250
 4928POPC   C3B 9933   4.259  23.925   7.950
 4928POPC   C4B 9934   4.306  24.012   7.650
 4929POPC   NC3 9935  18.319  42.341   9.450
 4929POPC   PO4 9936  18.308  42.322   9.150
 4929POPC   GL1 9937  18.318  42.286   8.850
 4929POPC   GL2 9938  18.172  42.385   8.850
 4929POPC   C1A 9939  18.330  42.359   8.550
 4929POPC   D2A 9940  18.278  42.368   8.250
 4929POPC   C3A 9941  18.320  42.367   7.950
 4929POPC   C4A 9942  18.234  42.290   7.650
 4929POPC   C1B 9943  18.011  42.357   8.550
 4929POPC   C2B 9944  18.015  42.447   8.250
 4929POPC   C3B 9945  18.066  42.390   7.950
 4929POPC   C4B 9946  18.061  42.362   7.650
 4930POPC   NC3 9947  11.272  29.908   9.450
 4930POPC   PO4 9948  11.347  29.934   9.150
 4930POPC   GL1 9949  11.310  29.967   8.850
 4930POPC   GL2 9950  11.269  29.780   8.850
 4930POPC   C1A 9951  11.269  29.906   8.550
 4930POPC   D2A 9952  11.326  29.922   8.250
 4930POPC   C3A 9953  11.313  29.917   7.950
 4930POPC   C4A 9954  11.279  29.956   7.650
 4930POPC   C1B 9955  11.326  29.661   8.550
 4930POPC   C2B 9956  11.249  29.636   8.250
 4930POPC   C3B 9957  11.304  29.713   7.950
 4930POPC   C4B 9958  11.271  29.716   7.650
 4931POPC   NC3 9959  14.366  39.974   9.450
 4931POPC   PO4 9960  14.356  40.017   9.150
 4931POPC   GL1 9961  14.387  40.042   8.850
 4931POPC   GL2 9962  14.463  40.072   8.850
 4931POPC   C1A 9963  14.451  39.994   8.550
 4931POPC   D2A 9964  14.424  40.027   8.250
 4931POPC   C3A 9965  14.387  39.969   7.950
 4931POPC   C4A 9966  14.420  40.056   7.650
 4931POPC   C1B 9967  14.597  40.172   8.550
 4931POPC   C2B 9968  14.578  40.133   8.250
 4931POPC   C3B 9969  14.597  40.134   7.950
 4931POPC   C4B 9970  14.564  40.139   7.650
 4932POPC   NC3 9971   4.286  40.056   9.450
 4932POPC   PO4 9972   4.291  40.036   9.150
 4932POPC   GL1 9973   4.273  40.023   8.850
 4932POPC   GL2 9974   4.454  40.105   8.850
 4932POPC   C1A 9975   4.327  39.994   8.550
 4932POPC   D2A 9976   4.312  40.036   8.250
 4932POPC   C3A 9977   4.335  39.987   7.950
 4932POPC   C4A 9978   4.292  40.043   7.650
 4932POPC   C1B 9979   4.518  40.146   8.550
 4932POPC   C2B 9980   4.519  40.160   8.250
 4932POPC   C3B 9981   4.507  40.189   7.950
 4932POPC   C4B 9982   4.494  40.158   7.650
 4933POPC   NC3 9983  12.119  40.043   9.450
 4933POPC   PO4 9984  12.054  39.963   9.150
 4933POPC   GL1 9985  12.071  40.037   8.850
 4933POPC   GL2 9986  12.049  39.866   8.850
 4933POPC   C1A 9987  12.096  40.005   8.550
 4933POPC   D2A 9988  12.077  40.044   8.250
 4933POPC   C3A 9989  12.035  40.006   7.950
 4933POPC   C4A 9990  12.040  40.018   7.650
 4933POPC   C1B 9991  11.992  39.806   8.550
 4933POPC   C2B 9992  12.016  39.754   8.250
 4933POPC   C3B 9993  11.990  39.783   7.950
 4933POPC   C4B 9994  12.029  39.797   7.650
 4934POPC   NC3 9995  29.967   8.237   9.450
 4934POPC   PO4 9996  29.936   8.188   9.150
 4934POPC   GL1 9997  29.917   8.238   8.850
 4934POPC   GL2 9998  29.810   8.237   8.850
 4934POPC   C1A 9999  29.902   8.168   8.550
 4934POPC   D2A10000  29.964   8.219   8.250
 4934POPC   C3A10001  29.963   8.228   7.950
 4934POPC   C4A10002  29.961   8.149   7.650
 4934POPC   C1B10003  29.700   8.337   8.550
 4934POPC   C2B10004  29.685   8.359   8.250
 4934POPC   C3B10005  29.720   8.329   7.950
 4934POPC   C4B10006  29.677   8.318   7.650
 4935POPC   NC310007   5.135   2.024   9.450
 4935POPC   PO410008   5.100   2.031   9.150
 4935POPC   GL110009   5.120   1.954   8.850
 4935POPC   GL210010   5.054   2.074   8.850
 4935POPC   C1A10011   5.076   1.956   8.550
 4935POPC   D2A10012   5.137   1.943   8.250
 4935POPC   C3A10013   5.048   1.940   7.950
 4935POPC   C4A10014   5.137   1.993   7.650
 4935POPC   C1B10015   4.937   2.210   8.550
 4935POPC   C2B10016   4.987   2.210   8.250
 4935POPC   C3B10017   4.952   2.144   7.950
 4935POPC   C4B10018   4.970   2.146   7.650
 4936POPC   NC310019  32.238   5.126   9.450
 4936POPC   PO410020  32.298   5.134   9.150
 4936POPC   GL110021  32.256   5.062   8.850
 4936POPC   GL210022  32.346   4.957   8.850
 4936POPC   C1A10023  32.216   5.091   8.550
 4936POPC   D2A10024  32.261   5.112   8.250
 4936POPC   C3A10025  32.268   5.110   7.950
 4936POPC   C4A10026  32.261   5.055   7.650
 4936POPC   C1B10027  32.382   4.898   8.550
 4936POPC   C2B10028  32.343   4.926   8.250
 4936POPC   C3B10029  32.358   4.863   7.950
 4936POPC   C4B10030  32.421   4.849   7.650
 4937POPC   NC310031   3.564  43.925   9.450
 4937POPC   PO410032   3.496  43.896   9.150
 4937POPC   GL110033   3.520  43.850   8.850
 4937POPC   GL210034   3.420  43.971   8.850
 4937POPC   C1A10035   3.571  43.930   8.550
 4937POPC   D2A10036   3.540  43.863   8.250
 4937POPC   C3A10037   3.585  43.849   7.950
 4937POPC   C4A10038   3.533  43.924   7.650
 4937POPC   C1B10039   3.360  43.957   8.550
 4937POPC   C2B10040   3.338  43.983   8.250
 4937POPC   C3B10041   3.365  44.035   7.950
 4937POPC   C4B10042   3.296  44.049   7.650
 4938POPC   NC310043  42.328  37.729   9.450
 4938POPC   PO410044  42.382  37.638   9.150
 4938POPC   GL110045  42.322  37.653   8.850
 4938POPC   GL210046  42.489  37.710   8.850
 4938POPC   C1A10047  42.378  37.676   8.550
 4938POPC   D2A10048  42.361  37.638   8.250
 4938POPC   C3A10049  42.365  37.638   7.950
 4938POPC   C4A10050  42.318  37.637   7.650
 4938POPC   C1B10051  42.524  37.760   8.550
 4938POPC   C2B10052  42.602  37.772   8.250
 4938POPC   C3B10053  42.610  37.741   7.950
 4938POPC   C4B10054  42.524  37.762   7.650
 4939POPC   NC310055  25.221  18.323   9.450
 4939POPC   PO410056  25.219  18.308   9.150
 4939POPC   GL110057  25.262  18.313   8.850
 4939POPC   GL210058  25.273  18.169   8.850
 4939POPC   C1A10059  25.220  18.332   8.550
 4939POPC   D2A10060  25.242  18.317   8.250
 4939POPC   C3A10061  25.265  18.281   7.950
 4939POPC   C4A10062  25.260  18.319   7.650
 4939POPC   C1B10063  25.169  18.046   8.550
 4939POPC   C2B10064  25.203  18.075   8.250
 4939POPC   C3B10065  25.217  18.054   7.950
 4939POPC   C4B10066  25.196  18.050   7.650
 4940POPC   NC310067  43.062   3.530   9.450
 4940POPC   PO410068  43.128   3.554   9.150
 4940POPC   GL110069  43.160   3.538   8.850
 4940POPC   GL210070  43.157   3.611   8.850
 4940POPC   C1A10071  43.089   3.531   8.550
 4940POPC   D2A10072  43.148   3.571   8.250
 4940POPC   C3A10073  43.105   3.548   7.950
 4940POPC   C4A10074  43.130   3.541   7.650
 4940POPC   C1B10075  43.202   3.797   8.550
 4940POPC   C2B10076  43.269   3.795   8.250
 4940POPC   C3B10077  43.248   3.809   7.950
 4940POPC   C4B10078  43.261   3.792   7.650
 4941POPC   NC310079  39.188  36.136   9.450
 4941POPC   PO410080  39.219  36.124   9.150
 4941POPC   GL110081  39.223  36.091   8.850
 4941POPC   GL210082  39.096  36.205   8.850
 4941POPC   C1A10083  39.221  36.131   8.550
 4941POPC   D2A10084  39.233  36.112   8.250
 4941POPC   C3A10085  39.220  36.097   7.950
 4941POPC   C4A10086  39.256  36.104   7.650
 4941POPC   C1B10087  38.968  36.200   8.550
 4941POPC   C2B10088  38.972  36.149   8.250
 4941POPC   C3B10089  38.974  36.193   7.950
 4941POPC   C4B10090  38.944  36.146   7.650
 4942POPC   NC310091  29.905  43.083   9.450
 4942POPC   PO410092  29.920  43.132   9.150
 4942POPC   GL110093  29.895  43.135   8.850
 4942POPC   GL210094  30.085  43.186   8.850
 4942POPC   C1A10095  29.942  43.144   8.550
 4942POPC   D2A10096  29.871  43.160   8.250
 4942POPC   C3A10097  29.878  43.126   7.950
 4942POPC   C4A10098  29.952  43.160   7.650
 4942POPC   C1B10099  30.160  43.234   8.550
 4942POPC   C2B10100  30.196  43.159   8.250
 4942POPC   C3B10101  30.154  43.193   7.950
 4942POPC   C4B10102  30.115  43.230   7.650
 4943POPC   NC310103   6.613  39.248   9.450
 4943POPC   PO410104   6.668  39.211   9.150
 4943POPC   GL110105   6.666  39.238   8.850
 4943POPC   GL210106   6.714  39.154   8.850
 4943POPC   C1A10107   6.622  39.276   8.550
 4943POPC   D2A10108   6.640  39.278   8.250
 4943POPC   C3A10109   6.609  39.274   7.950
 4943POPC   C4A10110   6.615  39.255   7.650
 4943POPC   C1B10111   6.838  39.105   8.550
 4943POPC   C2B10112   6.842  39.085   8.250
 4943POPC   C3B10113   6.826  39.105   7.950
 4943POPC   C4B10114   6.865  39.167   7.650
 4944POPC   NC310115  41.530  35.317   9.450
 4944POPC   PO410116  41.543  35.367   9.150
 4944POPC   GL110117  41.579  35.387   8.850
 4944POPC   GL210118  41.527  35.464   8.850
 4944POPC   C1A10119  41.538  35.310   8.550
 4944POPC   D2A10120  41.544  35.325   8.250
 4944POPC   C3A10121  41.540  35.381   7.950
 4944POPC   C4A10122  41.573  35.330   7.650
 4944POPC   C1B10123  41.409  35.556   8.550
 4944POPC   C2B10124  41.491  35.595   8.250
 4944POPC   C3B10125  41.418  35.590   7.950
 4944POPC   C4B10126  41.414  35.594   7.650
 4945POPC   NC310127  22.161  14.411   9.450
 4945POPC   PO410128  22.142  14.429   9.150
 4945POPC   GL110129  22.172  14.396   8.850
 4945POPC   GL210130  22.240  14.361   8.850
 4945POPC   C1A10131  22.134  14.431   8.550
 4945POPC   D2A10132  22.203  14.362   8.250
 4945POPC   C3A10133  22.134  14.424   7.950
 4945POPC   C4A10134  22.204  14.409   7.650
 4945POPC   C1B10135  22.351  14.228   8.550
 4945POPC   C2B10136  22.353  14.299   8.250
 4945POPC   C3B10137  22.353  14.261   7.950
 4945POPC   C4B10138  22.406  14.291   7.650
 4946POPC   NC310139  32.998  38.413   9.450
 4946POPC   PO410140  33.067  38.503   9.150
 4946POPC   GL110141  32.974  38.415   8.850
 4946POPC   GL210142  32.961  38.288   8.850
 4946POPC   C1A10143  33.005  38.446   8.550
 4946POPC   D2A10144  32.976  38.495   8.250
 4946POPC   C3A10145  33.039  38.467   7.950
 4946POPC   C4A10146  33.053  38.494   7.650
 4946POPC   C1B10147  32.994  38.251   8.550
 4946POPC   C2B10148  32.930  38.256   8.250
 4946POPC   C3B10149  32.981  38.225   7.950
 4946POPC   C4B10150  32.978  38.162   7.650
 4947POPC   NC310151  28.410  23.735   9.450
 4947POPC   PO410152  28.396  23.669   9.150
 4947POPC   GL110153  28.335  23.689   8.850
 4947POPC   GL210154  28.301  23.828   8.850
 4947POPC   C1A10155  28.398  23.740   8.550
 4947POPC   D2A10156  28.353  23.741   8.250
 4947POPC   C3A10157  28.364  23.673   7.950
 4947POPC   C4A10158  28.358  23.717   7.650
 4947POPC   C1B10159  28.229  23.872   8.550
 4947POPC   C2B10160  28.192  23.847   8.250
 4947POPC   C3B10161  28.201  23.877   7.950
 4947POPC   C4B10162  28.182  23.904   7.650
 4948POPC   NC310163  31.466  23.685   9.450
 4948POPC   PO410164  31.514  23.750   9.150
 4948POPC   GL110165  31.499  23.667   8.850
 4948POPC   GL210166  31.526  23.804   8.850
 4948POPC   C1A10167  31.507  23.684   8.550
 4948POPC   D2A10168  31.456  23.681   8.250
 4948POPC   C3A10169  31.483  23.752   7.950
 4948POPC   C4A10170  31.452  23.713   7.650
 4948POPC   C1B10171  31.559  23.963   8.550
 4948POPC   C2B10172  31.505  23.934   8.250
 4948POPC   C3B10173  31.480  23.999   7.950
 4948POPC   C4B10174  31.506  23.918   7.650
 4949POPC   NC310175  20.616  43.066   9.450
 4949POPC   PO410176  20.616  43.136   9.150
 4949POPC   GL110177  20.578  43.138   8.850
 4949POPC   GL210178  20.627  43.187   8.850
 4949POPC   C1A10179  20.584  43.155   8.550
 4949POPC   D2A10180  20.638  43.119   8.250
 4949POPC   C3A10181  20.613  43.115   7.950
 4949POPC   C4A10182  20.639  43.136   7.650
 4949POPC   C1B10183  20.694  43.335   8.550
 4949POPC   C2B10184  20.672  43.330   8.250
 4949POPC   C3B10185  20.682  43.379   7.950
 4949POPC   C4B10186  20.739  43.379   7.650
 4950POPC   NC310187  43.876  17.555   9.450
 4950POPC   PO410188  43.859  17.553   9.150
 4950POPC   GL110189  43.852  17.477   8.850
 4950POPC   GL210190  43.837  17.353   8.850
 4950POPC   C1A10191  43.856  17.524   8.550
 4950POPC   D2A10192  43.857  17.459   8.250
 4950POPC   C3A10193  43.873  17.552   7.950
 4950POPC   C4A10194  43.837  17.554   7.650
 4950POPC   C1B10195  43.835  17.283   8.550
 4950POPC   C2B10196  43.821  17.280   8.250
 4950POPC   C3B10197  43.810  17.251   7.950
 4950POPC   C4B10198  43.807  17.237   7.650
 4951POPC   NC310199  26.790  39.218   9.450
 4951POPC   PO410200  26.821  39.235   9.150
 4951POPC   GL110201  26.797  39.212   8.850
 4951POPC   GL210202  26.849  39.306   8.850
 4951POPC   C1A10203  26.778  39.185   8.550
 4951POPC   D2A10204  26.767  39.239   8.250
 4951POPC   C3A10205  26.837  39.210   7.950
 4951POPC   C4A10206  26.856  39.273   7.650
 4951POPC   C1B10207  26.922  39.471   8.550
 4951POPC   C2B10208  26.923  39.480   8.250
 4951POPC   C3B10209  26.879  39.496   7.950
 4951POPC   C4B10210  26.901  39.482   7.650
 4952POPC   NC310211  34.589  42.323   9.450
 4952POPC   PO410212  34.604  42.340   9.150
 4952POPC   GL110213  34.607  42.329   8.850
 4952POPC   GL210214  34.495  42.427   8.850
 4952POPC   C1A10215  34.589  42.343   8.550
 4952POPC   D2A10216  34.583  42.301   8.250
 4952POPC   C3A10217  34.623  42.288   7.950
 4952POPC   C4A10218  34.571  42.315   7.650
 4952POPC   C1B10219  34.388  42.479   8.550
 4952POPC   C2B10220  34.383  42.514   8.250
 4952POPC   C3B10221  34.386  42.424   7.950
 4952POPC   C4B10222  34.357  42.478   7.650
 4953POPC   NC310223  14.355   9.768   9.450
 4953POPC   PO410224  14.444   9.738   9.150
 4953POPC   GL110225  14.442   9.760   8.850
 4953POPC   GL210226  14.273   9.664   8.850
 4953POPC   C1A10227  14.394   9.772   8.550
 4953POPC   D2A10228  14.426   9.739   8.250
 4953POPC   C3A10229  14.412   9.720   7.950
 4953POPC   C4A10230  14.398   9.744   7.650
 4953POPC   C1B10231  14.187   9.546   8.550
 4953POPC   C2B10232  14.197   9.609   8.250
 4953POPC   C3B10233  14.241   9.584   7.950
 4953POPC   C4B10234  14.209   9.579   7.650
 4954POPC   NC310235  13.592  43.898   9.450
 4954POPC   PO410236  13.624  43.897   9.150
 4954POPC   GL110237  13.592  43.927   8.850
 4954POPC   GL210238  13.467  43.885   8.850
 4954POPC   C1A10239  13.593  43.902   8.550
 4954POPC   D2A10240  13.670  43.859   8.250
 4954POPC   C3A10241  13.636  43.849   7.950
 4954POPC   C4A10242  13.648  43.901   7.650
 4954POPC   C1B10243  13.336  43.820   8.550
 4954POPC   C2B10244  13.413  43.837   8.250
 4954POPC   C3B10245  13.367  43.868   7.950
 4954POPC   C4B10246  13.403  43.836   7.650
 4955POPC   NC310247   7.417  34.555   9.450
 4955POPC   PO410248   7.394  34.611   9.150
 4955POPC   GL110249   7.397  34.621   8.850
 4955POPC   GL210250   7.291  34.623   8.850
 4955POPC   C1A10251   7.397  34.543   8.550
 4955POPC   D2A10252   7.420  34.593   8.250
 4955POPC   C3A10253   7.451  34.569   7.950
 4955POPC   C4A10254   7.382  34.527   7.650
 4955POPC   C1B10255   7.221  34.676   8.550
 4955POPC   C2B10256   7.144  34.610   8.250
 4955POPC   C3B10257   7.183  34.651   7.950
 4955POPC   C4B10258   7.218  34.680   7.650
 4956POPC   NC310259  29.169  29.143   9.450
 4956POPC   PO410260  29.106  29.122   9.150
 4956POPC   GL110261  29.127  29.124   8.850
 4956POPC   GL210262  29.254  29.158   8.850
 4956POPC   C1A10263  29.139  29.097   8.550
 4956POPC   D2A10264  29.169  29.104   8.250
 4956POPC   C3A10265  29.182  29.106   7.950
 4956POPC   C4A10266  29.119  29.155   7.650
 4956POPC   C1B10267  29.420  29.209   8.550
 4956POPC   C2B10268  29.377  29.186   8.250
 4956POPC   C3B10269  29.428  29.147   7.950
 4956POPC   C4B10270  29.402  29.180   7.650
 4957POPC   NC310271  18.298  41.519   9.450
 4957POPC   PO410272  18.278  41.560   9.150
 4957POPC   GL110273  18.260  41.602   8.850
 4957POPC   GL210274  18.206  41.656   8.850
 4957POPC   C1A10275  18.243  41.554   8.550
 4957POPC   D2A10276  18.323  41.524   8.250
 4957POPC   C3A10277  18.238  41.575   7.950
 4957POPC   C4A10278  18.292  41.585   7.650
 4957POPC   C1B10279  18.192  41.818   8.550
 4957POPC   C2B10280  18.244  41.834   8.250
 4957POPC   C3B10281  18.233  41.748   7.950
 4957POPC   C4B10282  18.231  41.768   7.650
 4958POPC   NC310283   8.218  37.642   9.450
 4958POPC   PO410284   8.194  37.665   9.150
 4958POPC   GL110285   8.187  37.725   8.850
 4958POPC   GL210286   8.082  37.718   8.850
 4958POPC   C1A10287   8.200  37.653   8.550
 4958POPC   D2A10288   8.150  37.648   8.250
 4958POPC   C3A10289   8.228  37.671   7.950
 4958POPC   C4A10290   8.201  37.651   7.650
 4958POPC   C1B10291   7.984  37.818   8.550
 4958POPC   C2B10292   7.930  37.784   8.250
 4958POPC   C3B10293   7.970  37.790   7.950
 4958POPC   C4B10294   7.984  37.795   7.650
 4959POPC   NC310295   7.415  27.584   9.450
 4959POPC   PO410296   7.448  27.561   9.150
 4959POPC   GL110297   7.380  27.580   8.850
 4959POPC   GL210298   7.548  27.623   8.850
 4959POPC   C1A10299   7.372  27.630   8.550
 4959POPC   D2A10300   7.396  27.573   8.250
 4959POPC   C3A10301   7.424  27.552   7.950
 4959POPC   C4A10302   7.429  27.631   7.650
 4959POPC   C1B10303   7.617  27.652   8.550
 4959POPC   C2B10304   7.653  27.714   8.250
 4959POPC   C3B10305   7.608  27.679   7.950
 4959POPC   C4B10306   7.647  27.691   7.650
 4960POPC   NC310307   8.221   0.431   9.450
 4960POPC   PO410308   8.186   0.448   9.150
 4960POPC   GL110309   8.185   0.411   8.850
 4960POPC   GL210310   8.072   0.426   8.850
 4960POPC   C1A10311   8.230   0.483   8.550
 4960POPC   D2A10312   8.227   0.395   8.250
 4960POPC   C3A10313   8.217   0.444   7.950
 4960POPC   C4A10314   8.189   0.453   7.650
 4960POPC   C1B10315   7.973   0.493   8.550
 4960POPC   C2B10316   7.971   0.550   8.250
 4960POPC   C3B10317   7.949   0.488   7.950
 4960POPC   C4B10318   7.941   0.510   7.650
 4961POPC   NC310319   1.171   2.716   9.450
 4961POPC   PO410320   1.194   2.732   9.150
 4961POPC   GL110321   1.195   2.772   8.850
 4961POPC   GL210322   1.252   2.900   8.850
 4961POPC   C1A10323   1.245   2.733   8.550
 4961POPC   D2A10324   1.173   2.790   8.250
 4961POPC   C3A10325   1.232   2.748   7.950
 4961POPC   C4A10326   1.255   2.760   7.650
 4961POPC   C1B10327   1.294   2.990   8.550
 4961POPC   C2B10328   1.253   3.018   8.250
 4961POPC   C3B10329   1.284   3.021   7.950
 4961POPC   C4B10330   1.266   3.062   7.650
 4962POPC   NC310331  25.296  40.740   9.450
 4962POPC   PO410332  25.308  40.766   9.150
 4962POPC   GL110333  25.219  40.767   8.850
 4962POPC   GL210334  25.213  40.742   8.850
 4962POPC   C1A10335  25.264  40.810   8.550
 4962POPC   D2A10336  25.267  40.791   8.250
 4962POPC   C3A10337  25.272  40.804   7.950
 4962POPC   C4A10338  25.314  40.777   7.650
 4962POPC   C1B10339  25.033  40.619   8.550
 4962POPC   C2B10340  25.058  40.622   8.250
 4962POPC   C3B10341  25.085  40.653   7.950
 4962POPC   C4B10342  25.075  40.635   7.650
 4963POPC   NC310343  27.555  19.108   9.450
 4963POPC   PO410344  27.562  19.054   9.150
 4963POPC   GL110345  27.611  19.058   8.850
 4963POPC   GL210346  27.517  19.116   8.850
 4963POPC   C1A10347  27.643  19.087   8.550
 4963POPC   D2A10348  27.568  19.075   8.250
 4963POPC   C3A10349  27.610  19.018   7.950
 4963POPC   C4A10350  27.563  19.080   7.650
 4963POPC   C1B10351  27.396  19.148   8.550
 4963POPC   C2B10352  27.367  19.152   8.250
 4963POPC   C3B10353  27.343  19.133   7.950
 4963POPC   C4B10354  27.375  19.163   7.650
 4964POPC   NC310355  12.830  16.703   9.450
 4964POPC   PO410356  12.900  16.706   9.150
 4964POPC   GL110357  12.894  16.769   8.850
 4964POPC   GL210358  12.993  16.729   8.850
 4964POPC   C1A10359  12.876  16.739   8.550
 4964POPC   D2A10360  12.846  16.750   8.250
 4964POPC   C3A10361  12.880  16.701   7.950
 4964POPC   C4A10362  12.804  16.725   7.650
 4964POPC   C1B10363  13.076  16.667   8.550
 4964POPC   C2B10364  13.145  16.702   8.250
 4964POPC   C3B10365  13.104  16.667   7.950
 4964POPC   C4B10366  13.088  16.692   7.650
 4965POPC   NC310367   4.290   6.635   9.450
 4965POPC   PO410368   4.355   6.597   9.150
 4965POPC   GL110369   4.363   6.641   8.850
 4965POPC   GL210370   4.380   6.587   8.850
 4965POPC   C1A10371   4.360   6.614   8.550
 4965POPC   D2A10372   4.272   6.664   8.250
 4965POPC   C3A10373   4.273   6.651   7.950
 4965POPC   C4A10374   4.313   6.673   7.650
 4965POPC   C1B10375   4.432   6.435   8.550
 4965POPC   C2B10376   4.497   6.458   8.250
 4965POPC   C3B10377   4.467   6.417   7.950
 4965POPC   C4B10378   4.468   6.445   7.650
 4966POPC   NC310379   1.180  26.799   9.450
 4966POPC   PO410380   1.255  26.845   9.150
 4966POPC   GL110381   1.203  26.846   8.850
 4966POPC   GL210382   1.320  26.760   8.850
 4966POPC   C1A10383   1.210  26.801   8.550
 4966POPC   D2A10384   1.214  26.776   8.250
 4966POPC   C3A10385   1.201  26.856   7.950
 4966POPC   C4A10386   1.263  26.798   7.650
 4966POPC   C1B10387   1.457  26.754   8.550
 4966POPC   C2B10388   1.475  26.759   8.250
 4966POPC   C3B10389   1.436  26.778   7.950
 4966POPC   C4B10390   1.429  26.703   7.650
 4967POPC   NC310391  33.050   4.365   9.450
 4967POPC   PO410392  32.980   4.282   9.150
 4967POPC   GL110393  33.019   4.301   8.850
 4967POPC   GL210394  32.882   4.230   8.850
 4967POPC   C1A10395  33.064   4.279   8.550
 4967POPC   D2A10396  32.995   4.327   8.250
 4967POPC   C3A10397  33.046   4.276   7.950
 4967POPC   C4A10398  33.069   4.362   7.650
 4967POPC   C1B10399  32.777   4.188   8.550
 4967POPC   C2B10400  32.772   4.227   8.250
 4967POPC   C3B10401  32.765   4.238   7.950
 4967POPC   C4B10402  32.840   4.169   7.650
 4968POPC   NC310403   0.482  39.972   9.450
 4968POPC   PO410404   0.485  39.993   9.150
 4968POPC   GL110405   0.458  40.043   8.850
 4968POPC   GL210406   0.501  39.859   8.850
 4968POPC   C1A10407   0.406  40.055   8.550
 4968POPC   D2A10408   0.436  40.001   8.250
 4968POPC   C3A10409   0.391  40.057   7.950
 4968POPC   C4A10410   0.437  39.985   7.650
 4968POPC   C1B10411   0.509  39.756   8.550
 4968POPC   C2B10412   0.466  39.759   8.250
 4968POPC   C3B10413   0.463  39.799   7.950
 4968POPC   C4B10414   0.476  39.731   7.650
 4969POPC   NC310415  12.091  22.947   9.450
 4969POPC   PO410416  12.096  22.923   9.150
 4969POPC   GL110417  12.066  22.896   8.850
 4969POPC   GL210418  12.063  22.862   8.850
 4969POPC   C1A10419  12.065  22.924   8.550
 4969POPC   D2A10420  12.053  22.908   8.250
 4969POPC   C3A10421  12.115  22.970   7.950
 4969POPC   C4A10422  12.051  22.902   7.650
 4969POPC   C1B10423  12.148  22.682   8.550
 4969POPC   C2B10424  12.131  22.652   8.250
 4969POPC   C3B10425  12.110  22.737   7.950
 4969POPC   C4B10426  12.120  22.692   7.650
 4970POPC   NC310427  12.116  28.346   9.450
 4970POPC   PO410428  12.079  28.396   9.150
 4970POPC   GL110429  12.048  28.334   8.850
 4970POPC   GL210430  11.989  28.270   8.850
 4970POPC   C1A10431  12.041  28.352   8.550
 4970POPC   D2A10432  12.107  28.330   8.250
 4970POPC   C3A10433  12.079  28.407   7.950
 4970POPC   C4A10434  12.113  28.372   7.650
 4970POPC   C1B10435  12.024  28.160   8.550
 4970POPC   C2B10436  12.028  28.142   8.250
 4970POPC   C3B10437  11.940  28.142   7.950
 4970POPC   C4B10438  11.960  28.128   7.650
 4971POPC   NC310439  10.476  21.344   9.450
 4971POPC   PO410440  10.553  21.367   9.150
 4971POPC   GL110441  10.567  21.382   8.850
 4971POPC   GL210442  10.379  21.328   8.850
 4971POPC   C1A10443  10.479  21.426   8.550
 4971POPC   D2A10444  10.568  21.397   8.250
 4971POPC   C3A10445  10.548  21.396   7.950
 4971POPC   C4A10446  10.548  21.401   7.650
 4971POPC   C1B10447  10.293  21.246   8.550
 4971POPC   C2B10448  10.319  21.328   8.250
 4971POPC   C3B10449  10.252  21.299   7.950
 4971POPC   C4B10450  10.321  21.274   7.650
 4972POPC   NC310451  40.770   0.407   9.450
 4972POPC   PO410452  40.762   0.463   9.150
 4972POPC   GL110453  40.811   0.414   8.850
 4972POPC   GL210454  40.870   0.495   8.850
 4972POPC   C1A10455  40.777   0.454   8.550
 4972POPC   D2A10456  40.774   0.407   8.250
 4972POPC   C3A10457  40.767   0.400   7.950
 4972POPC   C4A10458  40.792   0.461   7.650
 4972POPC   C1B10459  40.907   0.590   8.550
 4972POPC   C2B10460  40.918   0.646   8.250
 4972POPC   C3B10461  40.959   0.639   7.950
 4972POPC   C4B10462  40.886   0.633   7.650
 4973POPC   NC310463  19.821  40.803   9.450
 4973POPC   PO410464  19.884  40.809   9.150
 4973POPC   GL110465  19.831  40.782   8.850
 4973POPC   GL210466  19.882  40.914   8.850
 4973POPC   C1A10467  19.881  40.828   8.550
 4973POPC   D2A10468  19.869  40.799   8.250
 4973POPC   C3A10469  19.859  40.787   7.950
 4973POPC   C4A10470  19.869  40.789   7.650
 4973POPC   C1B10471  19.911  41.018   8.550
 4973POPC   C2B10472  19.974  41.052   8.250
 4973POPC   C3B10473  19.981  41.045   7.950
 4973POPC   C4B10474  19.911  41.014   7.650
 4974POPC   NC310475  29.127  22.921   9.450
 4974POPC   PO410476  29.172  22.893   9.150
 4974POPC   GL110477  29.114  22.980   8.850
 4974POPC   GL210478  29.175  22.857   8.850
 4974POPC   C1A10479  29.156  22.968   8.550
 4974POPC   D2A10480  29.138  22.932   8.250
 4974POPC   C3A10481  29.173  22.907   7.950
 4974POPC   C4A10482  29.098  22.949   7.650
 4974POPC   C1B10483  29.242  22.672   8.550
 4974POPC   C2B10484  29.252  22.671   8.250
 4974POPC   C3B10485  29.252  22.666   7.950
 4974POPC   C4B10486  29.254  22.685   7.650
 4975POPC   NC310487  32.257   3.537   9.450
 4975POPC   PO410488  32.236   3.533   9.150
 4975POPC   GL110489  32.223   3.519   8.850
 4975POPC   GL210490  32.225   3.616   8.850
 4975POPC   C1A10491  32.261   3.578   8.550
 4975POPC   D2A10492  32.253   3.570   8.250
 4975POPC   C3A10493  32.258   3.569   7.950
 4975POPC   C4A10494  32.286   3.513   7.650
 4975POPC   C1B10495  32.217   3.776   8.550
 4975POPC   C2B10496  32.188   3.764   8.250
 4975POPC   C3B10497  32.122   3.827   7.950
 4975POPC   C4B10498  32.168   3.792   7.650
 4976POPC   NC310499   5.103  10.475   9.450
 4976POPC   PO410500   5.120  10.506   9.150
 4976POPC   GL110501   5.124  10.512   8.850
 4976POPC   GL210502   5.214  10.486   8.850
 4976POPC   C1A10503   5.072  10.477   8.550
 4976POPC   D2A10504   5.135  10.475   8.250
 4976POPC   C3A10505   5.073  10.554   7.950
 4976POPC   C4A10506   5.133  10.520   7.650
 4976POPC   C1B10507   5.339  10.434   8.550
 4976POPC   C2B10508   5.308  10.412   8.250
 4976POPC   C3B10509   5.272  10.367   7.950
 4976POPC   C4B10510   5.305  10.426   7.650
 4977POPC   NC310511   5.089  13.579   9.450
 4977POPC   PO410512   5.069  13.601   9.150
 4977POPC   GL110513   5.053  13.625   8.850
 4977POPC   GL210514   5.238  13.633   8.850
 4977POPC   C1A10515   5.106  13.626   8.550
 4977POPC   D2A10516   5.118  13.578   8.250
 4977POPC   C3A10517   5.099  13.608   7.950
 4977POPC   C4A10518   5.082  13.609   7.650
 4977POPC   C1B10519   5.357  13.733   8.550
 4977POPC   C2B10520   5.327  13.687   8.250
 4977POPC   C3B10521   5.346  13.779   7.950
 4977POPC   C4B10522   5.290  13.732   7.650
 4978POPC   NC310523   3.583  43.123   9.450
 4978POPC   PO410524   3.523  43.148   9.150
 4978POPC   GL110525   3.547  43.147   8.850
 4978POPC   GL210526   3.448  43.113   8.850
 4978POPC   C1A10527   3.583  43.112   8.550
 4978POPC   D2A10528   3.562  43.095   8.250
 4978POPC   C3A10529   3.530  43.120   7.950
 4978POPC   C4A10530   3.541  43.080   7.650
 4978POPC   C1B10531   3.303  43.158   8.550
 4978POPC   C2B10532   3.342  43.157   8.250
 4978POPC   C3B10533   3.264  43.146   7.950
 4978POPC   C4B10534   3.325  43.107   7.650
 4979POPC   NC310535  30.700  29.928   9.450
 4979POPC   PO410536  30.718  29.937   9.150
 4979POPC   GL110537  30.684  29.923   8.850
 4979POPC   GL210538  30.861  29.900   8.850
 4979POPC   C1A10539  30.678  29.955   8.550
 4979POPC   D2A10540  30.738  29.967   8.250
 4979POPC   C3A10541  30.658  29.882   7.950
 4979POPC   C4A10542  30.650  29.895   7.650
 4979POPC   C1B10543  30.945  29.936   8.550
 4979POPC   C2B10544  30.961  29.961   8.250
 4979POPC   C3B10545  30.909  29.917   7.950
 4979POPC   C4B10546  30.959  29.886   7.650
 4980POPC   NC310547  30.726   2.029   9.450
 4980POPC   PO410548  30.739   2.010   9.150
 4980POPC   GL110549  30.691   1.996   8.850
 4980POPC   GL210550  30.590   1.946   8.850
 4980POPC   C1A10551  30.670   1.950   8.550
 4980POPC   D2A10552  30.668   1.961   8.250
 4980POPC   C3A10553  30.688   1.947   7.950
 4980POPC   C4A10554  30.684   1.973   7.650
 4980POPC   C1B10555  30.448   1.845   8.550
 4980POPC   C2B10556  30.525   1.825   8.250
 4980POPC   C3B10557  30.445   1.882   7.950
 4980POPC   C4B10558  30.461   1.836   7.650
 4981POPC   NC310559  27.630   8.206   9.450
 4981POPC   PO410560  27.578   8.239   9.150
 4981POPC   GL110561  27.607   8.239   8.850
 4981POPC   GL210562  27.480   8.237   8.850
 4981POPC   C1A10563  27.626   8.204   8.550
 4981POPC   D2A10564  27.639   8.180   8.250
 4981POPC   C3A10565  27.610   8.161   7.950
 4981POPC   C4A10566  27.633   8.158   7.650
 4981POPC   C1B10567  27.324   8.176   8.550
 4981POPC   C2B10568  27.303   8.248   8.250
 4981POPC   C3B10569  27.301   8.217   7.950
 4981POPC   C4B10570  27.328   8.227   7.650
 4982POPC   NC310571  39.222  13.664   9.450
 4982POPC   PO410572  39.266  13.604   9.150
 4982POPC   GL110573  39.229  13.622   8.850
 4982POPC   GL210574  39.246  13.774   8.850
 4982POPC   C1A10575  39.206  13.644   8.550
 4982POPC   D2A10576  39.251  13.630   8.250
 4982POPC   C3A10577  39.249  13.613   7.950
 4982POPC   C4A10578  39.240  13.604   7.650
 4982POPC   C1B10579  39.165  13.874   8.550
 4982POPC   C2B10580  39.199  13.889   8.250
 4982POPC   C3B10581  39.163  13.825   7.950
 4982POPC   C4B10582  39.157  13.886   7.650
 4983POPC   NC310583  44.640  43.885   9.450
 4983POPC   PO410584  44.705  43.911   9.150
 4983POPC   GL110585  44.628  43.855   8.850
 4983POPC   GL210586  44.672  44.052   8.850
 4983POPC   C1A10587  44.631  43.933   8.550
 4983POPC   D2A10588  44.662  43.935   8.250
 4983POPC   C3A10589  44.698  43.910   7.950
 4983POPC   C4A10590  44.658  43.865   7.650
 4983POPC   C1B10591  44.712  44.129   8.550
 4983POPC   C2B10592  44.710  44.147   8.250
 4983POPC   C3B10593  44.629  44.106   7.950
 4983POPC   C4B10594  44.642  44.137   7.650
 4984POPC   NC310595   6.681  16.004   9.450
 4984POPC   PO410596   6.607  15.970   9.150
 4984POPC   GL110597   6.629  15.929   8.850
 4984POPC   GL210598   6.604  16.082   8.850
 4984POPC   C1A10599   6.641  15.919   8.550
 4984POPC   D2A10600   6.640  15.949   8.250
 4984POPC   C3A10601   6.681  15.926   7.950
 4984POPC   C4A10602   6.690  15.933   7.650
 4984POPC   C1B10603   6.560  16.153   8.550
 4984POPC   C2B10604   6.558  16.207   8.250
 4984POPC   C3B10605   6.569  16.213   7.950
 4984POPC   C4B10606   6.633  16.249   7.650
 4985POPC   NC310607  19.842  24.506   9.450
 4985POPC   PO410608  19.799  24.458   9.150
 4985POPC   GL110609  19.825  24.485   8.850
 4985POPC   GL210610  19.811  24.386   8.850
 4985POPC   C1A10611  19.810  24.505   8.550
 4985POPC   D2A10612  19.840  24.489   8.250
 4985POPC   C3A10613  19.857  24.460   7.950
 4985POPC   C4A10614  19.843  24.495   7.650
 4985POPC   C1B10615  19.720  24.272   8.550
 4985POPC   C2B10616  19.736  24.245   8.250
 4985POPC   C3B10617  19.746  24.278   7.950
 4985POPC   C4B10618  19.701  24.243   7.650
 4986POPC   NC310619   9.771  24.532   9.450
 4986POPC   PO410620   9.747  24.444   9.150
 4986POPC   GL110621   9.757  24.456   8.850
 4986POPC   GL210622   9.667  24.498   8.850
 4986POPC   C1A10623   9.734  24.518   8.550
 4986POPC   D2A10624   9.733  24.451   8.250
 4986POPC   C3A10625   9.767  24.515   7.950
 4986POPC   C4A10626   9.767  24.442   7.650
 4986POPC   C1B10627   9.532  24.590   8.550
 4986POPC   C2B10628   9.531  24.582   8.250
 4986POPC   C3B10629   9.541  24.579   7.950
 4986POPC   C4B10630   9.530  24.537   7.650
 4987POPC   NC310631  15.215   8.953   9.450
 4987POPC   PO410632  15.229   8.993   9.150
 4987POPC   GL110633  15.183   8.969   8.850
 4987POPC   GL210634  15.162   9.107   8.850
 4987POPC   C1A10635  15.223   8.987   8.550
 4987POPC   D2A10636  15.151   8.946   8.250
 4987POPC   C3A10637  15.171   8.963   7.950
 4987POPC   C4A10638  15.218   8.948   7.650
 4987POPC   C1B10639  15.136   9.253   8.550
 4987POPC   C2B10640  15.187   9.197   8.250
 4987POPC   C3B10641  15.156   9.211   7.950
 4987POPC   C4B10642  15.148   9.216   7.650
 4988POPC   NC310643  12.066  15.947   9.450
 4988POPC   PO410644  12.104  15.974   9.150
 4988POPC   GL110645  12.094  15.936   8.850
 4988POPC   GL210646  12.197  16.005   8.850
 4988POPC   C1A10647  12.120  15.923   8.550
 4988POPC   D2A10648  12.051  15.982   8.250
 4988POPC   C3A10649  12.110  15.918   7.950
 4988POPC   C4A10650  12.121  15.930   7.650
 4988POPC   C1B10651  12.278  16.188   8.550
 4988POPC   C2B10652  12.198  16.177   8.250
 4988POPC   C3B10653  12.262  16.186   7.950
 4988POPC   C4B10654  12.208  16.150   7.650
 4989POPC   NC310655  15.921  41.531   9.450
 4989POPC   PO410656  15.921  41.528   9.150
 4989POPC   GL110657  15.907  41.539   8.850
 4989POPC   GL210658  16.111  41.548   8.850
 4989POPC   C1A10659  15.927  41.560   8.550
 4989POPC   D2A10660  15.963  41.552   8.250
 4989POPC   C3A10661  15.951  41.529   7.950
 4989POPC   C4A10662  15.912  41.540   7.650
 4989POPC   C1B10663  16.160  41.608   8.550
 4989POPC   C2B10664  16.177  41.583   8.250
 4989POPC   C3B10665  16.225  41.643   7.950
 4989POPC   C4B10666  16.173  41.572   7.650
 4990POPC   NC310667  33.754  22.181   9.450
 4990POPC   PO410668  33.822  22.211   9.150
 4990POPC   GL110669  33.773  22.113   8.850
 4990POPC   GL210670  33.892  22.234   8.850
 4990POPC   C1A10671  33.771  22.112   8.550
 4990POPC   D2A10672  33.838  22.152   8.250
 4990POPC   C3A10673  33.767  22.118   7.950
 4990POPC   C4A10674  33.774  22.136   7.650
 4990POPC   C1B10675  34.035  22.257   8.550
 4990POPC   C2B10676  33.991  22.260   8.250
 4990POPC   C3B10677  33.987  22.238   7.950
 4990POPC   C4B10678  34.014  22.229   7.650
 4991POPC   NC310679  12.066  43.917   9.450
 4991POPC   PO410680  12.074  43.899   9.150
 4991POPC   GL110681  12.050  43.933   8.850
 4991POPC   GL210682  12.108  44.045   8.850
 4991POPC   C1A10683  12.123  43.926   8.550
 4991POPC   D2A10684  12.030  43.914   8.250
 4991POPC   C3A10685  12.062  43.884   7.950
 4991POPC   C4A10686  12.094  43.879   7.650
 4991POPC   C1B10687  12.246  44.133   8.550
 4991POPC   C2B10688  12.244  44.131   8.250
 4991POPC   C3B10689  12.197  44.132   7.950
 4991POPC   C4B10690  12.224  44.087   7.650
 4992POPC   NC310691  39.250  25.281   9.450
 4992POPC   PO410692  39.258  25.287   9.150
 4992POPC   GL110693  39.227  25.219   8.850
 4992POPC   GL210694  39.233  25.437   8.850
 4992POPC   C1A10695  39.196  25.246   8.550
 4992POPC   D2A10696  39.236  25.259   8.250
 4992POPC   C3A10697  39.278  25.259   7.950
 4992POPC   C4A10698  39.259  25.262   7.650
 4992POPC   C1B10699  39.212  25.466   8.550
 4992POPC   C2B10700  39.172  25.472   8.250
 4992POPC   C3B10701  39.141  25.470   7.950
 4992POPC   C4B10702  39.184  25.486   7.650
 4993POPC   NC310703  43.890  19.821   9.450
 4993POPC   PO410704  43.875  19.816   9.150
 4993POPC   GL110705  43.929  19.843   8.850
 4993POPC   GL210706  43.771  19.721   8.850
 4993POPC   C1A10707  43.855  19.823   8.550
 4993POPC   D2A10708  43.894  19.832   8.250
 4993POPC   C3A10709  43.850  19.795   7.950
 4993POPC   C4A10710  43.895  19.822   7.650
 4993POPC   C1B10711  43.688  19.703   8.550
 4993POPC   C2B10712  43.647  19.718   8.250
 4993POPC   C3B10713  43.738  19.701   7.950
 4993POPC   C4B10714  43.667  19.683   7.650
 4994POPC   NC310715   2.750  14.378   9.450
 4994POPC   PO410716   2.778  14.403   9.150
 4994POPC   GL110717   2.725  14.377   8.850
 4994POPC   GL210718   2.796  14.323   8.850
 4994POPC   C1A10719   2.765  14.404   8.550
 4994POPC   D2A10720   2.800  14.402   8.250
 4994POPC   C3A10721   2.783  14.391   7.950
 4994POPC   C4A10722   2.745  14.383   7.650
 4994POPC   C1B10723   2.809  14.113   8.550
 4994POPC   C2B10724   2.787  14.152   8.250
 4994POPC   C3B10725   2.780  14.135   7.950
 4994POPC   C4B10726   2.759  14.197   7.650
 4995POPC   NC310727  35.352  34.553   9.450
 4995POPC   PO410728  35.334  34.535   9.150
 4995POPC   GL110729  35.372  34.602   8.850
 4995POPC   GL210730  35.223  34.647   8.850
 4995POPC   C1A10731  35.353  34.605   8.550
 4995POPC   D2A10732  35.360  34.584   8.250
 4995POPC   C3A10733  35.383  34.532   7.950
 4995POPC   C4A10734  35.319  34.617   7.650
 4995POPC   C1B10735  35.157  34.739   8.550
 4995POPC   C2B10736  35.110  34.685   8.250
 4995POPC   C3B10737  35.115  34.727   7.950
 4995POPC   C4B10738  35.180  34.683   7.650
 4996POPC   NC310739   8.190  36.099   9.450
 4996POPC   PO410740   8.181  36.122   9.150
 4996POPC   GL110741   8.181  36.125   8.850
 4996POPC   GL210742   8.218  35.961   8.850
 4996POPC   C1A10743   8.229  36.157   8.550
 4996POPC   D2A10744   8.232  36.149   8.250
 4996POPC   C3A10745   8.174  36.177   7.950
 4996POPC   C4A10746   8.148  36.111   7.650
 4996POPC   C1B10747   8.165  35.841   8.550
 4996POPC   C2B10748   8.168  35.863   8.250
 4996POPC   C3B10749   8.125  35.872   7.950
 4996POPC   C4B10750   8.197  35.907   7.650
 4997POPC   NC310751  11.296  36.091   9.450
 4997POPC   PO410752  11.317  36.101   9.150
 4997POPC   GL110753  11.302  36.097   8.850
 4997POPC   GL210754  11.262  36.250   8.850
 4997POPC   C1A10755  11.308  36.115   8.550
 4997POPC   D2A10756  11.265  36.096   8.250
 4997POPC   C3A10757  11.303  36.099   7.950
 4997POPC   C4A10758  11.291  36.144   7.650
 4997POPC   C1B10759  11.229  36.351   8.550
 4997POPC   C2B10760  11.223  36.309   8.250
 4997POPC   C3B10761  11.189  36.403   7.950
 4997POPC   C4B10762  11.230  36.366   7.650
 4998POPC   NC310763  41.545  16.691   9.450
 4998POPC   PO410764  41.561  16.760   9.150
 4998POPC   GL110765  41.605  16.706   8.850
 4998POPC   GL210766  41.688  16.715   8.850
 4998POPC   C1A10767  41.601  16.702   8.550
 4998POPC   D2A10768  41.586  16.736   8.250
 4998POPC   C3A10769  41.530  16.762   7.950
 4998POPC   C4A10770  41.552  16.739   7.650
 4998POPC   C1B10771  41.735  16.579   8.550
 4998POPC   C2B10772  41.751  16.588   8.250
 4998POPC   C3B10773  41.818  16.584   7.950
 4998POPC   C4B10774  41.756  16.625   7.650
 4999POPC   NC310775   5.119   2.803   9.450
 4999POPC   PO410776   5.065   2.728   9.150
 4999POPC   GL110777   5.048   2.810   8.850
 4999POPC   GL210778   5.012   2.789   8.850
 4999POPC   C1A10779   5.079   2.798   8.550
 4999POPC   D2A10780   5.059   2.726   8.250
 4999POPC   C3A10781   5.109   2.783   7.950
 4999POPC   C4A10782   5.100   2.790   7.650
 4999POPC   C1B10783   4.824   2.824   8.550
 4999POPC   C2B10784   4.840   2.806   8.250
 4999POPC   C3B10785   4.868   2.829   7.950
 4999POPC   C4B10786   4.851   2.879   7.650
 5000POPC   NC310787   8.227  33.774   9.450
 5000POPC   PO410788   8.213  33.797   9.150
 5000POPC   GL110789   8.194  33.755   8.850
 5000POPC   GL210790   8.035  33.887   8.850
 5000POPC   C1A10791   8.169  33.844   8.550
 5000POPC   D2A10792   8.224  33.814   8.250
 5000POPC   C3A10793   8.192  33.791   7.950
 5000POPC   C4A10794   8.182  33.755   7.650
 5000POPC   C1B10795   7.934  33.926   8.550
 5000POPC   C2B10796   8.005  33.933   8.250
 5000POPC   C3B10797   7.984  33.877   7.950
 5000POPC   C4B10798   8.008  33.890   7.650
 5001POPC   NC310799   7.428  29.150   9.450
 5001POPC   PO410800   7.419  29.101   9.150
 5001POPC   GL110801   7.435  29.119   8.850
 5001POPC   GL210802   7.526  29.077   8.850
 5001POPC   C1A10803   7.401  29.168   8.550
 5001POPC   D2A10804   7.456  29.187   8.250
 5001POPC   C3A10805   7.409  29.098   7.950
 5001POPC   C4A10806   7.380  29.114   7.650
 5001POPC   C1B10807   7.579  29.023   8.550
 5001POPC   C2B10808   7.661  28.974   8.250
 5001POPC   C3B10809   7.609  29.032   7.950
 5001POPC   C4B10810   7.655  29.009   7.650
 5002POPC   NC310811  32.242  27.559   9.450
 5002POPC   PO410812  32.208  27.639   9.150
 5002POPC   GL110813  32.237  27.619   8.850
 5002POPC   GL210814  32.115  27.482   8.850
 5002POPC   C1A10815  32.268  27.636   8.550
 5002POPC   D2A10816  32.205  27.638   8.250
 5002POPC   C3A10817  32.276  27.553   7.950
 5002POPC   C4A10818  32.261  27.616   7.650
 5002POPC   C1B10819  32.042  27.453   8.550
 5002POPC   C2B10820  32.050  27.516   8.250
 5002POPC   C3B10821  31.986  27.471   7.950
 5002POPC   C4B10822  32.030  27.434   7.650
 5003POPC   NC310823  39.198  26.077   9.450
 5003POPC   PO410824  39.229  25.996   9.150
 5003POPC   GL110825  39.255  26.007   8.850
 5003POPC   GL210826  39.096  26.141   8.850
 5003POPC   C1A10827  39.190  26.081   8.550
 5003POPC   D2A10828  39.187  26.056   8.250
 5003POPC   C3A10829  39.223  26.008   7.950
 5003POPC   C4A10830  39.254  26.028   7.650
 5003POPC   C1B10831  39.001  26.168   8.550
 5003POPC   C2B10832  39.034  26.235   8.250
 5003POPC   C3B10833  39.016  26.229   7.950
 5003POPC   C4B10834  39.077  26.230   7.650
 5004POPC   NC310835  42.331  20.607   9.450
 5004POPC   PO410836  42.346  20.584   9.150
 5004POPC   GL110837  42.331  20.593   8.850
 5004POPC   GL210838  42.429  20.633   8.850
 5004POPC   C1A10839  42.298  20.605   8.550
 5004POPC   D2A10840  42.330  20.632   8.250
 5004POPC   C3A10841  42.383  20.569   7.950
 5004POPC   C4A10842  42.360  20.628   7.650
 5004POPC   C1B10843  42.556  20.643   8.550
 5004POPC   C2B10844  42.589  20.631   8.250
 5004POPC   C3B10845  42.564  20.647   7.950
 5004POPC   C4B10846  42.549  20.581   7.650
 5005POPC   NC310847  27.587   7.432   9.450
 5005POPC   PO410848  27.577   7.377   9.150
 5005POPC   GL110849  27.581   7.457   8.850
 5005POPC   GL210850  27.665   7.460   8.850
 5005POPC   C1A10851  27.613   7.431   8.550
 5005POPC   D2A10852  27.597   7.461   8.250
 5005POPC   C3A10853  27.634   7.397   7.950
 5005POPC   C4A10854  27.642   7.442   7.650
 5005POPC   C1B10855  27.755   7.619   8.550
 5005POPC   C2B10856  27.765   7.586   8.250
 5005POPC   C3B10857  27.796   7.552   7.950
 5005POPC   C4B10858  27.742   7.597   7.650
 5006POPC   NC310859  24.446   3.513   9.450
 5006POPC   PO410860  24.499   3.553   9.150
 5006POPC   GL110861  24.474   3.587   8.850
 5006POPC   GL210862  24.557   3.612   8.850
 5006POPC   C1A10863  24.483   3.548   8.550
 5006POPC   D2A10864  24.525   3.515   8.250
 5006POPC   C3A10865  24.454   3.567   7.950
 5006POPC   C4A10866  24.536   3.586   7.650
 5006POPC   C1B10867  24.704   3.664   8.550
 5006POPC   C2B10868  24.659   3.637   8.250
 5006POPC   C3B10869  24.740   3.711   7.950
 5006POPC   C4B10870  24.682   3.710   7.650
 5007POPC   NC310871   7.401  38.425   9.450
 5007POPC   PO410872   7.406  38.495   9.150
 5007POPC   GL110873   7.450  38.496   8.850
 5007POPC   GL210874   7.290  38.440   8.850
 5007POPC   C1A10875   7.461  38.447   8.550
 5007POPC   D2A10876   7.422  38.470   8.250
 5007POPC   C3A10877   7.443  38.504   7.950
 5007POPC   C4A10878   7.441  38.474   7.650
 5007POPC   C1B10879   7.223  38.401   8.550
 5007POPC   C2B10880   7.193  38.330   8.250
 5007POPC   C3B10881   7.197  38.356   7.950
 5007POPC   C4B10882   7.187  38.382   7.650
 5008POPC   NC310883  36.119  22.899   9.450
 5008POPC   PO410884  36.135  22.919   9.150
 5008POPC   GL110885  36.156  22.983   8.850
 5008POPC   GL210886  36.191  22.813   8.850
 5008POPC   C1A10887  36.122  22.904   8.550
 5008POPC   D2A10888  36.106  22.973   8.250
 5008POPC   C3A10889  36.125  22.969   7.950
 5008POPC   C4A10890  36.102  22.965   7.650
 5008POPC   C1B10891  36.292  22.834   8.550
 5008POPC   C2B10892  36.285  22.749   8.250
 5008POPC   C3B10893  36.323  22.740   7.950
 5008POPC   C4B10894  36.303  22.806   7.650
 5009POPC   NC310895  14.403  21.339   9.450
 5009POPC   PO410896  14.407  21.373   9.150
 5009POPC   GL110897  14.441  21.371   8.850
 5009POPC   GL210898  14.460  21.461   8.850
 5009POPC   C1A10899  14.440  21.361   8.550
 5009POPC   D2A10900  14.413  21.358   8.250
 5009POPC   C3A10901  14.451  21.359   7.950
 5009POPC   C4A10902  14.445  21.399   7.650
 5009POPC   C1B10903  14.613  21.512   8.550
 5009POPC   C2B10904  14.551  21.529   8.250
 5009POPC   C3B10905  14.562  21.570   7.950
 5009POPC   C4B10906  14.538  21.542   7.650
 5010POPC   NC310907  26.043  43.923   9.450
 5010POPC   PO410908  26.037  43.901   9.150
 5010POPC   GL110909  25.998  43.888   8.850
 5010POPC   GL210910  25.964  44.008   8.850
 5010POPC   C1A10911  26.079  43.838   8.550
 5010POPC   D2A10912  26.063  43.934   8.250
 5010POPC   C3A10913  26.000  43.892   7.950
 5010POPC   C4A10914  26.044  43.892   7.650
 5010POPC   C1B10915  25.854  44.111   8.550
 5010POPC   C2B10916  25.908  44.029   8.250
 5010POPC   C3B10917  25.874  44.091   7.950
 5010POPC   C4B10918  25.913  44.054   7.650
 5011POPC   NC310919   6.676   7.423   9.450
 5011POPC   PO410920   6.691   7.464   9.150
 5011POPC   GL110921   6.618   7.384   8.850
 5011POPC   GL210922   6.715   7.545   8.850
 5011POPC   C1A10923   6.694   7.446   8.550
 5011POPC   D2A10924   6.637   7.444   8.250
 5011POPC   C3A10925   6.624   7.432   7.950
 5011POPC   C4A10926   6.610   7.421   7.650
 5011POPC   C1B10927   6.774   7.609   8.550
 5011POPC   C2B10928   6.770   7.609   8.250
 5011POPC   C3B10929   6.741   7.682   7.950
 5011POPC   C4B10930   6.777   7.638   7.650
 5012POPC   NC310931  34.602   1.252   9.450
 5012POPC   PO410932  34.582   1.165   9.150
 5012POPC   GL110933  34.564   1.185   8.850
 5012POPC   GL210934  34.705   1.155   8.850
 5012POPC   C1A10935  34.625   1.251   8.550
 5012POPC   D2A10936  34.548   1.236   8.250
 5012POPC   C3A10937  34.581   1.189   7.950
 5012POPC   C4A10938  34.564   1.219   7.650
 5012POPC   C1B10939  34.844   1.155   8.550
 5012POPC   C2B10940  34.830   1.109   8.250
 5012POPC   C3B10941  34.791   1.114   7.950
 5012POPC   C4B10942  34.814   1.070   7.650
 5013POPC   NC310943   0.479  18.301   9.450
 5013POPC   PO410944   0.449  18.273   9.150
 5013POPC   GL110945   0.389  18.250   8.850
 5013POPC   GL210946   0.404  18.144   8.850
 5013POPC   C1A10947   0.453  18.252   8.550
 5013POPC   D2A10948   0.472  18.324   8.250
 5013POPC   C3A10949   0.483  18.291   7.950
 5013POPC   C4A10950   0.427  18.274   7.650
 5013POPC   C1B10951   0.369  18.053   8.550
 5013POPC   C2B10952   0.346  17.999   8.250
 5013POPC   C3B10953   0.356  18.016   7.950
 5013POPC   C4B10954   0.419  18.040   7.650
 5014POPC   NC310955  43.155   2.798   9.450
 5014POPC   PO410956  43.140   2.744   9.150
 5014POPC   GL110957  43.099   2.791   8.850
 5014POPC   GL210958  43.189   2.858   8.850
 5014POPC   C1A10959  43.149   2.813   8.550
 5014POPC   D2A10960  43.119   2.781   8.250
 5014POPC   C3A10961  43.085   2.777   7.950
 5014POPC   C4A10962  43.063   2.779   7.650
 5014POPC   C1B10963  43.256   2.998   8.550
 5014POPC   C2B10964  43.236   2.994   8.250
 5014POPC   C3B10965  43.262   2.959   7.950
 5014POPC   C4B10966  43.261   2.960   7.650
 5015POPC   NC310967  36.890  16.726   9.450
 5015POPC   PO410968  36.949  16.686   9.150
 5015POPC   GL110969  36.934  16.723   8.850
 5015POPC   GL210970  36.912  16.651   8.850
 5015POPC   C1A10971  36.929  16.700   8.550
 5015POPC   D2A10972  36.854  16.751   8.250
 5015POPC   C3A10973  36.905  16.738   7.950
 5015POPC   C4A10974  36.937  16.704   7.650
 5015POPC   C1B10975  37.028  16.521   8.550
 5015POPC   C2B10976  36.991  16.506   8.250
 5015POPC   C3B10977  36.991  16.520   7.950
 5015POPC   C4B10978  36.962  16.514   7.650
 5016POPC   NC310979  26.091  23.703   9.450
 5016POPC   PO410980  26.040  23.705   9.150
 5016POPC   GL110981  25.992  23.747   8.850
 5016POPC   GL210982  25.949  23.751   8.850
 5016POPC   C1A10983  26.052  23.671   8.550
 5016POPC   D2A10984  26.076  23.707   8.250
 5016POPC   C3A10985  26.042  23.684   7.950
 5016POPC   C4A10986  26.040  23.712   7.650
 5016POPC   C1B10987  25.831  23.816   8.550
 5016POPC   C2B10988  25.798  23.782   8.250
 5016POPC   C3B10989  25.841  23.751   7.950
 5016POPC   C4B10990  25.808  23.814   7.650
 5017POPC   NC310991  12.891   5.056   9.450
 5017POPC   PO410992  12.873   5.140   9.150
 5017POPC   GL110993  12.884   5.128   8.850
 5017POPC   GL210994  12.786   5.216   8.850
 5017POPC   C1A10995  12.829   5.103   8.550
 5017POPC   D2A10996  12.874   5.094   8.250
 5017POPC   C3A10997  12.842   5.123   7.950
 5017POPC   C4A10998  12.823   5.071   7.650
 5017POPC   C1B10999  12.725   5.257   8.550
 5017POPC   C2B11000  12.762   5.304   8.250
 5017POPC   C3B11001  12.732   5.304   7.950
 5017POPC   C4B11002  12.677   5.260   7.650
 5018POPC   NC311003   1.239  23.714   9.450
 5018POPC   PO411004   1.232  23.676   9.150
 5018POPC   GL111005   1.197  23.729   8.850
 5018POPC   GL211006   1.156  23.808   8.850
 5018POPC   C1A11007   1.212  23.704   8.550
 5018POPC   D2A11008   1.228  23.736   8.250
 5018POPC   C3A11009   1.234  23.758   7.950
 5018POPC   C4A11010   1.165  23.699   7.650
 5018POPC   C1B11011   1.068  23.959   8.550
 5018POPC   C2B11012   1.132  23.937   8.250
 5018POPC   C3B11013   1.152  23.910   7.950
 5018POPC   C4B11014   1.119  23.939   7.650
 5019POPC   NC311015  26.808  18.296   9.450
 5019POPC   PO411016  26.778  18.261   9.150
 5019POPC   GL111017  26.781  18.314   8.850
 5019POPC   GL211018  26.967  18.264   8.850
 5019POPC   C1A11019  26.847  18.283   8.550
 5019POPC   D2A11020  26.806  18.306   8.250
 5019POPC   C3A11021  26.851  18.240   7.950
 5019POPC   C4A11022  26.806  18.269   7.650
 5019POPC   C1B11023  27.088  18.231   8.550
 5019POPC   C2B11024  27.060  18.183   8.250
 5019POPC   C3B11025  27.044  18.206   7.950
 5019POPC   C4B11026  27.039  18.260   7.650
 5020POPC   NC311027  24.467  29.879   9.450
 5020POPC   PO411028  24.505  29.951   9.150
 5020POPC   GL111029  24.500  29.956   8.850
 5020POPC   GL211030  24.582  30.013   8.850
 5020POPC   C1A11031  24.515  29.883   8.550
 5020POPC   D2A11032  24.452  29.899   8.250
 5020POPC   C3A11033  24.473  29.871   7.950
 5020POPC   C4A11034  24.475  29.940   7.650
 5020POPC   C1B11035  24.725  30.042   8.550
 5020POPC   C2B11036  24.716  30.051   8.250
 5020POPC   C3B11037  24.686  30.106   7.950
 5020POPC   C4B11038  24.667  30.113   7.650
 5021POPC   NC311039  32.293  40.822   9.450
 5021POPC   PO411040  32.211  40.805   9.150
 5021POPC   GL111041  32.281  40.772   8.850
 5021POPC   GL211042  32.385  40.791   8.850
 5021POPC   C1A11043  32.261  40.743   8.550
 5021POPC   D2A11044  32.260  40.807   8.250
 5021POPC   C3A11045  32.271  40.746   7.950
 5021POPC   C4A11046  32.295  40.820   7.650
 5021POPC   C1B11047  32.483  40.772   8.550
 5021POPC   C2B11048  32.456  40.750   8.250
 5021POPC   C3B11049  32.479  40.698   7.950
 5021POPC   C4B11050  32.461  40.784   7.650
 5022POPC   NC311051  15.166  36.903   9.450
 5022POPC   PO411052  15.157  36.913   9.150
 5022POPC   GL111053  15.157  36.896   8.850
 5022POPC   GL211054  15.347  36.926   8.850
 5022POPC   C1A11055  15.147  36.900   8.550
 5022POPC   D2A11056  15.191  36.952   8.250
 5022POPC   C3A11057  15.196  36.897   7.950
 5022POPC   C4A11058  15.185  36.938   7.650
 5022POPC   C1B11059  15.458  36.822   8.550
 5022POPC   C2B11060  15.411  36.836   8.250
 5022POPC   C3B11061  15.427  36.890   7.950
 5022POPC   C4B11062  15.377  36.888   7.650
 5023POPC   NC311063  42.332  41.581   9.450
 5023POPC   PO411064  42.356  41.558   9.150
 5023POPC   GL111065  42.321  41.529   8.850
 5023POPC   GL211066  42.406  41.410   8.850
 5023POPC   C1A11067  42.318  41.528   8.550
 5023POPC   D2A11068  42.313  41.509   8.250
 5023POPC   C3A11069  42.336  41.526   7.950
 5023POPC   C4A11070  42.329  41.584   7.650
 5023POPC   C1B11071  42.434  41.355   8.550
 5023POPC   C2B11072  42.463  41.353   8.250
 5023POPC   C3B11073  42.463  41.371   7.950
 5023POPC   C4B11074  42.460  41.378   7.650
 5024POPC   NC311075   5.881  34.542   9.450
 5024POPC   PO411076   5.914  34.603   9.150
 5024POPC   GL111077   5.837  34.558   8.850
 5024POPC   GL211078   6.001  34.675   8.850
 5024POPC   C1A11079   5.860  34.624   8.550
 5024POPC   D2A11080   5.901  34.602   8.250
 5024POPC   C3A11081   5.912  34.581   7.950
 5024POPC   C4A11082   5.899  34.562   7.650
 5024POPC   C1B11083   6.063  34.720   8.550
 5024POPC   C2B11084   6.086  34.723   8.250
 5024POPC   C3B11085   6.025  34.720   7.950
 5024POPC   C4B11086   6.083  34.802   7.650
 5025POPC   NC311087  29.119  19.032   9.450
 5025POPC   PO411088  29.101  19.053   9.150
 5025POPC   GL111089  29.123  19.070   8.850
 5025POPC   GL211090  29.220  19.003   8.850
 5025POPC   C1A11091  29.131  19.103   8.550
 5025POPC   D2A11092  29.113  19.056   8.250
 5025POPC   C3A11093  29.195  19.032   7.950
 5025POPC   C4A11094  29.129  19.058   7.650
 5025POPC   C1B11095  29.421  18.940   8.550
 5025POPC   C2B11096  29.421  18.999   8.250
 5025POPC   C3B11097  29.407  18.999   7.950
 5025POPC   C4B11098  29.412  18.921   7.650
 5026POPC   NC311099  38.476  19.042   9.450
 5026POPC   PO411100  38.436  19.034   9.150
 5026POPC   GL111101  38.462  19.034   8.850
 5026POPC   GL211102  38.422  19.154   8.850
 5026POPC   C1A11103  38.503  19.065   8.550
 5026POPC   D2A11104  38.485  19.042   8.250
 5026POPC   C3A11105  38.427  19.018   7.950
 5026POPC   C4A11106  38.500  19.026   7.650
 5026POPC   C1B11107  38.380  19.344   8.550
 5026POPC   C2B11108  38.393  19.340   8.250
 5026POPC   C3B11109  38.341  19.304   7.950
 5026POPC   C4B11110  38.410  19.329   7.650
 5027POPC   NC311111  43.927   3.540   9.450
 5027POPC   PO411112  43.874   3.529   9.150
 5027POPC   GL111113  43.841   3.531   8.850
 5027POPC   GL211114  43.733   3.544   8.850
 5027POPC   C1A11115  43.934   3.581   8.550
 5027POPC   D2A11116  43.899   3.563   8.250
 5027POPC   C3A11117  43.850   3.540   7.950
 5027POPC   C4A11118  43.849   3.547   7.650
 5027POPC   C1B11119  43.636   3.593   8.550
 5027POPC   C2B11120  43.601   3.521   8.250
 5027POPC   C3B11121  43.679   3.518   7.950
 5027POPC   C4B11122  43.673   3.542   7.650
 5028POPC   NC311123  33.071   8.209   9.450
 5028POPC   PO411124  33.005   8.199   9.150
 5028POPC   GL111125  33.049   8.198   8.850
 5028POPC   GL211126  32.948   8.185   8.850
 5028POPC   C1A11127  33.065   8.246   8.550
 5028POPC   D2A11128  33.027   8.231   8.250
 5028POPC   C3A11129  32.989   8.157   7.950
 5028POPC   C4A11130  32.978   8.212   7.650
 5028POPC   C1B11131  32.746   8.088   8.550
 5028POPC   C2B11132  32.799   8.157   8.250
 5028POPC   C3B11133  32.769   8.167   7.950
 5028POPC   C4B11134  32.806   8.101   7.650
 5029POPC   NC311135   5.075  19.018   9.450
 5029POPC   PO411136   5.093  19.035   9.150
 5029POPC   GL111137   5.055  19.091   8.850
 5029POPC   GL211138   5.254  19.063   8.850
 5029POPC   C1A11139   5.093  19.051   8.550
 5029POPC   D2A11140   5.116  19.041   8.250
 5029POPC   C3A11141   5.124  19.094   7.950
 5029POPC   C4A11142   5.122  19.083   7.650
 5029POPC   C1B11143   5.312  18.942   8.550
 5029POPC   C2B11144   5.332  18.998   8.250
 5029POPC   C3B11145   5.323  18.937   7.950
 5029POPC   C4B11146   5.342  18.984   7.650
 5030POPC   NC311147   8.992  20.617   9.450
 5030POPC   PO411148   8.959  20.582   9.150
 5030POPC   GL111149   8.985  20.660   8.850
 5030POPC   GL211150   8.969  20.715   8.850
 5030POPC   C1A11151   8.946  20.653   8.550
 5030POPC   D2A11152   8.988  20.599   8.250
 5030POPC   C3A11153   8.945  20.648   7.950
 5030POPC   C4A11154   9.006  20.568   7.650
 5030POPC   C1B11155   8.986  20.898   8.550
 5030POPC   C2B11156   9.069  20.879   8.250
 5030POPC   C3B11157   9.003  20.812   7.950
 5030POPC   C4B11158   9.046  20.807   7.650
 5031POPC   NC311159  34.531   2.814   9.450
 5031POPC   PO411160  34.568   2.775   9.150
 5031POPC   GL111161  34.621   2.800   8.850
 5031POPC   GL211162  34.649   2.739   8.850
 5031POPC   C1A11163  34.531   2.769   8.550
 5031POPC   D2A11164  34.618   2.752   8.250
 5031POPC   C3A11165  34.561   2.800   7.950
 5031POPC   C4A11166  34.589   2.811   7.650
 5031POPC   C1B11167  34.843   2.655   8.550
 5031POPC   C2B11168  34.854   2.687   8.250
 5031POPC   C3B11169  34.760   2.635   7.950
 5031POPC   C4B11170  34.815   2.652   7.650
 5032POPC   NC311171  19.857  38.414   9.450
 5032POPC   PO411172  19.846  38.412   9.150
 5032POPC   GL111173  19.825  38.478   8.850
 5032POPC   GL211174  19.763  38.607   8.850
 5032POPC   C1A11175  19.801  38.463   8.550
 5032POPC   D2A11176  19.793  38.438   8.250
 5032POPC   C3A11177  19.840  38.431   7.950
 5032POPC   C4A11178  19.820  38.471   7.650
 5032POPC   C1B11179  19.657  38.642   8.550
 5032POPC   C2B11180  19.687  38.635   8.250
 5032POPC   C3B11181  19.695  38.660   7.950
 5032POPC   C4B11182  19.711  38.682   7.650
 5033POPC   NC311183   0.444  19.794   9.450
 5033POPC   PO411184   0.468  19.852   9.150
 5033POPC   GL111185   0.455  19.828   8.850
 5033POPC   GL211186   0.348  19.797   8.850
 5033POPC   C1A11187   0.398  19.798   8.550
 5033POPC   D2A11188   0.400  19.858   8.250
 5033POPC   C3A11189   0.430  19.865   7.950
 5033POPC   C4A11190   0.411  19.792   7.650
 5033POPC   C1B11191   0.213  19.760   8.550
 5033POPC   C2B11192   0.229  19.801   8.250
 5033POPC   C3B11193   0.238  19.808   7.950
 5033POPC   C4B11194   0.227  19.789   7.650
 5034POPC   NC311195  25.219   0.472   9.450
 5034POPC   PO411196  25.275   0.426   9.150
 5034POPC   GL111197  25.229   0.441   8.850
 5034POPC   GL211198  25.173   0.570   8.850
 5034POPC   C1A11199  25.278   0.467   8.550
 5034POPC   D2A11200  25.290   0.432   8.250
 5034POPC   C3A11201  25.262   0.468   7.950
 5034POPC   C4A11202  25.312   0.479   7.650
 5034POPC   C1B11203  25.121   0.695   8.550
 5034POPC   C2B11204  25.133   0.654   8.250
 5034POPC   C3B11205  25.200   0.702   7.950
 5034POPC   C4B11206  25.141   0.644   7.650
 5035POPC   NC311207   2.799  43.904   9.450
 5035POPC   PO411208   2.744  43.865   9.150
 5035POPC   GL111209   2.755  43.863   8.850
 5035POPC   GL211210   2.874  43.926   8.850
 5035POPC   C1A11211   2.753  43.902   8.550
 5035POPC   D2A11212   2.735  43.927   8.250
 5035POPC   C3A11213   2.742  43.843   7.950
 5035POPC   C4A11214   2.811  43.870   7.650
 5035POPC   C1B11215   3.046  43.909   8.550
 5035POPC   C2B11216   3.063  43.884   8.250
 5035POPC   C3B11217   3.001  43.903   7.950
 5035POPC   C4B11218   3.004  43.959   7.650
 5036POPC   NC311219   7.376  39.208   9.450
 5036POPC   PO411220   7.383  39.224   9.150
 5036POPC   GL111221   7.444  39.197   8.850
 5036POPC   GL211222   7.372  39.146   8.850
 5036POPC   C1A11223   7.397  39.204   8.550
 5036POPC   D2A11224   7.455  39.266   8.250
 5036POPC   C3A11225   7.398  39.208   7.950
 5036POPC   C4A11226   7.426  39.218   7.650
 5036POPC   C1B11227   7.355  38.947   8.550
 5036POPC   C2B11228   7.366  38.953   8.250
 5036POPC   C3B11229   7.354  38.966   7.950
 5036POPC   C4B11230   7.337  38.979   7.650
 5037POPC   NC311231  40.780  16.703   9.450
 5037POPC   PO411232  40.789  16.726   9.150
 5037POPC   GL111233  40.782  16.697   8.850
 5037POPC   GL211234  40.735  16.649   8.850
 5037POPC   C1A11235  40.781  16.686   8.550
 5037POPC   D2A11236  40.741  16.691   8.250
 5037POPC   C3A11237  40.776  16.766   7.950
 5037POPC   C4A11238  40.827  16.748   7.650
 5037POPC   C1B11239  40.709  16.482   8.550
 5037POPC   C2B11240  40.698  16.540   8.250
 5037POPC   C3B11241  40.636  16.524   7.950
 5037POPC   C4B11242  40.694  16.527   7.650
 5038POPC   NC311243  22.933  27.614   9.450
 5038POPC   PO411244  22.909  27.577   9.150
 5038POPC   GL111245  22.924  27.614   8.850
 5038POPC   GL211246  22.889  27.480   8.850
 5038POPC   C1A11247  22.927  27.567   8.550
 5038POPC   D2A11248  22.964  27.583   8.250
 5038POPC   C3A11249  22.900  27.606   7.950
 5038POPC   C4A11250  22.906  27.591   7.650
 5038POPC   C1B11251  22.856  27.340   8.550
 5038POPC   C2B11252  22.930  27.356   8.250
 5038POPC   C3B11253  22.835  27.303   7.950
 5038POPC   C4B11254  22.837  27.379   7.650
 5039POPC   NC311255   5.833   3.537   9.450
 5039POPC   PO411256   5.859   3.557   9.150
 5039POPC   GL111257   5.915   3.569   8.850
 5039POPC   GL211258   5.820   3.394   8.850
 5039POPC   C1A11259   5.880   3.553   8.550
 5039POPC   D2A11260   5.887   3.534   8.250
 5039POPC   C3A11261   5.918   3.576   7.950
 5039POPC   C4A11262   5.918   3.572   7.650
 5039POPC   C1B11263   5.687   3.285   8.550
 5039POPC   C2B11264   5.759   3.372   8.250
 5039POPC   C3B11265   5.783   3.330   7.950
 5039POPC   C4B11266   5.692   3.295   7.650
 5040POPC   NC311267   6.657  19.820   9.450
 5040POPC   PO411268   6.680  19.820   9.150
 5040POPC   GL111269   6.654  19.839   8.850
 5040POPC   GL211270   6.611  19.904   8.850
 5040POPC   C1A11271   6.619  19.797   8.550
 5040POPC   D2A11272   6.652  19.844   8.250
 5040POPC   C3A11273   6.665  19.797   7.950
 5040POPC   C4A11274   6.631  19.876   7.650
 5040POPC   C1B11275   6.501  20.058   8.550
 5040POPC   C2B11276   6.544  20.070   8.250
 5040POPC   C3B11277   6.518  20.085   7.950
 5040POPC   C4B11278   6.549  20.104   7.650
 5041POPC   NC311279  43.155  12.867   9.450
 5041POPC   PO411280  43.120  12.883   9.150
 5041POPC   GL111281  43.076  12.886   8.850
 5041POPC   GL211282  43.168  12.731   8.850
 5041POPC   C1A11283  43.104  12.892   8.550
 5041POPC   D2A11284  43.089  12.820   8.250
 5041POPC   C3A11285  43.110  12.869   7.950
 5041POPC   C4A11286  43.089  12.827   7.650
 5041POPC   C1B11287  43.295  12.659   8.550
 5041POPC   C2B11288  43.314  12.704   8.250
 5041POPC   C3B11289  43.333  12.731   7.950
 5041POPC   C4B11290  43.299  12.676   7.650
 5042POPC   NC311291  29.161  27.568   9.450
 5042POPC   PO411292  29.160  27.598   9.150
 5042POPC   GL111293  29.113  27.608   8.850
 5042POPC   GL211294  29.144  27.475   8.850
 5042POPC   C1A11295  29.102  27.612   8.550
 5042POPC   D2A11296  29.108  27.622   8.250
 5042POPC   C3A11297  29.112  27.607   7.950
 5042POPC   C4A11298  29.180  27.583   7.650
 5042POPC   C1B11299  29.175  27.313   8.550
 5042POPC   C2B11300  29.224  27.369   8.250
 5042POPC   C3B11301  29.176  27.343   7.950
 5042POPC   C4B11302  29.186  27.342   7.650
 5043POPC   NC311303  25.993   8.173   9.450
 5043POPC   PO411304  26.017   8.222   9.150
 5043POPC   GL111305  26.091   8.238   8.850
 5043POPC   GL211306  26.135   8.111   8.850
 5043POPC   C1A11307  26.020   8.170   8.550
 5043POPC   D2A11308  26.068   8.229   8.250
 5043POPC   C3A11309  26.043   8.159   7.950
 5043POPC   C4A11310  26.058   8.212   7.650
 5043POPC   C1B11311  26.182   8.005   8.550
 5043POPC   C2B11312  26.210   7.971   8.250
 5043POPC   C3B11313  26.179   8.013   7.950
 5043POPC   C4B11314  26.164   8.044   7.650
 5044POPC   NC311315  41.527   6.693   9.450
 5044POPC   PO411316  41.510   6.668   9.150
 5044POPC   GL111317  41.553   6.680   8.850
 5044POPC   GL211318  41.411   6.602   8.850
 5044POPC   C1A11319  41.514   6.597   8.550
 5044POPC   D2A11320  41.522   6.688   8.250
 5044POPC   C3A11321  41.573   6.599   7.950
 5044POPC   C4A11322  41.537   6.693   7.650
 5044POPC   C1B11323  41.371   6.524   8.550
 5044POPC   C2B11324  41.296   6.587   8.250
 5044POPC   C3B11325  41.339   6.501   7.950
 5044POPC   C4B11326  41.375   6.498   7.650
 5045POPC   NC311327  14.414  22.156   9.450
 5045POPC   PO411328  14.393  22.199   9.150
 5045POPC   GL111329  14.438  22.144   8.850
 5045POPC   GL211330  14.514  22.127   8.850
 5045POPC   C1A11331  14.368  22.130   8.550
 5045POPC   D2A11332  14.395  22.147   8.250
 5045POPC   C3A11333  14.420  22.207   7.950
 5045POPC   C4A11334  14.388  22.151   7.650
 5045POPC   C1B11335  14.629  22.165   8.550
 5045POPC   C2B11336  14.631  22.131   8.250
 5045POPC   C3B11337  14.616  22.176   7.950
 5045POPC   C4B11338  14.662  22.199   7.650
 5046POPC   NC311339  33.820  34.549   9.450
 5046POPC   PO411340  33.777  34.597   9.150
 5046POPC   GL111341  33.834  34.593   8.850
 5046POPC   GL211342  33.729  34.635   8.850
 5046POPC   C1A11343  33.841  34.622   8.550
 5046POPC   D2A11344  33.752  34.541   8.250
 5046POPC   C3A11345  33.776  34.610   7.950
 5046POPC   C4A11346  33.794  34.605   7.650
 5046POPC   C1B11347  33.570  34.669   8.550
 5046POPC   C2B11348  33.571  34.611   8.250
 5046POPC   C3B11349  33.594  34.613   7.950
 5046POPC   C4B11350  33.541  34.625   7.650
 5047POPC   NC311351  15.152  31.434   9.450
 5047POPC   PO411352  15.201  31.452   9.150
 5047POPC   GL111353  15.166  31.473   8.850
 5047POPC   GL211354  15.262  31.357   8.850
 5047POPC   C1A11355  15.160  31.497   8.550
 5047POPC   D2A11356  15.220  31.479   8.250
 5047POPC   C3A11357  15.147  31.459   7.950
 5047POPC   C4A11358  15.159  31.504   7.650
 5047POPC   C1B11359  15.245  31.264   8.550
 5047POPC   C2B11360  15.326  31.263   8.250
 5047POPC   C3B11361  15.242  31.212   7.950
 5047POPC   C4B11362  15.274  31.242   7.650
 5048POPC   NC311363  41.591  14.448   9.450
 5048POPC   PO411364  41.566  14.355   9.150
 5048POPC   GL111365  41.593  14.433   8.850
 5048POPC   GL211366  41.512  14.262   8.850
 5048POPC   C1A11367  41.591  14.356   8.550
 5048POPC   D2A11368  41.521  14.441   8.250
 5048POPC   C3A11369  41.521  14.436   7.950
 5048POPC   C4A11370  41.590  14.433   7.650
 5048POPC   C1B11371  41.497  14.156   8.550
 5048POPC   C2B11372  41.526  14.138   8.250
 5048POPC   C3B11373  41.506  14.190   7.950
 5048POPC   C4B11374  41.532  14.193   7.650
 5049POPC   NC311375  13.580  44.646   9.450
 5049POPC   PO411376  13.639  44.666   9.150
 5049POPC   GL111377  13.619  44.691   8.850
 5049POPC   GL211378  13.651  44.776   8.850
 5049POPC   C1A11379  13.592  44.689   8.550
 5049POPC   D2A11380  13.660  44.684   8.250
 5049POPC   C3A11381  13.596  44.700   7.950
 5049POPC   C4A11382  13.668  44.702   7.650
 5049POPC   C1B11383  13.755  44.938   8.550
 5049POPC   C2B11384  13.735  44.888   8.250
 5049POPC   C3B11385  13.711  44.857   7.950
 5049POPC   C4B11386  13.692  44.855   7.650
 5050POPC   NC311387  44.682  19.848   9.450
 5050POPC   PO411388  44.660  19.830   9.150
 5050POPC   GL111389  44.620  19.808   8.850
 5050POPC   GL211390  44.627  19.917   8.850
 5050POPC   C1A11391  44.711  19.853   8.550
 5050POPC   D2A11392  44.657  19.826   8.250
 5050POPC   C3A11393  44.702  19.883   7.950
 5050POPC   C4A11394  44.690  19.844   7.650
 5050POPC   C1B11395  44.539  20.074   8.550
 5050POPC   C2B11396  44.540  20.031   8.250
 5050POPC   C3B11397  44.523  20.075   7.950
 5050POPC   C4B11398  44.540  20.093   7.650
 5051POPC   NC311399  28.344  39.264   9.450
 5051POPC   PO411400  28.348  39.264   9.150
 5051POPC   GL111401  28.322  39.220   8.850
 5051POPC   GL211402  28.539  39.193   8.850
 5051POPC   C1A11403  28.366  39.253   8.550
 5051POPC   D2A11404  28.350  39.273   8.250
 5051POPC   C3A11405  28.342  39.209   7.950
 5051POPC   C4A11406  28.359  39.190   7.650
 5051POPC   C1B11407  28.629  39.183   8.550
 5051POPC   C2B11408  28.586  39.163   8.250
 5051POPC   C3B11409  28.635  39.167   7.950
 5051POPC   C4B11410  28.568  39.191   7.650
 5052POPC   NC311411  15.949   5.057   9.450
 5052POPC   PO411412  15.925   5.105   9.150
 5052POPC   GL111413  15.962   5.077   8.850
 5052POPC   GL211414  15.934   4.945   8.850
 5052POPC   C1A11415  15.958   5.084   8.550
 5052POPC   D2A11416  15.914   5.085   8.250
 5052POPC   C3A11417  15.959   5.063   7.950
 5052POPC   C4A11418  15.960   5.084   7.650
 5052POPC   C1B11419  15.879   4.803   8.550
 5052POPC   C2B11420  15.885   4.802   8.250
 5052POPC   C3B11421  15.894   4.861   7.950
 5052POPC   C4B11422  15.945   4.816   7.650
 5053POPC   NC311423  41.593  40.781   9.450
 5053POPC   PO411424  41.558  40.823   9.150
 5053POPC   GL111425  41.596  40.785   8.850
 5053POPC   GL211426  41.508  40.908   8.850
 5053POPC   C1A11427  41.587  40.797   8.550
 5053POPC   D2A11428  41.602  40.772   8.250
 5053POPC   C3A11429  41.542  40.808   7.950
 5053POPC   C4A11430  41.550  40.832   7.650
 5053POPC   C1B11431  41.382  40.908   8.550
 5053POPC   C2B11432  41.423  40.943   8.250
 5053POPC   C3B11433  41.398  40.938   7.950
 5053POPC   C4B11434  41.349  40.921   7.650
 5054POPC   NC311435   2.810  24.512   9.450
 5054POPC   PO411436   2.785  24.497   9.150
 5054POPC   GL111437   2.810  24.522   8.850
 5054POPC   GL211438   2.788  24.570   8.850
 5054POPC   C1A11439   2.752  24.508   8.550
 5054POPC   D2A11440   2.720  24.448   8.250
 5054POPC   C3A11441   2.813  24.444   7.950
 5054POPC   C4A11442   2.760  24.445   7.650
 5054POPC   C1B11443   2.785  24.737   8.550
 5054POPC   C2B11444   2.793  24.759   8.250
 5054POPC   C3B11445   2.737  24.768   7.950
 5054POPC   C4B11446   2.795  24.692   7.650
 5055POPC   NC311447  41.548  15.946   9.450
 5055POPC   PO411448  41.554  16.001   9.150
 5055POPC   GL111449  41.518  15.921   8.850
 5055POPC   GL211450  41.699  15.899   8.850
 5055POPC   C1A11451  41.517  15.963   8.550
 5055POPC   D2A11452  41.581  15.961   8.250
 5055POPC   C3A11453  41.561  15.991   7.950
 5055POPC   C4A11454  41.598  15.999   7.650
 5055POPC   C1B11455  41.805  15.878   8.550
 5055POPC   C2B11456  41.847  15.876   8.250
 5055POPC   C3B11457  41.768  15.973   7.950
 5055POPC   C4B11458  41.772  15.924   7.650
 5056POPC   NC311459   7.408  12.819   9.450
 5056POPC   PO411460   7.424  12.883   9.150
 5056POPC   GL111461   7.410  12.809   8.850
 5056POPC   GL211462   7.513  12.736   8.850
 5056POPC   C1A11463   7.456  12.873   8.550
 5056POPC   D2A11464   7.399  12.842   8.250
 5056POPC   C3A11465   7.457  12.850   7.950
 5056POPC   C4A11466   7.389  12.825   7.650
 5056POPC   C1B11467   7.513  12.639   8.550
 5056POPC   C2B11468   7.513  12.577   8.250
 5056POPC   C3B11469   7.498  12.617   7.950
 5056POPC   C4B11470   7.522  12.662   7.650
 5057POPC   NC311471  36.906  24.455   9.450
 5057POPC   PO411472  36.915  24.512   9.150
 5057POPC   GL111473  36.892  24.440   8.850
 5057POPC   GL211474  36.970  24.598   8.850
 5057POPC   C1A11475  36.891  24.536   8.550
 5057POPC   D2A11476  36.889  24.457   8.250
 5057POPC   C3A11477  36.932  24.515   7.950
 5057POPC   C4A11478  36.889  24.476   7.650
 5057POPC   C1B11479  37.092  24.697   8.550
 5057POPC   C2B11480  37.049  24.669   8.250
 5057POPC   C3B11481  37.071  24.676   7.950
 5057POPC   C4B11482  37.094  24.728   7.650
 5058POPC   NC311483  27.577  27.579   9.450
 5058POPC   PO411484  27.555  27.561   9.150
 5058POPC   GL111485  27.591  27.592   8.850
 5058POPC   GL211486  27.503  27.659   8.850
 5058POPC   C1A11487  27.634  27.546   8.550
 5058POPC   D2A11488  27.586  27.633   8.250
 5058POPC   C3A11489  27.574  27.621   7.950
 5058POPC   C4A11490  27.596  27.560   7.650
 5058POPC   C1B11491  27.378  27.645   8.550
 5058POPC   C2B11492  27.322  27.686   8.250
 5058POPC   C3B11493  27.328  27.685   7.950
 5058POPC   C4B11494  27.379  27.599   7.650
 5059POPC   NC311495  27.637  31.490   9.450
 5059POPC   PO411496  27.566  31.515   9.150
 5059POPC   GL111497  27.600  31.442   8.850
 5059POPC   GL211498  27.427  31.459   8.850
 5059POPC   C1A11499  27.620  31.513   8.550
 5059POPC   D2A11500  27.586  31.455   8.250
 5059POPC   C3A11501  27.599  31.513   7.950
 5059POPC   C4A11502  27.561  31.457   7.650
 5059POPC   C1B11503  27.372  31.522   8.550
 5059POPC   C2B11504  27.381  31.524   8.250
 5059POPC   C3B11505  27.371  31.436   7.950
 5059POPC   C4B11506  27.342  31.452   7.650
 5060POPC   NC311507  43.893  36.911   9.450
 5060POPC   PO411508  43.924  36.944   9.150
 5060POPC   GL111509  43.934  36.952   8.850
 5060POPC   GL211510  43.876  36.750   8.850
 5060POPC   C1A11511  43.858  36.870   8.550
 5060POPC   D2A11512  43.914  36.854   8.250
 5060POPC   C3A11513  43.865  36.855   7.950
 5060POPC   C4A11514  43.854  36.908   7.650
 5060POPC   C1B11515  43.786  36.705   8.550
 5060POPC   C2B11516  43.798  36.678   8.250
 5060POPC   C3B11517  43.746  36.684   7.950
 5060POPC   C4B11518  43.744  36.711   7.650
 5061POPC   NC311519  22.905  28.350   9.450
 5061POPC   PO411520  22.909  28.413   9.150
 5061POPC   GL111521  22.933  28.378   8.850
 5061POPC   GL211522  22.815  28.336   8.850
 5061POPC   C1A11523  22.921  28.398   8.550
 5061POPC   D2A11524  22.913  28.414   8.250
 5061POPC   C3A11525  22.913  28.399   7.950
 5061POPC   C4A11526  22.890  28.353   7.650
 5061POPC   C1B11527  22.780  28.258   8.550
 5061POPC   C2B11528  22.750  28.214   8.250
 5061POPC   C3B11529  22.766  28.272   7.950
 5061POPC   C4B11530  22.735  28.266   7.650
 5062POPC   NC311531  43.061  22.179   9.450
 5062POPC   PO411532  43.069  22.206   9.150
 5062POPC   GL111533  43.129  22.153   8.850
 5062POPC   GL211534  43.145  22.278   8.850
 5062POPC   C1A11535  43.138  22.172   8.550
 5062POPC   D2A11536  43.137  22.141   8.250
 5062POPC   C3A11537  43.125  22.209   7.950
 5062POPC   C4A11538  43.100  22.175   7.650
 5062POPC   C1B11539  43.234  22.372   8.550
 5062POPC   C2B11540  43.252  22.362   8.250
 5062POPC   C3B11541  43.250  22.391   7.950
 5062POPC   C4B11542  43.292  22.335   7.650
 5063POPC   NC311543  22.179   3.492   9.450
 5063POPC   PO411544  22.116   3.533   9.150
 5063POPC   GL111545  22.172   3.522   8.850
 5063POPC   GL211546  22.160   3.402   8.850
 5063POPC   C1A11547  22.170   3.561   8.550
 5063POPC   D2A11548  22.117   3.567   8.250
 5063POPC   C3A11549  22.156   3.533   7.950
 5063POPC   C4A11550  22.160   3.493   7.650
 5063POPC   C1B11551  22.183   3.290   8.550
 5063POPC   C2B11552  22.173   3.315   8.250
 5063POPC   C3B11553  22.187   3.315   7.950
 5063POPC   C4B11554  22.216   3.287   7.650
 5064POPC   NC311555  24.482  38.448   9.450
 5064POPC   PO411556  24.471  38.446   9.150
 5064POPC   GL111557  24.472  38.407   8.850
 5064POPC   GL211558  24.631  38.396   8.850
 5064POPC   C1A11559  24.452  38.466   8.550
 5064POPC   D2A11560  24.513  38.478   8.250
 5064POPC   C3A11561  24.464  38.406   7.950
 5064POPC   C4A11562  24.453  38.451   7.650
 5064POPC   C1B11563  24.691  38.280   8.550
 5064POPC   C2B11564  24.662  38.294   8.250
 5064POPC   C3B11565  24.703  38.278   7.950
 5064POPC   C4B11566  24.735  38.315   7.650
 5065POPC   NC311567  17.554   8.963   9.450
 5065POPC   PO411568  17.502   9.006   9.150
 5065POPC   GL111569  17.464   8.964   8.850
 5065POPC   GL211570  17.641   8.941   8.850
 5065POPC   C1A11571  17.475   8.944   8.550
 5065POPC   D2A11572  17.489   8.978   8.250
 5065POPC   C3A11573  17.464   9.019   7.950
 5065POPC   C4A11574  17.524   8.931   7.650
 5065POPC   C1B11575  17.741   8.895   8.550
 5065POPC   C2B11576  17.733   8.862   8.250
 5065POPC   C3B11577  17.702   8.864   7.950
 5065POPC   C4B11578  17.737   8.801   7.650
 5066POPC   NC311579  31.517  36.177   9.450
 5066POPC   PO411580  31.478  36.127   9.150
 5066POPC   GL111581  31.479  36.163   8.850
 5066POPC   GL211582  31.496  36.187   8.850
 5066POPC   C1A11583  31.507  36.103   8.550
 5066POPC   D2A11584  31.521  36.132   8.250
 5066POPC   C3A11585  31.500  36.083   7.950
 5066POPC   C4A11586  31.448  36.145   7.650
 5066POPC   C1B11587  31.647  36.306   8.550
 5066POPC   C2B11588  31.565  36.384   8.250
 5066POPC   C3B11589  31.634  36.309   7.950
 5066POPC   C4B11590  31.560  36.384   7.650
 5067POPC   NC311591  31.462   5.114   9.450
 5067POPC   PO411592  31.438   5.059   9.150
 5067POPC   GL111593  31.520   5.140   8.850
 5067POPC   GL211594  31.541   4.975   8.850
 5067POPC   C1A11595  31.519   5.112   8.550
 5067POPC   D2A11596  31.487   5.047   8.250
 5067POPC   C3A11597  31.495   5.074   7.950
 5067POPC   C4A11598  31.504   5.090   7.650
 5067POPC   C1B11599  31.634   4.919   8.550
 5067POPC   C2B11600  31.692   4.907   8.250
 5067POPC   C3B11601  31.673   4.920   7.950
 5067POPC   C4B11602  31.676   4.977   7.650
 5068POPC   NC311603  43.841  37.653   9.450
 5068POPC   PO411604  43.909  37.690   9.150
 5068POPC   GL111605  43.885  37.701   8.850
 5068POPC   GL211606  43.967  37.741   8.850
 5068POPC   C1A11607  43.867  37.700   8.550
 5068POPC   D2A11608  43.911  37.667   8.250
 5068POPC   C3A11609  43.888  37.692   7.950
 5068POPC   C4A11610  43.923  37.686   7.650
 5068POPC   C1B11611  44.174  37.707   8.550
 5068POPC   C2B11612  44.117  37.738   8.250
 5068POPC   C3B11613  44.112  37.789   7.950
 5068POPC   C4B11614  44.097  37.790   7.650
 5069POPC   NC311615   3.520  29.901   9.450
 5069POPC   PO411616   3.557  29.936   9.150
 5069POPC   GL111617   3.572  29.917   8.850
 5069POPC   GL211618   3.635  30.011   8.850
 5069POPC   C1A11619   3.579  29.968   8.550
 5069POPC   D2A11620   3.570  29.908   8.250
 5069POPC   C3A11621   3.553  29.915   7.950
 5069POPC   C4A11622   3.588  29.969   7.650
 5069POPC   C1B11623   3.705  30.092   8.550
 5069POPC   C2B11624   3.696  30.114   8.250
 5069POPC   C3B11625   3.666  30.077   7.950
 5069POPC   C4B11626   3.649  30.074   7.650
 5070POPC   NC311627  30.662  11.346   9.450
 5070POPC   PO411628  30.677  11.316   9.150
 5070POPC   GL111629  30.702  11.271   8.850
 5070POPC   GL211630  30.794  11.414   8.850
 5070POPC   C1A11631  30.659  11.297   8.550
 5070POPC   D2A11632  30.647  11.314   8.250
 5070POPC   C3A11633  30.664  11.311   7.950
 5070POPC   C4A11634  30.678  11.282   7.650
 5070POPC   C1B11635  30.930  11.481   8.550
 5070POPC   C2B11636  30.859  11.482   8.250
 5070POPC   C3B11637  30.888  11.464   7.950
 5070POPC   C4B11638  30.869  11.499   7.650
 5071POPC   NC311639   7.464   1.187   9.450
 5071POPC   PO411640   7.439   1.229   9.150
 5071POPC   GL111641   7.470   1.217   8.850
 5071POPC   GL211642   7.513   1.133   8.850
 5071POPC   C1A11643   7.374   1.247   8.550
 5071POPC   D2A11644   7.450   1.217   8.250
 5071POPC   C3A11645   7.421   1.235   7.950
 5071POPC   C4A11646   7.423   1.262   7.650
 5071POPC   C1B11647   7.561   0.997   8.550
 5071POPC   C2B11648   7.552   1.027   8.250
 5071POPC   C3B11649   7.505   1.033   7.950
 5071POPC   C4B11650   7.576   0.950   7.650
 5072POPC   NC311651   7.423  20.616   9.450
 5072POPC   PO411652   7.427  20.638   9.150
 5072POPC   GL111653   7.378  20.571   8.850
 5072POPC   GL211654   7.255  20.634   8.850
 5072POPC   C1A11655   7.373  20.565   8.550
 5072POPC   D2A11656   7.416  20.652   8.250
 5072POPC   C3A11657   7.441  20.592   7.950
 5072POPC   C4A11658   7.374  20.587   7.650
 5072POPC   C1B11659   7.150  20.648   8.550
 5072POPC   C2B11660   7.125  20.614   8.250
 5072POPC   C3B11661   7.158  20.597   7.950
 5072POPC   C4B11662   7.205  20.608   7.650
 5073POPC   NC311663  39.218  17.470   9.450
 5073POPC   PO411664  39.272  17.497   9.150
 5073POPC   GL111665  39.254  17.535   8.850
 5073POPC   GL211666  39.129  17.544   8.850
 5073POPC   C1A11667  39.247  17.503   8.550
 5073POPC   D2A11668  39.257  17.514   8.250
 5073POPC   C3A11669  39.191  17.538   7.950
 5073POPC   C4A11670  39.272  17.516   7.650
 5073POPC   C1B11671  38.989  17.671   8.550
 5073POPC   C2B11672  39.043  17.639   8.250
 5073POPC   C3B11673  39.027  17.642   7.950
 5073POPC   C4B11674  39.014  17.618   7.650
 5074POPC   NC311675  24.503  37.727   9.450
 5074POPC   PO411676  24.445  37.685   9.150
 5074POPC   GL111677  24.536  37.728   8.850
 5074POPC   GL211678  24.391  37.665   8.850
 5074POPC   C1A11679  24.447  37.634   8.550
 5074POPC   D2A11680  24.496  37.642   8.250
 5074POPC   C3A11681  24.534  37.687   7.950
 5074POPC   C4A11682  24.523  37.644   7.650
 5074POPC   C1B11683  24.283  37.604   8.550
 5074POPC   C2B11684  24.289  37.637   8.250
 5074POPC   C3B11685  24.214  37.600   7.950
 5074POPC   C4B11686  24.258  37.665   7.650
 5075POPC   NC311687  38.500  39.227   9.450
 5075POPC   PO411688  38.434  39.184   9.150
 5075POPC   GL111689  38.452  39.218   8.850
 5075POPC   GL211690  38.550  39.272   8.850
 5075POPC   C1A11691  38.504  39.218   8.550
 5075POPC   D2A11692  38.448  39.222   8.250
 5075POPC   C3A11693  38.463  39.215   7.950
 5075POPC   C4A11694  38.427  39.235   7.650
 5075POPC   C1B11695  38.652  39.353   8.550
 5075POPC   C2B11696  38.694  39.356   8.250
 5075POPC   C3B11697  38.662  39.342   7.950
 5075POPC   C4B11698  38.609  39.338   7.650
 5076POPC   NC311699  32.223   5.899   9.450
 5076POPC   PO411700  32.244   5.847   9.150
 5076POPC   GL111701  32.227   5.891   8.850
 5076POPC   GL211702  32.190   5.716   8.850
 5076POPC   C1A11703  32.268   5.896   8.550
 5076POPC   D2A11704  32.235   5.887   8.250
 5076POPC   C3A11705  32.267   5.886   7.950
 5076POPC   C4A11706  32.258   5.893   7.650
 5076POPC   C1B11707  32.171   5.660   8.550
 5076POPC   C2B11708  32.172   5.597   8.250
 5076POPC   C3B11709  32.174   5.631   7.950
 5076POPC   C4B11710  32.197   5.684   7.650
 5077POPC   NC311711   2.004  15.922   9.450
 5077POPC   PO411712   1.985  15.923   9.150
 5077POPC   GL111713   1.999  16.002   8.850
 5077POPC   GL211714   1.990  16.104   8.850
 5077POPC   C1A11715   1.953  15.976   8.550
 5077POPC   D2A11716   2.036  15.965   8.250
 5077POPC   C3A11717   1.975  15.927   7.950
 5077POPC   C4A11718   2.029  15.977   7.650
 5077POPC   C1B11719   2.001  16.220   8.550
 5077POPC   C2B11720   1.971  16.191   8.250
 5077POPC   C3B11721   2.031  16.235   7.950
 5077POPC   C4B11722   2.024  16.179   7.650
 5078POPC   NC311723  22.926   0.458   9.450
 5078POPC   PO411724  22.906   0.476   9.150
 5078POPC   GL111725  22.930   0.439   8.850
 5078POPC   GL211726  22.981   0.553   8.850
 5078POPC   C1A11727  22.945   0.483   8.550
 5078POPC   D2A11728  22.976   0.457   8.250
 5078POPC   C3A11729  22.942   0.465   7.950
 5078POPC   C4A11730  22.924   0.455   7.650
 5078POPC   C1B11731  23.049   0.586   8.550
 5078POPC   C2B11732  23.070   0.615   8.250
 5078POPC   C3B11733  23.082   0.671   7.950
 5078POPC   C4B11734  23.120   0.673   7.650
 5079POPC   NC311735  32.290  33.789   9.450
 5079POPC   PO411736  32.293  33.834   9.150
 5079POPC   GL111737  32.228  33.807   8.850
 5079POPC   GL211738  32.122  33.936   8.850
 5079POPC   C1A11739  32.210  33.807   8.550
 5079POPC   D2A11740  32.214  33.794   8.250
 5079POPC   C3A11741  32.295  33.759   7.950
 5079POPC   C4A11742  32.285  33.794   7.650
 5079POPC   C1B11743  32.102  33.948   8.550
 5079POPC   C2B11744  32.043  33.995   8.250
 5079POPC   C3B11745  32.071  33.957   7.950
 5079POPC   C4B11746  32.104  33.967   7.650
 5080POPC   NC311747  15.160  35.400   9.450
 5080POPC   PO411748  15.149  35.372   9.150
 5080POPC   GL111749  15.213  35.325   8.850
 5080POPC   GL211750  15.265  35.363   8.850
 5080POPC   C1A11751  15.156  35.313   8.550
 5080POPC   D2A11752  15.166  35.352   8.250
 5080POPC   C3A11753  15.134  35.363   7.950
 5080POPC   C4A11754  15.185  35.389   7.650
 5080POPC   C1B11755  15.403  35.291   8.550
 5080POPC   C2B11756  15.412  35.313   8.250
 5080POPC   C3B11757  15.425  35.310   7.950
 5080POPC   C4B11758  15.393  35.328   7.650
 5081POPC   NC311759   5.117  34.618   9.450
 5081POPC   PO411760   5.056  34.599   9.150
 5081POPC   GL111761   5.100  34.566   8.850
 5081POPC   GL211762   5.191  34.558   8.850
 5081POPC   C1A11763   5.090  34.542   8.550
 5081POPC   D2A11764   5.103  34.575   8.250
 5081POPC   C3A11765   5.073  34.552   7.950
 5081POPC   C4A11766   5.140  34.570   7.650
 5081POPC   C1B11767   5.339  34.540   8.550
 5081POPC   C2B11768   5.342  34.570   8.250
 5081POPC   C3B11769   5.352  34.545   7.950
 5081POPC   C4B11770   5.374  34.519   7.650
 5082POPC   NC311771  36.083  24.445   9.450
 5082POPC   PO411772  36.083  24.535   9.150
 5082POPC   GL111773  36.091  24.456   8.850
 5082POPC   GL211774  36.000  24.421   8.850
 5082POPC   C1A11775  36.091  24.532   8.550
 5082POPC   D2A11776  36.084  24.468   8.250
 5082POPC   C3A11777  36.141  24.470   7.950
 5082POPC   C4A11778  36.164  24.501   7.650
 5082POPC   C1B11779  35.925  24.325   8.550
 5082POPC   C2B11780  35.985  24.314   8.250
 5082POPC   C3B11781  35.956  24.265   7.950
 5082POPC   C4B11782  35.939  24.275   7.650
 5083POPC   NC311783  24.442   8.241   9.450
 5083POPC   PO411784  24.445   8.169   9.150
 5083POPC   GL111785  24.538   8.173   8.850
 5083POPC   GL211786  24.565   8.128   8.850
 5083POPC   C1A11787  24.449   8.202   8.550
 5083POPC   D2A11788  24.496   8.212   8.250
 5083POPC   C3A11789  24.503   8.178   7.950
 5083POPC   C4A11790  24.478   8.157   7.650
 5083POPC   C1B11791  24.638   7.982   8.550
 5083POPC   C2B11792  24.692   8.022   8.250
 5083POPC   C3B11793  24.655   7.986   7.950
 5083POPC   C4B11794  24.622   7.975   7.650
 5084POPC   NC311795  41.557  34.556   9.450
 5084POPC   PO411796  41.543  34.557   9.150
 5084POPC   GL111797  41.565  34.604   8.850
 5084POPC   GL211798  41.647  34.615   8.850
 5084POPC   C1A11799  41.581  34.616   8.550
 5084POPC   D2A11800  41.576  34.579   8.250
 5084POPC   C3A11801  41.524  34.596   7.950
 5084POPC   C4A11802  41.576  34.620   7.650
 5084POPC   C1B11803  41.776  34.711   8.550
 5084POPC   C2B11804  41.733  34.733   8.250
 5084POPC   C3B11805  41.764  34.764   7.950
 5084POPC   C4B11806  41.720  34.697   7.650
 5085POPC   NC311807  13.586  34.600   9.450
 5085POPC   PO411808  13.586  34.548   9.150
 5085POPC   GL111809  13.638  34.532   8.850
 5085POPC   GL211810  13.678  34.470   8.850
 5085POPC   C1A11811  13.581  34.556   8.550
 5085POPC   D2A11812  13.589  34.606   8.250
 5085POPC   C3A11813  13.625  34.585   7.950
 5085POPC   C4A11814  13.676  34.625   7.650
 5085POPC   C1B11815  13.730  34.341   8.550
 5085POPC   C2B11816  13.708  34.311   8.250
 5085POPC   C3B11817  13.730  34.389   7.950
 5085POPC   C4B11818  13.719  34.307   7.650
 5086POPC   NC311819  12.070  36.925   9.450
 5086POPC   PO411820  12.063  36.949   9.150
 5086POPC   GL111821  12.096  36.928   8.850
 5086POPC   GL211822  12.050  37.077   8.850
 5086POPC   C1A11823  12.073  36.873   8.550
 5086POPC   D2A11824  12.081  36.907   8.250
 5086POPC   C3A11825  12.111  36.873   7.950
 5086POPC   C4A11826  12.112  36.890   7.650
 5086POPC   C1B11827  12.058  37.183   8.550
 5086POPC   C2B11828  12.057  37.159   8.250
 5086POPC   C3B11829  12.144  37.172   7.950
 5086POPC   C4B11830  12.134  37.150   7.650
 5087POPC   NC311831  10.508  39.987   9.450
 5087POPC   PO411832  10.482  39.969   9.150
 5087POPC   GL111833  10.528  40.035   8.850
 5087POPC   GL211834  10.604  40.143   8.850
 5087POPC   C1A11835  10.534  39.985   8.550
 5087POPC   D2A11836  10.531  39.988   8.250
 5087POPC   C3A11837  10.507  39.984   7.950
 5087POPC   C4A11838  10.479  40.043   7.650
 5087POPC   C1B11839  10.566  40.218   8.550
 5087POPC   C2B11840  10.568  40.293   8.250
 5087POPC   C3B11841  10.609  40.257   7.950
 5087POPC   C4B11842  10.550  40.235   7.650
 5088POPC   NC311843  40.785   2.784   9.450
 5088POPC   PO411844  40.809   2.769   9.150
 5088POPC   GL111845  40.777   2.730   8.850
 5088POPC   GL211846  40.849   2.907   8.850
 5088POPC   C1A11847  40.775   2.800   8.550
 5088POPC   D2A11848  40.779   2.724   8.250
 5088POPC   C3A11849  40.819   2.797   7.950
 5088POPC   C4A11850  40.754   2.800   7.650
 5088POPC   C1B11851  40.889   3.051   8.550
 5088POPC   C2B11852  40.896   2.986   8.250
 5088POPC   C3B11853  40.847   2.975   7.950
 5088POPC   C4B11854  40.866   2.959   7.650
 5089POPC   NC311855  39.996  33.072   9.450
 5089POPC   PO411856  39.989  32.992   9.150
 5089POPC   GL111857  40.033  32.988   8.850
 5089POPC   GL211858  39.934  32.965   8.850
 5089POPC   C1A11859  40.018  33.020   8.550
 5089POPC   D2A11860  39.964  32.994   8.250
 5089POPC   C3A11861  39.977  32.986   7.950
 5089POPC   C4A11862  40.025  33.009   7.650
 5089POPC   C1B11863  39.761  32.935   8.550
 5089POPC   C2B11864  39.748  32.909   8.250
 5089POPC   C3B11865  39.777  32.903   7.950
 5089POPC   C4B11866  39.736  32.965   7.650
 5090POPC   NC311867  24.490  32.209   9.450
 5090POPC   PO411868  24.513  32.241   9.150
 5090POPC   GL111869  24.520  32.233   8.850
 5090POPC   GL211870  24.623  32.145   8.850
 5090POPC   C1A11871  24.486  32.261   8.550
 5090POPC   D2A11872  24.520  32.291   8.250
 5090POPC   C3A11873  24.536  32.239   7.950
 5090POPC   C4A11874  24.444  32.245   7.650
 5090POPC   C1B11875  24.663  32.087   8.550
 5090POPC   C2B11876  24.719  32.115   8.250
 5090POPC   C3B11877  24.699  32.155   7.950
 5090POPC   C4B11878  24.665  32.135   7.650
 5091POPC   NC311879  31.505   9.000   9.450
 5091POPC   PO411880  31.477   8.971   9.150
 5091POPC   GL111881  31.485   8.993   8.850
 5091POPC   GL211882  31.332   8.999   8.850
 5091POPC   C1A11883  31.513   8.971   8.550
 5091POPC   D2A11884  31.433   8.994   8.250
 5091POPC   C3A11885  31.480   8.975   7.950
 5091POPC   C4A11886  31.456   8.998   7.650
 5091POPC   C1B11887  31.248   9.103   8.550
 5091POPC   C2B11888  31.265   9.109   8.250
 5091POPC   C3B11889  31.294   9.088   7.950
 5091POPC   C4B11890  31.315   9.160   7.650
 5092POPC   NC311891  21.373  43.147   9.450
 5092POPC   PO411892  21.340  43.121   9.150
 5092POPC   GL111893  21.393  43.095   8.850
 5092POPC   GL211894  21.453  43.262   8.850
 5092POPC   C1A11895  21.371  43.091   8.550
 5092POPC   D2A11896  21.428  43.126   8.250
 5092POPC   C3A11897  21.375  43.159   7.950
 5092POPC   C4A11898  21.415  43.131   7.650
 5092POPC   C1B11899  21.407  43.351   8.550
 5092POPC   C2B11900  21.431  43.371   8.250
 5092POPC   C3B11901  21.449  43.355   7.950
 5092POPC   C4B11902  21.416  43.393   7.650
 5093POPC   NC311903  31.469  24.538   9.450
 5093POPC   PO411904  31.491  24.485   9.150
 5093POPC   GL111905  31.493  24.519   8.850
 5093POPC   GL211906  31.524  24.385   8.850
 5093POPC   C1A11907  31.470  24.531   8.550
 5093POPC   D2A11908  31.431  24.528   8.250
 5093POPC   C3A11909  31.494  24.485   7.950
 5093POPC   C4A11910  31.436  24.468   7.650
 5093POPC   C1B11911  31.506  24.210   8.550
 5093POPC   C2B11912  31.486  24.290   8.250
 5093POPC   C3B11913  31.452  24.215   7.950
 5093POPC   C4B11914  31.481  24.214   7.650
 5094POPC   NC311915  42.382   1.206   9.450
 5094POPC   PO411916  42.366   1.201   9.150
 5094POPC   GL111917  42.368   1.168   8.850
 5094POPC   GL211918  42.212   1.206   8.850
 5094POPC   C1A11919  42.310   1.176   8.550
 5094POPC   D2A11920  42.296   1.226   8.250
 5094POPC   C3A11921  42.340   1.211   7.950
 5094POPC   C4A11922  42.359   1.226   7.650
 5094POPC   C1B11923  42.132   1.226   8.550
 5094POPC   C2B11924  42.134   1.251   8.250
 5094POPC   C3B11925  42.059   1.291   7.950
 5094POPC   C4B11926  42.093   1.239   7.650
 5095POPC   NC311927  22.149   9.790   9.450
 5095POPC   PO411928  22.158   9.792   9.150
 5095POPC   GL111929  22.132   9.783   8.850
 5095POPC   GL211930  22.030   9.655   8.850
 5095POPC   C1A11931  22.132   9.701   8.550
 5095POPC   D2A11932  22.166   9.752   8.250
 5095POPC   C3A11933  22.168   9.770   7.950
 5095POPC   C4A11934  22.163   9.772   7.650
 5095POPC   C1B11935  21.911   9.623   8.550
 5095POPC   C2B11936  21.942   9.658   8.250
 5095POPC   C3B11937  21.885   9.610   7.950
 5095POPC   C4B11938  21.908   9.619   7.650
 5096POPC   NC311939  17.535  21.416   9.450
 5096POPC   PO411940  17.545  21.348   9.150
 5096POPC   GL111941  17.545  21.358   8.850
 5096POPC   GL211942  17.507  21.281   8.850
 5096POPC   C1A11943  17.458  21.364   8.550
 5096POPC   D2A11944  17.489  21.382   8.250
 5096POPC   C3A11945  17.473  21.373   7.950
 5096POPC   C4A11946  17.549  21.393   7.650
 5096POPC   C1B11947  17.479  21.104   8.550
 5096POPC   C2B11948  17.448  21.187   8.250
 5096POPC   C3B11949  17.422  21.102   7.950
 5096POPC   C4B11950  17.423  21.131   7.650
 5097POPC   NC311951  16.741  40.796   9.450
 5097POPC   PO411952  16.773  40.822   9.150
 5097POPC   GL111953  16.725  40.822   8.850
 5097POPC   GL211954  16.770  40.876   8.850
 5097POPC   C1A11955  16.721  40.733   8.550
 5097POPC   D2A11956  16.776  40.773   8.250
 5097POPC   C3A11957  16.768  40.741   7.950
 5097POPC   C4A11958  16.749  40.811   7.650
 5097POPC   C1B11959  16.902  40.977   8.550
 5097POPC   C2B11960  16.890  40.989   8.250
 5097POPC   C3B11961  16.871  40.966   7.950
 5097POPC   C4B11962  16.848  40.991   7.650
 5098POPC   NC311963  22.178  22.114   9.450
 5098POPC   PO411964  22.143  22.154   9.150
 5098POPC   GL111965  22.191  22.117   8.850
 5098POPC   GL211966  22.274  22.022   8.850
 5098POPC   C1A11967  22.125  22.197   8.550
 5098POPC   D2A11968  22.132  22.139   8.250
 5098POPC   C3A11969  22.169  22.123   7.950
 5098POPC   C4A11970  22.142  22.115   7.650
 5098POPC   C1B11971  22.261  21.942   8.550
 5098POPC   C2B11972  22.336  21.927   8.250
 5098POPC   C3B11973  22.267  21.957   7.950
 5098POPC   C4B11974  22.270  21.996   7.650
 5099POPC   NC311975   2.807   8.990   9.450
 5099POPC   PO411976   2.720   8.945   9.150
 5099POPC   GL111977   2.797   8.970   8.850
 5099POPC   GL211978   2.812   9.069   8.850
 5099POPC   C1A11979   2.741   8.966   8.550
 5099POPC   D2A11980   2.798   8.951   8.250
 5099POPC   C3A11981   2.759   8.925   7.950
 5099POPC   C4A11982   2.808   9.014   7.650
 5099POPC   C1B11983   2.882   9.135   8.550
 5099POPC   C2B11984   2.939   9.193   8.250
 5099POPC   C3B11985   2.943   9.141   7.950
 5099POPC   C4B11986   2.947   9.195   7.650
 5100POPC   NC311987  26.076  42.359   9.450
 5100POPC   PO411988  26.014  42.361   9.150
 5100POPC   GL111989  26.049  42.379   8.850
 5100POPC   GL211990  25.926  42.301   8.850
 5100POPC   C1A11991  26.012  42.364   8.550
 5100POPC   D2A11992  26.072  42.321   8.250
 5100POPC   C3A11993  26.001  42.315   7.950
 5100POPC   C4A11994  26.006  42.373   7.650
 5100POPC   C1B11995  25.822  42.162   8.550
 5100POPC   C2B11996  25.844  42.228   8.250
 5100POPC   C3B11997  25.800  42.196   7.950
 5100POPC   C4B11998  25.879  42.232   7.650
 5101POPC   NC311999  28.414  12.052   9.450
 5101POPC   PO412000  28.324  12.096   9.150
 5101POPC   GL112001  28.348  12.095   8.850
 5101POPC   GL212002  28.478  11.998   8.850
 5101POPC   C1A12003  28.386  12.047   8.550
 5101POPC   D2A12004  28.407  12.039   8.250
 5101POPC   C3A12005  28.332  12.104   7.950
 5101POPC   C4A12006  28.336  12.091   7.650
 5101POPC   C1B12007  28.632  12.021   8.550
 5101POPC   C2B12008  28.588  12.018   8.250
 5101POPC   C3B12009  28.600  11.993   7.950
 5101POPC   C4B12010  28.637  12.044   7.650
 5102POPC   NC312011  10.477  20.620   9.450
 5102POPC   PO412012  10.490  20.577   9.150
 5102POPC   GL112013  10.483  20.592   8.850
 5102POPC   GL212014  10.581  20.451   8.850
 5102POPC   C1A12015  10.526  20.639   8.550
 5102POPC   D2A12016  10.548  20.574   8.250
 5102POPC   C3A12017  10.546  20.605   7.950
 5102POPC   C4A12018  10.505  20.638   7.650
 5102POPC   C1B12019  10.576  20.414   8.550
 5102POPC   C2B12020  10.632  20.411   8.250
 5102POPC   C3B12021  10.576  20.420   7.950
 5102POPC   C4B12022  10.646  20.431   7.650
 5103POPC   NC312023   1.188  40.734   9.450
 5103POPC   PO412024   1.224  40.763   9.150
 5103POPC   GL112025   1.184  40.747   8.850
 5103POPC   GL212026   1.157  40.891   8.850
 5103POPC   C1A12027   1.249  40.776   8.550
 5103POPC   D2A12028   1.170  40.814   8.250
 5103POPC   C3A12029   1.213  40.764   7.950
 5103POPC   C4A12030   1.187  40.801   7.650
 5103POPC   C1B12031   1.078  40.976   8.550
 5103POPC   C2B12032   1.022  41.012   8.250
 5103POPC   C3B12033   1.026  40.984   7.950
 5103POPC   C4B12034   1.060  40.934   7.650
 5104POPC   NC312035  32.219   0.473   9.450
 5104POPC   PO412036  32.239   0.462   9.150
 5104POPC   GL112037  32.254   0.468   8.850
 5104POPC   GL212038  32.242   0.317   8.850
 5104POPC   C1A12039  32.222   0.445   8.550
 5104POPC   D2A12040  32.221   0.444   8.250
 5104POPC   C3A12041  32.203   0.442   7.950
 5104POPC   C4A12042  32.260   0.454   7.650
 5104POPC   C1B12043  32.264   0.186   8.550
 5104POPC   C2B12044  32.279   0.214   8.250
 5104POPC   C3B12045  32.268   0.144   7.950
 5104POPC   C4B12046  32.195   0.167   7.650
 5105POPC   NC312047  42.323  12.870   9.450
 5105POPC   PO412048  42.378  12.883   9.150
 5105POPC   GL112049  42.286  12.843   8.850
 5105POPC   GL212050  42.185  12.873   8.850
 5105POPC   C1A12051  42.296  12.888   8.550
 5105POPC   D2A12052  42.352  12.879   8.250
 5105POPC   C3A12053  42.298  12.894   7.950
 5105POPC   C4A12054  42.361  12.852   7.650
 5105POPC   C1B12055  42.133  12.926   8.550
 5105POPC   C2B12056  42.041  12.896   8.250
 5105POPC   C3B12057  42.046  12.844   7.950
 5105POPC   C4B12058  42.043  12.926   7.650
 5106POPC   NC312059  29.894  21.421   9.450
 5106POPC   PO412060  29.951  21.423   9.150
 5106POPC   GL112061  29.956  21.346   8.850
 5106POPC   GL212062  29.935  21.518   8.850
 5106POPC   C1A12063  29.902  21.364   8.550
 5106POPC   D2A12064  29.942  21.348   8.250
 5106POPC   C3A12065  29.932  21.375   7.950
 5106POPC   C4A12066  29.943  21.356   7.650
 5106POPC   C1B12067  29.990  21.666   8.550
 5106POPC   C2B12068  29.984  21.655   8.250
 5106POPC   C3B12069  29.951  21.588   7.950
 5106POPC   C4B12070  29.927  21.661   7.650
 5107POPC   NC312071  11.317  41.590   9.450
 5107POPC   PO412072  11.257  41.535   9.150
 5107POPC   GL112073  11.304  41.603   8.850
 5107POPC   GL212074  11.441  41.436   8.850
 5107POPC   C1A12075  11.273  41.560   8.550
 5107POPC   D2A12076  11.309  41.514   8.250
 5107POPC   C3A12077  11.346  41.518   7.950
 5107POPC   C4A12078  11.320  41.526   7.650
 5107POPC   C1B12079  11.468  41.429   8.550
 5107POPC   C2B12080  11.529  41.413   8.250
 5107POPC   C3B12081  11.489  41.373   7.950
 5107POPC   C4B12082  11.474  41.381   7.650
 5108POPC   NC312083  19.817   9.781   9.450
 5108POPC   PO412084  19.867   9.794   9.150
 5108POPC   GL112085  19.863   9.706   8.850
 5108POPC   GL212086  19.907   9.904   8.850
 5108POPC   C1A12087  19.865   9.700   8.550
 5108POPC   D2A12088  19.874   9.712   8.250
 5108POPC   C3A12089  19.821   9.715   7.950
 5108POPC   C4A12090  19.792   9.754   7.650
 5108POPC   C1B12091  19.930   9.977   8.550
 5108POPC   C2B12092  19.947   9.973   8.250
 5108POPC   C3B12093  19.909  10.025   7.950
 5108POPC   C4B12094  19.960   9.941   7.650
 5109POPC   NC312095  22.162  17.521   9.450
 5109POPC   PO412096  22.115  17.492   9.150
 5109POPC   GL112097  22.172  17.484   8.850
 5109POPC   GL212098  22.098  17.429   8.850
 5109POPC   C1A12099  22.134  17.466   8.550
 5109POPC   D2A12100  22.185  17.478   8.250
 5109POPC   C3A12101  22.204  17.511   7.950
 5109POPC   C4A12102  22.178  17.501   7.650
 5109POPC   C1B12103  22.040  17.313   8.550
 5109POPC   C2B12104  22.075  17.250   8.250
 5109POPC   C3B12105  22.036  17.295   7.950
 5109POPC   C4B12106  22.132  17.237   7.650
 5110POPC   NC312107  19.858  19.095   9.450
 5110POPC   PO412108  19.797  19.021   9.150
 5110POPC   GL112109  19.879  19.040   8.850
 5110POPC   GL212110  19.707  19.133   8.850
 5110POPC   C1A12111  19.790  19.099   8.550
 5110POPC   D2A12112  19.855  19.055   8.250
 5110POPC   C3A12113  19.795  19.093   7.950
 5110POPC   C4A12114  19.840  19.024   7.650
 5110POPC   C1B12115  19.595  19.141   8.550
 5110POPC   C2B12116  19.668  19.223   8.250
 5110POPC   C3B12117  19.628  19.193   7.950
 5110POPC   C4B12118  19.584  19.160   7.650
 5111POPC   NC312119  11.308  24.520   9.450
 5111POPC   PO412120  11.259  24.476   9.150
 5111POPC   GL112121  11.339  24.466   8.850
 5111POPC   GL212122  11.339  24.392   8.850
 5111POPC   C1A12123  11.280  24.481   8.550
 5111POPC   D2A12124  11.278  24.518   8.250
 5111POPC   C3A12125  11.288  24.513   7.950
 5111POPC   C4A12126  11.311  24.490   7.650
 5111POPC   C1B12127  11.277  24.246   8.550
 5111POPC   C2B12128  11.304  24.277   8.250
 5111POPC   C3B12129  11.333  24.240   7.950
 5111POPC   C4B12130  11.284  24.206   7.650
 5112POPC   NC312131  39.960  12.847   9.450
 5112POPC   PO412132  39.991  12.899   9.150
 5112POPC   GL112133  40.005  12.855   8.850
 5112POPC   GL212134  39.846  12.790   8.850
 5112POPC   C1A12135  40.055  12.867   8.550
 5112POPC   D2A12136  39.977  12.866   8.250
 5112POPC   C3A12137  40.055  12.867   7.950
 5112POPC   C4A12138  40.022  12.863   7.650
 5112POPC   C1B12139  39.744  12.798   8.550
 5112POPC   C2B12140  39.740  12.756   8.250
 5112POPC   C3B12141  39.761  12.824   7.950
 5112POPC   C4B12142  39.803  12.846   7.650
 5113POPC   NC312143  14.435   3.588   9.450
 5113POPC   PO412144  14.355   3.537   9.150
 5113POPC   GL112145  14.398   3.574   8.850
 5113POPC   GL212146  14.266   3.600   8.850
 5113POPC   C1A12147  14.362   3.561   8.550
 5113POPC   D2A12148  14.361   3.508   8.250
 5113POPC   C3A12149  14.372   3.575   7.950
 5113POPC   C4A12150  14.417   3.591   7.650
 5113POPC   C1B12151  14.192   3.639   8.550
 5113POPC   C2B12152  14.144   3.667   8.250
 5113POPC   C3B12153  14.215   3.666   7.950
 5113POPC   C4B12154  14.218   3.630   7.650
 5114POPC   NC312155  18.263  43.901   9.450
 5114POPC   PO412156  18.235  43.917   9.150
 5114POPC   GL112157  18.317  43.868   8.850
 5114POPC   GL212158  18.230  43.968   8.850
 5114POPC   C1A12159  18.270  43.867   8.550
 5114POPC   D2A12160  18.314  43.903   8.250
 5114POPC   C3A12161  18.261  43.879   7.950
 5114POPC   C4A12162  18.301  43.853   7.650
 5114POPC   C1B12163  18.154  44.135   8.550
 5114POPC   C2B12164  18.176  44.068   8.250
 5114POPC   C3B12165  18.154  44.121   7.950
 5114POPC   C4B12166  18.141  44.145   7.650
 5115POPC   NC312167  41.592  12.866   9.450
 5115POPC   PO412168  41.587  12.887   9.150
 5115POPC   GL112169  41.581  12.847   8.850
 5115POPC   GL212170  41.727  12.886   8.850
 5115POPC   C1A12171  41.596  12.825   8.550
 5115POPC   D2A12172  41.580  12.866   8.250
 5115POPC   C3A12173  41.596  12.847   7.950
 5115POPC   C4A12174  41.602  12.844   7.650
 5115POPC   C1B12175  41.785  12.903   8.550
 5115POPC   C2B12176  41.751  12.963   8.250
 5115POPC   C3B12177  41.816  12.937   7.950
 5115POPC   C4B12178  41.787  12.968   7.650
 5116POPC   NC312179  19.884  28.361   9.450
 5116POPC   PO412180  19.867  28.356   9.150
 5116POPC   GL112181  19.820  28.393   8.850
 5116POPC   GL212182  19.912  28.457   8.850
 5116POPC   C1A12183  19.798  28.377   8.550
 5116POPC   D2A12184  19.796  28.335   8.250
 5116POPC   C3A12185  19.881  28.366   7.950
 5116POPC   C4A12186  19.832  28.397   7.650
 5116POPC   C1B12187  20.040  28.544   8.550
 5116POPC   C2B12188  19.991  28.579   8.250
 5116POPC   C3B12189  20.013  28.565   7.950
 5116POPC   C4B12190  19.949  28.573   7.650
 5117POPC   NC312191  12.848  18.315   9.450
 5117POPC   PO412192  12.805  18.304   9.150
 5117POPC   GL112193  12.855  18.300   8.850
 5117POPC   GL212194  12.819  18.391   8.850
 5117POPC   C1A12195  12.804  18.299   8.550
 5117POPC   D2A12196  12.889  18.261   8.250
 5117POPC   C3A12197  12.896  18.320   7.950
 5117POPC   C4A12198  12.890  18.275   7.650
 5117POPC   C1B12199  12.875  18.520   8.550
 5117POPC   C2B12200  12.831  18.569   8.250
 5117POPC   C3B12201  12.845  18.558   7.950
 5117POPC   C4B12202  12.896  18.514   7.650
 5118POPC   NC312203  12.900  19.813   9.450
 5118POPC   PO412204  12.894  19.807   9.150
 5118POPC   GL112205  12.889  19.788   8.850
 5118POPC   GL212206  12.958  19.936   8.850
 5118POPC   C1A12207  12.809  19.803   8.550
 5118POPC   D2A12208  12.815  19.808   8.250
 5118POPC   C3A12209  12.844  19.846   7.950
 5118POPC   C4A12210  12.844  19.844   7.650
 5118POPC   C1B12211  13.013  19.962   8.550
 5118POPC   C2B12212  13.019  19.996   8.250
 5118POPC   C3B12213  13.014  20.040   7.950
 5118POPC   C4B12214  13.083  19.989   7.650
 5119POPC   NC312215  28.370  18.318   9.450
 5119POPC   PO412216  28.377  18.244   9.150
 5119POPC   GL112217  28.385  18.298   8.850
 5119POPC   GL212218  28.408  18.148   8.850
 5119POPC   C1A12219  28.388  18.285   8.550
 5119POPC   D2A12220  28.322  18.260   8.250
 5119POPC   C3A12221  28.356  18.295   7.950
 5119POPC   C4A12222  28.334  18.263   7.650
 5119POPC   C1B12223  28.307  18.026   8.550
 5119POPC   C2B12224  28.384  18.058   8.250
 5119POPC   C3B12225  28.335  18.060   7.950
 5119POPC   C4B12226  28.301  17.999   7.650
 5120POPC   NC312227  29.913  29.143   9.450
 5120POPC   PO412228  29.883  29.106   9.150
 5120POPC   GL112229  29.934  29.113   8.850
 5120POPC   GL212230  29.846  29.137   8.850
 5120POPC   C1A12231  29.931  29.156   8.550
 5120POPC   D2A12232  29.950  29.152   8.250
 5120POPC   C3A12233  29.927  29.132   7.950
 5120POPC   C4A12234  29.879  29.116   7.650
 5120POPC   C1B12235  29.672  29.097   8.550
 5120POPC   C2B12236  29.697  29.098   8.250
 5120POPC   C3B12237  29.672  29.104   7.950
 5120POPC   C4B12238  29.674  29.098   7.650
 5121POPC   NC312239  21.338  15.957   9.450
 5121POPC   PO412240  21.336  15.954   9.150
 5121POPC   GL112241  21.404  15.973   8.850
 5121POPC   GL212242  21.421  16.118   8.850
 5121POPC   C1A12243  21.368  15.934   8.550
 5121POPC   D2A12244  21.390  15.997   8.250
 5121POPC   C3A12245  21.357  15.988   7.950
 5121POPC   C4A12246  21.344  15.991   7.650
 5121POPC   C1B12247  21.459  16.220   8.550
 5121POPC   C2B12248  21.384  16.227   8.250
 5121POPC   C3B12249  21.398  16.153   7.950
 5121POPC   C4B12250  21.382  16.252   7.650
 5122POPC   NC312251  44.615  12.825   9.450
 5122POPC   PO412252  44.679  12.879   9.150
 5122POPC   GL112253  44.636  12.877   8.850
 5122POPC   GL212254  44.565  12.791   8.850
 5122POPC   C1A12255  44.628  12.813   8.550
 5122POPC   D2A12256  44.709  12.868   8.250
 5122POPC   C3A12257  44.666  12.875   7.950
 5122POPC   C4A12258  44.705  12.844   7.650
 5122POPC   C1B12259  44.460  12.799   8.550
 5122POPC   C2B12260  44.408  12.840   8.250
 5122POPC   C3B12261  44.379  12.850   7.950
 5122POPC   C4B12262  44.416  12.855   7.650
 5123POPC   NC312263  36.869  40.828   9.450
 5123POPC   PO412264  36.882  40.825   9.150
 5123POPC   GL112265  36.916  40.746   8.850
 5123POPC   GL212266  36.987  40.642   8.850
 5123POPC   C1A12267  36.933  40.749   8.550
 5123POPC   D2A12268  36.895  40.754   8.250
 5123POPC   C3A12269  36.951  40.798   7.950
 5123POPC   C4A12270  36.939  40.816   7.650
 5123POPC   C1B12271  37.036  40.573   8.550
 5123POPC   C2B12272  37.025  40.597   8.250
 5123POPC   C3B12273  37.085  40.539   7.950
 5123POPC   C4B12274  37.074  40.628   7.650
 5124POPC   NC312275  15.954   5.907   9.450
 5124POPC   PO412276  15.992   5.916   9.150
 5124POPC   GL112277  15.998   5.882   8.850
 5124POPC   GL212278  15.885   5.792   8.850
 5124POPC   C1A12279  15.948   5.888   8.550
 5124POPC   D2A12280  15.914   5.899   8.250
 5124POPC   C3A12281  15.950   5.905   7.950
 5124POPC   C4A12282  15.957   5.886   7.650
 5124POPC   C1B12283  15.880   5.619   8.550
 5124POPC   C2B12284  15.876   5.690   8.250
 5124POPC   C3B12285  15.817   5.663   7.950
 5124POPC   C4B12286  15.896   5.664   7.650
 5125POPC   NC312287  15.223  21.373   9.450
 5125POPC   PO412288  15.187  21.395   9.150
 5125POPC   GL112289  15.167  21.368   8.850
 5125POPC   GL212290  15.038  21.367   8.850
 5125POPC   C1A12291  15.167  21.411   8.550
 5125POPC   D2A12292  15.177  21.434   8.250
 5125POPC   C3A12293  15.146  21.338   7.950
 5125POPC   C4A12294  15.180  21.367   7.650
 5125POPC   C1B12295  14.910  21.395   8.550
 5125POPC   C2B12296  14.919  21.424   8.250
 5125POPC   C3B12297  14.973  21.357   7.950
 5125POPC   C4B12298  14.926  21.407   7.650
 5126POPC   NC312299   6.622  20.601   9.450
 5126POPC   PO412300   6.640  20.580   9.150
 5126POPC   GL112301   6.616  20.637   8.850
 5126POPC   GL212302   6.524  20.590   8.850
 5126POPC   C1A12303   6.681  20.651   8.550
 5126POPC   D2A12304   6.694  20.640   8.250
 5126POPC   C3A12305   6.624  20.570   7.950
 5126POPC   C4A12306   6.669  20.612   7.650
 5126POPC   C1B12307   6.372  20.513   8.550
 5126POPC   C2B12308   6.410  20.548   8.250
 5126POPC   C3B12309   6.434  20.542   7.950
 5126POPC   C4B12310   6.385  20.515   7.650
 5127POPC   NC312311  22.150  40.772   9.450
 5127POPC   PO412312  22.149  40.747   9.150
 5127POPC   GL112313  22.141  40.766   8.850
 5127POPC   GL212314  22.196  40.886   8.850
 5127POPC   C1A12315  22.190  40.733   8.550
 5127POPC   D2A12316  22.146  40.789   8.250
 5127POPC   C3A12317  22.156  40.764   7.950
 5127POPC   C4A12318  22.154  40.832   7.650
 5127POPC   C1B12319  22.210  40.994   8.550
 5127POPC   C2B12320  22.227  40.993   8.250
 5127POPC   C3B12321  22.241  41.027   7.950
 5127POPC   C4B12322  22.157  40.990   7.650
 5128POPC   NC312323  11.304  43.073   9.450
 5128POPC   PO412324  11.275  43.159   9.150
 5128POPC   GL112325  11.338  43.118   8.850
 5128POPC   GL212326  11.393  43.096   8.850
 5128POPC   C1A12327  11.317  43.106   8.550
 5128POPC   D2A12328  11.320  43.061   8.250
 5128POPC   C3A12329  11.312  43.083   7.950
 5128POPC   C4A12330  11.340  43.132   7.650
 5128POPC   C1B12331  11.482  43.041   8.550
 5128POPC   C2B12332  11.505  43.055   8.250
 5128POPC   C3B12333  11.504  43.049   7.950
 5128POPC   C4B12334  11.521  43.007   7.650
 5129POPC   NC312335  43.089  29.874   9.450
 5129POPC   PO412336  43.096  29.943   9.150
 5129POPC   GL112337  43.070  29.932   8.850
 5129POPC   GL212338  43.183  29.809   8.850
 5129POPC   C1A12339  43.135  29.876   8.550
 5129POPC   D2A12340  43.085  29.883   8.250
 5129POPC   C3A12341  43.108  29.915   7.950
 5129POPC   C4A12342  43.118  29.925   7.650
 5129POPC   C1B12343  43.277  29.778   8.550
 5129POPC   C2B12344  43.231  29.760   8.250
 5129POPC   C3B12345  43.307  29.779   7.950
 5129POPC   C4B12346  43.266  29.696   7.650
 5130POPC   NC312347   5.840  41.607   9.450
 5130POPC   PO412348   5.865  41.582   9.150
 5130POPC   GL112349   5.854  41.568   8.850
 5130POPC   GL212350   5.981  41.443   8.850
 5130POPC   C1A12351   5.819  41.595   8.550
 5130POPC   D2A12352   5.872  41.599   8.250
 5130POPC   C3A12353   5.873  41.608   7.950
 5130POPC   C4A12354   5.855  41.574   7.650
 5130POPC   C1B12355   6.033  41.357   8.550
 5130POPC   C2B12356   5.980  41.369   8.250
 5130POPC   C3B12357   5.981  41.312   7.950
 5130POPC   C4B12358   6.033  41.406   7.650
 5131POPC   NC312359   1.983  15.132   9.450
 5131POPC   PO412360   1.962  15.219   9.150
 5131POPC   GL112361   1.975  15.215   8.850
 5131POPC   GL212362   1.855  15.137   8.850
 5131POPC   C1A12363   2.024  15.168   8.550
 5131POPC   D2A12364   2.015  15.129   8.250
 5131POPC   C3A12365   2.000  15.140   7.950
 5131POPC   C4A12366   2.024  15.167   7.650
 5131POPC   C1B12367   1.787  15.122   8.550
 5131POPC   C2B12368   1.770  15.128   8.250
 5131POPC   C3B12369   1.781  15.191   7.950
 5131POPC   C4B12370   1.783  15.106   7.650
 5132POPC   NC312371  37.716  32.992   9.450
 5132POPC   PO412372  37.647  33.000   9.150
 5132POPC   GL112373  37.680  33.003   8.850
 5132POPC   GL212374  37.575  32.985   8.850
 5132POPC   C1A12375  37.639  33.062   8.550
 5132POPC   D2A12376  37.681  33.058   8.250
 5132POPC   C3A12377  37.658  32.996   7.950
 5132POPC   C4A12378  37.660  32.988   7.650
 5132POPC   C1B12379  37.405  32.993   8.550
 5132POPC   C2B12380  37.452  33.013   8.250
 5132POPC   C3B12381  37.464  33.002   7.950
 5132POPC   C4B12382  37.396  32.998   7.650
 5133POPC   NC312383  13.610  30.653   9.450
 5133POPC   PO412384  13.602  30.734   9.150
 5133POPC   GL112385  13.601  30.703   8.850
 5133POPC   GL212386  13.620  30.611   8.850
 5133POPC   C1A12387  13.667  30.664   8.550
 5133POPC   D2A12388  13.660  30.720   8.250
 5133POPC   C3A12389  13.638  30.667   7.950
 5133POPC   C4A12390  13.606  30.732   7.650
 5133POPC   C1B12391  13.557  30.411   8.550
 5133POPC   C2B12392  13.612  30.427   8.250
 5133POPC   C3B12393  13.618  30.468   7.950
 5133POPC   C4B12394  13.601  30.430   7.650
 5134POPC   NC312395  33.045  43.115   9.450
 5134POPC   PO412396  33.065  43.158   9.150
 5134POPC   GL112397  32.982  43.146   8.850
 5134POPC   GL212398  33.005  43.190   8.850
 5134POPC   C1A12399  33.047  43.124   8.550
 5134POPC   D2A12400  33.036  43.113   8.250
 5134POPC   C3A12401  33.023  43.143   7.950
 5134POPC   C4A12402  33.006  43.101   7.650
 5134POPC   C1B12403  33.072  43.407   8.550
 5134POPC   C2B12404  33.026  43.318   8.250
 5134POPC   C3B12405  33.037  43.396   7.950
 5134POPC   C4B12406  33.048  43.370   7.650
 5135POPC   NC312407   9.777  30.698   9.450
 5135POPC   PO412408   9.786  30.648   9.150
 5135POPC   GL112409   9.748  30.681   8.850
 5135POPC   GL212410   9.715  30.801   8.850
 5135POPC   C1A12411   9.738  30.652   8.550
 5135POPC   D2A12412   9.778  30.667   8.250
 5135POPC   C3A12413   9.754  30.715   7.950
 5135POPC   C4A12414   9.730  30.667   7.650
 5135POPC   C1B12415   9.605  30.962   8.550
 5135POPC   C2B12416   9.662  30.905   8.250
 5135POPC   C3B12417   9.605  30.949   7.950
 5135POPC   C4B12418   9.636  30.924   7.650
 5136POPC   NC312419  13.622   8.173   9.450
 5136POPC   PO412420  13.635   8.202   9.150
 5136POPC   GL112421  13.627   8.174   8.850
 5136POPC   GL212422  13.783   8.208   8.850
 5136POPC   C1A12423  13.609   8.170   8.550
 5136POPC   D2A12424  13.667   8.214   8.250
 5136POPC   C3A12425  13.594   8.161   7.950
 5136POPC   C4A12426  13.672   8.233   7.650
 5136POPC   C1B12427  13.836   8.157   8.550
 5136POPC   C2B12428  13.905   8.140   8.250
 5136POPC   C3B12429  13.909   8.219   7.950
 5136POPC   C4B12430  13.908   8.151   7.650
 5137POPC   NC312431  29.194   8.979   9.450
 5137POPC   PO412432  29.137   8.997   9.150
 5137POPC   GL112433  29.127   9.000   8.850
 5137POPC   GL212434  29.168   9.074   8.850
 5137POPC   C1A12435  29.139   8.992   8.550
 5137POPC   D2A12436  29.159   8.953   8.250
 5137POPC   C3A12437  29.128   8.946   7.950
 5137POPC   C4A12438  29.175   9.005   7.650
 5137POPC   C1B12439  29.079   9.208   8.550
 5137POPC   C2B12440  29.101   9.178   8.250
 5137POPC   C3B12441  29.048   9.184   7.950
 5137POPC   C4B12442  29.097   9.206   7.650
 5138POPC   NC312443  29.918  36.868   9.450
 5138POPC   PO412444  29.886  36.880   9.150
 5138POPC   GL112445  29.949  36.915   8.850
 5138POPC   GL212446  30.053  36.998   8.850
 5138POPC   C1A12447  29.883  36.929   8.550
 5138POPC   D2A12448  29.904  36.953   8.250
 5138POPC   C3A12449  29.919  36.891   7.950
 5138POPC   C4A12450  29.897  36.875   7.650
 5138POPC   C1B12451  30.104  37.031   8.550
 5138POPC   C2B12452  30.198  36.992   8.250
 5138POPC   C3B12453  30.105  37.016   7.950
 5138POPC   C4B12454  30.178  37.002   7.650
 5139POPC   NC312455  12.074  35.400   9.450
 5139POPC   PO412456  12.048  35.331   9.150
 5139POPC   GL112457  12.081  35.390   8.850
 5139POPC   GL212458  11.962  35.254   8.850
 5139POPC   C1A12459  12.094  35.374   8.550
 5139POPC   D2A12460  12.062  35.302   8.250
 5139POPC   C3A12461  12.099  35.315   7.950
 5139POPC   C4A12462  12.095  35.326   7.650
 5139POPC   C1B12463  11.823  35.283   8.550
 5139POPC   C2B12464  11.865  35.206   8.250
 5139POPC   C3B12465  11.831  35.292   7.950
 5139POPC   C4B12466  11.882  35.288   7.650
 5140POPC   NC312467  30.710  41.513   9.450
 5140POPC   PO412468  30.743  41.606   9.150
 5140POPC   GL112469  30.739  41.538   8.850
 5140POPC   GL212470  30.846  41.580   8.850
 5140POPC   C1A12471  30.678  41.551   8.550
 5140POPC   D2A12472  30.663  41.595   8.250
 5140POPC   C3A12473  30.651  41.558   7.950
 5140POPC   C4A12474  30.676  41.545   7.650
 5140POPC   C1B12475  30.918  41.617   8.550
 5140POPC   C2B12476  30.974  41.605   8.250
 5140POPC   C3B12477  30.976  41.658   7.950
 5140POPC   C4B12478  30.968  41.628   7.650
 5141POPC   NC312479  12.859  21.400   9.450
 5141POPC   PO412480  12.821  21.359   9.150
 5141POPC   GL112481  12.882  21.365   8.850
 5141POPC   GL212482  12.994  21.366   8.850
 5141POPC   C1A12483  12.900  21.363   8.550
 5141POPC   D2A12484  12.840  21.410   8.250
 5141POPC   C3A12485  12.886  21.362   7.950
 5141POPC   C4A12486  12.868  21.345   7.650
 5141POPC   C1B12487  13.027  21.246   8.550
 5141POPC   C2B12488  13.093  21.291   8.250
 5141POPC   C3B12489  13.055  21.232   7.950
 5141POPC   C4B12490  13.065  21.294   7.650
 5142POPC   NC312491  40.802  18.300   9.450
 5142POPC   PO412492  40.751  18.312   9.150
 5142POPC   GL112493  40.801  18.323   8.850
 5142POPC   GL212494  40.944  18.276   8.850
 5142POPC   C1A12495  40.773  18.291   8.550
 5142POPC   D2A12496  40.756  18.306   8.250
 5142POPC   C3A12497  40.790  18.290   7.950
 5142POPC   C4A12498  40.820  18.279   7.650
 5142POPC   C1B12499  41.027  18.198   8.550
 5142POPC   C2B12500  41.040  18.245   8.250
 5142POPC   C3B12501  41.018  18.156   7.950
 5142POPC   C4B12502  40.978  18.176   7.650
 5143POPC   NC312503  22.891  44.621   9.450
 5143POPC   PO412504  22.920  44.653   9.150
 5143POPC   GL112505  22.911  44.656   8.850
 5143POPC   GL212506  22.777  44.629   8.850
 5143POPC   C1A12507  22.925  44.630   8.550
 5143POPC   D2A12508  22.892  44.618   8.250
 5143POPC   C3A12509  22.956  44.648   7.950
 5143POPC   C4A12510  22.976  44.710   7.650
 5143POPC   C1B12511  22.737  44.568   8.550
 5143POPC   C2B12512  22.706  44.599   8.250
 5143POPC   C3B12513  22.715  44.563   7.950
 5143POPC   C4B12514  22.712  44.527   7.650
 5144POPC   NC312515   8.152  12.032   9.450
 5144POPC   PO412516   8.217  12.095   9.150
 5144POPC   GL112517   8.148  12.073   8.850
 5144POPC   GL212518   8.272  11.984   8.850
 5144POPC   C1A12519   8.162  12.091   8.550
 5144POPC   D2A12520   8.215  12.124   8.250
 5144POPC   C3A12521   8.229  12.045   7.950
 5144POPC   C4A12522   8.225  12.123   7.650
 5144POPC   C1B12523   8.383  11.906   8.550
 5144POPC   C2B12524   8.407  11.950   8.250
 5144POPC   C3B12525   8.421  11.891   7.950
 5144POPC   C4B12526   8.351  11.870   7.650
 5145POPC   NC312527  41.581  27.560   9.450
 5145POPC   PO412528  41.567  27.589   9.150
 5145POPC   GL112529  41.604  27.632   8.850
 5145POPC   GL212530  41.673  27.660   8.850
 5145POPC   C1A12531  41.582  27.619   8.550
 5145POPC   D2A12532  41.519  27.641   8.250
 5145POPC   C3A12533  41.521  27.554   7.950
 5145POPC   C4A12534  41.597  27.547   7.650
 5145POPC   C1B12535  41.748  27.738   8.550
 5145POPC   C2B12536  41.725  27.769   8.250
 5145POPC   C3B12537  41.809  27.786   7.950
 5145POPC   C4B12538  41.786  27.734   7.650
 5146POPC   NC312539   3.536  23.762   9.450
 5146POPC   PO412540   3.515  23.719   9.150
 5146POPC   GL112541   3.568  23.666   8.850
 5146POPC   GL212542   3.598  23.674   8.850
 5146POPC   C1A12543   3.549  23.671   8.550
 5146POPC   D2A12544   3.550  23.724   8.250
 5146POPC   C3A12545   3.552  23.667   7.950
 5146POPC   C4A12546   3.581  23.731   7.650
 5146POPC   C1B12547   3.758  23.579   8.550
 5146POPC   C2B12548   3.732  23.532   8.250
 5146POPC   C3B12549   3.726  23.540   7.950
 5146POPC   C4B12550   3.708  23.590   7.650
 5147POPC   NC312551   6.650  22.896   9.450
 5147POPC   PO412552   6.653  22.910   9.150
 5147POPC   GL112553   6.616  22.901   8.850
 5147POPC   GL212554   6.570  23.048   8.850
 5147POPC   C1A12555   6.688  22.960   8.550
 5147POPC   D2A12556   6.598  22.947   8.250
 5147POPC   C3A12557   6.628  22.916   7.950
 5147POPC   C4A12558   6.613  22.983   7.650
 5147POPC   C1B12559   6.468  23.148   8.550
 5147POPC   C2B12560   6.474  23.141   8.250
 5147POPC   C3B12561   6.533  23.093   7.950
 5147POPC   C4B12562   6.497  23.153   7.650
 5148POPC   NC312563  21.426  10.537   9.450
 5148POPC   PO412564  21.352  10.489   9.150
 5148POPC   GL112565  21.386  10.480   8.850
 5148POPC   GL212566  21.444  10.448   8.850
 5148POPC   C1A12567  21.389  10.483   8.550
 5148POPC   D2A12568  21.429  10.479   8.250
 5148POPC   C3A12569  21.374  10.550   7.950
 5148POPC   C4A12570  21.413  10.546   7.650
 5148POPC   C1B12571  21.439  10.228   8.550
 5148POPC   C2B12572  21.467  10.276   8.250
 5148POPC   C3B12573  21.378  10.247   7.950
 5148POPC   C4B12574  21.381  10.297   7.650
 5149POPC   NC312575  25.276  23.747   9.450
 5149POPC   PO412576  25.271  23.681   9.150
 5149POPC   GL112577  25.258  23.684   8.850
 5149POPC   GL212578  25.268  23.568   8.850
 5149POPC   C1A12579  25.265  23.726   8.550
 5149POPC   D2A12580  25.269  23.730   8.250
 5149POPC   C3A12581  25.244  23.680   7.950
 5149POPC   C4A12582  25.301  23.761   7.650
 5149POPC   C1B12583  25.406  23.521   8.550
 5149POPC   C2B12584  25.368  23.513   8.250
 5149POPC   C3B12585  25.376  23.507   7.950
 5149POPC   C4B12586  25.321  23.526   7.650
 5150POPC   NC312587  31.512  43.071   9.450
 5150POPC   PO412588  31.450  43.069   9.150
 5150POPC   GL112589  31.510  43.108   8.850
 5150POPC   GL212590  31.605  43.059   8.850
 5150POPC   C1A12591  31.447  43.080   8.550
 5150POPC   D2A12592  31.440  43.105   8.250
 5150POPC   C3A12593  31.456  43.138   7.950
 5150POPC   C4A12594  31.437  43.085   7.650
 5150POPC   C1B12595  31.675  43.039   8.550
 5150POPC   C2B12596  31.672  43.008   8.250
 5150POPC   C3B12597  31.665  43.039   7.950
 5150POPC   C4B12598  31.734  42.994   7.650
 5151POPC   NC312599   6.669  14.447   9.450
 5151POPC   PO412600   6.625  14.418   9.150
 5151POPC   GL112601   6.641  14.421   8.850
 5151POPC   GL212602   6.727  14.378   8.850
 5151POPC   C1A12603   6.677  14.443   8.550
 5151POPC   D2A12604   6.608  14.433   8.250
 5151POPC   C3A12605   6.684  14.370   7.950
 5151POPC   C4A12606   6.663  14.430   7.650
 5151POPC   C1B12607   6.869  14.408   8.550
 5151POPC   C2B12608   6.940  14.457   8.250
 5151POPC   C3B12609   6.940  14.421   7.950
 5151POPC   C4B12610   6.914  14.455   7.650
 5152POPC   NC312611  38.440  14.437   9.450
 5152POPC   PO412612  38.461  14.385   9.150
 5152POPC   GL112613  38.446  14.449   8.850
 5152POPC   GL212614  38.285  14.401   8.850
 5152POPC   C1A12615  38.426  14.436   8.550
 5152POPC   D2A12616  38.450  14.400   8.250
 5152POPC   C3A12617  38.463  14.360   7.950
 5152POPC   C4A12618  38.446  14.414   7.650
 5152POPC   C1B12619  38.224  14.410   8.550
 5152POPC   C2B12620  38.173  14.446   8.250
 5152POPC   C3B12621  38.234  14.446   7.950
 5152POPC   C4B12622  38.197  14.487   7.650
 5153POPC   NC312623  26.004   7.402   9.450
 5153POPC   PO412624  26.072   7.411   9.150
 5153POPC   GL112625  26.019   7.447   8.850
 5153POPC   GL212626  25.960   7.444   8.850
 5153POPC   C1A12627  26.054   7.458   8.550
 5153POPC   D2A12628  26.038   7.376   8.250
 5153POPC   C3A12629  26.008   7.464   7.950
 5153POPC   C4A12630  26.051   7.423   7.650
 5153POPC   C1B12631  25.823   7.501   8.550
 5153POPC   C2B12632  25.779   7.413   8.250
 5153POPC   C3B12633  25.807   7.502   7.950
 5153POPC   C4B12634  25.768   7.419   7.650
 5154POPC   NC312635  43.917  20.599   9.450
 5154POPC   PO412636  43.839  20.611   9.150
 5154POPC   GL112637  43.906  20.639   8.850
 5154POPC   GL212638  44.035  20.571   8.850
 5154POPC   C1A12639  43.884  20.585   8.550
 5154POPC   D2A12640  43.921  20.648   8.250
 5154POPC   C3A12641  43.868  20.599   7.950
 5154POPC   C4A12642  43.907  20.584   7.650
 5154POPC   C1B12643  44.128  20.458   8.550
 5154POPC   C2B12644  44.079  20.524   8.250
 5154POPC   C3B12645  44.144  20.502   7.950
 5154POPC   C4B12646  44.138  20.476   7.650
 5155POPC   NC312647  20.589  39.184   9.450
 5155POPC   PO412648  20.647  39.261   9.150
 5155POPC   GL112649  20.582  39.223   8.850
 5155POPC   GL212650  20.480  39.286   8.850
 5155POPC   C1A12651  20.586  39.183   8.550
 5155POPC   D2A12652  20.654  39.183   8.250
 5155POPC   C3A12653  20.657  39.215   7.950
 5155POPC   C4A12654  20.606  39.241   7.650
 5155POPC   C1B12655  20.365  39.335   8.550
 5155POPC   C2B12656  20.345  39.327   8.250
 5155POPC   C3B12657  20.376  39.304   7.950
 5155POPC   C4B12658  20.349  39.285   7.650
 5156POPC   NC312659   8.968   2.803   9.450
 5156POPC   PO412660   8.991   2.798   9.150
 5156POPC   GL112661   8.969   2.805   8.850
 5156POPC   GL212662   9.095   2.762   8.850
 5156POPC   C1A12663   8.994   2.812   8.550
 5156POPC   D2A12664   9.011   2.772   8.250
 5156POPC   C3A12665   8.947   2.755   7.950
 5156POPC   C4A12666   8.924   2.746   7.650
 5156POPC   C1B12667   9.165   2.856   8.550
 5156POPC   C2B12668   9.210   2.875   8.250
 5156POPC   C3B12669   9.212   2.797   7.950
 5156POPC   C4B12670   9.246   2.850   7.650
 5157POPC   NC312671  33.775  21.410   9.450
 5157POPC   PO412672  33.776  21.368   9.150
 5157POPC   GL112673  33.790  21.381   8.850
 5157POPC   GL212674  33.676  21.421   8.850
 5157POPC   C1A12675  33.780  21.409   8.550
 5157POPC   D2A12676  33.810  21.416   8.250
 5157POPC   C3A12677  33.811  21.396   7.950
 5157POPC   C4A12678  33.763  21.357   7.650
 5157POPC   C1B12679  33.609  21.481   8.550
 5157POPC   C2B12680  33.608  21.514   8.250
 5157POPC   C3B12681  33.634  21.486   7.950
 5157POPC   C4B12682  33.617  21.516   7.650
 5158POPC   NC312683  28.397  32.235   9.450
 5158POPC   PO412684  28.385  32.226   9.150
 5158POPC   GL112685  28.363  32.249   8.850
 5158POPC   GL212686  28.497  32.257   8.850
 5158POPC   C1A12687  28.395  32.263   8.550
 5158POPC   D2A12688  28.402  32.285   8.250
 5158POPC   C3A12689  28.393  32.267   7.950
 5158POPC   C4A12690  28.385  32.204   7.650
 5158POPC   C1B12691  28.594  32.340   8.550
 5158POPC   C2B12692  28.598  32.384   8.250
 5158POPC   C3B12693  28.600  32.359   7.950
 5158POPC   C4B12694  28.589  32.358   7.650
 5159POPC   NC312695   7.394   8.187   9.450
 5159POPC   PO412696   7.445   8.218   9.150
 5159POPC   GL112697   7.453   8.213   8.850
 5159POPC   GL212698   7.394   8.309   8.850
 5159POPC   C1A12699   7.393   8.166   8.550
 5159POPC   D2A12700   7.441   8.188   8.250
 5159POPC   C3A12701   7.440   8.224   7.950
 5159POPC   C4A12702   7.453   8.214   7.650
 5159POPC   C1B12703   7.288   8.447   8.550
 5159POPC   C2B12704   7.323   8.424   8.250
 5159POPC   C3B12705   7.306   8.379   7.950
 5159POPC   C4B12706   7.303   8.430   7.650
 5160POPC   NC312707  43.068   0.409   9.450
 5160POPC   PO412708  43.160   0.419   9.150
 5160POPC   GL112709  43.136   0.415   8.850
 5160POPC   GL212710  43.189   0.272   8.850
 5160POPC   C1A12711  43.097   0.416   8.550
 5160POPC   D2A12712  43.140   0.428   8.250
 5160POPC   C3A12713  43.085   0.422   7.950
 5160POPC   C4A12714  43.118   0.455   7.650
 5160POPC   C1B12715  43.139   0.238   8.550
 5160POPC   C2B12716  43.186   0.169   8.250
 5160POPC   C3B12717  43.152   0.209   7.950
 5160POPC   C4B12718  43.228   0.179   7.650
 5161POPC   NC312719  15.169   4.296   9.450
 5161POPC   PO412720  15.158   4.330   9.150
 5161POPC   GL112721  15.171   4.282   8.850
 5161POPC   GL212722  15.253   4.271   8.850
 5161POPC   C1A12723  15.179   4.345   8.550
 5161POPC   D2A12724  15.228   4.356   8.250
 5161POPC   C3A12725  15.202   4.339   7.950
 5161POPC   C4A12726  15.176   4.356   7.650
 5161POPC   C1B12727  15.428   4.231   8.550
 5161POPC   C2B12728  15.440   4.280   8.250
 5161POPC   C3B12729  15.421   4.222   7.950
 5161POPC   C4B12730  15.412   4.229   7.650
 5162POPC   NC312731   1.192  20.587   9.450
 5162POPC   PO412732   1.178  20.616   9.150
 5162POPC   GL112733   1.248  20.590   8.850
 5162POPC   GL212734   1.177  20.689   8.850
 5162POPC   C1A12735   1.205  20.579   8.550
 5162POPC   D2A12736   1.249  20.655   8.250
 5162POPC   C3A12737   1.220  20.655   7.950
 5162POPC   C4A12738   1.181  20.607   7.650
 5162POPC   C1B12739   1.196  20.846   8.550
 5162POPC   C2B12740   1.182  20.809   8.250
 5162POPC   C3B12741   1.153  20.836   7.950
 5162POPC   C4B12742   1.143  20.878   7.650
 5163POPC   NC312743   9.769   5.127   9.450
 5163POPC   PO412744   9.777   5.049   9.150
 5163POPC   GL112745   9.780   5.122   8.850
 5163POPC   GL212746   9.689   5.171   8.850
 5163POPC   C1A12747   9.779   5.095   8.550
 5163POPC   D2A12748   9.765   5.061   8.250
 5163POPC   C3A12749   9.782   5.103   7.950
 5163POPC   C4A12750   9.792   5.102   7.650
 5163POPC   C1B12751   9.546   5.263   8.550
 5163POPC   C2B12752   9.544   5.223   8.250
 5163POPC   C3B12753   9.497   5.264   7.950
 5163POPC   C4B12754   9.583   5.262   7.650
 5164POPC   NC312755  35.323  29.105   9.450
 5164POPC   PO412756  35.387  29.148   9.150
 5164POPC   GL112757  35.324  29.146   8.850
 5164POPC   GL212758  35.472  29.041   8.850
 5164POPC   C1A12759  35.313  29.189   8.550
 5164POPC   D2A12760  35.398  29.168   8.250
 5164POPC   C3A12761  35.325  29.102   7.950
 5164POPC   C4A12762  35.325  29.185   7.650
 5164POPC   C1B12763  35.524  28.995   8.550
 5164POPC   C2B12764  35.489  29.006   8.250
 5164POPC   C3B12765  35.508  29.012   7.950
 5164POPC   C4B12766  35.494  28.932   7.650
 5165POPC   NC312767  19.836   4.323   9.450
 5165POPC   PO412768  19.860   4.318   9.150
 5165POPC   GL112769  19.867   4.311   8.850
 5165POPC   GL212770  19.709   4.445   8.850
 5165POPC   C1A12771  19.858   4.341   8.550
 5165POPC   D2A12772  19.879   4.352   8.250
 5165POPC   C3A12773  19.820   4.328   7.950
 5165POPC   C4A12774  19.813   4.320   7.650
 5165POPC   C1B12775  19.606   4.525   8.550
 5165POPC   C2B12776  19.606   4.467   8.250
 5165POPC   C3B12777  19.653   4.522   7.950
 5165POPC   C4B12778  19.608   4.476   7.650
 5166POPC   NC312779  29.907  39.967   9.450
 5166POPC   PO412780  29.894  39.961   9.150
 5166POPC   GL112781  29.934  39.970   8.850
 5166POPC   GL212782  29.820  40.164   8.850
 5166POPC   C1A12783  29.917  39.981   8.550
 5166POPC   D2A12784  29.936  40.045   8.250
 5166POPC   C3A12785  29.894  39.965   7.950
 5166POPC   C4A12786  29.899  39.987   7.650
 5166POPC   C1B12787  29.762  40.192   8.550
 5166POPC   C2B12788  29.773  40.229   8.250
 5166POPC   C3B12789  29.837  40.250   7.950
 5166POPC   C4B12790  29.756  40.203   7.650
 5167POPC   NC312791  43.862  25.267   9.450
 5167POPC   PO412792  43.876  25.308   9.150
 5167POPC   GL112793  43.882  25.299   8.850
 5167POPC   GL212794  43.848  25.400   8.850
 5167POPC   C1A12795  43.898  25.232   8.550
 5167POPC   D2A12796  43.846  25.249   8.250
 5167POPC   C3A12797  43.911  25.288   7.950
 5167POPC   C4A12798  43.896  25.286   7.650
 5167POPC   C1B12799  43.701  25.442   8.550
 5167POPC   C2B12800  43.755  25.441   8.250
 5167POPC   C3B12801  43.772  25.453   7.950
 5167POPC   C4B12802  43.727  25.448   7.650
 5168POPC   NC312803   8.937  32.236   9.450
 5168POPC   PO412804   8.940  32.252   9.150
 5168POPC   GL112805   8.988  32.262   8.850
 5168POPC   GL212806   8.919  32.114   8.850
 5168POPC   C1A12807   8.938  32.245   8.550
 5168POPC   D2A12808   8.971  32.274   8.250
 5168POPC   C3A12809   8.985  32.266   7.950
 5168POPC   C4A12810   8.991  32.290   7.650
 5168POPC   C1B12811   8.869  32.068   8.550
 5168POPC   C2B12812   8.812  32.006   8.250
 5168POPC   C3B12813   8.851  32.030   7.950
 5168POPC   C4B12814   8.844  32.057   7.650
 5169POPC   NC312815  35.327  12.888   9.450
 5169POPC   PO412816  35.309  12.873   9.150
 5169POPC   GL112817  35.362  12.878   8.850
 5169POPC   GL212818  35.229  12.869   8.850
 5169POPC   C1A12819  35.337  12.881   8.550
 5169POPC   D2A12820  35.318  12.891   8.250
 5169POPC   C3A12821  35.358  12.886   7.950
 5169POPC   C4A12822  35.368  12.812   7.650
 5169POPC   C1B12823  35.105  12.916   8.550
 5169POPC   C2B12824  35.138  12.990   8.250
 5169POPC   C3B12825  35.109  12.947   7.950
 5169POPC   C4B12826  35.131  12.907   7.650
 5170POPC   NC312827  22.146  33.844   9.450
 5170POPC   PO412828  22.150  33.822   9.150
 5170POPC   GL112829  22.151  33.811   8.850
 5170POPC   GL212830  22.105  33.715   8.850
 5170POPC   C1A12831  22.205  33.825   8.550
 5170POPC   D2A12832  22.209  33.807   8.250
 5170POPC   C3A12833  22.155  33.771   7.950
 5170POPC   C4A12834  22.189  33.819   7.650
 5170POPC   C1B12835  22.050  33.562   8.550
 5170POPC   C2B12836  22.066  33.613   8.250
 5170POPC   C3B12837  22.063  33.610   7.950
 5170POPC   C4B12838  22.013  33.558   7.650
 5171POPC   NC312839  43.847   5.139   9.450
 5171POPC   PO412840  43.883   5.095   9.150
 5171POPC   GL112841  43.920   5.105   8.850
 5171POPC   GL212842  43.811   4.953   8.850
 5171POPC   C1A12843  43.927   5.140   8.550
 5171POPC   D2A12844  43.853   5.141   8.250
 5171POPC   C3A12845  43.927   5.117   7.950
 5171POPC   C4A12846  43.880   5.055   7.650
 5171POPC   C1B12847  43.824   4.832   8.550
 5171POPC   C2B12848  43.767   4.862   8.250
 5171POPC   C3B12849  43.826   4.895   7.950
 5171POPC   C4B12850  43.764   4.896   7.650
 5172POPC   NC312851  44.635  15.148   9.450
 5172POPC   PO412852  44.651  15.189   9.150
 5172POPC   GL112853  44.697  15.183   8.850
 5172POPC   GL212854  44.555  15.316   8.850
 5172POPC   C1A12855  44.676  15.197   8.550
 5172POPC   D2A12856  44.656  15.175   8.250
 5172POPC   C3A12857  44.706  15.164   7.950
 5172POPC   C4A12858  44.653  15.158   7.650
 5172POPC   C1B12859  44.547  15.349   8.550
 5172POPC   C2B12860  44.547  15.421   8.250
 5172POPC   C3B12861  44.523  15.381   7.950
 5172POPC   C4B12862  44.513  15.425   7.650
 5173POPC   NC312863  36.103  20.568   9.450
 5173POPC   PO412864  36.115  20.650   9.150
 5173POPC   GL112865  36.114  20.654   8.850
 5173POPC   GL212866  36.067  20.524   8.850
 5173POPC   C1A12867  36.156  20.571   8.550
 5173POPC   D2A12868  36.151  20.588   8.250
 5173POPC   C3A12869  36.156  20.564   7.950
 5173POPC   C4A12870  36.145  20.656   7.650
 5173POPC   C1B12871  35.898  20.448   8.550
 5173POPC   C2B12872  35.934  20.413   8.250
 5173POPC   C3B12873  35.920  20.478   7.950
 5173POPC   C4B12874  35.904  20.423   7.650
 5174POPC   NC312875  34.612  29.159   9.450
 5174POPC   PO412876  34.617  29.107   9.150
 5174POPC   GL112877  34.617  29.141   8.850
 5174POPC   GL212878  34.565  29.024   8.850
 5174POPC   C1A12879  34.575  29.132   8.550
 5174POPC   D2A12880  34.526  29.125   8.250
 5174POPC   C3A12881  34.601  29.147   7.950
 5174POPC   C4A12882  34.618  29.166   7.650
 5174POPC   C1B12883  34.578  28.845   8.550
 5174POPC   C2B12884  34.621  28.864   8.250
 5174POPC   C3B12885  34.594  28.867   7.950
 5174POPC   C4B12886  34.547  28.866   7.650
 5175POPC   NC312887  29.187  23.714   9.450
 5175POPC   PO412888  29.194  23.669   9.150
 5175POPC   GL112889  29.156  23.734   8.850
 5175POPC   GL212890  29.113  23.847   8.850
 5175POPC   C1A12891  29.151  23.679   8.550
 5175POPC   D2A12892  29.179  23.700   8.250
 5175POPC   C3A12893  29.153  23.717   7.950
 5175POPC   C4A12894  29.193  23.756   7.650
 5175POPC   C1B12895  29.066  23.919   8.550
 5175POPC   C2B12896  29.095  23.988   8.250
 5175POPC   C3B12897  29.114  23.974   7.950
 5175POPC   C4B12898  29.118  23.954   7.650
 5176POPC   NC312899  26.819  31.513   9.450
 5176POPC   PO412900  26.787  31.493   9.150
 5176POPC   GL112901  26.842  31.465   8.850
 5176POPC   GL212902  26.896  31.464   8.850
 5176POPC   C1A12903  26.815  31.495   8.550
 5176POPC   D2A12904  26.806  31.503   8.250
 5176POPC   C3A12905  26.857  31.429   7.950
 5176POPC   C4A12906  26.815  31.514   7.650
 5176POPC   C1B12907  27.028  31.561   8.550
 5176POPC   C2B12908  27.033  31.493   8.250
 5176POPC   C3B12909  27.032  31.489   7.950
 5176POPC   C4B12910  27.030  31.498   7.650
 5177POPC   NC312911  22.965   5.886   9.450
 5177POPC   PO412912  22.942   5.847   9.150
 5177POPC   GL112913  22.964   5.906   8.850
 5177POPC   GL212914  22.905   6.019   8.850
 5177POPC   C1A12915  22.902   5.856   8.550
 5177POPC   D2A12916  22.900   5.894   8.250
 5177POPC   C3A12917  22.976   5.860   7.950
 5177POPC   C4A12918  22.961   5.899   7.650
 5177POPC   C1B12919  22.939   6.123   8.550
 5177POPC   C2B12920  22.933   6.128   8.250
 5177POPC   C3B12921  22.947   6.118   7.950
 5177POPC   C4B12922  22.919   6.133   7.650
 5178POPC   NC312923  29.156  33.041   9.450
 5178POPC   PO412924  29.126  33.068   9.150
 5178POPC   GL112925  29.186  33.071   8.850
 5178POPC   GL212926  29.151  32.877   8.850
 5178POPC   C1A12927  29.118  33.042   8.550
 5178POPC   D2A12928  29.181  32.985   8.250
 5178POPC   C3A12929  29.098  33.054   7.950
 5178POPC   C4A12930  29.171  32.983   7.650
 5178POPC   C1B12931  29.023  32.813   8.550
 5178POPC   C2B12932  29.047  32.814   8.250
 5178POPC   C3B12933  29.047  32.758   7.950
 5178POPC   C4B12934  29.025  32.746   7.650
 5179POPC   NC312935  13.632  26.057   9.450
 5179POPC   PO412936  13.592  25.999   9.150
 5179POPC   GL112937  13.652  26.070   8.850
 5179POPC   GL212938  13.686  26.120   8.850
 5179POPC   C1A12939  13.663  26.070   8.550
 5179POPC   D2A12940  13.594  26.007   8.250
 5179POPC   C3A12941  13.608  26.081   7.950
 5179POPC   C4A12942  13.604  26.054   7.650
 5179POPC   C1B12943  13.780  26.196   8.550
 5179POPC   C2B12944  13.772  26.254   8.250
 5179POPC   C3B12945  13.765  26.186   7.950
 5179POPC   C4B12946  13.768  26.251   7.650
 5180POPC   NC312947   7.437  25.283   9.450
 5180POPC   PO412948   7.402  25.266   9.150
 5180POPC   GL112949   7.377  25.230   8.850
 5180POPC   GL212950   7.441  25.166   8.850
 5180POPC   C1A12951   7.398  25.291   8.550
 5180POPC   D2A12952   7.416  25.227   8.250
 5180POPC   C3A12953   7.469  25.295   7.950
 5180POPC   C4A12954   7.385  25.272   7.650
 5180POPC   C1B12955   7.400  25.039   8.550
 5180POPC   C2B12956   7.430  25.050   8.250
 5180POPC   C3B12957   7.424  24.977   7.950
 5180POPC   C4B12958   7.390  25.010   7.650
 5181POPC   NC312959  43.916  43.882   9.450
 5181POPC   PO412960  43.925  43.902   9.150
 5181POPC   GL112961  43.881  43.867   8.850
 5181POPC   GL212962  43.773  43.824   8.850
 5181POPC   C1A12963  43.838  43.844   8.550
 5181POPC   D2A12964  43.880  43.924   8.250
 5181POPC   C3A12965  43.876  43.876   7.950
 5181POPC   C4A12966  43.926  43.925   7.650
 5181POPC   C1B12967  43.717  43.685   8.550
 5181POPC   C2B12968  43.703  43.653   8.250
 5181POPC   C3B12969  43.775  43.730   7.950
 5181POPC   C4B12970  43.717  43.722   7.650
 5182POPC   NC312971  43.138   6.666   9.450
 5182POPC   PO412972  43.140   6.610   9.150
 5182POPC   GL112973  43.147   6.610   8.850
 5182POPC   GL212974  43.277   6.683   8.850
 5182POPC   C1A12975  43.090   6.596   8.550
 5182POPC   D2A12976  43.143   6.670   8.250
 5182POPC   C3A12977  43.150   6.669   7.950
 5182POPC   C4A12978  43.083   6.603   7.650
 5182POPC   C1B12979  43.390   6.689   8.550
 5182POPC   C2B12980  43.334   6.684   8.250
 5182POPC   C3B12981  43.344   6.680   7.950
 5182POPC   C4B12982  43.324   6.654   7.650
 5183POPC   NC312983   5.090  38.503   9.450
 5183POPC   PO412984   5.084  38.450   9.150
 5183POPC   GL112985   5.132  38.459   8.850
 5183POPC   GL212986   5.186  38.314   8.850
 5183POPC   C1A12987   5.071  38.447   8.550
 5183POPC   D2A12988   5.121  38.486   8.250
 5183POPC   C3A12989   5.072  38.463   7.950
 5183POPC   C4A12990   5.123  38.438   7.650
 5183POPC   C1B12991   5.267  38.296   8.550
 5183POPC   C2B12992   5.247  38.236   8.250
 5183POPC   C3B12993   5.242  38.277   7.950
 5183POPC   C4B12994   5.266  38.286   7.650
 5184POPC   NC312995  22.116   8.962   9.450
 5184POPC   PO412996  22.202   8.993   9.150
 5184POPC   GL112997  22.139   8.944   8.850
 5184POPC   GL212998  22.047   8.916   8.850
 5184POPC   C1A12999  22.182   8.977   8.550
 5184POPC   D2A13000  22.167   8.974   8.250
 5184POPC   C3A13001  22.200   8.924   7.950
 5184POPC   C4A13002  22.117   8.928   7.650
 5184POPC   C1B13003  21.990   8.766   8.550
 5184POPC   C2B13004  21.997   8.767   8.250
 5184POPC   C3B13005  21.989   8.832   7.950
 5184POPC   C4B13006  21.988   8.837   7.650
 5185POPC   NC313007  43.901  11.322   9.450
 5185POPC   PO413008  43.915  11.348   9.150
 5185POPC   GL113009  43.913  11.282   8.850
 5185POPC   GL213010  43.841  11.412   8.850
 5185POPC   C1A13011  43.911  11.337   8.550
 5185POPC   D2A13012  43.915  11.318   8.250
 5185POPC   C3A13013  43.913  11.290   7.950
 5185POPC   C4A13014  43.878  11.263   7.650
 5185POPC   C1B13015  43.898  11.589   8.550
 5185POPC   C2B13016  43.878  11.565   8.250
 5185POPC   C3B13017  43.906  11.589   7.950
 5185POPC   C4B13018  43.911  11.545   7.650
 5186POPC   NC313019  16.735   8.927   9.450
 5186POPC   PO413020  16.711   8.980   9.150
 5186POPC   GL113021  16.764   8.933   8.850
 5186POPC   GL213022  16.740   9.094   8.850
 5186POPC   C1A13023  16.727   8.933   8.550
 5186POPC   D2A13024  16.738   8.965   8.250
 5186POPC   C3A13025  16.728   8.956   7.950
 5186POPC   C4A13026  16.717   8.989   7.650
 5186POPC   C1B13027  16.784   9.194   8.550
 5186POPC   C2B13028  16.791   9.217   8.250
 5186POPC   C3B13029  16.824   9.220   7.950
 5186POPC   C4B13030  16.789   9.194   7.650
 5187POPC   NC313031  29.926   3.530   9.450
 5187POPC   PO413032  29.915   3.539   9.150
 5187POPC   GL113033  29.943   3.538   8.850
 5187POPC   GL213034  29.877   3.432   8.850
 5187POPC   C1A13035  29.925   3.582   8.550
 5187POPC   D2A13036  29.943   3.560   8.250
 5187POPC   C3A13037  29.904   3.590   7.950
 5187POPC   C4A13038  29.889   3.585   7.650
 5187POPC   C1B13039  29.725   3.309   8.550
 5187POPC   C2B13040  29.732   3.302   8.250
 5187POPC   C3B13041  29.772   3.357   7.950
 5187POPC   C4B13042  29.755   3.352   7.650
 5188POPC   NC313043  15.187  43.103   9.450
 5188POPC   PO413044  15.210  43.127   9.150
 5188POPC   GL113045  15.184  43.082   8.850
 5188POPC   GL213046  15.090  43.142   8.850
 5188POPC   C1A13047  15.209  43.064   8.550
 5188POPC   D2A13048  15.156  43.138   8.250
 5188POPC   C3A13049  15.173  43.125   7.950
 5188POPC   C4A13050  15.179  43.085   7.650
 5188POPC   C1B13051  14.953  43.084   8.550
 5188POPC   C2B13052  14.952  43.079   8.250
 5188POPC   C3B13053  14.922  43.093   7.950
 5188POPC   C4B13054  14.885  43.037   7.650
 5189POPC   NC313055  11.325  29.104   9.450
 5189POPC   PO413056  11.307  29.170   9.150
 5189POPC   GL113057  11.312  29.175   8.850
 5189POPC   GL213058  11.409  29.089   8.850
 5189POPC   C1A13059  11.312  29.101   8.550
 5189POPC   D2A13060  11.275  29.144   8.250
 5189POPC   C3A13061  11.275  29.168   7.950
 5189POPC   C4A13062  11.273  29.188   7.650
 5189POPC   C1B13063  11.462  29.027   8.550
 5189POPC   C2B13064  11.483  28.989   8.250
 5189POPC   C3B13065  11.512  29.005   7.950
 5189POPC   C4B13066  11.515  29.047   7.650
 5190POPC   NC313067  43.869  12.883   9.450
 5190POPC   PO413068  43.863  12.875   9.150
 5190POPC   GL113069  43.845  12.835   8.850
 5190POPC   GL213070  43.809  12.972   8.850
 5190POPC   C1A13071  43.848  12.864   8.550
 5190POPC   D2A13072  43.926  12.848   8.250
 5190POPC   C3A13073  43.889  12.821   7.950
 5190POPC   C4A13074  43.849  12.823   7.650
 5190POPC   C1B13075  43.702  13.083   8.550
 5190POPC   C2B13076  43.738  13.035   8.250
 5190POPC   C3B13077  43.767  13.051   7.950
 5190POPC   C4B13078  43.747  13.107   7.650
 5191POPC   NC313079   4.310  14.360   9.450
 5191POPC   PO413080   4.332  14.371   9.150
 5191POPC   GL113081   4.365  14.400   8.850
 5191POPC   GL213082   4.190  14.417   8.850
 5191POPC   C1A13083   4.354  14.396   8.550
 5191POPC   D2A13084   4.301  14.423   8.250
 5191POPC   C3A13085   4.338  14.388   7.950
 5191POPC   C4A13086   4.309  14.368   7.650
 5191POPC   C1B13087   4.067  14.352   8.550
 5191POPC   C2B13088   4.063  14.322   8.250
 5191POPC   C3B13089   4.118  14.350   7.950
 5191POPC   C4B13090   4.104  14.352   7.650
 5192POPC   NC313091   7.457  26.839   9.450
 5192POPC   PO413092   7.389  26.839   9.150
 5192POPC   GL113093   7.401  26.857   8.850
 5192POPC   GL213094   7.492  26.659   8.850
 5192POPC   C1A13095   7.388  26.794   8.550
 5192POPC   D2A13096   7.450  26.779   8.250
 5192POPC   C3A13097   7.439  26.839   7.950
 5192POPC   C4A13098   7.434  26.867   7.650
 5192POPC   C1B13099   7.521  26.564   8.550
 5192POPC   C2B13100   7.459  26.578   8.250
 5192POPC   C3B13101   7.509  26.591   7.950
 5192POPC   C4B13102   7.504  26.614   7.650
 5193POPC   NC313103  27.634  15.907   9.450
 5193POPC   PO413104  27.625  15.973   9.150
 5193POPC   GL113105  27.600  15.967   8.850
 5193POPC   GL213106  27.453  15.966   8.850
 5193POPC   C1A13107  27.548  15.954   8.550
 5193POPC   D2A13108  27.588  15.962   8.250
 5193POPC   C3A13109  27.548  15.989   7.950
 5193POPC   C4A13110  27.632  15.915   7.650
 5193POPC   C1B13111  27.352  15.987   8.550
 5193POPC   C2B13112  27.351  15.908   8.250
 5193POPC   C3B13113  27.317  15.945   7.950
 5193POPC   C4B13114  27.338  15.936   7.650
 5194POPC   NC313115  21.403  33.030   9.450
 5194POPC   PO413116  21.407  33.000   9.150
 5194POPC   GL113117  21.362  33.067   8.850
 5194POPC   GL213118  21.438  33.141   8.850
 5194POPC   C1A13119  21.389  33.018   8.550
 5194POPC   D2A13120  21.408  33.031   8.250
 5194POPC   C3A13121  21.364  33.066   7.950
 5194POPC   C4A13122  21.426  33.054   7.650
 5194POPC   C1B13123  21.467  33.296   8.550
 5194POPC   C2B13124  21.528  33.231   8.250
 5194POPC   C3B13125  21.533  33.259   7.950
 5194POPC   C4B13126  21.518  33.259   7.650
 5195POPC   NC313127   0.404   8.953   9.450
 5195POPC   PO413128   0.481   9.008   9.150
 5195POPC   GL113129   0.470   9.000   8.850
 5195POPC   GL213130   0.447   9.115   8.850
 5195POPC   C1A13131   0.420   8.988   8.550
 5195POPC   D2A13132   0.461   8.981   8.250
 5195POPC   C3A13133   0.400   8.996   7.950
 5195POPC   C4A13134   0.450   9.011   7.650
 5195POPC   C1B13135   0.519   9.218   8.550
 5195POPC   C2B13136   0.512   9.215   8.250
 5195POPC   C3B13137   0.520   9.220   7.950
 5195POPC   C4B13138   0.489   9.193   7.650
 5196POPC   NC313139  39.204  41.530   9.450
 5196POPC   PO413140  39.223  41.598   9.150
 5196POPC   GL113141  39.222  41.513   8.850
 5196POPC   GL213142  39.210  41.385   8.850
 5196POPC   C1A13143  39.251  41.537   8.550
 5196POPC   D2A13144  39.214  41.595   8.250
 5196POPC   C3A13145  39.219  41.596   7.950
 5196POPC   C4A13146  39.193  41.554   7.650
 5196POPC   C1B13147  39.207  41.288   8.550
 5196POPC   C2B13148  39.242  41.289   8.250
 5196POPC   C3B13149  39.190  41.348   7.950
 5196POPC   C4B13150  39.226  41.346   7.650
 5197POPC   NC313151  22.114   1.236   9.450
 5197POPC   PO413152  22.196   1.232   9.150
 5197POPC   GL113153  22.191   1.244   8.850
 5197POPC   GL213154  22.076   1.250   8.850
 5197POPC   C1A13155  22.207   1.185   8.550
 5197POPC   D2A13156  22.137   1.207   8.250
 5197POPC   C3A13157  22.203   1.259   7.950
 5197POPC   C4A13158  22.168   1.224   7.650
 5197POPC   C1B13159  21.901   1.223   8.550
 5197POPC   C2B13160  21.898   1.286   8.250
 5197POPC   C3B13161  21.961   1.245   7.950
 5197POPC   C4B13162  21.881   1.279   7.650
 5198POPC   NC313163  17.511  36.908   9.450
 5198POPC   PO413164  17.517  36.856   9.150
 5198POPC   GL113165  17.542  36.941   8.850
 5198POPC   GL213166  17.432  37.000   8.850
 5198POPC   C1A13167  17.487  36.939   8.550
 5198POPC   D2A13168  17.497  36.894   8.250
 5198POPC   C3A13169  17.555  36.943   7.950
 5198POPC   C4A13170  17.500  36.928   7.650
 5198POPC   C1B13171  17.448  37.111   8.550
 5198POPC   C2B13172  17.448  37.096   8.250
 5198POPC   C3B13173  17.404  37.154   7.950
 5198POPC   C4B13174  17.422  37.181   7.650
 5199POPC   NC313175   4.294  39.244   9.450
 5199POPC   PO413176   4.341  39.276   9.150
 5199POPC   GL113177   4.327  39.200   8.850
 5199POPC   GL213178   4.428  39.234   8.850
 5199POPC   C1A13179   4.327  39.242   8.550
 5199POPC   D2A13180   4.292  39.187   8.250
 5199POPC   C3A13181   4.353  39.278   7.950
 5199POPC   C4A13182   4.358  39.263   7.650
 5199POPC   C1B13183   4.566  39.152   8.550
 5199POPC   C2B13184   4.591  39.163   8.250
 5199POPC   C3B13185   4.543  39.247   7.950
 5199POPC   C4B13186   4.543  39.211   7.650
 5200POPC   NC313187   4.356  43.918   9.450
 5200POPC   PO413188   4.290  43.914   9.150
 5200POPC   GL113189   4.301  43.852   8.850
 5200POPC   GL213190   4.289  43.766   8.850
 5200POPC   C1A13191   4.348  43.855   8.550
 5200POPC   D2A13192   4.283  43.919   8.250
 5200POPC   C3A13193   4.345  43.868   7.950
 5200POPC   C4A13194   4.334  43.922   7.650
 5200POPC   C1B13195   4.301  43.685   8.550
 5200POPC   C2B13196   4.287  43.594   8.250
 5200POPC   C3B13197   4.290  43.639   7.950
 5200POPC   C4B13198   4.253  43.598   7.650
 5201POPC   NC313199  16.700   0.397   9.450
 5201POPC   PO413200  16.685   0.441   9.150
 5201POPC   GL113201  16.719   0.406   8.850
 5201POPC   GL213202  16.810   0.395   8.850
 5201POPC   C1A13203  16.772   0.473   8.550
 5201POPC   D2A13204  16.736   0.444   8.250
 5201POPC   C3A13205  16.780   0.418   7.950
 5201POPC   C4A13206  16.717   0.400   7.650
 5201POPC   C1B13207  16.887   0.238   8.550
 5201POPC   C2B13208  16.887   0.216   8.250
 5201POPC   C3B13209  16.859   0.216   7.950
 5201POPC   C4B13210  16.943   0.263   7.650
 5202POPC   NC313211  21.341  14.433   9.450
 5202POPC   PO413212  21.393  14.440   9.150
 5202POPC   GL113213  21.391  14.391   8.850
 5202POPC   GL213214  21.412  14.550   8.850
 5202POPC   C1A13215  21.383  14.396   8.550
 5202POPC   D2A13216  21.404  14.449   8.250
 5202POPC   C3A13217  21.387  14.423   7.950
 5202POPC   C4A13218  21.359  14.422   7.650
 5202POPC   C1B13219  21.433  14.669   8.550
 5202POPC   C2B13220  21.342  14.606   8.250
 5202POPC   C3B13221  21.419  14.656   7.950
 5202POPC   C4B13222  21.384  14.690   7.650
 5203POPC   NC313223   0.395  25.293   9.450
 5203POPC   PO413224   0.455  25.303   9.150
 5203POPC   GL113225   0.394  25.240   8.850
 5203POPC   GL213226   0.481  25.142   8.850
 5203POPC   C1A13227   0.424  25.268   8.550
 5203POPC   D2A13228   0.415  25.296   8.250
 5203POPC   C3A13229   0.422  25.259   7.950
 5203POPC   C4A13230   0.396  25.301   7.650
 5203POPC   C1B13231   0.512  25.009   8.550
 5203POPC   C2B13232   0.578  25.075   8.250
 5203POPC   C3B13233   0.535  25.027   7.950
 5203POPC   C4B13234   0.510  25.035   7.650
 5204POPC   NC313235  19.841   3.586   9.450
 5204POPC   PO413236  19.802   3.573   9.150
 5204POPC   GL113237  19.858   3.533   8.850
 5204POPC   GL213238  19.962   3.537   8.850
 5204POPC   C1A13239  19.863   3.518   8.550
 5204POPC   D2A13240  19.809   3.548   8.250
 5204POPC   C3A13241  19.882   3.518   7.950
 5204POPC   C4A13242  19.846   3.541   7.650
 5204POPC   C1B13243  20.049   3.436   8.550
 5204POPC   C2B13244  20.022   3.493   8.250
 5204POPC   C3B13245  20.113   3.503   7.950
 5204POPC   C4B13246  20.078   3.456   7.650
 5205POPC   NC313247  28.404  24.514   9.450
 5205POPC   PO413248  28.374  24.515   9.150
 5205POPC   GL113249  28.370  24.455   8.850
 5205POPC   GL213250  28.529  24.511   8.850
 5205POPC   C1A13251  28.359  24.488   8.550
 5205POPC   D2A13252  28.417  24.462   8.250
 5205POPC   C3A13253  28.409  24.514   7.950
 5205POPC   C4A13254  28.354  24.526   7.650
 5205POPC   C1B13255  28.610  24.498   8.550
 5205POPC   C2B13256  28.616  24.480   8.250
 5205POPC   C3B13257  28.586  24.424   7.950
 5205POPC   C4B13258  28.638  24.450   7.650
 5206POPC   NC313259  11.324   4.357   9.450
 5206POPC   PO413260  11.332   4.338   9.150
 5206POPC   GL113261  11.345   4.337   8.850
 5206POPC   GL213262  11.387   4.196   8.850
 5206POPC   C1A13263  11.259   4.306   8.550
 5206POPC   D2A13264  11.291   4.357   8.250
 5206POPC   C3A13265  11.251   4.322   7.950
 5206POPC   C4A13266  11.294   4.283   7.650
 5206POPC   C1B13267  11.394   4.067   8.550
 5206POPC   C2B13268  11.424   4.138   8.250
 5206POPC   C3B13269  11.392   4.085   7.950
 5206POPC   C4B13270  11.458   4.093   7.650
 5207POPC   NC313271   3.586  17.499   9.450
 5207POPC   PO413272   3.526  17.475   9.150
 5207POPC   GL113273   3.508  17.491   8.850
 5207POPC   GL213274   3.468  17.566   8.850
 5207POPC   C1A13275   3.578  17.520   8.550
 5207POPC   D2A13276   3.560  17.543   8.250
 5207POPC   C3A13277   3.584  17.516   7.950
 5207POPC   C4A13278   3.581  17.539   7.650
 5207POPC   C1B13279   3.372  17.657   8.550
 5207POPC   C2B13280   3.400  17.685   8.250
 5207POPC   C3B13281   3.408  17.734   7.950
 5207POPC   C4B13282   3.387  17.727   7.650
 5208POPC   NC313283  43.909  18.268   9.450
 5208POPC   PO413284  43.858  18.235   9.150
 5208POPC   GL113285  43.899  18.239   8.850
 5208POPC   GL213286  43.778  18.316   8.850
 5208POPC   C1A13287  43.881  18.309   8.550
 5208POPC   D2A13288  43.840  18.283   8.250
 5208POPC   C3A13289  43.930  18.254   7.950
 5208POPC   C4A13290  43.873  18.331   7.650
 5208POPC   C1B13291  43.665  18.264   8.550
 5208POPC   C2B13292  43.613  18.251   8.250
 5208POPC   C3B13293  43.626  18.291   7.950
 5208POPC   C4B13294  43.589  18.276   7.650
 5209POPC   NC313295  28.361   3.567   9.450
 5209POPC   PO413296  28.414   3.554   9.150
 5209POPC   GL113297  28.395   3.586   8.850
 5209POPC   GL213298  28.452   3.483   8.850
 5209POPC   C1A13299  28.391   3.503   8.550
 5209POPC   D2A13300  28.364   3.495   8.250
 5209POPC   C3A13301  28.364   3.572   7.950
 5209POPC   C4A13302  28.331   3.543   7.650
 5209POPC   C1B13303  28.600   3.365   8.550
 5209POPC   C2B13304  28.609   3.361   8.250
 5209POPC   C3B13305  28.582   3.433   7.950
 5209POPC   C4B13306  28.543   3.393   7.650
 5210POPC   NC313307  35.312  38.456   9.450
 5210POPC   PO413308  35.349  38.451   9.150
 5210POPC   GL113309  35.317  38.485   8.850
 5210POPC   GL213310  35.488  38.520   8.850
 5210POPC   C1A13311  35.339  38.473   8.550
 5210POPC   D2A13312  35.358  38.455   8.250
 5210POPC   C3A13313  35.359  38.497   7.950
 5210POPC   C4A13314  35.380  38.411   7.650
 5210POPC   C1B13315  35.486  38.582   8.550
 5210POPC   C2B13316  35.536  38.618   8.250
 5210POPC   C3B13317  35.572  38.615   7.950
 5210POPC   C4B13318  35.504  38.678   7.650
 5211POPC   NC313319   9.758  21.377   9.450
 5211POPC   PO413320   9.754  21.382   9.150
 5211POPC   GL113321   9.792  21.408   8.850
 5211POPC   GL213322   9.762  21.461   8.850
 5211POPC   C1A13323   9.787  21.420   8.550
 5211POPC   D2A13324   9.710  21.434   8.250
 5211POPC   C3A13325   9.702  21.367   7.950
 5211POPC   C4A13326   9.779  21.399   7.650
 5211POPC   C1B13327   9.807  21.630   8.550
 5211POPC   C2B13328   9.810  21.646   8.250
 5211POPC   C3B13329   9.835  21.634   7.950
 5211POPC   C4B13330   9.749  21.667   7.650
 5212POPC   NC313331  43.084  23.743   9.450
 5212POPC   PO413332  43.128  23.681   9.150
 5212POPC   GL113333  43.104  23.727   8.850
 5212POPC   GL213334  43.037  23.758   8.850
 5212POPC   C1A13335  43.076  23.746   8.550
 5212POPC   D2A13336  43.100  23.724   8.250
 5212POPC   C3A13337  43.103  23.748   7.950
 5212POPC   C4A13338  43.087  23.716   7.650
 5212POPC   C1B13339  42.913  23.847   8.550
 5212POPC   C2B13340  42.877  23.765   8.250
 5212POPC   C3B13341  42.928  23.781   7.950
 5212POPC   C4B13342  42.913  23.843   7.650
 5213POPC   NC313343  37.720   1.243   9.450
 5213POPC   PO413344  37.639   1.233   9.150
 5213POPC   GL113345  37.673   1.169   8.850
 5213POPC   GL213346  37.736   1.104   8.850
 5213POPC   C1A13347  37.714   1.165   8.550
 5213POPC   D2A13348  37.698   1.252   8.250
 5213POPC   C3A13349  37.657   1.204   7.950
 5213POPC   C4A13350  37.675   1.236   7.650
 5213POPC   C1B13351  37.699   0.993   8.550
 5213POPC   C2B13352  37.753   1.018   8.250
 5213POPC   C3B13353  37.780   0.999   7.950
 5213POPC   C4B13354  37.710   0.981   7.650
 5214POPC   NC313355  39.981   5.100   9.450
 5214POPC   PO413356  40.006   5.139   9.150
 5214POPC   GL113357  40.006   5.074   8.850
 5214POPC   GL213358  39.926   5.015   8.850
 5214POPC   C1A13359  39.991   5.068   8.550
 5214POPC   D2A13360  40.015   5.133   8.250
 5214POPC   C3A13361  39.968   5.111   7.950
 5214POPC   C4A13362  39.962   5.108   7.650
 5214POPC   C1B13363  39.860   4.837   8.550
 5214POPC   C2B13364  39.905   4.841   8.250
 5214POPC   C3B13365  39.877   4.850   7.950
 5214POPC   C4B13366  39.919   4.920   7.650
 5215POPC   NC313367  41.572  39.223   9.450
 5215POPC   PO413368  41.583  39.235   9.150
 5215POPC   GL113369  41.514  39.259   8.850
 5215POPC   GL213370  41.523  39.308   8.850
 5215POPC   C1A13371  41.527  39.273   8.550
 5215POPC   D2A13372  41.585  39.209   8.250
 5215POPC   C3A13373  41.512  39.235   7.950
 5215POPC   C4A13374  41.604  39.189   7.650
 5215POPC   C1B13375  41.549  39.451   8.550
 5215POPC   C2B13376  41.513  39.498   8.250
 5215POPC   C3B13377  41.461  39.499   7.950
 5215POPC   C4B13378  41.543  39.484   7.650
 5216POPC   NC313379  43.111  13.632   9.450
 5216POPC   PO413380  43.131  13.653   9.150
 5216POPC   GL113381  43.116  13.657   8.850
 5216POPC   GL213382  43.130  13.750   8.850
 5216POPC   C1A13383  43.124  13.591   8.550
 5216POPC   D2A13384  43.133  13.668   8.250
 5216POPC   C3A13385  43.065  13.618   7.950
 5216POPC   C4A13386  43.090  13.628   7.650
 5216POPC   C1B13387  43.195  13.831   8.550
 5216POPC   C2B13388  43.255  13.850   8.250
 5216POPC   C3B13389  43.189  13.848   7.950
 5216POPC   C4B13390  43.253  13.811   7.650
 5217POPC   NC313391  29.962  44.706   9.450
 5217POPC   PO413392  29.908  44.675   9.150
 5217POPC   GL113393  29.940  44.664   8.850
 5217POPC   GL213394  29.835  44.508   8.850
 5217POPC   C1A13395  29.923  44.635   8.550
 5217POPC   D2A13396  29.963  44.694   8.250
 5217POPC   C3A13397  29.907  44.669   7.950
 5217POPC   C4A13398  29.871  44.655   7.650
 5217POPC   C1B13399  29.853  44.393   8.550
 5217POPC   C2B13400  29.759  44.427   8.250
 5217POPC   C3B13401  29.844  44.432   7.950
 5217POPC   C4B13402  29.813  44.485   7.650
 5218POPC   NC313403  29.888  33.031   9.450
 5218POPC   PO413404  29.939  33.002   9.150
 5218POPC   GL113405  29.934  33.015   8.850
 5218POPC   GL213406  29.908  32.893   8.850
 5218POPC   C1A13407  29.931  32.988   8.550
 5218POPC   D2A13408  29.900  33.017   8.250
 5218POPC   C3A13409  29.951  33.063   7.950
 5218POPC   C4A13410  29.944  32.992   7.650
 5218POPC   C1B13411  29.805  32.750   8.550
 5218POPC   C2B13412  29.794  32.816   8.250
 5218POPC   C3B13413  29.846  32.779   7.950
 5218POPC   C4B13414  29.792  32.830   7.650
 5219POPC   NC313415  11.278  31.485   9.450
 5219POPC   PO413416  11.268  31.515   9.150
 5219POPC   GL113417  11.268  31.515   8.850
 5219POPC   GL213418  11.392  31.520   8.850
 5219POPC   C1A13419  11.344  31.488   8.550
 5219POPC   D2A13420  11.265  31.459   8.250
 5219POPC   C3A13421  11.317  31.433   7.950
 5219POPC   C4A13422  11.257  31.512   7.650
 5219POPC   C1B13423  11.496  31.494   8.550
 5219POPC   C2B13424  11.530  31.503   8.250
 5219POPC   C3B13425  11.549  31.528   7.950
 5219POPC   C4B13426  11.521  31.539   7.650
 5220POPC   NC313427  24.510  22.937   9.450
 5220POPC   PO413428  24.539  22.920   9.150
 5220POPC   GL113429  24.518  22.918   8.850
 5220POPC   GL213430  24.491  23.079   8.850
 5220POPC   C1A13431  24.527  22.931   8.550
 5220POPC   D2A13432  24.452  22.923   8.250
 5220POPC   C3A13433  24.532  22.908   7.950
 5220POPC   C4A13434  24.538  22.936   7.650
 5220POPC   C1B13435  24.424  23.207   8.550
 5220POPC   C2B13436  24.485  23.208   8.250
 5220POPC   C3B13437  24.400  23.234   7.950
 5220POPC   C4B13438  24.469  23.139   7.650
 5221POPC   NC313439   9.795  14.383   9.450
 5221POPC   PO413440   9.733  14.365   9.150
 5221POPC   GL113441   9.788  14.379   8.850
 5221POPC   GL213442   9.657  14.458   8.850
 5221POPC   C1A13443   9.737  14.364   8.550
 5221POPC   D2A13444   9.718  14.438   8.250
 5221POPC   C3A13445   9.748  14.440   7.950
 5221POPC   C4A13446   9.709  14.414   7.650
 5221POPC   C1B13447   9.564  14.533   8.550
 5221POPC   C2B13448   9.484  14.567   8.250
 5221POPC   C3B13449   9.511  14.523   7.950
 5221POPC   C4B13450   9.529  14.565   7.650
 5222POPC   NC313451  29.187  14.371   9.450
 5222POPC   PO413452  29.173  14.357   9.150
 5222POPC   GL113453  29.159  14.439   8.850
 5222POPC   GL213454  29.168  14.278   8.850
 5222POPC   C1A13455  29.111  14.358   8.550
 5222POPC   D2A13456  29.155  14.386   8.250
 5222POPC   C3A13457  29.158  14.405   7.950
 5222POPC   C4A13458  29.136  14.429   7.650
 5222POPC   C1B13459  29.197  14.209   8.550
 5222POPC   C2B13460  29.266  14.145   8.250
 5222POPC   C3B13461  29.229  14.211   7.950
 5222POPC   C4B13462  29.213  14.147   7.650
 5223POPC   NC313463  15.185  15.143   9.450
 5223POPC   PO413464  15.157  15.188   9.150
 5223POPC   GL113465  15.142  15.146   8.850
 5223POPC   GL213466  15.036  15.205   8.850
 5223POPC   C1A13467  15.158  15.133   8.550
 5223POPC   D2A13468  15.142  15.224   8.250
 5223POPC   C3A13469  15.179  15.196   7.950
 5223POPC   C4A13470  15.225  15.154   7.650
 5223POPC   C1B13471  14.974  15.250   8.550
 5223POPC   C2B13472  14.973  15.279   8.250
 5223POPC   C3B13473  14.979  15.300   7.950
 5223POPC   C4B13474  14.934  15.292   7.650
 5224POPC   NC313475   5.136  19.790   9.450
 5224POPC   PO413476   5.084  19.840   9.150
 5224POPC   GL113477   5.079  19.811   8.850
 5224POPC   GL213478   5.153  19.740   8.850
 5224POPC   C1A13479   5.059  19.808   8.550
 5224POPC   D2A13480   5.131  19.792   8.250
 5224POPC   C3A13481   5.124  19.862   7.950
 5224POPC   C4A13482   5.125  19.801   7.650
 5224POPC   C1B13483   5.132  19.583   8.550
 5224POPC   C2B13484   5.178  19.603   8.250
 5224POPC   C3B13485   5.092  19.575   7.950
 5224POPC   C4B13486   5.143  19.591   7.650
 5225POPC   NC313487  19.848  39.189   9.450
 5225POPC   PO413488  19.811  39.261   9.150
 5225POPC   GL113489  19.818  39.276   8.850
 5225POPC   GL213490  19.883  39.148   8.850
 5225POPC   C1A13491  19.847  39.253   8.550
 5225POPC   D2A13492  19.845  39.253   8.250
 5225POPC   C3A13493  19.806  39.227   7.950
 5225POPC   C4A13494  19.795  39.271   7.650
 5225POPC   C1B13495  19.856  39.025   8.550
 5225POPC   C2B13496  19.871  38.949   8.250
 5225POPC   C3B13497  19.875  38.977   7.950
 5225POPC   C4B13498  19.822  38.956   7.650
 5226POPC   NC313499  30.718   2.809   9.450
 5226POPC   PO413500  30.726   2.802   9.150
 5226POPC   GL113501  30.683   2.785   8.850
 5226POPC   GL213502  30.779   2.852   8.850
 5226POPC   C1A13503  30.724   2.734   8.550
 5226POPC   D2A13504  30.672   2.791   8.250
 5226POPC   C3A13505  30.674   2.778   7.950
 5226POPC   C4A13506  30.716   2.746   7.650
 5226POPC   C1B13507  30.834   2.946   8.550
 5226POPC   C2B13508  30.824   2.992   8.250
 5226POPC   C3B13509  30.859   2.977   7.950
 5226POPC   C4B13510  30.846   2.939   7.650
 5227POPC   NC313511  25.254   7.400   9.450
 5227POPC   PO413512  25.254   7.450   9.150
 5227POPC   GL113513  25.285   7.385   8.850
 5227POPC   GL213514  25.342   7.338   8.850
 5227POPC   C1A13515  25.268   7.446   8.550
 5227POPC   D2A13516  25.275   7.386   8.250
 5227POPC   C3A13517  25.257   7.388   7.950
 5227POPC   C4A13518  25.293   7.403   7.650
 5227POPC   C1B13519  25.508   7.320   8.550
 5227POPC   C2B13520  25.456   7.327   8.250
 5227POPC   C3B13521  25.490   7.296   7.950
 5227POPC   C4B13522  25.440   7.304   7.650
 5228POPC   NC313523  43.897  21.397   9.450
 5228POPC   PO413524  43.927  21.426   9.150
 5228POPC   GL113525  43.888  21.433   8.850
 5228POPC   GL213526  43.980  21.449   8.850
 5228POPC   C1A13527  43.901  21.387   8.550
 5228POPC   D2A13528  43.876  21.404   8.250
 5228POPC   C3A13529  43.917  21.347   7.950
 5228POPC   C4A13530  43.906  21.348   7.650
 5228POPC   C1B13531  44.039  21.621   8.550
 5228POPC   C2B13532  44.012  21.611   8.250
 5228POPC   C3B13533  44.054  21.564   7.950
 5228POPC   C4B13534  43.959  21.573   7.650
 5229POPC   NC313535  30.673  24.537   9.450
 5229POPC   PO413536  30.736  24.518   9.150
 5229POPC   GL113537  30.709  24.451   8.850
 5229POPC   GL213538  30.745  24.602   8.850
 5229POPC   C1A13539  30.701  24.519   8.550
 5229POPC   D2A13540  30.655  24.462   8.250
 5229POPC   C3A13541  30.693  24.518   7.950
 5229POPC   C4A13542  30.649  24.514   7.650
 5229POPC   C1B13543  30.761  24.747   8.550
 5229POPC   C2B13544  30.766  24.730   8.250
 5229POPC   C3B13545  30.727  24.724   7.950
 5229POPC   C4B13546  30.702  24.754   7.650
 5230POPC   NC313547  29.952  39.224   9.450
 5230POPC   PO413548  29.906  39.233   9.150
 5230POPC   GL113549  29.873  39.210   8.850
 5230POPC   GL213550  30.046  39.310   8.850
 5230POPC   C1A13551  29.875  39.193   8.550
 5230POPC   D2A13552  29.901  39.266   8.250
 5230POPC   C3A13553  29.930  39.251   7.950
 5230POPC   C4A13554  29.953  39.240   7.650
 5230POPC   C1B13555  30.149  39.301   8.550
 5230POPC   C2B13556  30.135  39.356   8.250
 5230POPC   C3B13557  30.111  39.311   7.950
 5230POPC   C4B13558  30.127  39.318   7.650
 5231POPC   NC313559   9.726  15.948   9.450
 5231POPC   PO413560   9.762  15.951   9.150
 5231POPC   GL113561   9.767  15.941   8.850
 5231POPC   GL213562   9.754  15.876   8.850
 5231POPC   C1A13563   9.755  15.911   8.550
 5231POPC   D2A13564   9.776  15.937   8.250
 5231POPC   C3A13565   9.776  15.943   7.950
 5231POPC   C4A13566   9.731  15.970   7.650
 5231POPC   C1B13567   9.857  15.713   8.550
 5231POPC   C2B13568   9.792  15.745   8.250
 5231POPC   C3B13569   9.826  15.735   7.950
 5231POPC   C4B13570   9.885  15.708   7.650
 5232POPC   NC313571  23.696  24.476   9.450
 5232POPC   PO413572  23.739  24.484   9.150
 5232POPC   GL113573  23.697  24.495   8.850
 5232POPC   GL213574  23.791  24.604   8.850
 5232POPC   C1A13575  23.694  24.473   8.550
 5232POPC   D2A13576  23.678  24.506   8.250
 5232POPC   C3A13577  23.690  24.529   7.950
 5232POPC   C4A13578  23.722  24.475   7.650
 5232POPC   C1B13579  23.768  24.678   8.550
 5232POPC   C2B13580  23.834  24.686   8.250
 5232POPC   C3B13581  23.832  24.759   7.950
 5232POPC   C4B13582  23.793  24.677   7.650
 5233POPC   NC313583  32.978  33.841   9.450
 5233POPC   PO413584  32.997  33.803   9.150
 5233POPC   GL113585  33.072  33.751   8.850
 5233POPC   GL213586  33.105  33.642   8.850
 5233POPC   C1A13587  33.017  33.810   8.550
 5233POPC   D2A13588  33.072  33.845   8.250
 5233POPC   C3A13589  33.042  33.841   7.950
 5233POPC   C4A13590  32.986  33.762   7.650
 5233POPC   C1B13591  33.149  33.542   8.550
 5233POPC   C2B13592  33.153  33.610   8.250
 5233POPC   C3B13593  33.094  33.588   7.950
 5233POPC   C4B13594  33.142  33.577   7.650
 5234POPC   NC313595  31.451  21.388   9.450
 5234POPC   PO413596  31.447  21.423   9.150
 5234POPC   GL113597  31.476  21.423   8.850
 5234POPC   GL213598  31.364  21.263   8.850
 5234POPC   C1A13599  31.445  21.354   8.550
 5234POPC   D2A13600  31.460  21.344   8.250
 5234POPC   C3A13601  31.499  21.422   7.950
 5234POPC   C4A13602  31.505  21.425   7.650
 5234POPC   C1B13603  31.350  21.181   8.550
 5234POPC   C2B13604  31.314  21.222   8.250
 5234POPC   C3B13605  31.352  21.239   7.950
 5234POPC   C4B13606  31.302  21.167   7.650
 5235POPC   NC313607   1.242  29.165   9.450
 5235POPC   PO413608   1.249  29.136   9.150
 5235POPC   GL113609   1.222  29.111   8.850
 5235POPC   GL213610   1.139  28.980   8.850
 5235POPC   C1A13611   1.262  29.127   8.550
 5235POPC   D2A13612   1.173  29.124   8.250
 5235POPC   C3A13613   1.237  29.163   7.950
 5235POPC   C4A13614   1.210  29.173   7.650
 5235POPC   C1B13615   1.088  28.940   8.550
 5235POPC   C2B13616   1.143  28.900   8.250
 5235POPC   C3B13617   1.125  28.930   7.950
 5235POPC   C4B13618   1.099  28.866   7.650
 5236POPC   NC313619  21.377  29.879   9.450
 5236POPC   PO413620  21.435  29.929   9.150
 5236POPC   GL113621  21.382  29.894   8.850
 5236POPC   GL213622  21.509  29.940   8.850
 5236POPC   C1A13623  21.398  29.917   8.550
 5236POPC   D2A13624  21.413  29.932   8.250
 5236POPC   C3A13625  21.413  29.957   7.950
 5236POPC   C4A13626  21.403  29.946   7.650
 5236POPC   C1B13627  21.590  30.004   8.550
 5236POPC   C2B13628  21.630  29.978   8.250
 5236POPC   C3B13629  21.637  30.021   7.950
 5236POPC   C4B13630  21.620  30.067   7.650
 5237POPC   NC313631  44.705  22.188   9.450
 5237POPC   PO413632  44.617  22.173   9.150
 5237POPC   GL113633  44.710  22.122   8.850
 5237POPC   GL213634  44.679  22.023   8.850
 5237POPC   C1A13635  44.667  22.143   8.550
 5237POPC   D2A13636  44.649  22.170   8.250
 5237POPC   C3A13637  44.661  22.171   7.950
 5237POPC   C4A13638  44.650  22.135   7.650
 5237POPC   C1B13639  44.667  21.878   8.550
 5237POPC   C2B13640  44.701  21.912   8.250
 5237POPC   C3B13641  44.684  21.888   7.950
 5237POPC   C4B13642  44.678  21.910   7.650
 5238POPC   NC313643  43.896  42.286   9.450
 5238POPC   PO413644  43.843  42.355   9.150
 5238POPC   GL113645  43.841  42.367   8.850
 5238POPC   GL213646  43.821  42.483   8.850
 5238POPC   C1A13647  43.861  42.303   8.550
 5238POPC   D2A13648  43.841  42.298   8.250
 5238POPC   C3A13649  43.867  42.356   7.950
 5238POPC   C4A13650  43.915  42.285   7.650
 5238POPC   C1B13651  43.876  42.622   8.550
 5238POPC   C2B13652  43.877  42.563   8.250
 5238POPC   C3B13653  43.850  42.588   7.950
 5238POPC   C4B13654  43.849  42.536   7.650
 5239POPC   NC313655  27.543  29.158   9.450
 5239POPC   PO413656  27.569  29.128   9.150
 5239POPC   GL113657  27.622  29.121   8.850
 5239POPC   GL213658  27.751  29.125   8.850
 5239POPC   C1A13659  27.634  29.182   8.550
 5239POPC   D2A13660  27.548  29.113   8.250
 5239POPC   C3A13661  27.565  29.158   7.950
 5239POPC   C4A13662  27.560  29.098   7.650
 5239POPC   C1B13663  27.806  29.148   8.550
 5239POPC   C2B13664  27.854  29.116   8.250
 5239POPC   C3B13665  27.798  29.151   7.950
 5239POPC   C4B13666  27.847  29.137   7.650
 5240POPC   NC313667  10.499  15.948   9.450
 5240POPC   PO413668  10.534  15.954   9.150
 5240POPC   GL113669  10.485  15.996   8.850
 5240POPC   GL213670  10.405  15.921   8.850
 5240POPC   C1A13671  10.479  15.983   8.550
 5240POPC   D2A13672  10.541  15.941   8.250
 5240POPC   C3A13673  10.506  15.920   7.950
 5240POPC   C4A13674  10.493  15.969   7.650
 5240POPC   C1B13675  10.288  15.929   8.550
 5240POPC   C2B13676  10.270  15.940   8.250
 5240POPC   C3B13677  10.279  16.005   7.950
 5240POPC   C4B13678  10.242  15.933   7.650
 5241POPC   NC313679   9.782  33.050   9.450
 5241POPC   PO413680   9.700  33.007   9.150
 5241POPC   GL113681   9.793  33.045   8.850
 5241POPC   GL213682   9.679  32.934   8.850
 5241POPC   C1A13683   9.714  33.021   8.550
 5241POPC   D2A13684   9.707  33.059   8.250
 5241POPC   C3A13685   9.778  32.998   7.950
 5241POPC   C4A13686   9.787  33.047   7.650
 5241POPC   C1B13687   9.508  32.863   8.550
 5241POPC   C2B13688   9.550  32.914   8.250
 5241POPC   C3B13689   9.571  32.881   7.950
 5241POPC   C4B13690   9.546  32.914   7.650
 5242POPC   NC313691   8.244   1.212   9.450
 5242POPC   PO413692   8.158   1.244   9.150
 5242POPC   GL113693   8.228   1.202   8.850
 5242POPC   GL213694   8.274   1.197   8.850
 5242POPC   C1A13695   8.201   1.226   8.550
 5242POPC   D2A13696   8.209   1.244   8.250
 5242POPC   C3A13697   8.190   1.168   7.950
 5242POPC   C4A13698   8.149   1.182   7.650
 5242POPC   C1B13699   8.420   1.161   8.550
 5242POPC   C2B13700   8.446   1.176   8.250
 5242POPC   C3B13701   8.479   1.185   7.950
 5242POPC   C4B13702   8.433   1.195   7.650
 5243POPC   NC313703  15.223  32.292   9.450
 5243POPC   PO413704  15.156  32.218   9.150
 5243POPC   GL113705  15.218  32.259   8.850
 5243POPC   GL213706  15.106  32.171   8.850
 5243POPC   C1A13707  15.216  32.285   8.550
 5243POPC   D2A13708  15.218  32.274   8.250
 5243POPC   C3A13709  15.193  32.298   7.950
 5243POPC   C4A13710  15.225  32.290   7.650
 5243POPC   C1B13711  14.993  32.092   8.550
 5243POPC   C2B13712  14.968  32.100   8.250
 5243POPC   C3B13713  14.920  32.075   7.950
 5243POPC   C4B13714  14.930  32.116   7.650
 5244POPC   NC313715  39.275  39.188   9.450
 5244POPC   PO413716  39.222  39.244   9.150
 5244POPC   GL113717  39.198  39.197   8.850
 5244POPC   GL213718  39.252  39.078   8.850
 5244POPC   C1A13719  39.202  39.272   8.550
 5244POPC   D2A13720  39.255  39.211   8.250
 5244POPC   C3A13721  39.221  39.203   7.950
 5244POPC   C4A13722  39.242  39.184   7.650
 5244POPC   C1B13723  39.151  39.001   8.550
 5244POPC   C2B13724  39.232  39.034   8.250
 5244POPC   C3B13725  39.187  39.028   7.950
 5244POPC   C4B13726  39.159  38.989   7.650
 5245POPC   NC313727   3.554  19.016   9.450
 5245POPC   PO413728   3.574  19.089   9.150
 5245POPC   GL113729   3.510  19.093   8.850
 5245POPC   GL213730   3.501  19.213   8.850
 5245POPC   C1A13731   3.499  19.095   8.550
 5245POPC   D2A13732   3.512  19.037   8.250
 5245POPC   C3A13733   3.496  19.068   7.950
 5245POPC   C4A13734   3.546  19.053   7.650
 5245POPC   C1B13735   3.468  19.254   8.550
 5245POPC   C2B13736   3.445  19.314   8.250
 5245POPC   C3B13737   3.533  19.305   7.950
 5245POPC   C4B13738   3.457  19.345   7.650
 5246POPC   NC313739  34.549  39.233   9.450
 5246POPC   PO413740  34.539  39.243   9.150
 5246POPC   GL113741  34.603  39.263   8.850
 5246POPC   GL213742  34.657  39.381   8.850
 5246POPC   C1A13743  34.615  39.280   8.550
 5246POPC   D2A13744  34.540  39.184   8.250
 5246POPC   C3A13745  34.617  39.227   7.950
 5246POPC   C4A13746  34.535  39.201   7.650
 5246POPC   C1B13747  34.753  39.394   8.550
 5246POPC   C2B13748  34.737  39.428   8.250
 5246POPC   C3B13749  34.711  39.475   7.950
 5246POPC   C4B13750  34.743  39.439   7.650
 5247POPC   NC313751  21.382  40.773   9.450
 5247POPC   PO413752  21.362  40.816   9.150
 5247POPC   GL113753  21.366  40.788   8.850
 5247POPC   GL213754  21.514  40.765   8.850
 5247POPC   C1A13755  21.372  40.767   8.550
 5247POPC   D2A13756  21.410  40.778   8.250
 5247POPC   C3A13757  21.352  40.812   7.950
 5247POPC   C4A13758  21.387  40.827   7.650
 5247POPC   C1B13759  21.590  40.677   8.550
 5247POPC   C2B13760  21.626  40.699   8.250
 5247POPC   C3B13761  21.583  40.667   7.950
 5247POPC   C4B13762  21.616  40.724   7.650
 5248POPC   NC313763  26.792  36.941   9.450
 5248POPC   PO413764  26.792  36.930   9.150
 5248POPC   GL113765  26.798  36.882   8.850
 5248POPC   GL213766  26.892  36.750   8.850
 5248POPC   C1A13767  26.866  36.910   8.550
 5248POPC   D2A13768  26.823  36.942   8.250
 5248POPC   C3A13769  26.770  36.931   7.950
 5248POPC   C4A13770  26.826  36.927   7.650
 5248POPC   C1B13771  26.999  36.668   8.550
 5248POPC   C2B13772  26.915  36.646   8.250
 5248POPC   C3B13773  26.983  36.699   7.950
 5248POPC   C4B13774  26.973  36.737   7.650
 5249POPC   NC313775  32.992   5.070   9.450
 5249POPC   PO413776  33.027   5.139   9.150
 5249POPC   GL113777  32.980   5.134   8.850
 5249POPC   GL213778  33.190   5.006   8.850
 5249POPC   C1A13779  32.999   5.117   8.550
 5249POPC   D2A13780  33.002   5.114   8.250
 5249POPC   C3A13781  33.058   5.112   7.950
 5249POPC   C4A13782  33.043   5.097   7.650
 5249POPC   C1B13783  33.231   5.032   8.550
 5249POPC   C2B13784  33.267   5.047   8.250
 5249POPC   C3B13785  33.264   5.057   7.950
 5249POPC   C4B13786  33.236   5.055   7.650
 5250POPC   NC313787  19.804   0.447   9.450
 5250POPC   PO413788  19.819   0.464   9.150
 5250POPC   GL113789  19.817   0.427   8.850
 5250POPC   GL213790  19.758   0.335   8.850
 5250POPC   C1A13791  19.850   0.429   8.550
 5250POPC   D2A13792  19.808   0.451   8.250
 5250POPC   C3A13793  19.879   0.487   7.950
 5250POPC   C4A13794  19.823   0.420   7.650
 5250POPC   C1B13795  19.618   0.311   8.550
 5250POPC   C2B13796  19.669   0.277   8.250
 5250POPC   C3B13797  19.679   0.305   7.950
 5250POPC   C4B13798  19.682   0.243   7.650
 5251POPC   NC313799  44.620  13.651   9.450
 5251POPC   PO413800  44.699  13.621   9.150
 5251POPC   GL113801  44.635  13.622   8.850
 5251POPC   GL213802  44.687  13.525   8.850
 5251POPC   C1A13803  44.676  13.654   8.550
 5251POPC   D2A13804  44.710  13.643   8.250
 5251POPC   C3A13805  44.641  13.636   7.950
 5251POPC   C4A13806  44.712  13.662   7.650
 5251POPC   C1B13807  44.798  13.438   8.550
 5251POPC   C2B13808  44.737  13.413   8.250
 5251POPC   C3B13809  44.777  13.432   7.950
 5251POPC   C4B13810  44.814  13.378   7.650
 5252POPC   NC313811  24.488  24.498   9.450
 5252POPC   PO413812  24.441  24.525   9.150
 5252POPC   GL113813  24.459  24.476   8.850
 5252POPC   GL213814  24.349  24.454   8.850
 5252POPC   C1A13815  24.468  24.477   8.550
 5252POPC   D2A13816  24.490  24.488   8.250
 5252POPC   C3A13817  24.503  24.522   7.950
 5252POPC   C4A13818  24.478  24.452   7.650
 5252POPC   C1B13819  24.251  24.373   8.550
 5252POPC   C2B13820  24.333  24.380   8.250
 5252POPC   C3B13821  24.281  24.363   7.950
 5252POPC   C4B13822  24.296  24.317   7.650
 5253POPC   NC313823  16.744  37.688   9.450
 5253POPC   PO413824  16.708  37.693   9.150
 5253POPC   GL113825  16.774  37.670   8.850
 5253POPC   GL213826  16.890  37.654   8.850
 5253POPC   C1A13827  16.748  37.655   8.550
 5253POPC   D2A13828  16.682  37.667   8.250
 5253POPC   C3A13829  16.746  37.708   7.950
 5253POPC   C4A13830  16.775  37.631   7.650
 5253POPC   C1B13831  16.946  37.526   8.550
 5253POPC   C2B13832  16.983  37.581   8.250
 5253POPC   C3B13833  16.987  37.570   7.950
 5253POPC   C4B13834  16.952  37.550   7.650
 5254POPC   NC313835  16.731  41.521   9.450
 5254POPC   PO413836  16.703  41.544   9.150
 5254POPC   GL113837  16.694  41.566   8.850
 5254POPC   GL213838  16.827  41.604   8.850
 5254POPC   C1A13839  16.718  41.557   8.550
 5254POPC   D2A13840  16.764  41.537   8.250
 5254POPC   C3A13841  16.779  41.556   7.950
 5254POPC   C4A13842  16.691  41.556   7.650
 5254POPC   C1B13843  16.981  41.591   8.550
 5254POPC   C2B13844  16.949  41.647   8.250
 5254POPC   C3B13845  16.997  41.573   7.950
 5254POPC   C4B13846  16.987  41.604   7.650
 5255POPC   NC313847  10.519  40.757   9.450
 5255POPC   PO413848  10.494  40.782   9.150
 5255POPC   GL113849  10.496  40.735   8.850
 5255POPC   GL213850  10.625  40.767   8.850
 5255POPC   C1A13851  10.520  40.775   8.550
 5255POPC   D2A13852  10.538  40.784   8.250
 5255POPC   C3A13853  10.514  40.752   7.950
 5255POPC   C4A13854  10.544  40.760   7.650
 5255POPC   C1B13855  10.762  40.709   8.550
 5255POPC   C2B13856  10.795  40.722   8.250
 5255POPC   C3B13857  10.805  40.716   7.950
 5255POPC   C4B13858  10.794  40.702   7.650
 5256POPC   NC313859  18.266   1.226   9.450
 5256POPC   PO413860  18.299   1.176   9.150
 5256POPC   GL113861  18.300   1.186   8.850
 5256POPC   GL213862  18.257   1.315   8.850
 5256POPC   C1A13863  18.289   1.168   8.550
 5256POPC   D2A13864  18.297   1.233   8.250
 5256POPC   C3A13865  18.240   1.195   7.950
 5256POPC   C4A13866  18.327   1.192   7.650
 5256POPC   C1B13867  18.277   1.508   8.550
 5256POPC   C2B13868  18.267   1.456   8.250
 5256POPC   C3B13869  18.317   1.485   7.950
 5256POPC   C4B13870  18.302   1.460   7.650
 5257POPC   NC313871  22.135  41.589   9.450
 5257POPC   PO413872  22.121  41.603   9.150
 5257POPC   GL113873  22.168  41.553   8.850
 5257POPC   GL213874  22.279  41.486   8.850
 5257POPC   C1A13875  22.184  41.517   8.550
 5257POPC   D2A13876  22.137  41.523   8.250
 5257POPC   C3A13877  22.124  41.534   7.950
 5257POPC   C4A13878  22.122  41.596   7.650
 5257POPC   C1B13879  22.285  41.367   8.550
 5257POPC   C2B13880  22.331  41.350   8.250
 5257POPC   C3B13881  22.322  41.376   7.950
 5257POPC   C4B13882  22.312  41.329   7.650
 5258POPC   NC313883  21.359  13.642   9.450
 5258POPC   PO413884  21.338  13.643   9.150
 5258POPC   GL113885  21.369  13.669   8.850
 5258POPC   GL213886  21.226  13.655   8.850
 5258POPC   C1A13887  21.390  13.603   8.550
 5258POPC   D2A13888  21.380  13.617   8.250
 5258POPC   C3A13889  21.376  13.586   7.950
 5258POPC   C4A13890  21.419  13.578   7.650
 5258POPC   C1B13891  21.135  13.658   8.550
 5258POPC   C2B13892  21.092  13.646   8.250
 5258POPC   C3B13893  21.154  13.633   7.950
 5258POPC   C4B13894  21.111  13.600   7.650
 5259POPC   NC313895  35.336  10.489   9.450
 5259POPC   PO413896  35.370  10.488   9.150
 5259POPC   GL113897  35.336  10.519   8.850
 5259POPC   GL213898  35.396  10.657   8.850
 5259POPC   C1A13899  35.341  10.551   8.550
 5259POPC   D2A13900  35.397  10.492   8.250
 5259POPC   C3A13901  35.380  10.513   7.950
 5259POPC   C4A13902  35.321  10.527   7.650
 5259POPC   C1B13903  35.385  10.802   8.550
 5259POPC   C2B13904  35.405  10.807   8.250
 5259POPC   C3B13905  35.391  10.742   7.950
 5259POPC   C4B13906  35.348  10.739   7.650
 5260POPC   NC313907  39.207  36.919   9.450
 5260POPC   PO413908  39.272  36.937   9.150
 5260POPC   GL113909  39.269  36.865   8.850
 5260POPC   GL213910  39.266  36.833   8.850
 5260POPC   C1A13911  39.205  36.951   8.550
 5260POPC   D2A13912  39.182  36.857   8.250
 5260POPC   C3A13913  39.246  36.895   7.950
 5260POPC   C4A13914  39.260  36.864   7.650
 5260POPC   C1B13915  39.298  36.659   8.550
 5260POPC   C2B13916  39.389  36.658   8.250
 5260POPC   C3B13917  39.332  36.718   7.950
 5260POPC   C4B13918  39.365  36.666   7.650
 5261POPC   NC313919  38.448  44.692   9.450
 5261POPC   PO413920  38.409  44.663   9.150
 5261POPC   GL113921  38.431  44.624   8.850
 5261POPC   GL213922  38.412  44.721   8.850
 5261POPC   C1A13923  38.421  44.690   8.550
 5261POPC   D2A13924  38.415  44.612   8.250
 5261POPC   C3A13925  38.420  44.655   7.950
 5261POPC   C4A13926  38.439  44.689   7.650
 5261POPC   C1B13927  38.366  44.905   8.550
 5261POPC   C2B13928  38.377  44.855   8.250
 5261POPC   C3B13929  38.375  44.915   7.950
 5261POPC   C4B13930  38.358  44.889   7.650
 5262POPC   NC313931  40.033  12.081   9.450
 5262POPC   PO413932  40.021  12.063   9.150
 5262POPC   GL113933  40.006  12.033   8.850
 5262POPC   GL213934  39.930  12.092   8.850
 5262POPC   C1A13935  39.983  12.032   8.550
 5262POPC   D2A13936  39.997  12.030   8.250
 5262POPC   C3A13937  39.973  12.060   7.950
 5262POPC   C4A13938  39.993  12.117   7.650
 5262POPC   C1B13939  39.718  12.014   8.550
 5262POPC   C2B13940  39.757  11.984   8.250
 5262POPC   C3B13941  39.722  12.017   7.950
 5262POPC   C4B13942  39.761  11.994   7.650
 5263POPC   NC313943  31.468  26.048   9.450
 5263POPC   PO413944  31.516  26.032   9.150
 5263POPC   GL113945  31.477  26.075   8.850
 5263POPC   GL213946  31.340  26.000   8.850
 5263POPC   C1A13947  31.457  25.998   8.550
 5263POPC   D2A13948  31.453  26.014   8.250
 5263POPC   C3A13949  31.511  26.020   7.950
 5263POPC   C4A13950  31.508  26.089   7.650
 5263POPC   C1B13951  31.245  25.851   8.550
 5263POPC   C2B13952  31.297  25.912   8.250
 5263POPC   C3B13953  31.283  25.886   7.950
 5263POPC   C4B13954  31.264  25.921   7.650
 5264POPC   NC313955  27.590  39.251   9.450
 5264POPC   PO413956  27.626  39.198   9.150
 5264POPC   GL113957  27.595  39.227   8.850
 5264POPC   GL213958  27.670  39.085   8.850
 5264POPC   C1A13959  27.583  39.231   8.550
 5264POPC   D2A13960  27.553  39.231   8.250
 5264POPC   C3A13961  27.602  39.182   7.950
 5264POPC   C4A13962  27.630  39.251   7.650
 5264POPC   C1B13963  27.695  39.065   8.550
 5264POPC   C2B13964  27.738  38.989   8.250
 5264POPC   C3B13965  27.777  39.015   7.950
 5264POPC   C4B13966  27.776  39.034   7.650
 5265POPC   NC313967   1.190  30.661   9.450
 5265POPC   PO413968   1.243  30.743   9.150
 5265POPC   GL113969   1.192  30.736   8.850
 5265POPC   GL213970   1.261  30.831   8.850
 5265POPC   C1A13971   1.179  30.733   8.550
 5265POPC   D2A13972   1.234  30.681   8.250
 5265POPC   C3A13973   1.165  30.693   7.950
 5265POPC   C4A13974   1.251  30.728   7.650
 5265POPC   C1B13975   1.374  30.869   8.550
 5265POPC   C2B13976   1.318  30.857   8.250
 5265POPC   C3B13977   1.370  30.905   7.950
 5265POPC   C4B13978   1.349  30.867   7.650
 5266POPC   NC313979  12.822  29.967   9.450
 5266POPC   PO413980  12.869  29.886   9.150
 5266POPC   GL113981  12.853  29.941   8.850
 5266POPC   GL213982  12.991  29.966   8.850
 5266POPC   C1A13983  12.803  29.951   8.550
 5266POPC   D2A13984  12.898  29.893   8.250
 5266POPC   C3A13985  12.819  29.913   7.950
 5266POPC   C4A13986  12.842  29.921   7.650
 5266POPC   C1B13987  13.074  29.879   8.550
 5266POPC   C2B13988  13.143  29.889   8.250
 5266POPC   C3B13989  13.056  29.873   7.950
 5266POPC   C4B13990  13.149  29.956   7.650
 5267POPC   NC313991  29.099  30.691   9.450
 5267POPC   PO413992  29.107  30.737   9.150
 5267POPC   GL113993  29.137  30.699   8.850
 5267POPC   GL213994  29.121  30.583   8.850
 5267POPC   C1A13995  29.108  30.702   8.550
 5267POPC   D2A13996  29.138  30.670   8.250
 5267POPC   C3A13997  29.178  30.670   7.950
 5267POPC   C4A13998  29.099  30.669   7.650
 5267POPC   C1B13999  29.053  30.531   8.550
 5267POPC   C2B14000  29.047  30.463   8.250
 5267POPC   C3B14001  29.005  30.514   7.950
 5267POPC   C4B14002  28.969  30.524   7.650
 5268POPC   NC314003  21.395  26.025   9.450
 5268POPC   PO414004  21.419  26.034   9.150
 5268POPC   GL114005  21.399  26.051   8.850
 5268POPC   GL214006  21.456  25.953   8.850
 5268POPC   C1A14007  21.434  26.089   8.550
 5268POPC   D2A14008  21.365  26.019   8.250
 5268POPC   C3A14009  21.420  26.082   7.950
 5268POPC   C4A14010  21.401  26.053   7.650
 5268POPC   C1B14011  21.591  25.951   8.550
 5268POPC   C2B14012  21.663  25.974   8.250
 5268POPC   C3B14013  21.623  26.001   7.950
 5268POPC   C4B14014  21.628  25.998   7.650
 5269POPC   NC314015  21.378  22.212   9.450
 5269POPC   PO414016  21.358  22.175   9.150
 5269POPC   GL114017  21.396  22.125   8.850
 5269POPC   GL214018  21.392  22.276   8.850
 5269POPC   C1A14019  21.417  22.209   8.550
 5269POPC   D2A14020  21.348  22.188   8.250
 5269POPC   C3A14021  21.409  22.121   7.950
 5269POPC   C4A14022  21.404  22.197   7.650
 5269POPC   C1B14023  21.498  22.355   8.550
 5269POPC   C2B14024  21.415  22.393   8.250
 5269POPC   C3B14025  21.501  22.356   7.950
 5269POPC   C4B14026  21.418  22.435   7.650
 5270POPC   NC314027   8.207  26.773   9.450
 5270POPC   PO414028   8.199  26.788   9.150
 5270POPC   GL114029   8.244  26.833   8.850
 5270POPC   GL214030   8.139  26.934   8.850
 5270POPC   C1A14031   8.190  26.834   8.550
 5270POPC   D2A14032   8.156  26.796   8.250
 5270POPC   C3A14033   8.150  26.782   7.950
 5270POPC   C4A14034   8.163  26.808   7.650
 5270POPC   C1B14035   7.997  26.971   8.550
 5270POPC   C2B14036   7.951  26.917   8.250
 5270POPC   C3B14037   8.008  26.981   7.950
 5270POPC   C4B14038   7.989  26.933   7.650
 5271POPC   NC314039  15.995   0.435   9.450
 5271POPC   PO414040  15.984   0.425   9.150
 5271POPC   GL114041  15.959   0.394   8.850
 5271POPC   GL214042  15.998   0.568   8.850
 5271POPC   C1A14043  15.943   0.390   8.550
 5271POPC   D2A14044  15.913   0.396   8.250
 5271POPC   C3A14045  15.935   0.472   7.950
 5271POPC   C4A14046  15.996   0.468   7.650
 5271POPC   C1B14047  15.986   0.713   8.550
 5271POPC   C2B14048  15.991   0.734   8.250
 5271POPC   C3B14049  15.984   0.674   7.950
 5271POPC   C4B14050  15.974   0.672   7.650
 5272POPC   NC314051  24.485   7.439   9.450
 5272POPC   PO414052  24.462   7.454   9.150
 5272POPC   GL114053  24.490   7.408   8.850
 5272POPC   GL214054  24.561   7.535   8.850
 5272POPC   C1A14055  24.489   7.442   8.550
 5272POPC   D2A14056  24.528   7.468   8.250
 5272POPC   C3A14057  24.481   7.446   7.950
 5272POPC   C4A14058  24.489   7.423   7.650
 5272POPC   C1B14059  24.574   7.597   8.550
 5272POPC   C2B14060  24.639   7.635   8.250
 5272POPC   C3B14061  24.609   7.598   7.950
 5272POPC   C4B14062  24.607   7.642   7.650
 5273POPC   NC314063   2.034  26.029   9.450
 5273POPC   PO414064   1.972  26.038   9.150
 5273POPC   GL114065   1.973  26.014   8.850
 5273POPC   GL214066   2.045  26.110   8.850
 5273POPC   C1A14067   2.039  26.089   8.550
 5273POPC   D2A14068   1.984  26.066   8.250
 5273POPC   C3A14069   2.035  26.088   7.950
 5273POPC   C4A14070   2.005  25.995   7.650
 5273POPC   C1B14071   2.135  26.227   8.550
 5273POPC   C2B14072   2.130  26.282   8.250
 5273POPC   C3B14073   2.134  26.208   7.950
 5273POPC   C4B14074   2.129  26.245   7.650
 5274POPC   NC314075  22.180  20.581   9.450
 5274POPC   PO414076  22.180  20.622   9.150
 5274POPC   GL114077  22.186  20.593   8.850
 5274POPC   GL214078  22.276  20.499   8.850
 5274POPC   C1A14079  22.144  20.620   8.550
 5274POPC   D2A14080  22.185  20.621   8.250
 5274POPC   C3A14081  22.149  20.600   7.950
 5274POPC   C4A14082  22.196  20.647   7.650
 5274POPC   C1B14083  22.303  20.359   8.550
 5274POPC   C2B14084  22.245  20.437   8.250
 5274POPC   C3B14085  22.306  20.434   7.950
 5274POPC   C4B14086  22.274  20.369   7.650
 5275POPC   NC314087   8.166  14.400   9.450
 5275POPC   PO414088   8.183  14.366   9.150
 5275POPC   GL114089   8.231  14.360   8.850
 5275POPC   GL214090   8.342  14.467   8.850
 5275POPC   C1A14091   8.178  14.379   8.550
 5275POPC   D2A14092   8.191  14.372   8.250
 5275POPC   C3A14093   8.191  14.395   7.950
 5275POPC   C4A14094   8.229  14.415   7.650
 5275POPC   C1B14095   8.427  14.464   8.550
 5275POPC   C2B14096   8.411  14.436   8.250
 5275POPC   C3B14097   8.419  14.442   7.950
 5275POPC   C4B14098   8.443  14.453   7.650
 5276POPC   NC314099  21.427   8.989   9.450
 5276POPC   PO414100  21.394   8.978   9.150
 5276POPC   GL114101  21.409   8.982   8.850
 5276POPC   GL214102  21.463   8.925   8.850
 5276POPC   C1A14103  21.421   8.984   8.550
 5276POPC   D2A14104  21.367   8.959   8.250
 5276POPC   C3A14105  21.352   8.945   7.950
 5276POPC   C4A14106  21.420   8.989   7.650
 5276POPC   C1B14107  21.621   8.993   8.550
 5276POPC   C2B14108  21.682   8.914   8.250
 5276POPC   C3B14109  21.661   8.996   7.950
 5276POPC   C4B14110  21.643   8.919   7.650
 5277POPC   NC314111  43.864   5.828   9.450
 5277POPC   PO414112  43.889   5.842   9.150
 5277POPC   GL114113  43.884   5.828   8.850
 5277POPC   GL214114  43.973   5.944   8.850
 5277POPC   C1A14115  43.886   5.885   8.550
 5277POPC   D2A14116  43.875   5.902   8.250
 5277POPC   C3A14117  43.898   5.891   7.950
 5277POPC   C4A14118  43.845   5.904   7.650
 5277POPC   C1B14119  44.039   6.031   8.550
 5277POPC   C2B14120  44.123   5.985   8.250
 5277POPC   C3B14121  44.086   6.032   7.950
 5277POPC   C4B14122  44.102   5.991   7.650
 5278POPC   NC314123  18.295  29.184   9.450
 5278POPC   PO414124  18.325  29.151   9.150
 5278POPC   GL114125  18.253  29.151   8.850
 5278POPC   GL214126  18.282  29.039   8.850
 5278POPC   C1A14127  18.235  29.193   8.550
 5278POPC   D2A14128  18.322  29.192   8.250
 5278POPC   C3A14129  18.263  29.140   7.950
 5278POPC   C4A14130  18.247  29.178   7.650
 5278POPC   C1B14131  18.251  28.916   8.550
 5278POPC   C2B14132  18.259  28.866   8.250
 5278POPC   C3B14133  18.256  28.950   7.950
 5278POPC   C4B14134  18.258  28.870   7.650
 5279POPC   NC314135  20.596  24.468   9.450
 5279POPC   PO414136  20.611  24.487   9.150
 5279POPC   GL114137  20.637  24.483   8.850
 5279POPC   GL214138  20.540  24.370   8.850
 5279POPC   C1A14139  20.585  24.508   8.550
 5279POPC   D2A14140  20.641  24.535   8.250
 5279POPC   C3A14141  20.608  24.471   7.950
 5279POPC   C4A14142  20.629  24.483   7.650
 5279POPC   C1B14143  20.533  24.271   8.550
 5279POPC   C2B14144  20.463  24.259   8.250
 5279POPC   C3B14145  20.462  24.302   7.950
 5279POPC   C4B14146  20.494  24.257   7.650
 5280POPC   NC314147  43.138  17.536   9.450
 5280POPC   PO414148  43.153  17.548   9.150
 5280POPC   GL114149  43.125  17.552   8.850
 5280POPC   GL214150  42.953  17.499   8.850
 5280POPC   C1A14151  43.105  17.513   8.550
 5280POPC   D2A14152  43.115  17.515   8.250
 5280POPC   C3A14153  43.143  17.509   7.950
 5280POPC   C4A14154  43.146  17.468   7.650
 5280POPC   C1B14155  42.855  17.405   8.550
 5280POPC   C2B14156  42.851  17.365   8.250
 5280POPC   C3B14157  42.865  17.417   7.950
 5280POPC   C4B14158  42.836  17.401   7.650
 5281POPC   NC314159  27.634  41.607   9.450
 5281POPC   PO414160  27.643  41.511   9.150
 5281POPC   GL114161  27.611  41.539   8.850
 5281POPC   GL214162  27.622  41.681   8.850
 5281POPC   C1A14163  27.587  41.542   8.550
 5281POPC   D2A14164  27.577  41.571   8.250
 5281POPC   C3A14165  27.568  41.548   7.950
 5281POPC   C4A14166  27.639  41.540   7.650
 5281POPC   C1B14167  27.560  41.822   8.550
 5281POPC   C2B14168  27.587  41.843   8.250
 5281POPC   C3B14169  27.558  41.803   7.950
 5281POPC   C4B14170  27.567  41.841   7.650
 5282POPC   NC314171  25.296  42.350   9.450
 5282POPC   PO414172  25.246  42.353   9.150
 5282POPC   GL114173  25.302  42.305   8.850
 5282POPC   GL214174  25.216  42.244   8.850
 5282POPC   C1A14175  25.273  42.309   8.550
 5282POPC   D2A14176  25.312  42.304   8.250
 5282POPC   C3A14177  25.280  42.326   7.950
 5282POPC   C4A14178  25.260  42.312   7.650
 5282POPC   C1B14179  25.190  42.050   8.550
 5282POPC   C2B14180  25.149  42.056   8.250
 5282POPC   C3B14181  25.142  42.053   7.950
 5282POPC   C4B14182  25.164  42.058   7.650
 5283POPC   NC314183   8.193  32.990   9.450
 5283POPC   PO414184   8.169  33.033   9.150
 5283POPC   GL114185   8.162  32.981   8.850
 5283POPC   GL214186   8.170  32.869   8.850
 5283POPC   C1A14187   8.148  33.021   8.550
 5283POPC   D2A14188   8.155  32.980   8.250
 5283POPC   C3A14189   8.163  33.065   7.950
 5283POPC   C4A14190   8.187  33.043   7.650
 5283POPC   C1B14191   8.169  32.729   8.550
 5283POPC   C2B14192   8.227  32.767   8.250
 5283POPC   C3B14193   8.250  32.766   7.950
 5283POPC   C4B14194   8.260  32.757   7.650
 5284POPC   NC314195   5.836  32.979   9.450
 5284POPC   PO414196   5.860  32.979   9.150
 5284POPC   GL114197   5.886  32.990   8.850
 5284POPC   GL214198   5.730  33.045   8.850
 5284POPC   C1A14199   5.831  33.024   8.550
 5284POPC   D2A14200   5.856  33.017   8.250
 5284POPC   C3A14201   5.856  33.018   7.950
 5284POPC   C4A14202   5.894  32.975   7.650
 5284POPC   C1B14203   5.585  32.999   8.550
 5284POPC   C2B14204   5.644  33.030   8.250
 5284POPC   C3B14205   5.599  32.970   7.950
 5284POPC   C4B14206   5.635  32.980   7.650
 5285POPC   NC314207  32.285  38.495   9.450
 5285POPC   PO414208  32.257  38.429   9.150
 5285POPC   GL114209  32.248  38.424   8.850
 5285POPC   GL214210  32.215  38.585   8.850
 5285POPC   C1A14211  32.208  38.461   8.550
 5285POPC   D2A14212  32.281  38.461   8.250
 5285POPC   C3A14213  32.248  38.490   7.950
 5285POPC   C4A14214  32.251  38.414   7.650
 5285POPC   C1B14215  32.208  38.743   8.550
 5285POPC   C2B14216  32.270  38.733   8.250
 5285POPC   C3B14217  32.212  38.692   7.950
 5285POPC   C4B14218  32.199  38.682   7.650
 5286POPC   NC314219  15.949  12.821   9.450
 5286POPC   PO414220  15.912  12.868   9.150
 5286POPC   GL114221  15.927  12.830   8.850
 5286POPC   GL214222  15.889  12.730   8.850
 5286POPC   C1A14223  15.950  12.849   8.550
 5286POPC   D2A14224  15.974  12.815   8.250
 5286POPC   C3A14225  15.929  12.813   7.950
 5286POPC   C4A14226  15.929  12.810   7.650
 5286POPC   C1B14227  15.784  12.592   8.550
 5286POPC   C2B14228  15.794  12.645   8.250
 5286POPC   C3B14229  15.822  12.590   7.950
 5286POPC   C4B14230  15.861  12.607   7.650
 5287POPC   NC314231   8.208  11.349   9.450
 5287POPC   PO414232   8.164  11.338   9.150
 5287POPC   GL114233   8.200  11.350   8.850
 5287POPC   GL214234   8.250  11.253   8.850
 5287POPC   C1A14235   8.162  11.350   8.550
 5287POPC   D2A14236   8.204  11.288   8.250
 5287POPC   C3A14237   8.165  11.296   7.950
 5287POPC   C4A14238   8.157  11.254   7.650
 5287POPC   C1B14239   8.424  11.114   8.550
 5287POPC   C2B14240   8.394  11.144   8.250
 5287POPC   C3B14241   8.406  11.163   7.950
 5287POPC   C4B14242   8.347  11.175   7.650
 5288POPC   NC314243   5.878   9.750   9.450
 5288POPC   PO414244   5.879   9.723   9.150
 5288POPC   GL114245   5.822   9.752   8.850
 5288POPC   GL214246   5.951   9.608   8.850
 5288POPC   C1A14247   5.851   9.755   8.550
 5288POPC   D2A14248   5.862   9.704   8.250
 5288POPC   C3A14249   5.832   9.746   7.950
 5288POPC   C4A14250   5.892   9.775   7.650
 5288POPC   C1B14251   5.945   9.569   8.550
 5288POPC   C2B14252   5.963   9.551   8.250
 5288POPC   C3B14253   5.962   9.547   7.950
 5288POPC   C4B14254   5.961   9.547   7.650
 5289POPC   NC314255   8.157  16.761   9.450
 5289POPC   PO414256   8.202  16.731   9.150
 5289POPC   GL114257   8.218  16.716   8.850
 5289POPC   GL214258   8.201  16.829   8.850
 5289POPC   C1A14259   8.200  16.771   8.550
 5289POPC   D2A14260   8.192  16.744   8.250
 5289POPC   C3A14261   8.185  16.681   7.950
 5289POPC   C4A14262   8.149  16.765   7.650
 5289POPC   C1B14263   8.188  16.952   8.550
 5289POPC   C2B14264   8.236  16.975   8.250
 5289POPC   C3B14265   8.239  16.998   7.950
 5289POPC   C4B14266   8.157  16.998   7.650
 5290POPC   NC314267   0.404  19.074   9.450
 5290POPC   PO414268   0.409  19.087   9.150
 5290POPC   GL114269   0.484  19.082   8.850
 5290POPC   GL214270   0.352  19.161   8.850
 5290POPC   C1A14271   0.400  19.100   8.550
 5290POPC   D2A14272   0.428  19.049   8.250
 5290POPC   C3A14273   0.410  19.076   7.950
 5290POPC   C4A14274   0.436  19.082   7.650
 5290POPC   C1B14275   0.178  19.165   8.550
 5290POPC   C2B14276   0.257  19.165   8.250
 5290POPC   C3B14277   0.212  19.144   7.950
 5290POPC   C4B14278   0.222  19.195   7.650
 5291POPC   NC314279  15.217  39.212   9.450
 5291POPC   PO414280  15.171  39.234   9.150
 5291POPC   GL114281  15.200  39.264   8.850
 5291POPC   GL214282  15.027  39.188   8.850
 5291POPC   C1A14283  15.182  39.235   8.550
 5291POPC   D2A14284  15.192  39.210   8.250
 5291POPC   C3A14285  15.201  39.206   7.950
 5291POPC   C4A14286  15.138  39.215   7.650
 5291POPC   C1B14287  14.949  39.197   8.550
 5291POPC   C2B14288  14.952  39.209   8.250
 5291POPC   C3B14289  14.914  39.194   7.950
 5291POPC   C4B14290  14.978  39.258   7.650
 5292POPC   NC314291  26.844  26.773   9.450
 5292POPC   PO414292  26.771  26.782   9.150
 5292POPC   GL114293  26.805  26.787   8.850
 5292POPC   GL214294  26.859  26.960   8.850
 5292POPC   C1A14295  26.780  26.805   8.550
 5292POPC   D2A14296  26.830  26.859   8.250
 5292POPC   C3A14297  26.786  26.867   7.950
 5292POPC   C4A14298  26.783  26.833   7.650
 5292POPC   C1B14299  26.909  27.032   8.550
 5292POPC   C2B14300  26.857  27.096   8.250
 5292POPC   C3B14301  26.842  27.034   7.950
 5292POPC   C4B14302  26.923  27.043   7.650
 5293POPC   NC314303   5.128  33.842   9.450
 5293POPC   PO414304   5.136  33.783   9.150
 5293POPC   GL114305   5.078  33.803   8.850
 5293POPC   GL214306   5.225  33.886   8.850
 5293POPC   C1A14307   5.069  33.765   8.550
 5293POPC   D2A14308   5.137  33.753   8.250
 5293POPC   C3A14309   5.049  33.850   7.950
 5293POPC   C4A14310   5.122  33.835   7.650
 5293POPC   C1B14311   5.319  33.954   8.550
 5293POPC   C2B14312   5.349  33.905   8.250
 5293POPC   C3B14313   5.359  33.876   7.950
 5293POPC   C4B14314   5.313  33.873   7.650
 5294POPC   NC314315  30.721  10.551   9.450
 5294POPC   PO414316  30.709  10.535   9.150
 5294POPC   GL114317  30.719  10.535   8.850
 5294POPC   GL214318  30.783  10.594   8.850
 5294POPC   C1A14319  30.661  10.559   8.550
 5294POPC   D2A14320  30.694  10.514   8.250
 5294POPC   C3A14321  30.653  10.499   7.950
 5294POPC   C4A14322  30.654  10.555   7.650
 5294POPC   C1B14323  30.933  10.642   8.550
 5294POPC   C2B14324  30.979  10.641   8.250
 5294POPC   C3B14325  30.954  10.605   7.950
 5294POPC   C4B14326  30.978  10.565   7.650
 5295POPC   NC314327  24.511  28.348   9.450
 5295POPC   PO414328  24.512  28.364   9.150
 5295POPC   GL114329  24.456  28.418   8.850
 5295POPC   GL214330  24.335  28.338   8.850
 5295POPC   C1A14331  24.460  28.377   8.550
 5295POPC   D2A14332  24.527  28.395   8.250
 5295POPC   C3A14333  24.528  28.369   7.950
 5295POPC   C4A14334  24.497  28.386   7.650
 5295POPC   C1B14335  24.267  28.293   8.550
 5295POPC   C2B14336  24.287  28.312   8.250
 5295POPC   C3B14337  24.255  28.308   7.950
 5295POPC   C4B14338  24.218  28.323   7.650
 5296POPC   NC314339  29.122   7.391   9.450
 5296POPC   PO414340  29.141   7.395   9.150
 5296POPC   GL114341  29.160   7.426   8.850
 5296POPC   GL214342  29.018   7.517   8.850
 5296POPC   C1A14343  29.129   7.466   8.550
 5296POPC   D2A14344  29.157   7.411   8.250
 5296POPC   C3A14345  29.121   7.435   7.950
 5296POPC   C4A14346  29.097   7.433   7.650
 5296POPC   C1B14347  28.934   7.632   8.550
 5296POPC   C2B14348  28.997   7.576   8.250
 5296POPC   C3B14349  28.935   7.597   7.950
 5296POPC   C4B14350  28.934   7.627   7.650
 5297POPC   NC314351   4.300  31.457   9.450
 5297POPC   PO414352   4.366  31.439   9.150
 5297POPC   GL114353   4.351  31.489   8.850
 5297POPC   GL214354   4.391  31.354   8.850
 5297POPC   C1A14355   4.353  31.482   8.550
 5297POPC   D2A14356   4.340  31.493   8.250
 5297POPC   C3A14357   4.307  31.493   7.950
 5297POPC   C4A14358   4.270  31.489   7.650
 5297POPC   C1B14359   4.384  31.275   8.550
 5297POPC   C2B14360   4.428  31.208   8.250
 5297POPC   C3B14361   4.391  31.247   7.950
 5297POPC   C4B14362   4.463  31.214   7.650
 5298POPC   NC314363  35.393  12.102   9.450
 5298POPC   PO414364  35.345  12.028   9.150
 5298POPC   GL114365  35.317  12.121   8.850
 5298POPC   GL214366  35.283  11.915   8.850
 5298POPC   C1A14367  35.366  12.059   8.550
 5298POPC   D2A14368  35.350  12.085   8.250
 5298POPC   C3A14369  35.307  12.030   7.950
 5298POPC   C4A14370  35.355  12.043   7.650
 5298POPC   C1B14371  35.281  11.834   8.550
 5298POPC   C2B14372  35.281  11.864   8.250
 5298POPC   C3B14373  35.212  11.814   7.950
 5298POPC   C4B14374  35.263  11.805   7.650
 5299POPC   NC314375  12.850  39.278   9.450
 5299POPC   PO414376  12.802  39.273   9.150
 5299POPC   GL114377  12.819  39.235   8.850
 5299POPC   GL214378  12.957  39.311   8.850
 5299POPC   C1A14379  12.838  39.216   8.550
 5299POPC   D2A14380  12.872  39.258   8.250
 5299POPC   C3A14381  12.806  39.256   7.950
 5299POPC   C4A14382  12.836  39.210   7.650
 5299POPC   C1B14383  12.996  39.396   8.550
 5299POPC   C2B14384  12.977  39.420   8.250
 5299POPC   C3B14385  13.019  39.459   7.950
 5299POPC   C4B14386  12.982  39.412   7.650
 5300POPC   NC314387   8.243  18.265   9.450
 5300POPC   PO414388   8.161  18.267   9.150
 5300POPC   GL114389   8.168  18.298   8.850
 5300POPC   GL214390   8.134  18.243   8.850
 5300POPC   C1A14391   8.169  18.316   8.550
 5300POPC   D2A14392   8.196  18.283   8.250
 5300POPC   C3A14393   8.158  18.264   7.950
 5300POPC   C4A14394   8.150  18.285   7.650
 5300POPC   C1B14395   7.947  18.148   8.550
 5300POPC   C2B14396   8.004  18.132   8.250
 5300POPC   C3B14397   7.994  18.162   7.950
 5300POPC   C4B14398   8.003  18.151   7.650
 5301POPC   NC314399  42.322  29.908   9.450
 5301POPC   PO414400  42.345  29.928   9.150
 5301POPC   GL114401  42.343  29.961   8.850
 5301POPC   GL214402  42.440  30.062   8.850
 5301POPC   C1A14403  42.357  29.967   8.550
 5301POPC   D2A14404  42.358  29.956   8.250
 5301POPC   C3A14405  42.330  29.900   7.950
 5301POPC   C4A14406  42.301  29.898   7.650
 5301POPC   C1B14407  42.504  30.103   8.550
 5301POPC   C2B14408  42.465  30.087   8.250
 5301POPC   C3B14409  42.517  30.101   7.950
 5301POPC   C4B14410  42.492  30.143   7.650
 5302POPC   NC314411   6.632   6.669   9.450
 5302POPC   PO414412   6.605   6.682   9.150
 5302POPC   GL114413   6.629   6.679   8.850
 5302POPC   GL214414   6.507   6.672   8.850
 5302POPC   C1A14415   6.646   6.605   8.550
 5302POPC   D2A14416   6.650   6.652   8.250
 5302POPC   C3A14417   6.638   6.694   7.950
 5302POPC   C4A14418   6.616   6.621   7.650
 5302POPC   C1B14419   6.458   6.696   8.550
 5302POPC   C2B14420   6.457   6.761   8.250
 5302POPC   C3B14421   6.461   6.772   7.950
 5302POPC   C4B14422   6.412   6.719   7.650
 5303POPC   NC314423  17.517  14.397   9.450
 5303POPC   PO414424  17.512  14.358   9.150
 5303POPC   GL114425  17.524  14.383   8.850
 5303POPC   GL214426  17.546  14.328   8.850
 5303POPC   C1A14427  17.541  14.418   8.550
 5303POPC   D2A14428  17.457  14.450   8.250
 5303POPC   C3A14429  17.509  14.436   7.950
 5303POPC   C4A14430  17.491  14.403   7.650
 5303POPC   C1B14431  17.604  14.178   8.550
 5303POPC   C2B14432  17.592  14.218   8.250
 5303POPC   C3B14433  17.656  14.192   7.950
 5303POPC   C4B14434  17.632  14.176   7.650
 5304POPC   NC314435  40.807  10.481   9.450
 5304POPC   PO414436  40.737  10.498   9.150
 5304POPC   GL114437  40.777  10.571   8.850
 5304POPC   GL214438  40.867  10.542   8.850
 5304POPC   C1A14439  40.746  10.520   8.550
 5304POPC   D2A14440  40.772  10.509   8.250
 5304POPC   C3A14441  40.756  10.531   7.950
 5304POPC   C4A14442  40.823  10.482   7.650
 5304POPC   C1B14443  41.038  10.510   8.550
 5304POPC   C2B14444  41.021  10.485   8.250
 5304POPC   C3B14445  41.037  10.505   7.950
 5304POPC   C4B14446  41.068  10.479   7.650
 5305POPC   NC314447  12.112  23.691   9.450
 5305POPC   PO414448  12.082  23.692   9.150
 5305POPC   GL114449  12.123  23.720   8.850
 5305POPC   GL214450  12.131  23.596   8.850
 5305POPC   C1A14451  12.062  23.725   8.550
 5305POPC   D2A14452  12.080  23.710   8.250
 5305POPC   C3A14453  12.068  23.736   7.950
 5305POPC   C4A14454  12.055  23.696   7.650
 5305POPC   C1B14455  12.099  23.473   8.550
 5305POPC   C2B14456  12.133  23.440   8.250
 5305POPC   C3B14457  12.142  23.441   7.950
 5305POPC   C4B14458  12.053  23.443   7.650
 5306POPC   NC314459   0.433  10.564   9.450
 5306POPC   PO414460   0.467  10.480   9.150
 5306POPC   GL114461   0.410  10.522   8.850
 5306POPC   GL214462   0.519  10.383   8.850
 5306POPC   C1A14463   0.470  10.567   8.550
 5306POPC   D2A14464   0.477  10.480   8.250
 5306POPC   C3A14465   0.412  10.506   7.950
 5306POPC   C4A14466   0.419  10.550   7.650
 5306POPC   C1B14467   0.580  10.265   8.550
 5306POPC   C2B14468   0.515  10.340   8.250
 5306POPC   C3B14469   0.507  10.253   7.950
 5306POPC   C4B14470   0.584  10.281   7.650
 5307POPC   NC314471   6.648  38.455   9.450
 5307POPC   PO414472   6.609  38.459   9.150
 5307POPC   GL114473   6.610  38.413   8.850
 5307POPC   GL214474   6.711  38.529   8.850
 5307POPC   C1A14475   6.615  38.433   8.550
 5307POPC   D2A14476   6.660  38.466   8.250
 5307POPC   C3A14477   6.678  38.463   7.950
 5307POPC   C4A14478   6.601  38.473   7.650
 5307POPC   C1B14479   6.803  38.685   8.550
 5307POPC   C2B14480   6.752  38.684   8.250
 5307POPC   C3B14481   6.770  38.657   7.950
 5307POPC   C4B14482   6.836  38.618   7.650
 5308POPC   NC314483   6.643   2.762   9.450
 5308POPC   PO414484   6.605   2.749   9.150
 5308POPC   GL114485   6.641   2.753   8.850
 5308POPC   GL214486   6.622   2.842   8.850
 5308POPC   C1A14487   6.680   2.810   8.550
 5308POPC   D2A14488   6.647   2.723   8.250
 5308POPC   C3A14489   6.656   2.786   7.950
 5308POPC   C4A14490   6.628   2.810   7.650
 5308POPC   C1B14491   6.636   3.022   8.550
 5308POPC   C2B14492   6.659   2.971   8.250
 5308POPC   C3B14493   6.680   3.025   7.950
 5308POPC   C4B14494   6.661   3.063   7.650
 5309POPC   NC314495   1.231  21.392   9.450
 5309POPC   PO414496   1.206  21.389   9.150
 5309POPC   GL114497   1.243  21.378   8.850
 5309POPC   GL214498   1.233  21.461   8.850
 5309POPC   C1A14499   1.173  21.341   8.550
 5309POPC   D2A14500   1.213  21.395   8.250
 5309POPC   C3A14501   1.221  21.385   7.950
 5309POPC   C4A14502   1.206  21.357   7.650
 5309POPC   C1B14503   1.276  21.617   8.550
 5309POPC   C2B14504   1.347  21.566   8.250
 5309POPC   C3B14505   1.328  21.602   7.950
 5309POPC   C4B14506   1.315  21.581   7.650
 5310POPC   NC314507  12.853   8.190   9.450
 5310POPC   PO414508  12.867   8.194   9.150
 5310POPC   GL114509  12.834   8.214   8.850
 5310POPC   GL214510  12.840   8.282   8.850
 5310POPC   C1A14511  12.807   8.242   8.550
 5310POPC   D2A14512  12.816   8.164   8.250
 5310POPC   C3A14513  12.806   8.189   7.950
 5310POPC   C4A14514  12.820   8.154   7.650
 5310POPC   C1B14515  12.862   8.418   8.550
 5310POPC   C2B14516  12.945   8.415   8.250
 5310POPC   C3B14517  12.854   8.402   7.950
 5310POPC   C4B14518  12.877   8.422   7.650
 5311POPC   NC314519  15.181   1.972   9.450
 5311POPC   PO414520  15.208   2.034   9.150
 5311POPC   GL114521  15.162   2.000   8.850
 5311POPC   GL214522  15.259   2.094   8.850
 5311POPC   C1A14523  15.229   1.962   8.550
 5311POPC   D2A14524  15.148   1.941   8.250
 5311POPC   C3A14525  15.139   2.027   7.950
 5311POPC   C4A14526  15.201   1.941   7.650
 5311POPC   C1B14527  15.413   2.164   8.550
 5311POPC   C2B14528  15.385   2.180   8.250
 5311POPC   C3B14529  15.403   2.151   7.950
 5311POPC   C4B14530  15.401   2.143   7.650
 5312POPC   NC314531  40.763   8.232   9.450
 5312POPC   PO414532  40.803   8.236   9.150
 5312POPC   GL114533  40.826   8.205   8.850
 5312POPC   GL214534  40.645   8.221   8.850
 5312POPC   C1A14535  40.757   8.165   8.550
 5312POPC   D2A14536  40.794   8.234   8.250
 5312POPC   C3A14537  40.760   8.242   7.950
 5312POPC   C4A14538  40.751   8.194   7.650
 5312POPC   C1B14539  40.551   8.198   8.550
 5312POPC   C2B14540  40.544   8.281   8.250
 5312POPC   C3B14541  40.508   8.207   7.950
 5312POPC   C4B14542  40.506   8.253   7.650
 5313POPC   NC314543  17.490  10.518   9.450
 5313POPC   PO414544  17.553  10.548   9.150
 5313POPC   GL114545  17.485  10.533   8.850
 5313POPC   GL214546  17.674  10.584   8.850
 5313POPC   C1A14547  17.493  10.555   8.550
 5313POPC   D2A14548  17.534  10.517   8.250
 5313POPC   C3A14549  17.501  10.536   7.950
 5313POPC   C4A14550  17.457  10.538   7.650
 5313POPC   C1B14551  17.743  10.607   8.550
 5313POPC   C2B14552  17.714  10.551   8.250
 5313POPC   C3B14553  17.735  10.571   7.950
 5313POPC   C4B14554  17.767  10.559   7.650
 5314POPC   NC314555  18.267   2.767   9.450
 5314POPC   PO414556  18.314   2.744   9.150
 5314POPC   GL114557  18.247   2.807   8.850
 5314POPC   GL214558  18.329   2.692   8.850
 5314POPC   C1A14559  18.264   2.716   8.550
 5314POPC   D2A14560  18.284   2.773   8.250
 5314POPC   C3A14561  18.254   2.746   7.950
 5314POPC   C4A14562  18.324   2.750   7.650
 5314POPC   C1B14563  18.413   2.611   8.550
 5314POPC   C2B14564  18.491   2.599   8.250
 5314POPC   C3B14565  18.487   2.617   7.950
 5314POPC   C4B14566  18.504   2.569   7.650
 5315POPC   NC314567   2.771  42.316   9.450
 5315POPC   PO414568   2.814  42.344   9.150
 5315POPC   GL114569   2.783  42.309   8.850
 5315POPC   GL214570   2.678  42.249   8.850
 5315POPC   C1A14571   2.804  42.377   8.550
 5315POPC   D2A14572   2.755  42.310   8.250
 5315POPC   C3A14573   2.780  42.326   7.950
 5315POPC   C4A14574   2.758  42.328   7.650
 5315POPC   C1B14575   2.609  42.180   8.550
 5315POPC   C2B14576   2.566  42.227   8.250
 5315POPC   C3B14577   2.556  42.147   7.950
 5315POPC   C4B14578   2.598  42.210   7.650
 5316POPC   NC314579   1.246  29.928   9.450
 5316POPC   PO414580   1.252  29.901   9.150
 5316POPC   GL114581   1.179  29.959   8.850
 5316POPC   GL214582   1.287  30.058   8.850
 5316POPC   C1A14583   1.177  29.970   8.550
 5316POPC   D2A14584   1.231  29.966   8.250
 5316POPC   C3A14585   1.190  29.888   7.950
 5316POPC   C4A14586   1.256  29.896   7.650
 5316POPC   C1B14587   1.284  30.204   8.550
 5316POPC   C2B14588   1.280  30.144   8.250
 5316POPC   C3B14589   1.326  30.126   7.950
 5316POPC   C4B14590   1.247  30.193   7.650
 5317POPC   NC314591  16.769  39.240   9.450
 5317POPC   PO414592  16.764  39.233   9.150
 5317POPC   GL114593  16.721  39.233   8.850
 5317POPC   GL214594  16.760  39.089   8.850
 5317POPC   C1A14595  16.754  39.230   8.550
 5317POPC   D2A14596  16.749  39.210   8.250
 5317POPC   C3A14597  16.738  39.276   7.950
 5317POPC   C4A14598  16.738  39.198   7.650
 5317POPC   C1B14599  16.805  39.043   8.550
 5317POPC   C2B14600  16.868  39.004   8.250
 5317POPC   C3B14601  16.897  38.966   7.950
 5317POPC   C4B14602  16.837  38.990   7.650
 5318POPC   NC314603  16.736  13.661   9.450
 5318POPC   PO414604  16.704  13.639   9.150
 5318POPC   GL114605  16.751  13.633   8.850
 5318POPC   GL214606  16.769  13.571   8.850
 5318POPC   C1A14607  16.708  13.612   8.550
 5318POPC   D2A14608  16.695  13.620   8.250
 5318POPC   C3A14609  16.763  13.661   7.950
 5318POPC   C4A14610  16.712  13.662   7.650
 5318POPC   C1B14611  16.838  13.436   8.550
 5318POPC   C2B14612  16.850  13.408   8.250
 5318POPC   C3B14613  16.904  13.434   7.950
 5318POPC   C4B14614  16.922  13.409   7.650
 5319POPC   NC314615   5.045  40.744   9.450
 5319POPC   PO414616   5.104  40.765   9.150
 5319POPC   GL114617   5.095  40.821   8.850
 5319POPC   GL214618   5.188  40.891   8.850
 5319POPC   C1A14619   5.066  40.792   8.550
 5319POPC   D2A14620   5.137  40.831   8.250
 5319POPC   C3A14621   5.099  40.786   7.950
 5319POPC   C4A14622   5.131  40.762   7.650
 5319POPC   C1B14623   5.194  40.962   8.550
 5319POPC   C2B14624   5.218  40.963   8.250
 5319POPC   C3B14625   5.196  40.953   7.950
 5319POPC   C4B14626   5.240  41.001   7.650
 5320POPC   NC314627  19.063   8.181   9.450
 5320POPC   PO414628  19.033   8.167   9.150
 5320POPC   GL114629  19.107   8.208   8.850
 5320POPC   GL214630  19.138   8.130   8.850
 5320POPC   C1A14631  19.045   8.238   8.550
 5320POPC   D2A14632  19.100   8.214   8.250
 5320POPC   C3A14633  19.042   8.174   7.950
 5320POPC   C4A14634  19.025   8.245   7.650
 5320POPC   C1B14635  19.295   8.102   8.550
 5320POPC   C2B14636  19.308   8.064   8.250
 5320POPC   C3B14637  19.300   8.092   7.950
 5320POPC   C4B14638  19.306   8.121   7.650
 5321POPC   NC314639  42.316  12.106   9.450
 5321POPC   PO414640  42.293  12.047   9.150
 5321POPC   GL114641  42.351  12.051   8.850
 5321POPC   GL214642  42.358  12.001   8.850
 5321POPC   C1A14643  42.304  12.059   8.550
 5321POPC   D2A14644  42.338  12.059   8.250
 5321POPC   C3A14645  42.327  12.094   7.950
 5321POPC   C4A14646  42.297  12.072   7.650
 5321POPC   C1B14647  42.325  11.781   8.550
 5321POPC   C2B14648  42.296  11.789   8.250
 5321POPC   C3B14649  42.285  11.857   7.950
 5321POPC   C4B14650  42.332  11.786   7.650
 5322POPC   NC314651  18.279   4.356   9.450
 5322POPC   PO414652  18.272   4.358   9.150
 5322POPC   GL114653  18.261   4.302   8.850
 5322POPC   GL214654  18.415   4.318   8.850
 5322POPC   C1A14655  18.273   4.340   8.550
 5322POPC   D2A14656  18.298   4.356   8.250
 5322POPC   C3A14657  18.310   4.329   7.950
 5322POPC   C4A14658  18.290   4.321   7.650
 5322POPC   C1B14659  18.497   4.384   8.550
 5322POPC   C2B14660  18.506   4.312   8.250
 5322POPC   C3B14661  18.533   4.353   7.950
 5322POPC   C4B14662  18.488   4.299   7.650
 5323POPC   NC314663   4.322  19.025   9.450
 5323POPC   PO414664   4.287  19.096   9.150
 5323POPC   GL114665   4.278  19.053   8.850
 5323POPC   GL214666   4.182  19.016   8.850
 5323POPC   C1A14667   4.285  19.072   8.550
 5323POPC   D2A14668   4.296  19.025   8.250
 5323POPC   C3A14669   4.304  19.105   7.950
 5323POPC   C4A14670   4.307  19.075   7.650
 5323POPC   C1B14671   4.050  19.103   8.550
 5323POPC   C2B14672   4.064  19.044   8.250
 5323POPC   C3B14673   4.049  19.081   7.950
 5323POPC   C4B14674   4.039  19.034   7.650
 5324POPC   NC314675   2.794  43.078   9.450
 5324POPC   PO414676   2.779  43.060   9.150
 5324POPC   GL114677   2.737  43.084   8.850
 5324POPC   GL214678   2.785  43.230   8.850
 5324POPC   C1A14679   2.726  43.082   8.550
 5324POPC   D2A14680   2.813  43.141   8.250
 5324POPC   C3A14681   2.749  43.100   7.950
 5324POPC   C4A14682   2.782  43.144   7.650
 5324POPC   C1B14683   2.716  43.348   8.550
 5324POPC   C2B14684   2.707  43.306   8.250
 5324POPC   C3B14685   2.669  43.305   7.950
 5324POPC   C4B14686   2.755  43.388   7.650
 5325POPC   NC314687   8.234   3.568   9.450
 5325POPC   PO414688   8.147   3.539   9.150
 5325POPC   GL114689   8.190   3.512   8.850
 5325POPC   GL214690   8.138   3.430   8.850
 5325POPC   C1A14691   8.197   3.509   8.550
 5325POPC   D2A14692   8.159   3.544   8.250
 5325POPC   C3A14693   8.200   3.571   7.950
 5325POPC   C4A14694   8.206   3.583   7.650
 5325POPC   C1B14695   8.074   3.319   8.550
 5325POPC   C2B14696   8.049   3.328   8.250
 5325POPC   C3B14697   8.123   3.330   7.950
 5325POPC   C4B14698   8.130   3.331   7.650
 5326POPC   NC314699  30.660   9.012   9.450
 5326POPC   PO414700  30.733   8.952   9.150
 5326POPC   GL114701  30.652   8.949   8.850
 5326POPC   GL214702  30.767   8.961   8.850
 5326POPC   C1A14703  30.731   8.946   8.550
 5326POPC   D2A14704  30.706   9.018   8.250
 5326POPC   C3A14705  30.745   8.986   7.950
 5326POPC   C4A14706  30.705   8.957   7.650
 5326POPC   C1B14707  30.940   8.920   8.550
 5326POPC   C2B14708  30.900   8.903   8.250
 5326POPC   C3B14709  30.920   8.930   7.950
 5326POPC   C4B14710  30.925   8.858   7.650
 5327POPC   NC314711  28.355   9.003   9.450
 5327POPC   PO414712  28.351   9.013   9.150
 5327POPC   GL114713  28.321   8.933   8.850
 5327POPC   GL214714  28.380   8.893   8.850
 5327POPC   C1A14715  28.391   8.939   8.550
 5327POPC   D2A14716  28.361   9.020   8.250
 5327POPC   C3A14717  28.401   8.964   7.950
 5327POPC   C4A14718  28.381   9.011   7.650
 5327POPC   C1B14719  28.306   8.757   8.550
 5327POPC   C2B14720  28.292   8.729   8.250
 5327POPC   C3B14721  28.347   8.695   7.950
 5327POPC   C4B14722  28.273   8.684   7.650
 5328POPC   NC314723  29.189  26.022   9.450
 5328POPC   PO414724  29.137  26.022   9.150
 5328POPC   GL114725  29.099  26.077   8.850
 5328POPC   GL214726  29.171  25.967   8.850
 5328POPC   C1A14727  29.100  26.065   8.550
 5328POPC   D2A14728  29.106  26.073   8.250
 5328POPC   C3A14729  29.131  26.027   7.950
 5328POPC   C4A14730  29.166  26.086   7.650
 5328POPC   C1B14731  29.228  25.791   8.550
 5328POPC   C2B14732  29.206  25.782   8.250
 5328POPC   C3B14733  29.227  25.769   7.950
 5328POPC   C4B14734  29.267  25.798   7.650
 5329POPC   NC314735  29.160  34.570   9.450
 5329POPC   PO414736  29.127  34.581   9.150
 5329POPC   GL114737  29.123  34.591   8.850
 5329POPC   GL214738  29.121  34.463   8.850
 5329POPC   C1A14739  29.176  34.590   8.550
 5329POPC   D2A14740  29.192  34.526   8.250
 5329POPC   C3A14741  29.153  34.557   7.950
 5329POPC   C4A14742  29.143  34.581   7.650
 5329POPC   C1B14743  29.060  34.297   8.550
 5329POPC   C2B14744  29.047  34.312   8.250
 5329POPC   C3B14745  29.126  34.340   7.950
 5329POPC   C4B14746  29.053  34.383   7.650
 5330POPC   NC314747  33.015  10.562   9.450
 5330POPC   PO414748  32.980  10.499   9.150
 5330POPC   GL114749  33.042  10.535   8.850
 5330POPC   GL214750  32.935  10.538   8.850
 5330POPC   C1A14751  33.065  10.491   8.550
 5330POPC   D2A14752  32.994  10.508   8.250
 5330POPC   C3A14753  32.994  10.543   7.950
 5330POPC   C4A14754  33.046  10.492   7.650
 5330POPC   C1B14755  32.817  10.526   8.550
 5330POPC   C2B14756  32.791  10.533   8.250
 5330POPC   C3B14757  32.788  10.485   7.950
 5330POPC   C4B14758  32.739  10.482   7.650
 5331POPC   NC314759   5.853  43.080   9.450
 5331POPC   PO414760   5.827  43.096   9.150
 5331POPC   GL114761   5.887  43.086   8.850
 5331POPC   GL214762   5.749  43.089   8.850
 5331POPC   C1A14763   5.905  43.140   8.550
 5331POPC   D2A14764   5.855  43.107   8.250
 5331POPC   C3A14765   5.838  43.130   7.950
 5331POPC   C4A14766   5.874  43.111   7.650
 5331POPC   C1B14767   5.663  42.958   8.550
 5331POPC   C2B14768   5.631  42.962   8.250
 5331POPC   C3B14769   5.612  43.026   7.950
 5331POPC   C4B14770   5.644  42.974   7.650
 5332POPC   NC314771  25.284  24.537   9.450
 5332POPC   PO414772  25.235  24.476   9.150
 5332POPC   GL114773  25.269  24.451   8.850
 5332POPC   GL214774  25.294  24.575   8.850
 5332POPC   C1A14775  25.218  24.473   8.550
 5332POPC   D2A14776  25.240  24.518   8.250
 5332POPC   C3A14777  25.280  24.474   7.950
 5332POPC   C4A14778  25.227  24.443   7.650
 5332POPC   C1B14779  25.385  24.722   8.550
 5332POPC   C2B14780  25.360  24.676   8.250
 5332POPC   C3B14781  25.405  24.763   7.950
 5332POPC   C4B14782  25.342  24.702   7.650
 5333POPC   NC314783  11.268   1.949   9.450
 5333POPC   PO414784  11.332   2.038   9.150
 5333POPC   GL114785  11.323   1.958   8.850
 5333POPC   GL214786  11.288   2.114   8.850
 5333POPC   C1A14787  11.288   1.958   8.550
 5333POPC   D2A14788  11.273   1.975   8.250
 5333POPC   C3A14789  11.298   1.985   7.950
 5333POPC   C4A14790  11.343   2.011   7.650
 5333POPC   C1B14791  11.265   2.251   8.550
 5333POPC   C2B14792  11.331   2.234   8.250
 5333POPC   C3B14793  11.288   2.203   7.950
 5333POPC   C4B14794  11.278   2.193   7.650
 5334POPC   NC314795   3.501   5.884   9.450
 5334POPC   PO414796   3.565   5.827   9.150
 5334POPC   GL114797   3.560   5.828   8.850
 5334POPC   GL214798   3.595   5.713   8.850
 5334POPC   C1A14799   3.542   5.915   8.550
 5334POPC   D2A14800   3.501   5.898   8.250
 5334POPC   C3A14801   3.574   5.905   7.950
 5334POPC   C4A14802   3.494   5.859   7.650
 5334POPC   C1B14803   3.700   5.664   8.550
 5334POPC   C2B14804   3.688   5.699   8.250
 5334POPC   C3B14805   3.622   5.657   7.950
 5334POPC   C4B14806   3.702   5.669   7.650
 5335POPC   NC314807  43.934   1.248   9.450
 5335POPC   PO414808  43.864   1.182   9.150
 5335POPC   GL114809  43.841   1.264   8.850
 5335POPC   GL214810  43.867   1.054   8.850
 5335POPC   C1A14811  43.877   1.187   8.550
 5335POPC   D2A14812  43.857   1.229   8.250
 5335POPC   C3A14813  43.877   1.255   7.950
 5335POPC   C4A14814  43.934   1.249   7.650
 5335POPC   C1B14815  43.858   1.012   8.550
 5335POPC   C2B14816  43.867   0.975   8.250
 5335POPC   C3B14817  43.831   0.997   7.950
 5335POPC   C4B14818  43.895   0.951   7.650
 5336POPC   NC314819  26.045  39.196   9.450
 5336POPC   PO414820  26.061  39.275   9.150
 5336POPC   GL114821  26.015  39.268   8.850
 5336POPC   GL214822  26.160  39.196   8.850
 5336POPC   C1A14823  26.003  39.277   8.550
 5336POPC   D2A14824  26.055  39.256   8.250
 5336POPC   C3A14825  26.077  39.238   7.950
 5336POPC   C4A14826  25.992  39.258   7.650
 5336POPC   C1B14827  26.301  39.151   8.550
 5336POPC   C2B14828  26.240  39.131   8.250
 5336POPC   C3B14829  26.271  39.124   7.950
 5336POPC   C4B14830  26.252  39.185   7.650
 5337POPC   NC314831   2.769  21.368   9.450
 5337POPC   PO414832   2.758  21.386   9.150
 5337POPC   GL114833   2.735  21.400   8.850
 5337POPC   GL214834   2.725  21.494   8.850
 5337POPC   C1A14835   2.731  21.425   8.550
 5337POPC   D2A14836   2.761  21.381   8.250
 5337POPC   C3A14837   2.768  21.370   7.950
 5337POPC   C4A14838   2.716  21.357   7.650
 5337POPC   C1B14839   2.598  21.569   8.550
 5337POPC   C2B14840   2.595  21.534   8.250
 5337POPC   C3B14841   2.606  21.524   7.950
 5337POPC   C4B14842   2.643  21.602   7.650
 5338POPC   NC314843  43.927  31.501   9.450
 5338POPC   PO414844  43.914  31.445   9.150
 5338POPC   GL114845  43.895  31.494   8.850
 5338POPC   GL214846  43.938  31.547   8.850
 5338POPC   C1A14847  43.917  31.489   8.550
 5338POPC   D2A14848  43.871  31.473   8.250
 5338POPC   C3A14849  43.848  31.502   7.950
 5338POPC   C4A14850  43.934  31.496   7.650
 5338POPC   C1B14851  44.004  31.654   8.550
 5338POPC   C2B14852  44.040  31.672   8.250
 5338POPC   C3B14853  44.012  31.726   7.950
 5338POPC   C4B14854  43.958  31.688   7.650
 5339POPC   NC314855  21.434   1.233   9.450
 5339POPC   PO414856  21.401   1.248   9.150
 5339POPC   GL114857  21.344   1.245   8.850
 5339POPC   GL214858  21.293   1.242   8.850
 5339POPC   C1A14859  21.367   1.260   8.550
 5339POPC   D2A14860  21.356   1.180   8.250
 5339POPC   C3A14861  21.352   1.213   7.950
 5339POPC   C4A14862  21.427   1.258   7.650
 5339POPC   C1B14863  21.160   1.319   8.550
 5339POPC   C2B14864  21.138   1.294   8.250
 5339POPC   C3B14865  21.156   1.334   7.950
 5339POPC   C4B14866  21.143   1.350   7.650
 5340POPC   NC314867  25.310  38.452   9.450
 5340POPC   PO414868  25.313  38.480   9.150
 5340POPC   GL114869  25.285  38.456   8.850
 5340POPC   GL214870  25.259  38.309   8.850
 5340POPC   C1A14871  25.229  38.443   8.550
 5340POPC   D2A14872  25.308  38.455   8.250
 5340POPC   C3A14873  25.216  38.492   7.950
 5340POPC   C4A14874  25.286  38.427   7.650
 5340POPC   C1B14875  25.314  38.242   8.550
 5340POPC   C2B14876  25.375  38.245   8.250
 5340POPC   C3B14877  25.314  38.207   7.950
 5340POPC   C4B14878  25.300  38.199   7.650
 5341POPC   NC314879   7.398  17.557   9.450
 5341POPC   PO414880   7.421  17.504   9.150
 5341POPC   GL114881   7.374  17.533   8.850
 5341POPC   GL214882   7.438  17.679   8.850
 5341POPC   C1A14883   7.469  17.465   8.550
 5341POPC   D2A14884   7.463  17.465   8.250
 5341POPC   C3A14885   7.396  17.515   7.950
 5341POPC   C4A14886   7.433  17.525   7.650
 5341POPC   C1B14887   7.463  17.720   8.550
 5341POPC   C2B14888   7.405  17.786   8.250
 5341POPC   C3B14889   7.481  17.744   7.950
 5341POPC   C4B14890   7.466  17.714   7.650
 5342POPC   NC314891   8.177   2.788   9.450
 5342POPC   PO414892   8.174   2.808   9.150
 5342POPC   GL114893   8.235   2.753   8.850
 5342POPC   GL214894   8.271   2.822   8.850
 5342POPC   C1A14895   8.227   2.753   8.550
 5342POPC   D2A14896   8.187   2.775   8.250
 5342POPC   C3A14897   8.162   2.769   7.950
 5342POPC   C4A14898   8.233   2.761   7.650
 5342POPC   C1B14899   8.388   2.978   8.550
 5342POPC   C2B14900   8.327   2.934   8.250
 5342POPC   C3B14901   8.370   3.004   7.950
 5342POPC   C4B14902   8.361   3.005   7.650
 5343POPC   NC314903   8.150  25.279   9.450
 5343POPC   PO414904   8.238  25.218   9.150
 5343POPC   GL114905   8.159  25.297   8.850
 5343POPC   GL214906   8.293  25.283   8.850
 5343POPC   C1A14907   8.246  25.234   8.550
 5343POPC   D2A14908   8.162  25.228   8.250
 5343POPC   C3A14909   8.173  25.276   7.950
 5343POPC   C4A14910   8.230  25.308   7.650
 5343POPC   C1B14911   8.451  25.307   8.550
 5343POPC   C2B14912   8.394  25.284   8.250
 5343POPC   C3B14913   8.453  25.322   7.950
 5343POPC   C4B14914   8.424  25.351   7.650
 5344POPC   NC314915  23.714   9.760   9.450
 5344POPC   PO414916  23.700   9.771   9.150
 5344POPC   GL114917  23.664   9.722   8.850
 5344POPC   GL214918  23.721   9.901   8.850
 5344POPC   C1A14919  23.743   9.772   8.550
 5344POPC   D2A14920  23.753   9.760   8.250
 5344POPC   C3A14921  23.685   9.738   7.950
 5344POPC   C4A14922  23.750   9.760   7.650
 5344POPC   C1B14923  23.730   9.994   8.550
 5344POPC   C2B14924  23.756  10.024   8.250
 5344POPC   C3B14925  23.785   9.995   7.950
 5344POPC   C4B14926  23.760  10.001   7.650
 5345POPC   NC314927  41.591   5.878   9.450
 5345POPC   PO414928  41.516   5.859   9.150
 5345POPC   GL114929  41.571   5.828   8.850
 5345POPC   GL214930  41.526   5.721   8.850
 5345POPC   C1A14931  41.579   5.837   8.550
 5345POPC   D2A14932  41.572   5.840   8.250
 5345POPC   C3A14933  41.522   5.844   7.950
 5345POPC   C4A14934  41.605   5.913   7.650
 5345POPC   C1B14935  41.480   5.676   8.550
 5345POPC   C2B14936  41.450   5.652   8.250
 5345POPC   C3B14937  41.397   5.620   7.950
 5345POPC   C4B14938  41.463   5.644   7.650
 5346POPC   NC314939  14.398  24.489   9.450
 5346POPC   PO414940  14.372  24.489   9.150
 5346POPC   GL114941  14.444  24.518   8.850
 5346POPC   GL214942  14.415  24.404   8.850
 5346POPC   C1A14943  14.442  24.443   8.550
 5346POPC   D2A14944  14.381  24.488   8.250
 5346POPC   C3A14945  14.368  24.466   7.950
 5346POPC   C4A14946  14.449  24.466   7.650
 5346POPC   C1B14947  14.332  24.202   8.550
 5346POPC   C2B14948  14.360  24.289   8.250
 5346POPC   C3B14949  14.302  24.262   7.950
 5346POPC   C4B14950  14.308  24.229   7.650
 5347POPC   NC314951   7.454   9.727   9.450
 5347POPC   PO414952   7.456   9.778   9.150
 5347POPC   GL114953   7.393   9.785   8.850
 5347POPC   GL214954   7.270   9.712   8.850
 5347POPC   C1A14955   7.458   9.756   8.550
 5347POPC   D2A14956   7.418   9.705   8.250
 5347POPC   C3A14957   7.408   9.782   7.950
 5347POPC   C4A14958   7.399   9.768   7.650
 5347POPC   C1B14959   7.216   9.657   8.550
 5347POPC   C2B14960   7.152   9.694   8.250
 5347POPC   C3B14961   7.174   9.635   7.950
 5347POPC   C4B14962   7.178   9.651   7.650
 5348POPC   NC314963  37.689  26.027   9.450
 5348POPC   PO414964  37.686  26.069   9.150
 5348POPC   GL114965  37.710  26.047   8.850
 5348POPC   GL214966  37.607  26.184   8.850
 5348POPC   C1A14967  37.724  26.026   8.550
 5348POPC   D2A14968  37.676  26.043   8.250
 5348POPC   C3A14969  37.672  26.054   7.950
 5348POPC   C4A14970  37.726  26.012   7.650
 5348POPC   C1B14971  37.565  26.266   8.550
 5348POPC   C2B14972  37.619  26.250   8.250
 5348POPC   C3B14973  37.615  26.305   7.950
 5348POPC   C4B14974  37.567  26.256   7.650
 5349POPC   NC314975  22.963   3.575   9.450
 5349POPC   PO414976  22.952   3.563   9.150
 5349POPC   GL114977  22.980   3.557   8.850
 5349POPC   GL214978  22.856   3.587   8.850
 5349POPC   C1A14979  22.972   3.589   8.550
 5349POPC   D2A14980  22.919   3.564   8.250
 5349POPC   C3A14981  22.912   3.537   7.950
 5349POPC   C4A14982  22.918   3.552   7.650
 5349POPC   C1B14983  22.716   3.643   8.550
 5349POPC   C2B14984  22.748   3.669   8.250
 5349POPC   C3B14985  22.752   3.625   7.950
 5349POPC   C4B14986  22.680   3.625   7.650
 5350POPC   NC314987   4.325  32.276   9.450
 5350POPC   PO414988   4.301  32.227   9.150
 5350POPC   GL114989   4.347  32.275   8.850
 5350POPC   GL214990   4.339  32.345   8.850
 5350POPC   C1A14991   4.315  32.232   8.550
 5350POPC   D2A14992   4.272  32.209   8.250
 5350POPC   C3A14993   4.293  32.255   7.950
 5350POPC   C4A14994   4.287  32.214   7.650
 5350POPC   C1B14995   4.378  32.513   8.550
 5350POPC   C2B14996   4.345  32.474   8.250
 5350POPC   C3B14997   4.305  32.461   7.950
 5350POPC   C4B14998   4.375  32.451   7.650
 5351POPC   NC314999  12.054   5.825   9.450
 5351POPC   PO415000  12.064   5.871   9.150
 5351POPC   GL115001  12.054   5.860   8.850
 5351POPC   GL215002  12.012   6.015   8.850
 5351POPC   C1A15003  12.035   5.837   8.550
 5351POPC   D2A15004  12.053   5.908   8.250
 5351POPC   C3A15005  12.034   5.858   7.950
 5351POPC   C4A15006  12.034   5.848   7.650
 5351POPC   C1B15007  12.007   6.101   8.550
 5351POPC   C2B15008  12.029   6.064   8.250
 5351POPC   C3B15009  11.991   6.115   7.950
 5351POPC   C4B15010  11.954   6.100   7.650
 5352POPC   NC315011  36.164  42.365   9.450
 5352POPC   PO415012  36.133  42.333   9.150
 5352POPC   GL115013  36.155  42.295   8.850
 5352POPC   GL215014  36.201  42.246   8.850
 5352POPC   C1A15015  36.175  42.339   8.550
 5352POPC   D2A15016  36.118  42.309   8.250
 5352POPC   C3A15017  36.149  42.368   7.950
 5352POPC   C4A15018  36.148  42.366   7.650
 5352POPC   C1B15019  36.276  42.156   8.550
 5352POPC   C2B15020  36.314  42.185   8.250
 5352POPC   C3B15021  36.308  42.219   7.950
 5352POPC   C4B15022  36.337  42.180   7.650
 5353POPC   NC315023  41.553  44.691   9.450
 5353POPC   PO415024  41.558  44.631   9.150
 5353POPC   GL115025  41.526  44.676   8.850
 5353POPC   GL215026  41.441  44.583   8.850
 5353POPC   C1A15027  41.566  44.666   8.550
 5353POPC   D2A15028  41.520  44.676   8.250
 5353POPC   C3A15029  41.556  44.692   7.950
 5353POPC   C4A15030  41.514  44.653   7.650
 5353POPC   C1B15031  41.372  44.457   8.550
 5353POPC   C2B15032  41.351  44.464   8.250
 5353POPC   C3B15033  41.411  44.469   7.950
 5353POPC   C4B15034  41.438  44.472   7.650
 5354POPC   NC315035   1.199   8.158   9.450
 5354POPC   PO415036   1.228   8.179   9.150
 5354POPC   GL115037   1.209   8.157   8.850
 5354POPC   GL215038   1.121   8.297   8.850
 5354POPC   C1A15039   1.194   8.151   8.550
 5354POPC   D2A15040   1.215   8.219   8.250
 5354POPC   C3A15041   1.246   8.230   7.950
 5354POPC   C4A15042   1.202   8.224   7.650
 5354POPC   C1B15043   1.050   8.397   8.550
 5354POPC   C2B15044   1.028   8.405   8.250
 5354POPC   C3B15045   1.067   8.327   7.950
 5354POPC   C4B15046   1.069   8.363   7.650
 5355POPC   NC315047  16.747  10.572   9.450
 5355POPC   PO415048  16.723  10.502   9.150
 5355POPC   GL115049  16.699  10.544   8.850
 5355POPC   GL215050  16.609  10.548   8.850
 5355POPC   C1A15051  16.757  10.495   8.550
 5355POPC   D2A15052  16.754  10.530   8.250
 5355POPC   C3A15053  16.727  10.562   7.950
 5355POPC   C4A15054  16.740  10.488   7.650
 5355POPC   C1B15055  16.484  10.626   8.550
 5355POPC   C2B15056  16.489  10.668   8.250
 5355POPC   C3B15057  16.506  10.642   7.950
 5355POPC   C4B15058  16.509  10.683   7.650
 5356POPC   NC315059  41.570  20.592   9.450
 5356POPC   PO415060  41.591  20.588   9.150
 5356POPC   GL115061  41.539  20.652   8.850
 5356POPC   GL215062  41.547  20.479   8.850
 5356POPC   C1A15063  41.571  20.587   8.550
 5356POPC   D2A15064  41.574  20.625   8.250
 5356POPC   C3A15065  41.582  20.610   7.950
 5356POPC   C4A15066  41.606  20.607   7.650
 5356POPC   C1B15067  41.558  20.347   8.550
 5356POPC   C2B15068  41.583  20.313   8.250
 5356POPC   C3B15069  41.523  20.399   7.950
 5356POPC   C4B15070  41.572  20.402   7.650
 5357POPC   NC315071  37.635  27.638   9.450
 5357POPC   PO415072  37.670  27.559   9.150
 5357POPC   GL115073  37.712  27.574   8.850
 5357POPC   GL215074  37.637  27.733   8.850
 5357POPC   C1A15075  37.710  27.576   8.550
 5357POPC   D2A15076  37.688  27.554   8.250
 5357POPC   C3A15077  37.693  27.628   7.950
 5357POPC   C4A15078  37.718  27.636   7.650
 5357POPC   C1B15079  37.567  27.838   8.550
 5357POPC   C2B15080  37.553  27.803   8.250
 5357POPC   C3B15081  37.538  27.777   7.950
 5357POPC   C4B15082  37.584  27.766   7.650
 5358POPC   NC315083  42.290  29.105   9.450
 5358POPC   PO415084  42.296  29.178   9.150
 5358POPC   GL115085  42.381  29.108   8.850
 5358POPC   GL215086  42.398  29.273   8.850
 5358POPC   C1A15087  42.358  29.097   8.550
 5358POPC   D2A15088  42.304  29.187   8.250
 5358POPC   C3A15089  42.355  29.097   7.950
 5358POPC   C4A15090  42.362  29.105   7.650
 5358POPC   C1B15091  42.522  29.337   8.550
 5358POPC   C2B15092  42.472  29.335   8.250
 5358POPC   C3B15093  42.522  29.293   7.950
 5358POPC   C4B15094  42.491  29.289   7.650
 5359POPC   NC315095  35.360  33.849   9.450
 5359POPC   PO415096  35.350  33.837   9.150
 5359POPC   GL115097  35.316  33.782   8.850
 5359POPC   GL215098  35.365  33.737   8.850
 5359POPC   C1A15099  35.325  33.762   8.550
 5359POPC   D2A15100  35.395  33.836   8.250
 5359POPC   C3A15101  35.335  33.828   7.950
 5359POPC   C4A15102  35.309  33.814   7.650
 5359POPC   C1B15103  35.436  33.554   8.550
 5359POPC   C2B15104  35.445  33.624   8.250
 5359POPC   C3B15105  35.510  33.604   7.950
 5359POPC   C4B15106  35.488  33.581   7.650
 5360POPC   NC315107   3.568  41.575   9.450
 5360POPC   PO415108   3.558  41.525   9.150
 5360POPC   GL115109   3.564  41.531   8.850
 5360POPC   GL215110   3.552  41.467   8.850
 5360POPC   C1A15111   3.546  41.598   8.550
 5360POPC   D2A15112   3.569  41.561   8.250
 5360POPC   C3A15113   3.505  41.542   7.950
 5360POPC   C4A15114   3.569  41.542   7.650
 5360POPC   C1B15115   3.535  41.276   8.550
 5360POPC   C2B15116   3.470  41.265   8.250
 5360POPC   C3B15117   3.535  41.286   7.950
 5360POPC   C4B15118   3.508  41.266   7.650
 5361POPC   NC315119  40.033  26.063   9.450
 5361POPC   PO415120  39.961  26.090   9.150
 5361POPC   GL115121  39.999  26.073   8.850
 5361POPC   GL215122  39.942  25.884   8.850
 5361POPC   C1A15123  40.046  26.012   8.550
 5361POPC   D2A15124  39.994  25.994   8.250
 5361POPC   C3A15125  39.981  26.020   7.950
 5361POPC   C4A15126  40.043  26.019   7.650
 5361POPC   C1B15127  39.904  25.859   8.550
 5361POPC   C2B15128  39.922  25.814   8.250
 5361POPC   C3B15129  39.866  25.802   7.950
 5361POPC   C4B15130  39.861  25.777   7.650
 5362POPC   NC315131   1.205  12.049   9.450
 5362POPC   PO415132   1.199  12.053   9.150
 5362POPC   GL115133   1.179  12.052   8.850
 5362POPC   GL215134   1.136  11.946   8.850
 5362POPC   C1A15135   1.188  12.028   8.550
 5362POPC   D2A15136   1.167  12.089   8.250
 5362POPC   C3A15137   1.168  12.053   7.950
 5362POPC   C4A15138   1.221  12.091   7.650
 5362POPC   C1B15139   1.105  11.848   8.550
 5362POPC   C2B15140   1.045  11.915   8.250
 5362POPC   C3B15141   1.045  11.872   7.950
 5362POPC   C4B15142   1.112  11.873   7.650
 5363POPC   NC315143  21.407   5.829   9.450
 5363POPC   PO415144  21.394   5.916   9.150
 5363POPC   GL115145  21.425   5.873   8.850
 5363POPC   GL215146  21.472   5.979   8.850
 5363POPC   C1A15147  21.358   5.845   8.550
 5363POPC   D2A15148  21.402   5.891   8.250
 5363POPC   C3A15149  21.432   5.837   7.950
 5363POPC   C4A15150  21.379   5.864   7.650
 5363POPC   C1B15151  21.558   5.993   8.550
 5363POPC   C2B15152  21.545   6.053   8.250
 5363POPC   C3B15153  21.539   6.029   7.950
 5363POPC   C4B15154  21.562   6.000   7.650
 5364POPC   NC315155  22.188  39.236   9.450
 5364POPC   PO415156  22.187  39.196   9.150
 5364POPC   GL115157  22.138  39.256   8.850
 5364POPC   GL215158  22.284  39.230   8.850
 5364POPC   C1A15159  22.152  39.242   8.550
 5364POPC   D2A15160  22.115  39.196   8.250
 5364POPC   C3A15161  22.211  39.269   7.950
 5364POPC   C4A15162  22.194  39.187   7.650
 5364POPC   C1B15163  22.393  39.274   8.550
 5364POPC   C2B15164  22.385  39.279   8.250
 5364POPC   C3B15165  22.396  39.269   7.950
 5364POPC   C4B15166  22.439  39.305   7.650
 5365POPC   NC315167  23.688  39.209   9.450
 5365POPC   PO415168  23.751  39.275   9.150
 5365POPC   GL115169  23.697  39.212   8.850
 5365POPC   GL215170  23.870  39.192   8.850
 5365POPC   C1A15171  23.705  39.245   8.550
 5365POPC   D2A15172  23.711  39.228   8.250
 5365POPC   C3A15173  23.717  39.185   7.950
 5365POPC   C4A15174  23.748  39.215   7.650
 5365POPC   C1B15175  23.906  39.181   8.550
 5365POPC   C2B15176  23.927  39.175   8.250
 5365POPC   C3B15177  23.926  39.153   7.950
 5365POPC   C4B15178  23.944  39.199   7.650
 5366POPC   NC315179   2.022  29.874   9.450
 5366POPC   PO415180   1.986  29.934   9.150
 5366POPC   GL115181   2.020  29.918   8.850
 5366POPC   GL215182   2.075  29.877   8.850
 5366POPC   C1A15183   2.039  29.875   8.550
 5366POPC   D2A15184   2.018  29.875   8.250
 5366POPC   C3A15185   1.973  29.949   7.950
 5366POPC   C4A15186   1.962  29.923   7.650
 5366POPC   C1B15187   2.123  29.695   8.550
 5366POPC   C2B15188   2.149  29.772   8.250
 5366POPC   C3B15189   2.123  29.720   7.950
 5366POPC   C4B15190   2.132  29.742   7.650
 5367POPC   NC315191  33.030   7.447   9.450
 5367POPC   PO415192  33.005   7.377   9.150
 5367POPC   GL115193  33.018   7.386   8.850
 5367POPC   GL215194  33.129   7.450   8.850
 5367POPC   C1A15195  33.039   7.470   8.550
 5367POPC   D2A15196  32.996   7.389   8.250
 5367POPC   C3A15197  32.983   7.392   7.950
 5367POPC   C4A15198  33.013   7.383   7.650
 5367POPC   C1B15199  33.221   7.602   8.550
 5367POPC   C2B15200  33.245   7.586   8.250
 5367POPC   C3B15201  33.272   7.559   7.950
 5367POPC   C4B15202  33.279   7.547   7.650
 5368POPC   NC315203  14.376  31.474   9.450
 5368POPC   PO415204  14.373  31.427   9.150
 5368POPC   GL115205  14.452  31.448   8.850
 5368POPC   GL215206  14.345  31.556   8.850
 5368POPC   C1A15207  14.433  31.446   8.550
 5368POPC   D2A15208  14.422  31.463   8.250
 5368POPC   C3A15209  14.414  31.461   7.950
 5368POPC   C4A15210  14.359  31.501   7.650
 5368POPC   C1B15211  14.288  31.662   8.550
 5368POPC   C2B15212  14.351  31.722   8.250
 5368POPC   C3B15213  14.355  31.696   7.950
 5368POPC   C4B15214  14.290  31.697   7.650
 5369POPC   NC315215  20.577   5.850   9.450
 5369POPC   PO415216  20.565   5.909   9.150
 5369POPC   GL115217  20.623   5.842   8.850
 5369POPC   GL215218  20.686   5.931   8.850
 5369POPC   C1A15219  20.658   5.901   8.550
 5369POPC   D2A15220  20.574   5.821   8.250
 5369POPC   C3A15221  20.601   5.911   7.950
 5369POPC   C4A15222  20.624   5.852   7.650
 5369POPC   C1B15223  20.839   6.048   8.550
 5369POPC   C2B15224  20.800   6.021   8.250
 5369POPC   C3B15225  20.794   6.053   7.950
 5369POPC   C4B15226  20.798   6.035   7.650
 5370POPC   NC315227  34.578  23.667   9.450
 5370POPC   PO415228  34.623  23.728   9.150
 5370POPC   GL115229  34.625  23.758   8.850
 5370POPC   GL215230  34.734  23.704   8.850
 5370POPC   C1A15231  34.599  23.746   8.550
 5370POPC   D2A15232  34.565  23.691   8.250
 5370POPC   C3A15233  34.616  23.688   7.950
 5370POPC   C4A15234  34.580  23.665   7.650
 5370POPC   C1B15235  34.798  23.618   8.550
 5370POPC   C2B15236  34.776  23.632   8.250
 5370POPC   C3B15237  34.814  23.662   7.950
 5370POPC   C4B15238  34.846  23.678   7.650
 5371POPC   NC315239  30.742  23.710   9.450
 5371POPC   PO415240  30.729  23.684   9.150
 5371POPC   GL115241  30.694  23.755   8.850
 5371POPC   GL215242  30.731  23.816   8.850
 5371POPC   C1A15243  30.720  23.674   8.550
 5371POPC   D2A15244  30.649  23.666   8.250
 5371POPC   C3A15245  30.692  23.727   7.950
 5371POPC   C4A15246  30.719  23.669   7.650
 5371POPC   C1B15247  30.771  23.908   8.550
 5371POPC   C2B15248  30.848  23.969   8.250
 5371POPC   C3B15249  30.787  23.961   7.950
 5371POPC   C4B15250  30.789  23.937   7.650
 5372POPC   NC315251  10.483  17.494   9.450
 5372POPC   PO415252  10.551  17.526   9.150
 5372POPC   GL115253  10.531  17.536   8.850
 5372POPC   GL215254  10.561  17.356   8.850
 5372POPC   C1A15255  10.504  17.534   8.550
 5372POPC   D2A15256  10.571  17.543   8.250
 5372POPC   C3A15257  10.480  17.537   7.950
 5372POPC   C4A15258  10.523  17.548   7.650
 5372POPC   C1B15259  10.553  17.226   8.550
 5372POPC   C2B15260  10.556  17.270   8.250
 5372POPC   C3B15261  10.544  17.226   7.950
 5372POPC   C4B15262  10.549  17.212   7.650
 5373POPC   NC315263  12.034  26.800   9.450
 5373POPC   PO415264  12.083  26.845   9.150
 5373POPC   GL115265  12.107  26.770   8.850
 5373POPC   GL215266  11.961  26.819   8.850
 5373POPC   C1A15267  12.058  26.864   8.550
 5373POPC   D2A15268  12.078  26.786   8.250
 5373POPC   C3A15269  12.040  26.819   7.950
 5373POPC   C4A15270  12.124  26.820   7.650
 5373POPC   C1B15271  11.884  26.751   8.550
 5373POPC   C2B15272  11.887  26.701   8.250
 5373POPC   C3B15273  11.864  26.746   7.950
 5373POPC   C4B15274  11.826  26.752   7.650
 5374POPC   NC315275   7.407  43.852   9.450
 5374POPC   PO415276   7.395  43.887   9.150
 5374POPC   GL115277   7.372  43.903   8.850
 5374POPC   GL215278   7.491  43.810   8.850
 5374POPC   C1A15279   7.395  43.920   8.550
 5374POPC   D2A15280   7.378  43.935   8.250
 5374POPC   C3A15281   7.412  43.895   7.950
 5374POPC   C4A15282   7.461  43.923   7.650
 5374POPC   C1B15283   7.546  43.682   8.550
 5374POPC   C2B15284   7.566  43.665   8.250
 5374POPC   C3B15285   7.493  43.638   7.950
 5374POPC   C4B15286   7.578  43.704   7.650
 5375POPC   NC315287  29.943  19.794   9.450
 5375POPC   PO415288  29.884  19.821   9.150
 5375POPC   GL115289  29.950  19.841   8.850
 5375POPC   GL215290  29.807  19.925   8.850
 5375POPC   C1A15291  29.916  19.806   8.550
 5375POPC   D2A15292  29.883  19.824   8.250
 5375POPC   C3A15293  29.890  19.852   7.950
 5375POPC   C4A15294  29.969  19.883   7.650
 5375POPC   C1B15295  29.638  19.896   8.550
 5375POPC   C2B15296  29.642  19.877   8.250
 5375POPC   C3B15297  29.722  19.945   7.950
 5375POPC   C4B15298  29.732  19.929   7.650
 5376POPC   NC315299  18.248  20.619   9.450
 5376POPC   PO415300  18.265  20.612   9.150
 5376POPC   GL115301  18.332  20.583   8.850
 5376POPC   GL215302  18.417  20.596   8.850
 5376POPC   C1A15303  18.283  20.658   8.550
 5376POPC   D2A15304  18.275  20.581   8.250
 5376POPC   C3A15305  18.234  20.616   7.950
 5376POPC   C4A15306  18.292  20.654   7.650
 5376POPC   C1B15307  18.546  20.686   8.550
 5376POPC   C2B15308  18.492  20.651   8.250
 5376POPC   C3B15309  18.552  20.717   7.950
 5376POPC   C4B15310  18.557  20.712   7.650
 5377POPC   NC315311  42.379  22.911   9.450
 5377POPC   PO415312  42.300  22.914   9.150
 5377POPC   GL115313  42.294  22.922   8.850
 5377POPC   GL215314  42.386  22.843   8.850
 5377POPC   C1A15315  42.288  22.935   8.550
 5377POPC   D2A15316  42.317  22.890   8.250
 5377POPC   C3A15317  42.358  22.986   7.950
 5377POPC   C4A15318  42.347  22.902   7.650
 5377POPC   C1B15319  42.526  22.753   8.550
 5377POPC   C2B15320  42.493  22.783   8.250
 5377POPC   C3B15321  42.497  22.731   7.950
 5377POPC   C4B15322  42.493  22.717   7.650
 5378POPC   NC315323  38.413  13.638   9.450
 5378POPC   PO415324  38.495  13.641   9.150
 5378POPC   GL115325  38.499  13.611   8.850
 5378POPC   GL215326  38.333  13.693   8.850
 5378POPC   C1A15327  38.490  13.624   8.550
 5378POPC   D2A15328  38.491  13.672   8.250
 5378POPC   C3A15329  38.486  13.590   7.950
 5378POPC   C4A15330  38.455  13.647   7.650
 5378POPC   C1B15331  38.174  13.727   8.550
 5378POPC   C2B15332  38.192  13.736   8.250
 5378POPC   C3B15333  38.206  13.658   7.950
 5378POPC   C4B15334  38.167  13.737   7.650
 5379POPC   NC315335  44.712   9.725   9.450
 5379POPC   PO415336  44.701   9.746   9.150
 5379POPC   GL115337  44.686   9.749   8.850
 5379POPC   GL215338  44.496   9.776   8.850
 5379POPC   C1A15339  44.647   9.723   8.550
 5379POPC   D2A15340  44.674   9.709   8.250
 5379POPC   C3A15341  44.704   9.759   7.950
 5379POPC   C4A15342  44.674   9.791   7.650
 5379POPC   C1B15343  44.429   9.805   8.550
 5379POPC   C2B15344  44.417   9.792   8.250
 5379POPC   C3B15345  44.440   9.801   7.950
 5379POPC   C4B15346  44.384   9.797   7.650
 5380POPC   NC315347  37.702  42.289   9.450
 5380POPC   PO415348  37.724  42.316   9.150
 5380POPC   GL115349  37.729  42.330   8.850
 5380POPC   GL215350  37.742  42.219   8.850
 5380POPC   C1A15351  37.668  42.350   8.550
 5380POPC   D2A15352  37.691  42.335   8.250
 5380POPC   C3A15353  37.683  42.313   7.950
 5380POPC   C4A15354  37.658  42.372   7.650
 5380POPC   C1B15355  37.858  42.159   8.550
 5380POPC   C2B15356  37.870  42.153   8.250
 5380POPC   C3B15357  37.882  42.221   7.950
 5380POPC   C4B15358  37.923  42.204   7.650
 5381POPC   NC315359  33.033  37.643   9.450
 5381POPC   PO415360  33.027  37.706   9.150
 5381POPC   GL115361  33.057  37.638   8.850
 5381POPC   GL215362  32.937  37.585   8.850
 5381POPC   C1A15363  33.029  37.635   8.550
 5381POPC   D2A15364  33.030  37.665   8.250
 5381POPC   C3A15365  32.991  37.692   7.950
 5381POPC   C4A15366  33.014  37.670   7.650
 5381POPC   C1B15367  32.869  37.497   8.550
 5381POPC   C2B15368  32.815  37.466   8.250
 5381POPC   C3B15369  32.815  37.545   7.950
 5381POPC   C4B15370  32.890  37.533   7.650
 5382POPC   NC315371  34.596  26.085   9.450
 5382POPC   PO415372  34.603  25.998   9.150
 5382POPC   GL115373  34.619  26.076   8.850
 5382POPC   GL215374  34.629  25.962   8.850
 5382POPC   C1A15375  34.606  26.028   8.550
 5382POPC   D2A15376  34.549  26.074   8.250
 5382POPC   C3A15377  34.585  26.052   7.950
 5382POPC   C4A15378  34.607  26.035   7.650
 5382POPC   C1B15379  34.614  25.820   8.550
 5382POPC   C2B15380  34.642  25.786   8.250
 5382POPC   C3B15381  34.556  25.842   7.950
 5382POPC   C4B15382  34.638  25.756   7.650
 5383POPC   NC315383   3.535   3.558   9.450
 5383POPC   PO415384   3.515   3.585   9.150
 5383POPC   GL115385   3.523   3.508   8.850
 5383POPC   GL215386   3.496   3.373   8.850
 5383POPC   C1A15387   3.561   3.521   8.550
 5383POPC   D2A15388   3.524   3.512   8.250
 5383POPC   C3A15389   3.539   3.532   7.950
 5383POPC   C4A15390   3.566   3.539   7.650
 5383POPC   C1B15391   3.475   3.321   8.550
 5383POPC   C2B15392   3.463   3.295   8.250
 5383POPC   C3B15393   3.495   3.268   7.950
 5383POPC   C4B15394   3.477   3.272   7.650
 5384POPC   NC315395  27.635  42.313   9.450
 5384POPC   PO415396  27.575  42.309   9.150
 5384POPC   GL115397  27.609  42.347   8.850
 5384POPC   GL215398  27.571  42.426   8.850
 5384POPC   C1A15399  27.632  42.367   8.550
 5384POPC   D2A15400  27.557  42.384   8.250
 5384POPC   C3A15401  27.568  42.286   7.950
 5384POPC   C4A15402  27.585  42.316   7.650
 5384POPC   C1B15403  27.498  42.599   8.550
 5384POPC   C2B15404  27.489  42.582   8.250
 5384POPC   C3B15405  27.465  42.527   7.950
 5384POPC   C4B15406  27.463  42.524   7.650
 5385POPC   NC315407  13.637  14.451   9.450
 5385POPC   PO415408  13.617  14.361   9.150
 5385POPC   GL115409  13.606  14.429   8.850
 5385POPC   GL215410  13.708  14.330   8.850
 5385POPC   C1A15411  13.611  14.422   8.550
 5385POPC   D2A15412  13.653  14.435   8.250
 5385POPC   C3A15413  13.652  14.387   7.950
 5385POPC   C4A15414  13.652  14.438   7.650
 5385POPC   C1B15415  13.837  14.327   8.550
 5385POPC   C2B15416  13.875  14.336   8.250
 5385POPC   C3B15417  13.848  14.311   7.950
 5385POPC   C4B15418  13.841  14.338   7.650
 5386POPC   NC315419  41.534  39.960   9.450
 5386POPC   PO415420  41.536  39.961   9.150
 5386POPC   GL115421  41.523  39.972   8.850
 5386POPC   GL215422  41.592  39.852   8.850
 5386POPC   C1A15423  41.534  39.995   8.550
 5386POPC   D2A15424  41.595  39.967   8.250
 5386POPC   C3A15425  41.588  40.010   7.950
 5386POPC   C4A15426  41.554  40.051   7.650
 5386POPC   C1B15427  41.687  39.824   8.550
 5386POPC   C2B15428  41.631  39.820   8.250
 5386POPC   C3B15429  41.630  39.755   7.950
 5386POPC   C4B15430  41.686  39.835   7.650
 5387POPC   NC315431  13.622  35.304   9.450
 5387POPC   PO415432  13.591  35.377   9.150
 5387POPC   GL115433  13.663  35.394   8.850
 5387POPC   GL215434  13.472  35.291   8.850
 5387POPC   C1A15435  13.608  35.358   8.550
 5387POPC   D2A15436  13.592  35.330   8.250
 5387POPC   C3A15437  13.586  35.378   7.950
 5387POPC   C4A15438  13.610  35.378   7.650
 5387POPC   C1B15439  13.421  35.193   8.550
 5387POPC   C2B15440  13.426  35.210   8.250
 5387POPC   C3B15441  13.365  35.212   7.950
 5387POPC   C4B15442  13.374  35.290   7.650
 5388POPC   NC315443  18.319   1.961   9.450
 5388POPC   PO415444  18.272   1.968   9.150
 5388POPC   GL115445  18.301   1.964   8.850
 5388POPC   GL215446  18.164   1.943   8.850
 5388POPC   C1A15447  18.292   2.038   8.550
 5388POPC   D2A15448  18.323   2.025   8.250
 5388POPC   C3A15449  18.238   1.949   7.950
 5388POPC   C4A15450  18.304   2.031   7.650
 5388POPC   C1B15451  18.084   1.884   8.550
 5388POPC   C2B15452  18.040   1.867   8.250
 5388POPC   C3B15453  18.106   1.839   7.950
 5388POPC   C4B15454  18.082   1.875   7.650
 5389POPC   NC315455   3.537   9.777   9.450
 5389POPC   PO415456   3.522   9.769   9.150
 5389POPC   GL115457   3.579   9.712   8.850
 5389POPC   GL215458   3.610   9.884   8.850
 5389POPC   C1A15459   3.527   9.760   8.550
 5389POPC   D2A15460   3.570   9.788   8.250
 5389POPC   C3A15461   3.537   9.746   7.950
 5389POPC   C4A15462   3.518   9.707   7.650
 5389POPC   C1B15463   3.605   9.955   8.550
 5389POPC   C2B15464   3.557  10.042   8.250
 5389POPC   C3B15465   3.601  10.011   7.950
 5389POPC   C4B15466   3.599   9.974   7.650
 5390POPC   NC315467  40.762  36.145   9.450
 5390POPC   PO415468  40.746  36.151   9.150
 5390POPC   GL115469  40.831  36.150   8.850
 5390POPC   GL215470  40.778  36.292   8.850
 5390POPC   C1A15471  40.778  36.099   8.550
 5390POPC   D2A15472  40.805  36.095   8.250
 5390POPC   C3A15473  40.773  36.141   7.950
 5390POPC   C4A15474  40.738  36.139   7.650
 5390POPC   C1B15475  40.837  36.354   8.550
 5390POPC   C2B15476  40.896  36.334   8.250
 5390POPC   C3B15477  40.884  36.325   7.950
 5390POPC   C4B15478  40.828  36.403   7.650
 5391POPC   NC315479   6.600  26.038   9.450
 5391POPC   PO415480   6.634  26.037   9.150
 5391POPC   GL115481   6.645  26.050   8.850
 5391POPC   GL215482   6.771  25.971   8.850
 5391POPC   C1A15483   6.682  26.014   8.550
 5391POPC   D2A15484   6.605  26.059   8.250
 5391POPC   C3A15485   6.663  26.082   7.950
 5391POPC   C4A15486   6.634  25.997   7.650
 5391POPC   C1B15487   6.888  25.931   8.550
 5391POPC   C2B15488   6.865  25.957   8.250
 5391POPC   C3B15489   6.913  26.003   7.950
 5391POPC   C4B15490   6.875  25.963   7.650
 5392POPC   NC315491   5.101  43.840   9.450
 5392POPC   PO415492   5.101  43.840   9.150
 5392POPC   GL115493   5.105  43.891   8.850
 5392POPC   GL215494   5.065  43.779   8.850
 5392POPC   C1A15495   5.061  43.933   8.550
 5392POPC   D2A15496   5.089  43.864   8.250
 5392POPC   C3A15497   5.079  43.845   7.950
 5392POPC   C4A15498   5.065  43.842   7.650
 5392POPC   C1B15499   5.169  43.597   8.550
 5392POPC   C2B15500   5.166  43.602   8.250
 5392POPC   C3B15501   5.143  43.599   7.950
 5392POPC   C4B15502   5.088  43.645   7.650
 5393POPC   NC315503   9.726  37.630   9.450
 5393POPC   PO415504   9.715  37.630   9.150
 5393POPC   GL115505   9.790  37.676   8.850
 5393POPC   GL215506   9.681  37.590   8.850
 5393POPC   C1A15507   9.702  37.714   8.550
 5393POPC   D2A15508   9.747  37.683   8.250
 5393POPC   C3A15509   9.789  37.696   7.950
 5393POPC   C4A15510   9.739  37.714   7.650
 5393POPC   C1B15511   9.630  37.434   8.550
 5393POPC   C2B15512   9.712  37.437   8.250
 5393POPC   C3B15513   9.692  37.438   7.950
 5393POPC   C4B15514   9.667  37.397   7.650
 5394POPC   NC315515  33.019  32.294   9.450
 5394POPC   PO415516  33.004  32.212   9.150
 5394POPC   GL115517  32.987  32.255   8.850
 5394POPC   GL215518  32.870  32.231   8.850
 5394POPC   C1A15519  33.010  32.222   8.550
 5394POPC   D2A15520  32.981  32.246   8.250
 5394POPC   C3A15521  33.071  32.261   7.950
 5394POPC   C4A15522  33.000  32.242   7.650
 5394POPC   C1B15523  32.810  32.202   8.550
 5394POPC   C2B15524  32.768  32.194   8.250
 5394POPC   C3B15525  32.797  32.154   7.950
 5394POPC   C4B15526  32.742  32.150   7.650
 5395POPC   NC315527   9.771  39.972   9.450
 5395POPC   PO415528   9.719  40.001   9.150
 5395POPC   GL115529   9.772  40.035   8.850
 5395POPC   GL215530   9.897  40.106   8.850
 5395POPC   C1A15531   9.773  39.998   8.550
 5395POPC   D2A15532   9.756  40.002   8.250
 5395POPC   C3A15533   9.755  40.013   7.950
 5395POPC   C4A15534   9.728  40.011   7.650
 5395POPC   C1B15535   9.920  40.118   8.550
 5395POPC   C2B15536   9.920  40.153   8.250
 5395POPC   C3B15537   9.914  40.191   7.950
 5395POPC   C4B15538   9.956  40.154   7.650
 5396POPC   NC315539  31.505   4.349   9.450
 5396POPC   PO415540  31.515   4.307   9.150
 5396POPC   GL115541  31.487   4.345   8.850
 5396POPC   GL215542  31.331   4.374   8.850
 5396POPC   C1A15543  31.430   4.306   8.550
 5396POPC   D2A15544  31.434   4.300   8.250
 5396POPC   C3A15545  31.472   4.299   7.950
 5396POPC   C4A15546  31.484   4.349   7.650
 5396POPC   C1B15547  31.203   4.437   8.550
 5396POPC   C2B15548  31.271   4.414   8.250
 5396POPC   C3B15549  31.284   4.444   7.950
 5396POPC   C4B15550  31.298   4.385   7.650
 5397POPC   NC315551  37.657  21.416   9.450
 5397POPC   PO415552  37.667  21.352   9.150
 5397POPC   GL115553  37.706  21.425   8.850
 5397POPC   GL215554  37.594  21.409   8.850
 5397POPC   C1A15555  37.720  21.411   8.550
 5397POPC   D2A15556  37.642  21.380   8.250
 5397POPC   C3A15557  37.683  21.377   7.950
 5397POPC   C4A15558  37.729  21.408   7.650
 5397POPC   C1B15559  37.397  21.478   8.550
 5397POPC   C2B15560  37.425  21.434   8.250
 5397POPC   C3B15561  37.474  21.483   7.950
 5397POPC   C4B15562  37.412  21.466   7.650
 5398POPC   NC315563  36.110  18.312   9.450
 5398POPC   PO415564  36.146  18.291   9.150
 5398POPC   GL115565  36.115  18.312   8.850
 5398POPC   GL215566  36.230  18.357   8.850
 5398POPC   C1A15567  36.127  18.332   8.550
 5398POPC   D2A15568  36.167  18.321   8.250
 5398POPC   C3A15569  36.082  18.301   7.950
 5398POPC   C4A15570  36.152  18.268   7.650
 5398POPC   C1B15571  36.418  18.304   8.550
 5398POPC   C2B15572  36.358  18.335   8.250
 5398POPC   C3B15573  36.410  18.326   7.950
 5398POPC   C4B15574  36.323  18.368   7.650
 5399POPC   NC315575   0.455  26.018   9.450
 5399POPC   PO415576   0.401  26.068   9.150
 5399POPC   GL115577   0.465  26.090   8.850
 5399POPC   GL215578   0.335  26.122   8.850
 5399POPC   C1A15579   0.411  26.030   8.550
 5399POPC   D2A15580   0.458  26.023   8.250
 5399POPC   C3A15581   0.485  26.013   7.950
 5399POPC   C4A15582   0.472  26.041   7.650
 5399POPC   C1B15583   0.258  26.165   8.550
 5399POPC   C2B15584   0.201  26.196   8.250
 5399POPC   C3B15585   0.204  26.178   7.950
 5399POPC   C4B15586   0.280  26.238   7.650
 5400POPC   NC315587  14.396   5.828   9.450
 5400POPC   PO415588  14.378   5.906   9.150
 5400POPC   GL115589  14.438   5.852   8.850
 5400POPC   GL215590  14.523   5.971   8.850
 5400POPC   C1A15591  14.415   5.910   8.550
 5400POPC   D2A15592  14.414   5.857   8.250
 5400POPC   C3A15593  14.392   5.829   7.950
 5400POPC   C4A15594  14.397   5.862   7.650
 5400POPC   C1B15595  14.625   6.056   8.550
 5400POPC   C2B15596  14.620   6.001   8.250
 5400POPC   C3B15597  14.613   5.999   7.950
 5400POPC   C4B15598  14.568   6.030   7.650
 5401POPC   NC315599  27.559  15.213   9.450
 5401POPC   PO415600  27.576  15.203   9.150
 5401POPC   GL115601  27.583  15.199   8.850
 5401POPC   GL215602  27.630  15.341   8.850
 5401POPC   C1A15603  27.570  15.147   8.550
 5401POPC   D2A15604  27.575  15.193   8.250
 5401POPC   C3A15605  27.619  15.223   7.950
 5401POPC   C4A15606  27.641  15.214   7.650
 5401POPC   C1B15607  27.546  15.474   8.550
 5401POPC   C2B15608  27.630  15.451   8.250
 5401POPC   C3B15609  27.640  15.392   7.950
 5401POPC   C4B15610  27.621  15.456   7.650
 5402POPC   NC315611  33.010  44.623   9.450
 5402POPC   PO415612  33.047  44.615   9.150
 5402POPC   GL115613  33.034  44.650   8.850
 5402POPC   GL215614  33.013  44.553   8.850
 5402POPC   C1A15615  32.978  44.654   8.550
 5402POPC   D2A15616  33.070  44.710   8.250
 5402POPC   C3A15617  33.065  44.641   7.950
 5402POPC   C4A15618  32.974  44.699   7.650
 5402POPC   C1B15619  33.057  44.444   8.550
 5402POPC   C2B15620  33.103  44.416   8.250
 5402POPC   C3B15621  33.091  44.468   7.950
 5402POPC   C4B15622  33.056  44.450   7.650
 5403POPC   NC315623  26.085  19.883   9.450
 5403POPC   PO415624  26.052  19.875   9.150
 5403POPC   GL115625  26.059  19.788   8.850
 5403POPC   GL215626  26.037  19.914   8.850
 5403POPC   C1A15627  26.057  19.836   8.550
 5403POPC   D2A15628  26.052  19.844   8.250
 5403POPC   C3A15629  26.044  19.858   7.950
 5403POPC   C4A15630  26.015  19.840   7.650
 5403POPC   C1B15631  26.072  20.112   8.550
 5403POPC   C2B15632  26.129  20.060   8.250
 5403POPC   C3B15633  26.118  20.107   7.950
 5403POPC   C4B15634  26.102  20.085   7.650
 5404POPC   NC315635  43.064  36.095   9.450
 5404POPC   PO415636  43.153  36.087   9.150
 5404POPC   GL115637  43.130  36.144   8.850
 5404POPC   GL215638  43.018  36.130   8.850
 5404POPC   C1A15639  43.077  36.116   8.550
 5404POPC   D2A15640  43.151  36.097   8.250
 5404POPC   C3A15641  43.115  36.157   7.950
 5404POPC   C4A15642  43.136  36.081   7.650
 5404POPC   C1B15643  42.827  36.018   8.550
 5404POPC   C2B15644  42.828  36.096   8.250
 5404POPC   C3B15645  42.919  36.050   7.950
 5404POPC   C4B15646  42.862  36.029   7.650
 5405POPC   NC315647  29.190  24.452   9.450
 5405POPC   PO415648  29.164  24.492   9.150
 5405POPC   GL115649  29.156  24.480   8.850
 5405POPC   GL215650  29.103  24.360   8.850
 5405POPC   C1A15651  29.120  24.529   8.550
 5405POPC   D2A15652  29.184  24.483   8.250
 5405POPC   C3A15653  29.144  24.498   7.950
 5405POPC   C4A15654  29.097  24.527   7.650
 5405POPC   C1B15655  28.928  24.306   8.550
 5405POPC   C2B15656  28.993  24.264   8.250
 5405POPC   C3B15657  28.928  24.305   7.950
 5405POPC   C4B15658  28.941  24.326   7.650
 5406POPC   NC315659  37.690  15.195   9.450
 5406POPC   PO415660  37.728  15.156   9.150
 5406POPC   GL115661  37.681  15.222   8.850
 5406POPC   GL215662  37.711  15.060   8.850
 5406POPC   C1A15663  37.675  15.132   8.550
 5406POPC   D2A15664  37.724  15.229   8.250
 5406POPC   C3A15665  37.704  15.138   7.950
 5406POPC   C4A15666  37.703  15.207   7.650
 5406POPC   C1B15667  37.681  14.941   8.550
 5406POPC   C2B15668  37.700  14.897   8.250
 5406POPC   C3B15669  37.648  14.929   7.950
 5406POPC   C4B15670  37.625  14.900   7.650
 5407POPC   NC315671   0.451  30.671   9.450
 5407POPC   PO415672   0.481  30.688   9.150
 5407POPC   GL115673   0.431  30.731   8.850
 5407POPC   GL215674   0.314  30.663   8.850
 5407POPC   C1A15675   0.449  30.674   8.550
 5407POPC   D2A15676   0.471  30.665   8.250
 5407POPC   C3A15677   0.443  30.699   7.950
 5407POPC   C4A15678   0.430  30.672   7.650
 5407POPC   C1B15679   0.232  30.659   8.550
 5407POPC   C2B15680   0.175  30.668   8.250
 5407POPC   C3B15681   0.172  30.582   7.950
 5407POPC   C4B15682   0.159  30.639   7.650
 5408POPC   NC315683  29.938   1.260   9.450
 5408POPC   PO415684  29.940   1.242   9.150
 5408POPC   GL115685  29.970   1.211   8.850
 5408POPC   GL215686  29.998   1.267   8.850
 5408POPC   C1A15687  29.887   1.239   8.550
 5408POPC   D2A15688  29.872   1.165   8.250
 5408POPC   C3A15689  29.879   1.235   7.950
 5408POPC   C4A15690  29.891   1.194   7.650
 5408POPC   C1B15691  30.204   1.231   8.550
 5408POPC   C2B15692  30.184   1.266   8.250
 5408POPC   C3B15693  30.202   1.314   7.950
 5408POPC   C4B15694  30.165   1.273   7.650
 5409POPC   NC315695  21.345  18.277   9.450
 5409POPC   PO415696  21.382  18.307   9.150
 5409POPC   GL115697  21.350  18.276   8.850
 5409POPC   GL215698  21.510  18.232   8.850
 5409POPC   C1A15699  21.420  18.317   8.550
 5409POPC   D2A15700  21.427  18.260   8.250
 5409POPC   C3A15701  21.348  18.272   7.950
 5409POPC   C4A15702  21.355  18.292   7.650
 5409POPC   C1B15703  21.503  18.118   8.550
 5409POPC   C2B15704  21.590  18.063   8.250
 5409POPC   C3B15705  21.581  18.041   7.950
 5409POPC   C4B15706  21.558  18.120   7.650
 5410POPC   NC315707  24.518   6.651   9.450
 5410POPC   PO415708  24.515   6.671   9.150
 5410POPC   GL115709  24.484   6.682   8.850
 5410POPC   GL215710  24.361   6.743   8.850
 5410POPC   C1A15711  24.526   6.617   8.550
 5410POPC   D2A15712  24.484   6.644   8.250
 5410POPC   C3A15713  24.460   6.640   7.950
 5410POPC   C4A15714  24.514   6.664   7.650
 5410POPC   C1B15715  24.278   6.789   8.550
 5410POPC   C2B15716  24.341   6.817   8.250
 5410POPC   C3B15717  24.311   6.790   7.950
 5410POPC   C4B15718  24.345   6.821   7.650
 5411POPC   NC315719   1.979   1.992   9.450
 5411POPC   PO415720   1.940   2.009   9.150
 5411POPC   GL115721   1.969   2.017   8.850
 5411POPC   GL215722   1.878   2.012   8.850
 5411POPC   C1A15723   1.973   1.940   8.550
 5411POPC   D2A15724   1.980   1.958   8.250
 5411POPC   C3A15725   2.028   2.009   7.950
 5411POPC   C4A15726   2.009   1.990   7.650
 5411POPC   C1B15727   1.810   2.113   8.550
 5411POPC   C2B15728   1.735   2.145   8.250
 5411POPC   C3B15729   1.807   2.138   7.950
 5411POPC   C4B15730   1.755   2.115   7.650
 5412POPC   NC315731  20.600   7.465   9.450
 5412POPC   PO415732  20.653   7.460   9.150
 5412POPC   GL115733  20.565   7.396   8.850
 5412POPC   GL215734  20.505   7.342   8.850
 5412POPC   C1A15735  20.607   7.408   8.550
 5412POPC   D2A15736  20.660   7.410   8.250
 5412POPC   C3A15737  20.631   7.462   7.950
 5412POPC   C4A15738  20.603   7.447   7.650
 5412POPC   C1B15739  20.435   7.201   8.550
 5412POPC   C2B15740  20.401   7.227   8.250
 5412POPC   C3B15741  20.439   7.291   7.950
 5412POPC   C4B15742  20.451   7.259   7.650
 5413POPC   NC315743  13.608  26.809   9.450
 5413POPC   PO415744  13.656  26.791   9.150
 5413POPC   GL115745  13.619  26.785   8.850
 5413POPC   GL215746  13.658  26.965   8.850
 5413POPC   C1A15747  13.621  26.856   8.550
 5413POPC   D2A15748  13.641  26.831   8.250
 5413POPC   C3A15749  13.622  26.798   7.950
 5413POPC   C4A15750  13.579  26.821   7.650
 5413POPC   C1B15751  13.705  27.012   8.550
 5413POPC   C2B15752  13.681  27.072   8.250
 5413POPC   C3B15753  13.736  27.015   7.950
 5413POPC   C4B15754  13.698  27.065   7.650
 5414POPC   NC315755  26.852  30.743   9.450
 5414POPC   PO415756  26.840  30.671   9.150
 5414POPC   GL115757  26.858  30.682   8.850
 5414POPC   GL215758  26.890  30.778   8.850
 5414POPC   C1A15759  26.791  30.731   8.550
 5414POPC   D2A15760  26.808  30.716   8.250
 5414POPC   C3A15761  26.834  30.685   7.950
 5414POPC   C4A15762  26.771  30.660   7.650
 5414POPC   C1B15763  27.026  30.865   8.550
 5414POPC   C2B15764  27.057  30.773   8.250
 5414POPC   C3B15765  27.075  30.850   7.950
 5414POPC   C4B15766  27.017  30.810   7.650
 5415POPC   NC315767   7.435   2.795   9.450
 5415POPC   PO415768   7.403   2.739   9.150
 5415POPC   GL115769   7.430   2.759   8.850
 5415POPC   GL215770   7.508   2.896   8.850
 5415POPC   C1A15771   7.428   2.755   8.550
 5415POPC   D2A15772   7.420   2.719   8.250
 5415POPC   C3A15773   7.449   2.793   7.950
 5415POPC   C4A15774   7.429   2.774   7.650
 5415POPC   C1B15775   7.560   2.924   8.550
 5415POPC   C2B15776   7.540   3.011   8.250
 5415POPC   C3B15777   7.594   2.966   7.950
 5415POPC   C4B15778   7.586   2.949   7.650
 5416POPC   NC315779  25.299  15.932   9.450
 5416POPC   PO415780  25.229  15.931   9.150
 5416POPC   GL115781  25.264  15.929   8.850
 5416POPC   GL215782  25.363  15.805   8.850
 5416POPC   C1A15783  25.264  15.936   8.550
 5416POPC   D2A15784  25.225  15.927   8.250
 5416POPC   C3A15785  25.232  15.977   7.950
 5416POPC   C4A15786  25.225  15.982   7.650
 5416POPC   C1B15787  25.378  15.766   8.550
 5416POPC   C2B15788  25.426  15.748   8.250
 5416POPC   C3B15789  25.393  15.765   7.950
 5416POPC   C4B15790  25.424  15.793   7.650
 5417POPC   NC315791  41.536   3.533   9.450
 5417POPC   PO415792  41.597   3.536   9.150
 5417POPC   GL115793  41.573   3.555   8.850
 5417POPC   GL215794  41.701   3.511   8.850
 5417POPC   C1A15795  41.541   3.524   8.550
 5417POPC   D2A15796  41.563   3.573   8.250
 5417POPC   C3A15797  41.537   3.580   7.950
 5417POPC   C4A15798  41.570   3.546   7.650
 5417POPC   C1B15799  41.786   3.442   8.550
 5417POPC   C2B15800  41.801   3.431   8.250
 5417POPC   C3B15801  41.783   3.452   7.950
 5417POPC   C4B15802  41.729   3.374   7.650
 5418POPC   NC315803  31.521  20.657   9.450
 5418POPC   PO415804  31.428  20.603   9.150
 5418POPC   GL115805  31.510  20.629   8.850
 5418POPC   GL215806  31.511  20.537   8.850
 5418POPC   C1A15807  31.438  20.655   8.550
 5418POPC   D2A15808  31.429  20.564   8.250
 5418POPC   C3A15809  31.469  20.655   7.950
 5418POPC   C4A15810  31.468  20.569   7.650
 5418POPC   C1B15811  31.601  20.388   8.550
 5418POPC   C2B15812  31.619  20.447   8.250
 5418POPC   C3B15813  31.638  20.388   7.950
 5418POPC   C4B15814  31.662  20.446   7.650
 5419POPC   NC315815   9.008  14.391   9.450
 5419POPC   PO415816   8.934  14.419   9.150
 5419POPC   GL115817   8.995  14.405   8.850
 5419POPC   GL215818   9.081  14.422   8.850
 5419POPC   C1A15819   9.007  14.385   8.550
 5419POPC   D2A15820   8.993  14.451   8.250
 5419POPC   C3A15821   8.966  14.362   7.950
 5419POPC   C4A15822   8.945  14.384   7.650
 5419POPC   C1B15823   9.176  14.351   8.550
 5419POPC   C2B15824   9.216  14.332   8.250
 5419POPC   C3B15825   9.183  14.338   7.950
 5419POPC   C4B15826   9.176  14.317   7.650
 5420POPC   NC315827   2.001   6.686   9.450
 5420POPC   PO415828   1.961   6.627   9.150
 5420POPC   GL115829   1.968   6.692   8.850
 5420POPC   GL215830   1.894   6.538   8.850
 5420POPC   C1A15831   2.017   6.644   8.550
 5420POPC   D2A15832   1.955   6.646   8.250
 5420POPC   C3A15833   1.975   6.664   7.950
 5420POPC   C4A15834   1.982   6.677   7.650
 5420POPC   C1B15835   1.920   6.415   8.550
 5420POPC   C2B15836   1.945   6.425   8.250
 5420POPC   C3B15837   1.905   6.461   7.950
 5420POPC   C4B15838   1.918   6.372   7.650
 5421POPC   NC315839  30.701  20.597   9.450
 5421POPC   PO415840  30.667  20.584   9.150
 5421POPC   GL115841  30.648  20.625   8.850
 5421POPC   GL215842  30.681  20.765   8.850
 5421POPC   C1A15843  30.745  20.610   8.550
 5421POPC   D2A15844  30.694  20.591   8.250
 5421POPC   C3A15845  30.681  20.592   7.950
 5421POPC   C4A15846  30.730  20.565   7.650
 5421POPC   C1B15847  30.706  20.882   8.550
 5421POPC   C2B15848  30.773  20.841   8.250
 5421POPC   C3B15849  30.735  20.852   7.950
 5421POPC   C4B15850  30.712  20.896   7.650
 5422POPC   NC315851  29.937   1.974   9.450
 5422POPC   PO415852  29.900   1.973   9.150
 5422POPC   GL115853  29.968   2.006   8.850
 5422POPC   GL215854  29.771   2.082   8.850
 5422POPC   C1A15855  29.909   1.984   8.550
 5422POPC   D2A15856  29.887   1.984   8.250
 5422POPC   C3A15857  29.924   1.998   7.950
 5422POPC   C4A15858  29.883   1.959   7.650
 5422POPC   C1B15859  29.674   2.113   8.550
 5422POPC   C2B15860  29.636   2.099   8.250
 5422POPC   C3B15861  29.641   2.065   7.950
 5422POPC   C4B15862  29.642   2.120   7.650
 5423POPC   NC315863   9.782  25.275   9.450
 5423POPC   PO415864   9.763  25.277   9.150
 5423POPC   GL115865   9.789  25.218   8.850
 5423POPC   GL215866   9.838  25.382   8.850
 5423POPC   C1A15867   9.744  25.264   8.550
 5423POPC   D2A15868   9.743  25.240   8.250
 5423POPC   C3A15869   9.747  25.288   7.950
 5423POPC   C4A15870   9.773  25.286   7.650
 5423POPC   C1B15871   9.866  25.524   8.550
 5423POPC   C2B15872   9.866  25.528   8.250
 5423POPC   C3B15873   9.883  25.486   7.950
 5423POPC   C4B15874   9.821  25.507   7.650
 5424POPC   NC315875  17.480  22.200   9.450
 5424POPC   PO415876  17.517  22.174   9.150
 5424POPC   GL115877  17.504  22.204   8.850
 5424POPC   GL215878  17.586  22.153   8.850
 5424POPC   C1A15879  17.512  22.133   8.550
 5424POPC   D2A15880  17.510  22.197   8.250
 5424POPC   C3A15881  17.500  22.135   7.950
 5424POPC   C4A15882  17.463  22.198   7.650
 5424POPC   C1B15883  17.750  22.192   8.550
 5424POPC   C2B15884  17.780  22.200   8.250
 5424POPC   C3B15885  17.785  22.159   7.950
 5424POPC   C4B15886  17.746  22.201   7.650
 5425POPC   NC315887  13.609  32.235   9.450
 5425POPC   PO415888  13.593  32.253   9.150
 5425POPC   GL115889  13.613  32.227   8.850
 5425POPC   GL215890  13.703  32.347   8.850
 5425POPC   C1A15891  13.648  32.199   8.550
 5425POPC   D2A15892  13.666  32.273   8.250
 5425POPC   C3A15893  13.655  32.226   7.950
 5425POPC   C4A15894  13.593  32.234   7.650
 5425POPC   C1B15895  13.669  32.522   8.550
 5425POPC   C2B15896  13.726  32.462   8.250
 5425POPC   C3B15897  13.681  32.481   7.950
 5425POPC   C4B15898  13.753  32.452   7.650
 5426POPC   NC315899  18.275  44.641   9.450
 5426POPC   PO415900  18.234  44.652   9.150
 5426POPC   GL115901  18.300  44.640   8.850
 5426POPC   GL215902  18.299  44.814   8.850
 5426POPC   C1A15903  18.289  44.648   8.550
 5426POPC   D2A15904  18.241  44.710   8.250
 5426POPC   C3A15905  18.251  44.675   7.950
 5426POPC   C4A15906  18.274  44.702   7.650
 5426POPC   C1B15907  18.301  44.951   8.550
 5426POPC   C2B15908  18.301  44.928   8.250
 5426POPC   C3B15909  18.337  44.929   7.950
 5426POPC   C4B15910  18.312  44.912   7.650
 5427POPC   NC315911  25.251   1.236   9.450
 5427POPC   PO415912  25.287   1.176   9.150
 5427POPC   GL115913  25.216   1.191   8.850
 5427POPC   GL215914  25.353   1.140   8.850
 5427POPC   C1A15915  25.234   1.238   8.550
 5427POPC   D2A15916  25.270   1.203   8.250
 5427POPC   C3A15917  25.276   1.186   7.950
 5427POPC   C4A15918  25.291   1.208   7.650
 5427POPC   C1B15919  25.491   1.069   8.550
 5427POPC   C2B15920  25.449   1.060   8.250
 5427POPC   C3B15921  25.457   1.083   7.950
 5427POPC   C4B15922  25.432   1.059   7.650
 5428POPC   NC315923  17.540  13.647   9.450
 5428POPC   PO415924  17.517  13.619   9.150
 5428POPC   GL115925  17.506  13.581   8.850
 5428POPC   GL215926  17.414  13.610   8.850
 5428POPC   C1A15927  17.503  13.627   8.550
 5428POPC   D2A15928  17.518  13.598   8.250
 5428POPC   C3A15929  17.554  13.597   7.950
 5428POPC   C4A15930  17.465  13.654   7.650
 5428POPC   C1B15931  17.244  13.518   8.550
 5428POPC   C2B15932  17.282  13.602   8.250
 5428POPC   C3B15933  17.250  13.566   7.950
 5428POPC   C4B15934  17.220  13.595   7.650
 5429POPC   NC315935  32.279  32.242   9.450
 5429POPC   PO415936  32.296  32.215   9.150
 5429POPC   GL115937  32.277  32.276   8.850
 5429POPC   GL215938  32.197  32.141   8.850
 5429POPC   C1A15939  32.266  32.238   8.550
 5429POPC   D2A15940  32.231  32.200   8.250
 5429POPC   C3A15941  32.294  32.251   7.950
 5429POPC   C4A15942  32.236  32.265   7.650
 5429POPC   C1B15943  32.101  32.016   8.550
 5429POPC   C2B15944  32.165  32.032   8.250
 5429POPC   C3B15945  32.164  32.022   7.950
 5429POPC   C4B15946  32.179  32.015   7.650
 5430POPC   NC315947   6.688  32.206   9.450
 5430POPC   PO415948   6.604  32.211   9.150
 5430POPC   GL115949   6.689  32.200   8.850
 5430POPC   GL215950   6.675  32.335   8.850
 5430POPC   C1A15951   6.674  32.257   8.550
 5430POPC   D2A15952   6.670  32.238   8.250
 5430POPC   C3A15953   6.643  32.285   7.950
 5430POPC   C4A15954   6.615  32.240   7.650
 5430POPC   C1B15955   6.690  32.517   8.550
 5430POPC   C2B15956   6.615  32.469   8.250
 5430POPC   C3B15957   6.692  32.494   7.950
 5430POPC   C4B15958   6.634  32.515   7.650
 5431POPC   NC315959  40.028  21.365   9.450
 5431POPC   PO415960  40.010  21.364   9.150
 5431POPC   GL115961  40.027  21.389   8.850
 5431POPC   GL215962  40.021  21.547   8.850
 5431POPC   C1A15963  40.024  21.392   8.550
 5431POPC   D2A15964  39.975  21.365   8.250
 5431POPC   C3A15965  40.054  21.401   7.950
 5431POPC   C4A15966  40.001  21.387   7.650
 5431POPC   C1B15967  40.016  21.619   8.550
 5431POPC   C2B15968  40.084  21.588   8.250
 5431POPC   C3B15969  40.100  21.647   7.950
 5431POPC   C4B15970  40.109  21.648   7.650
 5432POPC   NC315971  40.741   5.127   9.450
 5432POPC   PO415972  40.773   5.130   9.150
 5432POPC   GL115973  40.804   5.082   8.850
 5432POPC   GL215974  40.862   5.090   8.850
 5432POPC   C1A15975  40.760   5.142   8.550
 5432POPC   D2A15976  40.808   5.126   8.250
 5432POPC   C3A15977  40.825   5.048   7.950
 5432POPC   C4A15978  40.819   5.123   7.650
 5432POPC   C1B15979  41.066   4.996   8.550
 5432POPC   C2B15980  41.056   5.083   8.250
 5432POPC   C3B15981  40.979   5.032   7.950
 5432POPC   C4B15982  40.996   5.017   7.650
 5433POPC   NC315983  39.244  40.008   9.450
 5433POPC   PO415984  39.187  39.977   9.150
 5433POPC   GL115985  39.227  39.993   8.850
 5433POPC   GL215986  39.287  40.155   8.850
 5433POPC   C1A15987  39.277  40.010   8.550
 5433POPC   D2A15988  39.244  39.989   8.250
 5433POPC   C3A15989  39.199  40.016   7.950
 5433POPC   C4A15990  39.230  40.035   7.650
 5433POPC   C1B15991  39.390  40.260   8.550
 5433POPC   C2B15992  39.408  40.169   8.250
 5433POPC   C3B15993  39.328  40.243   7.950
 5433POPC   C4B15994  39.396  40.234   7.650
 5434POPC   NC315995  40.787  26.862   9.450
 5434POPC   PO415996  40.741  26.803   9.150
 5434POPC   GL115997  40.763  26.833   8.850
 5434POPC   GL215998  40.912  26.953   8.850
 5434POPC   C1A15999  40.762  26.828   8.550
 5434POPC   D2A16000  40.776  26.858   8.250
 5434POPC   C3A16001  40.815  26.775   7.950
 5434POPC   C4A16002  40.770  26.767   7.650
 5434POPC   C1B16003  40.930  26.969   8.550
 5434POPC   C2B16004  40.965  27.005   8.250
 5434POPC   C3B16005  40.922  27.021   7.950
 5434POPC   C4B16006  40.994  26.991   7.650
 5435POPC   NC316007   4.332  24.470   9.450
 5435POPC   PO416008   4.362  24.448   9.150
 5435POPC   GL116009   4.355  24.476   8.850
 5435POPC   GL216010   4.191  24.374   8.850
 5435POPC   C1A16011   4.285  24.477   8.550
 5435POPC   D2A16012   4.349  24.448   8.250
 5435POPC   C3A16013   4.337  24.518   7.950
 5435POPC   C4A16014   4.325  24.520   7.650
 5435POPC   C1B16015   4.107  24.359   8.550
 5435POPC   C2B16016   4.144  24.350   8.250
 5435POPC   C3B16017   4.082  24.319   7.950
 5435POPC   C4B16018   4.117  24.384   7.650
 5436POPC   NC316019  22.966  41.567   9.450
 5436POPC   PO416020  22.898  41.573   9.150
 5436POPC   GL116021  22.944  41.554   8.850
 5436POPC   GL216022  23.019  41.611   8.850
 5436POPC   C1A16023  22.976  41.596   8.550
 5436POPC   D2A16024  22.897  41.606   8.250
 5436POPC   C3A16025  22.917  41.513   7.950
 5436POPC   C4A16026  22.942  41.522   7.650
 5436POPC   C1B16027  23.156  41.743   8.550
 5436POPC   C2B16028  23.106  41.776   8.250
 5436POPC   C3B16029  23.104  41.751   7.950
 5436POPC   C4B16030  23.124  41.727   7.650
 5437POPC   NC316031  38.502  15.149   9.450
 5437POPC   PO416032  38.489  15.191   9.150
 5437POPC   GL116033  38.441  15.161   8.850
 5437POPC   GL216034  38.418  15.255   8.850
 5437POPC   C1A16035  38.417  15.147   8.550
 5437POPC   D2A16036  38.493  15.186   8.250
 5437POPC   C3A16037  38.439  15.194   7.950
 5437POPC   C4A16038  38.496  15.225   7.650
 5437POPC   C1B16039  38.366  15.386   8.550
 5437POPC   C2B16040  38.408  15.425   8.250
 5437POPC   C3B16041  38.427  15.416   7.950
 5437POPC   C4B16042  38.426  15.424   7.650
 5438POPC   NC316043  43.854   0.456   9.450
 5438POPC   PO416044  43.880   0.388   9.150
 5438POPC   GL116045  43.916   0.441   8.850
 5438POPC   GL216046  43.968   0.330   8.850
 5438POPC   C1A16047  43.836   0.436   8.550
 5438POPC   D2A16048  43.837   0.426   8.250
 5438POPC   C3A16049  43.864   0.487   7.950
 5438POPC   C4A16050  43.917   0.470   7.650
 5438POPC   C1B16051  44.049   0.293   8.550
 5438POPC   C2B16052  44.098   0.273   8.250
 5438POPC   C3B16053  44.047   0.313   7.950
 5438POPC   C4B16054  44.074   0.293   7.650
 5439POPC   NC316055  25.245  25.244   9.450
 5439POPC   PO416056  25.312  25.242   9.150
 5439POPC   GL116057  25.263  25.296   8.850
 5439POPC   GL216058  25.102  25.260   8.850
 5439POPC   C1A16059  25.287  25.312   8.550
 5439POPC   D2A16060  25.247  25.227   8.250
 5439POPC   C3A16061  25.218  25.300   7.950
 5439POPC   C4A16062  25.262  25.283   7.650
 5439POPC   C1B16063  25.063  25.264   8.550
 5439POPC   C2B16064  25.058  25.242   8.250
 5439POPC   C3B16065  24.991  25.248   7.950
 5439POPC   C4B16066  24.988  25.193   7.650
 5440POPC   NC316067  26.801  42.295   9.450
 5440POPC   PO416068  26.863  42.309   9.150
 5440POPC   GL116069  26.771  42.309   8.850
 5440POPC   GL216070  26.736  42.333   8.850
 5440POPC   C1A16071  26.811  42.325   8.550
 5440POPC   D2A16072  26.866  42.343   8.250
 5440POPC   C3A16073  26.860  42.325   7.950
 5440POPC   C4A16074  26.795  42.309   7.650
 5440POPC   C1B16075  26.537  42.258   8.550
 5440POPC   C2B16076  26.533  42.310   8.250
 5440POPC   C3B16077  26.606  42.293   7.950
 5440POPC   C4B16078  26.620  42.307   7.650
 5441POPC   NC316079   8.946  33.051   9.450
 5441POPC   PO416080   8.992  32.986   9.150
 5441POPC   GL116081   9.005  33.028   8.850
 5441POPC   GL216082   8.888  33.130   8.850
 5441POPC   C1A16083   8.932  33.066   8.550
 5441POPC   D2A16084   8.953  33.063   8.250
 5441POPC   C3A16085   8.994  32.998   7.950
 5441POPC   C4A16086   8.978  32.979   7.650
 5441POPC   C1B16087   8.893  33.216   8.550
 5441POPC   C2B16088   8.818  33.218   8.250
 5441POPC   C3B16089   8.817  33.266   7.950
 5441POPC   C4B16090   8.885  33.287   7.650
 5442POPC   NC316091  22.899   7.453   9.450
 5442POPC   PO416092  22.911   7.409   9.150
 5442POPC   GL116093  22.972   7.412   8.850
 5442POPC   GL216094  23.088   7.383   8.850
 5442POPC   C1A16095  22.918   7.403   8.550
 5442POPC   D2A16096  22.935   7.414   8.250
 5442POPC   C3A16097  22.905   7.384   7.950
 5442POPC   C4A16098  22.958   7.434   7.650
 5442POPC   C1B16099  23.122   7.271   8.550
 5442POPC   C2B16100  23.130   7.271   8.250
 5442POPC   C3B16101  23.189   7.308   7.950
 5442POPC   C4B16102  23.172   7.319   7.650
 5443POPC   NC316103  31.448  26.795   9.450
 5443POPC   PO416104  31.448  26.793   9.150
 5443POPC   GL116105  31.467  26.784   8.850
 5443POPC   GL216106  31.358  26.899   8.850
 5443POPC   C1A16107  31.511  26.804   8.550
 5443POPC   D2A16108  31.480  26.865   8.250
 5443POPC   C3A16109  31.451  26.867   7.950
 5443POPC   C4A16110  31.462  26.866   7.650
 5443POPC   C1B16111  31.269  26.927   8.550
 5443POPC   C2B16112  31.267  26.964   8.250
 5443POPC   C3B16113  31.236  26.939   7.950
 5443POPC   C4B16114  31.296  26.881   7.650
 5444POPC   NC316115   9.793  19.815   9.450
 5444POPC   PO416116   9.748  19.831   9.150
 5444POPC   GL116117   9.764  19.881   8.850
 5444POPC   GL216118   9.902  19.758   8.850
 5444POPC   C1A16119   9.725  19.874   8.550
 5444POPC   D2A16120   9.790  19.848   8.250
 5444POPC   C3A16121   9.763  19.811   7.950
 5444POPC   C4A16122   9.743  19.879   7.650
 5444POPC   C1B16123   9.962  19.763   8.550
 5444POPC   C2B16124  10.039  19.806   8.250
 5444POPC   C3B16125   9.991  19.754   7.950
 5444POPC   C4B16126   9.961  19.780   7.650
 5445POPC   NC316127  32.201  13.655   9.450
 5445POPC   PO416128  32.285  13.597   9.150
 5445POPC   GL116129  32.203  13.668   8.850
 5445POPC   GL216130  32.243  13.481   8.850
 5445POPC   C1A16131  32.215  13.663   8.550
 5445POPC   D2A16132  32.231  13.658   8.250
 5445POPC   C3A16133  32.281  13.620   7.950
 5445POPC   C4A16134  32.272  13.617   7.650
 5445POPC   C1B16135  32.125  13.356   8.550
 5445POPC   C2B16136  32.190  13.384   8.250
 5445POPC   C3B16137  32.136  13.427   7.950
 5445POPC   C4B16138  32.125  13.408   7.650
 5446POPC   NC316139  38.434  39.995   9.450
 5446POPC   PO416140  38.457  40.015   9.150
 5446POPC   GL116141  38.434  39.971   8.850
 5446POPC   GL216142  38.467  39.936   8.850
 5446POPC   C1A16143  38.438  40.000   8.550
 5446POPC   D2A16144  38.500  39.995   8.250
 5446POPC   C3A16145  38.450  39.988   7.950
 5446POPC   C4A16146  38.455  39.957   7.650
 5446POPC   C1B16147  38.543  39.727   8.550
 5446POPC   C2B16148  38.485  39.788   8.250
 5446POPC   C3B16149  38.557  39.725   7.950
 5446POPC   C4B16150  38.572  39.798   7.650
 5447POPC   NC316151  19.025  17.473   9.450
 5447POPC   PO416152  19.083  17.539   9.150
 5447POPC   GL116153  19.032  17.538   8.850
 5447POPC   GL216154  19.072  17.367   8.850
 5447POPC   C1A16155  19.045  17.458   8.550
 5447POPC   D2A16156  19.043  17.475   8.250
 5447POPC   C3A16157  19.052  17.528   7.950
 5447POPC   C4A16158  19.051  17.498   7.650
 5447POPC   C1B16159  19.128  17.237   8.550
 5447POPC   C2B16160  19.141  17.293   8.250
 5447POPC   C3B16161  19.181  17.255   7.950
 5447POPC   C4B16162  19.178  17.288   7.650
 5448POPC   NC316163   8.197  23.686   9.450
 5448POPC   PO416164   8.161  23.756   9.150
 5448POPC   GL116165   8.229  23.760   8.850
 5448POPC   GL216166   8.287  23.624   8.850
 5448POPC   C1A16167   8.191  23.727   8.550
 5448POPC   D2A16168   8.241  23.676   8.250
 5448POPC   C3A16169   8.154  23.714   7.950
 5448POPC   C4A16170   8.217  23.689   7.650
 5448POPC   C1B16171   8.404  23.543   8.550
 5448POPC   C2B16172   8.335  23.551   8.250
 5448POPC   C3B16173   8.351  23.548   7.950
 5448POPC   C4B16174   8.413  23.530   7.650
 5449POPC   NC316175  26.081  44.708   9.450
 5449POPC   PO416176  26.036  44.654   9.150
 5449POPC   GL116177  26.036  44.700   8.850
 5449POPC   GL216178  25.924  44.689   8.850
 5449POPC   C1A16179  26.018  44.638   8.550
 5449POPC   D2A16180  26.031  44.660   8.250
 5449POPC   C3A16181  26.005  44.662   7.950
 5449POPC   C4A16182  26.033  44.710   7.650
 5449POPC   C1B16183  25.754  44.622   8.550
 5449POPC   C2B16184  25.833  44.584   8.250
 5449POPC   C3B16185  25.817  44.604   7.950
 5449POPC   C4B16186  25.776  44.606   7.650
 5450POPC   NC316187   6.682  11.311   9.450
 5450POPC   PO416188   6.655  11.330   9.150
 5450POPC   GL116189   6.603  11.307   8.850
 5450POPC   GL216190   6.580  11.351   8.850
 5450POPC   C1A16191   6.675  11.284   8.550
 5450POPC   D2A16192   6.601  11.275   8.250
 5450POPC   C3A16193   6.668  11.305   7.950
 5450POPC   C4A16194   6.601  11.275   7.650
 5450POPC   C1B16195   6.459  11.455   8.550
 5450POPC   C2B16196   6.414  11.454   8.250
 5450POPC   C3B16197   6.501  11.505   7.950
 5450POPC   C4B16198   6.507  11.488   7.650
 5451POPC   NC316199  27.597  18.250   9.450
 5451POPC   PO416200  27.579  18.267   9.150
 5451POPC   GL116201  27.617  18.301   8.850
 5451POPC   GL216202  27.675  18.197   8.850
 5451POPC   C1A16203  27.580  18.266   8.550
 5451POPC   D2A16204  27.596  18.279   8.250
 5451POPC   C3A16205  27.609  18.327   7.950
 5451POPC   C4A16206  27.554  18.243   7.650
 5451POPC   C1B16207  27.782  18.220   8.550
 5451POPC   C2B16208  27.817  18.212   8.250
 5451POPC   C3B16209  27.814  18.185   7.950
 5451POPC   C4B16210  27.833  18.219   7.650
 5452POPC   NC316211  35.372   4.342   9.450
 5452POPC   PO416212  35.330   4.364   9.150
 5452POPC   GL116213  35.357   4.293   8.850
 5452POPC   GL216214  35.328   4.189   8.850
 5452POPC   C1A16215  35.361   4.314   8.550
 5452POPC   D2A16216  35.313   4.302   8.250
 5452POPC   C3A16217  35.328   4.325   7.950
 5452POPC   C4A16218  35.350   4.315   7.650
 5452POPC   C1B16219  35.344   4.039   8.550
 5452POPC   C2B16220  35.340   4.075   8.250
 5452POPC   C3B16221  35.348   4.061   7.950
 5452POPC   C4B16222  35.291   4.062   7.650
 5453POPC   NC316223  27.564  22.908   9.450
 5453POPC   PO416224  27.592  22.960   9.150
 5453POPC   GL116225  27.637  22.908   8.850
 5453POPC   GL216226  27.725  22.960   8.850
 5453POPC   C1A16227  27.567  22.952   8.550
 5453POPC   D2A16228  27.560  22.893   8.250
 5453POPC   C3A16229  27.623  22.955   7.950
 5453POPC   C4A16230  27.565  22.966   7.650
 5453POPC   C1B16231  27.850  23.068   8.550
 5453POPC   C2B16232  27.840  23.097   8.250
 5453POPC   C3B16233  27.806  23.027   7.950
 5453POPC   C4B16234  27.766  23.083   7.650
 5454POPC   NC316235  26.860  40.002   9.450
 5454POPC   PO416236  26.829  39.972   9.150
 5454POPC   GL116237  26.841  40.028   8.850
 5454POPC   GL216238  26.675  40.018   8.850
 5454POPC   C1A16239  26.855  39.986   8.550
 5454POPC   D2A16240  26.769  39.981   8.250
 5454POPC   C3A16241  26.834  40.021   7.950
 5454POPC   C4A16242  26.812  39.993   7.650
 5454POPC   C1B16243  26.580  40.083   8.550
 5454POPC   C2B16244  26.611  40.048   8.250
 5454POPC   C3B16245  26.622  40.055   7.950
 5454POPC   C4B16246  26.571  40.052   7.650
 5455POPC   NC316247  29.882   5.880   9.450
 5455POPC   PO416248  29.912   5.853   9.150
 5455POPC   GL116249  29.934   5.848   8.850
 5455POPC   GL216250  30.030   5.830   8.850
 5455POPC   C1A16251  29.886   5.835   8.550
 5455POPC   D2A16252  29.919   5.874   8.250
 5455POPC   C3A16253  29.904   5.825   7.950
 5455POPC   C4A16254  29.903   5.852   7.650
 5455POPC   C1B16255  30.206   5.933   8.550
 5455POPC   C2B16256  30.126   5.905   8.250
 5455POPC   C3B16257  30.142   5.922   7.950
 5455POPC   C4B16258  30.165   5.933   7.650
 5456POPC   NC316259  15.978   2.726   9.450
 5456POPC   PO416260  15.926   2.813   9.150
 5456POPC   GL116261  15.978   2.760   8.850
 5456POPC   GL216262  15.972   2.936   8.850
 5456POPC   C1A16263  15.980   2.753   8.550
 5456POPC   D2A16264  15.969   2.791   8.250
 5456POPC   C3A16265  15.952   2.776   7.950
 5456POPC   C4A16266  15.951   2.765   7.650
 5456POPC   C1B16267  15.892   3.006   8.550
 5456POPC   C2B16268  15.850   3.010   8.250
 5456POPC   C3B16269  15.930   2.983   7.950
 5456POPC   C4B16270  15.887   3.007   7.650
 5457POPC   NC316271  23.664   4.344   9.450
 5457POPC   PO416272  23.723   4.324   9.150
 5457POPC   GL116273  23.705   4.280   8.850
 5457POPC   GL216274  23.603   4.388   8.850
 5457POPC   C1A16275  23.703   4.345   8.550
 5457POPC   D2A16276  23.701   4.290   8.250
 5457POPC   C3A16277  23.729   4.295   7.950
 5457POPC   C4A16278  23.747   4.344   7.650
 5457POPC   C1B16279  23.551   4.480   8.550
 5457POPC   C2B16280  23.534   4.484   8.250
 5457POPC   C3B16281  23.600   4.552   7.950
 5457POPC   C4B16282  23.623   4.540   7.650
 5458POPC   NC316283  19.011  27.561   9.450
 5458POPC   PO416284  19.041  27.641   9.150
 5458POPC   GL116285  19.024  27.588   8.850
 5458POPC   GL216286  18.943  27.486   8.850
 5458POPC   C1A16287  19.064  27.608   8.550
 5458POPC   D2A16288  19.098  27.642   8.250
 5458POPC   C3A16289  19.009  27.642   7.950
 5458POPC   C4A16290  19.019  27.599   7.650
 5458POPC   C1B16291  18.897  27.445   8.550
 5458POPC   C2B16292  18.890  27.385   8.250
 5458POPC   C3B16293  18.907  27.377   7.950
 5458POPC   C4B16294  18.876  27.416   7.650
 5459POPC   NC316295  19.800  37.669   9.450
 5459POPC   PO416296  19.865  37.708   9.150
 5459POPC   GL116297  19.847  37.693   8.850
 5459POPC   GL216298  19.750  37.734   8.850
 5459POPC   C1A16299  19.884  37.700   8.550
 5459POPC   D2A16300  19.867  37.695   8.250
 5459POPC   C3A16301  19.808  37.690   7.950
 5459POPC   C4A16302  19.797  37.724   7.650
 5459POPC   C1B16303  19.674  37.890   8.550
 5459POPC   C2B16304  19.710  37.871   8.250
 5459POPC   C3B16305  19.716  37.882   7.950
 5459POPC   C4B16306  19.645  37.824   7.650
 5460POPC   NC316307  34.541  26.797   9.450
 5460POPC   PO416308  34.588  26.849   9.150
 5460POPC   GL116309  34.617  26.784   8.850
 5460POPC   GL216310  34.525  26.968   8.850
 5460POPC   C1A16311  34.592  26.855   8.550
 5460POPC   D2A16312  34.532  26.829   8.250
 5460POPC   C3A16313  34.550  26.846   7.950
 5460POPC   C4A16314  34.593  26.854   7.650
 5460POPC   C1B16315  34.426  27.003   8.550
 5460POPC   C2B16316  34.436  27.020   8.250
 5460POPC   C3B16317  34.414  26.991   7.950
 5460POPC   C4B16318  34.405  27.070   7.650
 5461POPC   NC316319   5.867  30.649   9.450
 5461POPC   PO416320   5.842  30.743   9.150
 5461POPC   GL116321   5.840  30.682   8.850
 5461POPC   GL216322   5.791  30.801   8.850
 5461POPC   C1A16323   5.821  30.742   8.550
 5461POPC   D2A16324   5.833  30.658   8.250
 5461POPC   C3A16325   5.840  30.652   7.950
 5461POPC   C4A16326   5.857  30.649   7.650
 5461POPC   C1B16327   5.771  30.960   8.550
 5461POPC   C2B16328   5.706  30.949   8.250
 5461POPC   C3B16329   5.717  30.932   7.950
 5461POPC   C4B16330   5.755  30.952   7.650
 5462POPC   NC316331  30.732  39.198   9.450
 5462POPC   PO416332  30.652  39.191   9.150
 5462POPC   GL116333  30.681  39.257   8.850
 5462POPC   GL216334  30.818  39.376   8.850
 5462POPC   C1A16335  30.674  39.204   8.550
 5462POPC   D2A16336  30.678  39.222   8.250
 5462POPC   C3A16337  30.720  39.237   7.950
 5462POPC   C4A16338  30.701  39.236   7.650
 5462POPC   C1B16339  30.862  39.457   8.550
 5462POPC   C2B16340  30.827  39.422   8.250
 5462POPC   C3B16341  30.818  39.449   7.950
 5462POPC   C4B16342  30.851  39.429   7.650
 5463POPC   NC316343  26.788   1.174   9.450
 5463POPC   PO416344  26.816   1.195   9.150
 5463POPC   GL116345  26.808   1.239   8.850
 5463POPC   GL216346  26.682   1.140   8.850
 5463POPC   C1A16347  26.800   1.180   8.550
 5463POPC   D2A16348  26.840   1.206   8.250
 5463POPC   C3A16349  26.803   1.165   7.950
 5463POPC   C4A16350  26.782   1.172   7.650
 5463POPC   C1B16351  26.600   1.058   8.550
 5463POPC   C2B16352  26.583   1.111   8.250
 5463POPC   C3B16353  26.596   1.052   7.950
 5463POPC   C4B16354  26.556   1.061   7.650
 5464POPC   NC316355   5.133  32.285   9.450
 5464POPC   PO416356   5.129  32.259   9.150
 5464POPC   GL116357   5.136  32.255   8.850
 5464POPC   GL216358   5.198  32.363   8.850
 5464POPC   C1A16359   5.067  32.251   8.550
 5464POPC   D2A16360   5.140  32.275   8.250
 5464POPC   C3A16361   5.126  32.236   7.950
 5464POPC   C4A16362   5.112  32.218   7.650
 5464POPC   C1B16363   5.286  32.431   8.550
 5464POPC   C2B16364   5.255  32.420   8.250
 5464POPC   C3B16365   5.276  32.452   7.950
 5464POPC   C4B16366   5.243  32.441   7.650
 5465POPC   NC316367   9.714  23.699   9.450
 5465POPC   PO416368   9.798  23.713   9.150
 5465POPC   GL116369   9.794  23.755   8.850
 5465POPC   GL216370   9.833  23.715   8.850
 5465POPC   C1A16371   9.717  23.750   8.550
 5465POPC   D2A16372   9.797  23.679   8.250
 5465POPC   C3A16373   9.755  23.753   7.950
 5465POPC   C4A16374   9.731  23.735   7.650
 5465POPC   C1B16375  10.024  23.751   8.550
 5465POPC   C2B16376  10.039  23.799   8.250
 5465POPC   C3B16377   9.964  23.781   7.950
 5465POPC   C4B16378   9.992  23.766   7.650
 5466POPC   NC316379  22.914  34.588   9.450
 5466POPC   PO416380  22.944  34.619   9.150
 5466POPC   GL116381  22.969  34.557   8.850
 5466POPC   GL216382  22.801  34.484   8.850
 5466POPC   C1A16383  22.949  34.609   8.550
 5466POPC   D2A16384  22.988  34.534   8.250
 5466POPC   C3A16385  22.915  34.573   7.950
 5466POPC   C4A16386  22.965  34.618   7.650
 5466POPC   C1B16387  22.716  34.452   8.550
 5466POPC   C2B16388  22.776  34.423   8.250
 5466POPC   C3B16389  22.753  34.470   7.950
 5466POPC   C4B16390  22.739  34.397   7.650
 5467POPC   NC316391  44.668  15.998   9.450
 5467POPC   PO416392  44.671  15.930   9.150
 5467POPC   GL116393  44.655  15.916   8.850
 5467POPC   GL216394  44.802  15.913   8.850
 5467POPC   C1A16395  44.660  15.931   8.550
 5467POPC   D2A16396  44.679  15.910   8.250
 5467POPC   C3A16397  44.619  15.984   7.950
 5467POPC   C4A16398  44.668  15.977   7.650
 5467POPC   C1B16399  44.904  15.772   8.550
 5467POPC   C2B16400  44.896  15.778   8.250
 5467POPC   C3B16401  44.875  15.789   7.950
 5467POPC   C4B16402  44.914  15.813   7.650
 5468POPC   NC316403  19.084  42.316   9.450
 5468POPC   PO416404  19.090  42.345   9.150
 5468POPC   GL116405  19.053  42.382   8.850
 5468POPC   GL216406  19.100  42.450   8.850
 5468POPC   C1A16407  19.026  42.300   8.550
 5468POPC   D2A16408  19.100  42.348   8.250
 5468POPC   C3A16409  19.075  42.369   7.950
 5468POPC   C4A16410  19.059  42.291   7.650
 5468POPC   C1B16411  19.085  42.616   8.550
 5468POPC   C2B16412  19.138  42.547   8.250
 5468POPC   C3B16413  19.128  42.563   7.950
 5468POPC   C4B16414  19.076  42.551   7.650
 5469POPC   NC316415   3.572   5.072   9.450
 5469POPC   PO416416   3.556   5.046   9.150
 5469POPC   GL116417   3.542   5.136   8.850
 5469POPC   GL216418   3.551   4.937   8.850
 5469POPC   C1A16419   3.492   5.116   8.550
 5469POPC   D2A16420   3.549   5.097   8.250
 5469POPC   C3A16421   3.567   5.062   7.950
 5469POPC   C4A16422   3.493   5.132   7.650
 5469POPC   C1B16423   3.535   4.814   8.550
 5469POPC   C2B16424   3.461   4.863   8.250
 5469POPC   C3B16425   3.508   4.871   7.950
 5469POPC   C4B16426   3.499   4.818   7.650
 5470POPC   NC316427  29.932  10.542   9.450
 5470POPC   PO416428  29.950  10.540   9.150
 5470POPC   GL116429  29.871  10.558   8.850
 5470POPC   GL216430  29.924  10.414   8.850
 5470POPC   C1A16431  29.875  10.525   8.550
 5470POPC   D2A16432  29.914  10.481   8.250
 5470POPC   C3A16433  29.957  10.531   7.950
 5470POPC   C4A16434  29.880  10.553   7.650
 5470POPC   C1B16435  29.898  10.315   8.550
 5470POPC   C2B16436  29.899  10.241   8.250
 5470POPC   C3B16437  29.853  10.315   7.950
 5470POPC   C4B16438  29.934  10.242   7.650
 5471POPC   NC316439  36.146  27.642   9.450
 5471POPC   PO416440  36.088  27.549   9.150
 5471POPC   GL116441  36.167  27.616   8.850
 5471POPC   GL216442  36.064  27.501   8.850
 5471POPC   C1A16443  36.093  27.565   8.550
 5471POPC   D2A16444  36.084  27.619   8.250
 5471POPC   C3A16445  36.177  27.552   7.950
 5471POPC   C4A16446  36.175  27.588   7.650
 5471POPC   C1B16447  35.988  27.354   8.550
 5471POPC   C2B16448  35.963  27.380   8.250
 5471POPC   C3B16449  36.010  27.381   7.950
 5471POPC   C4B16450  35.988  27.354   7.650
 5472POPC   NC316451  41.533  11.257   9.450
 5472POPC   PO416452  41.599  11.320   9.150
 5472POPC   GL116453  41.563  11.299   8.850
 5472POPC   GL216454  41.681  11.231   8.850
 5472POPC   C1A16455  41.522  11.312   8.550
 5472POPC   D2A16456  41.549  11.339   8.250
 5472POPC   C3A16457  41.599  11.345   7.950
 5472POPC   C4A16458  41.554  11.275   7.650
 5472POPC   C1B16459  41.670  11.101   8.550
 5472POPC   C2B16460  41.679  11.066   8.250
 5472POPC   C3B16461  41.713  11.109   7.950
 5472POPC   C4B16462  41.754  11.129   7.650
 5473POPC   NC316463  14.444  33.025   9.450
 5473POPC   PO416464  14.393  33.041   9.150
 5473POPC   GL116465  14.402  33.008   8.850
 5473POPC   GL216466  14.444  33.089   8.850
 5473POPC   C1A16467  14.355  33.053   8.550
 5473POPC   D2A16468  14.392  32.979   8.250
 5473POPC   C3A16469  14.392  33.070   7.950
 5473POPC   C4A16470  14.442  33.050   7.650
 5473POPC   C1B16471  14.496  33.227   8.550
 5473POPC   C2B16472  14.535  33.249   8.250
 5473POPC   C3B16473  14.518  33.226   7.950
 5473POPC   C4B16474  14.561  33.272   7.650
 5474POPC   NC316475  42.337  14.383   9.450
 5474POPC   PO416476  42.340  14.445   9.150
 5474POPC   GL116477  42.365  14.410   8.850
 5474POPC   GL216478  42.257  14.447   8.850
 5474POPC   C1A16479  42.306  14.355   8.550
 5474POPC   D2A16480  42.326  14.414   8.250
 5474POPC   C3A16481  42.302  14.447   7.950
 5474POPC   C4A16482  42.329  14.451   7.650
 5474POPC   C1B16483  42.122  14.512   8.550
 5474POPC   C2B16484  42.106  14.511   8.250
 5474POPC   C3B16485  42.133  14.587   7.950
 5474POPC   C4B16486  42.091  14.533   7.650
 5475POPC   NC316487  26.817  19.811   9.450
 5475POPC   PO416488  26.846  19.793   9.150
 5475POPC   GL116489  26.784  19.882   8.850
 5475POPC   GL216490  26.834  19.911   8.850
 5475POPC   C1A16491  26.831  19.826   8.550
 5475POPC   D2A16492  26.801  19.854   8.250
 5475POPC   C3A16493  26.798  19.843   7.950
 5475POPC   C4A16494  26.783  19.798   7.650
 5475POPC   C1B16495  26.864  20.085   8.550
 5475POPC   C2B16496  26.784  20.041   8.250
 5475POPC   C3B16497  26.801  20.072   7.950
 5475POPC   C4B16498  26.784  20.131   7.650
 5476POPC   NC316499  22.200   5.895   9.450
 5476POPC   PO416500  22.121   5.823   9.150
 5476POPC   GL116501  22.183   5.877   8.850
 5476POPC   GL216502  22.064   5.853   8.850
 5476POPC   C1A16503  22.139   5.858   8.550
 5476POPC   D2A16504  22.194   5.877   8.250
 5476POPC   C3A16505  22.191   5.893   7.950
 5476POPC   C4A16506  22.118   5.828   7.650
 5476POPC   C1B16507  21.969   5.736   8.550
 5476POPC   C2B16508  21.950   5.775   8.250
 5476POPC   C3B16509  21.904   5.802   7.950
 5476POPC   C4B16510  21.952   5.819   7.650
 5477POPC   NC316511  41.510  36.106   9.450
 5477POPC   PO416512  41.576  36.140   9.150
 5477POPC   GL116513  41.592  36.146   8.850
 5477POPC   GL216514  41.683  36.065   8.850
 5477POPC   C1A16515  41.550  36.155   8.550
 5477POPC   D2A16516  41.510  36.177   8.250
 5477POPC   C3A16517  41.531  36.149   7.950
 5477POPC   C4A16518  41.511  36.096   7.650
 5477POPC   C1B16519  41.762  35.969   8.550
 5477POPC   C2B16520  41.740  36.012   8.250
 5477POPC   C3B16521  41.750  35.964   7.950
 5477POPC   C4B16522  41.728  35.963   7.650
 5478POPC   NC316523  14.394  38.439   9.450
 5478POPC   PO416524  14.427  38.501   9.150
 5478POPC   GL116525  14.443  38.446   8.850
 5478POPC   GL216526  14.541  38.346   8.850
 5478POPC   C1A16527  14.414  38.494   8.550
 5478POPC   D2A16528  14.394  38.473   8.250
 5478POPC   C3A16529  14.447  38.504   7.950
 5478POPC   C4A16530  14.437  38.464   7.650
 5478POPC   C1B16531  14.545  38.286   8.550
 5478POPC   C2B16532  14.630  38.284   8.250
 5478POPC   C3B16533  14.612  38.284   7.950
 5478POPC   C4B16534  14.568  38.299   7.650
 5479POPC   NC316535  20.562   2.814   9.450
 5479POPC   PO416536  20.619   2.728   9.150
 5479POPC   GL116537  20.615   2.780   8.850
 5479POPC   GL216538  20.726   2.632   8.850
 5479POPC   C1A16539  20.628   2.790   8.550
 5479POPC   D2A16540  20.627   2.812   8.250
 5479POPC   C3A16541  20.596   2.747   7.950
 5479POPC   C4A16542  20.638   2.799   7.650
 5479POPC   C1B16543  20.765   2.587   8.550
 5479POPC   C2B16544  20.821   2.638   8.250
 5479POPC   C3B16545  20.797   2.624   7.950
 5479POPC   C4B16546  20.759   2.544   7.650
 5480POPC   NC316547  39.209   1.235   9.450
 5480POPC   PO416548  39.219   1.180   9.150
 5480POPC   GL116549  39.257   1.201   8.850
 5480POPC   GL216550  39.161   1.162   8.850
 5480POPC   C1A16551  39.228   1.206   8.550
 5480POPC   D2A16552  39.204   1.179   8.250
 5480POPC   C3A16553  39.263   1.201   7.950
 5480POPC   C4A16554  39.227   1.183   7.650
 5480POPC   C1B16555  39.003   1.092   8.550
 5480POPC   C2B16556  38.991   1.113   8.250
 5480POPC   C3B16557  39.030   1.101   7.950
 5480POPC   C4B16558  38.943   1.154   7.650
 5481POPC   NC316559  40.750  11.251   9.450
 5481POPC   PO416560  40.814  11.290   9.150
 5481POPC   GL116561  40.802  11.292   8.850
 5481POPC   GL216562  40.728  11.184   8.850
 5481POPC   C1A16563  40.782  11.345   8.550
 5481POPC   D2A16564  40.810  11.304   8.250
 5481POPC   C3A16565  40.775  11.286   7.950
 5481POPC   C4A16566  40.813  11.295   7.650
 5481POPC   C1B16567  40.594  11.163   8.550
 5481POPC   C2B16568  40.654  11.128   8.250
 5481POPC   C3B16569  40.592  11.113   7.950
 5481POPC   C4B16570  40.590  11.108   7.650
 5482POPC   NC316571  15.196  27.641   9.450
 5482POPC   PO416572  15.167  27.615   9.150
 5482POPC   GL116573  15.211  27.554   8.850
 5482POPC   GL216574  15.072  27.675   8.850
 5482POPC   C1A16575  15.136  27.619   8.550
 5482POPC   D2A16576  15.145  27.614   8.250
 5482POPC   C3A16577  15.148  27.556   7.950
 5482POPC   C4A16578  15.194  27.621   7.650
 5482POPC   C1B16579  14.946  27.731   8.550
 5482POPC   C2B16580  14.942  27.730   8.250
 5482POPC   C3B16581  14.948  27.755   7.950
 5482POPC   C4B16582  15.004  27.730   7.650
 5483POPC   NC316583  12.896  37.663   9.450
 5483POPC   PO416584  12.839  37.653   9.150
 5483POPC   GL116585  12.893  37.642   8.850
 5483POPC   GL216586  12.764  37.577   8.850
 5483POPC   C1A16587  12.823  37.652   8.550
 5483POPC   D2A16588  12.824  37.678   8.250
 5483POPC   C3A16589  12.874  37.642   7.950
 5483POPC   C4A16590  12.830  37.641   7.650
 5483POPC   C1B16591  12.591  37.575   8.550
 5483POPC   C2B16592  12.672  37.548   8.250
 5483POPC   C3B16593  12.678  37.534   7.950
 5483POPC   C4B16594  12.623  37.580   7.650
 5484POPC   NC316595   5.842  38.454   9.450
 5484POPC   PO416596   5.864  38.462   9.150
 5484POPC   GL116597   5.894  38.425   8.850
 5484POPC   GL216598   5.724  38.364   8.850
 5484POPC   C1A16599   5.831  38.495   8.550
 5484POPC   D2A16600   5.874  38.419   8.250
 5484POPC   C3A16601   5.916  38.419   7.950
 5484POPC   C4A16602   5.845  38.408   7.650
 5484POPC   C1B16603   5.696  38.322   8.550
 5484POPC   C2B16604   5.640  38.279   8.250
 5484POPC   C3B16605   5.695  38.305   7.950
 5484POPC   C4B16606   5.635  38.346   7.650
 5485POPC   NC316607  28.410  14.448   9.450
 5485POPC   PO416608  28.384  14.432   9.150
 5485POPC   GL116609  28.412  14.363   8.850
 5485POPC   GL216610  28.441  14.318   8.850
 5485POPC   C1A16611  28.327  14.367   8.550
 5485POPC   D2A16612  28.336  14.422   8.250
 5485POPC   C3A16613  28.358  14.387   7.950
 5485POPC   C4A16614  28.340  14.397   7.650
 5485POPC   C1B16615  28.486  14.165   8.550
 5485POPC   C2B16616  28.568  14.189   8.250
 5485POPC   C3B16617  28.555  14.221   7.950
 5485POPC   C4B16618  28.507  14.184   7.650
 5486POPC   NC316619  12.111  19.866   9.450
 5486POPC   PO416620  12.124  19.821   9.150
 5486POPC   GL116621  12.098  19.796   8.850
 5486POPC   GL216622  12.179  19.876   8.850
 5486POPC   C1A16623  12.051  19.790   8.550
 5486POPC   D2A16624  12.064  19.844   8.250
 5486POPC   C3A16625  12.063  19.834   7.950
 5486POPC   C4A16626  12.088  19.845   7.650
 5486POPC   C1B16627  12.284  19.825   8.550
 5486POPC   C2B16628  12.338  19.861   8.250
 5486POPC   C3B16629  12.333  19.909   7.950
 5486POPC   C4B16630  12.318  19.908   7.650
 5487POPC   NC316631  21.426  20.586   9.450
 5487POPC   PO416632  21.367  20.591   9.150
 5487POPC   GL116633  21.417  20.644   8.850
 5487POPC   GL216634  21.473  20.448   8.850
 5487POPC   C1A16635  21.406  20.567   8.550
 5487POPC   D2A16636  21.337  20.656   8.250
 5487POPC   C3A16637  21.423  20.627   7.950
 5487POPC   C4A16638  21.405  20.637   7.650
 5487POPC   C1B16639  21.425  20.365   8.550
 5487POPC   C2B16640  21.437  20.406   8.250
 5487POPC   C3B16641  21.452  20.357   7.950
 5487POPC   C4B16642  21.512  20.383   7.650
 5488POPC   NC316643  43.841  27.637   9.450
 5488POPC   PO416644  43.877  27.562   9.150
 5488POPC   GL116645  43.924  27.615   8.850
 5488POPC   GL216646  43.998  27.456   8.850
 5488POPC   C1A16647  43.911  27.599   8.550
 5488POPC   D2A16648  43.904  27.570   8.250
 5488POPC   C3A16649  43.911  27.564   7.950
 5488POPC   C4A16650  43.901  27.547   7.650
 5488POPC   C1B16651  44.078  27.388   8.550
 5488POPC   C2B16652  44.102  27.397   8.250
 5488POPC   C3B16653  44.015  27.422   7.950
 5488POPC   C4B16654  44.031  27.379   7.650
 5489POPC   NC316655   8.949  16.774   9.450
 5489POPC   PO416656   9.019  16.772   9.150
 5489POPC   GL116657   8.923  16.686   8.850
 5489POPC   GL216658   8.961  16.568   8.850
 5489POPC   C1A16659   8.989  16.704   8.550
 5489POPC   D2A16660   9.020  16.719   8.250
 5489POPC   C3A16661   8.949  16.738   7.950
 5489POPC   C4A16662   8.978  16.721   7.650
 5489POPC   C1B16663   8.984  16.520   8.550
 5489POPC   C2B16664   9.060  16.499   8.250
 5489POPC   C3B16665   8.970  16.520   7.950
 5489POPC   C4B16666   9.041  16.508   7.650
 5490POPC   NC316667   6.675  15.166   9.450
 5490POPC   PO416668   6.630  15.172   9.150
 5490POPC   GL116669   6.686  15.179   8.850
 5490POPC   GL216670   6.544  15.300   8.850
 5490POPC   C1A16671   6.691  15.216   8.550
 5490POPC   D2A16672   6.677  15.153   8.250
 5490POPC   C3A16673   6.599  15.190   7.950
 5490POPC   C4A16674   6.612  15.169   7.650
 5490POPC   C1B16675   6.454  15.372   8.550
 5490POPC   C2B16676   6.436  15.342   8.250
 5490POPC   C3B16677   6.484  15.391   7.950
 5490POPC   C4B16678   6.433  15.348   7.650
 5491POPC   NC316679  25.286   3.566   9.450
 5491POPC   PO416680  25.293   3.546   9.150
 5491POPC   GL116681  25.297   3.578   8.850
 5491POPC   GL216682  25.419   3.520   8.850
 5491POPC   C1A16683  25.254   3.537   8.550
 5491POPC   D2A16684  25.268   3.566   8.250
 5491POPC   C3A16685  25.298   3.527   7.950
 5491POPC   C4A16686  25.271   3.515   7.650
 5491POPC   C1B16687  25.513   3.542   8.550
 5491POPC   C2B16688  25.512   3.503   8.250
 5491POPC   C3B16689  25.541   3.542   7.950
 5491POPC   C4B16690  25.503   3.462   7.650
 5492POPC   NC316691  13.586  42.362   9.450
 5492POPC   PO416692  13.599  42.346   9.150
 5492POPC   GL116693  13.637  42.289   8.850
 5492POPC   GL216694  13.636  42.432   8.850
 5492POPC   C1A16695  13.655  42.329   8.550
 5492POPC   D2A16696  13.619  42.381   8.250
 5492POPC   C3A16697  13.623  42.334   7.950
 5492POPC   C4A16698  13.581  42.306   7.650
 5492POPC   C1B16699  13.603  42.633   8.550
 5492POPC   C2B16700  13.599  42.567   8.250
 5492POPC   C3B16701  13.611  42.590   7.950
 5492POPC   C4B16702  13.632  42.607   7.650
 5493POPC   NC316703  33.847   1.255   9.450
 5493POPC   PO416704  33.759   1.219   9.150
 5493POPC   GL116705  33.801   1.183   8.850
 5493POPC   GL216706  33.717   1.279   8.850
 5493POPC   C1A16707  33.805   1.190   8.550
 5493POPC   D2A16708  33.775   1.186   8.250
 5493POPC   C3A16709  33.834   1.254   7.950
 5493POPC   C4A16710  33.780   1.167   7.650
 5493POPC   C1B16711  33.562   1.279   8.550
 5493POPC   C2B16712  33.576   1.323   8.250
 5493POPC   C3B16713  33.524   1.347   7.950
 5493POPC   C4B16714  33.616   1.279   7.650
 5494POPC   NC316715  17.472  40.787   9.450
 5494POPC   PO416716  17.474  40.737   9.150
 5494POPC   GL116717  17.490  40.829   8.850
 5494POPC   GL216718  17.489  40.889   8.850
 5494POPC   C1A16719  17.507  40.816   8.550
 5494POPC   D2A16720  17.484  40.825   8.250
 5494POPC   C3A16721  17.502  40.769   7.950
 5494POPC   C4A16722  17.534  40.737   7.650
 5494POPC   C1B16723  17.378  41.005   8.550
 5494POPC   C2B16724  17.433  40.988   8.250
 5494POPC   C3B16725  17.384  40.972   7.950
 5494POPC   C4B16726  17.408  41.035   7.650
 5495POPC   NC316727   9.742  17.504   9.450
 5495POPC   PO416728   9.774  17.526   9.150
 5495POPC   GL116729   9.794  17.510   8.850
 5495POPC   GL216730   9.621  17.488   8.850
 5495POPC   C1A16731   9.735  17.539   8.550
 5495POPC   D2A16732   9.796  17.534   8.250
 5495POPC   C3A16733   9.719  17.517   7.950
 5495POPC   C4A16734   9.721  17.548   7.650
 5495POPC   C1B16735   9.486  17.495   8.550
 5495POPC   C2B16736   9.453  17.515   8.250
 5495POPC   C3B16737   9.487  17.459   7.950
 5495POPC   C4B16738   9.479  17.516   7.650
 5496POPC   NC316739   5.099  26.796   9.450
 5496POPC   PO416740   5.064  26.809   9.150
 5496POPC   GL116741   5.119  26.830   8.850
 5496POPC   GL216742   5.152  26.955   8.850
 5496POPC   C1A16743   5.124  26.815   8.550
 5496POPC   D2A16744   5.049  26.862   8.250
 5496POPC   C3A16745   5.098  26.829   7.950
 5496POPC   C4A16746   5.061  26.853   7.650
 5496POPC   C1B16747   5.181  27.107   8.550
 5496POPC   C2B16748   5.134  27.079   8.250
 5496POPC   C3B16749   5.168  27.015   7.950
 5496POPC   C4B16750   5.142  27.066   7.650
 5497POPC   NC316751  21.337  36.913   9.450
 5497POPC   PO416752  21.369  36.945   9.150
 5497POPC   GL116753  21.364  36.933   8.850
 5497POPC   GL216754  21.494  36.886   8.850
 5497POPC   C1A16755  21.360  36.863   8.550
 5497POPC   D2A16756  21.420  36.866   8.250
 5497POPC   C3A16757  21.426  36.888   7.950
 5497POPC   C4A16758  21.349  36.938   7.650
 5497POPC   C1B16759  21.649  36.756   8.550
 5497POPC   C2B16760  21.660  36.830   8.250
 5497POPC   C3B16761  21.606  36.753   7.950
 5497POPC   C4B16762  21.581  36.844   7.650
 5498POPC   NC316763  21.361  39.243   9.450
 5498POPC   PO416764  21.391  39.233   9.150
 5498POPC   GL116765  21.346  39.249   8.850
 5498POPC   GL216766  21.353  39.369   8.850
 5498POPC   C1A16767  21.422  39.276   8.550
 5498POPC   D2A16768  21.365  39.230   8.250
 5498POPC   C3A16769  21.367  39.205   7.950
 5498POPC   C4A16770  21.382  39.186   7.650
 5498POPC   C1B16771  21.352  39.444   8.550
 5498POPC   C2B16772  21.326  39.448   8.250
 5498POPC   C3B16773  21.359  39.495   7.950
 5498POPC   C4B16774  21.363  39.440   7.650
 5499POPC   NC316775  40.774  25.260   9.450
 5499POPC   PO416776  40.778  25.271   9.150
 5499POPC   GL116777  40.774  25.259   8.850
 5499POPC   GL216778  40.927  25.229   8.850
 5499POPC   C1A16779  40.793  25.262   8.550
 5499POPC   D2A16780  40.801  25.298   8.250
 5499POPC   C3A16781  40.736  25.248   7.950
 5499POPC   C4A16782  40.827  25.311   7.650
 5499POPC   C1B16783  41.065  25.258   8.550
 5499POPC   C2B16784  40.993  25.327   8.250
 5499POPC   C3B16785  41.056  25.257   7.950
 5499POPC   C4B16786  41.022  25.281   7.650
 5500POPC   NC316787  43.115  38.430   9.450
 5500POPC   PO416788  43.116  38.462   9.150
 5500POPC   GL116789  43.144  38.406   8.850
 5500POPC   GL216790  43.256  38.477   8.850
 5500POPC   C1A16791  43.062  38.416   8.550
 5500POPC   D2A16792  43.081  38.457   8.250
 5500POPC   C3A16793  43.154  38.487   7.950
 5500POPC   C4A16794  43.106  38.440   7.650
 5500POPC   C1B16795  43.325  38.448   8.550
 5500POPC   C2B16796  43.361  38.511   8.250
 5500POPC   C3B16797  43.348  38.477   7.950
 5500POPC   C4B16798  43.373  38.468   7.650
 5501POPC   NC316799  19.794   5.133   9.450
 5501POPC   PO416800  19.835   5.051   9.150
 5501POPC   GL116801  19.798   5.132   8.850
 5501POPC   GL216802  19.755   5.169   8.850
 5501POPC   C1A16803  19.806   5.124   8.550
 5501POPC   D2A16804  19.807   5.061   8.250
 5501POPC   C3A16805  19.856   5.092   7.950
 5501POPC   C4A16806  19.814   5.118   7.650
 5501POPC   C1B16807  19.646   5.145   8.550
 5501POPC   C2B16808  19.601   5.143   8.250
 5501POPC   C3B16809  19.568   5.209   7.950
 5501POPC   C4B16810  19.599   5.172   7.650
 5502POPC   NC316811   2.028  43.063   9.450
 5502POPC   PO416812   1.963  43.108   9.150
 5502POPC   GL116813   2.003  43.086   8.850
 5502POPC   GL216814   2.085  43.078   8.850
 5502POPC   C1A16815   2.020  43.141   8.550
 5502POPC   D2A16816   1.995  43.077   8.250
 5502POPC   C3A16817   2.017  43.093   7.950
 5502POPC   C4A16818   1.991  43.120   7.650
 5502POPC   C1B16819   2.264  43.145   8.550
 5502POPC   C2B16820   2.203  43.144   8.250
 5502POPC   C3B16821   2.239  43.126   7.950
 5502POPC   C4B16822   2.272  43.095   7.650
 5503POPC   NC316823  44.679   7.377   9.450
 5503POPC   PO416824  44.627   7.393   9.150
 5503POPC   GL116825  44.660   7.404   8.850
 5503POPC   GL216826  44.778   7.296   8.850
 5503POPC   C1A16827  44.699   7.453   8.550
 5503POPC   D2A16828  44.640   7.371   8.250
 5503POPC   C3A16829  44.700   7.450   7.950
 5503POPC   C4A16830  44.699   7.417   7.650
 5503POPC   C1B16831  44.803   7.263   8.550
 5503POPC   C2B16832  44.868   7.255   8.250
 5503POPC   C3B16833  44.858   7.273   7.950
 5503POPC   C4B16834  44.850   7.277   7.650
 5504POPC   NC316835  30.735  22.965   9.450
 5504POPC   PO416836  30.647  22.935   9.150
 5504POPC   GL116837  30.738  22.960   8.850
 5504POPC   GL216838  30.669  22.877   8.850
 5504POPC   C1A16839  30.697  22.972   8.550
 5504POPC   D2A16840  30.656  22.983   8.250
 5504POPC   C3A16841  30.734  22.926   7.950
 5504POPC   C4A16842  30.743  22.917   7.650
 5504POPC   C1B16843  30.588  22.690   8.550
 5504POPC   C2B16844  30.528  22.692   8.250
 5504POPC   C3B16845  30.523  22.737   7.950
 5504POPC   C4B16846  30.591  22.763   7.650
 5505POPC   NC316847  27.629   9.744   9.450
 5505POPC   PO416848  27.557   9.742   9.150
 5505POPC   GL116849  27.583   9.700   8.850
 5505POPC   GL216850  27.755   9.707   8.850
 5505POPC   C1A16851  27.625   9.769   8.550
 5505POPC   D2A16852  27.611   9.731   8.250
 5505POPC   C3A16853  27.556   9.702   7.950
 5505POPC   C4A16854  27.563   9.769   7.650
 5505POPC   C1B16855  27.810   9.680   8.550
 5505POPC   C2B16856  27.831   9.640   8.250
 5505POPC   C3B16857  27.779   9.654   7.950
 5505POPC   C4B16858  27.784   9.655   7.650
 5506POPC   NC316859   1.984  18.233   9.450
 5506POPC   PO416860   1.946  18.268   9.150
 5506POPC   GL116861   2.025  18.286   8.850
 5506POPC   GL216862   1.972  18.423   8.850
 5506POPC   C1A16863   2.028  18.320   8.550
 5506POPC   D2A16864   1.945  18.281   8.250
 5506POPC   C3A16865   1.959  18.264   7.950
 5506POPC   C4A16866   2.007  18.317   7.650
 5506POPC   C1B16867   2.030  18.576   8.550
 5506POPC   C2B16868   2.006  18.573   8.250
 5506POPC   C3B16869   1.986  18.580   7.950
 5506POPC   C4B16870   2.003  18.553   7.650
 5507POPC   NC316871  22.963  26.797   9.450
 5507POPC   PO416872  22.918  26.796   9.150
 5507POPC   GL116873  22.979  26.835   8.850
 5507POPC   GL216874  22.812  26.824   8.850
 5507POPC   C1A16875  22.917  26.830   8.550
 5507POPC   D2A16876  22.963  26.799   8.250
 5507POPC   C3A16877  22.902  26.847   7.950
 5507POPC   C4A16878  22.966  26.845   7.650
 5507POPC   C1B16879  22.646  26.785   8.550
 5507POPC   C2B16880  22.714  26.753   8.250
 5507POPC   C3B16881  22.731  26.811   7.950
 5507POPC   C4B16882  22.643  26.806   7.650
 5508POPC   NC316883  10.539   1.177   9.450
 5508POPC   PO416884  10.547   1.249   9.150
 5508POPC   GL116885  10.480   1.217   8.850
 5508POPC   GL216886  10.417   1.284   8.850
 5508POPC   C1A16887  10.492   1.181   8.550
 5508POPC   D2A16888  10.481   1.222   8.250
 5508POPC   C3A16889  10.571   1.170   7.950
 5508POPC   C4A16890  10.480   1.171   7.650
 5508POPC   C1B16891  10.318   1.400   8.550
 5508POPC   C2B16892  10.285   1.379   8.250
 5508POPC   C3B16893  10.360   1.320   7.950
 5508POPC   C4B16894  10.297   1.347   7.650
 5509POPC   NC316895  37.708  35.343   9.450
 5509POPC   PO416896  37.685  35.313   9.150
 5509POPC   GL116897  37.697  35.316   8.850
 5509POPC   GL216898  37.720  35.278   8.850
 5509POPC   C1A16899  37.679  35.313   8.550
 5509POPC   D2A16900  37.653  35.363   8.250
 5509POPC   C3A16901  37.696  35.325   7.950
 5509POPC   C4A16902  37.700  35.304   7.650
 5509POPC   C1B16903  37.720  35.085   8.550
 5509POPC   C2B16904  37.784  35.157   8.250
 5509POPC   C3B16905  37.717  35.123   7.950
 5509POPC   C4B16906  37.755  35.071   7.650
 5510POPC   NC316907  36.883  19.831   9.450
 5510POPC   PO416908  36.950  19.872   9.150
 5510POPC   GL116909  36.936  19.805   8.850
 5510POPC   GL216910  36.972  19.708   8.850
 5510POPC   C1A16911  36.916  19.877   8.550
 5510POPC   D2A16912  36.916  19.846   8.250
 5510POPC   C3A16913  36.887  19.823   7.950
 5510POPC   C4A16914  36.925  19.840   7.650
 5510POPC   C1B16915  36.984  19.598   8.550
 5510POPC   C2B16916  36.981  19.568   8.250
 5510POPC   C3B16917  36.916  19.567   7.950
 5510POPC   C4B16918  36.993  19.554   7.650
 5511POPC   NC316919   9.704  32.267   9.450
 5511POPC   PO416920   9.775  32.204   9.150
 5511POPC   GL116921   9.788  32.209   8.850
 5511POPC   GL216922   9.663  32.263   8.850
 5511POPC   C1A16923   9.748  32.261   8.550
 5511POPC   D2A16924   9.723  32.202   8.250
 5511POPC   C3A16925   9.754  32.284   7.950
 5511POPC   C4A16926   9.761  32.209   7.650
 5511POPC   C1B16927   9.523  32.163   8.550
 5511POPC   C2B16928   9.474  32.225   8.250
 5511POPC   C3B16929   9.494  32.167   7.950
 5511POPC   C4B16930   9.528  32.162   7.650
 5512POPC   NC316931  42.342   4.357   9.450
 5512POPC   PO416932  42.354   4.314   9.150
 5512POPC   GL116933  42.333   4.295   8.850
 5512POPC   GL216934  42.212   4.199   8.850
 5512POPC   C1A16935  42.285   4.286   8.550
 5512POPC   D2A16936  42.349   4.317   8.250
 5512POPC   C3A16937  42.292   4.282   7.950
 5512POPC   C4A16938  42.312   4.352   7.650
 5512POPC   C1B16939  42.128   4.119   8.550
 5512POPC   C2B16940  42.138   4.094   8.250
 5512POPC   C3B16941  42.127   4.166   7.950
 5512POPC   C4B16942  42.178   4.090   7.650
 5513POPC   NC316943  36.163  44.666   9.450
 5513POPC   PO416944  36.126  44.666   9.150
 5513POPC   GL116945  36.115  44.635   8.850
 5513POPC   GL216946  36.094  44.594   8.850
 5513POPC   C1A16947  36.127  44.700   8.550
 5513POPC   D2A16948  36.138  44.641   8.250
 5513POPC   C3A16949  36.135  44.640   7.950
 5513POPC   C4A16950  36.084  44.649   7.650
 5513POPC   C1B16951  36.046  44.441   8.550
 5513POPC   C2B16952  36.070  44.391   8.250
 5513POPC   C3B16953  36.056  44.469   7.950
 5513POPC   C4B16954  36.024  44.428   7.650
 5514POPC   NC316955  11.312  16.690   9.450
 5514POPC   PO416956  11.323  16.743   9.150
 5514POPC   GL116957  11.278  16.708   8.850
 5514POPC   GL216958  11.220  16.842   8.850
 5514POPC   C1A16959  11.295  16.712   8.550
 5514POPC   D2A16960  11.334  16.681   8.250
 5514POPC   C3A16961  11.334  16.726   7.950
 5514POPC   C4A16962  11.315  16.729   7.650
 5514POPC   C1B16963  11.213  16.944   8.550
 5514POPC   C2B16964  11.187  16.983   8.250
 5514POPC   C3B16965  11.184  17.005   7.950
 5514POPC   C4B16966  11.186  16.920   7.650
 5515POPC   NC316967  44.613  31.466   9.450
 5515POPC   PO416968  44.638  31.464   9.150
 5515POPC   GL116969  44.679  31.465   8.850
 5515POPC   GL216970  44.822  31.486   8.850
 5515POPC   C1A16971  44.709  31.459   8.550
 5515POPC   D2A16972  44.674  31.465   8.250
 5515POPC   C3A16973  44.619  31.512   7.950
 5515POPC   C4A16974  44.615  31.513   7.650
 5515POPC   C1B16975  44.908  31.556   8.550
 5515POPC   C2B16976  44.950  31.518   8.250
 5515POPC   C3B16977  44.884  31.477   7.950
 5515POPC   C4B16978  44.878  31.529   7.650
 5516POPC   NC316979  23.704  22.941   9.450
 5516POPC   PO416980  23.754  22.893   9.150
 5516POPC   GL116981  23.718  22.904   8.850
 5516POPC   GL216982  23.632  22.779   8.850
 5516POPC   C1A16983  23.731  22.961   8.550
 5516POPC   D2A16984  23.748  22.981   8.250
 5516POPC   C3A16985  23.702  22.951   7.950
 5516POPC   C4A16986  23.763  22.968   7.650
 5516POPC   C1B16987  23.633  22.663   8.550
 5516POPC   C2B16988  23.609  22.667   8.250
 5516POPC   C3B16989  23.665  22.664   7.950
 5516POPC   C4B16990  23.646  22.704   7.650
 5517POPC   NC316991  21.369  25.315   9.450
 5517POPC   PO416992  21.352  25.274   9.150
 5517POPC   GL116993  21.355  25.254   8.850
 5517POPC   GL216994  21.362  25.340   8.850
 5517POPC   C1A16995  21.380  25.298   8.550
 5517POPC   D2A16996  21.344  25.263   8.250
 5517POPC   C3A16997  21.341  25.222   7.950
 5517POPC   C4A16998  21.343  25.266   7.650
 5517POPC   C1B16999  21.298  25.445   8.550
 5517POPC   C2B17000  21.268  25.468   8.250
 5517POPC   C3B17001  21.310  25.477   7.950
 5517POPC   C4B17002  21.310  25.458   7.650
 5518POPC   NC317003   8.954  43.880   9.450
 5518POPC   PO417004   8.936  43.843   9.150
 5518POPC   GL117005   8.948  43.909   8.850
 5518POPC   GL217006   9.102  43.794   8.850
 5518POPC   C1A17007   8.944  43.859   8.550
 5518POPC   D2A17008   8.923  43.875   8.250
 5518POPC   C3A17009   8.987  43.841   7.950
 5518POPC   C4A17010   8.997  43.913   7.650
 5518POPC   C1B17011   9.152  43.801   8.550
 5518POPC   C2B17012   9.136  43.774   8.250
 5518POPC   C3B17013   9.201  43.794   7.950
 5518POPC   C4B17014   9.148  43.735   7.650
 5519POPC   NC317015  40.796  23.757   9.450
 5519POPC   PO417016  40.786  23.750   9.150
 5519POPC   GL117017  40.807  23.719   8.850
 5519POPC   GL217018  40.946  23.784   8.850
 5519POPC   C1A17019  40.822  23.679   8.550
 5519POPC   D2A17020  40.757  23.690   8.250
 5519POPC   C3A17021  40.828  23.741   7.950
 5519POPC   C4A17022  40.782  23.715   7.650
 5519POPC   C1B17023  41.012  23.803   8.550
 5519POPC   C2B17024  40.981  23.757   8.250
 5519POPC   C3B17025  41.032  23.809   7.950
 5519POPC   C4B17026  41.059  23.787   7.650
 5520POPC   NC317027  19.859  17.508   9.450
 5520POPC   PO417028  19.789  17.496   9.150
 5520POPC   GL117029  19.840  17.546   8.850
 5520POPC   GL217030  19.744  17.404   8.850
 5520POPC   C1A17031  19.793  17.534   8.550
 5520POPC   D2A17032  19.829  17.457   8.250
 5520POPC   C3A17033  19.868  17.464   7.950
 5520POPC   C4A17034  19.879  17.471   7.650
 5520POPC   C1B17035  19.653  17.343   8.550
 5520POPC   C2B17036  19.619  17.427   8.250
 5520POPC   C3B17037  19.584  17.399   7.950
 5520POPC   C4B17038  19.573  17.347   7.650
 5521POPC   NC317039  26.803  29.884   9.450
 5521POPC   PO417040  26.862  29.875   9.150
 5521POPC   GL117041  26.840  29.888   8.850
 5521POPC   GL217042  26.702  29.980   8.850
 5521POPC   C1A17043  26.816  29.911   8.550
 5521POPC   D2A17044  26.827  29.946   8.250
 5521POPC   C3A17045  26.835  29.929   7.950
 5521POPC   C4A17046  26.775  29.936   7.650
 5521POPC   C1B17047  26.681  30.091   8.550
 5521POPC   C2B17048  26.621  30.069   8.250
 5521POPC   C3B17049  26.662  30.147   7.950
 5521POPC   C4B17050  26.609  30.089   7.650
 5522POPC   NC317051   2.788  17.491   9.450
 5522POPC   PO417052   2.729  17.533   9.150
 5522POPC   GL117053   2.757  17.475   8.850
 5522POPC   GL217054   2.660  17.598   8.850
 5522POPC   C1A17055   2.799  17.551   8.550
 5522POPC   D2A17056   2.775  17.554   8.250
 5522POPC   C3A17057   2.810  17.549   7.950
 5522POPC   C4A17058   2.764  17.470   7.650
 5522POPC   C1B17059   2.526  17.617   8.550
 5522POPC   C2B17060   2.588  17.606   8.250
 5522POPC   C3B17061   2.555  17.655   7.950
 5522POPC   C4B17062   2.509  17.586   7.650
 5523POPC   NC317063  29.906   6.677   9.450
 5523POPC   PO417064  29.871   6.649   9.150
 5523POPC   GL117065  29.920   6.675   8.850
 5523POPC   GL217066  30.028   6.648   8.850
 5523POPC   C1A17067  29.880   6.638   8.550
 5523POPC   D2A17068  29.946   6.625   8.250
 5523POPC   C3A17069  29.889   6.645   7.950
 5523POPC   C4A17070  29.885   6.662   7.650
 5523POPC   C1B17071  30.159   6.702   8.550
 5523POPC   C2B17072  30.138   6.754   8.250
 5523POPC   C3B17073  30.148   6.676   7.950
 5523POPC   C4B17074  30.145   6.675   7.650
 5524POPC   NC317075  33.024  40.781   9.450
 5524POPC   PO417076  33.015  40.806   9.150
 5524POPC   GL117077  33.025  40.785   8.850
 5524POPC   GL217078  32.963  40.865   8.850
 5524POPC   C1A17079  32.981  40.797   8.550
 5524POPC   D2A17080  33.029  40.818   8.250
 5524POPC   C3A17081  32.975  40.830   7.950
 5524POPC   C4A17082  33.014  40.779   7.650
 5524POPC   C1B17083  32.796  40.912   8.550
 5524POPC   C2B17084  32.820  40.908   8.250
 5524POPC   C3B17085  32.826  40.940   7.950
 5524POPC   C4B17086  32.791  40.926   7.650
 5525POPC   NC317087  38.418  15.931   9.450
 5525POPC   PO417088  38.448  15.922   9.150
 5525POPC   GL117089  38.461  15.948   8.850
 5525POPC   GL217090  38.428  15.856   8.850
 5525POPC   C1A17091  38.446  15.988   8.550
 5525POPC   D2A17092  38.452  15.982   8.250
 5525POPC   C3A17093  38.497  15.959   7.950
 5525POPC   C4A17094  38.449  15.965   7.650
 5525POPC   C1B17095  38.297  15.782   8.550
 5525POPC   C2B17096  38.255  15.802   8.250
 5525POPC   C3B17097  38.312  15.743   7.950
 5525POPC   C4B17098  38.323  15.799   7.650
 5526POPC   NC317099   2.768  16.686   9.450
 5526POPC   PO417100   2.750  16.709   9.150
 5526POPC   GL117101   2.734  16.735   8.850
 5526POPC   GL217102   2.812  16.807   8.850
 5526POPC   C1A17103   2.733  16.684   8.550
 5526POPC   D2A17104   2.789  16.723   8.250
 5526POPC   C3A17105   2.733  16.736   7.950
 5526POPC   C4A17106   2.738  16.687   7.650
 5526POPC   C1B17107   2.871  16.948   8.550
 5526POPC   C2B17108   2.867  17.003   8.250
 5526POPC   C3B17109   2.895  16.920   7.950
 5526POPC   C4B17110   2.907  16.971   7.650
 5527POPC   NC317111  40.793  12.046   9.450
 5527POPC   PO417112  40.812  12.054   9.150
 5527POPC   GL117113  40.770  12.102   8.850
 5527POPC   GL217114  40.701  12.128   8.850
 5527POPC   C1A17115  40.811  12.092   8.550
 5527POPC   D2A17116  40.757  12.078   8.250
 5527POPC   C3A17117  40.790  12.098   7.950
 5527POPC   C4A17118  40.749  12.048   7.650
 5527POPC   C1B17119  40.497  12.071   8.550
 5527POPC   C2B17120  40.503  12.161   8.250
 5527POPC   C3B17121  40.532  12.154   7.950
 5527POPC   C4B17122  40.556  12.089   7.650
 5528POPC   NC317123  28.325   2.000   9.450
 5528POPC   PO417124  28.338   2.032   9.150
 5528POPC   GL117125  28.400   1.966   8.850
 5528POPC   GL217126  28.285   1.887   8.850
 5528POPC   C1A17127  28.342   1.984   8.550
 5528POPC   D2A17128  28.322   2.030   8.250
 5528POPC   C3A17129  28.403   2.018   7.950
 5528POPC   C4A17130  28.400   1.972   7.650
 5528POPC   C1B17131  28.209   1.795   8.550
 5528POPC   C2B17132  28.197   1.813   8.250
 5528POPC   C3B17133  28.159   1.868   7.950
 5528POPC   C4B17134  28.216   1.788   7.650
 5529POPC   NC317135  31.520  19.032   9.450
 5529POPC   PO417136  31.489  19.026   9.150
 5529POPC   GL117137  31.441  19.079   8.850
 5529POPC   GL217138  31.408  18.953   8.850
 5529POPC   C1A17139  31.515  19.010   8.550
 5529POPC   D2A17140  31.497  19.087   8.250
 5529POPC   C3A17141  31.506  19.076   7.950
 5529POPC   C4A17142  31.469  19.040   7.650
 5529POPC   C1B17143  31.382  18.795   8.550
 5529POPC   C2B17144  31.394  18.852   8.250
 5529POPC   C3B17145  31.320  18.894   7.950
 5529POPC   C4B17146  31.380  18.828   7.650
 5530POPC   NC317147  26.771  28.418   9.450
 5530POPC   PO417148  26.837  28.412   9.150
 5530POPC   GL117149  26.818  28.375   8.850
 5530POPC   GL217150  26.973  28.345   8.850
 5530POPC   C1A17151  26.795  28.379   8.550
 5530POPC   D2A17152  26.804  28.347   8.250
 5530POPC   C3A17153  26.805  28.319   7.950
 5530POPC   C4A17154  26.793  28.326   7.650
 5530POPC   C1B17155  27.098  28.272   8.550
 5530POPC   C2B17156  27.057  28.245   8.250
 5530POPC   C3B17157  27.030  28.324   7.950
 5530POPC   C4B17158  27.011  28.255   7.650
 5531POPC   NC317159  36.100  43.134   9.450
 5531POPC   PO417160  36.171  43.087   9.150
 5531POPC   GL117161  36.092  43.084   8.850
 5531POPC   GL217162  36.107  43.008   8.850
 5531POPC   C1A17163  36.142  43.138   8.550
 5531POPC   D2A17164  36.152  43.080   8.250
 5531POPC   C3A17165  36.110  43.080   7.950
 5531POPC   C4A17166  36.114  43.122   7.650
 5531POPC   C1B17167  36.042  42.865   8.550
 5531POPC   C2B17168  36.076  42.893   8.250
 5531POPC   C3B17169  36.056  42.841   7.950
 5531POPC   C4B17170  36.106  42.874   7.650
 5532POPC   NC317171  26.036  41.555   9.450
 5532POPC   PO417172  26.009  41.593   9.150
 5532POPC   GL117173  26.028  41.587   8.850
 5532POPC   GL217174  26.096  41.675   8.850
 5532POPC   C1A17175  26.021  41.601   8.550
 5532POPC   D2A17176  26.079  41.587   8.250
 5532POPC   C3A17177  26.018  41.596   7.950
 5532POPC   C4A17178  26.057  41.556   7.650
 5532POPC   C1B17179  26.088  41.839   8.550
 5532POPC   C2B17180  26.066  41.768   8.250
 5532POPC   C3B17181  26.057  41.767   7.950
 5532POPC   C4B17182  26.059  41.834   7.650
 5533POPC   NC317183  40.018  25.275   9.450
 5533POPC   PO417184  40.055  25.287   9.150
 5533POPC   GL117185  40.048  25.274   8.850
 5533POPC   GL217186  40.060  25.377   8.850
 5533POPC   C1A17187  40.047  25.295   8.550
 5533POPC   D2A17188  40.000  25.216   8.250
 5533POPC   C3A17189  40.016  25.274   7.950
 5533POPC   C4A17190  40.038  25.272   7.650
 5533POPC   C1B17191  40.188  25.435   8.550
 5533POPC   C2B17192  40.163  25.463   8.250
 5533POPC   C3B17193  40.204  25.429   7.950
 5533POPC   C4B17194  40.152  25.501   7.650
 5534POPC   NC317195  32.270   8.165   9.450
 5534POPC   PO417196  32.222   8.178   9.150
 5534POPC   GL117197  32.217   8.166   8.850
 5534POPC   GL217198  32.094   8.084   8.850
 5534POPC   C1A17199  32.292   8.234   8.550
 5534POPC   D2A17200  32.199   8.155   8.250
 5534POPC   C3A17201  32.214   8.228   7.950
 5534POPC   C4A17202  32.288   8.190   7.650
 5534POPC   C1B17203  32.060   8.089   8.550
 5534POPC   C2B17204  32.047   8.097   8.250
 5534POPC   C3B17205  32.071   8.064   7.950
 5534POPC   C4B17206  32.031   8.065   7.650
 5535POPC   NC317207  20.577  36.871   9.450
 5535POPC   PO417208  20.652  36.856   9.150
 5535POPC   GL117209  20.657  36.881   8.850
 5535POPC   GL217210  20.521  37.029   8.850
 5535POPC   C1A17211  20.646  36.878   8.550
 5535POPC   D2A17212  20.573  36.941   8.250
 5535POPC   C3A17213  20.621  36.948   7.950
 5535POPC   C4A17214  20.637  36.930   7.650
 5535POPC   C1B17215  20.500  37.057   8.550
 5535POPC   C2B17216  20.464  37.116   8.250
 5535POPC   C3B17217  20.439  37.114   7.950
 5535POPC   C4B17218  20.502  37.145   7.650
 5536POPC   NC317219   7.395  42.363   9.450
 5536POPC   PO417220   7.457  42.326   9.150
 5536POPC   GL117221   7.398  42.353   8.850
 5536POPC   GL217222   7.320  42.315   8.850
 5536POPC   C1A17223   7.432  42.377   8.550
 5536POPC   D2A17224   7.403  42.381   8.250
 5536POPC   C3A17225   7.387  42.344   7.950
 5536POPC   C4A17226   7.453  42.339   7.650
 5536POPC   C1B17227   7.134  42.310   8.550
 5536POPC   C2B17228   7.128  42.287   8.250
 5536POPC   C3B17229   7.200  42.315   7.950
 5536POPC   C4B17230   7.128  42.326   7.650
 5537POPC   NC317231   4.321  29.877   9.450
 5537POPC   PO417232   4.275  29.876   9.150
 5537POPC   GL117233   4.302  29.927   8.850
 5537POPC   GL217234   4.279  29.997   8.850
 5537POPC   C1A17235   4.335  29.939   8.550
 5537POPC   D2A17236   4.352  29.940   8.250
 5537POPC   C3A17237   4.289  29.914   7.950
 5537POPC   C4A17238   4.363  29.915   7.650
 5537POPC   C1B17239   4.207  30.153   8.550
 5537POPC   C2B17240   4.209  30.086   8.250
 5537POPC   C3B17241   4.133  30.147   7.950
 5537POPC   C4B17242   4.211  30.111   7.650
 5538POPC   NC317243  29.164  31.512   9.450
 5538POPC   PO417244  29.142  31.426   9.150
 5538POPC   GL117245  29.136  31.491   8.850
 5538POPC   GL217246  29.254  31.357   8.850
 5538POPC   C1A17247  29.144  31.516   8.550
 5538POPC   D2A17248  29.127  31.514   8.250
 5538POPC   C3A17249  29.158  31.448   7.950
 5538POPC   C4A17250  29.124  31.497   7.650
 5538POPC   C1B17251  29.336  31.282   8.550
 5538POPC   C2B17252  29.268  31.293   8.250
 5538POPC   C3B17253  29.288  31.261   7.950
 5538POPC   C4B17254  29.284  31.248   7.650
 5539POPC   NC317255  19.851  11.330   9.450
 5539POPC   PO417256  19.862  11.316   9.150
 5539POPC   GL117257  19.867  11.336   8.850
 5539POPC   GL217258  19.818  11.199   8.850
 5539POPC   C1A17259  19.813  11.323   8.550
 5539POPC   D2A17260  19.873  11.304   8.250
 5539POPC   C3A17261  19.883  11.272   7.950
 5539POPC   C4A17262  19.855  11.279   7.650
 5539POPC   C1B17263  19.777  11.102   8.550
 5539POPC   C2B17264  19.729  11.089   8.250
 5539POPC   C3B17265  19.812  11.078   7.950
 5539POPC   C4B17266  19.823  11.066   7.650
 5540POPC   NC317267  40.053  33.825   9.450
 5540POPC   PO417268  40.006  33.814   9.150
 5540POPC   GL117269  39.979  33.838   8.850
 5540POPC   GL217270  40.103  33.859   8.850
 5540POPC   C1A17271  39.977  33.812   8.550
 5540POPC   D2A17272  40.017  33.797   8.250
 5540POPC   C3A17273  40.017  33.761   7.950
 5540POPC   C4A17274  39.964  33.767   7.650
 5540POPC   C1B17275  40.233  33.952   8.550
 5540POPC   C2B17276  40.245  33.880   8.250
 5540POPC   C3B17277  40.192  33.864   7.950
 5540POPC   C4B17278  40.227  33.881   7.650
 5541POPC   NC317279   5.911  15.919   9.450
 5541POPC   PO417280   5.823  15.982   9.150
 5541POPC   GL117281   5.906  15.996   8.850
 5541POPC   GL217282   6.012  16.014   8.850
 5541POPC   C1A17283   5.900  15.999   8.550
 5541POPC   D2A17284   5.829  15.921   8.250
 5541POPC   C3A17285   5.871  15.927   7.950
 5541POPC   C4A17286   5.846  15.964   7.650
 5541POPC   C1B17287   6.059  16.049   8.550
 5541POPC   C2B17288   6.120  16.108   8.250
 5541POPC   C3B17289   6.071  16.133   7.950
 5541POPC   C4B17290   6.086  16.090   7.650
 5542POPC   NC317291  41.590  21.420   9.450
 5542POPC   PO417292  41.591  21.368   9.150
 5542POPC   GL117293  41.549  21.348   8.850
 5542POPC   GL217294  41.639  21.429   8.850
 5542POPC   C1A17295  41.511  21.421   8.550
 5542POPC   D2A17296  41.587  21.368   8.250
 5542POPC   C3A17297  41.539  21.419   7.950
 5542POPC   C4A17298  41.530  21.399   7.650
 5542POPC   C1B17299  41.808  21.489   8.550
 5542POPC   C2B17300  41.817  21.488   8.250
 5542POPC   C3B17301  41.755  21.501   7.950
 5542POPC   C4B17302  41.761  21.490   7.650
 5543POPC   NC317303  19.042   7.371   9.450
 5543POPC   PO417304  19.105   7.464   9.150
 5543POPC   GL117305  19.025   7.441   8.850
 5543POPC   GL217306  19.188   7.356   8.850
 5543POPC   C1A17307  19.090   7.445   8.550
 5543POPC   D2A17308  19.088   7.421   8.250
 5543POPC   C3A17309  19.044   7.406   7.950
 5543POPC   C4A17310  19.091   7.412   7.650
 5543POPC   C1B17311  19.323   7.317   8.550
 5543POPC   C2B17312  19.266   7.320   8.250
 5543POPC   C3B17313  19.312   7.273   7.950
 5543POPC   C4B17314  19.282   7.277   7.650
 5544POPC   NC317315   6.636  35.338   9.450
 5544POPC   PO417316   6.627  35.305   9.150
 5544POPC   GL117317   6.668  35.370   8.850
 5544POPC   GL217318   6.708  35.417   8.850
 5544POPC   C1A17319   6.633  35.368   8.550
 5544POPC   D2A17320   6.609  35.365   8.250
 5544POPC   C3A17321   6.616  35.368   7.950
 5544POPC   C4A17322   6.682  35.327   7.650
 5544POPC   C1B17323   6.821  35.431   8.550
 5544POPC   C2B17324   6.872  35.518   8.250
 5544POPC   C3B17325   6.847  35.447   7.950
 5544POPC   C4B17326   6.907  35.429   7.650
 5545POPC   NC317327  14.364  44.659   9.450
 5545POPC   PO417328  14.439  44.667   9.150
 5545POPC   GL117329  14.407  44.637   8.850
 5545POPC   GL217330  14.494  44.551   8.850
 5545POPC   C1A17331  14.413  44.644   8.550
 5545POPC   D2A17332  14.362  44.684   8.250
 5545POPC   C3A17333  14.397  44.667   7.950
 5545POPC   C4A17334  14.430  44.698   7.650
 5545POPC   C1B17335  14.623  44.441   8.550
 5545POPC   C2B17336  14.613  44.480   8.250
 5545POPC   C3B17337  14.561  44.520   7.950
 5545POPC   C4B17338  14.581  44.445   7.650
 5546POPC   NC317339  39.234  16.746   9.450
 5546POPC   PO417340  39.185  16.714   9.150
 5546POPC   GL117341  39.201  16.763   8.850
 5546POPC   GL217342  39.167  16.667   8.850
 5546POPC   C1A17343  39.280  16.772   8.550
 5546POPC   D2A17344  39.247  16.688   8.250
 5546POPC   C3A17345  39.258  16.722   7.950
 5546POPC   C4A17346  39.249  16.771   7.650
 5546POPC   C1B17347  39.073  16.579   8.550
 5546POPC   C2B17348  39.038  16.587   8.250
 5546POPC   C3B17349  39.021  16.545   7.950
 5546POPC   C4B17350  39.015  16.550   7.650
 5547POPC   NC317351   2.762  15.174   9.450
 5547POPC   PO417352   2.717  15.147   9.150
 5547POPC   GL117353   2.787  15.192   8.850
 5547POPC   GL217354   2.766  15.312   8.850
 5547POPC   C1A17355   2.732  15.219   8.550
 5547POPC   D2A17356   2.730  15.184   8.250
 5547POPC   C3A17357   2.727  15.132   7.950
 5547POPC   C4A17358   2.736  15.131   7.650
 5547POPC   C1B17359   2.649  15.435   8.550
 5547POPC   C2B17360   2.708  15.434   8.250
 5547POPC   C3B17361   2.652  15.430   7.950
 5547POPC   C4B17362   2.662  15.463   7.650
 5548POPC   NC317363  40.738  21.436   9.450
 5548POPC   PO417364  40.793  21.351   9.150
 5548POPC   GL117365  40.814  21.380   8.850
 5548POPC   GL217366  40.932  21.423   8.850
 5548POPC   C1A17367  40.742  21.426   8.550
 5548POPC   D2A17368  40.815  21.421   8.250
 5548POPC   C3A17369  40.738  21.347   7.950
 5548POPC   C4A17370  40.823  21.418   7.650
 5548POPC   C1B17371  41.067  21.357   8.550
 5548POPC   C2B17372  41.006  21.400   8.250
 5548POPC   C3B17373  41.013  21.386   7.950
 5548POPC   C4B17374  41.060  21.400   7.650
 5549POPC   NC317375  22.970  15.165   9.450
 5549POPC   PO417376  22.949  15.199   9.150
 5549POPC   GL117377  22.950  15.156   8.850
 5549POPC   GL217378  22.944  15.031   8.850
 5549POPC   C1A17379  22.948  15.168   8.550
 5549POPC   D2A17380  22.981  15.161   8.250
 5549POPC   C3A17381  22.906  15.149   7.950
 5549POPC   C4A17382  22.947  15.152   7.650
 5549POPC   C1B17383  23.012  14.974   8.550
 5549POPC   C2B17384  22.960  14.973   8.250
 5549POPC   C3B17385  22.979  14.928   7.950
 5549POPC   C4B17386  22.945  14.915   7.650
 5550POPC   NC317387  15.991   8.190   9.450
 5550POPC   PO417388  15.908   8.162   9.150
 5550POPC   GL117389  15.986   8.218   8.850
 5550POPC   GL217390  16.012   8.066   8.850
 5550POPC   C1A17391  15.914   8.150   8.550
 5550POPC   D2A17392  15.965   8.166   8.250
 5550POPC   C3A17393  15.957   8.171   7.950
 5550POPC   C4A17394  15.946   8.201   7.650
 5550POPC   C1B17395  16.175   8.046   8.550
 5550POPC   C2B17396  16.184   8.006   8.250
 5550POPC   C3B17397  16.109   8.019   7.950
 5550POPC   C4B17398  16.106   8.025   7.650
 5551POPC   NC317399  38.431  36.918   9.450
 5551POPC   PO417400  38.503  36.853   9.150
 5551POPC   GL117401  38.415  36.899   8.850
 5551POPC   GL217402  38.505  37.015   8.850
 5551POPC   C1A17403  38.409  36.866   8.550
 5551POPC   D2A17404  38.483  36.952   8.250
 5551POPC   C3A17405  38.466  36.946   7.950
 5551POPC   C4A17406  38.469  36.868   7.650
 5551POPC   C1B17407  38.450  37.145   8.550
 5551POPC   C2B17408  38.454  37.128   8.250
 5551POPC   C3B17409  38.488  37.104   7.950
 5551POPC   C4B17410  38.504  37.163   7.650
 5552POPC   NC317411  34.528  44.636   9.450
 5552POPC   PO417412  34.554  44.711   9.150
 5552POPC   GL117413  34.591  44.619   8.850
 5552POPC   GL217414  34.558  44.802   8.850
 5552POPC   C1A17415  34.581  44.622   8.550
 5552POPC   D2A17416  34.556  44.639   8.250
 5552POPC   C3A17417  34.588  44.625   7.950
 5552POPC   C4A17418  34.533  44.709   7.650
 5552POPC   C1B17419  34.549  44.902   8.550
 5552POPC   C2B17420  34.533  44.889   8.250
 5552POPC   C3B17421  34.499  44.924   7.950
 5552POPC   C4B17422  34.550  44.896   7.650
 5553POPC   NC317423   7.442   3.577   9.450
 5553POPC   PO417424   7.470   3.570   9.150
 5553POPC   GL117425   7.378   3.577   8.850
 5553POPC   GL217426   7.362   3.435   8.850
 5553POPC   C1A17427   7.387   3.568   8.550
 5553POPC   D2A17428   7.374   3.589   8.250
 5553POPC   C3A17429   7.435   3.539   7.950
 5553POPC   C4A17430   7.433   3.507   7.650
 5553POPC   C1B17431   7.207   3.408   8.550
 5553POPC   C2B17432   7.206   3.363   8.250
 5553POPC   C3B17433   7.206   3.347   7.950
 5553POPC   C4B17434   7.227   3.372   7.650
 5554POPC   NC317435   9.791  36.880   9.450
 5554POPC   PO417436   9.796  36.942   9.150
 5554POPC   GL117437   9.777  36.934   8.850
 5554POPC   GL217438   9.731  37.012   8.850
 5554POPC   C1A17439   9.772  36.945   8.550
 5554POPC   D2A17440   9.733  36.919   8.250
 5554POPC   C3A17441   9.797  36.933   7.950
 5554POPC   C4A17442   9.768  36.858   7.650
 5554POPC   C1B17443   9.780  37.112   8.550
 5554POPC   C2B17444   9.779  37.116   8.250
 5554POPC   C3B17445   9.810  37.148   7.950
 5554POPC   C4B17446   9.795  37.102   7.650
 5555POPC   NC317447  39.261  43.111   9.450
 5555POPC   PO417448  39.220  43.156   9.150
 5555POPC   GL117449  39.190  43.073   8.850
 5555POPC   GL217450  39.292  43.015   8.850
 5555POPC   C1A17451  39.219  43.159   8.550
 5555POPC   D2A17452  39.206  43.072   8.250
 5555POPC   C3A17453  39.249  43.111   7.950
 5555POPC   C4A17454  39.275  43.081   7.650
 5555POPC   C1B17455  39.387  42.960   8.550
 5555POPC   C2B17456  39.419  42.961   8.250
 5555POPC   C3B17457  39.426  42.945   7.950
 5555POPC   C4B17458  39.414  42.904   7.650
 5556POPC   NC317459   6.628  36.171   9.450
 5556POPC   PO417460   6.638  36.141   9.150
 5556POPC   GL117461   6.624  36.103   8.850
 5556POPC   GL217462   6.626  36.043   8.850
 5556POPC   C1A17463   6.672  36.082   8.550
 5556POPC   D2A17464   6.680  36.133   8.250
 5556POPC   C3A17465   6.656  36.119   7.950
 5556POPC   C4A17466   6.623  36.102   7.650
 5556POPC   C1B17467   6.580  35.935   8.550
 5556POPC   C2B17468   6.566  35.914   8.250
 5556POPC   C3B17469   6.556  35.860   7.950
 5556POPC   C4B17470   6.541  35.932   7.650
 5557POPC   NC317471  33.781  43.158   9.450
 5557POPC   PO417472  33.839  43.112   9.150
 5557POPC   GL117473  33.818  43.155   8.850
 5557POPC   GL217474  33.739  43.271   8.850
 5557POPC   C1A17475  33.811  43.153   8.550
 5557POPC   D2A17476  33.823  43.150   8.250
 5557POPC   C3A17477  33.787  43.067   7.950
 5557POPC   C4A17478  33.781  43.121   7.650
 5557POPC   C1B17479  33.680  43.386   8.550
 5557POPC   C2B17480  33.745  43.304   8.250
 5557POPC   C3B17481  33.741  43.346   7.950
 5557POPC   C4B17482  33.681  43.355   7.650
 5558POPC   NC317483  35.333  26.024   9.450
 5558POPC   PO417484  35.380  26.090   9.150
 5558POPC   GL117485  35.395  26.035   8.850
 5558POPC   GL217486  35.193  26.007   8.850
 5558POPC   C1A17487  35.328  26.011   8.550
 5558POPC   D2A17488  35.359  26.006   8.250
 5558POPC   C3A17489  35.391  26.006   7.950
 5558POPC   C4A17490  35.334  26.017   7.650
 5558POPC   C1B17491  35.097  25.949   8.550
 5558POPC   C2B17492  35.147  25.978   8.250
 5558POPC   C3B17493  35.093  26.015   7.950
 5558POPC   C4B17494  35.077  26.022   7.650
 5559POPC   NC317495  41.579   0.406   9.450
 5559POPC   PO417496  41.567   0.462   9.150
 5559POPC   GL117497  41.581   0.467   8.850
 5559POPC   GL217498  41.726   0.442   8.850
 5559POPC   C1A17499  41.597   0.423   8.550
 5559POPC   D2A17500  41.525   0.429   8.250
 5559POPC   C3A17501  41.596   0.428   7.950
 5559POPC   C4A17502  41.551   0.426   7.650
 5559POPC   C1B17503  41.818   0.391   8.550
 5559POPC   C2B17504  41.841   0.399   8.250
 5559POPC   C3B17505  41.823   0.394   7.950
 5559POPC   C4B17506  41.802   0.423   7.650
 5560POPC   NC317507  27.551   0.414   9.450
 5560POPC   PO417508  27.629   0.403   9.150
 5560POPC   GL117509  27.551   0.485   8.850
 5560POPC   GL217510  27.551   0.338   8.850
 5560POPC   C1A17511  27.599   0.416   8.550
 5560POPC   D2A17512  27.606   0.423   8.250
 5560POPC   C3A17513  27.628   0.406   7.950
 5560POPC   C4A17514  27.578   0.481   7.650
 5560POPC   C1B17515  27.509   0.181   8.550
 5560POPC   C2B17516  27.449   0.260   8.250
 5560POPC   C3B17517  27.516   0.195   7.950
 5560POPC   C4B17518  27.512   0.224   7.650
 5561POPC   NC317519   7.373  37.690   9.450
 5561POPC   PO417520   7.451  37.664   9.150
 5561POPC   GL117521   7.381  37.687   8.850
 5561POPC   GL217522   7.433  37.846   8.850
 5561POPC   C1A17523   7.385  37.635   8.550
 5561POPC   D2A17524   7.418  37.691   8.250
 5561POPC   C3A17525   7.467  37.685   7.950
 5561POPC   C4A17526   7.387  37.635   7.650
 5561POPC   C1B17527   7.340  37.872   8.550
 5561POPC   C2B17528   7.391  37.944   8.250
 5561POPC   C3B17529   7.360  37.953   7.950
 5561POPC   C4B17530   7.361  37.911   7.650
 5562POPC   NC317531   8.217  21.409   9.450
 5562POPC   PO417532   8.186  21.377   9.150
 5562POPC   GL117533   8.198  21.346   8.850
 5562POPC   GL217534   8.314  21.272   8.850
 5562POPC   C1A17535   8.209  21.409   8.550
 5562POPC   D2A17536   8.147  21.381   8.250
 5562POPC   C3A17537   8.229  21.410   7.950
 5562POPC   C4A17538   8.208  21.366   7.650
 5562POPC   C1B17539   8.374  21.190   8.550
 5562POPC   C2B17540   8.424  21.278   8.250
 5562POPC   C3B17541   8.371  21.186   7.950
 5562POPC   C4B17542   8.396  21.272   7.650
 5563POPC   NC317543   7.413  15.222   9.450
 5563POPC   PO417544   7.443  15.171   9.150
 5563POPC   GL117545   7.415  15.129   8.850
 5563POPC   GL217546   7.387  15.059   8.850
 5563POPC   C1A17547   7.372  15.140   8.550
 5563POPC   D2A17548   7.426  15.169   8.250
 5563POPC   C3A17549   7.385  15.168   7.950
 5563POPC   C4A17550   7.456  15.200   7.650
 5563POPC   C1B17551   7.450  14.947   8.550
 5563POPC   C2B17552   7.402  14.929   8.250
 5563POPC   C3B17553   7.417  14.954   7.950
 5563POPC   C4B17554   7.449  14.939   7.650
 5564POPC   NC317555   4.329  26.769   9.450
 5564POPC   PO417556   4.352  26.784   9.150
 5564POPC   GL117557   4.303  26.838   8.850
 5564POPC   GL217558   4.334  26.698   8.850
 5564POPC   C1A17559   4.279  26.832   8.550
 5564POPC   D2A17560   4.345  26.864   8.250
 5564POPC   C3A17561   4.308  26.852   7.950
 5564POPC   C4A17562   4.271  26.812   7.650
 5564POPC   C1B17563   4.344  26.611   8.550
 5564POPC   C2B17564   4.365  26.543   8.250
 5564POPC   C3B17565   4.362  26.528   7.950
 5564POPC   C4B17566   4.311  26.548   7.650
 5565POPC   NC317567  34.618  32.265   9.450
 5565POPC   PO417568  34.623  32.209   9.150
 5565POPC   GL117569  34.541  32.222   8.850
 5565POPC   GL217570  34.594  32.150   8.850
 5565POPC   C1A17571  34.537  32.297   8.550
 5565POPC   D2A17572  34.603  32.254   8.250
 5565POPC   C3A17573  34.603  32.275   7.950
 5565POPC   C4A17574  34.558  32.199   7.650
 5565POPC   C1B17575  34.622  32.016   8.550
 5565POPC   C2B17576  34.636  31.973   8.250
 5565POPC   C3B17577  34.589  32.004   7.950
 5565POPC   C4B17578  34.551  31.981   7.650
 5566POPC   NC317579  21.435  27.602   9.450
 5566POPC   PO417580  21.413  27.562   9.150
 5566POPC   GL117581  21.353  27.546   8.850
 5566POPC   GL217582  21.343  27.514   8.850
 5566POPC   C1A17583  21.343  27.588   8.550
 5566POPC   D2A17584  21.382  27.598   8.250
 5566POPC   C3A17585  21.387  27.577   7.950
 5566POPC   C4A17586  21.396  27.634   7.650
 5566POPC   C1B17587  21.404  27.334   8.550
 5566POPC   C2B17588  21.401  27.301   8.250
 5566POPC   C3B17589  21.400  27.293   7.950
 5566POPC   C4B17590  21.417  27.348   7.650
 5567POPC   NC317591  35.363  29.942   9.450
 5567POPC   PO417592  35.360  29.946   9.150
 5567POPC   GL117593  35.321  29.968   8.850
 5567POPC   GL217594  35.301  29.783   8.850
 5567POPC   C1A17595  35.382  29.911   8.550
 5567POPC   D2A17596  35.394  29.893   8.250
 5567POPC   C3A17597  35.394  29.946   7.950
 5567POPC   C4A17598  35.341  29.919   7.650
 5567POPC   C1B17599  35.253  29.640   8.550
 5567POPC   C2B17600  35.262  29.704   8.250
 5567POPC   C3B17601  35.294  29.692   7.950
 5567POPC   C4B17602  35.303  29.687   7.650
 5568POPC   NC317603  17.464   8.158   9.450
 5568POPC   PO417604  17.475   8.149   9.150
 5568POPC   GL117605  17.531   8.217   8.850
 5568POPC   GL217606  17.401   8.075   8.850
 5568POPC   C1A17607  17.541   8.151   8.550
 5568POPC   D2A17608  17.502   8.169   8.250
 5568POPC   C3A17609  17.528   8.215   7.950
 5568POPC   C4A17610  17.507   8.185   7.650
 5568POPC   C1B17611  17.381   7.930   8.550
 5568POPC   C2B17612  17.335   8.028   8.250
 5568POPC   C3B17613  17.432   7.959   7.950
 5568POPC   C4B17614  17.361   7.989   7.650
 5569POPC   NC317615  15.163  40.784   9.450
 5569POPC   PO417616  15.142  40.754   9.150
 5569POPC   GL117617  15.147  40.777   8.850
 5569POPC   GL217618  15.106  40.924   8.850
 5569POPC   C1A17619  15.184  40.751   8.550
 5569POPC   D2A17620  15.134  40.791   8.250
 5569POPC   C3A17621  15.129  40.775   7.950
 5569POPC   C4A17622  15.167  40.746   7.650
 5569POPC   C1B17623  14.969  40.928   8.550
 5569POPC   C2B17624  15.001  40.950   8.250
 5569POPC   C3B17625  15.023  41.013   7.950
 5569POPC   C4B17626  15.002  41.004   7.650
 5570POPC   NC317627  36.870  23.732   9.450
 5570POPC   PO417628  36.886  23.757   9.150
 5570POPC   GL117629  36.881  23.707   8.850
 5570POPC   GL217630  36.989  23.789   8.850
 5570POPC   C1A17631  36.920  23.738   8.550
 5570POPC   D2A17632  36.871  23.671   8.250
 5570POPC   C3A17633  36.863  23.664   7.950
 5570POPC   C4A17634  36.867  23.673   7.650
 5570POPC   C1B17635  37.064  23.840   8.550
 5570POPC   C2B17636  37.102  23.829   8.250
 5570POPC   C3B17637  37.122  23.880   7.950
 5570POPC   C4B17638  37.089  23.854   7.650
 5571POPC   NC317639  13.582  39.225   9.450
 5571POPC   PO417640  13.634  39.266   9.150
 5571POPC   GL117641  13.651  39.208   8.850
 5571POPC   GL217642  13.657  39.296   8.850
 5571POPC   C1A17643  13.658  39.225   8.550
 5571POPC   D2A17644  13.583  39.193   8.250
 5571POPC   C3A17645  13.653  39.210   7.950
 5571POPC   C4A17646  13.630  39.187   7.650
 5571POPC   C1B17647  13.732  39.389   8.550
 5571POPC   C2B17648  13.817  39.458   8.250
 5571POPC   C3B17649  13.812  39.483   7.950
 5571POPC   C4B17650  13.780  39.389   7.650
 5572POPC   NC317651  29.107  11.294   9.450
 5572POPC   PO417652  29.132  11.311   9.150
 5572POPC   GL117653  29.100  11.259   8.850
 5572POPC   GL217654  29.060  11.248   8.850
 5572POPC   C1A17655  29.138  11.315   8.550
 5572POPC   D2A17656  29.123  11.270   8.250
 5572POPC   C3A17657  29.153  11.314   7.950
 5572POPC   C4A17658  29.145  11.325   7.650
 5572POPC   C1B17659  28.943  11.216   8.550
 5572POPC   C2B17660  28.890  11.283   8.250
 5572POPC   C3B17661  28.867  11.253   7.950
 5572POPC   C4B17662  28.917  11.223   7.650
 5573POPC   NC317663  18.246  39.266   9.450
 5573POPC   PO417664  18.252  39.260   9.150
 5573POPC   GL117665  18.278  39.227   8.850
 5573POPC   GL217666  18.412  39.358   8.850
 5573POPC   C1A17667  18.254  39.276   8.550
 5573POPC   D2A17668  18.284  39.251   8.250
 5573POPC   C3A17669  18.304  39.187   7.950
 5573POPC   C4A17670  18.279  39.192   7.650
 5573POPC   C1B17671  18.483  39.384   8.550
 5573POPC   C2B17672  18.501  39.376   8.250
 5573POPC   C3B17673  18.418  39.455   7.950
 5573POPC   C4B17674  18.488  39.360   7.650
 5574POPC   NC317675  40.817  22.979   9.450
 5574POPC   PO417676  40.751  22.907   9.150
 5574POPC   GL117677  40.770  22.969   8.850
 5574POPC   GL217678  40.677  22.924   8.850
 5574POPC   C1A17679  40.740  22.896   8.550
 5574POPC   D2A17680  40.759  22.913   8.250
 5574POPC   C3A17681  40.811  22.932   7.950
 5574POPC   C4A17682  40.802  22.897   7.650
 5574POPC   C1B17683  40.592  22.845   8.550
 5574POPC   C2B17684  40.507  22.876   8.250
 5574POPC   C3B17685  40.594  22.815   7.950
 5574POPC   C4B17686  40.599  22.807   7.650
 5575POPC   NC317687  40.811  40.051   9.450
 5575POPC   PO417688  40.757  39.983   9.150
 5575POPC   GL117689  40.761  40.007   8.850
 5575POPC   GL217690  40.790  39.884   8.850
 5575POPC   C1A17691  40.830  40.033   8.550
 5575POPC   D2A17692  40.825  40.055   8.250
 5575POPC   C3A17693  40.772  40.030   7.950
 5575POPC   C4A17694  40.760  40.003   7.650
 5575POPC   C1B17695  40.763  39.756   8.550
 5575POPC   C2B17696  40.696  39.771   8.250
 5575POPC   C3B17697  40.699  39.804   7.950
 5575POPC   C4B17698  40.741  39.761   7.650
 5576POPC   NC317699  36.868  30.659   9.450
 5576POPC   PO417700  36.892  30.666   9.150
 5576POPC   GL117701  36.913  30.695   8.850
 5576POPC   GL217702  36.849  30.569   8.850
 5576POPC   C1A17703  36.927  30.706   8.550
 5576POPC   D2A17704  36.886  30.674   8.250
 5576POPC   C3A17705  36.868  30.720   7.950
 5576POPC   C4A17706  36.918  30.655   7.650
 5576POPC   C1B17707  36.777  30.497   8.550
 5576POPC   C2B17708  36.810  30.441   8.250
 5576POPC   C3B17709  36.841  30.464   7.950
 5576POPC   C4B17710  36.795  30.475   7.650
 5577POPC   NC317711  44.625  24.477   9.450
 5577POPC   PO417712  44.640  24.476   9.150
 5577POPC   GL117713  44.622  24.521   8.850
 5577POPC   GL217714  44.756  24.397   8.850
 5577POPC   C1A17715  44.695  24.497   8.550
 5577POPC   D2A17716  44.712  24.521   8.250
 5577POPC   C3A17717  44.619  24.489   7.950
 5577POPC   C4A17718  44.617  24.510   7.650
 5577POPC   C1B17719  44.786  24.307   8.550
 5577POPC   C2B17720  44.803  24.247   8.250
 5577POPC   C3B17721  44.802  24.275   7.950
 5577POPC   C4B17722  44.737  24.310   7.650
 5578POPC   NC317723  33.808   2.750   9.450
 5578POPC   PO417724  33.810   2.750   9.150
 5578POPC   GL117725  33.835   2.756   8.850
 5578POPC   GL217726  33.891   2.679   8.850
 5578POPC   C1A17727  33.824   2.776   8.550
 5578POPC   D2A17728  33.823   2.725   8.250
 5578POPC   C3A17729  33.783   2.754   7.950
 5578POPC   C4A17730  33.834   2.719   7.650
 5578POPC   C1B17731  33.928   2.526   8.550
 5578POPC   C2B17732  33.973   2.561   8.250
 5578POPC   C3B17733  33.968   2.545   7.950
 5578POPC   C4B17734  33.912   2.617   7.650
 5579POPC   NC317735  36.944  19.079   9.450
 5579POPC   PO417736  36.884  19.031   9.150
 5579POPC   GL117737  36.923  19.030   8.850
 5579POPC   GL217738  36.791  19.108   8.850
 5579POPC   C1A17739  36.883  19.068   8.550
 5579POPC   D2A17740  36.876  19.092   8.250
 5579POPC   C3A17741  36.880  19.043   7.950
 5579POPC   C4A17742  36.893  19.079   7.650
 5579POPC   C1B17743  36.694  19.241   8.550
 5579POPC   C2B17744  36.749  19.279   8.250
 5579POPC   C3B17745  36.754  19.252   7.950
 5579POPC   C4B17746  36.695  19.271   7.650
 5580POPC   NC317747  26.842  26.033   9.450
 5580POPC   PO417748  26.826  26.011   9.150
 5580POPC   GL117749  26.835  26.056   8.850
 5580POPC   GL217750  26.768  26.192   8.850
 5580POPC   C1A17751  26.818  26.077   8.550
 5580POPC   D2A17752  26.859  26.071   8.250
 5580POPC   C3A17753  26.788  26.059   7.950
 5580POPC   C4A17754  26.854  26.077   7.650
 5580POPC   C1B17755  26.772  26.269   8.550
 5580POPC   C2B17756  26.854  26.260   8.250
 5580POPC   C3B17757  26.823  26.297   7.950
 5580POPC   C4B17758  26.832  26.340   7.650
 5581POPC   NC317759  27.601  19.853   9.450
 5581POPC   PO417760  27.567  19.869   9.150
 5581POPC   GL117761  27.604  19.879   8.850
 5581POPC   GL217762  27.729  19.920   8.850
 5581POPC   C1A17763  27.606  19.823   8.550
 5581POPC   D2A17764  27.577  19.835   8.250
 5581POPC   C3A17765  27.601  19.827   7.950
 5581POPC   C4A17766  27.633  19.797   7.650
 5581POPC   C1B17767  27.839  19.870   8.550
 5581POPC   C2B17768  27.829  19.872   8.250
 5581POPC   C3B17769  27.862  19.926   7.950
 5581POPC   C4B17770  27.872  19.910   7.650
 5582POPC   NC317771   2.000   7.389   9.450
 5582POPC   PO417772   1.940   7.400   9.150
 5582POPC   GL117773   2.020   7.372   8.850
 5582POPC   GL217774   2.073   7.546   8.850
 5582POPC   C1A17775   1.968   7.465   8.550
 5582POPC   D2A17776   2.039   7.411   8.250
 5582POPC   C3A17777   1.944   7.392   7.950
 5582POPC   C4A17778   1.968   7.458   7.650
 5582POPC   C1B17779   2.042   7.645   8.550
 5582POPC   C2B17780   2.023   7.694   8.250
 5582POPC   C3B17781   2.079   7.642   7.950
 5582POPC   C4B17782   2.117   7.683   7.650
 5583POPC   NC317783  29.931  22.929   9.450
 5583POPC   PO417784  29.937  22.950   9.150
 5583POPC   GL117785  29.915  22.944   8.850
 5583POPC   GL217786  30.044  22.882   8.850
 5583POPC   C1A17787  29.916  22.984   8.550
 5583POPC   D2A17788  29.969  22.987   8.250
 5583POPC   C3A17789  29.908  22.891   7.950
 5583POPC   C4A17790  29.961  22.967   7.650
 5583POPC   C1B17791  30.175  22.791   8.550
 5583POPC   C2B17792  30.133  22.775   8.250
 5583POPC   C3B17793  30.081  22.803   7.950
 5583POPC   C4B17794  30.167  22.826   7.650
 5584POPC   NC317795   3.572  38.412   9.450
 5584POPC   PO417796   3.581  38.433   9.150
 5584POPC   GL117797   3.493  38.440   8.850
 5584POPC   GL217798   3.670  38.444   8.850
 5584POPC   C1A17799   3.589  38.443   8.550
 5584POPC   D2A17800   3.505  38.466   8.250
 5584POPC   C3A17801   3.533  38.448   7.950
 5584POPC   C4A17802   3.532  38.447   7.650
 5584POPC   C1B17803   3.736  38.389   8.550
 5584POPC   C2B17804   3.726  38.306   8.250
 5584POPC   C3B17805   3.804  38.351   7.950
 5584POPC   C4B17806   3.735  38.314   7.650
 5585POPC   NC317807   6.604  32.994   9.450
 5585POPC   PO417808   6.675  32.995   9.150
 5585POPC   GL117809   6.664  33.032   8.850
 5585POPC   GL217810   6.549  33.101   8.850
 5585POPC   C1A17811   6.605  33.046   8.550
 5585POPC   D2A17812   6.658  32.988   8.250
 5585POPC   C3A17813   6.635  33.005   7.950
 5585POPC   C4A17814   6.652  33.013   7.650
 5585POPC   C1B17815   6.496  33.267   8.550
 5585POPC   C2B17816   6.558  33.265   8.250
 5585POPC   C3B17817   6.482  33.199   7.950
 5585POPC   C4B17818   6.569  33.251   7.650
 5586POPC   NC317819   2.009  39.964   9.450
 5586POPC   PO417820   2.035  39.991   9.150
 5586POPC   GL117821   2.005  39.985   8.850
 5586POPC   GL217822   1.916  39.894   8.850
 5586POPC   C1A17823   2.004  39.984   8.550
 5586POPC   D2A17824   2.002  40.050   8.250
 5586POPC   C3A17825   2.006  39.975   7.950
 5586POPC   C4A17826   1.955  39.959   7.650
 5586POPC   C1B17827   1.851  39.827   8.550
 5586POPC   C2B17828   1.840  39.742   8.250
 5586POPC   C3B17829   1.859  39.742   7.950
 5586POPC   C4B17830   1.890  39.730   7.650
 5587POPC   NC317831  40.738   4.340   9.450
 5587POPC   PO417832  40.822   4.316   9.150
 5587POPC   GL117833  40.779   4.353   8.850
 5587POPC   GL217834  40.683   4.281   8.850
 5587POPC   C1A17835  40.821   4.302   8.550
 5587POPC   D2A17836  40.747   4.358   8.250
 5587POPC   C3A17837  40.747   4.290   7.950
 5587POPC   C4A17838  40.736   4.303   7.650
 5587POPC   C1B17839  40.510   4.174   8.550
 5587POPC   C2B17840  40.541   4.249   8.250
 5587POPC   C3B17841  40.590   4.174   7.950
 5587POPC   C4B17842  40.600   4.254   7.650
 5588POPC   NC317843  28.415  41.518   9.450
 5588POPC   PO417844  28.338  41.510   9.150
 5588POPC   GL117845  28.324  41.548   8.850
 5588POPC   GL217846  28.319  41.460   8.850
 5588POPC   C1A17847  28.397  41.596   8.550
 5588POPC   D2A17848  28.381  41.545   8.250
 5588POPC   C3A17849  28.343  41.546   7.950
 5588POPC   C4A17850  28.342  41.562   7.650
 5588POPC   C1B17851  28.148  41.342   8.550
 5588POPC   C2B17852  28.194  41.398   8.250
 5588POPC   C3B17853  28.184  41.383   7.950
 5588POPC   C4B17854  28.236  41.381   7.650
 5589POPC   NC317855  29.140  10.528   9.450
 5589POPC   PO417856  29.132  10.483   9.150
 5589POPC   GL117857  29.117  10.522   8.850
 5589POPC   GL217858  28.985  10.486   8.850
 5589POPC   C1A17859  29.118  10.574   8.550
 5589POPC   D2A17860  29.096  10.515   8.250
 5589POPC   C3A17861  29.154  10.564   7.950
 5589POPC   C4A17862  29.111  10.554   7.650
 5589POPC   C1B17863  28.896  10.466   8.550
 5589POPC   C2B17864  28.878  10.385   8.250
 5589POPC   C3B17865  28.954  10.395   7.950
 5589POPC   C4B17866  28.934  10.464   7.650
 5590POPC   NC317867   9.701  19.017   9.450
 5590POPC   PO417868   9.711  19.019   9.150
 5590POPC   GL117869   9.767  19.104   8.850
 5590POPC   GL217870   9.689  19.201   8.850
 5590POPC   C1A17871   9.720  19.054   8.550
 5590POPC   D2A17872   9.718  19.031   8.250
 5590POPC   C3A17873   9.727  19.103   7.950
 5590POPC   C4A17874   9.736  19.086   7.650
 5590POPC   C1B17875   9.595  19.317   8.550
 5590POPC   C2B17876   9.590  19.288   8.250
 5590POPC   C3B17877   9.635  19.315   7.950
 5590POPC   C4B17878   9.610  19.316   7.650
 5591POPC   NC317879   5.104   6.627   9.450
 5591POPC   PO417880   5.110   6.652   9.150
 5591POPC   GL117881   5.092   6.620   8.850
 5591POPC   GL217882   5.108   6.539   8.850
 5591POPC   C1A17883   5.128   6.666   8.550
 5591POPC   D2A17884   5.129   6.595   8.250
 5591POPC   C3A17885   5.073   6.604   7.950
 5591POPC   C4A17886   5.046   6.670   7.650
 5591POPC   C1B17887   5.045   6.355   8.550
 5591POPC   C2B17888   5.000   6.369   8.250
 5591POPC   C3B17889   5.039   6.374   7.950
 5591POPC   C4B17890   5.054   6.362   7.650
 5592POPC   NC317891  36.079  33.848   9.450
 5592POPC   PO417892  36.117  33.812   9.150
 5592POPC   GL117893  36.097  33.809   8.850
 5592POPC   GL217894  36.061  33.908   8.850
 5592POPC   C1A17895  36.085  33.775   8.550
 5592POPC   D2A17896  36.102  33.773   8.250
 5592POPC   C3A17897  36.173  33.753   7.950
 5592POPC   C4A17898  36.128  33.750   7.650
 5592POPC   C1B17899  36.018  34.028   8.550
 5592POPC   C2B17900  36.029  33.991   8.250
 5592POPC   C3B17901  35.989  33.996   7.950
 5592POPC   C4B17902  35.998  34.077   7.650
 5593POPC   NC317903  38.415   4.313   9.450
 5593POPC   PO417904  38.412   4.313   9.150
 5593POPC   GL117905  38.414   4.337   8.850
 5593POPC   GL217906  38.482   4.244   8.850
 5593POPC   C1A17907  38.466   4.295   8.550
 5593POPC   D2A17908  38.455   4.271   8.250
 5593POPC   C3A17909  38.481   4.316   7.950
 5593POPC   C4A17910  38.409   4.325   7.650
 5593POPC   C1B17911  38.602   4.054   8.550
 5593POPC   C2B17912  38.535   4.106   8.250
 5593POPC   C3B17913  38.593   4.143   7.950
 5593POPC   C4B17914  38.557   4.095   7.650
 5594POPC   NC317915  24.449  19.859   9.450
 5594POPC   PO417916  24.531  19.873   9.150
 5594POPC   GL117917  24.536  19.883   8.850
 5594POPC   GL217918  24.348  19.732   8.850
 5594POPC   C1A17919  24.521  19.818   8.550
 5594POPC   D2A17920  24.489  19.809   8.250
 5594POPC   C3A17921  24.469  19.794   7.950
 5594POPC   C4A17922  24.446  19.863   7.650
 5594POPC   C1B17923  24.274  19.678   8.550
 5594POPC   C2B17924  24.287  19.678   8.250
 5594POPC   C3B17925  24.226  19.684   7.950
 5594POPC   C4B17926  24.236  19.692   7.650
 5595POPC   NC317927  16.735  29.945   9.450
 5595POPC   PO417928  16.748  29.969   9.150
 5595POPC   GL117929  16.766  29.952   8.850
 5595POPC   GL217930  16.822  29.906   8.850
 5595POPC   C1A17931  16.761  29.894   8.550
 5595POPC   D2A17932  16.712  29.929   8.250
 5595POPC   C3A17933  16.775  29.928   7.950
 5595POPC   C4A17934  16.695  29.907   7.650
 5595POPC   C1B17935  17.014  29.874   8.550
 5595POPC   C2B17936  17.003  29.887   8.250
 5595POPC   C3B17937  16.984  29.948   7.950
 5595POPC   C4B17938  17.028  29.924   7.650
 5596POPC   NC317939  32.288   2.812   9.450
 5596POPC   PO417940  32.256   2.764   9.150
 5596POPC   GL117941  32.199   2.727   8.850
 5596POPC   GL217942  32.130   2.647   8.850
 5596POPC   C1A17943  32.275   2.787   8.550
 5596POPC   D2A17944  32.269   2.758   8.250
 5596POPC   C3A17945  32.256   2.769   7.950
 5596POPC   C4A17946  32.297   2.770   7.650
 5596POPC   C1B17947  32.103   2.585   8.550
 5596POPC   C2B17948  32.071   2.529   8.250
 5596POPC   C3B17949  32.084   2.549   7.950
 5596POPC   C4B17950  32.102   2.594   7.650
 5597POPC   NC317951  17.523  41.563   9.450
 5597POPC   PO417952  17.526  41.509   9.150
 5597POPC   GL117953  17.471  41.547   8.850
 5597POPC   GL217954  17.341  41.544   8.850
 5597POPC   C1A17955  17.474  41.539   8.550
 5597POPC   D2A17956  17.548  41.558   8.250
 5597POPC   C3A17957  17.508  41.533   7.950
 5597POPC   C4A17958  17.509  41.512   7.650
 5597POPC   C1B17959  17.245  41.519   8.550
 5597POPC   C2B17960  17.218  41.515   8.250
 5597POPC   C3B17961  17.310  41.532   7.950
 5597POPC   C4B17962  17.250  41.478   7.650
 5598POPC   NC317963  13.592   8.984   9.450
 5598POPC   PO417964  13.593   8.931   9.150
 5598POPC   GL117965  13.654   9.002   8.850
 5598POPC   GL217966  13.722   9.000   8.850
 5598POPC   C1A17967  13.658   9.010   8.550
 5598POPC   D2A17968  13.589   8.938   8.250
 5598POPC   C3A17969  13.658   8.962   7.950
 5598POPC   C4A17970  13.656   8.950   7.650
 5598POPC   C1B17971  13.849   9.065   8.550
 5598POPC   C2B17972  13.911   9.054   8.250
 5598POPC   C3B17973  13.896   9.061   7.950
 5598POPC   C4B17974  13.850   9.064   7.650
 5599POPC   NC317975  41.560  17.480   9.450
 5599POPC   PO417976  41.591  17.520   9.150
 5599POPC   GL117977  41.581  17.468   8.850
 5599POPC   GL217978  41.429  17.572   8.850
 5599POPC   C1A17979  41.555  17.492   8.550
 5599POPC   D2A17980  41.602  17.531   8.250
 5599POPC   C3A17981  41.586  17.535   7.950
 5599POPC   C4A17982  41.586  17.477   7.650
 5599POPC   C1B17983  41.318  17.597   8.550
 5599POPC   C2B17984  41.350  17.535   8.250
 5599POPC   C3B17985  41.334  17.599   7.950
 5599POPC   C4B17986  41.323  17.585   7.650
 5600POPC   NC317987  11.251  25.253   9.450
 5600POPC   PO417988  11.343  25.278   9.150
 5600POPC   GL117989  11.339  25.223   8.850
 5600POPC   GL217990  11.428  25.255   8.850
 5600POPC   C1A17991  11.301  25.219   8.550
 5600POPC   D2A17992  11.298  25.269   8.250
 5600POPC   C3A17993  11.339  25.216   7.950
 5600POPC   C4A17994  11.296  25.268   7.650
 5600POPC   C1B17995  11.586  25.280   8.550
 5600POPC   C2B17996  11.516  25.365   8.250
 5600POPC   C3B17997  11.582  25.277   7.950
 5600POPC   C4B17998  11.517  25.354   7.650
 5601POPC   NC317999  42.295  22.188   9.450
 5601POPC   PO418000  42.356  22.182   9.150
 5601POPC   GL118001  42.319  22.137   8.850
 5601POPC   GL218002  42.186  22.173   8.850
 5601POPC   C1A18003  42.285  22.212   8.550
 5601POPC   D2A18004  42.286  22.192   8.250
 5601POPC   C3A18005  42.378  22.201   7.950
 5601POPC   C4A18006  42.325  22.161   7.650
 5601POPC   C1B18007  42.087  22.057   8.550
 5601POPC   C2B18008  42.102  22.136   8.250
 5601POPC   C3B18009  42.077  22.075   7.950
 5601POPC   C4B18010  42.054  22.085   7.650
 5602POPC   NC318011   2.032  21.350   9.450
 5602POPC   PO418012   1.963  21.364   9.150
 5602POPC   GL118013   2.030  21.355   8.850
 5602POPC   GL218014   1.980  21.484   8.850
 5602POPC   C1A18015   1.951  21.425   8.550
 5602POPC   D2A18016   2.027  21.373   8.250
 5602POPC   C3A18017   1.995  21.376   7.950
 5602POPC   C4A18018   2.011  21.393   7.650
 5602POPC   C1B18019   2.056  21.624   8.550
 5602POPC   C2B18020   2.028  21.624   8.250
 5602POPC   C3B18021   2.038  21.622   7.950
 5602POPC   C4B18022   2.009  21.602   7.650
 5603POPC   NC318023   2.755   3.583   9.450
 5603POPC   PO418024   2.742   3.509   9.150
 5603POPC   GL118025   2.784   3.585   8.850
 5603POPC   GL218026   2.803   3.635   8.850
 5603POPC   C1A18027   2.802   3.517   8.550
 5603POPC   D2A18028   2.774   3.522   8.250
 5603POPC   C3A18029   2.775   3.569   7.950
 5603POPC   C4A18030   2.778   3.523   7.650
 5603POPC   C1B18031   2.754   3.831   8.550
 5603POPC   C2B18032   2.744   3.764   8.250
 5603POPC   C3B18033   2.808   3.748   7.950
 5603POPC   C4B18034   2.771   3.749   7.650
 5604POPC   NC318035   5.128   4.367   9.450
 5604POPC   PO418036   5.116   4.351   9.150
 5604POPC   GL118037   5.045   4.342   8.850
 5604POPC   GL218038   4.947   4.379   8.850
 5604POPC   C1A18039   5.111   4.293   8.550
 5604POPC   D2A18040   5.126   4.335   8.250
 5604POPC   C3A18041   5.103   4.342   7.950
 5604POPC   C4A18042   5.104   4.306   7.650
 5604POPC   C1B18043   4.855   4.361   8.550
 5604POPC   C2B18044   4.872   4.370   8.250
 5604POPC   C3B18045   4.874   4.388   7.950
 5604POPC   C4B18046   4.810   4.392   7.650
 5605POPC   NC318047  41.529  25.289   9.450
 5605POPC   PO418048  41.563  25.222   9.150
 5605POPC   GL118049  41.546  25.286   8.850
 5605POPC   GL218050  41.682  25.217   8.850
 5605POPC   C1A18051  41.606  25.248   8.550
 5605POPC   D2A18052  41.594  25.304   8.250
 5605POPC   C3A18053  41.527  25.279   7.950
 5605POPC   C4A18054  41.523  25.281   7.650
 5605POPC   C1B18055  41.721  25.061   8.550
 5605POPC   C2B18056  41.729  25.063   8.250
 5605POPC   C3B18057  41.752  25.142   7.950
 5605POPC   C4B18058  41.753  25.138   7.650
 5606POPC   NC318059   7.407  24.522   9.450
 5606POPC   PO418060   7.375  24.455   9.150
 5606POPC   GL118061   7.445  24.508   8.850
 5606POPC   GL218062   7.289  24.583   8.850
 5606POPC   C1A18063   7.429  24.532   8.550
 5606POPC   D2A18064   7.441  24.448   8.250
 5606POPC   C3A18065   7.450  24.501   7.950
 5606POPC   C4A18066   7.467  24.511   7.650
 5606POPC   C1B18067   7.224  24.661   8.550
 5606POPC   C2B18068   7.246  24.633   8.250
 5606POPC   C3B18069   7.291  24.626   7.950
 5606POPC   C4B18070   7.260  24.644   7.650
 5607POPC   NC318071  21.432  19.871   9.450
 5607POPC   PO418072  21.396  19.884   9.150
 5607POPC   GL118073  21.350  19.805   8.850
 5607POPC   GL218074  21.493  19.982   8.850
 5607POPC   C1A18075  21.368  19.851   8.550
 5607POPC   D2A18076  21.349  19.864   8.250
 5607POPC   C3A18077  21.421  19.884   7.950
 5607POPC   C4A18078  21.411  19.811   7.650
 5607POPC   C1B18079  21.501  20.039   8.550
 5607POPC   C2B18080  21.502  20.064   8.250
 5607POPC   C3B18081  21.576  20.022   7.950
 5607POPC   C4B18082  21.534  19.995   7.650
 5608POPC   NC318083  30.653   8.173   9.450
 5608POPC   PO418084  30.703   8.179   9.150
 5608POPC   GL118085  30.669   8.207   8.850
 5608POPC   GL218086  30.588   8.147   8.850
 5608POPC   C1A18087  30.733   8.239   8.550
 5608POPC   D2A18088  30.664   8.228   8.250
 5608POPC   C3A18089  30.746   8.153   7.950
 5608POPC   C4A18090  30.711   8.170   7.650
 5608POPC   C1B18091  30.471   8.067   8.550
 5608POPC   C2B18092  30.458   8.038   8.250
 5608POPC   C3B18093  30.514   8.023   7.950
 5608POPC   C4B18094  30.459   8.000   7.650
 5609POPC   NC318095   9.722  20.658   9.450
 5609POPC   PO418096   9.706  20.645   9.150
 5609POPC   GL118097   9.747  20.627   8.850
 5609POPC   GL218098   9.883  20.633   8.850
 5609POPC   C1A18099   9.709  20.650   8.550
 5609POPC   D2A18100   9.750  20.650   8.250
 5609POPC   C3A18101   9.768  20.618   7.950
 5609POPC   C4A18102   9.737  20.659   7.650
 5609POPC   C1B18103   9.952  20.733   8.550
 5609POPC   C2B18104   9.981  20.699   8.250
 5609POPC   C3B18105  10.013  20.665   7.950
 5609POPC   C4B18106  10.027  20.663   7.650
 5610POPC   NC318107   7.372  39.984   9.450
 5610POPC   PO418108   7.437  39.959   9.150
 5610POPC   GL118109   7.460  40.045   8.850
 5610POPC   GL218110   7.332  40.142   8.850
 5610POPC   C1A18111   7.438  40.035   8.550
 5610POPC   D2A18112   7.429  39.992   8.250
 5610POPC   C3A18113   7.397  39.998   7.950
 5610POPC   C4A18114   7.460  40.021   7.650
 5610POPC   C1B18115   7.237  40.154   8.550
 5610POPC   C2B18116   7.264  40.216   8.250
 5610POPC   C3B18117   7.257  40.238   7.950
 5610POPC   C4B18118   7.214  40.179   7.650
 5611POPC   NC318119  14.382  37.717   9.450
 5611POPC   PO418120  14.411  37.673   9.150
 5611POPC   GL118121  14.430  37.723   8.850
 5611POPC   GL218122  14.489  37.769   8.850
 5611POPC   C1A18123  14.427  37.694   8.550
 5611POPC   D2A18124  14.356  37.683   8.250
 5611POPC   C3A18125  14.402  37.665   7.950
 5611POPC   C4A18126  14.367  37.691   7.650
 5611POPC   C1B18127  14.605  37.816   8.550
 5611POPC   C2B18128  14.596  37.815   8.250
 5611POPC   C3B18129  14.537  37.898   7.950
 5611POPC   C4B18130  14.561  37.897   7.650
 5612POPC   NC318131   1.223  27.615   9.450
 5612POPC   PO418132   1.184  27.621   9.150
 5612POPC   GL118133   1.214  27.613   8.850
 5612POPC   GL218134   1.261  27.448   8.850
 5612POPC   C1A18135   1.262  27.575   8.550
 5612POPC   D2A18136   1.225  27.608   8.250
 5612POPC   C3A18137   1.218  27.631   7.950
 5612POPC   C4A18138   1.201  27.588   7.650
 5612POPC   C1B18139   1.307  27.368   8.550
 5612POPC   C2B18140   1.224  27.386   8.250
 5612POPC   C3B18141   1.259  27.340   7.950
 5612POPC   C4B18142   1.263  27.383   7.650
 5613POPC   NC318143  29.103  12.124   9.450
 5613POPC   PO418144  29.147  12.090   9.150
 5613POPC   GL118145  29.190  12.087   8.850
 5613POPC   GL218146  29.203  12.202   8.850
 5613POPC   C1A18147  29.126  12.054   8.550
 5613POPC   D2A18148  29.151  12.079   8.250
 5613POPC   C3A18149  29.131  12.031   7.950
 5613POPC   C4A18150  29.132  12.038   7.650
 5613POPC   C1B18151  29.287  12.312   8.550
 5613POPC   C2B18152  29.270  12.275   8.250
 5613POPC   C3B18153  29.289  12.254   7.950
 5613POPC   C4B18154  29.274  12.260   7.650
 5614POPC   NC318155  16.736  43.116   9.450
 5614POPC   PO418156  16.749  43.102   9.150
 5614POPC   GL118157  16.765  43.071   8.850
 5614POPC   GL218158  16.673  43.012   8.850
 5614POPC   C1A18159  16.744  43.152   8.550
 5614POPC   D2A18160  16.769  43.157   8.250
 5614POPC   C3A18161  16.687  43.131   7.950
 5614POPC   C4A18162  16.777  43.132   7.650
 5614POPC   C1B18163  16.683  42.909   8.550
 5614POPC   C2B18164  16.682  42.837   8.250
 5614POPC   C3B18165  16.724  42.815   7.950
 5614POPC   C4B18166  16.643  42.855   7.650
 5615POPC   NC318167  12.804  23.731   9.450
 5615POPC   PO418168  12.815  23.705   9.150
 5615POPC   GL118169  12.864  23.731   8.850
 5615POPC   GL218170  12.739  23.753   8.850
 5615POPC   C1A18171  12.814  23.756   8.550
 5615POPC   D2A18172  12.892  23.666   8.250
 5615POPC   C3A18173  12.874  23.675   7.950
 5615POPC   C4A18174  12.819  23.703   7.650
 5615POPC   C1B18175  12.701  23.845   8.550
 5615POPC   C2B18176  12.621  23.889   8.250
 5615POPC   C3B18177  12.655  23.905   7.950
 5615POPC   C4B18178  12.679  23.825   7.650
 5616POPC   NC318179   4.318  27.630   9.450
 5616POPC   PO418180   4.286  27.634   9.150
 5616POPC   GL118181   4.337  27.631   8.850
 5616POPC   GL218182   4.271  27.716   8.850
 5616POPC   C1A18183   4.331  27.628   8.550
 5616POPC   D2A18184   4.278  27.628   8.250
 5616POPC   C3A18185   4.302  27.591   7.950
 5616POPC   C4A18186   4.366  27.618   7.650
 5616POPC   C1B18187   4.229  27.820   8.550
 5616POPC   C2B18188   4.225  27.837   8.250
 5616POPC   C3B18189   4.253  27.812   7.950
 5616POPC   C4B18190   4.236  27.836   7.650
 5617POPC   NC318191  10.504  18.333   9.450
 5617POPC   PO418192  10.487  18.290   9.150
 5617POPC   GL118193  10.517  18.238   8.850
 5617POPC   GL218194  10.449  18.233   8.850
 5617POPC   C1A18195  10.552  18.248   8.550
 5617POPC   D2A18196  10.503  18.315   8.250
 5617POPC   C3A18197  10.505  18.253   7.950
 5617POPC   C4A18198  10.538  18.276   7.650
 5617POPC   C1B18199  10.273  18.256   8.550
 5617POPC   C2B18200  10.255  18.219   8.250
 5617POPC   C3B18201  10.276  18.227   7.950
 5617POPC   C4B18202  10.331  18.231   7.650
 5618POPC   NC318203  26.074  17.513   9.450
 5618POPC   PO418204  26.062  17.469   9.150
 5618POPC   GL118205  26.081  17.549   8.850
 5618POPC   GL218206  26.062  17.364   8.850
 5618POPC   C1A18207  26.010  17.506   8.550
 5618POPC   D2A18208  26.035  17.505   8.250
 5618POPC   C3A18209  26.076  17.487   7.950
 5618POPC   C4A18210  26.058  17.542   7.650
 5618POPC   C1B18211  26.081  17.267   8.550
 5618POPC   C2B18212  26.020  17.245   8.250
 5618POPC   C3B18213  26.110  17.287   7.950
 5618POPC   C4B18214  26.110  17.231   7.650
 5619POPC   NC318215  29.148  44.632   9.450
 5619POPC   PO418216  29.177  44.635   9.150
 5619POPC   GL118217  29.107  44.663   8.850
 5619POPC   GL218218  29.123  44.780   8.850
 5619POPC   C1A18219  29.165  44.657   8.550
 5619POPC   D2A18220  29.154  44.619   8.250
 5619POPC   C3A18221  29.169  44.706   7.950
 5619POPC   C4A18222  29.112  44.663   7.650
 5619POPC   C1B18223  29.148  44.917   8.550
 5619POPC   C2B18224  29.126  44.879   8.250
 5619POPC   C3B18225  29.148  44.865   7.950
 5619POPC   C4B18226  29.114  44.877   7.650
 5620POPC   NC318227  29.101  15.936   9.450
 5620POPC   PO418228  29.110  16.004   9.150
 5620POPC   GL118229  29.158  16.004   8.850
 5620POPC   GL218230  29.083  15.861   8.850
 5620POPC   C1A18231  29.112  15.977   8.550
 5620POPC   D2A18232  29.160  15.922   8.250
 5620POPC   C3A18233  29.104  15.978   7.950
 5620POPC   C4A18234  29.133  15.996   7.650
 5620POPC   C1B18235  28.901  15.795   8.550
 5620POPC   C2B18236  28.951  15.876   8.250
 5620POPC   C3B18237  28.956  15.788   7.950
 5620POPC   C4B18238  28.895  15.827   7.650
 5621POPC   NC318239   8.162  43.904   9.450
 5621POPC   PO418240   8.229  43.860   9.150
 5621POPC   GL118241   8.228  43.909   8.850
 5621POPC   GL218242   8.269  43.947   8.850
 5621POPC   C1A18243   8.164  43.903   8.550
 5621POPC   D2A18244   8.207  43.879   8.250
 5621POPC   C3A18245   8.231  43.868   7.950
 5621POPC   C4A18246   8.232  43.879   7.650
 5621POPC   C1B18247   8.335  44.095   8.550
 5621POPC   C2B18248   8.298  44.095   8.250
 5621POPC   C3B18249   8.351  44.084   7.950
 5621POPC   C4B18250   8.307  44.135   7.650
 5622POPC   NC318251   7.450   4.297   9.450
 5622POPC   PO418252   7.392   4.292   9.150
 5622POPC   GL118253   7.400   4.311   8.850
 5622POPC   GL218254   7.453   4.434   8.850
 5622POPC   C1A18255   7.442   4.344   8.550
 5622POPC   D2A18256   7.384   4.332   8.250
 5622POPC   C3A18257   7.429   4.298   7.950
 5622POPC   C4A18258   7.443   4.309   7.650
 5622POPC   C1B18259   7.518   4.557   8.550
 5622POPC   C2B18260   7.477   4.557   8.250
 5622POPC   C3B18261   7.482   4.562   7.950
 5622POPC   C4B18262   7.460   4.603   7.650
 5623POPC   NC318263  22.983  32.200   9.450
 5623POPC   PO418264  22.923  32.216   9.150
 5623POPC   GL118265  22.895  32.235   8.850
 5623POPC   GL218266  22.886  32.363   8.850
 5623POPC   C1A18267  22.946  32.270   8.550
 5623POPC   D2A18268  22.899  32.267   8.250
 5623POPC   C3A18269  22.905  32.217   7.950
 5623POPC   C4A18270  22.929  32.220   7.650
 5623POPC   C1B18271  22.809  32.420   8.550
 5623POPC   C2B18272  22.799  32.437   8.250
 5623POPC   C3B18273  22.808  32.428   7.950
 5623POPC   C4B18274  22.776  32.464   7.650
 5624POPC   NC318275  44.685   2.780   9.450
 5624POPC   PO418276  44.660   2.758   9.150
 5624POPC   GL118277  44.641   2.792   8.850
 5624POPC   GL218278  44.590   2.927   8.850
 5624POPC   C1A18279  44.649   2.724   8.550
 5624POPC   D2A18280  44.687   2.723   8.250
 5624POPC   C3A18281  44.649   2.724   7.950
 5624POPC   C4A18282  44.636   2.766   7.650
 5624POPC   C1B18283  44.644   3.028   8.550
 5624POPC   C2B18284  44.654   3.034   8.250
 5624POPC   C3B18285  44.612   3.025   7.950
 5624POPC   C4B18286  44.619   3.011   7.650
 5625POPC   NC318287  38.496   2.780   9.450
 5625POPC   PO418288  38.442   2.762   9.150
 5625POPC   GL118289  38.479   2.777   8.850
 5625POPC   GL218290  38.342   2.666   8.850
 5625POPC   C1A18291  38.496   2.740   8.550
 5625POPC   D2A18292  38.468   2.737   8.250
 5625POPC   C3A18293  38.461   2.786   7.950
 5625POPC   C4A18294  38.427   2.770   7.650
 5625POPC   C1B18295  38.279   2.695   8.550
 5625POPC   C2B18296  38.190   2.610   8.250
 5625POPC   C3B18297  38.215   2.645   7.950
 5625POPC   C4B18298  38.202   2.614   7.650
 5626POPC   NC318299  32.208  22.113   9.450
 5626POPC   PO418300  32.289  22.200   9.150
 5626POPC   GL118301  32.296  22.200   8.850
 5626POPC   GL218302  32.252  22.323   8.850
 5626POPC   C1A18303  32.209  22.178   8.550
 5626POPC   D2A18304  32.278  22.154   8.250
 5626POPC   C3A18305  32.283  22.202   7.950
 5626POPC   C4A18306  32.200  22.121   7.650
 5626POPC   C1B18307  32.244  22.362   8.550
 5626POPC   C2B18308  32.241  22.427   8.250
 5626POPC   C3B18309  32.271  22.410   7.950
 5626POPC   C4B18310  32.254  22.365   7.650
 5627POPC   NC318311   8.986  36.099   9.450
 5627POPC   PO418312   8.975  36.131   9.150
 5627POPC   GL118313   8.951  36.088   8.850
 5627POPC   GL218314   8.889  36.224   8.850
 5627POPC   C1A18315   9.000  36.171   8.550
 5627POPC   D2A18316   8.970  36.155   8.250
 5627POPC   C3A18317   8.985  36.125   7.950
 5627POPC   C4A18318   9.002  36.081   7.650
 5627POPC   C1B18319   8.924  36.341   8.550
 5627POPC   C2B18320   8.877  36.404   8.250
 5627POPC   C3B18321   8.896  36.342   7.950
 5627POPC   C4B18322   8.878  36.393   7.650
 5628POPC   NC318323   7.439  11.334   9.450
 5628POPC   PO418324   7.442  11.271   9.150
 5628POPC   GL118325   7.405  11.253   8.850
 5628POPC   GL218326   7.444  11.452   8.850
 5628POPC   C1A18327   7.455  11.277   8.550
 5628POPC   D2A18328   7.409  11.307   8.250
 5628POPC   C3A18329   7.452  11.350   7.950
 5628POPC   C4A18330   7.378  11.253   7.650
 5628POPC   C1B18331   7.381  11.514   8.550
 5628POPC   C2B18332   7.395  11.542   8.250
 5628POPC   C3B18333   7.437  11.500   7.950
 5628POPC   C4B18334   7.357  11.582   7.650
 5629POPC   NC318335   5.123  31.480   9.450
 5629POPC   PO418336   5.056  31.488   9.150
 5629POPC   GL118337   5.123  31.434   8.850
 5629POPC   GL218338   5.183  31.544   8.850
 5629POPC   C1A18339   5.130  31.440   8.550
 5629POPC   D2A18340   5.066  31.509   8.250
 5629POPC   C3A18341   5.086  31.519   7.950
 5629POPC   C4A18342   5.136  31.511   7.650
 5629POPC   C1B18343   5.288  31.614   8.550
 5629POPC   C2B18344   5.299  31.596   8.250
 5629POPC   C3B18345   5.324  31.607   7.950
 5629POPC   C4B18346   5.352  31.574   7.650
 5630POPC   NC318347  40.044  40.821   9.450
 5630POPC   PO418348  40.047  40.795   9.150
 5630POPC   GL118349  40.056  40.786   8.850
 5630POPC   GL218350  40.159  40.781   8.850
 5630POPC   C1A18351  39.970  40.746   8.550
 5630POPC   D2A18352  40.012  40.741   8.250
 5630POPC   C3A18353  39.978  40.749   7.950
 5630POPC   C4A18354  39.990  40.739   7.650
 5630POPC   C1B18355  40.221  40.895   8.550
 5630POPC   C2B18356  40.265  40.881   8.250
 5630POPC   C3B18357  40.296  40.862   7.950
 5630POPC   C4B18358  40.233  40.849   7.650
 5631POPC   NC318359  34.624  19.852   9.450
 5631POPC   PO418360  34.585  19.802   9.150
 5631POPC   GL118361  34.539  19.790   8.850
 5631POPC   GL218362  34.552  19.944   8.850
 5631POPC   C1A18363  34.591  19.833   8.550
 5631POPC   D2A18364  34.527  19.866   8.250
 5631POPC   C3A18365  34.577  19.822   7.950
 5631POPC   C4A18366  34.568  19.827   7.650
 5631POPC   C1B18367  34.608  20.087   8.550
 5631POPC   C2B18368  34.593  20.096   8.250
 5631POPC   C3B18369  34.624  20.052   7.950
 5631POPC   C4B18370  34.599  20.042   7.650
 5632POPC   NC318371  12.855  15.996   9.450
 5632POPC   PO418372  12.810  15.977   9.150
 5632POPC   GL118373  12.822  15.967   8.850
 5632POPC   GL218374  12.990  16.032   8.850
 5632POPC   C1A18375  12.883  15.959   8.550
 5632POPC   D2A18376  12.827  15.998   8.250
 5632POPC   C3A18377  12.873  15.977   7.950
 5632POPC   C4A18378  12.807  15.975   7.650
 5632POPC   C1B18379  13.064  16.137   8.550
 5632POPC   C2B18380  13.061  16.121   8.250
 5632POPC   C3B18381  12.988  16.138   7.950
 5632POPC   C4B18382  13.021  16.087   7.650
 5633POPC   NC318383  39.193  22.153   9.450
 5633POPC   PO418384  39.254  22.147   9.150
 5633POPC   GL118385  39.267  22.135   8.850
 5633POPC   GL218386  39.183  22.019   8.850
 5633POPC   C1A18387  39.277  22.198   8.550
 5633POPC   D2A18388  39.216  22.158   8.250
 5633POPC   C3A18389  39.251  22.203   7.950
 5633POPC   C4A18390  39.193  22.130   7.650
 5633POPC   C1B18391  39.178  21.918   8.550
 5633POPC   C2B18392  39.088  21.898   8.250
 5633POPC   C3B18393  39.091  21.956   7.950
 5633POPC   C4B18394  39.103  21.901   7.650
 5634POPC   NC318395  25.216  43.841   9.450
 5634POPC   PO418396  25.261  43.925   9.150
 5634POPC   GL118397  25.222  43.848   8.850
 5634POPC   GL218398  25.326  43.785   8.850
 5634POPC   C1A18399  25.263  43.885   8.550
 5634POPC   D2A18400  25.302  43.914   8.250
 5634POPC   C3A18401  25.243  43.879   7.950
 5634POPC   C4A18402  25.254  43.838   7.650
 5634POPC   C1B18403  25.514  43.791   8.550
 5634POPC   C2B18404  25.532  43.734   8.250
 5634POPC   C3B18405  25.492  43.725   7.950
 5634POPC   C4B18406  25.499  43.812   7.650
 5635POPC   NC318407  12.109  31.451   9.450
 5635POPC   PO418408  12.091  31.459   9.150
 5635POPC   GL118409  12.073  31.437   8.850
 5635POPC   GL218410  12.149  31.608   8.850
 5635POPC   C1A18411  12.109  31.511   8.550
 5635POPC   D2A18412  12.037  31.514   8.250
 5635POPC   C3A18413  12.061  31.450   7.950
 5635POPC   C4A18414  12.063  31.492   7.650
 5635POPC   C1B18415  12.272  31.648   8.550
 5635POPC   C2B18416  12.185  31.643   8.250
 5635POPC   C3B18417  12.266  31.702   7.950
 5635POPC   C4B18418  12.277  31.661   7.650
 5636POPC   NC318419  43.104  40.797   9.450
 5636POPC   PO418420  43.084  40.738   9.150
 5636POPC   GL118421  43.090  40.826   8.850
 5636POPC   GL218422  43.045  40.758   8.850
 5636POPC   C1A18423  43.073  40.777   8.550
 5636POPC   D2A18424  43.105  40.806   8.250
 5636POPC   C3A18425  43.100  40.752   7.950
 5636POPC   C4A18426  43.062  40.831   7.650
 5636POPC   C1B18427  42.861  40.633   8.550
 5636POPC   C2B18428  42.923  40.643   8.250
 5636POPC   C3B18429  42.949  40.683   7.950
 5636POPC   C4B18430  42.899  40.634   7.650
 5637POPC   NC318431   1.986  42.296   9.450
 5637POPC   PO418432   2.034  42.289   9.150
 5637POPC   GL118433   1.979  42.379   8.850
 5637POPC   GL218434   2.098  42.356   8.850
 5637POPC   C1A18435   2.014  42.326   8.550
 5637POPC   D2A18436   1.970  42.381   8.250
 5637POPC   C3A18437   1.955  42.360   7.950
 5637POPC   C4A18438   1.968  42.343   7.650
 5637POPC   C1B18439   2.241  42.414   8.550
 5637POPC   C2B18440   2.222  42.397   8.250
 5637POPC   C3B18441   2.236  42.420   7.950
 5637POPC   C4B18442   2.240  42.404   7.650
 5638POPC   NC318443  44.679  23.669   9.450
 5638POPC   PO418444  44.699  23.687   9.150
 5638POPC   GL118445  44.688  23.718   8.850
 5638POPC   GL218446  44.609  23.559   8.850
 5638POPC   C1A18447  44.661  23.762   8.550
 5638POPC   D2A18448  44.669  23.668   8.250
 5638POPC   C3A18449  44.660  23.697   7.950
 5638POPC   C4A18450  44.694  23.760   7.650
 5638POPC   C1B18451  44.555  23.469   8.550
 5638POPC   C2B18452  44.552  23.521   8.250
 5638POPC   C3B18453  44.566  23.529   7.950
 5638POPC   C4B18454  44.588  23.482   7.650
 5639POPC   NC318455  31.451  12.048   9.450
 5639POPC   PO418456  31.516  12.055   9.150
 5639POPC   GL118457  31.453  12.075   8.850
 5639POPC   GL218458  31.378  12.069   8.850
 5639POPC   C1A18459  31.477  12.053   8.550
 5639POPC   D2A18460  31.433  12.080   8.250
 5639POPC   C3A18461  31.465  12.097   7.950
 5639POPC   C4A18462  31.484  12.094   7.650
 5639POPC   C1B18463  31.243  12.098   8.550
 5639POPC   C2B18464  31.263  12.071   8.250
 5639POPC   C3B18465  31.176  12.052   7.950
 5639POPC   C4B18466  31.178  12.078   7.650
 5640POPC   NC318467   0.454  15.170   9.450
 5640POPC   PO418468   0.464  15.204   9.150
 5640POPC   GL118469   0.476  15.185   8.850
 5640POPC   GL218470   0.300  15.155   8.850
 5640POPC   C1A18471   0.478  15.165   8.550
 5640POPC   D2A18472   0.440  15.130   8.250
 5640POPC   C3A18473   0.402  15.221   7.950
 5640POPC   C4A18474   0.468  15.190   7.650
 5640POPC   C1B18475   0.202  15.053   8.550
 5640POPC   C2B18476   0.239  15.126   8.250
 5640POPC   C3B18477   0.195  15.121   7.950
 5640POPC   C4B18478   0.172  15.040   7.650
 5641POPC   NC318479  40.019  34.535   9.450
 5641POPC   PO418480  39.977  34.537   9.150
 5641POPC   GL118481  39.974  34.604   8.850
 5641POPC   GL218482  40.036  34.718   8.850
 5641POPC   C1A18483  40.007  34.585   8.550
 5641POPC   D2A18484  39.959  34.527   8.250
 5641POPC   C3A18485  40.016  34.542   7.950
 5641POPC   C4A18486  40.033  34.586   7.650
 5641POPC   C1B18487  40.081  34.819   8.550
 5641POPC   C2B18488  40.091  34.803   8.250
 5641POPC   C3B18489  40.104  34.809   7.950
 5641POPC   C4B18490  40.080  34.803   7.650
 5642POPC   NC318491  31.491  34.543   9.450
 5642POPC   PO418492  31.475  34.599   9.150
 5642POPC   GL118493  31.427  34.605   8.850
 5642POPC   GL218494  31.601  34.650   8.850
 5642POPC   C1A18495  31.444  34.594   8.550
 5642POPC   D2A18496  31.508  34.528   8.250
 5642POPC   C3A18497  31.494  34.597   7.950
 5642POPC   C4A18498  31.425  34.539   7.650
 5642POPC   C1B18499  31.680  34.741   8.550
 5642POPC   C2B18500  31.685  34.722   8.250
 5642POPC   C3B18501  31.618  34.710   7.950
 5642POPC   C4B18502  31.639  34.787   7.650
 5643POPC   NC318503  42.318  10.559   9.450
 5643POPC   PO418504  42.333  10.490   9.150
 5643POPC   GL118505  42.336  10.571   8.850
 5643POPC   GL218506  42.309  10.658   8.850
 5643POPC   C1A18507  42.344  10.503   8.550
 5643POPC   D2A18508  42.369  10.541   8.250
 5643POPC   C3A18509  42.365  10.535   7.950
 5643POPC   C4A18510  42.360  10.484   7.650
 5643POPC   C1B18511  42.326  10.823   8.550
 5643POPC   C2B18512  42.355  10.804   8.250
 5643POPC   C3B18513  42.276  10.757   7.950
 5643POPC   C4B18514  42.266  10.817   7.650
 5644POPC   NC318515  33.029  22.144   9.450
 5644POPC   PO418516  33.061  22.136   9.150
 5644POPC   GL118517  33.001  22.150   8.850
 5644POPC   GL218518  33.171  22.201   8.850
 5644POPC   C1A18519  33.029  22.128   8.550
 5644POPC   D2A18520  33.036  22.182   8.250
 5644POPC   C3A18521  33.035  22.157   7.950
 5644POPC   C4A18522  33.072  22.117   7.650
 5644POPC   C1B18523  33.226  22.233   8.550
 5644POPC   C2B18524  33.263  22.228   8.250
 5644POPC   C3B18525  33.294  22.250   7.950
 5644POPC   C4B18526  33.275  22.262   7.650
 5645POPC   NC318527  43.155   8.974   9.450
 5645POPC   PO418528  43.131   8.933   9.150
 5645POPC   GL118529  43.114   8.979   8.850
 5645POPC   GL218530  43.184   8.926   8.850
 5645POPC   C1A18531  43.061   8.934   8.550
 5645POPC   D2A18532  43.070   8.928   8.250
 5645POPC   C3A18533  43.074   8.988   7.950
 5645POPC   C4A18534  43.133   8.953   7.650
 5645POPC   C1B18535  43.358   8.802   8.550
 5645POPC   C2B18536  43.329   8.787   8.250
 5645POPC   C3B18537  43.299   8.814   7.950
 5645POPC   C4B18538  43.340   8.856   7.650
 5646POPC   NC318539  26.812  22.965   9.450
 5646POPC   PO418540  26.817  22.914   9.150
 5646POPC   GL118541  26.780  22.913   8.850
 5646POPC   GL218542  26.889  23.035   8.850
 5646POPC   C1A18543  26.805  22.891   8.550
 5646POPC   D2A18544  26.779  22.951   8.250
 5646POPC   C3A18545  26.786  22.975   7.950
 5646POPC   C4A18546  26.771  22.934   7.650
 5646POPC   C1B18547  26.933  23.202   8.550
 5646POPC   C2B18548  26.886  23.171   8.250
 5646POPC   C3B18549  26.926  23.152   7.950
 5646POPC   C4B18550  26.911  23.187   7.650
 5647POPC   NC318551  27.609  26.830   9.450
 5647POPC   PO418552  27.590  26.837   9.150
 5647POPC   GL118553  27.637  26.813   8.850
 5647POPC   GL218554  27.750  26.774   8.850
 5647POPC   C1A18555  27.605  26.813   8.550
 5647POPC   D2A18556  27.561  26.801   8.250
 5647POPC   C3A18557  27.618  26.867   7.950
 5647POPC   C4A18558  27.584  26.822   7.650
 5647POPC   C1B18559  27.813  26.816   8.550
 5647POPC   C2B18560  27.842  26.780   8.250
 5647POPC   C3B18561  27.805  26.811   7.950
 5647POPC   C4B18562  27.803  26.811   7.650
 5648POPC   NC318563  28.417  43.907   9.450
 5648POPC   PO418564  28.404  43.908   9.150
 5648POPC   GL118565  28.366  43.887   8.850
 5648POPC   GL218566  28.264  43.841   8.850
 5648POPC   C1A18567  28.319  43.935   8.550
 5648POPC   D2A18568  28.341  43.871   8.250
 5648POPC   C3A18569  28.334  43.897   7.950
 5648POPC   C4A18570  28.393  43.919   7.650
 5648POPC   C1B18571  28.081  43.857   8.550
 5648POPC   C2B18572  28.100  43.774   8.250
 5648POPC   C3B18573  28.169  43.789   7.950
 5648POPC   C4B18574  28.156  43.783   7.650
 5649POPC   NC318575  28.364  31.468   9.450
 5649POPC   PO418576  28.357  31.495   9.150
 5649POPC   GL118577  28.361  31.459   8.850
 5649POPC   GL218578  28.504  31.506   8.850
 5649POPC   C1A18579  28.369  31.451   8.550
 5649POPC   D2A18580  28.329  31.447   8.250
 5649POPC   C3A18581  28.370  31.471   7.950
 5649POPC   C4A18582  28.320  31.489   7.650
 5649POPC   C1B18583  28.569  31.565   8.550
 5649POPC   C2B18584  28.647  31.556   8.250
 5649POPC   C3B18585  28.616  31.517   7.950
 5649POPC   C4B18586  28.643  31.496   7.650
 5650POPC   NC318587  16.744   1.203   9.450
 5650POPC   PO418588  16.735   1.205   9.150
 5650POPC   GL118589  16.735   1.220   8.850
 5650POPC   GL218590  16.658   1.145   8.850
 5650POPC   C1A18591  16.704   1.166   8.550
 5650POPC   D2A18592  16.753   1.221   8.250
 5650POPC   C3A18593  16.770   1.262   7.950
 5650POPC   C4A18594  16.734   1.218   7.650
 5650POPC   C1B18595  16.519   1.138   8.550
 5650POPC   C2B18596  16.545   1.092   8.250
 5650POPC   C3B18597  16.520   1.111   7.950
 5650POPC   C4B18598  16.478   1.119   7.650
 5651POPC   NC318599  11.322  19.845   9.450
 5651POPC   PO418600  11.292  19.828   9.150
 5651POPC   GL118601  11.280  19.865   8.850
 5651POPC   GL218602  11.405  19.677   8.850
 5651POPC   C1A18603  11.280  19.813   8.550
 5651POPC   D2A18604  11.266  19.812   8.250
 5651POPC   C3A18605  11.267  19.854   7.950
 5651POPC   C4A18606  11.330  19.852   7.650
 5651POPC   C1B18607  11.422  19.642   8.550
 5651POPC   C2B18608  11.413  19.606   8.250
 5651POPC   C3B18609  11.434  19.652   7.950
 5651POPC   C4B18610  11.397  19.633   7.650
 5652POPC   NC318611  19.011   4.342   9.450
 5652POPC   PO418612  19.098   4.303   9.150
 5652POPC   GL118613  19.056   4.323   8.850
 5652POPC   GL218614  18.963   4.271   8.850
 5652POPC   C1A18615  19.016   4.331   8.550
 5652POPC   D2A18616  19.080   4.320   8.250
 5652POPC   C3A18617  19.084   4.346   7.950
 5652POPC   C4A18618  19.051   4.332   7.650
 5652POPC   C1B18619  18.812   4.211   8.550
 5652POPC   C2B18620  18.834   4.268   8.250
 5652POPC   C3B18621  18.782   4.203   7.950
 5652POPC   C4B18622  18.845   4.218   7.650
 5653POPC   NC318623  41.548  22.966   9.450
 5653POPC   PO418624  41.603  22.950   9.150
 5653POPC   GL118625  41.564  22.893   8.850
 5653POPC   GL218626  41.694  23.047   8.850
 5653POPC   C1A18627  41.597  22.988   8.550
 5653POPC   D2A18628  41.605  22.891   8.250
 5653POPC   C3A18629  41.561  22.906   7.950
 5653POPC   C4A18630  41.578  22.970   7.650
 5653POPC   C1B18631  41.753  23.070   8.550
 5653POPC   C2B18632  41.789  23.085   8.250
 5653POPC   C3B18633  41.736  23.056   7.950
 5653POPC   C4B18634  41.748  23.106   7.650
 5654POPC   NC318635   3.532  12.860   9.450
 5654POPC   PO418636   3.554  12.847   9.150
 5654POPC   GL118637   3.507  12.882   8.850
 5654POPC   GL218638   3.486  12.926   8.850
 5654POPC   C1A18639   3.559  12.807   8.550
 5654POPC   D2A18640   3.549  12.860   8.250
 5654POPC   C3A18641   3.547  12.868   7.950
 5654POPC   C4A18642   3.531  12.817   7.650
 5654POPC   C1B18643   3.302  12.982   8.550
 5654POPC   C2B18644   3.294  13.027   8.250
 5654POPC   C3B18645   3.348  12.975   7.950
 5654POPC   C4B18646   3.288  13.037   7.650
 5655POPC   NC318647   0.455  26.795   9.450
 5655POPC   PO418648   0.409  26.859   9.150
 5655POPC   GL118649   0.414  26.806   8.850
 5655POPC   GL218650   0.301  26.734   8.850
 5655POPC   C1A18651   0.397  26.855   8.550
 5655POPC   D2A18652   0.479  26.859   8.250
 5655POPC   C3A18653   0.451  26.825   7.950
 5655POPC   C4A18654   0.443  26.767   7.650
 5655POPC   C1B18655   0.252  26.642   8.550
 5655POPC   C2B18656   0.211  26.659   8.250
 5655POPC   C3B18657   0.257  26.702   7.950
 5655POPC   C4B18658   0.248  26.691   7.650
 5656POPC   NC318659  20.650  43.847   9.450
 5656POPC   PO418660  20.638  43.915   9.150
 5656POPC   GL118661  20.636  43.892   8.850
 5656POPC   GL218662  20.474  43.846   8.850
 5656POPC   C1A18663  20.609  43.929   8.550
 5656POPC   D2A18664  20.653  43.877   8.250
 5656POPC   C3A18665  20.637  43.910   7.950
 5656POPC   C4A18666  20.594  43.934   7.650
 5656POPC   C1B18667  20.342  43.831   8.550
 5656POPC   C2B18668  20.366  43.842   8.250
 5656POPC   C3B18669  20.357  43.830   7.950
 5656POPC   C4B18670  20.329  43.808   7.650
 5657POPC   NC318671  42.374  43.097   9.450
 5657POPC   PO418672  42.328  43.089   9.150
 5657POPC   GL118673  42.320  43.127   8.850
 5657POPC   GL218674  42.269  43.134   8.850
 5657POPC   C1A18675  42.343  43.153   8.550
 5657POPC   D2A18676  42.363  43.072   8.250
 5657POPC   C3A18677  42.329  43.062   7.950
 5657POPC   C4A18678  42.325  43.155   7.650
 5657POPC   C1B18679  42.164  43.223   8.550
 5657POPC   C2B18680  42.166  43.287   8.250
 5657POPC   C3B18681  42.087  43.285   7.950
 5657POPC   C4B18682  42.178  43.267   7.650
 5658POPC   NC318683  22.892  29.142   9.450
 5658POPC   PO418684  22.957  29.155   9.150
 5658POPC   GL118685  22.946  29.127   8.850
 5658POPC   GL218686  22.842  29.150   8.850
 5658POPC   C1A18687  22.959  29.191   8.550
 5658POPC   D2A18688  22.927  29.132   8.250
 5658POPC   C3A18689  22.952  29.150   7.950
 5658POPC   C4A18690  22.921  29.143   7.650
 5658POPC   C1B18691  22.667  29.243   8.550
 5658POPC   C2B18692  22.708  29.246   8.250
 5658POPC   C3B18693  22.718  29.201   7.950
 5658POPC   C4B18694  22.690  29.279   7.650
 5659POPC   NC318695   6.607  42.326   9.450
 5659POPC   PO418696   6.616  42.299   9.150
 5659POPC   GL118697   6.676  42.362   8.850
 5659POPC   GL218698   6.758  42.450   8.850
 5659POPC   C1A18699   6.609  42.354   8.550
 5659POPC   D2A18700   6.646  42.341   8.250
 5659POPC   C3A18701   6.634  42.327   7.950
 5659POPC   C4A18702   6.689  42.304   7.650
 5659POPC   C1B18703   6.793  42.533   8.550
 5659POPC   C2B18704   6.772  42.534   8.250
 5659POPC   C3B18705   6.792  42.475   7.950
 5659POPC   C4B18706   6.864  42.542   7.650
 5660POPC   NC318707  13.653  22.928   9.450
 5660POPC   PO418708  13.583  22.936   9.150
 5660POPC   GL118709  13.630  22.889   8.850
 5660POPC   GL218710  13.512  22.844   8.850
 5660POPC   C1A18711  13.607  22.914   8.550
 5660POPC   D2A18712  13.580  22.894   8.250
 5660POPC   C3A18713  13.616  22.907   7.950
 5660POPC   C4A18714  13.678  22.959   7.650
 5660POPC   C1B18715  13.457  22.803   8.550
 5660POPC   C2B18716  13.360  22.829   8.250
 5660POPC   C3B18717  13.400  22.837   7.950
 5660POPC   C4B18718  13.362  22.799   7.650
 5661POPC   NC318719  28.417  19.805   9.450
 5661POPC   PO418720  28.412  19.850   9.150
 5661POPC   GL118721  28.351  19.844   8.850
 5661POPC   GL218722  28.322  19.968   8.850
 5661POPC   C1A18723  28.335  19.865   8.550
 5661POPC   D2A18724  28.335  19.878   8.250
 5661POPC   C3A18725  28.356  19.876   7.950
 5661POPC   C4A18726  28.320  19.876   7.650
 5661POPC   C1B18727  28.188  20.071   8.550
 5661POPC   C2B18728  28.184  20.002   8.250
 5661POPC   C3B18729  28.257  20.053   7.950
 5661POPC   C4B18730  28.229  20.021   7.650
 5662POPC   NC318731  40.047  20.578   9.450
 5662POPC   PO418732  40.009  20.619   9.150
 5662POPC   GL118733  39.978  20.569   8.850
 5662POPC   GL218734  39.923  20.539   8.850
 5662POPC   C1A18735  39.982  20.656   8.550
 5662POPC   D2A18736  39.985  20.627   8.250
 5662POPC   C3A18737  39.998  20.628   7.950
 5662POPC   C4A18738  40.010  20.617   7.650
 5662POPC   C1B18739  39.820  20.445   8.550
 5662POPC   C2B18740  39.790  20.501   8.250
 5662POPC   C3B18741  39.785  20.516   7.950
 5662POPC   C4B18742  39.754  20.483   7.650
 5663POPC   NC318743  19.021  15.197   9.450
 5663POPC   PO418744  19.061  15.175   9.150
 5663POPC   GL118745  19.103  15.228   8.850
 5663POPC   GL218746  19.051  15.326   8.850
 5663POPC   C1A18747  19.040  15.200   8.550
 5663POPC   D2A18748  19.022  15.145   8.250
 5663POPC   C3A18749  19.033  15.131   7.950
 5663POPC   C4A18750  19.094  15.216   7.650
 5663POPC   C1B18751  19.072  15.412   8.550
 5663POPC   C2B18752  19.069  15.459   8.250
 5663POPC   C3B18753  19.092  15.418   7.950
 5663POPC   C4B18754  19.062  15.436   7.650
 5664POPC   NC318755  23.746  22.208   9.450
 5664POPC   PO418756  23.670  22.176   9.150
 5664POPC   GL118757  23.733  22.149   8.850
 5664POPC   GL218758  23.798  22.204   8.850
 5664POPC   C1A18759  23.708  22.164   8.550
 5664POPC   D2A18760  23.713  22.172   8.250
 5664POPC   C3A18761  23.752  22.166   7.950
 5664POPC   C4A18762  23.721  22.137   7.650
 5664POPC   C1B18763  23.871  22.291   8.550
 5664POPC   C2B18764  23.949  22.288   8.250
 5664POPC   C3B18765  23.957  22.322   7.950
 5664POPC   C4B18766  23.886  22.270   7.650
 5665POPC   NC318767  44.643  43.076   9.450
 5665POPC   PO418768  44.701  43.158   9.150
 5665POPC   GL118769  44.684  43.120   8.850
 5665POPC   GL218770  44.675  43.006   8.850
 5665POPC   C1A18771  44.626  43.076   8.550
 5665POPC   D2A18772  44.677  43.101   8.250
 5665POPC   C3A18773  44.710  43.125   7.950
 5665POPC   C4A18774  44.684  43.072   7.650
 5665POPC   C1B18775  44.668  42.871   8.550
 5665POPC   C2B18776  44.695  42.880   8.250
 5665POPC   C3B18777  44.690  42.842   7.950
 5665POPC   C4B18778  44.616  42.822   7.650
 5666POPC   NC318779  33.764  36.903   9.450
 5666POPC   PO418780  33.771  36.875   9.150
 5666POPC   GL118781  33.814  36.905   8.850
 5666POPC   GL218782  33.686  36.832   8.850
 5666POPC   C1A18783  33.806  36.944   8.550
 5666POPC   D2A18784  33.751  36.927   8.250
 5666POPC   C3A18785  33.828  36.867   7.950
 5666POPC   C4A18786  33.840  36.888   7.650
 5666POPC   C1B18787  33.680  36.756   8.550
 5666POPC   C2B18788  33.644  36.730   8.250
 5666POPC   C3B18789  33.638  36.753   7.950
 5666POPC   C4B18790  33.614  36.705   7.650
 5667POPC   NC318791  15.177  43.895   9.450
 5667POPC   PO418792  15.129  43.933   9.150
 5667POPC   GL118793  15.223  43.862   8.850
 5667POPC   GL218794  15.064  43.745   8.850
 5667POPC   C1A18795  15.197  43.903   8.550
 5667POPC   D2A18796  15.150  43.855   8.250
 5667POPC   C3A18797  15.160  43.898   7.950
 5667POPC   C4A18798  15.155  43.866   7.650
 5667POPC   C1B18799  15.039  43.651   8.550
 5667POPC   C2B18800  15.086  43.714   8.250
 5667POPC   C3B18801  14.996  43.639   7.950
 5667POPC   C4B18802  15.013  43.662   7.650
 5668POPC   NC318803  17.464   4.353   9.450
 5668POPC   PO418804  17.466   4.296   9.150
 5668POPC   GL118805  17.512   4.317   8.850
 5668POPC   GL218806  17.341   4.289   8.850
 5668POPC   C1A18807  17.535   4.295   8.550
 5668POPC   D2A18808  17.527   4.321   8.250
 5668POPC   C3A18809  17.511   4.312   7.950
 5668POPC   C4A18810  17.540   4.332   7.650
 5668POPC   C1B18811  17.261   4.282   8.550
 5668POPC   C2B18812  17.306   4.235   8.250
 5668POPC   C3B18813  17.279   4.275   7.950
 5668POPC   C4B18814  17.271   4.229   7.650
 5669POPC   NC318815  30.689  40.816   9.450
 5669POPC   PO418816  30.711  40.814   9.150
 5669POPC   GL118817  30.736  40.816   8.850
 5669POPC   GL218818  30.660  40.688   8.850
 5669POPC   C1A18819  30.723  40.787   8.550
 5669POPC   D2A18820  30.684  40.814   8.250
 5669POPC   C3A18821  30.690  40.816   7.950
 5669POPC   C4A18822  30.744  40.803   7.650
 5669POPC   C1B18823  30.614  40.502   8.550
 5669POPC   C2B18824  30.589  40.544   8.250
 5669POPC   C3B18825  30.615  40.545   7.950
 5669POPC   C4B18826  30.650  40.595   7.650
 5670POPC   NC318827  42.365   8.969   9.450
 5670POPC   PO418828  42.341   8.984   9.150
 5670POPC   GL118829  42.335   8.935   8.850
 5670POPC   GL218830  42.340   8.818   8.850
 5670POPC   C1A18831  42.317   9.002   8.550
 5670POPC   D2A18832  42.368   8.924   8.250
 5670POPC   C3A18833  42.345   9.003   7.950
 5670POPC   C4A18834  42.366   8.962   7.650
 5670POPC   C1B18835  42.231   8.691   8.550
 5670POPC   C2B18836  42.283   8.694   8.250
 5670POPC   C3B18837  42.278   8.718   7.950
 5670POPC   C4B18838  42.317   8.712   7.650
 5671POPC   NC318839  36.098  25.305   9.450
 5671POPC   PO418840  36.144  25.271   9.150
 5671POPC   GL118841  36.078  25.274   8.850
 5671POPC   GL218842  36.050  25.132   8.850
 5671POPC   C1A18843  36.080  25.238   8.550
 5671POPC   D2A18844  36.097  25.244   8.250
 5671POPC   C3A18845  36.097  25.294   7.950
 5671POPC   C4A18846  36.115  25.289   7.650
 5671POPC   C1B18847  35.922  25.083   8.550
 5671POPC   C2B18848  35.965  25.045   8.250
 5671POPC   C3B18849  35.957  25.082   7.950
 5671POPC   C4B18850  36.010  25.042   7.650
 5672POPC   NC318851   7.471  30.656   9.450
 5672POPC   PO418852   7.389  30.676   9.150
 5672POPC   GL118853   7.393  30.708   8.850
 5672POPC   GL218854   7.402  30.612   8.850
 5672POPC   C1A18855   7.450  30.673   8.550
 5672POPC   D2A18856   7.443  30.694   8.250
 5672POPC   C3A18857   7.429  30.659   7.950
 5672POPC   C4A18858   7.459  30.692   7.650
 5672POPC   C1B18859   7.421  30.404   8.550
 5672POPC   C2B18860   7.432  30.424   8.250
 5672POPC   C3B18861   7.407  30.452   7.950
 5672POPC   C4B18862   7.410  30.492   7.650
 5673POPC   NC318863   3.531  26.018   9.450
 5673POPC   PO418864   3.589  26.083   9.150
 5673POPC   GL118865   3.510  26.010   8.850
 5673POPC   GL218866   3.435  26.009   8.850
 5673POPC   C1A18867   3.527  26.039   8.550
 5673POPC   D2A18868   3.523  26.066   8.250
 5673POPC   C3A18869   3.548  26.014   7.950
 5673POPC   C4A18870   3.507  26.046   7.650
 5673POPC   C1B18871   3.389  25.927   8.550
 5673POPC   C2B18872   3.382  25.855   8.250
 5673POPC   C3B18873   3.314  25.932   7.950
 5673POPC   C4B18874   3.340  25.850   7.650
 5674POPC   NC318875  22.954  36.865   9.450
 5674POPC   PO418876  22.961  36.938   9.150
 5674POPC   GL118877  22.949  36.908   8.850
 5674POPC   GL218878  22.941  36.792   8.850
 5674POPC   C1A18879  22.974  36.868   8.550
 5674POPC   D2A18880  22.945  36.885   8.250
 5674POPC   C3A18881  22.973  36.874   7.950
 5674POPC   C4A18882  22.966  36.867   7.650
 5674POPC   C1B18883  22.872  36.624   8.550
 5674POPC   C2B18884  22.891  36.629   8.250
 5674POPC   C3B18885  22.906  36.669   7.950
 5674POPC   C4B18886  22.933  36.655   7.650
 5675POPC   NC318887  36.081  22.183   9.450
 5675POPC   PO418888  36.110  22.212   9.150
 5675POPC   GL118889  36.127  22.183   8.850
 5675POPC   GL218890  36.275  22.104   8.850
 5675POPC   C1A18891  36.121  22.196   8.550
 5675POPC   D2A18892  36.146  22.203   8.250
 5675POPC   C3A18893  36.165  22.203   7.950
 5675POPC   C4A18894  36.173  22.144   7.650
 5675POPC   C1B18895  36.413  22.083   8.550
 5675POPC   C2B18896  36.328  22.088   8.250
 5675POPC   C3B18897  36.343  22.128   7.950
 5675POPC   C4B18898  36.370  22.135   7.650
 5676POPC   NC318899  43.120   5.053   9.450
 5676POPC   PO418900  43.130   5.064   9.150
 5676POPC   GL118901  43.066   5.101   8.850
 5676POPC   GL218902  43.013   5.107   8.850
 5676POPC   C1A18903  43.103   5.125   8.550
 5676POPC   D2A18904  43.086   5.122   8.250
 5676POPC   C3A18905  43.083   5.087   7.950
 5676POPC   C4A18906  43.067   5.123   7.650
 5676POPC   C1B18907  42.872   5.153   8.550
 5676POPC   C2B18908  42.885   5.162   8.250
 5676POPC   C3B18909  42.905   5.094   7.950
 5676POPC   C4B18910  42.903   5.098   7.650
 5677POPC   NC318911  43.933  26.054   9.450
 5677POPC   PO418912  43.841  26.070   9.150
 5677POPC   GL118913  43.917  26.071   8.850
 5677POPC   GL218914  43.962  25.926   8.850
 5677POPC   C1A18915  43.836  26.042   8.550
 5677POPC   D2A18916  43.866  26.004   8.250
 5677POPC   C3A18917  43.925  26.038   7.950
 5677POPC   C4A18918  43.926  26.002   7.650
 5677POPC   C1B18919  44.072  25.841   8.550
 5677POPC   C2B18920  44.041  25.812   8.250
 5677POPC   C3B18921  44.041  25.858   7.950
 5677POPC   C4B18922  44.071  25.884   7.650
 5678POPC   NC318923   7.445  43.124   9.450
 5678POPC   PO418924   7.449  43.114   9.150
 5678POPC   GL118925   7.429  43.109   8.850
 5678POPC   GL218926   7.469  43.268   8.850
 5678POPC   C1A18927   7.379  43.094   8.550
 5678POPC   D2A18928   7.406  43.098   8.250
 5678POPC   C3A18929   7.432  43.090   7.950
 5678POPC   C4A18930   7.419  43.078   7.650
 5678POPC   C1B18931   7.456  43.341   8.550
 5678POPC   C2B18932   7.542  43.394   8.250
 5678POPC   C3B18933   7.541  43.308   7.950
 5678POPC   C4B18934   7.454  43.391   7.650
 5679POPC   NC318935  22.950  22.166   9.450
 5679POPC   PO418936  22.957  22.126   9.150
 5679POPC   GL118937  22.965  22.170   8.850
 5679POPC   GL218938  22.862  22.076   8.850
 5679POPC   C1A18939  22.960  22.163   8.550
 5679POPC   D2A18940  22.936  22.157   8.250
 5679POPC   C3A18941  22.900  22.180   7.950
 5679POPC   C4A18942  22.977  22.132   7.650
 5679POPC   C1B18943  22.857  21.914   8.550
 5679POPC   C2B18944  22.869  21.963   8.250
 5679POPC   C3B18945  22.857  21.877   7.950
 5679POPC   C4B18946  22.874  21.889   7.650
 5680POPC   NC318947  20.605  19.021   9.450
 5680POPC   PO418948  20.660  19.088   9.150
 5680POPC   GL118949  20.634  19.098   8.850
 5680POPC   GL218950  20.610  18.904   8.850
 5680POPC   C1A18951  20.612  19.104   8.550
 5680POPC   D2A18952  20.567  19.059   8.250
 5680POPC   C3A18953  20.620  19.082   7.950
 5680POPC   C4A18954  20.599  19.014   7.650
 5680POPC   C1B18955  20.639  18.803   8.550
 5680POPC   C2B18956  20.591  18.809   8.250
 5680POPC   C3B18957  20.574  18.804   7.950
 5680POPC   C4B18958  20.589  18.786   7.650
 5681POPC   NC318959  21.434  23.701   9.450
 5681POPC   PO418960  21.425  23.669   9.150
 5681POPC   GL118961  21.400  23.694   8.850
 5681POPC   GL218962  21.273  23.799   8.850
 5681POPC   C1A18963  21.339  23.744   8.550
 5681POPC   D2A18964  21.367  23.671   8.250
 5681POPC   C3A18965  21.352  23.754   7.950
 5681POPC   C4A18966  21.347  23.664   7.650
 5681POPC   C1B18967  21.215  23.946   8.550
 5681POPC   C2B18968  21.276  23.870   8.250
 5681POPC   C3B18969  21.237  23.865   7.950
 5681POPC   C4B18970  21.241  23.910   7.650
 5682POPC   NC318971   5.096  41.516   9.450
 5682POPC   PO418972   5.079  41.564   9.150
 5682POPC   GL118973   5.077  41.582   8.850
 5682POPC   GL218974   5.001  41.591   8.850
 5682POPC   C1A18975   5.066  41.569   8.550
 5682POPC   D2A18976   5.123  41.572   8.250
 5682POPC   C3A18977   5.114  41.591   7.950
 5682POPC   C4A18978   5.062  41.591   7.650
 5682POPC   C1B18979   4.889  41.568   8.550
 5682POPC   C2B18980   4.856  41.563   8.250
 5682POPC   C3B18981   4.861  41.531   7.950
 5682POPC   C4B18982   4.839  41.504   7.650
 5683POPC   NC318983  30.669  25.252   9.450
 5683POPC   PO418984  30.681  25.304   9.150
 5683POPC   GL118985  30.712  25.260   8.850
 5683POPC   GL218986  30.660  25.367   8.850
 5683POPC   C1A18987  30.718  25.231   8.550
 5683POPC   D2A18988  30.699  25.242   8.250
 5683POPC   C3A18989  30.685  25.286   7.950
 5683POPC   C4A18990  30.689  25.302   7.650
 5683POPC   C1B18991  30.657  25.519   8.550
 5683POPC   C2B18992  30.662  25.525   8.250
 5683POPC   C3B18993  30.596  25.534   7.950
 5683POPC   C4B18994  30.628  25.465   7.650
 5684POPC   NC318995  17.510   9.770   9.450
 5684POPC   PO418996  17.473   9.712   9.150
 5684POPC   GL118997  17.537   9.773   8.850
 5684POPC   GL218998  17.380   9.799   8.850
 5684POPC   C1A18999  17.522   9.789   8.550
 5684POPC   D2A19000  17.457   9.754   8.250
 5684POPC   C3A19001  17.478   9.716   7.950
 5684POPC   C4A19002  17.480   9.771   7.650
 5684POPC   C1B19003  17.273   9.864   8.550
 5684POPC   C2B19004  17.225   9.874   8.250
 5684POPC   C3B19005  17.312   9.868   7.950
 5684POPC   C4B19006  17.307   9.790   7.650
 5685POPC   NC319007  33.035  41.574   9.450
 5685POPC   PO419008  32.980  41.525   9.150
 5685POPC   GL119009  33.063  41.582   8.850
 5685POPC   GL219010  33.134  41.595   8.850
 5685POPC   C1A19011  32.979  41.602   8.550
 5685POPC   D2A19012  33.013  41.532   8.250
 5685POPC   C3A19013  33.074  41.542   7.950
 5685POPC   C4A19014  33.041  41.598   7.650
 5685POPC   C1B19015  33.249  41.676   8.550
 5685POPC   C2B19016  33.296  41.622   8.250
 5685POPC   C3B19017  33.280  41.658   7.950
 5685POPC   C4B19018  33.271  41.648   7.650
 5686POPC   NC319019  22.158  33.012   9.450
 5686POPC   PO419020  22.199  33.047   9.150
 5686POPC   GL119021  22.126  33.043   8.850
 5686POPC   GL219022  22.144  32.886   8.850
 5686POPC   C1A19023  22.202  33.017   8.550
 5686POPC   D2A19024  22.155  33.028   8.250
 5686POPC   C3A19025  22.167  33.031   7.950
 5686POPC   C4A19026  22.209  33.042   7.650
 5686POPC   C1B19027  22.001  32.831   8.550
 5686POPC   C2B19028  22.053  32.853   8.250
 5686POPC   C3B19029  22.059  32.837   7.950
 5686POPC   C4B19030  22.042  32.799   7.650
 5687POPC   NC319031  29.903  20.598   9.450
 5687POPC   PO419032  29.955  20.594   9.150
 5687POPC   GL119033  29.888  20.649   8.850
 5687POPC   GL219034  30.032  20.633   8.850
 5687POPC   C1A19035  29.969  20.607   8.550
 5687POPC   D2A19036  29.957  20.575   8.250
 5687POPC   C3A19037  29.883  20.633   7.950
 5687POPC   C4A19038  29.873  20.609   7.650
 5687POPC   C1B19039  30.163  20.683   8.550
 5687POPC   C2B19040  30.163  20.702   8.250
 5687POPC   C3B19041  30.148  20.702   7.950
 5687POPC   C4B19042  30.183  20.682   7.650
 5688POPC   NC319043  20.604  28.391   9.450
 5688POPC   PO419044  20.570  28.397   9.150
 5688POPC   GL119045  20.649  28.406   8.850
 5688POPC   GL219046  20.547  28.314   8.850
 5688POPC   C1A19047  20.613  28.344   8.550
 5688POPC   D2A19048  20.573  28.337   8.250
 5688POPC   C3A19049  20.561  28.350   7.950
 5688POPC   C4A19050  20.579  28.403   7.650
 5688POPC   C1B19051  20.375  28.249   8.550
 5688POPC   C2B19052  20.391  28.238   8.250
 5688POPC   C3B19053  20.407  28.170   7.950
 5688POPC   C4B19054  20.401  28.166   7.650
 5689POPC   NC319055   9.774  22.143   9.450
 5689POPC   PO419056   9.794  22.192   9.150
 5689POPC   GL119057   9.751  22.176   8.850
 5689POPC   GL219058   9.781  22.042   8.850
 5689POPC   C1A19059   9.753  22.196   8.550
 5689POPC   D2A19060   9.773  22.188   8.250
 5689POPC   C3A19061   9.700  22.163   7.950
 5689POPC   C4A19062   9.729  22.130   7.650
 5689POPC   C1B19063   9.919  21.995   8.550
 5689POPC   C2B19064   9.879  21.949   8.250
 5689POPC   C3B19065   9.839  21.926   7.950
 5689POPC   C4B19066   9.836  21.919   7.650
 5690POPC   NC319067  18.242   5.098   9.450
 5690POPC   PO419068  18.282   5.070   9.150
 5690POPC   GL119069  18.303   5.103   8.850
 5690POPC   GL219070  18.377   5.056   8.850
 5690POPC   C1A19071  18.239   5.081   8.550
 5690POPC   D2A19072  18.273   5.107   8.250
 5690POPC   C3A19073  18.326   5.111   7.950
 5690POPC   C4A19074  18.288   5.053   7.650
 5690POPC   C1B19075  18.548   5.076   8.550
 5690POPC   C2B19076  18.530   5.049   8.250
 5690POPC   C3B19077  18.506   5.112   7.950
 5690POPC   C4B19078  18.564   5.038   7.650
 5691POPC   NC319079  28.415  44.657   9.450
 5691POPC   PO419080  28.384  44.685   9.150
 5691POPC   GL119081  28.343  44.676   8.850
 5691POPC   GL219082  28.299  44.579   8.850
 5691POPC   C1A19083  28.394  44.641   8.550
 5691POPC   D2A19084  28.328  44.681   8.250
 5691POPC   C3A19085  28.329  44.624   7.950
 5691POPC   C4A19086  28.390  44.613   7.650
 5691POPC   C1B19087  28.162  44.512   8.550
 5691POPC   C2B19088  28.171  44.499   8.250
 5691POPC   C3B19089  28.237  44.448   7.950
 5691POPC   C4B19090  28.170  44.440   7.650
 5692POPC   NC319091  32.221  23.704   9.450
 5692POPC   PO419092  32.211  23.756   9.150
 5692POPC   GL119093  32.296  23.697   8.850
 5692POPC   GL219094  32.393  23.693   8.850
 5692POPC   C1A19095  32.219  23.740   8.550
 5692POPC   D2A19096  32.293  23.677   8.250
 5692POPC   C3A19097  32.270  23.698   7.950
 5692POPC   C4A19098  32.218  23.710   7.650
 5692POPC   C1B19099  32.470  23.643   8.550
 5692POPC   C2B19100  32.449  23.710   8.250
 5692POPC   C3B19101  32.531  23.636   7.950
 5692POPC   C4B19102  32.542  23.649   7.650
 5693POPC   NC319103  40.785  19.849   9.450
 5693POPC   PO419104  40.822  19.882   9.150
 5693POPC   GL119105  40.800  19.871   8.850
 5693POPC   GL219106  40.650  19.877   8.850
 5693POPC   C1A19107  40.824  19.852   8.550
 5693POPC   D2A19108  40.778  19.877   8.250
 5693POPC   C3A19109  40.790  19.808   7.950
 5693POPC   C4A19110  40.733  19.844   7.650
 5693POPC   C1B19111  40.539  19.940   8.550
 5693POPC   C2B19112  40.568  19.983   8.250
 5693POPC   C3B19113  40.606  19.995   7.950
 5693POPC   C4B19114  40.533  19.995   7.650
 5694POPC   NC319115   1.246  39.203   9.450
 5694POPC   PO419116   1.190  39.201   9.150
 5694POPC   GL119117   1.225  39.278   8.850
 5694POPC   GL219118   1.227  39.122   8.850
 5694POPC   C1A19119   1.239  39.248   8.550
 5694POPC   D2A19120   1.236  39.237   8.250
 5694POPC   C3A19121   1.228  39.188   7.950
 5694POPC   C4A19122   1.165  39.228   7.650
 5694POPC   C1B19123   1.203  39.023   8.550
 5694POPC   C2B19124   1.227  39.001   8.250
 5694POPC   C3B19125   1.200  38.955   7.950
 5694POPC   C4B19126   1.220  38.956   7.650
 5695POPC   NC319127   1.170  15.163   9.450
 5695POPC   PO419128   1.254  15.216   9.150
 5695POPC   GL119129   1.236  15.218   8.850
 5695POPC   GL219130   1.215  15.352   8.850
 5695POPC   C1A19131   1.249  15.206   8.550
 5695POPC   D2A19132   1.243  15.205   8.250
 5695POPC   C3A19133   1.256  15.180   7.950
 5695POPC   C4A19134   1.168  15.135   7.650
 5695POPC   C1B19135   1.252  15.477   8.550
 5695POPC   C2B19136   1.250  15.432   8.250
 5695POPC   C3B19137   1.266  15.446   7.950
 5695POPC   C4B19138   1.190  15.409   7.650
 5696POPC   NC319139  44.643  33.789   9.450
 5696POPC   PO419140  44.675  33.840   9.150
 5696POPC   GL119141  44.685  33.843   8.850
 5696POPC   GL219142  44.534  33.899   8.850
 5696POPC   C1A19143  44.641  33.815   8.550
 5696POPC   D2A19144  44.700  33.846   8.250
 5696POPC   C3A19145  44.706  33.846   7.950
 5696POPC   C4A19146  44.672  33.753   7.650
 5696POPC   C1B19147  44.484  33.939   8.550
 5696POPC   C2B19148  44.432  33.944   8.250
 5696POPC   C3B19149  44.441  33.942   7.950
 5696POPC   C4B19150  44.471  33.878   7.650
 5697POPC   NC319151  36.097  28.400   9.450
 5697POPC   PO419152  36.103  28.355   9.150
 5697POPC   GL119153  36.128  28.390   8.850
 5697POPC   GL219154  36.193  28.515   8.850
 5697POPC   C1A19155  36.108  28.393   8.550
 5697POPC   D2A19156  36.106  28.334   8.250
 5697POPC   C3A19157  36.153  28.331   7.950
 5697POPC   C4A19158  36.103  28.374   7.650
 5697POPC   C1B19159  36.194  28.598   8.550
 5697POPC   C2B19160  36.169  28.596   8.250
 5697POPC   C3B19161  36.201  28.612   7.950
 5697POPC   C4B19162  36.155  28.613   7.650
 5698POPC   NC319163   2.017  14.365   9.450
 5698POPC   PO419164   2.030  14.415   9.150
 5698POPC   GL119165   1.979  14.389   8.850
 5698POPC   GL219166   2.067  14.330   8.850
 5698POPC   C1A19167   1.983  14.391   8.550
 5698POPC   D2A19168   1.951  14.413   8.250
 5698POPC   C3A19169   1.991  14.385   7.950
 5698POPC   C4A19170   1.989  14.369   7.650
 5698POPC   C1B19171   2.003  14.138   8.550
 5698POPC   C2B19172   2.024  14.158   8.250
 5698POPC   C3B19173   2.028  14.163   7.950
 5698POPC   C4B19174   2.023  14.168   7.650
 5699POPC   NC319175  41.561  33.823   9.450
 5699POPC   PO419176  41.531  33.811   9.150
 5699POPC   GL119177  41.575  33.764   8.850
 5699POPC   GL219178  41.471  33.812   8.850
 5699POPC   C1A19179  41.547  33.791   8.550
 5699POPC   D2A19180  41.559  33.827   8.250
 5699POPC   C3A19181  41.517  33.823   7.950
 5699POPC   C4A19182  41.543  33.791   7.650
 5699POPC   C1B19183  41.276  33.733   8.550
 5699POPC   C2B19184  41.299  33.756   8.250
 5699POPC   C3B19185  41.319  33.735   7.950
 5699POPC   C4B19186  41.279  33.695   7.650
 5700POPC   NC319187   7.372   7.451   9.450
 5700POPC   PO419188   7.401   7.459   9.150
 5700POPC   GL119189   7.438   7.460   8.850
 5700POPC   GL219190   7.497   7.477   8.850
 5700POPC   C1A19191   7.427   7.447   8.550
 5700POPC   D2A19192   7.448   7.415   8.250
 5700POPC   C3A19193   7.378   7.457   7.950
 5700POPC   C4A19194   7.383   7.400   7.650
 5700POPC   C1B19195   7.599   7.574   8.550
 5700POPC   C2B19196   7.601   7.498   8.250
 5700POPC   C3B19197   7.674   7.522   7.950
 5700POPC   C4B19198   7.684   7.499   7.650
 5701POPC   NC319199   5.820  11.303   9.450
 5701POPC   PO419200   5.901  11.280   9.150
 5701POPC   GL119201   5.910  11.297   8.850
 5701POPC   GL219202   5.749  11.261   8.850
 5701POPC   C1A19203   5.850  11.288   8.550
 5701POPC   D2A19204   5.820  11.300   8.250
 5701POPC   C3A19205   5.842  11.254   7.950
 5701POPC   C4A19206   5.877  11.298   7.650
 5701POPC   C1B19207   5.663  11.118   8.550
 5701POPC   C2B19208   5.701  11.125   8.250
 5701POPC   C3B19209   5.706  11.127   7.950
 5701POPC   C4B19210   5.717  11.106   7.650
 5702POPC   NC319211  37.675  12.829   9.450
 5702POPC   PO419212  37.649  12.812   9.150
 5702POPC   GL119213  37.701  12.852   8.850
 5702POPC   GL219214  37.544  12.897   8.850
 5702POPC   C1A19215  37.717  12.816   8.550
 5702POPC   D2A19216  37.667  12.890   8.250
 5702POPC   C3A19217  37.717  12.841   7.950
 5702POPC   C4A19218  37.631  12.829   7.650
 5702POPC   C1B19219  37.469  12.957   8.550
 5702POPC   C2B19220  37.401  12.943   8.250
 5702POPC   C3B19221  37.394  12.867   7.950
 5702POPC   C4B19222  37.442  12.912   7.650
 5703POPC   NC319223  25.993   5.904   9.450
 5703POPC   PO419224  26.081   5.905   9.150
 5703POPC   GL119225  26.043   5.863   8.850
 5703POPC   GL219226  26.149   5.751   8.850
 5703POPC   C1A19227  25.999   5.852   8.550
 5703POPC   D2A19228  26.010   5.880   8.250
 5703POPC   C3A19229  26.021   5.878   7.950
 5703POPC   C4A19230  26.072   5.908   7.650
 5703POPC   C1B19231  26.190   5.720   8.550
 5703POPC   C2B19232  26.213   5.652   8.250
 5703POPC   C3B19233  26.161   5.648   7.950
 5703POPC   C4B19234  26.195   5.650   7.650
 5704POPC   NC319235  23.702   0.446   9.450
 5704POPC   PO419236  23.711   0.401   9.150
 5704POPC   GL119237  23.761   0.388   8.850
 5704POPC   GL219238  23.656   0.296   8.850
 5704POPC   C1A19239  23.730   0.483   8.550
 5704POPC   D2A19240  23.682   0.427   8.250
 5704POPC   C3A19241  23.754   0.420   7.950
 5704POPC   C4A19242  23.716   0.454   7.650
 5704POPC   C1B19243  23.613   0.239   8.550
 5704POPC   C2B19244  23.612   0.172   8.250
 5704POPC   C3B19245  23.677   0.160   7.950
 5704POPC   C4B19246  23.628   0.180   7.650
 5705POPC   NC319247  10.511  26.789   9.450
 5705POPC   PO419248  10.523  26.796   9.150
 5705POPC   GL119249  10.477  26.848   8.850
 5705POPC   GL219250  10.422  26.677   8.850
 5705POPC   C1A19251  10.554  26.805   8.550
 5705POPC   D2A19252  10.546  26.820   8.250
 5705POPC   C3A19253  10.512  26.832   7.950
 5705POPC   C4A19254  10.475  26.802   7.650
 5705POPC   C1B19255  10.321  26.648   8.550
 5705POPC   C2B19256  10.351  26.657   8.250
 5705POPC   C3B19257  10.343  26.638   7.950
 5705POPC   C4B19258  10.362  26.673   7.650
 5706POPC   NC319259  29.881  12.884   9.450
 5706POPC   PO419260  29.951  12.816   9.150
 5706POPC   GL119261  29.924  12.825   8.850
 5706POPC   GL219262  29.858  12.802   8.850
 5706POPC   C1A19263  29.896  12.835   8.550
 5706POPC   D2A19264  29.908  12.866   8.250
 5706POPC   C3A19265  29.887  12.865   7.950
 5706POPC   C4A19266  29.873  12.808   7.650
 5706POPC   C1B19267  29.689  12.759   8.550
 5706POPC   C2B19268  29.744  12.724   8.250
 5706POPC   C3B19269  29.691  12.714   7.950
 5706POPC   C4B19270  29.743  12.741   7.650
 5707POPC   NC319271  36.099  10.512   9.450
 5707POPC   PO419272  36.095  10.492   9.150
 5707POPC   GL119273  36.083  10.531   8.850
 5707POPC   GL219274  36.295  10.457   8.850
 5707POPC   C1A19275  36.161  10.477   8.550
 5707POPC   D2A19276  36.126  10.486   8.250
 5707POPC   C3A19277  36.167  10.508   7.950
 5707POPC   C4A19278  36.087  10.491   7.650
 5707POPC   C1B19279  36.327  10.474   8.550
 5707POPC   C2B19280  36.380  10.463   8.250
 5707POPC   C3B19281  36.378  10.452   7.950
 5707POPC   C4B19282  36.326  10.444   7.650
 5708POPC   NC319283  21.349  29.138   9.450
 5708POPC   PO419284  21.374  29.144   9.150
 5708POPC   GL119285  21.410  29.131   8.850
 5708POPC   GL219286  21.302  29.208   8.850
 5708POPC   C1A19287  21.434  29.135   8.550
 5708POPC   D2A19288  21.353  29.123   8.250
 5708POPC   C3A19289  21.408  29.168   7.950
 5708POPC   C4A19290  21.387  29.153   7.650
 5708POPC   C1B19291  21.187  29.221   8.550
 5708POPC   C2B19292  21.167  29.256   8.250
 5708POPC   C3B19293  21.179  29.288   7.950
 5708POPC   C4B19294  21.195  29.208   7.650
 5709POPC   NC319295   1.982  19.043   9.450
 5709POPC   PO419296   2.017  19.015   9.150
 5709POPC   GL119297   1.946  19.065   8.850
 5709POPC   GL219298   2.052  18.987   8.850
 5709POPC   C1A19299   2.025  19.108   8.550
 5709POPC   D2A19300   2.017  19.063   8.250
 5709POPC   C3A19301   1.993  19.032   7.950
 5709POPC   C4A19302   1.991  19.029   7.650
 5709POPC   C1B19303   2.221  18.938   8.550
 5709POPC   C2B19304   2.181  18.939   8.250
 5709POPC   C3B19305   2.172  18.911   7.950
 5709POPC   C4B19306   2.178  18.933   7.650
 5710POPC   NC319307  19.085   8.981   9.450
 5710POPC   PO419308  19.031   8.953   9.150
 5710POPC   GL119309  19.052   8.952   8.850
 5710POPC   GL219310  19.156   8.909   8.850
 5710POPC   C1A19311  19.060   9.014   8.550
 5710POPC   D2A19312  19.059   8.930   8.250
 5710POPC   C3A19313  19.063   8.965   7.950
 5710POPC   C4A19314  19.071   8.959   7.650
 5710POPC   C1B19315  19.253   8.903   8.550
 5710POPC   C2B19316  19.297   8.918   8.250
 5710POPC   C3B19317  19.293   8.931   7.950
 5710POPC   C4B19318  19.286   8.855   7.650
 5711POPC   NC319319  19.787   6.692   9.450
 5711POPC   PO419320  19.852   6.606   9.150
 5711POPC   GL119321  19.883   6.673   8.850
 5711POPC   GL219322  19.840   6.764   8.850
 5711POPC   C1A19323  19.815   6.622   8.550
 5711POPC   D2A19324  19.798   6.606   8.250
 5711POPC   C3A19325  19.880   6.680   7.950
 5711POPC   C4A19326  19.862   6.693   7.650
 5711POPC   C1B19327  19.822   6.885   8.550
 5711POPC   C2B19328  19.785   6.889   8.250
 5711POPC   C3B19329  19.791   6.856   7.950
 5711POPC   C4B19330  19.825   6.887   7.650
 5712POPC   NC319331  22.118  21.340   9.450
 5712POPC   PO419332  22.129  21.347   9.150
 5712POPC   GL119333  22.195  21.397   8.850
 5712POPC   GL219334  22.180  21.295   8.850
 5712POPC   C1A19335  22.193  21.355   8.550
 5712POPC   D2A19336  22.207  21.384   8.250
 5712POPC   C3A19337  22.187  21.361   7.950
 5712POPC   C4A19338  22.131  21.405   7.650
 5712POPC   C1B19339  22.317  21.179   8.550
 5712POPC   C2B19340  22.261  21.137   8.250
 5712POPC   C3B19341  22.230  21.150   7.950
 5712POPC   C4B19342  22.326  21.158   7.650
 5713POPC   NC319343  10.480  33.816   9.450
 5713POPC   PO419344  10.494  33.842   9.150
 5713POPC   GL119345  10.485  33.780   8.850
 5713POPC   GL219346  10.509  33.651   8.850
 5713POPC   C1A19347  10.500  33.811   8.550
 5713POPC   D2A19348  10.571  33.825   8.250
 5713POPC   C3A19349  10.530  33.772   7.950
 5713POPC   C4A19350  10.515  33.768   7.650
 5713POPC   C1B19351  10.518  33.596   8.550
 5713POPC   C2B19352  10.591  33.567   8.250
 5713POPC   C3B19353  10.571  33.587   7.950
 5713POPC   C4B19354  10.513  33.519   7.650
 5714POPC   NC319355  23.670  31.437   9.450
 5714POPC   PO419356  23.756  31.455   9.150
 5714POPC   GL119357  23.672  31.483   8.850
 5714POPC   GL219358  23.601  31.344   8.850
 5714POPC   C1A19359  23.760  31.494   8.550
 5714POPC   D2A19360  23.727  31.482   8.250
 5714POPC   C3A19361  23.681  31.517   7.950
 5714POPC   C4A19362  23.686  31.467   7.650
 5714POPC   C1B19363  23.549  31.238   8.550
 5714POPC   C2B19364  23.577  31.320   8.250
 5714POPC   C3B19365  23.554  31.264   7.950
 5714POPC   C4B19366  23.576  31.271   7.650
 5715POPC   NC319367  13.654   2.008   9.450
 5715POPC   PO419368  13.675   2.018   9.150
 5715POPC   GL119369  13.623   2.029   8.850
 5715POPC   GL219370  13.731   1.900   8.850
 5715POPC   C1A19371  13.590   2.009   8.550
 5715POPC   D2A19372  13.645   1.980   8.250
 5715POPC   C3A19373  13.604   2.025   7.950
 5715POPC   C4A19374  13.594   2.028   7.650
 5715POPC   C1B19375  13.802   1.775   8.550
 5715POPC   C2B19376  13.805   1.839   8.250
 5715POPC   C3B19377  13.771   1.755   7.950
 5715POPC   C4B19378  13.775   1.815   7.650
 5716POPC   NC319379  12.805  36.125   9.450
 5716POPC   PO419380  12.834  36.172   9.150
 5716POPC   GL119381  12.869  36.169   8.850
 5716POPC   GL219382  12.717  36.115   8.850
 5716POPC   C1A19383  12.831  36.154   8.550
 5716POPC   D2A19384  12.812  36.132   8.250
 5716POPC   C3A19385  12.883  36.160   7.950
 5716POPC   C4A19386  12.866  36.084   7.650
 5716POPC   C1B19387  12.651  36.004   8.550
 5716POPC   C2B19388  12.657  35.971   8.250
 5716POPC   C3B19389  12.636  35.989   7.950
 5716POPC   C4B19390  12.592  36.067   7.650
 5717POPC   NC319391   4.287  38.455   9.450
 5717POPC   PO419392   4.340  38.468   9.150
 5717POPC   GL119393   4.359  38.442   8.850
 5717POPC   GL219394   4.209  38.422   8.850
 5717POPC   C1A19395   4.292  38.442   8.550
 5717POPC   D2A19396   4.349  38.425   8.250
 5717POPC   C3A19397   4.323  38.461   7.950
 5717POPC   C4A19398   4.367  38.494   7.650
 5717POPC   C1B19399   4.066  38.479   8.550
 5717POPC   C2B19400   4.097  38.475   8.250
 5717POPC   C3B19401   4.115  38.436   7.950
 5717POPC   C4B19402   4.029  38.467   7.650
 5718POPC   NC319403   0.465  32.292   9.450
 5718POPC   PO419404   0.441  32.264   9.150
 5718POPC   GL119405   0.403  32.277   8.850
 5718POPC   GL219406   0.370  32.093   8.850
 5718POPC   C1A19407   0.467  32.225   8.550
 5718POPC   D2A19408   0.478  32.294   8.250
 5718POPC   C3A19409   0.425  32.269   7.950
 5718POPC   C4A19410   0.397  32.277   7.650
 5718POPC   C1B19411   0.360  32.010   8.550
 5718POPC   C2B19412   0.324  32.027   8.250
 5718POPC   C3B19413   0.386  31.961   7.950
 5718POPC   C4B19414   0.412  31.966   7.650
 5719POPC   NC319415   2.733  11.285   9.450
 5719POPC   PO419416   2.727  11.309   9.150
 5719POPC   GL119417   2.766  11.346   8.850
 5719POPC   GL219418   2.724  11.191   8.850
 5719POPC   C1A19419   2.750  11.346   8.550
 5719POPC   D2A19420   2.744  11.251   8.250
 5719POPC   C3A19421   2.757  11.276   7.950
 5719POPC   C4A19422   2.769  11.276   7.650
 5719POPC   C1B19423   2.590  11.070   8.550
 5719POPC   C2B19424   2.650  11.079   8.250
 5719POPC   C3B19425   2.659  11.054   7.950
 5719POPC   C4B19426   2.656  11.148   7.650
 5720POPC   NC319427  22.185  43.065   9.450
 5720POPC   PO419428  22.197  43.062   9.150
 5720POPC   GL119429  22.192  43.116   8.850
 5720POPC   GL219430  22.241  43.157   8.850
 5720POPC   C1A19431  22.136  43.130   8.550
 5720POPC   D2A19432  22.129  43.132   8.250
 5720POPC   C3A19433  22.151  43.063   7.950
 5720POPC   C4A19434  22.187  43.110   7.650
 5720POPC   C1B19435  22.374  43.193   8.550
 5720POPC   C2B19436  22.379  43.175   8.250
 5720POPC   C3B19437  22.374  43.182   7.950
 5720POPC   C4B19438  22.357  43.201   7.650
 5721POPC   NC319439  11.251  21.348   9.450
 5721POPC   PO419440  11.350  21.399   9.150
 5721POPC   GL119441  11.258  21.353   8.850
 5721POPC   GL219442  11.252  21.237   8.850
 5721POPC   C1A19443  11.326  21.423   8.550
 5721POPC   D2A19444  11.261  21.409   8.250
 5721POPC   C3A19445  11.271  21.410   7.950
 5721POPC   C4A19446  11.252  21.350   7.650
 5721POPC   C1B19447  11.223  21.151   8.550
 5721POPC   C2B19448  11.228  21.208   8.250
 5721POPC   C3B19449  11.227  21.111   7.950
 5721POPC   C4B19450  11.155  21.201   7.650
 5722POPC   NC319451  37.631  37.655   9.450
 5722POPC   PO419452  37.644  37.678   9.150
 5722POPC   GL119453  37.695  37.652   8.850
 5722POPC   GL219454  37.698  37.516   8.850
 5722POPC   C1A19455  37.693  37.695   8.550
 5722POPC   D2A19456  37.677  37.712   8.250
 5722POPC   C3A19457  37.652  37.722   7.950
 5722POPC   C4A19458  37.636  37.635   7.650
 5722POPC   C1B19459  37.726  37.455   8.550
 5722POPC   C2B19460  37.685  37.469   8.250
 5722POPC   C3B19461  37.677  37.442   7.950
 5722POPC   C4B19462  37.685  37.431   7.650
 5723POPC   NC319463  32.251  30.684   9.450
 5723POPC   PO419464  32.229  30.655   9.150
 5723POPC   GL119465  32.295  30.719   8.850
 5723POPC   GL219466  32.199  30.600   8.850
 5723POPC   C1A19467  32.216  30.714   8.550
 5723POPC   D2A19468  32.240  30.725   8.250
 5723POPC   C3A19469  32.250  30.733   7.950
 5723POPC   C4A19470  32.295  30.692   7.650
 5723POPC   C1B19471  32.070  30.562   8.550
 5723POPC   C2B19472  32.067  30.530   8.250
 5723POPC   C3B19473  32.120  30.487   7.950
 5723POPC   C4B19474  32.089  30.484   7.650
 5724POPC   NC319475  16.724  29.145   9.450
 5724POPC   PO419476  16.726  29.161   9.150
 5724POPC   GL119477  16.721  29.179   8.850
 5724POPC   GL219478  16.579  29.243   8.850
 5724POPC   C1A19479  16.697  29.106   8.550
 5724POPC   D2A19480  16.723  29.128   8.250
 5724POPC   C3A19481  16.727  29.101   7.950
 5724POPC   C4A19482  16.683  29.103   7.650
 5724POPC   C1B19483  16.522  29.273   8.550
 5724POPC   C2B19484  16.492  29.233   8.250
 5724POPC   C3B19485  16.502  29.243   7.950
 5724POPC   C4B19486  16.512  29.218   7.650
 5725POPC   NC319487   0.392   6.641   9.450
 5725POPC   PO419488   0.408   6.690   9.150
 5725POPC   GL119489   0.396   6.620   8.850
 5725POPC   GL219490   0.504   6.559   8.850
 5725POPC   C1A19491   0.427   6.687   8.550
 5725POPC   D2A19492   0.482   6.664   8.250
 5725POPC   C3A19493   0.434   6.647   7.950
 5725POPC   C4A19494   0.456   6.599   7.650
 5725POPC   C1B19495   0.683   6.540   8.550
 5725POPC   C2B19496   0.617   6.532   8.250
 5725POPC   C3B19497   0.630   6.506   7.950
 5725POPC   C4B19498   0.634   6.523   7.650
 5726POPC   NC319499  20.574   8.197   9.450
 5726POPC   PO419500  20.568   8.175   9.150
 5726POPC   GL119501  20.613   8.241   8.850
 5726POPC   GL219502  20.580   8.291   8.850
 5726POPC   C1A19503  20.590   8.158   8.550
 5726POPC   D2A19504  20.622   8.169   8.250
 5726POPC   C3A19505  20.614   8.186   7.950
 5726POPC   C4A19506  20.592   8.240   7.650
 5726POPC   C1B19507  20.627   8.424   8.550
 5726POPC   C2B19508  20.650   8.424   8.250
 5726POPC   C3B19509  20.629   8.433   7.950
 5726POPC   C4B19510  20.627   8.423   7.650
 5727POPC   NC319511  33.763  40.015   9.450
 5727POPC   PO419512  33.829  40.017   9.150
 5727POPC   GL119513  33.837  39.982   8.850
 5727POPC   GL219514  33.804  39.895   8.850
 5727POPC   C1A19515  33.801  40.054   8.550
 5727POPC   D2A19516  33.811  40.039   8.250
 5727POPC   C3A19517  33.808  39.992   7.950
 5727POPC   C4A19518  33.828  40.048   7.650
 5727POPC   C1B19519  33.834  39.720   8.550
 5727POPC   C2B19520  33.776  39.713   8.250
 5727POPC   C3B19521  33.835  39.794   7.950
 5727POPC   C4B19522  33.853  39.725   7.650
 5728POPC   NC319523   5.885  27.610   9.450
 5728POPC   PO419524   5.870  27.638   9.150
 5728POPC   GL119525   5.916  27.627   8.850
 5728POPC   GL219526   5.784  27.481   8.850
 5728POPC   C1A19527   5.861  27.621   8.550
 5728POPC   D2A19528   5.904  27.574   8.250
 5728POPC   C3A19529   5.864  27.624   7.950
 5728POPC   C4A19530   5.842  27.604   7.650
 5728POPC   C1B19531   5.705  27.355   8.550
 5728POPC   C2B19532   5.727  27.408   8.250
 5728POPC   C3B19533   5.712  27.420   7.950
 5728POPC   C4B19534   5.681  27.444   7.650
 5729POPC   NC319535   8.148   8.180   9.450
 5729POPC   PO419536   8.226   8.169   9.150
 5729POPC   GL119537   8.231   8.204   8.850
 5729POPC   GL219538   8.334   8.134   8.850
 5729POPC   C1A19539   8.185   8.213   8.550
 5729POPC   D2A19540   8.152   8.246   8.250
 5729POPC   C3A19541   8.151   8.210   7.950
 5729POPC   C4A19542   8.208   8.242   7.650
 5729POPC   C1B19543   8.393   8.088   8.550
 5729POPC   C2B19544   8.453   8.031   8.250
 5729POPC   C3B19545   8.416   8.048   7.950
 5729POPC   C4B19546   8.398   8.025   7.650
 5730POPC   NC319547  10.499  19.043   9.450
 5730POPC   PO419548  10.480  19.103   9.150
 5730POPC   GL119549  10.493  19.016   8.850
 5730POPC   GL219550  10.541  19.163   8.850
 5730POPC   C1A19551  10.529  19.051   8.550
 5730POPC   D2A19552  10.483  19.014   8.250
 5730POPC   C3A19553  10.550  19.012   7.950
 5730POPC   C4A19554  10.503  19.081   7.650
 5730POPC   C1B19555  10.498  19.288   8.550
 5730POPC   C2B19556  10.562  19.329   8.250
 5730POPC   C3B19557  10.493  19.352   7.950
 5730POPC   C4B19558  10.574  19.264   7.650
 5731POPC   NC319559   5.080  26.049   9.450
 5731POPC   PO419560   5.091  26.088   9.150
 5731POPC   GL119561   5.053  26.071   8.850
 5731POPC   GL219562   5.115  26.154   8.850
 5731POPC   C1A19563   5.050  26.073   8.550
 5731POPC   D2A19564   5.091  26.027   8.250
 5731POPC   C3A19565   5.076  26.027   7.950
 5731POPC   C4A19566   5.092  25.998   7.650
 5731POPC   C1B19567   5.142  26.260   8.550
 5731POPC   C2B19568   5.176  26.242   8.250
 5731POPC   C3B19569   5.163  26.246   7.950
 5731POPC   C4B19570   5.148  26.287   7.650
 5732POPC   NC319571   3.523  30.741   9.450
 5732POPC   PO419572   3.546  30.716   9.150
 5732POPC   GL119573   3.496  30.710   8.850
 5732POPC   GL219574   3.501  30.860   8.850
 5732POPC   C1A19575   3.520  30.716   8.550
 5732POPC   D2A19576   3.564  30.732   8.250
 5732POPC   C3A19577   3.532  30.703   7.950
 5732POPC   C4A19578   3.537  30.651   7.650
 5732POPC   C1B19579   3.521  30.983   8.550
 5732POPC   C2B19580   3.515  30.941   8.250
 5732POPC   C3B19581   3.490  30.980   7.950
 5732POPC   C4B19582   3.566  30.981   7.650
 5733POPC   NC319583  15.182  20.573   9.450
 5733POPC   PO419584  15.201  20.650   9.150
 5733POPC   GL119585  15.221  20.655   8.850
 5733POPC   GL219586  15.267  20.641   8.850
 5733POPC   C1A19587  15.159  20.591   8.550
 5733POPC   D2A19588  15.198  20.593   8.250
 5733POPC   C3A19589  15.179  20.593   7.950
 5733POPC   C4A19590  15.211  20.596   7.650
 5733POPC   C1B19591  15.410  20.618   8.550
 5733POPC   C2B19592  15.436  20.640   8.250
 5733POPC   C3B19593  15.442  20.643   7.950
 5733POPC   C4B19594  15.457  20.683   7.650
 5734POPC   NC319595  39.211  26.864   9.450
 5734POPC   PO419596  39.206  26.771   9.150
 5734POPC   GL119597  39.245  26.842   8.850
 5734POPC   GL219598  39.269  26.944   8.850
 5734POPC   C1A19599  39.212  26.843   8.550
 5734POPC   D2A19600  39.246  26.797   8.250
 5734POPC   C3A19601  39.267  26.795   7.950
 5734POPC   C4A19602  39.260  26.866   7.650
 5734POPC   C1B19603  39.274  27.065   8.550
 5734POPC   C2B19604  39.310  27.059   8.250
 5734POPC   C3B19605  39.332  27.064   7.950
 5734POPC   C4B19606  39.302  27.051   7.650
 5735POPC   NC319607  30.679  19.863   9.450
 5735POPC   PO419608  30.730  19.835   9.150
 5735POPC   GL119609  30.647  19.848   8.850
 5735POPC   GL219610  30.762  19.894   8.850
 5735POPC   C1A19611  30.698  19.841   8.550
 5735POPC   D2A19612  30.681  19.868   8.250
 5735POPC   C3A19613  30.654  19.866   7.950
 5735POPC   C4A19614  30.655  19.844   7.650
 5735POPC   C1B19615  30.857  19.995   8.550
 5735POPC   C2B19616  30.901  20.038   8.250
 5735POPC   C3B19617  30.914  20.039   7.950
 5735POPC   C4B19618  30.875  19.991   7.650
 5736POPC   NC319619  12.863  25.269   9.450
 5736POPC   PO419620  12.824  25.247   9.150
 5736POPC   GL119621  12.845  25.308   8.850
 5736POPC   GL219622  12.883  25.342   8.850
 5736POPC   C1A19623  12.833  25.305   8.550
 5736POPC   D2A19624  12.828  25.277   8.250
 5736POPC   C3A19625  12.878  25.285   7.950
 5736POPC   C4A19626  12.877  25.241   7.650
 5736POPC   C1B19627  12.823  25.563   8.550
 5736POPC   C2B19628  12.875  25.553   8.250
 5736POPC   C3B19629  12.834  25.555   7.950
 5736POPC   C4B19630  12.834  25.481   7.650
 5737POPC   NC319631  22.980  24.503   9.450
 5737POPC   PO419632  22.940  24.490   9.150
 5737POPC   GL119633  22.934  24.442   8.850
 5737POPC   GL219634  22.998  24.532   8.850
 5737POPC   C1A19635  22.913  24.508   8.550
 5737POPC   D2A19636  22.950  24.450   8.250
 5737POPC   C3A19637  22.903  24.524   7.950
 5737POPC   C4A19638  22.977  24.538   7.650
 5737POPC   C1B19639  23.119  24.621   8.550
 5737POPC   C2B19640  23.164  24.601   8.250
 5737POPC   C3B19641  23.138  24.670   7.950
 5737POPC   C4B19642  23.151  24.626   7.650
 5738POPC   NC319643  42.308  42.370   9.450
 5738POPC   PO419644  42.368  42.369   9.150
 5738POPC   GL119645  42.328  42.293   8.850
 5738POPC   GL219646  42.470  42.305   8.850
 5738POPC   C1A19647  42.317  42.340   8.550
 5738POPC   D2A19648  42.362  42.364   8.250
 5738POPC   C3A19649  42.380  42.365   7.950
 5738POPC   C4A19650  42.310  42.368   7.650
 5738POPC   C1B19651  42.626  42.291   8.550
 5738POPC   C2B19652  42.604  42.304   8.250
 5738POPC   C3B19653  42.550  42.274   7.950
 5738POPC   C4B19654  42.541  42.294   7.650
 5739POPC   NC319655  15.980   3.551   9.450
 5739POPC   PO419656  15.986   3.542   9.150
 5739POPC   GL119657  15.962   3.495   8.850
 5739POPC   GL219658  16.059   3.509   8.850
 5739POPC   C1A19659  15.911   3.545   8.550
 5739POPC   D2A19660  15.951   3.510   8.250
 5739POPC   C3A19661  15.982   3.531   7.950
 5739POPC   C4A19662  15.916   3.554   7.650
 5739POPC   C1B19663  16.175   3.413   8.550
 5739POPC   C2B19664  16.198   3.389   8.250
 5739POPC   C3B19665  16.166   3.401   7.950
 5739POPC   C4B19666  16.186   3.466   7.650
 5740POPC   NC319667  37.663  40.740   9.450
 5740POPC   PO419668  37.698  40.770   9.150
 5740POPC   GL119669  37.652  40.739   8.850
 5740POPC   GL219670  37.551  40.787   8.850
 5740POPC   C1A19671  37.670  40.811   8.550
 5740POPC   D2A19672  37.633  40.794   8.250
 5740POPC   C3A19673  37.729  40.790   7.950
 5740POPC   C4A19674  37.716  40.813   7.650
 5740POPC   C1B19675  37.382  40.795   8.550
 5740POPC   C2B19676  37.463  40.759   8.250
 5740POPC   C3B19677  37.388  40.774   7.950
 5740POPC   C4B19678  37.465  40.752   7.650
 5741POPC   NC319679  17.535   0.409   9.450
 5741POPC   PO419680  17.509   0.393   9.150
 5741POPC   GL119681  17.496   0.444   8.850
 5741POPC   GL219682  17.421   0.450   8.850
 5741POPC   C1A19683  17.481   0.457   8.550
 5741POPC   D2A19684  17.458   0.415   8.250
 5741POPC   C3A19685  17.512   0.473   7.950
 5741POPC   C4A19686  17.515   0.464   7.650
 5741POPC   C1B19687  17.225   0.460   8.550
 5741POPC   C2B19688  17.239   0.480   8.250
 5741POPC   C3B19689  17.211   0.430   7.950
 5741POPC   C4B19690  17.307   0.476   7.650
 5742POPC   NC319691  24.471   1.187   9.450
 5742POPC   PO419692  24.539   1.251   9.150
 5742POPC   GL119693  24.508   1.222   8.850
 5742POPC   GL219694  24.450   1.098   8.850
 5742POPC   C1A19695  24.471   1.190   8.550
 5742POPC   D2A19696  24.525   1.176   8.250
 5742POPC   C3A19697  24.501   1.188   7.950
 5742POPC   C4A19698  24.530   1.191   7.650
 5742POPC   C1B19699  24.477   0.980   8.550
 5742POPC   C2B19700  24.455   0.982   8.250
 5742POPC   C3B19701  24.428   0.932   7.950
 5742POPC   C4B19702  24.506   0.956   7.650
 5743POPC   NC319703  33.785  27.587   9.450
 5743POPC   PO419704  33.798  27.549   9.150
 5743POPC   GL119705  33.813  27.627   8.850
 5743POPC   GL219706  33.860  27.527   8.850
 5743POPC   C1A19707  33.752  27.637   8.550
 5743POPC   D2A19708  33.781  27.582   8.250
 5743POPC   C3A19709  33.818  27.634   7.950
 5743POPC   C4A19710  33.790  27.609   7.650
 5743POPC   C1B19711  33.908  27.408   8.550
 5743POPC   C2B19712  33.879  27.418   8.250
 5743POPC   C3B19713  33.875  27.419   7.950
 5743POPC   C4B19714  33.900  27.325   7.650
 5744POPC   NC319715  10.554  30.711   9.450
 5744POPC   PO419716  10.503  30.660   9.150
 5744POPC   GL119717  10.500  30.720   8.850
 5744POPC   GL219718  10.578  30.772   8.850
 5744POPC   C1A19719  10.475  30.741   8.550
 5744POPC   D2A19720  10.567  30.743   8.250
 5744POPC   C3A19721  10.480  30.669   7.950
 5744POPC   C4A19722  10.554  30.702   7.650
 5744POPC   C1B19723  10.558  30.957   8.550
 5744POPC   C2B19724  10.565  30.968   8.250
 5744POPC   C3B19725  10.538  30.903   7.950
 5744POPC   C4B19726  10.602  30.970   7.650
 5745POPC   NC319727  14.382  34.545   9.450
 5745POPC   PO419728  14.408  34.533   9.150
 5745POPC   GL119729  14.395  34.573   8.850
 5745POPC   GL219730  14.542  34.541   8.850
 5745POPC   C1A19731  14.426  34.581   8.550
 5745POPC   D2A19732  14.446  34.556   8.250
 5745POPC   C3A19733  14.420  34.592   7.950
 5745POPC   C4A19734  14.430  34.581   7.650
 5745POPC   C1B19735  14.652  34.523   8.550
 5745POPC   C2B19736  14.622  34.528   8.250
 5745POPC   C3B19737  14.672  34.474   7.950
 5745POPC   C4B19738  14.606  34.529   7.650
 5746POPC   NC319739  19.792  26.849   9.450
 5746POPC   PO419740  19.856  26.825   9.150
 5746POPC   GL119741  19.864  26.847   8.850
 5746POPC   GL219742  19.740  26.784   8.850
 5746POPC   C1A19743  19.798  26.841   8.550
 5746POPC   D2A19744  19.874  26.857   8.250
 5746POPC   C3A19745  19.844  26.780   7.950
 5746POPC   C4A19746  19.794  26.789   7.650
 5746POPC   C1B19747  19.608  26.843   8.550
 5746POPC   C2B19748  19.608  26.790   8.250
 5746POPC   C3B19749  19.536  26.797   7.950
 5746POPC   C4B19750  19.603  26.820   7.650
 5747POPC   NC319751   5.821   5.058   9.450
 5747POPC   PO419752   5.824   5.044   9.150
 5747POPC   GL119753   5.910   5.084   8.850
 5747POPC   GL219754   5.810   4.995   8.850
 5747POPC   C1A19755   5.834   5.139   8.550
 5747POPC   D2A19756   5.833   5.076   8.250
 5747POPC   C3A19757   5.862   5.073   7.950
 5747POPC   C4A19758   5.888   5.138   7.650
 5747POPC   C1B19759   5.616   4.903   8.550
 5747POPC   C2B19760   5.674   4.913   8.250
 5747POPC   C3B19761   5.616   4.962   7.950
 5747POPC   C4B19762   5.682   4.989   7.650
 5748POPC   NC319763   3.574  31.489   9.450
 5748POPC   PO419764   3.519  31.462   9.150
 5748POPC   GL119765   3.551  31.429   8.850
 5748POPC   GL219766   3.498  31.614   8.850
 5748POPC   C1A19767   3.549  31.436   8.550
 5748POPC   D2A19768   3.545  31.434   8.250
 5748POPC   C3A19769   3.492  31.440   7.950
 5748POPC   C4A19770   3.580  31.492   7.650
 5748POPC   C1B19771   3.499  31.698   8.550
 5748POPC   C2B19772   3.496  31.722   8.250
 5748POPC   C3B19773   3.541  31.737   7.950
 5748POPC   C4B19774   3.481  31.731   7.650
 5749POPC   NC319775   8.212   6.664   9.450
 5749POPC   PO419776   8.194   6.680   9.150
 5749POPC   GL119777   8.198   6.687   8.850
 5749POPC   GL219778   8.042   6.589   8.850
 5749POPC   C1A19779   8.176   6.629   8.550
 5749POPC   D2A19780   8.223   6.621   8.250
 5749POPC   C3A19781   8.242   6.689   7.950
 5749POPC   C4A19782   8.176   6.599   7.650
 5749POPC   C1B19783   7.959   6.534   8.550
 5749POPC   C2B19784   7.974   6.503   8.250
 5749POPC   C3B19785   7.981   6.513   7.950
 5749POPC   C4B19786   8.002   6.485   7.650
 5750POPC   NC319787   5.093  43.118   9.450
 5750POPC   PO419788   5.049  43.098   9.150
 5750POPC   GL119789   5.117  43.137   8.850
 5750POPC   GL219790   5.210  43.149   8.850
 5750POPC   C1A19791   5.123  43.141   8.550
 5750POPC   D2A19792   5.055  43.146   8.250
 5750POPC   C3A19793   5.112  43.073   7.950
 5750POPC   C4A19794   5.059  43.141   7.650
 5750POPC   C1B19795   5.340  43.183   8.550
 5750POPC   C2B19796   5.380  43.138   8.250
 5750POPC   C3B19797   5.363  43.141   7.950
 5750POPC   C4B19798   5.318  43.208   7.650
 5751POPC   NC319799  12.030  32.985   9.450
 5751POPC   PO419800  12.049  32.998   9.150
 5751POPC   GL119801  12.080  33.008   8.850
 5751POPC   GL219802  11.968  32.947   8.850
 5751POPC   C1A19803  12.115  33.023   8.550
 5751POPC   D2A19804  12.043  33.021   8.250
 5751POPC   C3A19805  12.045  33.071   7.950
 5751POPC   C4A19806  12.101  33.034   7.650
 5751POPC   C1B19807  11.855  32.843   8.550
 5751POPC   C2B19808  11.845  32.871   8.250
 5751POPC   C3B19809  11.861  32.861   7.950
 5751POPC   C4B19810  11.878  32.907   7.650
 5752POPC   NC319811   9.736   7.396   9.450
 5752POPC   PO419812   9.747   7.462   9.150
 5752POPC   GL119813   9.770   7.468   8.850
 5752POPC   GL219814   9.832   7.420   8.850
 5752POPC   C1A19815   9.768   7.405   8.550
 5752POPC   D2A19816   9.750   7.454   8.250
 5752POPC   C3A19817   9.761   7.446   7.950
 5752POPC   C4A19818   9.778   7.451   7.650
 5752POPC   C1B19819   9.970   7.390   8.550
 5752POPC   C2B19820  10.023   7.403   8.250
 5752POPC   C3B19821  10.030   7.475   7.950
 5752POPC   C4B19822   9.995   7.413   7.650
 5753POPC   NC319823  14.359  42.303   9.450
 5753POPC   PO419824  14.421  42.295   9.150
 5753POPC   GL119825  14.360  42.310   8.850
 5753POPC   GL219826  14.341  42.403   8.850
 5753POPC   C1A19827  14.451  42.337   8.550
 5753POPC   D2A19828  14.357  42.361   8.250
 5753POPC   C3A19829  14.381  42.338   7.950
 5753POPC   C4A19830  14.434  42.318   7.650
 5753POPC   C1B19831  14.246  42.501   8.550
 5753POPC   C2B19832  14.293  42.553   8.250
 5753POPC   C3B19833  14.240  42.588   7.950
 5753POPC   C4B19834  14.262  42.512   7.650
 5754POPC   NC319835   0.485   7.381   9.450
 5754POPC   PO419836   0.408   7.440   9.150
 5754POPC   GL119837   0.470   7.426   8.850
 5754POPC   GL219838   0.539   7.396   8.850
 5754POPC   C1A19839   0.434   7.422   8.550
 5754POPC   D2A19840   0.430   7.458   8.250
 5754POPC   C3A19841   0.431   7.438   7.950
 5754POPC   C4A19842   0.461   7.404   7.650
 5754POPC   C1B19843   0.666   7.362   8.550
 5754POPC   C2B19844   0.710   7.343   8.250
 5754POPC   C3B19845   0.636   7.325   7.950
 5754POPC   C4B19846   0.661   7.345   7.650
 5755POPC   NC319847  39.963  44.616   9.450
 5755POPC   PO419848  40.051  44.684   9.150
 5755POPC   GL119849  40.054  44.617   8.850
 5755POPC   GL219850  40.154  44.718   8.850
 5755POPC   C1A19851  40.009  44.659   8.550
 5755POPC   D2A19852  39.961  44.661   8.250
 5755POPC   C3A19853  40.006  44.705   7.950
 5755POPC   C4A19854  39.996  44.664   7.650
 5755POPC   C1B19855  40.266  44.782   8.550
 5755POPC   C2B19856  40.189  44.769   8.250
 5755POPC   C3B19857  40.232  44.753   7.950
 5755POPC   C4B19858  40.248  44.829   7.650
 5756POPC   NC319859  12.068  21.389   9.450
 5756POPC   PO419860  12.044  21.408   9.150
 5756POPC   GL119861  12.107  21.355   8.850
 5756POPC   GL219862  12.095  21.280   8.850
 5756POPC   C1A19863  12.111  21.412   8.550
 5756POPC   D2A19864  12.041  21.403   8.250
 5756POPC   C3A19865  12.030  21.367   7.950
 5756POPC   C4A19866  12.087  21.417   7.650
 5756POPC   C1B19867  12.127  21.105   8.550
 5756POPC   C2B19868  12.155  21.134   8.250
 5756POPC   C3B19869  12.161  21.127   7.950
 5756POPC   C4B19870  12.139  21.194   7.650
 5757POPC   NC319871  38.481  25.264   9.450
 5757POPC   PO419872  38.427  25.273   9.150
 5757POPC   GL119873  38.416  25.282   8.850
 5757POPC   GL219874  38.314  25.326   8.850
 5757POPC   C1A19875  38.424  25.228   8.550
 5757POPC   D2A19876  38.459  25.217   8.250
 5757POPC   C3A19877  38.437  25.270   7.950
 5757POPC   C4A19878  38.491  25.249   7.650
 5757POPC   C1B19879  38.277  25.428   8.550
 5757POPC   C2B19880  38.253  25.436   8.250
 5757POPC   C3B19881  38.255  25.374   7.950
 5757POPC   C4B19882  38.267  25.441   7.650
 5758POPC   NC319883  11.305  17.531   9.450
 5758POPC   PO419884  11.312  17.478   9.150
 5758POPC   GL119885  11.300  17.553   8.850
 5758POPC   GL219886  11.316  17.658   8.850
 5758POPC   C1A19887  11.300  17.506   8.550
 5758POPC   D2A19888  11.310  17.552   8.250
 5758POPC   C3A19889  11.280  17.460   7.950
 5758POPC   C4A19890  11.250  17.513   7.650
 5758POPC   C1B19891  11.292  17.801   8.550
 5758POPC   C2B19892  11.361  17.774   8.250
 5758POPC   C3B19893  11.290  17.729   7.950
 5758POPC   C4B19894  11.317  17.731   7.650
 5759POPC   NC319895  37.710  34.578   9.450
 5759POPC   PO419896  37.713  34.526   9.150
 5759POPC   GL119897  37.643  34.609   8.850
 5759POPC   GL219898  37.783  34.537   8.850
 5759POPC   C1A19899  37.654  34.528   8.550
 5759POPC   D2A19900  37.706  34.532   8.250
 5759POPC   C3A19901  37.639  34.581   7.950
 5759POPC   C4A19902  37.653  34.561   7.650
 5759POPC   C1B19903  37.898  34.514   8.550
 5759POPC   C2B19904  37.928  34.491   8.250
 5759POPC   C3B19905  37.947  34.464   7.950
 5759POPC   C4B19906  37.889  34.452   7.650
 5760POPC   NC319907  10.480  38.432   9.450
 5760POPC   PO419908  10.528  38.440   9.150
 5760POPC   GL119909  10.530  38.474   8.850
 5760POPC   GL219910  10.548  38.612   8.850
 5760POPC   C1A19911  10.561  38.450   8.550
 5760POPC   D2A19912  10.564  38.420   8.250
 5760POPC   C3A19913  10.553  38.451   7.950
 5760POPC   C4A19914  10.560  38.448   7.650
 5760POPC   C1B19915  10.596  38.724   8.550
 5760POPC   C2B19916  10.616  38.663   8.250
 5760POPC   C3B19917  10.605  38.697   7.950
 5760POPC   C4B19918  10.588  38.723   7.650
 5761POPC   NC319919  28.370  40.734   9.450
 5761POPC   PO419920  28.370  40.756   9.150
 5761POPC   GL119921  28.404  40.785   8.850
 5761POPC   GL219922  28.459  40.854   8.850
 5761POPC   C1A19923  28.370  40.742   8.550
 5761POPC   D2A19924  28.326  40.759   8.250
 5761POPC   C3A19925  28.383  40.811   7.950
 5761POPC   C4A19926  28.406  40.761   7.650
 5761POPC   C1B19927  28.610  40.925   8.550
 5761POPC   C2B19928  28.572  40.853   8.250
 5761POPC   C3B19929  28.624  40.918   7.950
 5761POPC   C4B19930  28.640  40.922   7.650
 5762POPC   NC319931  20.603   4.332   9.450
 5762POPC   PO419932  20.623   4.345   9.150
 5762POPC   GL119933  20.634   4.285   8.850
 5762POPC   GL219934  20.706   4.235   8.850
 5762POPC   C1A19935  20.592   4.296   8.550
 5762POPC   D2A19936  20.654   4.326   8.250
 5762POPC   C3A19937  20.638   4.349   7.950
 5762POPC   C4A19938  20.594   4.318   7.650
 5762POPC   C1B19939  20.799   4.197   8.550
 5762POPC   C2B19940  20.796   4.198   8.250
 5762POPC   C3B19941  20.808   4.157   7.950
 5762POPC   C4B19942  20.864   4.224   7.650
 5763POPC   NC319943  26.014  24.522   9.450
 5763POPC   PO419944  26.003  24.447   9.150
 5763POPC   GL119945  26.074  24.523   8.850
 5763POPC   GL219946  25.883  24.520   8.850
 5763POPC   C1A19947  26.013  24.455   8.550
 5763POPC   D2A19948  26.064  24.461   8.250
 5763POPC   C3A19949  26.001  24.477   7.950
 5763POPC   C4A19950  26.016  24.463   7.650
 5763POPC   C1B19951  25.746  24.444   8.550
 5763POPC   C2B19952  25.803  24.515   8.250
 5763POPC   C3B19953  25.827  24.471   7.950
 5763POPC   C4B19954  25.751  24.528   7.650
 5764POPC   NC319955  29.176  32.272   9.450
 5764POPC   PO419956  29.172  32.295   9.150
 5764POPC   GL119957  29.190  32.246   8.850
 5764POPC   GL219958  29.005  32.324   8.850
 5764POPC   C1A19959  29.117  32.283   8.550
 5764POPC   D2A19960  29.108  32.275   8.250
 5764POPC   C3A19961  29.153  32.215   7.950
 5764POPC   C4A19962  29.193  32.226   7.650
 5764POPC   C1B19963  28.918  32.358   8.550
 5764POPC   C2B19964  28.939  32.387   8.250
 5764POPC   C3B19965  28.947  32.380   7.950
 5764POPC   C4B19966  28.955  32.343   7.650
 5765POPC   NC319967  19.104  10.572   9.450
 5765POPC   PO419968  19.067  10.530   9.150
 5765POPC   GL119969  19.042  10.497   8.850
 5765POPC   GL219970  18.966  10.519   8.850
 5765POPC   C1A19971  19.099  10.490   8.550
 5765POPC   D2A19972  19.026  10.514   8.250
 5765POPC   C3A19973  19.011  10.489   7.950
 5765POPC   C4A19974  19.028  10.532   7.650
 5765POPC   C1B19975  18.811  10.583   8.550
 5765POPC   C2B19976  18.801  10.563   8.250
 5765POPC   C3B19977  18.786  10.559   7.950
 5765POPC   C4B19978  18.776  10.651   7.650
 5766POPC   NC319979  13.675  17.546   9.450
 5766POPC   PO419980  13.669  17.472   9.150
 5766POPC   GL119981  13.638  17.480   8.850
 5766POPC   GL219982  13.526  17.582   8.850
 5766POPC   C1A19983  13.589  17.534   8.550
 5766POPC   D2A19984  13.586  17.540   8.250
 5766POPC   C3A19985  13.642  17.487   7.950
 5766POPC   C4A19986  13.652  17.490   7.650
 5766POPC   C1B19987  13.503  17.730   8.550
 5766POPC   C2B19988  13.515  17.734   8.250
 5766POPC   C3B19989  13.517  17.676   7.950
 5766POPC   C4B19990  13.447  17.673   7.650
 5767POPC   NC319991  43.902  22.143   9.450
 5767POPC   PO419992  43.904  22.145   9.150
 5767POPC   GL119993  43.848  22.120   8.850
 5767POPC   GL219994  44.009  22.079   8.850
 5767POPC   C1A19995  43.919  22.212   8.550
 5767POPC   D2A19996  43.866  22.166   8.250
 5767POPC   C3A19997  43.875  22.125   7.950
 5767POPC   C4A19998  43.844  22.179   7.650
 5767POPC   C1B19999  44.060  21.996   8.550
 5767POPC   C2B20000  44.070  22.000   8.250
 5767POPC   C3B20001  44.080  21.985   7.950
 5767POPC   C4B20002  44.032  21.943   7.650
 5768POPC   NC320003  25.222  40.054   9.450
 5768POPC   PO420004  25.217  39.982   9.150
 5768POPC   GL120005  25.251  40.005   8.850
 5768POPC   GL220006  25.196  40.024   8.850
 5768POPC   C1A20007  25.245  40.041   8.550
 5768POPC   D2A20008  25.246  40.055   8.250
 5768POPC   C3A20009  25.273  40.029   7.950
 5768POPC   C4A20010  25.267  39.994   7.650
 5768POPC   C1B20011  25.030  40.082   8.550
 5768POPC   C2B20012  25.038  40.165   8.250
 5768POPC   C3B20013  25.053  40.077   7.950
 5768POPC   C4B20014  25.052  40.129   7.650
 5769POPC   NC320015   7.443  19.023   9.450
 5769POPC   PO420016   7.420  19.014   9.150
 5769POPC   GL120017   7.450  19.083   8.850
 5769POPC   GL220018   7.347  18.987   8.850
 5769POPC   C1A20019   7.419  19.043   8.550
 5769POPC   D2A20020   7.435  19.105   8.250
 5769POPC   C3A20021   7.468  19.050   7.950
 5769POPC   C4A20022   7.416  19.020   7.650
 5769POPC   C1B20023   7.189  19.041   8.550
 5769POPC   C2B20024   7.132  19.063   8.250
 5769POPC   C3B20025   7.196  19.050   7.950
 5769POPC   C4B20026   7.161  19.035   7.650
 5770POPC   NC320027  36.145  12.096   9.450
 5770POPC   PO420028  36.130  12.047   9.150
 5770POPC   GL120029  36.120  12.042   8.850
 5770POPC   GL220030  36.055  12.013   8.850
 5770POPC   C1A20031  36.090  12.055   8.550
 5770POPC   D2A20032  36.085  12.112   8.250
 5770POPC   C3A20033  36.118  12.100   7.950
 5770POPC   C4A20034  36.161  12.061   7.650
 5770POPC   C1B20035  35.912  11.966   8.550
 5770POPC   C2B20036  35.937  11.961   8.250
 5770POPC   C3B20037  35.849  12.019   7.950
 5770POPC   C4B20038  35.848  11.944   7.650
 5771POPC   NC320039   7.372  33.776   9.450
 5771POPC   PO420040   7.407  33.760   9.150
 5771POPC   GL120041   7.454  33.847   8.850
 5771POPC   GL220042   7.584  33.733   8.850
 5771POPC   C1A20043   7.466  33.800   8.550
 5771POPC   D2A20044   7.393  33.751   8.250
 5771POPC   C3A20045   7.418  33.818   7.950
 5771POPC   C4A20046   7.402  33.806   7.650
 5771POPC   C1B20047   7.660  33.723   8.550
 5771POPC   C2B20048   7.704  33.709   8.250
 5771POPC   C3B20049   7.658  33.663   7.950
 5771POPC   C4B20050   7.692  33.678   7.650
 5772POPC   NC320051  23.699  25.249   9.450
 5772POPC   PO420052  23.708  25.268   9.150
 5772POPC   GL120053  23.723  25.250   8.850
 5772POPC   GL220054  23.829  25.213   8.850
 5772POPC   C1A20055  23.741  25.278   8.550
 5772POPC   D2A20056  23.732  25.240   8.250
 5772POPC   C3A20057  23.753  25.243   7.950
 5772POPC   C4A20058  23.743  25.244   7.650
 5772POPC   C1B20059  23.938  25.170   8.550
 5772POPC   C2B20060  23.908  25.093   8.250
 5772POPC   C3B20061  23.934  25.139   7.950
 5772POPC   C4B20062  23.967  25.127   7.650
 5773POPC   NC320063   1.190  40.005   9.450
 5773POPC   PO420064   1.243  39.968   9.150
 5773POPC   GL120065   1.168  39.985   8.850
 5773POPC   GL220066   1.117  40.016   8.850
 5773POPC   C1A20067   1.212  40.016   8.550
 5773POPC   D2A20068   1.195  40.012   8.250
 5773POPC   C3A20069   1.194  39.968   7.950
 5773POPC   C4A20070   1.169  40.039   7.650
 5773POPC   C1B20071   0.942  40.084   8.550
 5773POPC   C2B20072   1.012  40.069   8.250
 5773POPC   C3B20073   0.992  40.053   7.950
 5773POPC   C4B20074   0.986  40.036   7.650
 5774POPC   NC320075  35.352  17.471   9.450
 5774POPC   PO420076  35.374  17.523   9.150
 5774POPC   GL120077  35.342  17.544   8.850
 5774POPC   GL220078  35.209  17.512   8.850
 5774POPC   C1A20079  35.360  17.464   8.550
 5774POPC   D2A20080  35.323  17.548   8.250
 5774POPC   C3A20081  35.336  17.477   7.950
 5774POPC   C4A20082  35.318  17.520   7.650
 5774POPC   C1B20083  35.083  17.466   8.550
 5774POPC   C2B20084  35.098  17.431   8.250
 5774POPC   C3B20085  35.099  17.411   7.950
 5774POPC   C4B20086  35.086  17.425   7.650
 5775POPC   NC320087  33.038   5.835   9.450
 5775POPC   PO420088  33.066   5.836   9.150
 5775POPC   GL120089  33.023   5.840   8.850
 5775POPC   GL220090  33.127   5.904   8.850
 5775POPC   C1A20091  33.013   5.854   8.550
 5775POPC   D2A20092  32.997   5.918   8.250
 5775POPC   C3A20093  33.065   5.856   7.950
 5775POPC   C4A20094  33.031   5.861   7.650
 5775POPC   C1B20095  33.255   5.952   8.550
 5775POPC   C2B20096  33.220   5.955   8.250
 5775POPC   C3B20097  33.282   5.987   7.950
 5775POPC   C4B20098  33.271   5.986   7.650
 5776POPC   NC320099  33.785  33.846   9.450
 5776POPC   PO420100  33.765  33.803   9.150
 5776POPC   GL120101  33.830  33.777   8.850
 5776POPC   GL220102  33.857  33.886   8.850
 5776POPC   C1A20103  33.777  33.758   8.550
 5776POPC   D2A20104  33.822  33.822   8.250
 5776POPC   C3A20105  33.820  33.843   7.950
 5776POPC   C4A20106  33.848  33.791   7.650
 5776POPC   C1B20107  33.833  34.054   8.550
 5776POPC   C2B20108  33.850  34.027   8.250
 5776POPC   C3B20109  33.832  34.014   7.950
 5776POPC   C4B20110  33.849  34.027   7.650
 5777POPC   NC320111   8.214   9.735   9.450
 5777POPC   PO420112   8.203   9.794   9.150
 5777POPC   GL120113   8.174   9.765   8.850
 5777POPC   GL220114   8.136   9.617   8.850
 5777POPC   C1A20115   8.219   9.709   8.550
 5777POPC   D2A20116   8.226   9.717   8.250
 5777POPC   C3A20117   8.202   9.709   7.950
 5777POPC   C4A20118   8.214   9.732   7.650
 5777POPC   C1B20119   7.999   9.552   8.550
 5777POPC   C2B20120   8.008   9.525   8.250
 5777POPC   C3B20121   8.060   9.567   7.950
 5777POPC   C4B20122   8.028   9.583   7.650
 5778POPC   NC320123  29.889  37.660   9.450
 5778POPC   PO420124  29.940  37.699   9.150
 5778POPC   GL120125  29.941  37.670   8.850
 5778POPC   GL220126  29.895  37.759   8.850
 5778POPC   C1A20127  29.955  37.645   8.550
 5778POPC   D2A20128  29.873  37.670   8.250
 5778POPC   C3A20129  29.961  37.689   7.950
 5778POPC   C4A20130  29.890  37.657   7.650
 5778POPC   C1B20131  29.791  37.887   8.550
 5778POPC   C2B20132  29.797  37.934   8.250
 5778POPC   C3B20133  29.780  37.895   7.950
 5778POPC   C4B20134  29.834  37.899   7.650
 5779POPC   NC320135  31.449  22.927   9.450
 5779POPC   PO420136  31.438  22.889   9.150
 5779POPC   GL120137  31.454  22.982   8.850
 5779POPC   GL220138  31.551  22.852   8.850
 5779POPC   C1A20139  31.450  22.975   8.550
 5779POPC   D2A20140  31.504  22.944   8.250
 5779POPC   C3A20141  31.425  22.969   7.950
 5779POPC   C4A20142  31.447  22.954   7.650
 5779POPC   C1B20143  31.674  22.838   8.550
 5779POPC   C2B20144  31.685  22.853   8.250
 5779POPC   C3B20145  31.703  22.767   7.950
 5779POPC   C4B20146  31.693  22.810   7.650
 5780POPC   NC320147  40.736  27.635   9.450
 5780POPC   PO420148  40.773  27.620   9.150
 5780POPC   GL120149  40.770  27.568   8.850
 5780POPC   GL220150  40.935  27.575   8.850
 5780POPC   C1A20151  40.791  27.567   8.550
 5780POPC   D2A20152  40.827  27.560   8.250
 5780POPC   C3A20153  40.743  27.628   7.950
 5780POPC   C4A20154  40.774  27.643   7.650
 5780POPC   C1B20155  41.034  27.588   8.550
 5780POPC   C2B20156  41.025  27.547   8.250
 5780POPC   C3B20157  40.988  27.575   7.950
 5780POPC   C4B20158  41.044  27.544   7.650
 5781POPC   NC320159  14.414  43.934   9.450
 5781POPC   PO420160  14.384  43.926   9.150
 5781POPC   GL120161  14.368  43.935   8.850
 5781POPC   GL220162  14.497  43.854   8.850
 5781POPC   C1A20163  14.400  43.929   8.550
 5781POPC   D2A20164  14.401  43.931   8.250
 5781POPC   C3A20165  14.417  43.915   7.950
 5781POPC   C4A20166  14.397  43.898   7.650
 5781POPC   C1B20167  14.550  43.735   8.550
 5781POPC   C2B20168  14.591  43.759   8.250
 5781POPC   C3B20169  14.601  43.766   7.950
 5781POPC   C4B20170  14.588  43.714   7.650
 5782POPC   NC320171  12.863   1.187   9.450
 5782POPC   PO420172  12.866   1.194   9.150
 5782POPC   GL120173  12.830   1.191   8.850
 5782POPC   GL220174  12.872   1.081   8.850
 5782POPC   C1A20175  12.885   1.187   8.550
 5782POPC   D2A20176  12.898   1.224   8.250
 5782POPC   C3A20177  12.840   1.248   7.950
 5782POPC   C4A20178  12.821   1.201   7.650
 5782POPC   C1B20179  12.925   0.959   8.550
 5782POPC   C2B20180  12.965   0.982   8.250
 5782POPC   C3B20181  12.885   0.984   7.950
 5782POPC   C4B20182  12.874   0.982   7.650
 5783POPC   NC320183   4.284  41.556   9.450
 5783POPC   PO420184   4.341  41.587   9.150
 5783POPC   GL120185   4.281  41.589   8.850
 5783POPC   GL220186   4.400  41.591   8.850
 5783POPC   C1A20187   4.316  41.577   8.550
 5783POPC   D2A20188   4.287  41.552   8.250
 5783POPC   C3A20189   4.332  41.545   7.950
 5783POPC   C4A20190   4.329  41.551   7.650
 5783POPC   C1B20191   4.583  41.545   8.550
 5783POPC   C2B20192   4.534  41.517   8.250
 5783POPC   C3B20193   4.600  41.578   7.950
 5783POPC   C4B20194   4.580  41.497   7.650
 5784POPC   NC320195  33.041  12.871   9.450
 5784POPC   PO420196  33.050  12.869   9.150
 5784POPC   GL120197  32.992  12.884   8.850
 5784POPC   GL220198  32.894  12.896   8.850
 5784POPC   C1A20199  33.004  12.834   8.550
 5784POPC   D2A20200  33.037  12.881   8.250
 5784POPC   C3A20201  33.045  12.845   7.950
 5784POPC   C4A20202  33.046  12.842   7.650
 5784POPC   C1B20203  32.823  12.954   8.550
 5784POPC   C2B20204  32.756  12.943   8.250
 5784POPC   C3B20205  32.843  12.974   7.950
 5784POPC   C4B20206  32.757  12.983   7.650
 5785POPC   NC320207  44.649   3.531   9.450
 5785POPC   PO420208  44.643   3.537   9.150
 5785POPC   GL120209  44.620   3.560   8.850
 5785POPC   GL220210  44.780   3.489   8.850
 5785POPC   C1A20211  44.681   3.568   8.550
 5785POPC   D2A20212  44.685   3.530   8.250
 5785POPC   C3A20213  44.699   3.507   7.950
 5785POPC   C4A20214  44.623   3.573   7.650
 5785POPC   C1B20215  44.897   3.475   8.550
 5785POPC   C2B20216  44.936   3.419   8.250
 5785POPC   C3B20217  44.922   3.428   7.950
 5785POPC   C4B20218  44.846   3.435   7.650
 5786POPC   NC320219  23.713  15.945   9.450
 5786POPC   PO420220  23.671  15.988   9.150
 5786POPC   GL120221  23.681  15.922   8.850
 5786POPC   GL220222  23.562  16.017   8.850
 5786POPC   C1A20223  23.707  15.976   8.550
 5786POPC   D2A20224  23.733  15.956   8.250
 5786POPC   C3A20225  23.701  15.935   7.950
 5786POPC   C4A20226  23.704  15.965   7.650
 5786POPC   C1B20227  23.474  16.037   8.550
 5786POPC   C2B20228  23.498  15.973   8.250
 5786POPC   C3B20229  23.469  15.950   7.950
 5786POPC   C4B20230  23.516  15.980   7.650
 5787POPC   NC320231  23.682  28.353   9.450
 5787POPC   PO420232  23.751  28.358   9.150
 5787POPC   GL120233  23.733  28.325   8.850
 5787POPC   GL220234  23.684  28.228   8.850
 5787POPC   C1A20235  23.758  28.336   8.550
 5787POPC   D2A20236  23.701  28.374   8.250
 5787POPC   C3A20237  23.755  28.338   7.950
 5787POPC   C4A20238  23.709  28.383   7.650
 5787POPC   C1B20239  23.732  28.161   8.550
 5787POPC   C2B20240  23.741  28.159   8.250
 5787POPC   C3B20241  23.753  28.169   7.950
 5787POPC   C4B20242  23.726  28.108   7.650
 5788POPC   NC320243  13.656   1.192   9.450
 5788POPC   PO420244  13.669   1.217   9.150
 5788POPC   GL120245  13.677   1.175   8.850
 5788POPC   GL220246  13.507   1.262   8.850
 5788POPC   C1A20247  13.631   1.177   8.550
 5788POPC   D2A20248  13.646   1.192   8.250
 5788POPC   C3A20249  13.642   1.230   7.950
 5788POPC   C4A20250  13.668   1.254   7.650
 5788POPC   C1B20251  13.426   1.327   8.550
 5788POPC   C2B20252  13.422   1.276   8.250
 5788POPC   C3B20253  13.352   1.327   7.950
 5788POPC   C4B20254  13.403   1.289   7.650
 5789POPC   NC320255  21.379   5.093   9.450
 5789POPC   PO420256  21.418   5.126   9.150
 5789POPC   GL120257  21.345   5.063   8.850
 5789POPC   GL220258  21.461   4.991   8.850
 5789POPC   C1A20259  21.378   5.062   8.550
 5789POPC   D2A20260  21.420   5.112   8.250
 5789POPC   C3A20261  21.424   5.071   7.950
 5789POPC   C4A20262  21.414   5.140   7.650
 5789POPC   C1B20263  21.573   4.953   8.550
 5789POPC   C2B20264  21.635   4.913   8.250
 5789POPC   C3B20265  21.632   4.932   7.950
 5789POPC   C4B20266  21.569   4.994   7.650
 5790POPC   NC320267  32.249  26.772   9.450
 5790POPC   PO420268  32.202  26.843   9.150
 5790POPC   GL120269  32.213  26.807   8.850
 5790POPC   GL220270  32.138  26.766   8.850
 5790POPC   C1A20271  32.215  26.863   8.550
 5790POPC   D2A20272  32.235  26.837   8.250
 5790POPC   C3A20273  32.208  26.855   7.950
 5790POPC   C4A20274  32.229  26.841   7.650
 5790POPC   C1B20275  32.062  26.671   8.550
 5790POPC   C2B20276  32.062  26.732   8.250
 5790POPC   C3B20277  32.000  26.689   7.950
 5790POPC   C4B20278  32.043  26.709   7.650
 5791POPC   NC320279   1.251  10.550   9.450
 5791POPC   PO420280   1.190  10.484   9.150
 5791POPC   GL120281   1.255  10.561   8.850
 5791POPC   GL220282   1.292  10.469   8.850
 5791POPC   C1A20283   1.176  10.487   8.550
 5791POPC   D2A20284   1.234  10.543   8.250
 5791POPC   C3A20285   1.254  10.558   7.950
 5791POPC   C4A20286   1.183  10.510   7.650
 5791POPC   C1B20287   1.446  10.396   8.550
 5791POPC   C2B20288   1.448  10.441   8.250
 5791POPC   C3B20289   1.479  10.399   7.950
 5791POPC   C4B20290   1.439  10.457   7.650
 5792POPC   NC320291  39.991  19.068   9.450
 5792POPC   PO420292  40.033  19.089   9.150
 5792POPC   GL120293  39.999  19.042   8.850
 5792POPC   GL220294  40.127  18.951   8.850
 5792POPC   C1A20295  39.976  19.017   8.550
 5792POPC   D2A20296  39.971  19.076   8.250
 5792POPC   C3A20297  40.056  19.055   7.950
 5792POPC   C4A20298  40.038  19.054   7.650
 5792POPC   C1B20299  40.267  18.921   8.550
 5792POPC   C2B20300  40.271  18.963   8.250
 5792POPC   C3B20301  40.207  18.895   7.950
 5792POPC   C4B20302  40.216  18.970   7.650
 5793POPC   NC320303  44.687  21.404   9.450
 5793POPC   PO420304  44.659  21.425   9.150
 5793POPC   GL120305  44.632  21.388   8.850
 5793POPC   GL220306  44.569  21.472   8.850
 5793POPC   C1A20307  44.647  21.380   8.550
 5793POPC   D2A20308  44.689  21.428   8.250
 5793POPC   C3A20309  44.708  21.434   7.950
 5793POPC   C4A20310  44.635  21.423   7.650
 5793POPC   C1B20311  44.554  21.596   8.550
 5793POPC   C2B20312  44.604  21.598   8.250
 5793POPC   C3B20313  44.552  21.600   7.950
 5793POPC   C4B20314  44.552  21.664   7.650
 5794POPC   NC320315  39.984  42.384   9.450
 5794POPC   PO420316  39.972  42.371   9.150
 5794POPC   GL120317  39.995  42.370   8.850
 5794POPC   GL220318  39.976  42.215   8.850
 5794POPC   C1A20319  40.037  42.361   8.550
 5794POPC   D2A20320  40.050  42.346   8.250
 5794POPC   C3A20321  39.980  42.361   7.950
 5794POPC   C4A20322  39.961  42.315   7.650
 5794POPC   C1B20323  39.927  42.110   8.550
 5794POPC   C2B20324  39.890  42.093   8.250
 5794POPC   C3B20325  39.944  42.071   7.950
 5794POPC   C4B20326  39.874  42.074   7.650
 5795POPC   NC320327  43.145   8.241   9.450
 5795POPC   PO420328  43.129   8.226   9.150
 5795POPC   GL120329  43.117   8.180   8.850
 5795POPC   GL220330  43.157   8.287   8.850
 5795POPC   C1A20331  43.125   8.159   8.550
 5795POPC   D2A20332  43.089   8.170   8.250
 5795POPC   C3A20333  43.120   8.211   7.950
 5795POPC   C4A20334  43.151   8.227   7.650
 5795POPC   C1B20335  43.174   8.468   8.550
 5795POPC   C2B20336  43.185   8.419   8.250
 5795POPC   C3B20337  43.096   8.481   7.950
 5795POPC   C4B20338  43.137   8.478   7.650
 5796POPC   NC320339   2.811  40.748   9.450
 5796POPC   PO420340   2.804  40.745   9.150
 5796POPC   GL120341   2.782  40.771   8.850
 5796POPC   GL220342   2.686  40.826   8.850
 5796POPC   C1A20343   2.784  40.772   8.550
 5796POPC   D2A20344   2.733  40.736   8.250
 5796POPC   C3A20345   2.778  40.832   7.950
 5796POPC   C4A20346   2.779  40.824   7.650
 5796POPC   C1B20347   2.546  40.790   8.550
 5796POPC   C2B20348   2.561  40.854   8.250
 5796POPC   C3B20349   2.500  40.797   7.950
 5796POPC   C4B20350   2.566  40.850   7.650
 5797POPC   NC320351  43.909  28.350   9.450
 5797POPC   PO420352  43.849  28.367   9.150
 5797POPC   GL120353  43.890  28.403   8.850
 5797POPC   GL220354  43.825  28.239   8.850
 5797POPC   C1A20355  43.850  28.407   8.550
 5797POPC   D2A20356  43.860  28.383   8.250
 5797POPC   C3A20357  43.894  28.411   7.950
 5797POPC   C4A20358  43.878  28.358   7.650
 5797POPC   C1B20359  43.794  28.154   8.550
 5797POPC   C2B20360  43.839  28.123   8.250
 5797POPC   C3B20361  43.812  28.095   7.950
 5797POPC   C4B20362  43.784  28.138   7.650
 5798POPC   NC320363  29.958  32.275   9.450
 5798POPC   PO420364  29.939  32.208   9.150
 5798POPC   GL120365  29.958  32.263   8.850
 5798POPC   GL220366  29.861  32.091   8.850
 5798POPC   C1A20367  29.873  32.267   8.550
 5798POPC   D2A20368  29.962  32.266   8.250
 5798POPC   C3A20369  29.883  32.229   7.950
 5798POPC   C4A20370  29.888  32.244   7.650
 5798POPC   C1B20371  29.806  31.980   8.550
 5798POPC   C2B20372  29.841  32.011   8.250
 5798POPC   C3B20373  29.837  32.057   7.950
 5798POPC   C4B20374  29.840  31.974   7.650
 5799POPC   NC320375   6.631  13.605   9.450
 5799POPC   PO420376   6.597  13.612   9.150
 5799POPC   GL120377   6.620  13.602   8.850
 5799POPC   GL220378   6.693  13.501   8.850
 5799POPC   C1A20379   6.656  13.634   8.550
 5799POPC   D2A20380   6.612  13.591   8.250
 5799POPC   C3A20381   6.643  13.609   7.950
 5799POPC   C4A20382   6.692  13.644   7.650
 5799POPC   C1B20383   6.836  13.458   8.550
 5799POPC   C2B20384   6.807  13.416   8.250
 5799POPC   C3B20385   6.853  13.391   7.950
 5799POPC   C4B20386   6.760  13.483   7.650
 5800POPC   NC320387  17.540  40.039   9.450
 5800POPC   PO420388  17.513  39.966   9.150
 5800POPC   GL120389  17.467  39.994   8.850
 5800POPC   GL220390  17.588  39.863   8.850
 5800POPC   C1A20391  17.480  40.045   8.550
 5800POPC   D2A20392  17.500  40.000   8.250
 5800POPC   C3A20393  17.543  40.021   7.950
 5800POPC   C4A20394  17.498  39.991   7.650
 5800POPC   C1B20395  17.607  39.801   8.550
 5800POPC   C2B20396  17.524  39.768   8.250
 5800POPC   C3B20397  17.590  39.728   7.950
 5800POPC   C4B20398  17.577  39.721   7.650
 5801POPC   NC320399  10.512   4.312   9.450
 5801POPC   PO420400  10.493   4.315   9.150
 5801POPC   GL120401  10.505   4.283   8.850
 5801POPC   GL220402  10.567   4.392   8.850
 5801POPC   C1A20403  10.475   4.351   8.550
 5801POPC   D2A20404  10.570   4.323   8.250
 5801POPC   C3A20405  10.535   4.297   7.950
 5801POPC   C4A20406  10.499   4.287   7.650
 5801POPC   C1B20407  10.507   4.611   8.550
 5801POPC   C2B20408  10.484   4.594   8.250
 5801POPC   C3B20409  10.484   4.592   7.950
 5801POPC   C4B20410  10.483   4.592   7.650
 5802POPC   NC320411  33.781  43.873   9.450
 5802POPC   PO420412  33.757  43.850   9.150
 5802POPC   GL120413  33.796  43.841   8.850
 5802POPC   GL220414  33.943  43.955   8.850
 5802POPC   C1A20415  33.762  43.844   8.550
 5802POPC   D2A20416  33.833  43.848   8.250
 5802POPC   C3A20417  33.785  43.897   7.950
 5802POPC   C4A20418  33.806  43.874   7.650
 5802POPC   C1B20419  34.007  43.909   8.550
 5802POPC   C2B20420  34.024  43.978   8.250
 5802POPC   C3B20421  34.047  43.966   7.950
 5802POPC   C4B20422  34.063  43.912   7.650
 5803POPC   NC320423  37.699  41.599   9.450
 5803POPC   PO420424  37.672  41.576   9.150
 5803POPC   GL120425  37.632  41.568   8.850
 5803POPC   GL220426  37.797  41.560   8.850
 5803POPC   C1A20427  37.654  41.590   8.550
 5803POPC   D2A20428  37.696  41.605   8.250
 5803POPC   C3A20429  37.638  41.595   7.950
 5803POPC   C4A20430  37.646  41.572   7.650
 5803POPC   C1B20431  37.914  41.622   8.550
 5803POPC   C2B20432  37.919  41.614   8.250
 5803POPC   C3B20433  37.946  41.605   7.950
 5803POPC   C4B20434  37.892  41.571   7.650
 5804POPC   NC320435  43.143  33.044   9.450
 5804POPC   PO420436  43.114  33.022   9.150
 5804POPC   GL120437  43.117  33.005   8.850
 5804POPC   GL220438  43.174  32.945   8.850
 5804POPC   C1A20439  43.156  33.000   8.550
 5804POPC   D2A20440  43.140  32.990   8.250
 5804POPC   C3A20441  43.152  33.013   7.950
 5804POPC   C4A20442  43.113  32.991   7.650
 5804POPC   C1B20443  43.216  32.861   8.550
 5804POPC   C2B20444  43.251  32.831   8.250
 5804POPC   C3B20445  43.215  32.862   7.950
 5804POPC   C4B20446  43.295  32.782   7.650
 5805POPC   NC320447  25.293  19.103   9.450
 5805POPC   PO420448  25.217  19.108   9.150
 5805POPC   GL120449  25.256  19.053   8.850
 5805POPC   GL220450  25.187  19.164   8.850
 5805POPC   C1A20451  25.267  19.085   8.550
 5805POPC   D2A20452  25.251  19.103   8.250
 5805POPC   C3A20453  25.298  19.018   7.950
 5805POPC   C4A20454  25.299  19.079   7.650
 5805POPC   C1B20455  25.107  19.284   8.550
 5805POPC   C2B20456  25.124  19.259   8.250
 5805POPC   C3B20457  25.155  19.277   7.950
 5805POPC   C4B20458  25.132  19.312   7.650
 5806POPC   NC320459   9.719   1.249   9.450
 5806POPC   PO420460   9.721   1.232   9.150
 5806POPC   GL120461   9.778   1.186   8.850
 5806POPC   GL220462   9.669   1.195   8.850
 5806POPC   C1A20463   9.707   1.214   8.550
 5806POPC   D2A20464   9.721   1.261   8.250
 5806POPC   C3A20465   9.714   1.231   7.950
 5806POPC   C4A20466   9.775   1.263   7.650
 5806POPC   C1B20467   9.572   1.103   8.550
 5806POPC   C2B20468   9.508   1.103   8.250
 5806POPC   C3B20469   9.486   1.099   7.950
 5806POPC   C4B20470   9.506   1.049   7.650
 5807POPC   NC320471  30.738  26.036   9.450
 5807POPC   PO420472  30.727  26.070   9.150
 5807POPC   GL120473  30.735  26.031   8.850
 5807POPC   GL220474  30.645  26.118   8.850
 5807POPC   C1A20475  30.701  26.037   8.550
 5807POPC   D2A20476  30.736  26.019   8.250
 5807POPC   C3A20477  30.712  26.038   7.950
 5807POPC   C4A20478  30.688  26.082   7.650
 5807POPC   C1B20479  30.567  26.200   8.550
 5807POPC   C2B20480  30.490  26.228   8.250
 5807POPC   C3B20481  30.561  26.215   7.950
 5807POPC   C4B20482  30.532  26.272   7.650
 5808POPC   NC320483   8.972  44.638   9.450
 5808POPC   PO420484   8.998  44.647   9.150
 5808POPC   GL120485   8.932  44.621   8.850
 5808POPC   GL220486   8.876  44.737   8.850
 5808POPC   C1A20487   8.934  44.692   8.550
 5808POPC   D2A20488   8.923  44.636   8.250
 5808POPC   C3A20489   8.984  44.654   7.950
 5808POPC   C4A20490   8.949  44.685   7.650
 5808POPC   C1B20491   8.767  44.770   8.550
 5808POPC   C2B20492   8.733  44.790   8.250
 5808POPC   C3B20493   8.747  44.801   7.950
 5808POPC   C4B20494   8.711  44.752   7.650
 5809POPC   NC320495  29.930  42.326   9.450
 5809POPC   PO420496  29.922  42.377   9.150
 5809POPC   GL120497  29.873  42.311   8.850
 5809POPC   GL220498  30.011  42.422   8.850
 5809POPC   C1A20499  29.912  42.346   8.550
 5809POPC   D2A20500  29.947  42.330   8.250
 5809POPC   C3A20501  29.951  42.318   7.950
 5809POPC   C4A20502  29.971  42.333   7.650
 5809POPC   C1B20503  30.078  42.567   8.550
 5809POPC   C2B20504  30.045  42.533   8.250
 5809POPC   C3B20505  30.080  42.605   7.950
 5809POPC   C4B20506  30.013  42.528   7.650
 5810POPC   NC320507   2.773   5.839   9.450
 5810POPC   PO420508   2.749   5.822   9.150
 5810POPC   GL120509   2.812   5.897   8.850
 5810POPC   GL220510   2.731   6.025   8.850
 5810POPC   C1A20511   2.736   5.848   8.550
 5810POPC   D2A20512   2.761   5.845   8.250
 5810POPC   C3A20513   2.740   5.836   7.950
 5810POPC   C4A20514   2.748   5.846   7.650
 5810POPC   C1B20515   2.750   6.094   8.550
 5810POPC   C2B20516   2.815   6.068   8.250
 5810POPC   C3B20517   2.744   6.164   7.950
 5810POPC   C4B20518   2.784   6.086   7.650
 5811POPC   NC320519  20.654  20.579   9.450
 5811POPC   PO420520  20.572  20.601   9.150
 5811POPC   GL120521  20.614  20.626   8.850
 5811POPC   GL220522  20.538  20.753   8.850
 5811POPC   C1A20523  20.659  20.581   8.550
 5811POPC   D2A20524  20.566  20.579   8.250
 5811POPC   C3A20525  20.623  20.597   7.950
 5811POPC   C4A20526  20.641  20.573   7.650
 5811POPC   C1B20527  20.421  20.825   8.550
 5811POPC   C2B20528  20.488  20.802   8.250
 5811POPC   C3B20529  20.437  20.808   7.950
 5811POPC   C4B20530  20.441  20.821   7.650
 5812POPC   NC320531  12.030   4.365   9.450
 5812POPC   PO420532  12.077   4.363   9.150
 5812POPC   GL120533  12.121   4.274   8.850
 5812POPC   GL220534  12.105   4.229   8.850
 5812POPC   C1A20535  12.057   4.269   8.550
 5812POPC   D2A20536  12.121   4.293   8.250
 5812POPC   C3A20537  12.116   4.349   7.950
 5812POPC   C4A20538  12.079   4.296   7.650
 5812POPC   C1B20539  12.053   4.102   8.550
 5812POPC   C2B20540  12.124   4.098   8.250
 5812POPC   C3B20541  12.057   4.078   7.950
 5812POPC   C4B20542  12.114   4.021   7.650
 5813POPC   NC320543  44.695  11.321   9.450
 5813POPC   PO420544  44.625  11.326   9.150
 5813POPC   GL120545  44.664  11.295   8.850
 5813POPC   GL220546  44.679  11.376   8.850
 5813POPC   C1A20547  44.626  11.318   8.550
 5813POPC   D2A20548  44.665  11.291   8.250
 5813POPC   C3A20549  44.691  11.253   7.950
 5813POPC   C4A20550  44.657  11.326   7.650
 5813POPC   C1B20551  44.651  11.553   8.550
 5813POPC   C2B20552  44.632  11.546   8.250
 5813POPC   C3B20553  44.616  11.506   7.950
 5813POPC   C4B20554  44.686  11.585   7.650
 5814POPC   NC320555  31.479  10.553   9.450
 5814POPC   PO420556  31.494  10.567   9.150
 5814POPC   GL120557  31.475  10.485   8.850
 5814POPC   GL220558  31.433  10.681   8.850
 5814POPC   C1A20559  31.437  10.501   8.550
 5814POPC   D2A20560  31.470  10.533   8.250
 5814POPC   C3A20561  31.508  10.546   7.950
 5814POPC   C4A20562  31.476  10.532   7.650
 5814POPC   C1B20563  31.476  10.774   8.550
 5814POPC   C2B20564  31.471  10.779   8.250
 5814POPC   C3B20565  31.465  10.807   7.950
 5814POPC   C4B20566  31.485  10.753   7.650
 5815POPC   NC320567  14.441  15.185   9.450
 5815POPC   PO420568  14.439  15.139   9.150
 5815POPC   GL120569  14.368  15.162   8.850
 5815POPC   GL220570  14.343  15.277   8.850
 5815POPC   C1A20571  14.433  15.212   8.550
 5815POPC   D2A20572  14.411  15.215   8.250
 5815POPC   C3A20573  14.447  15.170   7.950
 5815POPC   C4A20574  14.359  15.153   7.650
 5815POPC   C1B20575  14.288  15.388   8.550
 5815POPC   C2B20576  14.283  15.411   8.250
 5815POPC   C3B20577  14.255  15.416   7.950
 5815POPC   C4B20578  14.222  15.410   7.650
 5816POPC   NC320579  11.302  32.271   9.450
 5816POPC   PO420580  11.275  32.232   9.150
 5816POPC   GL120581  11.269  32.290   8.850
 5816POPC   GL220582  11.353  32.128   8.850
 5816POPC   C1A20583  11.326  32.203   8.550
 5816POPC   D2A20584  11.284  32.292   8.250
 5816POPC   C3A20585  11.269  32.258   7.950
 5816POPC   C4A20586  11.283  32.245   7.650
 5816POPC   C1B20587  11.427  32.054   8.550
 5816POPC   C2B20588  11.446  32.021   8.250
 5816POPC   C3B20589  11.450  32.062   7.950
 5816POPC   C4B20590  11.371  32.040   7.650
 5817POPC   NC320591  22.177  19.035   9.450
 5817POPC   PO420592  22.141  19.092   9.150
 5817POPC   GL120593  22.196  19.055   8.850
 5817POPC   GL220594  22.294  19.022   8.850
 5817POPC   C1A20595  22.116  19.051   8.550
 5817POPC   D2A20596  22.211  19.010   8.250
 5817POPC   C3A20597  22.175  19.082   7.950
 5817POPC   C4A20598  22.177  19.051   7.650
 5817POPC   C1B20599  22.447  19.072   8.550
 5817POPC   C2B20600  22.424  19.060   8.250
 5817POPC   C3B20601  22.454  19.010   7.950
 5817POPC   C4B20602  22.412  19.038   7.650
 5818POPC   NC320603   3.532   1.947   9.450
 5818POPC   PO420604   3.572   1.956   9.150
 5818POPC   GL120605   3.572   1.979   8.850
 5818POPC   GL220606   3.693   1.965   8.850
 5818POPC   C1A20607   3.510   1.986   8.550
 5818POPC   D2A20608   3.506   2.040   8.250
 5818POPC   C3A20609   3.498   2.027   7.950
 5818POPC   C4A20610   3.556   1.993   7.650
 5818POPC   C1B20611   3.823   1.909   8.550
 5818POPC   C2B20612   3.794   1.954   8.250
 5818POPC   C3B20613   3.762   1.958   7.950
 5818POPC   C4B20614   3.807   1.937   7.650
 5819POPC   NC320615   2.022  41.547   9.450
 5819POPC   PO420616   1.997  41.564   9.150
 5819POPC   GL120617   1.974  41.582   8.850
 5819POPC   GL220618   1.946  41.435   8.850
 5819POPC   C1A20619   1.971  41.575   8.550
 5819POPC   D2A20620   1.974  41.584   8.250
 5819POPC   C3A20621   2.023  41.573   7.950
 5819POPC   C4A20622   2.003  41.578   7.650
 5819POPC   C1B20623   1.867  41.364   8.550
 5819POPC   C2B20624   1.876  41.285   8.250
 5819POPC   C3B20625   1.842  41.372   7.950
 5819POPC   C4B20626   1.913  41.362   7.650
 5820POPC   NC320627   9.752  38.408   9.450
 5820POPC   PO420628   9.706  38.481   9.150
 5820POPC   GL120629   9.728  38.419   8.850
 5820POPC   GL220630   9.668  38.546   8.850
 5820POPC   C1A20631   9.716  38.461   8.550
 5820POPC   D2A20632   9.721  38.504   8.250
 5820POPC   C3A20633   9.762  38.457   7.950
 5820POPC   C4A20634   9.760  38.446   7.650
 5820POPC   C1B20635   9.659  38.672   8.550
 5820POPC   C2B20636   9.664  38.682   8.250
 5820POPC   C3B20637   9.577  38.628   7.950
 5820POPC   C4B20638   9.602  38.656   7.650
 5821POPC   NC320639  34.616  35.400   9.450
 5821POPC   PO420640  34.586  35.356   9.150
 5821POPC   GL120641  34.526  35.331   8.850
 5821POPC   GL220642  34.495  35.262   8.850
 5821POPC   C1A20643  34.545  35.361   8.550
 5821POPC   D2A20644  34.614  35.380   8.250
 5821POPC   C3A20645  34.622  35.303   7.950
 5821POPC   C4A20646  34.624  35.377   7.650
 5821POPC   C1B20647  34.388  35.142   8.550
 5821POPC   C2B20648  34.469  35.151   8.250
 5821POPC   C3B20649  34.457  35.165   7.950
 5821POPC   C4B20650  34.452  35.179   7.650
 5822POPC   NC320651  22.210  28.418   9.450
 5822POPC   PO420652  22.166  28.331   9.150
 5822POPC   GL120653  22.153  28.387   8.850
 5822POPC   GL220654  22.277  28.294   8.850
 5822POPC   C1A20655  22.155  28.359   8.550
 5822POPC   D2A20656  22.150  28.330   8.250
 5822POPC   C3A20657  22.204  28.360   7.950
 5822POPC   C4A20658  22.145  28.400   7.650
 5822POPC   C1B20659  22.373  28.226   8.550
 5822POPC   C2B20660  22.429  28.266   8.250
 5822POPC   C3B20661  22.391  28.244   7.950
 5822POPC   C4B20662  22.367  28.200   7.650
 5823POPC   NC320663  10.506  22.170   9.450
 5823POPC   PO420664  10.569  22.117   9.150
 5823POPC   GL120665  10.539  22.147   8.850
 5823POPC   GL220666  10.364  22.163   8.850
 5823POPC   C1A20667  10.542  22.136   8.550
 5823POPC   D2A20668  10.537  22.121   8.250
 5823POPC   C3A20669  10.567  22.132   7.950
 5823POPC   C4A20670  10.524  22.162   7.650
 5823POPC   C1B20671  10.260  22.241   8.550
 5823POPC   C2B20672  10.266  22.202   8.250
 5823POPC   C3B20673  10.255  22.210   7.950
 5823POPC   C4B20674  10.246  22.155   7.650
 5824POPC   NC320675   7.391  15.972   9.450
 5824POPC   PO420676   7.437  15.976   9.150
 5824POPC   GL120677   7.381  15.964   8.850
 5824POPC   GL220678   7.539  15.998   8.850
 5824POPC   C1A20679   7.422  15.963   8.550
 5824POPC   D2A20680   7.402  15.973   8.250
 5824POPC   C3A20681   7.393  15.967   7.950
 5824POPC   C4A20682   7.456  15.963   7.650
 5824POPC   C1B20683   7.701  15.994   8.550
 5824POPC   C2B20684   7.684  15.944   8.250
 5824POPC   C3B20685   7.679  15.925   7.950
 5824POPC   C4B20686   7.702  15.917   7.650
 5825POPC   NC320687   5.903  31.426   9.450
 5825POPC   PO420688   5.911  31.452   9.150
 5825POPC   GL120689   5.919  31.453   8.850
 5825POPC   GL220690   5.891  31.619   8.850
 5825POPC   C1A20691   5.861  31.474   8.550
 5825POPC   D2A20692   5.919  31.492   8.250
 5825POPC   C3A20693   5.904  31.434   7.950
 5825POPC   C4A20694   5.847  31.434   7.650
 5825POPC   C1B20695   5.862  31.744   8.550
 5825POPC   C2B20696   5.881  31.710   8.250
 5825POPC   C3B20697   5.881  31.693   7.950
 5825POPC   C4B20698   5.855  31.754   7.650
 5826POPC   NC320699  43.140  25.298   9.450
 5826POPC   PO420700  43.109  25.228   9.150
 5826POPC   GL120701  43.103  25.274   8.850
 5826POPC   GL220702  43.242  25.350   8.850
 5826POPC   C1A20703  43.067  25.221   8.550
 5826POPC   D2A20704  43.085  25.270   8.250
 5826POPC   C3A20705  43.147  25.304   7.950
 5826POPC   C4A20706  43.144  25.297   7.650
 5826POPC   C1B20707  43.237  25.450   8.550
 5826POPC   C2B20708  43.322  25.411   8.250
 5826POPC   C3B20709  43.291  25.464   7.950
 5826POPC   C4B20710  43.315  25.473   7.650
 5827POPC   NC320711  26.035  30.680   9.450
 5827POPC   PO420712  25.999  30.722   9.150
 5827POPC   GL120713  26.015  30.742   8.850
 5827POPC   GL220714  25.925  30.728   8.850
 5827POPC   C1A20715  25.999  30.724   8.550
 5827POPC   D2A20716  26.005  30.746   8.250
 5827POPC   C3A20717  26.053  30.679   7.950
 5827POPC   C4A20718  26.028  30.684   7.650
 5827POPC   C1B20719  25.830  30.723   8.550
 5827POPC   C2B20720  25.818  30.723   8.250
 5827POPC   C3B20721  25.764  30.698   7.950
 5827POPC   C4B20722  25.772  30.722   7.650
 5828POPC   NC320723   5.094  12.122   9.450
 5828POPC   PO420724   5.070  12.073   9.150
 5828POPC   GL120725   5.044  12.078   8.850
 5828POPC   GL220726   5.009  11.959   8.850
 5828POPC   C1A20727   5.111  12.042   8.550
 5828POPC   D2A20728   5.056  12.087   8.250
 5828POPC   C3A20729   5.045  12.068   7.950
 5828POPC   C4A20730   5.065  12.078   7.650
 5828POPC   C1B20731   4.911  11.924   8.550
 5828POPC   C2B20732   4.938  11.856   8.250
 5828POPC   C3B20733   4.892  11.887   7.950
 5828POPC   C4B20734   4.945  11.889   7.650
 5829POPC   NC320735  29.188  19.867   9.450
 5829POPC   PO420736  29.103  19.880   9.150
 5829POPC   GL120737  29.142  19.853   8.850
 5829POPC   GL220738  28.975  19.851   8.850
 5829POPC   C1A20739  29.145  19.800   8.550
 5829POPC   D2A20740  29.179  19.814   8.250
 5829POPC   C3A20741  29.121  19.843   7.950
 5829POPC   C4A20742  29.127  19.847   7.650
 5829POPC   C1B20743  28.867  19.887   8.550
 5829POPC   C2B20744  28.882  19.811   8.250
 5829POPC   C3B20745  28.864  19.890   7.950
 5829POPC   C4B20746  28.859  19.846   7.650
 5830POPC   NC320747  39.239  43.930   9.450
 5830POPC   PO420748  39.260  43.885   9.150
 5830POPC   GL120749  39.198  43.928   8.850
 5830POPC   GL220750  39.364  43.912   8.850
 5830POPC   C1A20751  39.254  43.902   8.550
 5830POPC   D2A20752  39.223  43.848   8.250
 5830POPC   C3A20753  39.209  43.919   7.950
 5830POPC   C4A20754  39.196  43.885   7.650
 5830POPC   C1B20755  39.511  43.896   8.550
 5830POPC   C2B20756  39.480  43.868   8.250
 5830POPC   C3B20757  39.461  43.840   7.950
 5830POPC   C4B20758  39.458  43.867   7.650
 5831POPC   NC320759  25.220   5.091   9.450
 5831POPC   PO420760  25.222   5.121   9.150
 5831POPC   GL120761  25.310   5.098   8.850
 5831POPC   GL220762  25.203   5.049   8.850
 5831POPC   C1A20763  25.227   5.060   8.550
 5831POPC   D2A20764  25.220   5.102   8.250
 5831POPC   C3A20765  25.301   5.098   7.950
 5831POPC   C4A20766  25.279   5.128   7.650
 5831POPC   C1B20767  25.091   4.940   8.550
 5831POPC   C2B20768  25.074   4.919   8.250
 5831POPC   C3B20769  25.058   4.963   7.950
 5831POPC   C4B20770  25.081   4.897   7.650
 5832POPC   NC320771  40.738  41.575   9.450
 5832POPC   PO420772  40.828  41.554   9.150
 5832POPC   GL120773  40.736  41.533   8.850
 5832POPC   GL220774  40.801  41.482   8.850
 5832POPC   C1A20775  40.758  41.522   8.550
 5832POPC   D2A20776  40.828  41.591   8.250
 5832POPC   C3A20777  40.779  41.550   7.950
 5832POPC   C4A20778  40.766  41.565   7.650
 5832POPC   C1B20779  40.856  41.328   8.550
 5832POPC   C2B20780  40.867  41.356   8.250
 5832POPC   C3B20781  40.834  41.277   7.950
 5832POPC   C4B20782  40.805  41.346   7.650
 5833POPC   NC320783  42.360  33.758   9.450
 5833POPC   PO420784  42.311  33.840   9.150
 5833POPC   GL120785  42.323  33.827   8.850
 5833POPC   GL220786  42.241  33.830   8.850
 5833POPC   C1A20787  42.366  33.761   8.550
 5833POPC   D2A20788  42.285  33.813   8.250
 5833POPC   C3A20789  42.364  33.847   7.950
 5833POPC   C4A20790  42.285  33.760   7.650
 5833POPC   C1B20791  42.101  33.979   8.550
 5833POPC   C2B20792  42.134  33.930   8.250
 5833POPC   C3B20793  42.100  33.889   7.950
 5833POPC   C4B20794  42.085  33.917   7.650
 5834POPC   NC320795   2.762   8.184   9.450
 5834POPC   PO420796   2.795   8.185   9.150
 5834POPC   GL120797   2.756   8.184   8.850
 5834POPC   GL220798   2.827   8.305   8.850
 5834POPC   C1A20799   2.809   8.240   8.550
 5834POPC   D2A20800   2.749   8.194   8.250
 5834POPC   C3A20801   2.800   8.193   7.950
 5834POPC   C4A20802   2.807   8.221   7.650
 5834POPC   C1B20803   3.009   8.381   8.550
 5834POPC   C2B20804   2.967   8.382   8.250
 5834POPC   C3B20805   3.020   8.305   7.950
 5834POPC   C4B20806   2.950   8.286   7.650
 5835POPC   NC320807  14.366  35.343   9.450
 5835POPC   PO420808  14.396  35.310   9.150
 5835POPC   GL120809  14.371  35.304   8.850
 5835POPC   GL220810  14.429  35.444   8.850
 5835POPC   C1A20811  14.403  35.383   8.550
 5835POPC   D2A20812  14.418  35.330   8.250
 5835POPC   C3A20813  14.376  35.316   7.950
 5835POPC   C4A20814  14.404  35.330   7.650
 5835POPC   C1B20815  14.548  35.614   8.550
 5835POPC   C2B20816  14.487  35.569   8.250
 5835POPC   C3B20817  14.483  35.620   7.950
 5835POPC   C4B20818  14.534  35.614   7.650
 5836POPC   NC320819  40.038  24.526   9.450
 5836POPC   PO420820  39.991  24.512   9.150
 5836POPC   GL120821  39.976  24.509   8.850
 5836POPC   GL220822  40.092  24.483   8.850
 5836POPC   C1A20823  40.016  24.520   8.550
 5836POPC   D2A20824  39.994  24.537   8.250
 5836POPC   C3A20825  40.035  24.521   7.950
 5836POPC   C4A20826  39.975  24.492   7.650
 5836POPC   C1B20827  40.226  24.519   8.550
 5836POPC   C2B20828  40.278  24.537   8.250
 5836POPC   C3B20829  40.261  24.469   7.950
 5836POPC   C4B20830  40.298  24.482   7.650
 5837POPC   NC320831   1.200  13.641   9.450
 5837POPC   PO420832   1.228  13.675   9.150
 5837POPC   GL120833   1.222  13.651   8.850
 5837POPC   GL220834   1.373  13.655   8.850
 5837POPC   C1A20835   1.203  13.639   8.550
 5837POPC   D2A20836   1.176  13.627   8.250
 5837POPC   C3A20837   1.245  13.604   7.950
 5837POPC   C4A20838   1.185  13.653   7.650
 5837POPC   C1B20839   1.484  13.707   8.550
 5837POPC   C2B20840   1.457  13.661   8.250
 5837POPC   C3B20841   1.441  13.680   7.950
 5837POPC   C4B20842   1.443  13.670   7.650
 5838POPC   NC320843  19.840  10.572   9.450
 5838POPC   PO420844  19.820  10.551   9.150
 5838POPC   GL120845  19.809  10.513   8.850
 5838POPC   GL220846  19.950  10.564   8.850
 5838POPC   C1A20847  19.818  10.518   8.550
 5838POPC   D2A20848  19.843  10.545   8.250
 5838POPC   C3A20849  19.789  10.518   7.950
 5838POPC   C4A20850  19.797  10.530   7.650
 5838POPC   C1B20851  20.027  10.596   8.550
 5838POPC   C2B20852  20.032  10.662   8.250
 5838POPC   C3B20853  20.066  10.592   7.950
 5838POPC   C4B20854  20.102  10.655   7.650
 5839POPC   NC320855  33.011   9.739   9.450
 5839POPC   PO420856  33.058   9.706   9.150
 5839POPC   GL120857  33.037   9.774   8.850
 5839POPC   GL220858  32.940   9.701   8.850
 5839POPC   C1A20859  33.019   9.706   8.550
 5839POPC   D2A20860  33.012   9.791   8.250
 5839POPC   C3A20861  32.994   9.770   7.950
 5839POPC   C4A20862  33.055   9.722   7.650
 5839POPC   C1B20863  32.766   9.713   8.550
 5839POPC   C2B20864  32.825   9.665   8.250
 5839POPC   C3B20865  32.753   9.720   7.950
 5839POPC   C4B20866  32.769   9.661   7.650
 5840POPC   NC320867  16.780   4.339   9.450
 5840POPC   PO420868  16.741   4.286   9.150
 5840POPC   GL120869  16.682   4.270   8.850
 5840POPC   GL220870  16.823   4.225   8.850
 5840POPC   C1A20871  16.714   4.307   8.550
 5840POPC   D2A20872  16.756   4.332   8.250
 5840POPC   C3A20873  16.769   4.283   7.950
 5840POPC   C4A20874  16.771   4.333   7.650
 5840POPC   C1B20875  16.915   4.131   8.550
 5840POPC   C2B20876  16.900   4.099   8.250
 5840POPC   C3B20877  16.859   4.144   7.950
 5840POPC   C4B20878  16.864   4.113   7.650
 5841POPC   NC320879  32.286  26.088   9.450
 5841POPC   PO420880  32.259  26.032   9.150
 5841POPC   GL120881  32.245  26.052   8.850
 5841POPC   GL220882  32.269  26.136   8.850
 5841POPC   C1A20883  32.289  26.016   8.550
 5841POPC   D2A20884  32.286  26.042   8.250
 5841POPC   C3A20885  32.264  26.048   7.950
 5841POPC   C4A20886  32.207  26.013   7.650
 5841POPC   C1B20887  32.356  26.275   8.550
 5841POPC   C2B20888  32.394  26.296   8.250
 5841POPC   C3B20889  32.383  26.315   7.950
 5841POPC   C4B20890  32.366  26.256   7.650
 5842POPC   NC320891  33.049  12.125   9.450
 5842POPC   PO420892  33.060  12.088   9.150
 5842POPC   GL120893  33.039  12.114   8.850
 5842POPC   GL220894  33.133  11.978   8.850
 5842POPC   C1A20895  32.983  12.048   8.550
 5842POPC   D2A20896  33.073  12.047   8.250
 5842POPC   C3A20897  33.057  12.122   7.950
 5842POPC   C4A20898  33.019  12.125   7.650
 5842POPC   C1B20899  33.208  11.894   8.550
 5842POPC   C2B20900  33.159  11.859   8.250
 5842POPC   C3B20901  33.197  11.853   7.950
 5842POPC   C4B20902  33.164  11.907   7.650
 5843POPC   NC320903   6.655  23.752   9.450
 5843POPC   PO420904   6.654  23.693   9.150
 5843POPC   GL120905   6.665  23.754   8.850
 5843POPC   GL220906   6.654  23.624   8.850
 5843POPC   C1A20907   6.655  23.667   8.550
 5843POPC   D2A20908   6.599  23.676   8.250
 5843POPC   C3A20909   6.670  23.710   7.950
 5843POPC   C4A20910   6.607  23.698   7.650
 5843POPC   C1B20911   6.625  23.472   8.550
 5843POPC   C2B20912   6.604  23.456   8.250
 5843POPC   C3B20913   6.609  23.433   7.950
 5843POPC   C4B20914   6.561  23.483   7.650
 5844POPC   NC320915  33.803  29.181   9.450
 5844POPC   PO420916  33.753  29.188   9.150
 5844POPC   GL120917  33.774  29.147   8.850
 5844POPC   GL220918  33.942  29.185   8.850
 5844POPC   C1A20919  33.775  29.140   8.550
 5844POPC   D2A20920  33.847  29.152   8.250
 5844POPC   C3A20921  33.808  29.129   7.950
 5844POPC   C4A20922  33.812  29.096   7.650
 5844POPC   C1B20923  34.003  29.197   8.550
 5844POPC   C2B20924  34.074  29.161   8.250
 5844POPC   C3B20925  34.025  29.165   7.950
 5844POPC   C4B20926  34.017  29.204   7.650
 5845POPC   NC320927  26.791   9.747   9.450
 5845POPC   PO420928  26.846   9.794   9.150
 5845POPC   GL120929  26.809   9.767   8.850
 5845POPC   GL220930  26.910   9.633   8.850
 5845POPC   C1A20931  26.866   9.718   8.550
 5845POPC   D2A20932  26.770   9.703   8.250
 5845POPC   C3A20933  26.786   9.762   7.950
 5845POPC   C4A20934  26.818   9.762   7.650
 5845POPC   C1B20935  26.952   9.608   8.550
 5845POPC   C2B20936  26.988   9.577   8.250
 5845POPC   C3B20937  26.994   9.629   7.950
 5845POPC   C4B20938  27.004   9.595   7.650
 5846POPC   NC320939  26.794   4.275   9.450
 5846POPC   PO420940  26.836   4.306   9.150
 5846POPC   GL120941  26.862   4.319   8.850
 5846POPC   GL220942  26.721   4.408   8.850
 5846POPC   C1A20943  26.802   4.318   8.550
 5846POPC   D2A20944  26.781   4.283   8.250
 5846POPC   C3A20945  26.772   4.307   7.950
 5846POPC   C4A20946  26.847   4.298   7.650
 5846POPC   C1B20947  26.703   4.500   8.550
 5846POPC   C2B20948  26.697   4.548   8.250
 5846POPC   C3B20949  26.702   4.528   7.950
 5846POPC   C4B20950  26.703   4.519   7.650
 5847POPC   NC320951  26.814  17.489   9.450
 5847POPC   PO420952  26.846  17.546   9.150
 5847POPC   GL120953  26.810  17.556   8.850
 5847POPC   GL220954  26.844  17.416   8.850
 5847POPC   C1A20955  26.818  17.547   8.550
 5847POPC   D2A20956  26.775  17.520   8.250
 5847POPC   C3A20957  26.813  17.477   7.950
 5847POPC   C4A20958  26.863  17.547   7.650
 5847POPC   C1B20959  26.881  17.238   8.550
 5847POPC   C2B20960  26.913  17.278   8.250
 5847POPC   C3B20961  26.883  17.264   7.950
 5847POPC   C4B20962  26.836  17.269   7.650
 5848POPC   NC320963  23.699  38.426   9.450
 5848POPC   PO420964  23.724  38.447   9.150
 5848POPC   GL120965  23.720  38.483   8.850
 5848POPC   GL220966  23.695  38.319   8.850
 5848POPC   C1A20967  23.680  38.476   8.550
 5848POPC   D2A20968  23.711  38.413   8.250
 5848POPC   C3A20969  23.738  38.430   7.950
 5848POPC   C4A20970  23.733  38.429   7.650
 5848POPC   C1B20971  23.709  38.213   8.550
 5848POPC   C2B20972  23.710  38.191   8.250
 5848POPC   C3B20973  23.714  38.162   7.950
 5848POPC   C4B20974  23.735  38.176   7.650
 5849POPC   NC320975  31.444  11.347   9.450
 5849POPC   PO420976  31.486  11.329   9.150
 5849POPC   GL120977  31.462  11.263   8.850
 5849POPC   GL220978  31.362  11.329   8.850
 5849POPC   C1A20979  31.454  11.299   8.550
 5849POPC   D2A20980  31.441  11.339   8.250
 5849POPC   C3A20981  31.452  11.293   7.950
 5849POPC   C4A20982  31.491  11.261   7.650
 5849POPC   C1B20983  31.218  11.307   8.550
 5849POPC   C2B20984  31.204  11.264   8.250
 5849POPC   C3B20985  31.246  11.305   7.950
 5849POPC   C4B20986  31.258  11.267   7.650
 5850POPC   NC320987  33.817  40.786   9.450
 5850POPC   PO420988  33.805  40.762   9.150
 5850POPC   GL120989  33.836  40.772   8.850
 5850POPC   GL220990  33.942  40.837   8.850
 5850POPC   C1A20991  33.762  40.816   8.550
 5850POPC   D2A20992  33.791  40.797   8.250
 5850POPC   C3A20993  33.774  40.751   7.950
 5850POPC   C4A20994  33.803  40.756   7.650
 5850POPC   C1B20995  33.973  40.894   8.550
 5850POPC   C2B20996  34.030  40.901   8.250
 5850POPC   C3B20997  34.048  40.938   7.950
 5850POPC   C4B20998  33.980  40.874   7.650
 5851POPC   NC320999  25.226  30.713   9.450
 5851POPC   PO421000  25.287  30.683   9.150
 5851POPC   GL121001  25.307  30.720   8.850
 5851POPC   GL221002  25.167  30.756   8.850
 5851POPC   C1A21003  25.296  30.714   8.550
 5851POPC   D2A21004  25.236  30.735   8.250
 5851POPC   C3A21005  25.224  30.706   7.950
 5851POPC   C4A21006  25.259  30.689   7.650
 5851POPC   C1B21007  25.049  30.826   8.550
 5851POPC   C2B21008  25.031  30.794   8.250
 5851POPC   C3B21009  25.021  30.762   7.950
 5851POPC   C4B21010  25.078  30.793   7.650
 5852POPC   NC321011  30.673   0.457   9.450
 5852POPC   PO421012  30.689   0.445   9.150
 5852POPC   GL121013  30.713   0.446   8.850
 5852POPC   GL221014  30.690   0.343   8.850
 5852POPC   C1A21015  30.734   0.479   8.550
 5852POPC   D2A21016  30.683   0.455   8.250
 5852POPC   C3A21017  30.684   0.443   7.950
 5852POPC   C4A21018  30.674   0.442   7.650
 5852POPC   C1B21019  30.753   0.239   8.550
 5852POPC   C2B21020  30.700   0.235   8.250
 5852POPC   C3B21021  30.710   0.232   7.950
 5852POPC   C4B21022  30.778   0.161   7.650
 5853POPC   NC321023  40.829   8.970   9.450
 5853POPC   PO421024  40.792   8.970   9.150
 5853POPC   GL121025  40.824   8.969   8.850
 5853POPC   GL221026  40.885   8.885   8.850
 5853POPC   C1A21027  40.739   8.943   8.550
 5853POPC   D2A21028  40.791   8.956   8.250
 5853POPC   C3A21029  40.813   8.960   7.950
 5853POPC   C4A21030  40.739   8.935   7.650
 5853POPC   C1B21031  40.954   8.806   8.550
 5853POPC   C2B21032  40.943   8.729   8.250
 5853POPC   C3B21033  40.920   8.793   7.950
 5853POPC   C4B21034  40.907   8.762   7.650
 5854POPC   NC321035   1.974  28.321   9.450
 5854POPC   PO421036   1.976  28.397   9.150
 5854POPC   GL121037   1.949  28.333   8.850
 5854POPC   GL221038   1.894  28.506   8.850
 5854POPC   C1A21039   1.999  28.414   8.550
 5854POPC   D2A21040   2.006  28.417   8.250
 5854POPC   C3A21041   2.010  28.378   7.950
 5854POPC   C4A21042   2.016  28.352   7.650
 5854POPC   C1B21043   1.852  28.603   8.550
 5854POPC   C2B21044   1.895  28.590   8.250
 5854POPC   C3B21045   1.853  28.628   7.950
 5854POPC   C4B21046   1.941  28.619   7.650
 5855POPC   NC321047   1.251  14.385   9.450
 5855POPC   PO421048   1.200  14.434   9.150
 5855POPC   GL121049   1.260  14.389   8.850
 5855POPC   GL221050   1.236  14.546   8.850
 5855POPC   C1A21051   1.235  14.388   8.550
 5855POPC   D2A21052   1.263  14.412   8.250
 5855POPC   C3A21053   1.170  14.444   7.950
 5855POPC   C4A21054   1.225  14.430   7.650
 5855POPC   C1B21055   1.172  14.626   8.550
 5855POPC   C2B21056   1.187  14.695   8.250
 5855POPC   C3B21057   1.184  14.603   7.950
 5855POPC   C4B21058   1.208  14.696   7.650
 5856POPC   NC321059  22.143  35.383   9.450
 5856POPC   PO421060  22.207  35.327   9.150
 5856POPC   GL121061  22.164  35.362   8.850
 5856POPC   GL221062  22.046  35.312   8.850
 5856POPC   C1A21063  22.140  35.401   8.550
 5856POPC   D2A21064  22.139  35.343   8.250
 5856POPC   C3A21065  22.155  35.362   7.950
 5856POPC   C4A21066  22.160  35.310   7.650
 5856POPC   C1B21067  21.967  35.256   8.550
 5856POPC   C2B21068  21.985  35.267   8.250
 5856POPC   C3B21069  21.954  35.209   7.950
 5856POPC   C4B21070  21.985  35.270   7.650
 5857POPC   NC321071  14.363   1.208   9.450
 5857POPC   PO421072  14.380   1.210   9.150
 5857POPC   GL121073  14.354   1.264   8.850
 5857POPC   GL221074  14.280   1.122   8.850
 5857POPC   C1A21075  14.417   1.183   8.550
 5857POPC   D2A21076  14.436   1.229   8.250
 5857POPC   C3A21077  14.362   1.206   7.950
 5857POPC   C4A21078  14.359   1.184   7.650
 5857POPC   C1B21079  14.227   0.994   8.550
 5857POPC   C2B21080  14.235   1.035   8.250
 5857POPC   C3B21081  14.191   1.068   7.950
 5857POPC   C4B21082  14.201   1.003   7.650
 5858POPC   NC321083  41.532  38.481   9.450
 5858POPC   PO421084  41.525  38.417   9.150
 5858POPC   GL121085  41.596  38.486   8.850
 5858POPC   GL221086  41.406  38.493   8.850
 5858POPC   C1A21087  41.514  38.448   8.550
 5858POPC   D2A21088  41.543  38.441   8.250
 5858POPC   C3A21089  41.563  38.455   7.950
 5858POPC   C4A21090  41.584  38.452   7.650
 5858POPC   C1B21091  41.319  38.557   8.550
 5858POPC   C2B21092  41.377  38.506   8.250
 5858POPC   C3B21093  41.367  38.584   7.950
 5858POPC   C4B21094  41.375  38.544   7.650
 5859POPC   NC321095   6.691  16.752   9.450
 5859POPC   PO421096   6.660  16.715   9.150
 5859POPC   GL121097   6.651  16.684   8.850
 5859POPC   GL221098   6.714  16.788   8.850
 5859POPC   C1A21099   6.666  16.710   8.550
 5859POPC   D2A21100   6.690  16.688   8.250
 5859POPC   C3A21101   6.644  16.701   7.950
 5859POPC   C4A21102   6.629  16.712   7.650
 5859POPC   C1B21103   6.895  16.822   8.550
 5859POPC   C2B21104   6.838  16.812   8.250
 5859POPC   C3B21105   6.920  16.844   7.950
 5859POPC   C4B21106   6.834  16.779   7.650
 5860POPC   NC321107  26.836   5.891   9.450
 5860POPC   PO421108  26.814   5.835   9.150
 5860POPC   GL121109  26.862   5.840   8.850
 5860POPC   GL221110  26.710   5.826   8.850
 5860POPC   C1A21111  26.815   5.902   8.550
 5860POPC   D2A21112  26.798   5.916   8.250
 5860POPC   C3A21113  26.811   5.858   7.950
 5860POPC   C4A21114  26.803   5.825   7.650
 5860POPC   C1B21115  26.523   5.862   8.550
 5860POPC   C2B21116  26.594   5.855   8.250
 5860POPC   C3B21117  26.527   5.846   7.950
 5860POPC   C4B21118  26.522   5.794   7.650
 5861POPC   NC321119  22.211  15.171   9.450
 5861POPC   PO421120  22.113  15.171   9.150
 5861POPC   GL121121  22.166  15.190   8.850
 5861POPC   GL221122  22.032  15.236   8.850
 5861POPC   C1A21123  22.190  15.180   8.550
 5861POPC   D2A21124  22.199  15.140   8.250
 5861POPC   C3A21125  22.196  15.130   7.950
 5861POPC   C4A21126  22.160  15.224   7.650
 5861POPC   C1B21127  21.979  15.333   8.550
 5861POPC   C2B21128  21.971  15.300   8.250
 5861POPC   C3B21129  21.991  15.284   7.950
 5861POPC   C4B21130  21.967  15.283   7.650
 5862POPC   NC321131  10.483  28.351   9.450
 5862POPC   PO421132  10.543  28.325   9.150
 5862POPC   GL121133  10.511  28.334   8.850
 5862POPC   GL221134  10.453  28.302   8.850
 5862POPC   C1A21135  10.484  28.381   8.550
 5862POPC   D2A21136  10.520  28.342   8.250
 5862POPC   C3A21137  10.557  28.377   7.950
 5862POPC   C4A21138  10.545  28.327   7.650
 5862POPC   C1B21139  10.288  28.268   8.550
 5862POPC   C2B21140  10.285  28.234   8.250
 5862POPC   C3B21141  10.320  28.245   7.950
 5862POPC   C4B21142  10.291  28.250   7.650
 5863POPC   NC321143  19.844  35.350   9.450
 5863POPC   PO421144  19.847  35.317   9.150
 5863POPC   GL121145  19.787  35.352   8.850
 5863POPC   GL221146  19.893  35.192   8.850
 5863POPC   C1A21147  19.815  35.346   8.550
 5863POPC   D2A21148  19.806  35.332   8.250
 5863POPC   C3A21149  19.798  35.378   7.950
 5863POPC   C4A21150  19.871  35.338   7.650
 5863POPC   C1B21151  19.858  35.062   8.550
 5863POPC   C2B21152  19.856  35.115   8.250
 5863POPC   C3B21153  19.815  35.093   7.950
 5863POPC   C4B21154  19.879  35.066   7.650
 5864POPC   NC321155  33.824  44.686   9.450
 5864POPC   PO421156  33.844  44.695   9.150
 5864POPC   GL121157  33.780  44.697   8.850
 5864POPC   GL221158  33.729  44.755   8.850
 5864POPC   C1A21159  33.773  44.659   8.550
 5864POPC   D2A21160  33.791  44.671   8.250
 5864POPC   C3A21161  33.821  44.648   7.950
 5864POPC   C4A21162  33.805  44.672   7.650
 5864POPC   C1B21163  33.595  44.794   8.550
 5864POPC   C2B21164  33.627  44.776   8.250
 5864POPC   C3B21165  33.590  44.852   7.950
 5864POPC   C4B21166  33.590  44.856   7.650
 5865POPC   NC321167  39.200  42.314   9.450
 5865POPC   PO421168  39.194  42.348   9.150
 5865POPC   GL121169  39.212  42.312   8.850
 5865POPC   GL221170  39.096  42.382   8.850
 5865POPC   C1A21171  39.220  42.365   8.550
 5865POPC   D2A21172  39.212  42.347   8.250
 5865POPC   C3A21173  39.212  42.291   7.950
 5865POPC   C4A21174  39.265  42.349   7.650
 5865POPC   C1B21175  39.002  42.470   8.550
 5865POPC   C2B21176  38.978  42.465   8.250
 5865POPC   C3B21177  39.056  42.498   7.950
 5865POPC   C4B21178  38.985  42.482   7.650
 5866POPC   NC321179  11.344  14.393   9.450
 5866POPC   PO421180  11.256  14.401   9.150
 5866POPC   GL121181  11.270  14.441   8.850
 5866POPC   GL221182  11.186  14.419   8.850
 5866POPC   C1A21183  11.320  14.359   8.550
 5866POPC   D2A21184  11.285  14.449   8.250
 5866POPC   C3A21185  11.281  14.357   7.950
 5866POPC   C4A21186  11.276  14.388   7.650
 5866POPC   C1B21187  11.046  14.394   8.550
 5866POPC   C2B21188  11.001  14.363   8.250
 5866POPC   C3B21189  11.014  14.361   7.950
 5866POPC   C4B21190  11.061  14.408   7.650
 5867POPC   NC321191  38.424  22.895   9.450
 5867POPC   PO421192  38.480  22.943   9.150
 5867POPC   GL121193  38.443  22.932   8.850
 5867POPC   GL221194  38.519  23.007   8.850
 5867POPC   C1A21195  38.414  22.952   8.550
 5867POPC   D2A21196  38.435  22.969   8.250
 5867POPC   C3A21197  38.438  22.910   7.950
 5867POPC   C4A21198  38.459  22.965   7.650
 5867POPC   C1B21199  38.567  23.155   8.550
 5867POPC   C2B21200  38.536  23.154   8.250
 5867POPC   C3B21201  38.623  23.145   7.950
 5867POPC   C4B21202  38.538  23.153   7.650
 5868POPC   NC321203   3.549  19.804   9.450
 5868POPC   PO421204   3.516  19.883   9.150
 5868POPC   GL121205   3.564  19.805   8.850
 5868POPC   GL221206   3.571  19.986   8.850
 5868POPC   C1A21207   3.519  19.821   8.550
 5868POPC   D2A21208   3.543  19.816   8.250
 5868POPC   C3A21209   3.544  19.857   7.950
 5868POPC   C4A21210   3.577  19.877   7.650
 5868POPC   C1B21211   3.527  20.050   8.550
 5868POPC   C2B21212   3.497  20.075   8.250
 5868POPC   C3B21213   3.522  20.088   7.950
 5868POPC   C4B21214   3.543  20.126   7.650
 5869POPC   NC321215   7.408   8.924   9.450
 5869POPC   PO421216   7.465   9.005   9.150
 5869POPC   GL121217   7.445   8.997   8.850
 5869POPC   GL221218   7.251   9.048   8.850
 5869POPC   C1A21219   7.387   8.959   8.550
 5869POPC   D2A21220   7.402   8.958   8.250
 5869POPC   C3A21221   7.371   9.010   7.950
 5869POPC   C4A21222   7.458   9.010   7.650
 5869POPC   C1B21223   7.175   9.052   8.550
 5869POPC   C2B21224   7.147   9.015   8.250
 5869POPC   C3B21225   7.216   9.050   7.950
 5869POPC   C4B21226   7.193   9.092   7.650
 5870POPC   NC321227  17.507  12.840   9.450
 5870POPC   PO421228  17.499  12.890   9.150
 5870POPC   GL121229  17.492  12.817   8.850
 5870POPC   GL221230  17.466  12.748   8.850
 5870POPC   C1A21231  17.487  12.885   8.550
 5870POPC   D2A21232  17.534  12.808   8.250
 5870POPC   C3A21233  17.458  12.858   7.950
 5870POPC   C4A21234  17.524  12.887   7.650
 5870POPC   C1B21235  17.462  12.646   8.550
 5870POPC   C2B21236  17.438  12.628   8.250
 5870POPC   C3B21237  17.431  12.650   7.950
 5870POPC   C4B21238  17.432  12.614   7.650
 5871POPC   NC321239  17.485  36.105   9.450
 5871POPC   PO421240  17.519  36.158   9.150
 5871POPC   GL121241  17.494  36.100   8.850
 5871POPC   GL221242  17.585  36.190   8.850
 5871POPC   C1A21243  17.555  36.175   8.550
 5871POPC   D2A21244  17.491  36.120   8.250
 5871POPC   C3A21245  17.520  36.103   7.950
 5871POPC   C4A21246  17.507  36.143   7.650
 5871POPC   C1B21247  17.782  36.146   8.550
 5871POPC   C2B21248  17.749  36.169   8.250
 5871POPC   C3B21249  17.776  36.212   7.950
 5871POPC   C4B21250  17.767  36.186   7.650
 5872POPC   NC321251  26.798  20.591   9.450
 5872POPC   PO421252  26.863  20.617   9.150
 5872POPC   GL121253  26.808  20.587   8.850
 5872POPC   GL221254  26.884  20.450   8.850
 5872POPC   C1A21255  26.802  20.637   8.550
 5872POPC   D2A21256  26.780  20.569   8.250
 5872POPC   C3A21257  26.867  20.613   7.950
 5872POPC   C4A21258  26.778  20.611   7.650
 5872POPC   C1B21259  26.914  20.362   8.550
 5872POPC   C2B21260  26.904  20.345   8.250
 5872POPC   C3B21261  26.837  20.371   7.950
 5872POPC   C4B21262  26.908  20.355   7.650
 5873POPC   NC321263   0.484  12.074   9.450
 5873POPC   PO421264   0.391  12.046   9.150
 5873POPC   GL121265   0.475  12.065   8.850
 5873POPC   GL221266   0.521  12.178   8.850
 5873POPC   C1A21267   0.397  12.105   8.550
 5873POPC   D2A21268   0.420  12.057   8.250
 5873POPC   C3A21269   0.404  12.080   7.950
 5873POPC   C4A21270   0.466  12.033   7.650
 5873POPC   C1B21271   0.673  12.223   8.550
 5873POPC   C2B21272   0.669  12.214   8.250
 5873POPC   C3B21273   0.663  12.233   7.950
 5873POPC   C4B21274   0.641  12.163   7.650
 5874POPC   NC321275   9.742  29.163   9.450
 5874POPC   PO421276   9.711  29.160   9.150
 5874POPC   GL121277   9.718  29.108   8.850
 5874POPC   GL221278   9.767  28.995   8.850
 5874POPC   C1A21279   9.720  29.185   8.550
 5874POPC   D2A21280   9.732  29.097   8.250
 5874POPC   C3A21281   9.796  29.169   7.950
 5874POPC   C4A21282   9.711  29.155   7.650
 5874POPC   C1B21283   9.854  28.871   8.550
 5874POPC   C2B21284   9.838  28.949   8.250
 5874POPC   C3B21285   9.867  28.906   7.950
 5874POPC   C4B21286   9.894  28.914   7.650
 5875POPC   NC321287   5.821  32.231   9.450
 5875POPC   PO421288   5.828  32.283   9.150
 5875POPC   GL121289   5.862  32.278   8.850
 5875POPC   GL221290   5.847  32.370   8.850
 5875POPC   C1A21291   5.830  32.238   8.550
 5875POPC   D2A21292   5.901  32.242   8.250
 5875POPC   C3A21293   5.910  32.257   7.950
 5875POPC   C4A21294   5.912  32.248   7.650
 5875POPC   C1B21295   5.874  32.529   8.550
 5875POPC   C2B21296   5.861  32.448   8.250
 5875POPC   C3B21297   5.829  32.517   7.950
 5875POPC   C4B21298   5.837  32.463   7.650
 5876POPC   NC321299   1.998  12.088   9.450
 5876POPC   PO421300   1.998  12.071   9.150
 5876POPC   GL121301   1.961  12.098   8.850
 5876POPC   GL221302   2.123  12.079   8.850
 5876POPC   C1A21303   1.994  12.044   8.550
 5876POPC   D2A21304   1.951  12.030   8.250
 5876POPC   C3A21305   1.988  12.099   7.950
 5876POPC   C4A21306   1.940  12.053   7.650
 5876POPC   C1B21307   2.272  11.945   8.550
 5876POPC   C2B21308   2.208  12.025   8.250
 5876POPC   C3B21309   2.181  11.996   7.950
 5876POPC   C4B21310   2.182  12.029   7.650
 5877POPC   NC321311  29.106  13.594   9.450
 5877POPC   PO421312  29.168  13.663   9.150
 5877POPC   GL121313  29.146  13.638   8.850
 5877POPC   GL221314  29.115  13.525   8.850
 5877POPC   C1A21315  29.155  13.600   8.550
 5877POPC   D2A21316  29.189  13.595   8.250
 5877POPC   C3A21317  29.096  13.615   7.950
 5877POPC   C4A21318  29.140  13.657   7.650
 5877POPC   C1B21319  29.063  13.361   8.550
 5877POPC   C2B21320  29.106  13.365   8.250
 5877POPC   C3B21321  29.120  13.351   7.950
 5877POPC   C4B21322  29.140  13.376   7.650
 5878POPC   NC321323   7.456  40.827   9.450
 5878POPC   PO421324   7.432  40.785   9.150
 5878POPC   GL121325   7.467  40.805   8.850
 5878POPC   GL221326   7.476  40.692   8.850
 5878POPC   C1A21327   7.425  40.782   8.550
 5878POPC   D2A21328   7.374  40.782   8.250
 5878POPC   C3A21329   7.389  40.797   7.950
 5878POPC   C4A21330   7.407  40.796   7.650
 5878POPC   C1B21331   7.620  40.635   8.550
 5878POPC   C2B21332   7.593  40.559   8.250
 5878POPC   C3B21333   7.601  40.555   7.950
 5878POPC   C4B21334   7.577  40.635   7.650
 5879POPC   NC321335  17.556  28.349   9.450
 5879POPC   PO421336  17.522  28.389   9.150
 5879POPC   GL121337  17.542  28.378   8.850
 5879POPC   GL221338  17.488  28.226   8.850
 5879POPC   C1A21339  17.507  28.414   8.550
 5879POPC   D2A21340  17.461  28.367   8.250
 5879POPC   C3A21341  17.487  28.363   7.950
 5879POPC   C4A21342  17.514  28.368   7.650
 5879POPC   C1B21343  17.501  28.079   8.550
 5879POPC   C2B21344  17.523  28.081   8.250
 5879POPC   C3B21345  17.526  28.122   7.950
 5879POPC   C4B21346  17.559  28.105   7.650
 5880POPC   NC321347  12.083  29.181   9.450
 5880POPC   PO421348  12.113  29.169   9.150
 5880POPC   GL121349  12.032  29.190   8.850
 5880POPC   GL221350  12.230  29.067   8.850
 5880POPC   C1A21351  12.061  29.133   8.550
 5880POPC   D2A21352  12.083  29.103   8.250
 5880POPC   C3A21353  12.052  29.147   7.950
 5880POPC   C4A21354  12.050  29.173   7.650
 5880POPC   C1B21355  12.342  29.045   8.550
 5880POPC   C2B21356  12.336  29.039   8.250
 5880POPC   C3B21357  12.295  29.053   7.950
 5880POPC   C4B21358  12.293  29.059   7.650
 5881POPC   NC321359  24.464  14.392   9.450
 5881POPC   PO421360  24.499  14.451   9.150
 5881POPC   GL121361  24.539  14.453   8.850
 5881POPC   GL221362  24.357  14.402   8.850
 5881POPC   C1A21363  24.502  14.373   8.550
 5881POPC   D2A21364  24.442  14.416   8.250
 5881POPC   C3A21365  24.462  14.407   7.950
 5881POPC   C4A21366  24.539  14.356   7.650
 5881POPC   C1B21367  24.291  14.330   8.550
 5881POPC   C2B21368  24.268  14.292   8.250
 5881POPC   C3B21369  24.247  14.338   7.950
 5881POPC   C4B21370  24.268  14.310   7.650
 5882POPC   NC321371   5.882  16.706   9.450
 5882POPC   PO421372   5.831  16.758   9.150
 5882POPC   GL121373   5.885  16.750   8.850
 5882POPC   GL221374   5.863  16.810   8.850
 5882POPC   C1A21375   5.861  16.702   8.550
 5882POPC   D2A21376   5.882  16.763   8.250
 5882POPC   C3A21377   5.883  16.780   7.950
 5882POPC   C4A21378   5.885  16.692   7.650
 5882POPC   C1B21379   5.770  16.958   8.550
 5882POPC   C2B21380   5.784  16.923   8.250
 5882POPC   C3B21381   5.747  16.922   7.950
 5882POPC   C4B21382   5.791  16.947   7.650
 5883POPC   NC321383  41.520  19.825   9.450
 5883POPC   PO421384  41.548  19.788   9.150
 5883POPC   GL121385  41.538  19.883   8.850
 5883POPC   GL221386  41.392  19.756   8.850
 5883POPC   C1A21387  41.578  19.850   8.550
 5883POPC   D2A21388  41.583  19.878   8.250
 5883POPC   C3A21389  41.541  19.837   7.950
 5883POPC   C4A21390  41.523  19.880   7.650
 5883POPC   C1B21391  41.329  19.804   8.550
 5883POPC   C2B21392  41.300  19.737   8.250
 5883POPC   C3B21393  41.338  19.795   7.950
 5883POPC   C4B21394  41.342  19.738   7.650
 5884POPC   NC321395  36.176  43.901   9.450
 5884POPC   PO421396  36.104  43.855   9.150
 5884POPC   GL121397  36.119  43.915   8.850
 5884POPC   GL221398  36.042  43.914   8.850
 5884POPC   C1A21399  36.110  43.893   8.550
 5884POPC   D2A21400  36.125  43.933   8.250
 5884POPC   C3A21401  36.079  43.862   7.950
 5884POPC   C4A21402  36.129  43.841   7.650
 5884POPC   C1B21403  35.866  43.903   8.550
 5884POPC   C2B21404  35.870  43.865   8.250
 5884POPC   C3B21405  35.916  43.835   7.950
 5884POPC   C4B21406  35.919  43.839   7.650
 5885POPC   NC321407   2.023  10.540   9.450
 5885POPC   PO421408   2.013  10.495   9.150
 5885POPC   GL121409   2.037  10.486   8.850
 5885POPC   GL221410   2.033  10.661   8.850
 5885POPC   C1A21411   1.981  10.543   8.550
 5885POPC   D2A21412   2.026  10.522   8.250
 5885POPC   C3A21413   1.993  10.477   7.950
 5885POPC   C4A21414   1.970  10.514   7.650
 5885POPC   C1B21415   2.135  10.683   8.550
 5885POPC   C2B21416   2.113  10.747   8.250
 5885POPC   C3B21417   2.188  10.756   7.950
 5885POPC   C4B21418   2.166  10.671   7.650
 5886POPC   NC321419  43.159  34.581   9.450
 5886POPC   PO421420  43.070  34.572   9.150
 5886POPC   GL121421  43.137  34.566   8.850
 5886POPC   GL221422  43.208  34.666   8.850
 5886POPC   C1A21423  43.143  34.586   8.550
 5886POPC   D2A21424  43.119  34.623   8.250
 5886POPC   C3A21425  43.157  34.555   7.950
 5886POPC   C4A21426  43.089  34.604   7.650
 5886POPC   C1B21427  43.360  34.731   8.550
 5886POPC   C2B21428  43.340  34.697   8.250
 5886POPC   C3B21429  43.326  34.713   7.950
 5886POPC   C4B21430  43.280  34.723   7.650
 5887POPC   NC321431  22.901  19.084   9.450
 5887POPC   PO421432  22.906  19.058   9.150
 5887POPC   GL121433  22.954  19.090   8.850
 5887POPC   GL221434  22.952  18.932   8.850
 5887POPC   C1A21435  22.891  19.091   8.550
 5887POPC   D2A21436  22.964  19.063   8.250
 5887POPC   C3A21437  22.960  19.042   7.950
 5887POPC   C4A21438  22.939  19.082   7.650
 5887POPC   C1B21439  23.055  18.852   8.550
 5887POPC   C2B21440  23.019  18.803   8.250
 5887POPC   C3B21441  23.002  18.795   7.950
 5887POPC   C4B21442  22.989  18.783   7.650
 5888POPC   NC321443   8.932   5.089   9.450
 5888POPC   PO421444   8.970   5.085   9.150
 5888POPC   GL121445   8.944   5.062   8.850
 5888POPC   GL221446   8.991   5.011   8.850
 5888POPC   C1A21447   8.945   5.066   8.550
 5888POPC   D2A21448   8.925   5.112   8.250
 5888POPC   C3A21449   9.015   5.133   7.950
 5888POPC   C4A21450   8.947   5.093   7.650
 5888POPC   C1B21451   8.868   4.877   8.550
 5888POPC   C2B21452   8.874   4.862   8.250
 5888POPC   C3B21453   8.917   4.825   7.950
 5888POPC   C4B21454   8.928   4.836   7.650
 5889POPC   NC321455   9.763  27.611   9.450
 5889POPC   PO421456   9.765  27.559   9.150
 5889POPC   GL121457   9.745  27.560   8.850
 5889POPC   GL221458   9.816  27.728   8.850
 5889POPC   C1A21459   9.753  27.632   8.550
 5889POPC   D2A21460   9.791  27.585   8.250
 5889POPC   C3A21461   9.795  27.551   7.950
 5889POPC   C4A21462   9.700  27.628   7.650
 5889POPC   C1B21463   9.842  27.798   8.550
 5889POPC   C2B21464   9.771  27.789   8.250
 5889POPC   C3B21465   9.799  27.803   7.950
 5889POPC   C4B21466   9.813  27.815   7.650
 5890POPC   NC321467  17.554  44.700   9.450
 5890POPC   PO421468  17.486  44.669   9.150
 5890POPC   GL121469  17.538  44.622   8.850
 5890POPC   GL221470  17.470  44.568   8.850
 5890POPC   C1A21471  17.492  44.703   8.550
 5890POPC   D2A21472  17.520  44.615   8.250
 5890POPC   C3A21473  17.543  44.683   7.950
 5890POPC   C4A21474  17.479  44.643   7.650
 5890POPC   C1B21475  17.382  44.435   8.550
 5890POPC   C2B21476  17.460  44.406   8.250
 5890POPC   C3B21477  17.440  44.443   7.950
 5890POPC   C4B21478  17.385  44.444   7.650
 5891POPC   NC321479   1.249  28.396   9.450
 5891POPC   PO421480   1.219  28.353   9.150
 5891POPC   GL121481   1.170  28.356   8.850
 5891POPC   GL221482   1.161  28.311   8.850
 5891POPC   C1A21483   1.178  28.326   8.550
 5891POPC   D2A21484   1.191  28.395   8.250
 5891POPC   C3A21485   1.261  28.396   7.950
 5891POPC   C4A21486   1.215  28.410   7.650
 5891POPC   C1B21487   1.063  28.183   8.550
 5891POPC   C2B21488   1.051  28.232   8.250
 5891POPC   C3B21489   1.032  28.173   7.950
 5891POPC   C4B21490   1.028  28.234   7.650
 5892POPC   NC321491  36.097   1.949   9.450
 5892POPC   PO421492  36.107   1.995   9.150
 5892POPC   GL121493  36.102   1.954   8.850
 5892POPC   GL221494  36.255   1.886   8.850
 5892POPC   C1A21495  36.098   2.036   8.550
 5892POPC   D2A21496  36.135   2.021   8.250
 5892POPC   C3A21497  36.172   2.030   7.950
 5892POPC   C4A21498  36.097   2.035   7.650
 5892POPC   C1B21499  36.310   1.846   8.550
 5892POPC   C2B21500  36.298   1.819   8.250
 5892POPC   C3B21501  36.380   1.885   7.950
 5892POPC   C4B21502  36.310   1.900   7.650
 5893POPC   NC321503  34.542  14.399   9.450
 5893POPC   PO421504  34.540  14.381   9.150
 5893POPC   GL121505  34.616  14.423   8.850
 5893POPC   GL221506  34.604  14.266   8.850
 5893POPC   C1A21507  34.626  14.371   8.550
 5893POPC   D2A21508  34.613  14.384   8.250
 5893POPC   C3A21509  34.602  14.383   7.950
 5893POPC   C4A21510  34.612  14.451   7.650
 5893POPC   C1B21511  34.735  14.189   8.550
 5893POPC   C2B21512  34.739  14.165   8.250
 5893POPC   C3B21513  34.770  14.175   7.950
 5893POPC   C4B21514  34.724  14.241   7.650
 5894POPC   NC321515   8.174  10.482   9.450
 5894POPC   PO421516   8.154  10.572   9.150
 5894POPC   GL121517   8.215  10.536   8.850
 5894POPC   GL221518   8.299  10.606   8.850
 5894POPC   C1A21519   8.178  10.554   8.550
 5894POPC   D2A21520   8.243  10.551   8.250
 5894POPC   C3A21521   8.225  10.512   7.950
 5894POPC   C4A21522   8.172  10.502   7.650
 5894POPC   C1B21523   8.469  10.624   8.550
 5894POPC   C2B21524   8.480  10.633   8.250
 5894POPC   C3B21525   8.408  10.578   7.950
 5894POPC   C4B21526   8.432  10.590   7.650
 5895POPC   NC321527   8.945  28.339   9.450
 5895POPC   PO421528   9.001  28.366   9.150
 5895POPC   GL121529   8.937  28.402   8.850
 5895POPC   GL221530   8.947  28.206   8.850
 5895POPC   C1A21531   9.010  28.411   8.550
 5895POPC   D2A21532   8.957  28.369   8.250
 5895POPC   C3A21533   8.983  28.417   7.950
 5895POPC   C4A21534   8.943  28.387   7.650
 5895POPC   C1B21535   8.941  28.081   8.550
 5895POPC   C2B21536   8.945  28.115   8.250
 5895POPC   C3B21537   9.022  28.117   7.950
 5895POPC   C4B21538   8.948  28.164   7.650
 5896POPC   NC321539  19.068  14.437   9.450
 5896POPC   PO421540  19.046  14.361   9.150
 5896POPC   GL121541  19.078  14.397   8.850
 5896POPC   GL221542  19.050  14.260   8.850
 5896POPC   C1A21543  19.028  14.365   8.550
 5896POPC   D2A21544  19.025  14.410   8.250
 5896POPC   C3A21545  19.025  14.376   7.950
 5896POPC   C4A21546  19.089  14.375   7.650
 5896POPC   C1B21547  19.036  14.205   8.550
 5896POPC   C2B21548  19.035  14.170   8.250
 5896POPC   C3B21549  18.995  14.162   7.950
 5896POPC   C4B21550  18.970  14.212   7.650
 5897POPC   NC321551  23.710  30.700   9.450
 5897POPC   PO421552  23.681  30.667   9.150
 5897POPC   GL121553  23.680  30.717   8.850
 5897POPC   GL221554  23.856  30.768   8.850
 5897POPC   C1A21555  23.714  30.668   8.550
 5897POPC   D2A21556  23.736  30.692   8.250
 5897POPC   C3A21557  23.676  30.741   7.950
 5897POPC   C4A21558  23.687  30.653   7.650
 5897POPC   C1B21559  23.959  30.803   8.550
 5897POPC   C2B21560  23.936  30.756   8.250
 5897POPC   C3B21561  23.938  30.825   7.950
 5897POPC   C4B21562  23.958  30.762   7.650
 5898POPC   NC321563  35.381  15.196   9.450
 5898POPC   PO421564  35.317  15.155   9.150
 5898POPC   GL121565  35.382  15.200   8.850
 5898POPC   GL221566  35.409  15.141   8.850
 5898POPC   C1A21567  35.390  15.197   8.550
 5898POPC   D2A21568  35.317  15.185   8.250
 5898POPC   C3A21569  35.334  15.228   7.950
 5898POPC   C4A21570  35.364  15.208   7.650
 5898POPC   C1B21571  35.537  14.981   8.550
 5898POPC   C2B21572  35.530  14.955   8.250
 5898POPC   C3B21573  35.489  15.008   7.950
 5898POPC   C4B21574  35.501  15.026   7.650
 5899POPC   NC321575   3.521  40.030   9.450
 5899POPC   PO421576   3.574  40.001   9.150
 5899POPC   GL121577   3.569  40.018   8.850
 5899POPC   GL221578   3.468  40.104   8.850
 5899POPC   C1A21579   3.537  40.053   8.550
 5899POPC   D2A21580   3.510  39.964   8.250
 5899POPC   C3A21581   3.509  40.012   7.950
 5899POPC   C4A21582   3.495  40.024   7.650
 5899POPC   C1B21583   3.379  40.203   8.550
 5899POPC   C2B21584   3.416  40.165   8.250
 5899POPC   C3B21585   3.369  40.227   7.950
 5899POPC   C4B21586   3.402  40.224   7.650
 5900POPC   NC321587  12.080   1.205   9.450
 5900POPC   PO421588  12.086   1.172   9.150
 5900POPC   GL121589  12.063   1.234   8.850
 5900POPC   GL221590  12.194   1.179   8.850
 5900POPC   C1A21591  12.091   1.195   8.550
 5900POPC   D2A21592  12.088   1.221   8.250
 5900POPC   C3A21593  12.076   1.166   7.950
 5900POPC   C4A21594  12.102   1.186   7.650
 5900POPC   C1B21595  12.303   1.186   8.550
 5900POPC   C2B21596  12.284   1.206   8.250
 5900POPC   C3B21597  12.293   1.170   7.950
 5900POPC   C4B21598  12.301   1.259   7.650
 5901POPC   NC321599  25.229  26.831   9.450
 5901POPC   PO421600  25.228  26.793   9.150
 5901POPC   GL121601  25.230  26.811   8.850
 5901POPC   GL221602  25.304  26.912   8.850
 5901POPC   C1A21603  25.266  26.831   8.550
 5901POPC   D2A21604  25.301  26.826   8.250
 5901POPC   C3A21605  25.230  26.844   7.950
 5901POPC   C4A21606  25.271  26.826   7.650
 5901POPC   C1B21607  25.280  27.021   8.550
 5901POPC   C2B21608  25.274  27.072   8.250
 5901POPC   C3B21609  25.262  27.046   7.950
 5901POPC   C4B21610  25.310  27.105   7.650
 5902POPC   NC321611  16.772   8.244   9.450
 5902POPC   PO421612  16.698   8.218   9.150
 5902POPC   GL121613  16.753   8.202   8.850
 5902POPC   GL221614  16.596   8.235   8.850
 5902POPC   C1A21615  16.734   8.155   8.550
 5902POPC   D2A21616  16.734   8.170   8.250
 5902POPC   C3A21617  16.744   8.200   7.950
 5902POPC   C4A21618  16.729   8.147   7.650
 5902POPC   C1B21619  16.530   8.363   8.550
 5902POPC   C2B21620  16.511   8.395   8.250
 5902POPC   C3B21621  16.583   8.411   7.950
 5902POPC   C4B21622  16.525   8.402   7.650
 5903POPC   NC321623   2.747  18.282   9.450
 5903POPC   PO421624   2.757  18.245   9.150
 5903POPC   GL121625   2.736  18.233   8.850
 5903POPC   GL221626   2.844  18.391   8.850
 5903POPC   C1A21627   2.730  18.278   8.550
 5903POPC   D2A21628   2.792  18.318   8.250
 5903POPC   C3A21629   2.756  18.292   7.950
 5903POPC   C4A21630   2.787  18.252   7.650
 5903POPC   C1B21631   2.959  18.404   8.550
 5903POPC   C2B21632   3.011  18.410   8.250
 5903POPC   C3B21633   2.940  18.461   7.950
 5903POPC   C4B21634   2.947  18.396   7.650
 5904POPC   NC321635  36.171  34.601   9.450
 5904POPC   PO421636  36.134  34.581   9.150
 5904POPC   GL121637  36.102  34.590   8.850
 5904POPC   GL221638  36.168  34.478   8.850
 5904POPC   C1A21639  36.170  34.606   8.550
 5904POPC   D2A21640  36.090  34.621   8.250
 5904POPC   C3A21641  36.133  34.602   7.950
 5904POPC   C4A21642  36.137  34.615   7.650
 5904POPC   C1B21643  36.211  34.360   8.550
 5904POPC   C2B21644  36.172  34.318   8.250
 5904POPC   C3B21645  36.176  34.368   7.950
 5904POPC   C4B21646  36.150  34.321   7.650
 5905POPC   NC321647   8.987  10.496   9.450
 5905POPC   PO421648   8.949  10.551   9.150
 5905POPC   GL121649   8.978  10.535   8.850
 5905POPC   GL221650   9.138  10.541   8.850
 5905POPC   C1A21651   8.974  10.540   8.550
 5905POPC   D2A21652   8.924  10.549   8.250
 5905POPC   C3A21653   8.975  10.570   7.950
 5905POPC   C4A21654   8.976  10.519   7.650
 5905POPC   C1B21655   9.181  10.594   8.550
 5905POPC   C2B21656   9.161  10.562   8.250
 5905POPC   C3B21657   9.162  10.634   7.950
 5905POPC   C4B21658   9.205  10.582   7.650
 5906POPC   NC321659  20.571  10.505   9.450
 5906POPC   PO421660  20.594  10.564   9.150
 5906POPC   GL121661  20.652  10.492   8.850
 5906POPC   GL221662  20.524  10.539   8.850
 5906POPC   C1A21663  20.629  10.476   8.550
 5906POPC   D2A21664  20.623  10.566   8.250
 5906POPC   C3A21665  20.588  10.480   7.950
 5906POPC   C4A21666  20.621  10.567   7.650
 5906POPC   C1B21667  20.343  10.649   8.550
 5906POPC   C2B21668  20.399  10.649   8.250
 5906POPC   C3B21669  20.352  10.642   7.950
 5906POPC   C4B21670  20.372  10.615   7.650
 5907POPC   NC321671  36.110   0.433   9.450
 5907POPC   PO421672  36.165   0.459   9.150
 5907POPC   GL121673  36.091   0.430   8.850
 5907POPC   GL221674  36.196   0.518   8.850
 5907POPC   C1A21675  36.162   0.419   8.550
 5907POPC   D2A21676  36.128   0.459   8.250
 5907POPC   C3A21677  36.124   0.447   7.950
 5907POPC   C4A21678  36.091   0.467   7.650
 5907POPC   C1B21679  36.364   0.604   8.550
 5907POPC   C2B21680  36.390   0.559   8.250
 5907POPC   C3B21681  36.357   0.523   7.950
 5907POPC   C4B21682  36.304   0.580   7.650
 5908POPC   NC321683  28.366   8.149   9.450
 5908POPC   PO421684  28.341   8.217   9.150
 5908POPC   GL121685  28.323   8.168   8.850
 5908POPC   GL221686  28.313   8.270   8.850
 5908POPC   C1A21687  28.340   8.237   8.550
 5908POPC   D2A21688  28.417   8.189   8.250
 5908POPC   C3A21689  28.326   8.154   7.950
 5908POPC   C4A21690  28.392   8.242   7.650
 5908POPC   C1B21691  28.148   8.360   8.550
 5908POPC   C2B21692  28.171   8.294   8.250
 5908POPC   C3B21693  28.162   8.327   7.950
 5908POPC   C4B21694  28.150   8.306   7.650
 5909POPC   NC321695  24.536  22.134   9.450
 5909POPC   PO421696  24.464  22.195   9.150
 5909POPC   GL121697  24.481  22.203   8.850
 5909POPC   GL221698  24.458  22.255   8.850
 5909POPC   C1A21699  24.508  22.159   8.550
 5909POPC   D2A21700  24.456  22.181   8.250
 5909POPC   C3A21701  24.486  22.197   7.950
 5909POPC   C4A21702  24.502  22.150   7.650
 5909POPC   C1B21703  24.470  22.442   8.550
 5909POPC   C2B21704  24.494  22.379   8.250
 5909POPC   C3B21705  24.535  22.459   7.950
 5909POPC   C4B21706  24.503  22.394   7.650
 5910POPC   NC321707  43.931   8.196   9.450
 5910POPC   PO421708  43.837   8.223   9.150
 5910POPC   GL121709  43.898   8.229   8.850
 5910POPC   GL221710  43.838   8.037   8.850
 5910POPC   C1A21711  43.900   8.207   8.550
 5910POPC   D2A21712  43.909   8.225   8.250
 5910POPC   C3A21713  43.923   8.179   7.950
 5910POPC   C4A21714  43.857   8.174   7.650
 5910POPC   C1B21715  43.805   7.954   8.550
 5910POPC   C2B21716  43.758   7.938   8.250
 5910POPC   C3B21717  43.765   7.979   7.950
 5910POPC   C4B21718  43.783   7.920   7.650
 5911POPC   NC321719  19.854   1.973   9.450
 5911POPC   PO421720  19.849   2.006   9.150
 5911POPC   GL121721  19.871   1.953   8.850
 5911POPC   GL221722  19.928   1.956   8.850
 5911POPC   C1A21723  19.881   1.957   8.550
 5911POPC   D2A21724  19.812   1.942   8.250
 5911POPC   C3A21725  19.850   1.990   7.950
 5911POPC   C4A21726  19.857   2.008   7.650
 5911POPC   C1B21727  20.042   1.850   8.550
 5911POPC   C2B21728  20.029   1.843   8.250
 5911POPC   C3B21729  20.002   1.882   7.950
 5911POPC   C4B21730  20.054   1.862   7.650
 5912POPC   NC321731  41.521   5.082   9.450
 5912POPC   PO421732  41.558   5.099   9.150
 5912POPC   GL121733  41.554   5.137   8.850
 5912POPC   GL221734  41.716   5.056   8.850
 5912POPC   C1A21735  41.523   5.107   8.550
 5912POPC   D2A21736  41.539   5.068   8.250
 5912POPC   C3A21737  41.596   5.047   7.950
 5912POPC   C4A21738  41.597   5.131   7.650
 5912POPC   C1B21739  41.788   5.146   8.550
 5912POPC   C2B21740  41.838   5.110   8.250
 5912POPC   C3B21741  41.773   5.070   7.950
 5912POPC   C4B21742  41.778   5.054   7.650
 5913POPC   NC321743  36.949  43.903   9.450
 5913POPC   PO421744  36.863  43.930   9.150
 5913POPC   GL121745  36.933  43.884   8.850
 5913POPC   GL221746  37.039  43.983   8.850
 5913POPC   C1A21747  36.916  43.892   8.550
 5913POPC   D2A21748  36.868  43.875   8.250
 5913POPC   C3A21749  36.858  43.916   7.950
 5913POPC   C4A21750  36.919  43.858   7.650
 5913POPC   C1B21751  37.071  44.064   8.550
 5913POPC   C2B21752  37.100  44.025   8.250
 5913POPC   C3B21753  37.131  44.055   7.950
 5913POPC   C4B21754  37.084  44.052   7.650
 5914POPC   NC321755   8.952   3.501   9.450
 5914POPC   PO421756   8.982   3.527   9.150
 5914POPC   GL121757   8.953   3.492   8.850
 5914POPC   GL221758   9.010   3.661   8.850
 5914POPC   C1A21759   9.010   3.523   8.550
 5914POPC   D2A21760   8.969   3.553   8.250
 5914POPC   C3A21761   9.006   3.499   7.950
 5914POPC   C4A21762   8.979   3.513   7.650
 5914POPC   C1B21763   9.032   3.768   8.550
 5914POPC   C2B21764   9.083   3.759   8.250
 5914POPC   C3B21765   9.025   3.762   7.950
 5914POPC   C4B21766   9.102   3.748   7.650
 5915POPC   NC321767   4.288   5.854   9.450
 5915POPC   PO421768   4.327   5.873   9.150
 5915POPC   GL121769   4.321   5.917   8.850
 5915POPC   GL221770   4.426   5.931   8.850
 5915POPC   C1A21771   4.364   5.867   8.550
 5915POPC   D2A21772   4.319   5.891   8.250
 5915POPC   C3A21773   4.292   5.908   7.950
 5915POPC   C4A21774   4.342   5.866   7.650
 5915POPC   C1B21775   4.475   6.073   8.550
 5915POPC   C2B21776   4.445   6.042   8.250
 5915POPC   C3B21777   4.421   6.063   7.950
 5915POPC   C4B21778   4.503   6.052   7.650
 5916POPC   NC321779  44.623  26.057   9.450
 5916POPC   PO421780  44.647  26.011   9.150
 5916POPC   GL121781  44.615  26.046   8.850
 5916POPC   GL221782  44.540  25.993   8.850
 5916POPC   C1A21783  44.694  26.056   8.550
 5916POPC   D2A21784  44.676  26.026   8.250
 5916POPC   C3A21785  44.620  26.081   7.950
 5916POPC   C4A21786  44.672  26.087   7.650
 5916POPC   C1B21787  44.508  25.822   8.550
 5916POPC   C2B21788  44.526  25.869   8.250
 5916POPC   C3B21789  44.483  25.822   7.950
 5916POPC   C4B21790  44.528  25.859   7.650
 5917POPC   NC321791  22.916  22.962   9.450
 5917POPC   PO421792  22.968  22.950   9.150
 5917POPC   GL121793  22.900  22.933   8.850
 5917POPC   GL221794  22.954  22.860   8.850
 5917POPC   C1A21795  22.971  22.890   8.550
 5917POPC   D2A21796  22.919  22.909   8.250
 5917POPC   C3A21797  22.910  22.907   7.950
 5917POPC   C4A21798  22.910  22.962   7.650
 5917POPC   C1B21799  23.053  22.688   8.550
 5917POPC   C2B21800  23.043  22.725   8.250
 5917POPC   C3B21801  23.058  22.661   7.950
 5917POPC   C4B21802  23.053  22.736   7.650
 5918POPC   NC321803   2.784  30.741   9.450
 5918POPC   PO421804   2.813  30.691   9.150
 5918POPC   GL121805   2.742  30.707   8.850
 5918POPC   GL221806   2.695  30.785   8.850
 5918POPC   C1A21807   2.780  30.714   8.550
 5918POPC   D2A21808   2.806  30.682   8.250
 5918POPC   C3A21809   2.757  30.648   7.950
 5918POPC   C4A21810   2.792  30.720   7.650
 5918POPC   C1B21811   2.516  30.794   8.550
 5918POPC   C2B21812   2.543  30.863   8.250
 5918POPC   C3B21813   2.551  30.862   7.950
 5918POPC   C4B21814   2.590  30.847   7.650
 5919POPC   NC321815  42.342  44.650   9.450
 5919POPC   PO421816  42.357  44.675   9.150
 5919POPC   GL121817  42.384  44.698   8.850
 5919POPC   GL221818  42.380  44.517   8.850
 5919POPC   C1A21819  42.308  44.670   8.550
 5919POPC   D2A21820  42.295  44.669   8.250
 5919POPC   C3A21821  42.309  44.665   7.950
 5919POPC   C4A21822  42.367  44.694   7.650
 5919POPC   C1B21823  42.366  44.380   8.550
 5919POPC   C2B21824  42.425  44.447   8.250
 5919POPC   C3B21825  42.398  44.397   7.950
 5919POPC   C4B21826  42.436  44.429   7.650
 5920POPC   NC321827   5.056  21.394   9.450
 5920POPC   PO421828   5.098  21.426   9.150
 5920POPC   GL121829   5.139  21.357   8.850
 5920POPC   GL221830   5.138  21.516   8.850
 5920POPC   C1A21831   5.051  21.397   8.550
 5920POPC   D2A21832   5.079  21.400   8.250
 5920POPC   C3A21833   5.074  21.385   7.950
 5920POPC   C4A21834   5.066  21.351   7.650
 5920POPC   C1B21835   5.064  21.676   8.550
 5920POPC   C2B21836   5.055  21.674   8.250
 5920POPC   C3B21837   5.096  21.592   7.950
 5920POPC   C4B21838   5.095  21.647   7.650
 5921POPC   NC321839   6.597  37.719   9.450
 5921POPC   PO421840   6.668  37.670   9.150
 5921POPC   GL121841   6.679  37.634   8.850
 5921POPC   GL221842   6.772  37.740   8.850
 5921POPC   C1A21843   6.688  37.724   8.550
 5921POPC   D2A21844   6.639  37.704   8.250
 5921POPC   C3A21845   6.611  37.708   7.950
 5921POPC   C4A21846   6.672  37.702   7.650
 5921POPC   C1B21847   6.838  37.768   8.550
 5921POPC   C2B21848   6.904  37.792   8.250
 5921POPC   C3B21849   6.832  37.784   7.950
 5921POPC   C4B21850   6.822  37.777   7.650
 5922POPC   NC321851   9.713  29.885   9.450
 5922POPC   PO421852   9.781  29.905   9.150
 5922POPC   GL121853   9.742  29.945   8.850
 5922POPC   GL221854   9.867  29.862   8.850
 5922POPC   C1A21855   9.752  29.912   8.550
 5922POPC   D2A21856   9.766  29.875   8.250
 5922POPC   C3A21857   9.787  29.884   7.950
 5922POPC   C4A21858   9.788  29.949   7.650
 5922POPC   C1B21859   9.941  29.727   8.550
 5922POPC   C2B21860   9.962  29.703   8.250
 5922POPC   C3B21861   9.935  29.774   7.950
 5922POPC   C4B21862   9.944  29.749   7.650
 5923POPC   NC321863  16.702   5.859   9.450
 5923POPC   PO421864  16.689   5.870   9.150
 5923POPC   GL121865  16.691   5.854   8.850
 5923POPC   GL221866  16.617   5.949   8.850
 5923POPC   C1A21867  16.702   5.838   8.550
 5923POPC   D2A21868  16.766   5.910   8.250
 5923POPC   C3A21869  16.752   5.875   7.950
 5923POPC   C4A21870  16.717   5.823   7.650
 5923POPC   C1B21871  16.493   6.056   8.550
 5923POPC   C2B21872  16.489   5.979   8.250
 5923POPC   C3B21873  16.540   6.015   7.950
 5923POPC   C4B21874  16.573   6.049   7.650
 5924POPC   NC321875  21.367  28.407   9.450
 5924POPC   PO421876  21.416  28.347   9.150
 5924POPC   GL121877  21.378  28.392   8.850
 5924POPC   GL221878  21.476  28.473   8.850
 5924POPC   C1A21879  21.337  28.381   8.550
 5924POPC   D2A21880  21.407  28.325   8.250
 5924POPC   C3A21881  21.375  28.394   7.950
 5924POPC   C4A21882  21.371  28.365   7.650
 5924POPC   C1B21883  21.560  28.531   8.550
 5924POPC   C2B21884  21.553  28.551   8.250
 5924POPC   C3B21885  21.547  28.548   7.950
 5924POPC   C4B21886  21.570  28.546   7.650
 5925POPC   NC321887  15.972  38.459   9.450
 5925POPC   PO421888  15.973  38.422   9.150
 5925POPC   GL121889  15.932  38.407   8.850
 5925POPC   GL221890  15.839  38.370   8.850
 5925POPC   C1A21891  15.997  38.503   8.550
 5925POPC   D2A21892  15.964  38.436   8.250
 5925POPC   C3A21893  15.948  38.438   7.950
 5925POPC   C4A21894  15.914  38.414   7.650
 5925POPC   C1B21895  15.834  38.280   8.550
 5925POPC   C2B21896  15.785  38.217   8.250
 5925POPC   C3B21897  15.827  38.227   7.950
 5925POPC   C4B21898  15.845  38.293   7.650
 5926POPC   NC321899  41.546  15.227   9.450
 5926POPC   PO421900  41.603  15.210   9.150
 5926POPC   GL121901  41.594  15.184   8.850
 5926POPC   GL221902  41.412  15.154   8.850
 5926POPC   C1A21903  41.579  15.210   8.550
 5926POPC   D2A21904  41.562  15.145   8.250
 5926POPC   C3A21905  41.523  15.168   7.950
 5926POPC   C4A21906  41.559  15.131   7.650
 5926POPC   C1B21907  41.336  15.019   8.550
 5926POPC   C2B21908  41.313  15.042   8.250
 5926POPC   C3B21909  41.312  15.079   7.950
 5926POPC   C4B21910  41.344  15.062   7.650
 5927POPC   NC321911   6.595  21.435   9.450
 5927POPC   PO421912   6.688  21.426   9.150
 5927POPC   GL121913   6.656  21.411   8.850
 5927POPC   GL221914   6.781  21.408   8.850
 5927POPC   C1A21915   6.667  21.400   8.550
 5927POPC   D2A21916   6.665  21.372   8.250
 5927POPC   C3A21917   6.672  21.348   7.950
 5927POPC   C4A21918   6.684  21.358   7.650
 5927POPC   C1B21919   6.922  21.389   8.550
 5927POPC   C2B21920   6.887  21.407   8.250
 5927POPC   C3B21921   6.863  21.465   7.950
 5927POPC   C4B21922   6.841  21.390   7.650
 5928POPC   NC321923  18.329  39.998   9.450
 5928POPC   PO421924  18.249  39.967   9.150
 5928POPC   GL121925  18.293  39.991   8.850
 5928POPC   GL221926  18.335  39.844   8.850
 5928POPC   C1A21927  18.292  39.998   8.550
 5928POPC   D2A21928  18.328  39.971   8.250
 5928POPC   C3A21929  18.271  39.972   7.950
 5928POPC   C4A21930  18.253  39.989   7.650
 5928POPC   C1B21931  18.368  39.798   8.550
 5928POPC   C2B21932  18.421  39.760   8.250
 5928POPC   C3B21933  18.354  39.822   7.950
 5928POPC   C4B21934  18.388  39.778   7.650
 5929POPC   NC321935  21.378  44.622   9.450
 5929POPC   PO421936  21.432  44.691   9.150
 5929POPC   GL121937  21.371  44.670   8.850
 5929POPC   GL221938  21.279  44.578   8.850
 5929POPC   C1A21939  21.353  44.616   8.550
 5929POPC   D2A21940  21.365  44.652   8.250
 5929POPC   C3A21941  21.363  44.706   7.950
 5929POPC   C4A21942  21.423  44.676   7.650
 5929POPC   C1B21943  21.238  44.491   8.550
 5929POPC   C2B21944  21.200  44.531   8.250
 5929POPC   C3B21945  21.252  44.455   7.950
 5929POPC   C4B21946  21.197  44.438   7.650
 5930POPC   NC321947  36.131  30.688   9.450
 5930POPC   PO421948  36.139  30.731   9.150
 5930POPC   GL121949  36.096  30.675   8.850
 5930POPC   GL221950  36.042  30.612   8.850
 5930POPC   C1A21951  36.086  30.669   8.550
 5930POPC   D2A21952  36.094  30.686   8.250
 5930POPC   C3A21953  36.147  30.698   7.950
 5930POPC   C4A21954  36.106  30.653   7.650
 5930POPC   C1B21955  35.946  30.587   8.550
 5930POPC   C2B21956  35.932  30.617   8.250
 5930POPC   C3B21957  35.917  30.578   7.950
 5930POPC   C4B21958  35.912  30.578   7.650
 5931POPC   NC321959  36.120  19.873   9.450
 5931POPC   PO421960  36.121  19.834   9.150
 5931POPC   GL121961  36.143  19.792   8.850
 5931POPC   GL221962  36.190  19.726   8.850
 5931POPC   C1A21963  36.100  19.870   8.550
 5931POPC   D2A21964  36.123  19.876   8.250
 5931POPC   C3A21965  36.086  19.792   7.950
 5931POPC   C4A21966  36.137  19.832   7.650
 5931POPC   C1B21967  36.265  19.599   8.550
 5931POPC   C2B21968  36.229  19.644   8.250
 5931POPC   C3B21969  36.239  19.620   7.950
 5931POPC   C4B21970  36.287  19.603   7.650
 5932POPC   NC321971  31.499  31.467   9.450
 5932POPC   PO421972  31.438  31.488   9.150
 5932POPC   GL121973  31.478  31.512   8.850
 5932POPC   GL221974  31.371  31.497   8.850
 5932POPC   C1A21975  31.520  31.476   8.550
 5932POPC   D2A21976  31.492  31.506   8.250
 5932POPC   C3A21977  31.467  31.479   7.950
 5932POPC   C4A21978  31.496  31.489   7.650
 5932POPC   C1B21979  31.263  31.494   8.550
 5932POPC   C2B21980  31.212  31.509   8.250
 5932POPC   C3B21981  31.205  31.514   7.950
 5932POPC   C4B21982  31.202  31.500   7.650
 5933POPC   NC321983  33.068  11.276   9.450
 5933POPC   PO421984  32.980  11.271   9.150
 5933POPC   GL121985  33.015  11.321   8.850
 5933POPC   GL221986  33.091  11.422   8.850
 5933POPC   C1A21987  33.030  11.312   8.550
 5933POPC   D2A21988  32.976  11.262   8.250
 5933POPC   C3A21989  33.064  11.299   7.950
 5933POPC   C4A21990  33.067  11.266   7.650
 5933POPC   C1B21991  33.102  11.518   8.550
 5933POPC   C2B21992  33.059  11.572   8.250
 5933POPC   C3B21993  33.105  11.506   7.950
 5933POPC   C4B21994  33.093  11.502   7.650
 5934POPC   NC321995  31.460  40.003   9.450
 5934POPC   PO421996  31.437  39.981   9.150
 5934POPC   GL121997  31.510  40.037   8.850
 5934POPC   GL221998  31.490  39.878   8.850
 5934POPC   C1A21999  31.438  40.019   8.550
 5934POPC   D2A22000  31.479  39.958   8.250
 5934POPC   C3A22001  31.433  40.045   7.950
 5934POPC   C4A22002  31.442  39.961   7.650
 5934POPC   C1B22003  31.387  39.801   8.550
 5934POPC   C2B22004  31.459  39.768   8.250
 5934POPC   C3B22005  31.389  39.767   7.950
 5934POPC   C4B22006  31.468  39.797   7.650
 5935POPC   NC322007  38.412  12.858   9.450
 5935POPC   PO422008  38.455  12.812   9.150
 5935POPC   GL122009  38.497  12.880   8.850
 5935POPC   GL222010  38.391  12.926   8.850
 5935POPC   C1A22011  38.502  12.811   8.550
 5935POPC   D2A22012  38.476  12.877   8.250
 5935POPC   C3A22013  38.423  12.814   7.950
 5935POPC   C4A22014  38.433  12.848   7.650
 5935POPC   C1B22015  38.258  12.985   8.550
 5935POPC   C2B22016  38.265  12.975   8.250
 5935POPC   C3B22017  38.302  13.060   7.950
 5935POPC   C4B22018  38.267  13.060   7.650
 5936POPC   NC322019   7.457  32.987   9.450
 5936POPC   PO422020   7.431  33.067   9.150
 5936POPC   GL122021   7.465  32.988   8.850
 5936POPC   GL222022   7.273  33.001   8.850
 5936POPC   C1A22023   7.458  33.061   8.550
 5936POPC   D2A22024   7.442  33.008   8.250
 5936POPC   C3A22025   7.386  33.032   7.950
 5936POPC   C4A22026   7.401  32.995   7.650
 5936POPC   C1B22027   7.237  32.865   8.550
 5936POPC   C2B22028   7.236  32.872   8.250
 5936POPC   C3B22029   7.205  32.916   7.950
 5936POPC   C4B22030   7.174  32.917   7.650
 5937POPC   NC322031  12.805   3.588   9.450
 5937POPC   PO422032  12.890   3.539   9.150
 5937POPC   GL122033  12.827   3.532   8.850
 5937POPC   GL222034  12.996   3.613   8.850
 5937POPC   C1A22035  12.852   3.533   8.550
 5937POPC   D2A22036  12.826   3.566   8.250
 5937POPC   C3A22037  12.859   3.523   7.950
 5937POPC   C4A22038  12.849   3.559   7.650
 5937POPC   C1B22039  13.040   3.649   8.550
 5937POPC   C2B22040  13.029   3.691   8.250
 5937POPC   C3B22041  13.088   3.676   7.950
 5937POPC   C4B22042  13.006   3.729   7.650
 5938POPC   NC322043   2.804   1.183   9.450
 5938POPC   PO422044   2.787   1.183   9.150
 5938POPC   GL122045   2.755   1.204   8.850
 5938POPC   GL222046   2.658   1.258   8.850
 5938POPC   C1A22047   2.815   1.174   8.550
 5938POPC   D2A22048   2.769   1.259   8.250
 5938POPC   C3A22049   2.740   1.179   7.950
 5938POPC   C4A22050   2.786   1.238   7.650
 5938POPC   C1B22051   2.567   1.300   8.550
 5938POPC   C2B22052   2.529   1.237   8.250
 5938POPC   C3B22053   2.566   1.227   7.950
 5938POPC   C4B22054   2.570   1.224   7.650
 5939POPC   NC322055  23.755  19.868   9.450
 5939POPC   PO422056  23.717  19.802   9.150
 5939POPC   GL122057  23.703  19.846   8.850
 5939POPC   GL222058  23.853  19.788   8.850
 5939POPC   C1A22059  23.697  19.826   8.550
 5939POPC   D2A22060  23.701  19.817   8.250
 5939POPC   C3A22061  23.683  19.832   7.950
 5939POPC   C4A22062  23.688  19.875   7.650
 5939POPC   C1B22063  23.998  19.766   8.550
 5939POPC   C2B22064  23.948  19.768   8.250
 5939POPC   C3B22065  23.987  19.820   7.950
 5939POPC   C4B22066  23.984  19.814   7.650
 5940POPC   NC322067   0.454  44.636   9.450
 5940POPC   PO422068   0.431  44.613   9.150
 5940POPC   GL122069   0.462  44.697   8.850
 5940POPC   GL222070   0.334  44.691   8.850
 5940POPC   C1A22071   0.483  44.640   8.550
 5940POPC   D2A22072   0.444  44.693   8.250
 5940POPC   C3A22073   0.480  44.640   7.950
 5940POPC   C4A22074   0.396  44.678   7.650
 5940POPC   C1B22075   0.220  44.765   8.550
 5940POPC   C2B22076   0.198  44.770   8.250
 5940POPC   C3B22077   0.178  44.758   7.950
 5940POPC   C4B22078   0.208  44.681   7.650
 5941POPC   NC322079  18.310  11.332   9.450
 5941POPC   PO422080  18.286  11.251   9.150
 5941POPC   GL122081  18.243  11.333   8.850
 5941POPC   GL222082  18.260  11.450   8.850
 5941POPC   C1A22083  18.234  11.297   8.550
 5941POPC   D2A22084  18.266  11.254   8.250
 5941POPC   C3A22085  18.314  11.304   7.950
 5941POPC   C4A22086  18.321  11.283   7.650
 5941POPC   C1B22087  18.233  11.546   8.550
 5941POPC   C2B22088  18.274  11.527   8.250
 5941POPC   C3B22089  18.267  11.586   7.950
 5941POPC   C4B22090  18.201  11.502   7.650
 5942POPC   NC322091   0.476  42.341   9.450
 5942POPC   PO422092   0.481  42.315   9.150
 5942POPC   GL122093   0.480  42.287   8.850
 5942POPC   GL222094   0.288  42.401   8.850
 5942POPC   C1A22095   0.439  42.355   8.550
 5942POPC   D2A22096   0.437  42.366   8.250
 5942POPC   C3A22097   0.417  42.343   7.950
 5942POPC   C4A22098   0.486  42.286   7.650
 5942POPC   C1B22099   0.203  42.420   8.550
 5942POPC   C2B22100   0.243  42.418   8.250
 5942POPC   C3B22101   0.183  42.348   7.950
 5942POPC   C4B22102   0.182  42.391   7.650
 5943POPC   NC322103  12.050  41.528   9.450
 5943POPC   PO422104  12.033  41.514   9.150
 5943POPC   GL122105  12.076  41.568   8.850
 5943POPC   GL222106  11.968  41.464   8.850
 5943POPC   C1A22107  12.065  41.536   8.550
 5943POPC   D2A22108  12.094  41.578   8.250
 5943POPC   C3A22109  12.046  41.532   7.950
 5943POPC   C4A22110  12.117  41.581   7.650
 5943POPC   C1B22111  11.874  41.431   8.550
 5943POPC   C2B22112  11.840  41.403   8.250
 5943POPC   C3B22113  11.931  41.374   7.950
 5943POPC   C4B22114  11.847  41.391   7.650
 5944POPC   NC322115   0.403  22.922   9.450
 5944POPC   PO422116   0.433  22.930   9.150
 5944POPC   GL122117   0.483  22.897   8.850
 5944POPC   GL222118   0.393  23.000   8.850
 5944POPC   C1A22119   0.427  22.985   8.550
 5944POPC   D2A22120   0.389  22.973   8.250
 5944POPC   C3A22121   0.455  22.984   7.950
 5944POPC   C4A22122   0.434  22.979   7.650
 5944POPC   C1B22123   0.317  23.120   8.550
 5944POPC   C2B22124   0.326  23.117   8.250
 5944POPC   C3B22125   0.289  23.159   7.950
 5944POPC   C4B22126   0.272  23.187   7.650
 5945POPC   NC322127   4.300   8.969   9.450
 5945POPC   PO422128   4.353   8.933   9.150
 5945POPC   GL122129   4.338   8.994   8.850
 5945POPC   GL222130   4.400   9.021   8.850
 5945POPC   C1A22131   4.282   8.939   8.550
 5945POPC   D2A22132   4.273   8.945   8.250
 5945POPC   C3A22133   4.363   8.988   7.950
 5945POPC   C4A22134   4.346   8.978   7.650
 5945POPC   C1B22135   4.510   9.111   8.550
 5945POPC   C2B22136   4.496   9.129   8.250
 5945POPC   C3B22137   4.482   9.100   7.950
 5945POPC   C4B22138   4.508   9.190   7.650
 5946POPC   NC322139  11.292  44.667   9.450
 5946POPC   PO422140  11.328  44.638   9.150
 5946POPC   GL122141  11.348  44.676   8.850
 5946POPC   GL222142  11.345  44.497   8.850
 5946POPC   C1A22143  11.317  44.622   8.550
 5946POPC   D2A22144  11.314  44.625   8.250
 5946POPC   C3A22145  11.266  44.669   7.950
 5946POPC   C4A22146  11.350  44.648   7.650
 5946POPC   C1B22147  11.267  44.438   8.550
 5946POPC   C2B22148  11.326  44.371   8.250
 5946POPC   C3B22149  11.329  44.461   7.950
 5946POPC   C4B22150  11.296  44.453   7.650
 5947POPC   NC322151   1.221   6.691   9.450
 5947POPC   PO422152   1.191   6.621   9.150
 5947POPC   GL122153   1.175   6.695   8.850
 5947POPC   GL222154   1.089   6.678   8.850
 5947POPC   C1A22155   1.168   6.691   8.550
 5947POPC   D2A22156   1.181   6.665   8.250
 5947POPC   C3A22157   1.232   6.669   7.950
 5947POPC   C4A22158   1.247   6.637   7.650
 5947POPC   C1B22159   0.934   6.756   8.550
 5947POPC   C2B22160   0.947   6.703   8.250
 5947POPC   C3B22161   1.000   6.752   7.950
 5947POPC   C4B22162   0.929   6.726   7.650
 5948POPC   NC322163  33.811  11.301   9.450
 5948POPC   PO422164  33.846  11.307   9.150
 5948POPC   GL122165  33.760  11.327   8.850
 5948POPC   GL222166  33.866  11.137   8.850
 5948POPC   C1A22167  33.797  11.336   8.550
 5948POPC   D2A22168  33.764  11.293   8.250
 5948POPC   C3A22169  33.783  11.314   7.950
 5948POPC   C4A22170  33.753  11.334   7.650
 5948POPC   C1B22171  33.865  11.015   8.550
 5948POPC   C2B22172  33.784  11.017   8.250
 5948POPC   C3B22173  33.836  11.017   7.950
 5948POPC   C4B22174  33.860  11.016   7.650
 5949POPC   NC322175  29.144   2.765   9.450
 5949POPC   PO422176  29.182   2.770   9.150
 5949POPC   GL122177  29.132   2.759   8.850
 5949POPC   GL222178  29.229   2.920   8.850
 5949POPC   C1A22179  29.174   2.751   8.550
 5949POPC   D2A22180  29.119   2.750   8.250
 5949POPC   C3A22181  29.162   2.800   7.950
 5949POPC   C4A22182  29.121   2.727   7.650
 5949POPC   C1B22183  29.264   3.016   8.550
 5949POPC   C2B22184  29.194   2.992   8.250
 5949POPC   C3B22185  29.214   3.029   7.950
 5949POPC   C4B22186  29.246   3.019   7.650
 5950POPC   NC322187   8.200   5.104   9.450
 5950POPC   PO422188   8.150   5.133   9.150
 5950POPC   GL122189   8.197   5.081   8.850
 5950POPC   GL222190   8.057   4.985   8.850
 5950POPC   C1A22191   8.183   5.044   8.550
 5950POPC   D2A22192   8.217   5.085   8.250
 5950POPC   C3A22193   8.219   5.141   7.950
 5950POPC   C4A22194   8.148   5.089   7.650
 5950POPC   C1B22195   7.987   4.990   8.550
 5950POPC   C2B22196   8.002   4.964   8.250
 5950POPC   C3B22197   7.957   4.920   7.950
 5950POPC   C4B22198   7.977   4.927   7.650
 5951POPC   NC322199   2.035  25.256   9.450
 5951POPC   PO422200   1.955  25.297   9.150
 5951POPC   GL122201   2.008  25.218   8.850
 5951POPC   GL222202   2.027  25.369   8.850
 5951POPC   C1A22203   1.988  25.288   8.550
 5951POPC   D2A22204   2.039  25.236   8.250
 5951POPC   C3A22205   1.956  25.309   7.950
 5951POPC   C4A22206   1.960  25.240   7.650
 5951POPC   C1B22207   2.075  25.498   8.550
 5951POPC   C2B22208   2.125  25.478   8.250
 5951POPC   C3B22209   2.141  25.461   7.950
 5951POPC   C4B22210   2.103  25.527   7.650
 5952POPC   NC322211   5.917  12.867   9.450
 5952POPC   PO422212   5.864  12.872   9.150
 5952POPC   GL122213   5.857  12.876   8.850
 5952POPC   GL222214   6.009  12.778   8.850
 5952POPC   C1A22215   5.821  12.802   8.550
 5952POPC   D2A22216   5.918  12.868   8.250
 5952POPC   C3A22217   5.908  12.818   7.950
 5952POPC   C4A22218   5.866  12.853   7.650
 5952POPC   C1B22219   6.086  12.741   8.550
 5952POPC   C2B22220   6.114  12.788   8.250
 5952POPC   C3B22221   6.081  12.814   7.950
 5952POPC   C4B22222   6.143  12.809   7.650
 5953POPC   NC322223  43.911  22.894   9.450
 5953POPC   PO422224  43.906  22.920   9.150
 5953POPC   GL122225  43.935  22.959   8.850
 5953POPC   GL222226  44.051  22.891   8.850
 5953POPC   C1A22227  43.910  22.928   8.550
 5953POPC   D2A22228  43.838  22.891   8.250
 5953POPC   C3A22229  43.883  22.928   7.950
 5953POPC   C4A22230  43.936  22.937   7.650
 5953POPC   C1B22231  44.145  22.847   8.550
 5953POPC   C2B22232  44.108  22.859   8.250
 5953POPC   C3B22233  44.156  22.822   7.950
 5953POPC   C4B22234  44.171  22.830   7.650
 5954POPC   NC322235  42.382  34.545   9.450
 5954POPC   PO422236  42.322  34.533   9.150
 5954POPC   GL122237  42.353  34.549   8.850
 5954POPC   GL222238  42.472  34.633   8.850
 5954POPC   C1A22239  42.293  34.547   8.550
 5954POPC   D2A22240  42.368  34.558   8.250
 5954POPC   C3A22241  42.366  34.572   7.950
 5954POPC   C4A22242  42.338  34.596   7.650
 5954POPC   C1B22243  42.584  34.669   8.550
 5954POPC   C2B22244  42.541  34.701   8.250
 5954POPC   C3B22245  42.526  34.743   7.950
 5954POPC   C4B22246  42.503  34.678   7.650
 5955POPC   NC322247  19.094  12.038   9.450
 5955POPC   PO422248  19.083  12.100   9.150
 5955POPC   GL122249  19.078  12.069   8.850
 5955POPC   GL222250  18.930  12.122   8.850
 5955POPC   C1A22251  19.053  12.044   8.550
 5955POPC   D2A22252  19.095  12.056   8.250
 5955POPC   C3A22253  19.060  12.059   7.950
 5955POPC   C4A22254  19.068  12.121   7.650
 5955POPC   C1B22255  18.909  12.216   8.550
 5955POPC   C2B22256  18.826  12.219   8.250
 5955POPC   C3B22257  18.837  12.248   7.950
 5955POPC   C4B22258  18.854  12.241   7.650
 5956POPC   NC322259   1.261   5.064   9.450
 5956POPC   PO422260   1.252   5.129   9.150
 5956POPC   GL122261   1.237   5.088   8.850
 5956POPC   GL222262   1.088   5.096   8.850
 5956POPC   C1A22263   1.257   5.135   8.550
 5956POPC   D2A22264   1.225   5.075   8.250
 5956POPC   C3A22265   1.238   5.077   7.950
 5956POPC   C4A22266   1.187   5.062   7.650
 5956POPC   C1B22267   0.967   5.115   8.550
 5956POPC   C2B22268   0.965   5.177   8.250
 5956POPC   C3B22269   0.921   5.138   7.950
 5956POPC   C4B22270   0.988   5.146   7.650
 5957POPC   NC322271  33.001  31.459   9.450
 5957POPC   PO422272  33.051  31.495   9.150
 5957POPC   GL122273  32.997  31.476   8.850
 5957POPC   GL222274  33.159  31.526   8.850
 5957POPC   C1A22275  33.024  31.438   8.550
 5957POPC   D2A22276  33.047  31.506   8.250
 5957POPC   C3A22277  33.047  31.424   7.950
 5957POPC   C4A22278  33.019  31.438   7.650
 5957POPC   C1B22279  33.241  31.477   8.550
 5957POPC   C2B22280  33.240  31.461   8.250
 5957POPC   C3B22281  33.280  31.505   7.950
 5957POPC   C4B22282  33.226  31.476   7.650
 5958POPC   NC322283  30.664  43.846   9.450
 5958POPC   PO422284  30.706  43.874   9.150
 5958POPC   GL122285  30.723  43.922   8.850
 5958POPC   GL222286  30.618  43.920   8.850
 5958POPC   C1A22287  30.677  43.907   8.550
 5958POPC   D2A22288  30.729  43.840   8.250
 5958POPC   C3A22289  30.712  43.860   7.950
 5958POPC   C4A22290  30.711  43.930   7.650
 5958POPC   C1B22291  30.494  43.883   8.550
 5958POPC   C2B22292  30.413  43.887   8.250
 5958POPC   C3B22293  30.479  43.882   7.950
 5958POPC   C4B22294  30.497  43.816   7.650
 5959POPC   NC322295   5.088   8.983   9.450
 5959POPC   PO422296   5.131   8.960   9.150
 5959POPC   GL122297   5.122   8.969   8.850
 5959POPC   GL222298   5.233   8.909   8.850
 5959POPC   C1A22299   5.109   8.956   8.550
 5959POPC   D2A22300   5.065   9.001   8.250
 5959POPC   C3A22301   5.125   8.960   7.950
 5959POPC   C4A22302   5.078   8.975   7.650
 5959POPC   C1B22303   5.330   8.820   8.550
 5959POPC   C2B22304   5.312   8.808   8.250
 5959POPC   C3B22305   5.251   8.852   7.950
 5959POPC   C4B22306   5.345   8.822   7.650
 5960POPC   NC322307   3.536   8.932   9.450
 5960POPC   PO422308   3.497   8.960   9.150
 5960POPC   GL122309   3.508   8.953   8.850
 5960POPC   GL222310   3.394   8.992   8.850
 5960POPC   C1A22311   3.588   9.014   8.550
 5960POPC   D2A22312   3.564   8.948   8.250
 5960POPC   C3A22313   3.495   9.006   7.950
 5960POPC   C4A22314   3.497   9.005   7.650
 5960POPC   C1B22315   3.343   8.925   8.550
 5960POPC   C2B22316   3.307   8.960   8.250
 5960POPC   C3B22317   3.303   8.948   7.950
 5960POPC   C4B22318   3.320   8.967   7.650
 5961POPC   NC322319  22.198  30.678   9.450
 5961POPC   PO422320  22.154  30.672   9.150
 5961POPC   GL122321  22.151  30.692   8.850
 5961POPC   GL222322  22.282  30.733   8.850
 5961POPC   C1A22323  22.117  30.647   8.550
 5961POPC   D2A22324  22.185  30.697   8.250
 5961POPC   C3A22325  22.198  30.681   7.950
 5961POPC   C4A22326  22.166  30.648   7.650
 5961POPC   C1B22327  22.357  30.712   8.550
 5961POPC   C2B22328  22.390  30.752   8.250
 5961POPC   C3B22329  22.445  30.714   7.950
 5961POPC   C4B22330  22.371  30.707   7.650
 5962POPC   NC322331  43.068  43.875   9.450
 5962POPC   PO422332  43.123  43.846   9.150
 5962POPC   GL122333  43.082  43.844   8.850
 5962POPC   GL222334  43.213  43.884   8.850
 5962POPC   C1A22335  43.079  43.882   8.550
 5962POPC   D2A22336  43.101  43.885   8.250
 5962POPC   C3A22337  43.080  43.841   7.950
 5962POPC   C4A22338  43.117  43.868   7.650
 5962POPC   C1B22339  43.327  43.918   8.550
 5962POPC   C2B22340  43.325  43.948   8.250
 5962POPC   C3B22341  43.364  43.929   7.950
 5962POPC   C4B22342  43.325  43.939   7.650
 5963POPC   NC322343  18.289  17.548   9.450
 5963POPC   PO422344  18.261  17.506   9.150
 5963POPC   GL122345  18.254  17.522   8.850
 5963POPC   GL222346  18.336  17.572   8.850
 5963POPC   C1A22347  18.276  17.556   8.550
 5963POPC   D2A22348  18.235  17.463   8.250
 5963POPC   C3A22349  18.245  17.494   7.950
 5963POPC   C4A22350  18.246  17.527   7.650
 5963POPC   C1B22351  18.503  17.670   8.550
 5963POPC   C2B22352  18.486  17.705   8.250
 5963POPC   C3B22353  18.496  17.622   7.950
 5963POPC   C4B22354  18.496  17.695   7.650
 5964POPC   NC322355   5.862  29.949   9.450
 5964POPC   PO422356   5.860  29.906   9.150
 5964POPC   GL122357   5.895  29.936   8.850
 5964POPC   GL222358   5.977  29.966   8.850
 5964POPC   C1A22359   5.911  29.914   8.550
 5964POPC   D2A22360   5.828  29.932   8.250
 5964POPC   C3A22361   5.908  29.926   7.950
 5964POPC   C4A22362   5.917  29.950   7.650
 5964POPC   C1B22363   6.134  29.868   8.550
 5964POPC   C2B22364   6.146  29.903   8.250
 5964POPC   C3B22365   6.155  29.880   7.950
 5964POPC   C4B22366   6.109  29.905   7.650
 5965POPC   NC322367  15.967  39.182   9.450
 5965POPC   PO422368  15.961  39.211   9.150
 5965POPC   GL122369  15.956  39.233   8.850
 5965POPC   GL222370  16.051  39.180   8.850
 5965POPC   C1A22371  15.983  39.215   8.550
 5965POPC   D2A22372  15.994  39.263   8.250
 5965POPC   C3A22373  15.969  39.242   7.950
 5965POPC   C4A22374  15.913  39.241   7.650
 5965POPC   C1B22375  16.140  39.106   8.550
 5965POPC   C2B22376  16.161  39.034   8.250
 5965POPC   C3B22377  16.174  39.045   7.950
 5965POPC   C4B22378  16.125  39.064   7.650
 5966POPC   NC322379   5.875  18.241   9.450
 5966POPC   PO422380   5.908  18.299   9.150
 5966POPC   GL122381   5.833  18.248   8.850
 5966POPC   GL222382   5.810  18.180   8.850
 5966POPC   C1A22383   5.819  18.308   8.550
 5966POPC   D2A22384   5.897  18.261   8.250
 5966POPC   C3A22385   5.852  18.320   7.950
 5966POPC   C4A22386   5.905  18.311   7.650
 5966POPC   C1B22387   5.753  18.111   8.550
 5966POPC   C2B22388   5.695  18.064   8.250
 5966POPC   C3B22389   5.705  18.089   7.950
 5966POPC   C4B22390   5.697  18.028   7.650
 5967POPC   NC322391   3.568  27.613   9.450
 5967POPC   PO422392   3.576  27.597   9.150
 5967POPC   GL122393   3.569  27.596   8.850
 5967POPC   GL222394   3.632  27.665   8.850
 5967POPC   C1A22395   3.529  27.590   8.550
 5967POPC   D2A22396   3.524  27.554   8.250
 5967POPC   C3A22397   3.504  27.546   7.950
 5967POPC   C4A22398   3.590  27.607   7.650
 5967POPC   C1B22399   3.738  27.623   8.550
 5967POPC   C2B22400   3.768  27.617   8.250
 5967POPC   C3B22401   3.834  27.692   7.950
 5967POPC   C4B22402   3.827  27.628   7.650
 5968POPC   NC322403  25.282   8.973   9.450
 5968POPC   PO422404  25.227   9.008   9.150
 5968POPC   GL122405  25.264   8.975   8.850
 5968POPC   GL222406  25.138   9.063   8.850
 5968POPC   C1A22407  25.258   8.950   8.550
 5968POPC   D2A22408  25.233   9.008   8.250
 5968POPC   C3A22409  25.275   8.938   7.950
 5968POPC   C4A22410  25.309   8.973   7.650
 5968POPC   C1B22411  25.033   9.079   8.550
 5968POPC   C2B22412  25.069   9.088   8.250
 5968POPC   C3B22413  25.007   9.110   7.950
 5968POPC   C4B22414  25.057   9.051   7.650
 5969POPC   NC322415  26.089   3.510   9.450
 5969POPC   PO422416  26.073   3.503   9.150
 5969POPC   GL122417  25.993   3.511   8.850
 5969POPC   GL222418  25.945   3.591   8.850
 5969POPC   C1A22419  26.073   3.507   8.550
 5969POPC   D2A22420  26.015   3.536   8.250
 5969POPC   C3A22421  26.011   3.499   7.950
 5969POPC   C4A22422  26.043   3.542   7.650
 5969POPC   C1B22423  25.820   3.586   8.550
 5969POPC   C2B22424  25.807   3.631   8.250
 5969POPC   C3B22425  25.815   3.651   7.950
 5969POPC   C4B22426  25.809   3.625   7.650
 5970POPC   NC322427  36.854  20.613   9.450
 5970POPC   PO422428  36.875  20.650   9.150
 5970POPC   GL122429  36.934  20.575   8.850
 5970POPC   GL222430  37.045  20.672   8.850
 5970POPC   C1A22431  36.950  20.568   8.550
 5970POPC   D2A22432  36.948  20.566   8.250
 5970POPC   C3A22433  36.875  20.562   7.950
 5970POPC   C4A22434  36.858  20.630   7.650
 5970POPC   C1B22435  37.129  20.791   8.550
 5970POPC   C2B22436  37.112  20.746   8.250
 5970POPC   C3B22437  37.118  20.780   7.950
 5970POPC   C4B22438  37.087  20.737   7.650
 5971POPC   NC322439  11.344  40.786   9.450
 5971POPC   PO422440  11.253  40.832   9.150
 5971POPC   GL122441  11.279  40.805   8.850
 5971POPC   GL222442  11.183  40.637   8.850
 5971POPC   C1A22443  11.321  40.760   8.550
 5971POPC   D2A22444  11.275  40.809   8.250
 5971POPC   C3A22445  11.309  40.775   7.950
 5971POPC   C4A22446  11.289  40.734   7.650
 5971POPC   C1B22447  11.136  40.607   8.550
 5971POPC   C2B22448  11.164  40.625   8.250
 5971POPC   C3B22449  11.113  40.620   7.950
 5971POPC   C4B22450  11.197  40.592   7.650
 5972POPC   NC322451  43.126  44.692   9.450
 5972POPC   PO422452  43.076  44.687   9.150
 5972POPC   GL122453  43.122  44.618   8.850
 5972POPC   GL222454  43.013  44.549   8.850
 5972POPC   C1A22455  43.104  44.660   8.550
 5972POPC   D2A22456  43.122  44.699   8.250
 5972POPC   C3A22457  43.089  44.680   7.950
 5972POPC   C4A22458  43.090  44.650   7.650
 5972POPC   C1B22459  42.993  44.496   8.550
 5972POPC   C2B22460  42.946  44.486   8.250
 5972POPC   C3B22461  42.959  44.497   7.950
 5972POPC   C4B22462  42.923  44.490   7.650
 5973POPC   NC322463  12.080  32.273   9.450
 5973POPC   PO422464  12.092  32.239   9.150
 5973POPC   GL122465  12.102  32.258   8.850
 5973POPC   GL222466  11.922  32.266   8.850
 5973POPC   C1A22467  12.063  32.249   8.550
 5973POPC   D2A22468  12.062  32.237   8.250
 5973POPC   C3A22469  12.117  32.276   7.950
 5973POPC   C4A22470  12.039  32.291   7.650
 5973POPC   C1B22471  11.822  32.334   8.550
 5973POPC   C2B22472  11.861  32.394   8.250
 5973POPC   C3B22473  11.843  32.406   7.950
 5973POPC   C4B22474  11.873  32.369   7.650
 5974POPC   NC322475  43.863  39.240   9.450
 5974POPC   PO422476  43.864  39.235   9.150
 5974POPC   GL122477  43.894  39.273   8.850
 5974POPC   GL222478  44.009  39.287   8.850
 5974POPC   C1A22479  43.896  39.203   8.550
 5974POPC   D2A22480  43.934  39.238   8.250
 5974POPC   C3A22481  43.915  39.279   7.950
 5974POPC   C4A22482  43.936  39.241   7.650
 5974POPC   C1B22483  44.167  39.303   8.550
 5974POPC   C2B22484  44.098  39.284   8.250
 5974POPC   C3B22485  44.123  39.321   7.950
 5974POPC   C4B22486  44.146  39.265   7.650
 5975POPC   NC322487  21.436  41.558   9.450
 5975POPC   PO422488  21.384  41.520   9.150
 5975POPC   GL122489  21.370  41.558   8.850
 5975POPC   GL222490  21.518  41.503   8.850
 5975POPC   C1A22491  21.351  41.605   8.550
 5975POPC   D2A22492  21.355  41.545   8.250
 5975POPC   C3A22493  21.349  41.605   7.950
 5975POPC   C4A22494  21.433  41.547   7.650
 5975POPC   C1B22495  21.592  41.458   8.550
 5975POPC   C2B22496  21.551  41.434   8.250
 5975POPC   C3B22497  21.558  41.392   7.950
 5975POPC   C4B22498  21.613  41.393   7.650
 5976POPC   NC322499  27.595  24.467   9.450
 5976POPC   PO422500  27.545  24.495   9.150
 5976POPC   GL122501  27.550  24.464   8.850
 5976POPC   GL222502  27.688  24.567   8.850
 5976POPC   C1A22503  27.639  24.455   8.550
 5976POPC   D2A22504  27.553  24.527   8.250
 5976POPC   C3A22505  27.622  24.512   7.950
 5976POPC   C4A22506  27.560  24.476   7.650
 5976POPC   C1B22507  27.728  24.674   8.550
 5976POPC   C2B22508  27.705  24.664   8.250
 5976POPC   C3B22509  27.741  24.706   7.950
 5976POPC   C4B22510  27.757  24.706   7.650
 5977POPC   NC322511  14.357  43.084   9.450
 5977POPC   PO422512  14.389  43.126   9.150
 5977POPC   GL122513  14.412  43.097   8.850
 5977POPC   GL222514  14.521  43.093   8.850
 5977POPC   C1A22515  14.434  43.158   8.550
 5977POPC   D2A22516  14.432  43.075   8.250
 5977POPC   C3A22517  14.407  43.113   7.950
 5977POPC   C4A22518  14.386  43.154   7.650
 5977POPC   C1B22519  14.617  42.979   8.550
 5977POPC   C2B22520  14.617  43.018   8.250
 5977POPC   C3B22521  14.602  43.044   7.950
 5977POPC   C4B22522  14.658  42.964   7.650
 5978POPC   NC322523  38.461  26.047   9.450
 5978POPC   PO422524  38.412  26.081   9.150
 5978POPC   GL122525  38.478  25.996   8.850
 5978POPC   GL222526  38.613  26.063   8.850
 5978POPC   C1A22527  38.475  26.082   8.550
 5978POPC   D2A22528  38.490  26.076   8.250
 5978POPC   C3A22529  38.485  26.088   7.950
 5978POPC   C4A22530  38.470  25.993   7.650
 5978POPC   C1B22531  38.733  26.169   8.550
 5978POPC   C2B22532  38.687  26.098   8.250
 5978POPC   C3B22533  38.658  26.165   7.950
 5978POPC   C4B22534  38.670  26.097   7.650
 5979POPC   NC322535  44.658   2.013   9.450
 5979POPC   PO422536  44.675   2.013   9.150
 5979POPC   GL122537  44.639   1.994   8.850
 5979POPC   GL222538  44.729   2.034   8.850
 5979POPC   C1A22539  44.689   1.985   8.550
 5979POPC   D2A22540  44.638   1.958   8.250
 5979POPC   C3A22541  44.666   1.988   7.950
 5979POPC   C4A22542  44.695   1.997   7.650
 5979POPC   C1B22543  44.890   2.182   8.550
 5979POPC   C2B22544  44.867   2.162   8.250
 5979POPC   C3B22545  44.898   2.196   7.950
 5979POPC   C4B22546  44.805   2.143   7.650
 5980POPC   NC322547  43.067  28.343   9.450
 5980POPC   PO422548  43.091  28.351   9.150
 5980POPC   GL122549  43.061  28.391   8.850
 5980POPC   GL222550  43.021  28.401   8.850
 5980POPC   C1A22551  43.121  28.403   8.550
 5980POPC   D2A22552  43.084  28.351   8.250
 5980POPC   C3A22553  43.087  28.365   7.950
 5980POPC   C4A22554  43.091  28.339   7.650
 5980POPC   C1B22555  42.854  28.412   8.550
 5980POPC   C2B22556  42.833  28.429   8.250
 5980POPC   C3B22557  42.906  28.410   7.950
 5980POPC   C4B22558  42.849  28.492   7.650
 5981POPC   NC322559  40.054  26.863   9.450
 5981POPC   PO422560  40.022  26.818   9.150
 5981POPC   GL122561  39.989  26.807   8.850
 5981POPC   GL222562  40.059  26.716   8.850
 5981POPC   C1A22563  39.966  26.846   8.550
 5981POPC   D2A22564  40.028  26.827   8.250
 5981POPC   C3A22565  39.961  26.779   7.950
 5981POPC   C4A22566  40.049  26.816   7.650
 5981POPC   C1B22567  40.147  26.569   8.550
 5981POPC   C2B22568  40.122  26.612   8.250
 5981POPC   C3B22569  40.103  26.581   7.950
 5981POPC   C4B22570  40.114  26.577   7.650
 5982POPC   NC322571  35.365  27.625   9.450
 5982POPC   PO422572  35.357  27.568   9.150
 5982POPC   GL122573  35.326  27.581   8.850
 5982POPC   GL222574  35.378  27.754   8.850
 5982POPC   C1A22575  35.316  27.598   8.550
 5982POPC   D2A22576  35.399  27.571   8.250
 5982POPC   C3A22577  35.330  27.573   7.950
 5982POPC   C4A22578  35.394  27.630   7.650
 5982POPC   C1B22579  35.380  27.852   8.550
 5982POPC   C2B22580  35.418  27.860   8.250
 5982POPC   C3B22581  35.470  27.867   7.950
 5982POPC   C4B22582  35.387  27.874   7.650
 5983POPC   NC322583  29.920   7.371   9.450
 5983POPC   PO422584  29.914   7.454   9.150
 5983POPC   GL122585  29.916   7.468   8.850
 5983POPC   GL222586  29.855   7.497   8.850
 5983POPC   C1A22587  29.883   7.429   8.550
 5983POPC   D2A22588  29.944   7.433   8.250
 5983POPC   C3A22589  29.917   7.412   7.950
 5983POPC   C4A22590  29.931   7.375   7.650
 5983POPC   C1B22591  29.827   7.585   8.550
 5983POPC   C2B22592  29.745   7.664   8.250
 5983POPC   C3B22593  29.821   7.683   7.950
 5983POPC   C4B22594  29.790   7.587   7.650
 5984POPC   NC322595  37.647  36.132   9.450
 5984POPC   PO422596  37.707  36.148   9.150
 5984POPC   GL122597  37.718  36.159   8.850
 5984POPC   GL222598  37.620  36.219   8.850
 5984POPC   C1A22599  37.725  36.174   8.550
 5984POPC   D2A22600  37.678  36.081   8.250
 5984POPC   C3A22601  37.717  36.153   7.950
 5984POPC   C4A22602  37.634  36.078   7.650
 5984POPC   C1B22603  37.489  36.224   8.550
 5984POPC   C2B22604  37.504  36.270   8.250
 5984POPC   C3B22605  37.438  36.222   7.950
 5984POPC   C4B22606  37.442  36.321   7.650
 5985POPC   NC322607  29.969  27.582   9.450
 5985POPC   PO422608  29.891  27.562   9.150
 5985POPC   GL122609  29.966  27.580   8.850
 5985POPC   GL222610  29.789  27.635   8.850
 5985POPC   C1A22611  29.890  27.563   8.550
 5985POPC   D2A22612  29.919  27.640   8.250
 5985POPC   C3A22613  29.902  27.548   7.950
 5985POPC   C4A22614  29.920  27.572   7.650
 5985POPC   C1B22615  29.709  27.745   8.550
 5985POPC   C2B22616  29.671  27.664   8.250
 5985POPC   C3B22617  29.659  27.692   7.950
 5985POPC   C4B22618  29.670  27.693   7.650
 5986POPC   NC322619  32.256  42.302   9.450
 5986POPC   PO422620  32.248  42.357   9.150
 5986POPC   GL122621  32.226  42.375   8.850
 5986POPC   GL222622  32.135  42.286   8.850
 5986POPC   C1A22623  32.242  42.320   8.550
 5986POPC   D2A22624  32.212  42.328   8.250
 5986POPC   C3A22625  32.215  42.297   7.950
 5986POPC   C4A22626  32.264  42.368   7.650
 5986POPC   C1B22627  32.046  42.177   8.550
 5986POPC   C2B22628  32.023  42.131   8.250
 5986POPC   C3B22629  32.033  42.189   7.950
 5986POPC   C4B22630  32.112  42.175   7.650
 5987POPC   NC322631  23.666  19.025   9.450
 5987POPC   PO422632  23.690  19.059   9.150
 5987POPC   GL122633  23.696  19.052   8.850
 5987POPC   GL222634  23.737  18.973   8.850
 5987POPC   C1A22635  23.720  19.066   8.550
 5987POPC   D2A22636  23.703  19.074   8.250
 5987POPC   C3A22637  23.743  19.066   7.950
 5987POPC   C4A22638  23.708  19.037   7.650
 5987POPC   C1B22639  23.724  18.788   8.550
 5987POPC   C2B22640  23.633  18.859   8.250
 5987POPC   C3B22641  23.699  18.790   7.950
 5987POPC   C4B22642  23.632  18.776   7.650
 5988POPC   NC322643  31.454  43.884   9.450
 5988POPC   PO422644  31.464  43.918   9.150
 5988POPC   GL122645  31.517  43.919   8.850
 5988POPC   GL222646  31.500  43.803   8.850
 5988POPC   C1A22647  31.478  43.865   8.550
 5988POPC   D2A22648  31.496  43.867   8.250
 5988POPC   C3A22649  31.437  43.878   7.950
 5988POPC   C4A22650  31.435  43.841   7.650
 5988POPC   C1B22651  31.633  43.733   8.550
 5988POPC   C2B22652  31.612  43.655   8.250
 5988POPC   C3B22653  31.662  43.733   7.950
 5988POPC   C4B22654  31.671  43.710   7.650
 5989POPC   NC322655  17.467  27.624   9.450
 5989POPC   PO422656  17.532  27.620   9.150
 5989POPC   GL122657  17.474  27.598   8.850
 5989POPC   GL222658  17.628  27.616   8.850
 5989POPC   C1A22659  17.494  27.556   8.550
 5989POPC   D2A22660  17.534  27.562   8.250
 5989POPC   C3A22661  17.536  27.616   7.950
 5989POPC   C4A22662  17.538  27.578   7.650
 5989POPC   C1B22663  17.724  27.722   8.550
 5989POPC   C2B22664  17.730  27.691   8.250
 5989POPC   C3B22665  17.753  27.753   7.950
 5989POPC   C4B22666  17.680  27.744   7.650
 5990POPC   NC322667  28.361   2.755   9.450
 5990POPC   PO422668  28.368   2.723   9.150
 5990POPC   GL122669  28.384   2.758   8.850
 5990POPC   GL222670  28.255   2.840   8.850
 5990POPC   C1A22671  28.346   2.774   8.550
 5990POPC   D2A22672  28.368   2.789   8.250
 5990POPC   C3A22673  28.354   2.758   7.950
 5990POPC   C4A22674  28.368   2.779   7.650
 5990POPC   C1B22675  28.233   2.966   8.550
 5990POPC   C2B22676  28.185   2.974   8.250
 5990POPC   C3B22677  28.195   3.005   7.950
 5990POPC   C4B22678  28.241   3.011   7.650
 5991POPC   NC322679  43.112  41.533   9.450
 5991POPC   PO422680  43.123  41.526   9.150
 5991POPC   GL122681  43.159  41.517   8.850
 5991POPC   GL222682  43.188  41.652   8.850
 5991POPC   C1A22683  43.123  41.566   8.550
 5991POPC   D2A22684  43.111  41.541   8.250
 5991POPC   C3A22685  43.132  41.527   7.950
 5991POPC   C4A22686  43.159  41.564   7.650
 5991POPC   C1B22687  43.321  41.770   8.550
 5991POPC   C2B22688  43.254  41.752   8.250
 5991POPC   C3B22689  43.259  41.697   7.950
 5991POPC   C4B22690  43.312  41.729   7.650
 5992POPC   NC322691  20.580  30.663   9.450
 5992POPC   PO422692  20.603  30.741   9.150
 5992POPC   GL122693  20.562  30.672   8.850
 5992POPC   GL222694  20.692  30.788   8.850
 5992POPC   C1A22695  20.564  30.690   8.550
 5992POPC   D2A22696  20.638  30.680   8.250
 5992POPC   C3A22697  20.606  30.681   7.950
 5992POPC   C4A22698  20.645  30.678   7.650
 5992POPC   C1B22699  20.677  30.905   8.550
 5992POPC   C2B22700  20.715  30.973   8.250
 5992POPC   C3B22701  20.717  30.875   7.950
 5992POPC   C4B22702  20.746  30.892   7.650
 5993POPC   NC322703  40.002  15.176   9.450
 5993POPC   PO422704  39.995  15.175   9.150
 5993POPC   GL122705  40.027  15.223   8.850
 5993POPC   GL222706  39.935  15.152   8.850
 5993POPC   C1A22707  40.033  15.145   8.550
 5993POPC   D2A22708  39.986  15.162   8.250
 5993POPC   C3A22709  39.963  15.220   7.950
 5993POPC   C4A22710  40.048  15.190   7.650
 5993POPC   C1B22711  39.806  15.025   8.550
 5993POPC   C2B22712  39.816  15.016   8.250
 5993POPC   C3B22713  39.785  15.054   7.950
 5993POPC   C4B22714  39.761  15.033   7.650
 5994POPC   NC322715   2.796  20.610   9.450
 5994POPC   PO422716   2.786  20.613   9.150
 5994POPC   GL122717   2.796  20.569   8.850
 5994POPC   GL222718   2.676  20.555   8.850
 5994POPC   C1A22719   2.786  20.627   8.550
 5994POPC   D2A22720   2.739  20.598   8.250
 5994POPC   C3A22721   2.784  20.659   7.950
 5994POPC   C4A22722   2.755  20.624   7.650
 5994POPC   C1B22723   2.576  20.422   8.550
 5994POPC   C2B22724   2.593  20.446   8.250
 5994POPC   C3B22725   2.653  20.432   7.950
 5994POPC   C4B22726   2.624  20.373   7.650
 5995POPC   NC322727  12.096  34.581   9.450
 5995POPC   PO422728  12.038  34.565   9.150
 5995POPC   GL122729  12.071  34.573   8.850
 5995POPC   GL222730  12.007  34.480   8.850
 5995POPC   C1A22731  12.052  34.599   8.550
 5995POPC   D2A22732  12.051  34.583   8.250
 5995POPC   C3A22733  12.054  34.600   7.950
 5995POPC   C4A22734  12.111  34.562   7.650
 5995POPC   C1B22735  11.891  34.334   8.550
 5995POPC   C2B22736  11.918  34.323   8.250
 5995POPC   C3B22737  11.974  34.417   7.950
 5995POPC   C4B22738  11.979  34.356   7.650
 5996POPC   NC322739   4.331  25.300   9.450
 5996POPC   PO422740   4.332  25.286   9.150
 5996POPC   GL122741   4.362  25.247   8.850
 5996POPC   GL222742   4.287  25.182   8.850
 5996POPC   C1A22743   4.276  25.312   8.550
 5996POPC   D2A22744   4.309  25.294   8.250
 5996POPC   C3A22745   4.310  25.216   7.950
 5996POPC   C4A22746   4.276  25.225   7.650
 5996POPC   C1B22747   4.273  24.975   8.550
 5996POPC   C2B22748   4.352  25.062   8.250
 5996POPC   C3B22749   4.300  25.054   7.950
 5996POPC   C4B22750   4.273  25.063   7.650
 5997POPC   NC322751  26.823  27.586   9.450
 5997POPC   PO422752  26.848  27.586   9.150
 5997POPC   GL122753  26.830  27.591   8.850
 5997POPC   GL222754  26.727  27.533   8.850
 5997POPC   C1A22755  26.812  27.556   8.550
 5997POPC   D2A22756  26.788  27.572   8.250
 5997POPC   C3A22757  26.811  27.623   7.950
 5997POPC   C4A22758  26.863  27.575   7.650
 5997POPC   C1B22759  26.611  27.512   8.550
 5997POPC   C2B22760  26.551  27.546   8.250
 5997POPC   C3B22761  26.547  27.533   7.950
 5997POPC   C4B22762  26.572  27.488   7.650
 5998POPC   NC322763  28.417  28.348   9.450
 5998POPC   PO422764  28.364  28.344   9.150
 5998POPC   GL122765  28.383  28.401   8.850
 5998POPC   GL222766  28.372  28.447   8.850
 5998POPC   C1A22767  28.401  28.375   8.550
 5998POPC   D2A22768  28.409  28.355   8.250
 5998POPC   C3A22769  28.347  28.382   7.950
 5998POPC   C4A22770  28.327  28.413   7.650
 5998POPC   C1B22771  28.325  28.597   8.550
 5998POPC   C2B22772  28.295  28.594   8.250
 5998POPC   C3B22773  28.256  28.587   7.950
 5998POPC   C4B22774  28.304  28.574   7.650
 5999POPC   NC322775  16.700  44.624   9.450
 5999POPC   PO422776  16.729  44.679   9.150
 5999POPC   GL122777  16.735  44.666   8.850
 5999POPC   GL222778  16.846  44.752   8.850
 5999POPC   C1A22779  16.691  44.662   8.550
 5999POPC   D2A22780  16.724  44.629   8.250
 5999POPC   C3A22781  16.738  44.694   7.950
 5999POPC   C4A22782  16.701  44.701   7.650
 5999POPC   C1B22783  16.930  44.731   8.550
 5999POPC   C2B22784  16.916  44.784   8.250
 5999POPC   C3B22785  16.922  44.793   7.950
 5999POPC   C4B22786  16.988  44.708   7.650
 6000POPC   NC322787  10.568  36.149   9.450
 6000POPC   PO422788  10.527  36.110   9.150
 6000POPC   GL122789  10.509  36.148   8.850
 6000POPC   GL222790  10.461  36.295   8.850
 6000POPC   C1A22791  10.474  36.115   8.550
 6000POPC   D2A22792  10.540  36.154   8.250
 6000POPC   C3A22793  10.574  36.125   7.950
 6000POPC   C4A22794  10.479  36.081   7.650
 6000POPC   C1B22795  10.475  36.317   8.550
 6000POPC   C2B22796  10.446  36.393   8.250
 6000POPC   C3B22797  10.482  36.401   7.950
 6000POPC   C4B22798  10.475  36.325   7.650
 6001POPC   NC322799   8.945   4.311   9.450
 6001POPC   PO422800   8.994   4.276   9.150
 6001POPC   GL122801   8.929   4.325   8.850
 6001POPC   GL222802   8.908   4.470   8.850
 6001POPC   C1A22803   8.938   4.310   8.550
 6001POPC   D2A22804   8.969   4.304   8.250
 6001POPC   C3A22805   8.958   4.314   7.950
 6001POPC   C4A22806   9.005   4.308   7.650
 6001POPC   C1B22807   8.903   4.580   8.550
 6001POPC   C2B22808   8.912   4.539   8.250
 6001POPC   C3B22809   8.885   4.515   7.950
 6001POPC   C4B22810   8.919   4.502   7.650
 6002POPC   NC322811  29.175  36.947   9.450
 6002POPC   PO422812  29.137  36.914   9.150
 6002POPC   GL122813  29.184  36.861   8.850
 6002POPC   GL222814  29.236  36.762   8.850
 6002POPC   C1A22815  29.156  36.911   8.550
 6002POPC   D2A22816  29.187  36.897   8.250
 6002POPC   C3A22817  29.160  36.945   7.950
 6002POPC   C4A22818  29.122  36.891   7.650
 6002POPC   C1B22819  29.268  36.666   8.550
 6002POPC   C2B22820  29.338  36.668   8.250
 6002POPC   C3B22821  29.288  36.717   7.950
 6002POPC   C4B22822  29.327  36.698   7.650
 6003POPC   NC322823  26.050   6.681   9.450
 6003POPC   PO422824  26.027   6.660   9.150
 6003POPC   GL122825  26.006   6.674   8.850
 6003POPC   GL222826  26.026   6.754   8.850
 6003POPC   C1A22827  26.023   6.689   8.550
 6003POPC   D2A22828  26.020   6.630   8.250
 6003POPC   C3A22829  26.078   6.625   7.950
 6003POPC   C4A22830  26.042   6.653   7.650
 6003POPC   C1B22831  26.021   6.849   8.550
 6003POPC   C2B22832  25.955   6.900   8.250
 6003POPC   C3B22833  25.979   6.861   7.950
 6003POPC   C4B22834  25.973   6.870   7.650
 6004POPC   NC322835  35.308  19.868   9.450
 6004POPC   PO422836  35.351  19.838   9.150
 6004POPC   GL122837  35.308  19.790   8.850
 6004POPC   GL222838  35.326  19.739   8.850
 6004POPC   C1A22839  35.309  19.798   8.550
 6004POPC   D2A22840  35.383  19.835   8.250
 6004POPC   C3A22841  35.332  19.852   7.950
 6004POPC   C4A22842  35.371  19.815   7.650
 6004POPC   C1B22843  35.308  19.559   8.550
 6004POPC   C2B22844  35.223  19.576   8.250
 6004POPC   C3B22845  35.306  19.575   7.950
 6004POPC   C4B22846  35.308  19.567   7.650
 6005POPC   NC322847  42.314   3.591   9.450
 6005POPC   PO422848  42.325   3.501   9.150
 6005POPC   GL122849  42.333   3.522   8.850
 6005POPC   GL222850  42.355   3.626   8.850
 6005POPC   C1A22851  42.383   3.517   8.550
 6005POPC   D2A22852  42.335   3.536   8.250
 6005POPC   C3A22853  42.383   3.562   7.950
 6005POPC   C4A22854  42.297   3.536   7.650
 6005POPC   C1B22855  42.442   3.733   8.550
 6005POPC   C2B22856  42.436   3.804   8.250
 6005POPC   C3B22857  42.374   3.777   7.950
 6005POPC   C4B22858  42.381   3.782   7.650
 6006POPC   NC322859  22.958  43.148   9.450
 6006POPC   PO422860  22.945  43.140   9.150
 6006POPC   GL122861  22.940  43.133   8.850
 6006POPC   GL222862  23.011  43.011   8.850
 6006POPC   C1A22863  22.952  43.115   8.550
 6006POPC   D2A22864  22.912  43.158   8.250
 6006POPC   C3A22865  22.893  43.093   7.950
 6006POPC   C4A22866  22.960  43.155   7.650
 6006POPC   C1B22867  23.160  43.016   8.550
 6006POPC   C2B22868  23.141  43.021   8.250
 6006POPC   C3B22869  23.153  42.972   7.950
 6006POPC   C4B22870  23.113  42.989   7.650
 6007POPC   NC322871  22.136   6.658   9.450
 6007POPC   PO422872  22.199   6.648   9.150
 6007POPC   GL122873  22.195   6.654   8.850
 6007POPC   GL222874  22.223   6.512   8.850
 6007POPC   C1A22875  22.140   6.616   8.550
 6007POPC   D2A22876  22.188   6.633   8.250
 6007POPC   C3A22877  22.124   6.670   7.950
 6007POPC   C4A22878  22.136   6.678   7.650
 6007POPC   C1B22879  22.261   6.361   8.550
 6007POPC   C2B22880  22.198   6.433   8.250
 6007POPC   C3B22881  22.209   6.393   7.950
 6007POPC   C4B22882  22.218   6.354   7.650
 6008POPC   NC322883  32.227  35.400   9.450
 6008POPC   PO422884  32.238  35.363   9.150
 6008POPC   GL122885  32.269  35.367   8.850
 6008POPC   GL222886  32.336  35.456   8.850
 6008POPC   C1A22887  32.277  35.308   8.550
 6008POPC   D2A22888  32.271  35.308   8.250
 6008POPC   C3A22889  32.231  35.311   7.950
 6008POPC   C4A22890  32.213  35.326   7.650
 6008POPC   C1B22891  32.300  35.628   8.550
 6008POPC   C2B22892  32.376  35.534   8.250
 6008POPC   C3B22893  32.387  35.535   7.950
 6008POPC   C4B22894  32.334  35.576   7.650
 6009POPC   NC322895  29.910   2.743   9.450
 6009POPC   PO422896  29.921   2.768   9.150
 6009POPC   GL122897  29.919   2.800   8.850
 6009POPC   GL222898  29.833   2.872   8.850
 6009POPC   C1A22899  29.951   2.800   8.550
 6009POPC   D2A22900  29.898   2.732   8.250
 6009POPC   C3A22901  29.946   2.724   7.950
 6009POPC   C4A22902  29.936   2.767   7.650
 6009POPC   C1B22903  29.750   2.878   8.550
 6009POPC   C2B22904  29.716   2.885   8.250
 6009POPC   C3B22905  29.753   2.938   7.950
 6009POPC   C4B22906  29.752   2.951   7.650
 6010POPC   NC322907  44.683   5.868   9.450
 6010POPC   PO422908  44.665   5.884   9.150
 6010POPC   GL122909  44.650   5.827   8.850
 6010POPC   GL222910  44.546   5.956   8.850
 6010POPC   C1A22911  44.689   5.917   8.550
 6010POPC   D2A22912  44.683   5.859   8.250
 6010POPC   C3A22913  44.702   5.854   7.950
 6010POPC   C4A22914  44.635   5.857   7.650
 6010POPC   C1B22915  44.404   5.902   8.550
 6010POPC   C2B22916  44.403   5.991   8.250
 6010POPC   C3B22917  44.455   5.988   7.950
 6010POPC   C4B22918  44.454   5.941   7.650
 6011POPC   NC322919   9.714   8.979   9.450
 6011POPC   PO422920   9.763   8.935   9.150
 6011POPC   GL122921   9.715   8.954   8.850
 6011POPC   GL222922   9.811   8.923   8.850
 6011POPC   C1A22923   9.702   8.997   8.550
 6011POPC   D2A22924   9.742   8.949   8.250
 6011POPC   C3A22925   9.779   8.938   7.950
 6011POPC   C4A22926   9.785   9.012   7.650
 6011POPC   C1B22927   9.882   8.763   8.550
 6011POPC   C2B22928   9.919   8.792   8.250
 6011POPC   C3B22929   9.947   8.761   7.950
 6011POPC   C4B22930   9.969   8.762   7.650
 6012POPC   NC322931  11.317   1.203   9.450
 6012POPC   PO422932  11.298   1.168   9.150
 6012POPC   GL122933  11.327   1.235   8.850
 6012POPC   GL222934  11.383   1.267   8.850
 6012POPC   C1A22935  11.321   1.200   8.550
 6012POPC   D2A22936  11.260   1.223   8.250
 6012POPC   C3A22937  11.269   1.210   7.950
 6012POPC   C4A22938  11.256   1.239   7.650
 6012POPC   C1B22939  11.529   1.424   8.550
 6012POPC   C2B22940  11.498   1.434   8.250
 6012POPC   C3B22941  11.470   1.394   7.950
 6012POPC   C4B22942  11.455   1.367   7.650
 6013POPC   NC322943  36.162  13.661   9.450
 6013POPC   PO422944  36.123  13.620   9.150
 6013POPC   GL122945  36.171  13.617   8.850
 6013POPC   GL222946  36.026  13.644   8.850
 6013POPC   C1A22947  36.094  13.601   8.550
 6013POPC   D2A22948  36.123  13.631   8.250
 6013POPC   C3A22949  36.125  13.641   7.950
 6013POPC   C4A22950  36.119  13.657   7.650
 6013POPC   C1B22951  35.936  13.689   8.550
 6013POPC   C2B22952  35.878  13.683   8.250
 6013POPC   C3B22953  35.841  13.689   7.950
 6013POPC   C4B22954  35.903  13.686   7.650
 6014POPC   NC322955  43.840  19.070   9.450
 6014POPC   PO422956  43.854  19.045   9.150
 6014POPC   GL122957  43.908  19.030   8.850
 6014POPC   GL222958  43.894  19.146   8.850
 6014POPC   C1A22959  43.900  19.102   8.550
 6014POPC   D2A22960  43.868  19.011   8.250
 6014POPC   C3A22961  43.837  19.025   7.950
 6014POPC   C4A22962  43.841  19.064   7.650
 6014POPC   C1B22963  43.853  19.294   8.550
 6014POPC   C2B22964  43.820  19.339   8.250
 6014POPC   C3B22965  43.846  19.335   7.950
 6014POPC   C4B22966  43.814  19.268   7.650
 6015POPC   NC322967  39.225  44.655   9.450
 6015POPC   PO422968  39.207  44.625   9.150
 6015POPC   GL122969  39.239  44.700   8.850
 6015POPC   GL222970  39.378  44.705   8.850
 6015POPC   C1A22971  39.264  44.688   8.550
 6015POPC   D2A22972  39.239  44.680   8.250
 6015POPC   C3A22973  39.268  44.698   7.950
 6015POPC   C4A22974  39.222  44.706   7.650
 6015POPC   C1B22975  39.492  44.828   8.550
 6015POPC   C2B22976  39.477  44.828   8.250
 6015POPC   C3B22977  39.409  44.794   7.950
 6015POPC   C4B22978  39.416  44.816   7.650
 6016POPC   NC322979  12.031   6.680   9.450
 6016POPC   PO422980  12.058   6.613   9.150
 6016POPC   GL122981  12.066   6.682   8.850
 6016POPC   GL222982  12.147   6.635   8.850
 6016POPC   C1A22983  12.027   6.663   8.550
 6016POPC   D2A22984  12.104   6.620   8.250
 6016POPC   C3A22985  12.041   6.671   7.950
 6016POPC   C4A22986  12.095   6.603   7.650
 6016POPC   C1B22987  12.293   6.608   8.550
 6016POPC   C2B22988  12.354   6.590   8.250
 6016POPC   C3B22989  12.326   6.570   7.950
 6016POPC   C4B22990  12.332   6.572   7.650
 6017POPC   NC322991   2.771   1.985   9.450
 6017POPC   PO422992   2.722   2.015   9.150
 6017POPC   GL122993   2.734   1.940   8.850
 6017POPC   GL222994   2.647   2.050   8.850
 6017POPC   C1A22995   2.720   1.998   8.550
 6017POPC   D2A22996   2.784   2.006   8.250
 6017POPC   C3A22997   2.739   2.034   7.950
 6017POPC   C4A22998   2.784   1.958   7.650
 6017POPC   C1B22999   2.521   1.989   8.550
 6017POPC   C2B23000   2.543   1.982   8.250
 6017POPC   C3B23001   2.482   2.044   7.950
 6017POPC   C4B23002   2.555   2.034   7.650
 6018POPC   NC323003  19.804   7.400   9.450
 6018POPC   PO423004  19.873   7.377   9.150
 6018POPC   GL123005  19.854   7.415   8.850
 6018POPC   GL223006  19.717   7.454   8.850
 6018POPC   C1A23007  19.801   7.460   8.550
 6018POPC   D2A23008  19.791   7.455   8.250
 6018POPC   C3A23009  19.837   7.383   7.950
 6018POPC   C4A23010  19.829   7.411   7.650
 6018POPC   C1B23011  19.647   7.517   8.550
 6018POPC   C2B23012  19.629   7.561   8.250
 6018POPC   C3B23013  19.617   7.604   7.950
 6018POPC   C4B23014  19.625   7.585   7.650
 6019POPC   NC323015  40.761  38.462   9.450
 6019POPC   PO423016  40.768  38.480   9.150
 6019POPC   GL123017  40.736  38.491   8.850
 6019POPC   GL223018  40.760  38.595   8.850
 6019POPC   C1A23019  40.757  38.481   8.550
 6019POPC   D2A23020  40.825  38.490   8.250
 6019POPC   C3A23021  40.832  38.501   7.950
 6019POPC   C4A23022  40.831  38.480   7.650
 6019POPC   C1B23023  40.592  38.632   8.550
 6019POPC   C2B23024  40.617  38.675   8.250
 6019POPC   C3B23025  40.596  38.672   7.950
 6019POPC   C4B23026  40.608  38.683   7.650
 6020POPC   NC323027  13.620   7.381   9.450
 6020POPC   PO423028  13.642   7.429   9.150
 6020POPC   GL123029  13.625   7.406   8.850
 6020POPC   GL223030  13.661   7.541   8.850
 6020POPC   C1A23031  13.619   7.444   8.550
 6020POPC   D2A23032  13.657   7.418   8.250
 6020POPC   C3A23033  13.653   7.452   7.950
 6020POPC   C4A23034  13.657   7.426   7.650
 6020POPC   C1B23035  13.565   7.621   8.550
 6020POPC   C2B23036  13.567   7.697   8.250
 6020POPC   C3B23037  13.594   7.647   7.950
 6020POPC   C4B23038  13.562   7.708   7.650
 6021POPC   NC323039  11.272  26.011   9.450
 6021POPC   PO423040  11.305  26.037   9.150
 6021POPC   GL123041  11.335  25.997   8.850
 6021POPC   GL223042  11.443  26.006   8.850
 6021POPC   C1A23043  11.252  26.029   8.550
 6021POPC   D2A23044  11.279  26.011   8.250
 6021POPC   C3A23045  11.251  26.029   7.950
 6021POPC   C4A23046  11.284  26.025   7.650
 6021POPC   C1B23047  11.507  26.014   8.550
 6021POPC   C2B23048  11.515  25.946   8.250
 6021POPC   C3B23049  11.503  25.956   7.950
 6021POPC   C4B23050  11.512  25.997   7.650
 6022POPC   NC323051  19.064  30.682   9.450
 6022POPC   PO423052  19.066  30.685   9.150
 6022POPC   GL123053  19.076  30.703   8.850
 6022POPC   GL223054  19.126  30.772   8.850
 6022POPC   C1A23055  19.096  30.734   8.550
 6022POPC   D2A23056  19.100  30.715   8.250
 6022POPC   C3A23057  19.072  30.675   7.950
 6022POPC   C4A23058  19.023  30.700   7.650
 6022POPC   C1B23059  19.252  30.922   8.550
 6022POPC   C2B23060  19.183  30.918   8.250
 6022POPC   C3B23061  19.189  30.882   7.950
 6022POPC   C4B23062  19.225  30.889   7.650
 6023POPC   NC323063  33.845   6.613   9.450
 6023POPC   PO423064  33.815   6.638   9.150
 6023POPC   GL123065  33.844   6.671   8.850
 6023POPC   GL223066  33.895   6.589   8.850
 6023POPC   C1A23067  33.821   6.645   8.550
 6023POPC   D2A23068  33.750   6.627   8.250
 6023POPC   C3A23069  33.812   6.652   7.950
 6023POPC   C4A23070  33.822   6.638   7.650
 6023POPC   C1B23071  34.004   6.466   8.550
 6023POPC   C2B23072  33.967   6.519   8.250
 6023POPC   C3B23073  33.963   6.501   7.950
 6023POPC   C4B23074  33.977   6.483   7.650
 6024POPC   NC323075  41.574  12.096   9.450
 6024POPC   PO423076  41.539  12.071   9.150
 6024POPC   GL123077  41.537  12.105   8.850
 6024POPC   GL223078  41.651  12.164   8.850
 6024POPC   C1A23079  41.513  12.058   8.550
 6024POPC   D2A23080  41.538  12.029   8.250
 6024POPC   C3A23081  41.554  12.067   7.950
 6024POPC   C4A23082  41.542  12.076   7.650
 6024POPC   C1B23083  41.769  12.123   8.550
 6024POPC   C2B23084  41.763  12.151   8.250
 6024POPC   C3B23085  41.803  12.201   7.950
 6024POPC   C4B23086  41.807  12.116   7.650
 6025POPC   NC323087  21.375   8.168   9.450
 6025POPC   PO423088  21.356   8.169   9.150
 6025POPC   GL123089  21.367   8.154   8.850
 6025POPC   GL223090  21.333   8.077   8.850
 6025POPC   C1A23091  21.373   8.224   8.550
 6025POPC   D2A23092  21.347   8.199   8.250
 6025POPC   C3A23093  21.421   8.177   7.950
 6025POPC   C4A23094  21.433   8.220   7.650
 6025POPC   C1B23095  21.347   7.910   8.550
 6025POPC   C2B23096  21.334   7.944   8.250
 6025POPC   C3B23097  21.369   7.928   7.950
 6025POPC   C4B23098  21.364   7.975   7.650
 6026POPC   NC323099  31.505  44.707   9.450
 6026POPC   PO423100  31.445  44.631   9.150
 6026POPC   GL123101  31.440  44.648   8.850
 6026POPC   GL223102  31.388  44.633   8.850
 6026POPC   C1A23103  31.458  44.654   8.550
 6026POPC   D2A23104  31.490  44.699   8.250
 6026POPC   C3A23105  31.499  44.671   7.950
 6026POPC   C4A23106  31.443  44.678   7.650
 6026POPC   C1B23107  31.192  44.728   8.550
 6026POPC   C2B23108  31.219  44.713   8.250
 6026POPC   C3B23109  31.192  44.676   7.950
 6026POPC   C4B23110  31.221  44.644   7.650
 6027POPC   NC323111  12.081  39.190   9.450
 6027POPC   PO423112  12.050  39.270   9.150
 6027POPC   GL123113  12.099  39.225   8.850
 6027POPC   GL223114  11.995  39.154   8.850
 6027POPC   C1A23115  12.093  39.192   8.550
 6027POPC   D2A23116  12.124  39.276   8.250
 6027POPC   C3A23117  12.034  39.188   7.950
 6027POPC   C4A23118  12.029  39.183   7.650
 6027POPC   C1B23119  11.934  39.069   8.550
 6027POPC   C2B23120  11.912  39.050   8.250
 6027POPC   C3B23121  11.959  38.980   7.950
 6027POPC   C4B23122  11.977  39.064   7.650
 6028POPC   NC323123  19.785  43.111   9.450
 6028POPC   PO423124  19.793  43.101   9.150
 6028POPC   GL123125  19.810  43.146   8.850
 6028POPC   GL223126  19.766  43.107   8.850
 6028POPC   C1A23127  19.882  43.144   8.550
 6028POPC   D2A23128  19.878  43.084   8.250
 6028POPC   C3A23129  19.856  43.160   7.950
 6028POPC   C4A23130  19.857  43.110   7.650
 6028POPC   C1B23131  19.639  43.046   8.550
 6028POPC   C2B23132  19.648  43.028   8.250
 6028POPC   C3B23133  19.584  42.961   7.950
 6028POPC   C4B23134  19.624  43.043   7.650
 6029POPC   NC323135  43.849  35.379   9.450
 6029POPC   PO423136  43.913  35.330   9.150
 6029POPC   GL123137  43.899  35.348   8.850
 6029POPC   GL223138  43.909  35.497   8.850
 6029POPC   C1A23139  43.859  35.315   8.550
 6029POPC   D2A23140  43.865  35.385   8.250
 6029POPC   C3A23141  43.930  35.325   7.950
 6029POPC   C4A23142  43.869  35.334   7.650
 6029POPC   C1B23143  44.011  35.606   8.550
 6029POPC   C2B23144  43.970  35.578   8.250
 6029POPC   C3B23145  43.991  35.563   7.950
 6029POPC   C4B23146  44.059  35.593   7.650
 6030POPC   NC323147  32.230  33.056   9.450
 6030POPC   PO423148  32.223  33.024   9.150
 6030POPC   GL123149  32.199  33.040   8.850
 6030POPC   GL223150  32.396  33.023   8.850
 6030POPC   C1A23151  32.239  33.043   8.550
 6030POPC   D2A23152  32.279  32.979   8.250
 6030POPC   C3A23153  32.240  33.053   7.950
 6030POPC   C4A23154  32.295  32.988   7.650
 6030POPC   C1B23155  32.484  33.064   8.550
 6030POPC   C2B23156  32.496  33.034   8.250
 6030POPC   C3B23157  32.498  33.095   7.950
 6030POPC   C4B23158  32.487  33.034   7.650
 6031POPC   NC323159  20.623  23.728   9.450
 6031POPC   PO423160  20.611  23.749   9.150
 6031POPC   GL123161  20.653  23.668   8.850
 6031POPC   GL223162  20.526  23.612   8.850
 6031POPC   C1A23163  20.566  23.665   8.550
 6031POPC   D2A23164  20.660  23.729   8.250
 6031POPC   C3A23165  20.612  23.753   7.950
 6031POPC   C4A23166  20.609  23.749   7.650
 6031POPC   C1B23167  20.475  23.524   8.550
 6031POPC   C2B23168  20.475  23.516   8.250
 6031POPC   C3B23169  20.447  23.512   7.950
 6031POPC   C4B23170  20.474  23.542   7.650
 6032POPC   NC323171  22.125  12.825   9.450
 6032POPC   PO423172  22.200  12.873   9.150
 6032POPC   GL123173  22.125  12.815   8.850
 6032POPC   GL223174  22.251  12.836   8.850
 6032POPC   C1A23175  22.155  12.886   8.550
 6032POPC   D2A23176  22.188  12.890   8.250
 6032POPC   C3A23177  22.190  12.860   7.950
 6032POPC   C4A23178  22.123  12.893   7.650
 6032POPC   C1B23179  22.371  12.738   8.550
 6032POPC   C2B23180  22.414  12.721   8.250
 6032POPC   C3B23181  22.389  12.781   7.950
 6032POPC   C4B23182  22.369  12.721   7.650
 6033POPC   NC323183  18.275  29.938   9.450
 6033POPC   PO423184  18.276  29.939   9.150
 6033POPC   GL123185  18.315  29.946   8.850
 6033POPC   GL223186  18.182  30.069   8.850
 6033POPC   C1A23187  18.333  29.922   8.550
 6033POPC   D2A23188  18.309  29.932   8.250
 6033POPC   C3A23189  18.287  29.968   7.950
 6033POPC   C4A23190  18.314  29.954   7.650
 6033POPC   C1B23191  18.201  30.100   8.550
 6033POPC   C2B23192  18.186  30.132   8.250
 6033POPC   C3B23193  18.199  30.160   7.950
 6033POPC   C4B23194  18.186  30.115   7.650
 6034POPC   NC323195  12.886  40.016   9.450
 6034POPC   PO423196  12.815  39.993   9.150
 6034POPC   GL123197  12.874  39.976   8.850
 6034POPC   GL223198  12.951  40.036   8.850
 6034POPC   C1A23199  12.893  40.050   8.550
 6034POPC   D2A23200  12.854  39.998   8.250
 6034POPC   C3A23201  12.837  40.031   7.950
 6034POPC   C4A23202  12.851  40.031   7.650
 6034POPC   C1B23203  13.087  40.054   8.550
 6034POPC   C2B23204  13.108  40.028   8.250
 6034POPC   C3B23205  13.071  40.102   7.950
 6034POPC   C4B23206  13.112  40.089   7.650
 6035POPC   NC323207   2.778  13.581   9.450
 6035POPC   PO423208   2.776  13.625   9.150
 6035POPC   GL123209   2.795  13.617   8.850
 6035POPC   GL223210   2.722  13.727   8.850
 6035POPC   C1A23211   2.747  13.607   8.550
 6035POPC   D2A23212   2.758  13.580   8.250
 6035POPC   C3A23213   2.805  13.612   7.950
 6035POPC   C4A23214   2.756  13.660   7.650
 6035POPC   C1B23215   2.623  13.811   8.550
 6035POPC   C2B23216   2.583  13.804   8.250
 6035POPC   C3B23217   2.651  13.832   7.950
 6035POPC   C4B23218   2.610  13.790   7.650
 6036POPC   NC323219  38.488  24.520   9.450
 6036POPC   PO423220  38.453  24.456   9.150
 6036POPC   GL123221  38.432  24.520   8.850
 6036POPC   GL223222  38.340  24.429   8.850
 6036POPC   C1A23223  38.443  24.532   8.550
 6036POPC   D2A23224  38.473  24.453   8.250
 6036POPC   C3A23225  38.488  24.483   7.950
 6036POPC   C4A23226  38.460  24.515   7.650
 6036POPC   C1B23227  38.209  24.411   8.550
 6036POPC   C2B23228  38.179  24.396   8.250
 6036POPC   C3B23229  38.213  24.370   7.950
 6036POPC   C4B23230  38.201  24.413   7.650
 6037POPC   NC323231  19.014  36.936   9.450
 6037POPC   PO423232  19.034  36.900   9.150
 6037POPC   GL123233  19.027  36.932   8.850
 6037POPC   GL223234  19.004  37.035   8.850
 6037POPC   C1A23235  19.035  36.931   8.550
 6037POPC   D2A23236  19.038  36.902   8.250
 6037POPC   C3A23237  19.088  36.902   7.950
 6037POPC   C4A23238  19.054  36.878   7.650
 6037POPC   C1B23239  18.976  37.173   8.550
 6037POPC   C2B23240  18.954  37.165   8.250
 6037POPC   C3B23241  18.919  37.175   7.950
 6037POPC   C4B23242  18.921  37.133   7.650
 6038POPC   NC323243  38.410  17.488   9.450
 6038POPC   PO423244  38.492  17.554   9.150
 6038POPC   GL123245  38.462  17.515   8.850
 6038POPC   GL223246  38.374  17.582   8.850
 6038POPC   C1A23247  38.408  17.523   8.550
 6038POPC   D2A23248  38.418  17.516   8.250
 6038POPC   C3A23249  38.423  17.489   7.950
 6038POPC   C4A23250  38.471  17.464   7.650
 6038POPC   C1B23251  38.367  17.733   8.550
 6038POPC   C2B23252  38.349  17.758   8.250
 6038POPC   C3B23253  38.290  17.761   7.950
 6038POPC   C4B23254  38.365  17.762   7.650
 6039POPC   NC323255  32.983  42.304   9.450
 6039POPC   PO423256  33.071  42.363   9.150
 6039POPC   GL123257  33.066  42.363   8.850
 6039POPC   GL223258  32.958  42.270   8.850
 6039POPC   C1A23259  33.048  42.379   8.550
 6039POPC   D2A23260  32.984  42.325   8.250
 6039POPC   C3A23261  33.013  42.341   7.950
 6039POPC   C4A23262  32.981  42.307   7.650
 6039POPC   C1B23263  32.786  42.193   8.550
 6039POPC   C2B23264  32.801  42.182   8.250
 6039POPC   C3B23265  32.763  42.226   7.950
 6039POPC   C4B23266  32.765  42.236   7.650
 6040POPC   NC323267  38.425  38.408   9.450
 6040POPC   PO423268  38.465  38.499   9.150
 6040POPC   GL123269  38.419  38.500   8.850
 6040POPC   GL223270  38.514  38.414   8.850
 6040POPC   C1A23271  38.501  38.431   8.550
 6040POPC   D2A23272  38.458  38.503   8.250
 6040POPC   C3A23273  38.420  38.504   7.950
 6040POPC   C4A23274  38.503  38.420   7.650
 6040POPC   C1B23275  38.670  38.295   8.550
 6040POPC   C2B23276  38.674  38.324   8.250
 6040POPC   C3B23277  38.596  38.333   7.950
 6040POPC   C4B23278  38.665  38.330   7.650
 6041POPC   NC323279   2.021   3.498   9.450
 6041POPC   PO423280   1.966   3.561   9.150
 6041POPC   GL123281   2.010   3.561   8.850
 6041POPC   GL223282   1.869   3.586   8.850
 6041POPC   C1A23283   2.022   3.583   8.550
 6041POPC   D2A23284   2.033   3.552   8.250
 6041POPC   C3A23285   1.992   3.587   7.950
 6041POPC   C4A23286   1.995   3.526   7.650
 6041POPC   C1B23287   1.788   3.577   8.550
 6041POPC   C2B23288   1.788   3.514   8.250
 6041POPC   C3B23289   1.774   3.538   7.950
 6041POPC   C4B23290   1.765   3.537   7.650
 6042POPC   NC323291  21.391  37.703   9.450
 6042POPC   PO423292  21.369  37.722   9.150
 6042POPC   GL123293  21.358  37.661   8.850
 6042POPC   GL223294  21.306  37.564   8.850
 6042POPC   C1A23295  21.376  37.697   8.550
 6042POPC   D2A23296  21.419  37.691   8.250
 6042POPC   C3A23297  21.375  37.630   7.950
 6042POPC   C4A23298  21.345  37.673   7.650
 6042POPC   C1B23299  21.254  37.496   8.550
 6042POPC   C2B23300  21.250  37.506   8.250
 6042POPC   C3B23301  21.303  37.422   7.950
 6042POPC   C4B23302  21.249  37.473   7.650
 6043POPC   NC323303   2.806  25.250   9.450
 6043POPC   PO423304   2.795  25.282   9.150
 6043POPC   GL123305   2.771  25.247   8.850
 6043POPC   GL223306   2.717  25.328   8.850
 6043POPC   C1A23307   2.719  25.284   8.550
 6043POPC   D2A23308   2.721  25.298   8.250
 6043POPC   C3A23309   2.782  25.251   7.950
 6043POPC   C4A23310   2.804  25.295   7.650
 6043POPC   C1B23311   2.616  25.435   8.550
 6043POPC   C2B23312   2.607  25.494   8.250
 6043POPC   C3B23313   2.596  25.464   7.950
 6043POPC   C4B23314   2.664  25.462   7.650
 6044POPC   NC323315  38.444   1.190   9.450
 6044POPC   PO423316  38.495   1.262   9.150
 6044POPC   GL123317  38.416   1.207   8.850
 6044POPC   GL223318  38.439   1.359   8.850
 6044POPC   C1A23319  38.459   1.174   8.550
 6044POPC   D2A23320  38.454   1.182   8.250
 6044POPC   C3A23321  38.451   1.250   7.950
 6044POPC   C4A23322  38.458   1.253   7.650
 6044POPC   C1B23323  38.371   1.473   8.550
 6044POPC   C2B23324  38.323   1.402   8.250
 6044POPC   C3B23325  38.344   1.396   7.950
 6044POPC   C4B23326  38.384   1.434   7.650
 6045POPC   NC323327   0.426  15.944   9.450
 6045POPC   PO423328   0.403  15.984   9.150
 6045POPC   GL123329   0.414  15.934   8.850
 6045POPC   GL223330   0.527  16.075   8.850
 6045POPC   C1A23331   0.413  15.987   8.550
 6045POPC   D2A23332   0.411  15.923   8.250
 6045POPC   C3A23333   0.454  15.948   7.950
 6045POPC   C4A23334   0.439  15.929   7.650
 6045POPC   C1B23335   0.611  16.094   8.550
 6045POPC   C2B23336   0.652  16.084   8.250
 6045POPC   C3B23337   0.590  16.130   7.950
 6045POPC   C4B23338   0.647  16.151   7.650
 6046POPC   NC323339   5.825  22.951   9.450
 6046POPC   PO423340   5.821  22.974   9.150
 6046POPC   GL123341   5.887  22.935   8.850
 6046POPC   GL223342   5.870  22.843   8.850
 6046POPC   C1A23343   5.821  22.932   8.550
 6046POPC   D2A23344   5.873  22.945   8.250
 6046POPC   C3A23345   5.831  22.956   7.950
 6046POPC   C4A23346   5.867  22.891   7.650
 6046POPC   C1B23347   5.765  22.663   8.550
 6046POPC   C2B23348   5.747  22.741   8.250
 6046POPC   C3B23349   5.801  22.660   7.950
 6046POPC   C4B23350   5.821  22.659   7.650
 6047POPC   NC323351  40.788  26.079   9.450
 6047POPC   PO423352  40.833  26.035   9.150
 6047POPC   GL123353  40.745  26.011   8.850
 6047POPC   GL223354  40.796  26.137   8.850
 6047POPC   C1A23355  40.804  26.072   8.550
 6047POPC   D2A23356  40.807  26.000   8.250
 6047POPC   C3A23357  40.792  26.065   7.950
 6047POPC   C4A23358  40.733  26.046   7.650
 6047POPC   C1B23359  40.751  26.271   8.550
 6047POPC   C2B23360  40.756  26.241   8.250
 6047POPC   C3B23361  40.744  26.326   7.950
 6047POPC   C4B23362  40.804  26.267   7.650
 6048POPC   NC323363  20.656  38.499   9.450
 6048POPC   PO423364  20.641  38.487   9.150
 6048POPC   GL123365  20.650  38.419   8.850
 6048POPC   GL223366  20.605  38.567   8.850
 6048POPC   C1A23367  20.653  38.477   8.550
 6048POPC   D2A23368  20.629  38.465   8.250
 6048POPC   C3A23369  20.654  38.476   7.950
 6048POPC   C4A23370  20.588  38.479   7.650
 6048POPC   C1B23371  20.636  38.709   8.550
 6048POPC   C2B23372  20.632  38.651   8.250
 6048POPC   C3B23373  20.663  38.687   7.950
 6048POPC   C4B23374  20.693  38.710   7.650
 6049POPC   NC323375  11.329  15.162   9.450
 6049POPC   PO423376  11.266  15.189   9.150
 6049POPC   GL123377  11.272  15.133   8.850
 6049POPC   GL223378  11.326  15.312   8.850
 6049POPC   C1A23379  11.340  15.134   8.550
 6049POPC   D2A23380  11.347  15.141   8.250
 6049POPC   C3A23381  11.251  15.221   7.950
 6049POPC   C4A23382  11.320  15.143   7.650
 6049POPC   C1B23383  11.251  15.475   8.550
 6049POPC   C2B23384  11.241  15.416   8.250
 6049POPC   C3B23385  11.304  15.432   7.950
 6049POPC   C4B23386  11.269  15.430   7.650
 6050POPC   NC323387  16.717   1.970   9.450
 6050POPC   PO423388  16.748   1.962   9.150
 6050POPC   GL123389  16.712   1.986   8.850
 6050POPC   GL223390  16.597   2.041   8.850
 6050POPC   C1A23391  16.726   1.973   8.550
 6050POPC   D2A23392  16.774   2.025   8.250
 6050POPC   C3A23393  16.715   2.007   7.950
 6050POPC   C4A23394  16.748   1.992   7.650
 6050POPC   C1B23395  16.501   2.065   8.550
 6050POPC   C2B23396  16.541   2.070   8.250
 6050POPC   C3B23397  16.500   2.138   7.950
 6050POPC   C4B23398  16.530   2.127   7.650
 6051POPC   NC323399  32.284  37.682   9.450
 6051POPC   PO423400  32.226  37.720   9.150
 6051POPC   GL123401  32.237  37.630   8.850
 6051POPC   GL223402  32.258  37.798   8.850
 6051POPC   C1A23403  32.200  37.655   8.550
 6051POPC   D2A23404  32.253  37.659   8.250
 6051POPC   C3A23405  32.234  37.707   7.950
 6051POPC   C4A23406  32.217  37.698   7.650
 6051POPC   C1B23407  32.214  37.933   8.550
 6051POPC   C2B23408  32.264  37.974   8.250
 6051POPC   C3B23409  32.231  37.917   7.950
 6051POPC   C4B23410  32.277  37.905   7.650
 6052POPC   NC323411  23.724   8.982   9.450
 6052POPC   PO423412  23.711   9.008   9.150
 6052POPC   GL123413  23.754   8.985   8.850
 6052POPC   GL223414  23.558   8.997   8.850
 6052POPC   C1A23415  23.694   8.964   8.550
 6052POPC   D2A23416  23.680   8.955   8.250
 6052POPC   C3A23417  23.691   8.999   7.950
 6052POPC   C4A23418  23.664   8.959   7.650
 6052POPC   C1B23419  23.493   9.033   8.550
 6052POPC   C2B23420  23.509   8.989   8.250
 6052POPC   C3B23421  23.464   9.055   7.950
 6052POPC   C4B23422  23.440   9.011   7.650
 6053POPC   NC323423  22.160  26.864   9.450
 6053POPC   PO423424  22.210  26.864   9.150
 6053POPC   GL123425  22.170  26.834   8.850
 6053POPC   GL223426  22.238  26.741   8.850
 6053POPC   C1A23427  22.120  26.822   8.550
 6053POPC   D2A23428  22.147  26.806   8.250
 6053POPC   C3A23429  22.142  26.815   7.950
 6053POPC   C4A23430  22.140  26.804   7.650
 6053POPC   C1B23431  22.272  26.557   8.550
 6053POPC   C2B23432  22.242  26.577   8.250
 6053POPC   C3B23433  22.292  26.601   7.950
 6053POPC   C4B23434  22.271  26.611   7.650
 6054POPC   NC323435  12.103  44.625   9.450
 6054POPC   PO423436  12.114  44.660   9.150
 6054POPC   GL123437  12.038  44.673   8.850
 6054POPC   GL223438  12.029  44.579   8.850
 6054POPC   C1A23439  12.044  44.689   8.550
 6054POPC   D2A23440  12.069  44.676   8.250
 6054POPC   C3A23441  12.108  44.690   7.950
 6054POPC   C4A23442  12.110  44.679   7.650
 6054POPC   C1B23443  12.057  44.396   8.550
 6054POPC   C2B23444  12.078  44.422   8.250
 6054POPC   C3B23445  12.090  44.383   7.950
 6054POPC   C4B23446  12.090  44.404   7.650
 6055POPC   NC323447  15.907  13.662   9.450
 6055POPC   PO423448  15.964  13.634   9.150
 6055POPC   GL123449  15.995  13.600   8.850
 6055POPC   GL223450  15.924  13.756   8.850
 6055POPC   C1A23451  15.969  13.669   8.550
 6055POPC   D2A23452  15.987  13.590   8.250
 6055POPC   C3A23453  15.925  13.601   7.950
 6055POPC   C4A23454  16.005  13.645   7.650
 6055POPC   C1B23455  15.766  13.840   8.550
 6055POPC   C2B23456  15.846  13.817   8.250
 6055POPC   C3B23457  15.774  13.857   7.950
 6055POPC   C4B23458  15.802  13.783   7.650
 6056POPC   NC323459  10.542   5.099   9.450
 6056POPC   PO423460  10.569   5.071   9.150
 6056POPC   GL123461  10.526   5.083   8.850
 6056POPC   GL223462  10.488   4.935   8.850
 6056POPC   C1A23463  10.520   5.141   8.550
 6056POPC   D2A23464  10.544   5.093   8.250
 6056POPC   C3A23465  10.502   5.071   7.950
 6056POPC   C4A23466  10.544   5.075   7.650
 6056POPC   C1B23467  10.566   4.887   8.550
 6056POPC   C2B23468  10.518   4.803   8.250
 6056POPC   C3B23469  10.500   4.889   7.950
 6056POPC   C4B23470  10.485   4.870   7.650
 6057POPC   NC323471  22.148   2.814   9.450
 6057POPC   PO423472  22.202   2.746   9.150
 6057POPC   GL123473  22.171   2.785   8.850
 6057POPC   GL223474  22.310   2.809   8.850
 6057POPC   C1A23475  22.154   2.737   8.550
 6057POPC   D2A23476  22.127   2.760   8.250
 6057POPC   C3A23477  22.163   2.781   7.950
 6057POPC   C4A23478  22.168   2.754   7.650
 6057POPC   C1B23479  22.374   2.812   8.550
 6057POPC   C2B23480  22.382   2.763   8.250
 6057POPC   C3B23481  22.450   2.764   7.950
 6057POPC   C4B23482  22.400   2.818   7.650
 6058POPC   NC323483  40.737  19.104   9.450
 6058POPC   PO423484  40.768  19.108   9.150
 6058POPC   GL123485  40.746  19.078   8.850
 6058POPC   GL223486  40.899  19.096   8.850
 6058POPC   C1A23487  40.789  19.040   8.550
 6058POPC   D2A23488  40.769  19.053   8.250
 6058POPC   C3A23489  40.826  19.047   7.950
 6058POPC   C4A23490  40.792  19.106   7.650
 6058POPC   C1B23491  40.991  19.152   8.550
 6058POPC   C2B23492  41.026  19.175   8.250
 6058POPC   C3B23493  41.000  19.173   7.950
 6058POPC   C4B23494  41.061  19.127   7.650
 6059POPC   NC323495   0.436  13.664   9.450
 6059POPC   PO423496   0.434  13.604   9.150
 6059POPC   GL123497   0.455  13.614   8.850
 6059POPC   GL223498   0.390  13.740   8.850
 6059POPC   C1A23499   0.435  13.625   8.550
 6059POPC   D2A23500   0.434  13.585   8.250
 6059POPC   C3A23501   0.472  13.604   7.950
 6059POPC   C4A23502   0.457  13.646   7.650
 6059POPC   C1B23503   0.391  13.915   8.550
 6059POPC   C2B23504   0.387  13.867   8.250
 6059POPC   C3B23505   0.407  13.839   7.950
 6059POPC   C4B23506   0.438  13.888   7.650
 6060POPC   NC323507   0.481   0.453   9.450
 6060POPC   PO423508   0.432   0.427   9.150
 6060POPC   GL123509   0.395   0.448   8.850
 6060POPC   GL223510   0.458   0.548   8.850
 6060POPC   C1A23511   0.471   0.399   8.550
 6060POPC   D2A23512   0.423   0.419   8.250
 6060POPC   C3A23513   0.484   0.423   7.950
 6060POPC   C4A23514   0.444   0.452   7.650
 6060POPC   C1B23515   0.476   0.711   8.550
 6060POPC   C2B23516   0.473   0.727   8.250
 6060POPC   C3B23517   0.536   0.630   7.950
 6060POPC   C4B23518   0.472   0.704   7.650
 6061POPC   NC323519  41.523  19.013   9.450
 6061POPC   PO423520  41.561  19.024   9.150
 6061POPC   GL123521  41.562  19.077   8.850
 6061POPC   GL223522  41.669  19.131   8.850
 6061POPC   C1A23523  41.596  19.107   8.550
 6061POPC   D2A23524  41.523  19.064   8.250
 6061POPC   C3A23525  41.528  19.074   7.950
 6061POPC   C4A23526  41.573  19.039   7.650
 6061POPC   C1B23527  41.735  19.221   8.550
 6061POPC   C2B23528  41.759  19.249   8.250
 6061POPC   C3B23529  41.752  19.238   7.950
 6061POPC   C4B23530  41.803  19.186   7.650
 6062POPC   NC323531  44.632  30.746   9.450
 6062POPC   PO423532  44.679  30.709   9.150
 6062POPC   GL123533  44.654  30.714   8.850
 6062POPC   GL223534  44.812  30.705   8.850
 6062POPC   C1A23535  44.622  30.721   8.550
 6062POPC   D2A23536  44.681  30.654   8.250
 6062POPC   C3A23537  44.632  30.658   7.950
 6062POPC   C4A23538  44.652  30.726   7.650
 6062POPC   C1B23539  44.936  30.679   8.550
 6062POPC   C2B23540  44.892  30.702   8.250
 6062POPC   C3B23541  44.937  30.669   7.950
 6062POPC   C4B23542  44.924  30.624   7.650
 6063POPC   NC323543   1.983  24.522   9.450
 6063POPC   PO423544   1.955  24.499   9.150
 6063POPC   GL123545   1.975  24.500   8.850
 6063POPC   GL223546   2.076  24.513   8.850
 6063POPC   C1A23547   1.989  24.508   8.550
 6063POPC   D2A23548   1.954  24.528   8.250
 6063POPC   C3A23549   2.009  24.476   7.950
 6063POPC   C4A23550   2.026  24.448   7.650
 6063POPC   C1B23551   2.217  24.482   8.550
 6063POPC   C2B23552   2.208  24.542   8.250
 6063POPC   C3B23553   2.198  24.480   7.950
 6063POPC   C4B23554   2.258  24.462   7.650
 6064POPC   NC323555  20.567  36.115   9.450
 6064POPC   PO423556  20.657  36.155   9.150
 6064POPC   GL123557  20.623  36.108   8.850
 6064POPC   GL223558  20.483  36.109   8.850
 6064POPC   C1A23559  20.583  36.086   8.550
 6064POPC   D2A23560  20.644  36.176   8.250
 6064POPC   C3A23561  20.603  36.172   7.950
 6064POPC   C4A23562  20.603  36.114   7.650
 6064POPC   C1B23563  20.340  36.162   8.550
 6064POPC   C2B23564  20.398  36.232   8.250
 6064POPC   C3B23565  20.412  36.219   7.950
 6064POPC   C4B23566  20.362  36.224   7.650
 6065POPC   NC323567  16.781  38.440   9.450
 6065POPC   PO423568  16.693  38.455   9.150
 6065POPC   GL123569  16.723  38.463   8.850
 6065POPC   GL223570  16.737  38.599   8.850
 6065POPC   C1A23571  16.770  38.418   8.550
 6065POPC   D2A23572  16.730  38.436   8.250
 6065POPC   C3A23573  16.698  38.426   7.950
 6065POPC   C4A23574  16.763  38.452   7.650
 6065POPC   C1B23575  16.668  38.747   8.550
 6065POPC   C2B23576  16.712  38.697   8.250
 6065POPC   C3B23577  16.730  38.734   7.950
 6065POPC   C4B23578  16.704  38.744   7.650
 6066POPC   NC323579  12.038  17.519   9.450
 6066POPC   PO423580  12.065  17.512   9.150
 6066POPC   GL123581  12.059  17.526   8.850
 6066POPC   GL223582  11.999  17.620   8.850
 6066POPC   C1A23583  12.120  17.501   8.550
 6066POPC   D2A23584  12.029  17.462   8.250
 6066POPC   C3A23585  12.111  17.459   7.950
 6066POPC   C4A23586  12.071  17.552   7.650
 6066POPC   C1B23587  11.873  17.665   8.550
 6066POPC   C2B23588  11.909  17.684   8.250
 6066POPC   C3B23589  11.873  17.648   7.950
 6066POPC   C4B23590  11.847  17.709   7.650
 6067POPC   NC323591   7.401  19.840   9.450
 6067POPC   PO423592   7.435  19.812   9.150
 6067POPC   GL123593   7.450  19.792   8.850
 6067POPC   GL223594   7.546  19.790   8.850
 6067POPC   C1A23595   7.470  19.867   8.550
 6067POPC   D2A23596   7.391  19.791   8.250
 6067POPC   C3A23597   7.375  19.855   7.950
 6067POPC   C4A23598   7.420  19.800   7.650
 6067POPC   C1B23599   7.622  19.820   8.550
 6067POPC   C2B23600   7.615  19.742   8.250
 6067POPC   C3B23601   7.700  19.806   7.950
 6067POPC   C4B23602   7.630  19.775   7.650
 6068POPC   NC323603  29.137  29.917   9.450
 6068POPC   PO423604  29.131  29.913   9.150
 6068POPC   GL123605  29.185  29.931   8.850
 6068POPC   GL223606  29.134  29.754   8.850
 6068POPC   C1A23607  29.167  29.961   8.550
 6068POPC   D2A23608  29.195  29.891   8.250
 6068POPC   C3A23609  29.174  29.915   7.950
 6068POPC   C4A23610  29.123  29.872   7.650
 6068POPC   C1B23611  29.227  29.693   8.550
 6068POPC   C2B23612  29.232  29.697   8.250
 6068POPC   C3B23613  29.148  29.675   7.950
 6068POPC   C4B23614  29.135  29.697   7.650
 6069POPC   NC323615  20.629  19.828   9.450
 6069POPC   PO423616  20.658  19.870   9.150
 6069POPC   GL123617  20.560  19.796   8.850
 6069POPC   GL223618  20.663  19.760   8.850
 6069POPC   C1A23619  20.570  19.803   8.550
 6069POPC   D2A23620  20.594  19.876   8.250
 6069POPC   C3A23621  20.633  19.846   7.950
 6069POPC   C4A23622  20.642  19.806   7.650
 6069POPC   C1B23623  20.712  19.637   8.550
 6069POPC   C2B23624  20.755  19.620   8.250
 6069POPC   C3B23625  20.773  19.584   7.950
 6069POPC   C4B23626  20.698  19.623   7.650
 6070POPC   NC323627   6.637  43.862   9.450
 6070POPC   PO423628   6.609  43.872   9.150
 6070POPC   GL123629   6.660  43.892   8.850
 6070POPC   GL223630   6.638  43.724   8.850
 6070POPC   C1A23631   6.663  43.900   8.550
 6070POPC   D2A23632   6.690  43.883   8.250
 6070POPC   C3A23633   6.682  43.903   7.950
 6070POPC   C4A23634   6.598  43.857   7.650
 6070POPC   C1B23635   6.661  43.630   8.550
 6070POPC   C2B23636   6.705  43.638   8.250
 6070POPC   C3B23637   6.676  43.596   7.950
 6070POPC   C4B23638   6.697  43.660   7.650
 6071POPC   NC323639  29.097  37.650   9.450
 6071POPC   PO423640  29.164  37.633   9.150
 6071POPC   GL123641  29.171  37.635   8.850
 6071POPC   GL223642  29.116  37.835   8.850
 6071POPC   C1A23643  29.174  37.630   8.550
 6071POPC   D2A23644  29.138  37.722   8.250
 6071POPC   C3A23645  29.169  37.649   7.950
 6071POPC   C4A23646  29.183  37.640   7.650
 6071POPC   C1B23647  29.163  37.965   8.550
 6071POPC   C2B23648  29.121  37.912   8.250
 6071POPC   C3B23649  29.173  37.948   7.950
 6071POPC   C4B23650  29.165  37.953   7.650
 6072POPC   NC323651   8.949  12.872   9.450
 6072POPC   PO423652   8.934  12.824   9.150
 6072POPC   GL123653   8.977  12.896   8.850
 6072POPC   GL223654   8.955  12.734   8.850
 6072POPC   C1A23655   9.015  12.854   8.550
 6072POPC   D2A23656   9.011  12.832   8.250
 6072POPC   C3A23657   8.950  12.855   7.950
 6072POPC   C4A23658   8.963  12.876   7.650
 6072POPC   C1B23659   8.926  12.643   8.550
 6072POPC   C2B23660   8.954  12.617   8.250
 6072POPC   C3B23661   8.898  12.635   7.950
 6072POPC   C4B23662   8.891  12.628   7.650
 6073POPC   NC323663  15.204  42.340   9.450
 6073POPC   PO423664  15.153  42.375   9.150
 6073POPC   GL123665  15.151  42.349   8.850
 6073POPC   GL223666  15.201  42.219   8.850
 6073POPC   C1A23667  15.198  42.345   8.550
 6073POPC   D2A23668  15.141  42.303   8.250
 6073POPC   C3A23669  15.157  42.337   7.950
 6073POPC   C4A23670  15.224  42.383   7.650
 6073POPC   C1B23671  15.203  42.041   8.550
 6073POPC   C2B23672  15.171  42.127   8.250
 6073POPC   C3B23673  15.236  42.085   7.950
 6073POPC   C4B23674  15.216  42.112   7.650
 6074POPC   NC323675  35.333  36.090   9.450
 6074POPC   PO423676  35.369  36.093   9.150
 6074POPC   GL123677  35.320  36.114   8.850
 6074POPC   GL223678  35.199  36.115   8.850
 6074POPC   C1A23679  35.302  36.098   8.550
 6074POPC   D2A23680  35.330  36.078   8.250
 6074POPC   C3A23681  35.340  36.099   7.950
 6074POPC   C4A23682  35.340  36.142   7.650
 6074POPC   C1B23683  35.129  36.146   8.550
 6074POPC   C2B23684  35.122  36.167   8.250
 6074POPC   C3B23685  35.058  36.169   7.950
 6074POPC   C4B23686  35.106  36.176   7.650
 6075POPC   NC323687  33.776  13.658   9.450
 6075POPC   PO423688  33.825  13.638   9.150
 6075POPC   GL123689  33.754  13.593   8.850
 6075POPC   GL223690  33.864  13.491   8.850
 6075POPC   C1A23691  33.821  13.597   8.550
 6075POPC   D2A23692  33.801  13.626   8.250
 6075POPC   C3A23693  33.830  13.604   7.950
 6075POPC   C4A23694  33.824  13.602   7.650
 6075POPC   C1B23695  33.851  13.351   8.550
 6075POPC   C2B23696  33.901  13.390   8.250
 6075POPC   C3B23697  33.894  13.380   7.950
 6075POPC   C4B23698  33.825  13.352   7.650
 6076POPC   NC323699  15.165   7.426   9.450
 6076POPC   PO423700  15.203   7.469   9.150
 6076POPC   GL123701  15.190   7.416   8.850
 6076POPC   GL223702  15.239   7.309   8.850
 6076POPC   C1A23703  15.155   7.463   8.550
 6076POPC   D2A23704  15.187   7.421   8.250
 6076POPC   C3A23705  15.193   7.389   7.950
 6076POPC   C4A23706  15.221   7.459   7.650
 6076POPC   C1B23707  15.342   7.202   8.550
 6076POPC   C2B23708  15.362   7.228   8.250
 6076POPC   C3B23709  15.348   7.233   7.950
 6076POPC   C4B23710  15.320   7.249   7.650
 6077POPC   NC323711  34.534  41.574   9.450
 6077POPC   PO423712  34.598  41.605   9.150
 6077POPC   GL123713  34.538  41.550   8.850
 6077POPC   GL223714  34.629  41.680   8.850
 6077POPC   C1A23715  34.534  41.536   8.550
 6077POPC   D2A23716  34.599  41.541   8.250
 6077POPC   C3A23717  34.599  41.535   7.950
 6077POPC   C4A23718  34.530  41.525   7.650
 6077POPC   C1B23719  34.680  41.777   8.550
 6077POPC   C2B23720  34.710  41.804   8.250
 6077POPC   C3B23721  34.745  41.745   7.950
 6077POPC   C4B23722  34.747  41.754   7.650
 6078POPC   NC323723  12.836  20.632   9.450
 6078POPC   PO423724  12.874  20.605   9.150
 6078POPC   GL123725  12.845  20.608   8.850
 6078POPC   GL223726  12.970  20.551   8.850
 6078POPC   C1A23727  12.868  20.575   8.550
 6078POPC   D2A23728  12.837  20.579   8.250
 6078POPC   C3A23729  12.866  20.589   7.950
 6078POPC   C4A23730  12.885  20.584   7.650
 6078POPC   C1B23731  13.007  20.436   8.550
 6078POPC   C2B23732  13.067  20.413   8.250
 6078POPC   C3B23733  13.019  20.442   7.950
 6078POPC   C4B23734  13.092  20.403   7.650
 6079POPC   NC323735  36.903   4.304   9.450
 6079POPC   PO423736  36.873   4.309   9.150
 6079POPC   GL123737  36.900   4.319   8.850
 6079POPC   GL223738  36.862   4.430   8.850
 6079POPC   C1A23739  36.893   4.335   8.550
 6079POPC   D2A23740  36.936   4.344   8.250
 6079POPC   C3A23741  36.910   4.320   7.950
 6079POPC   C4A23742  36.926   4.298   7.650
 6079POPC   C1B23743  36.779   4.579   8.550
 6079POPC   C2B23744  36.755   4.546   8.250
 6079POPC   C3B23745  36.746   4.524   7.950
 6079POPC   C4B23746  36.746   4.530   7.650
 6080POPC   NC323747   7.398  16.774   9.450
 6080POPC   PO423748   7.469  16.778   9.150
 6080POPC   GL123749   7.422  16.762   8.850
 6080POPC   GL223750   7.380  16.893   8.850
 6080POPC   C1A23751   7.397  16.694   8.550
 6080POPC   D2A23752   7.415  16.713   8.250
 6080POPC   C3A23753   7.384  16.693   7.950
 6080POPC   C4A23754   7.428  16.719   7.650
 6080POPC   C1B23755   7.431  16.974   8.550
 6080POPC   C2B23756   7.428  16.971   8.250
 6080POPC   C3B23757   7.425  16.958   7.950
 6080POPC   C4B23758   7.390  17.012   7.650
 6081POPC   NC323759   4.363  12.102   9.450
 6081POPC   PO423760   4.275  12.056   9.150
 6081POPC   GL123761   4.351  12.066   8.850
 6081POPC   GL223762   4.309  12.168   8.850
 6081POPC   C1A23763   4.347  12.040   8.550
 6081POPC   D2A23764   4.312  12.044   8.250
 6081POPC   C3A23765   4.312  12.077   7.950
 6081POPC   C4A23766   4.283  12.053   7.650
 6081POPC   C1B23767   4.347  12.337   8.550
 6081POPC   C2B23768   4.355  12.305   8.250
 6081POPC   C3B23769   4.399  12.282   7.950
 6081POPC   C4B23770   4.371  12.341   7.650
 6082POPC   NC323771  33.036  28.407   9.450
 6082POPC   PO423772  33.036  28.366   9.150
 6082POPC   GL123773  32.997  28.349   8.850
 6082POPC   GL223774  33.088  28.449   8.850
 6082POPC   C1A23775  33.017  28.352   8.550
 6082POPC   D2A23776  32.993  28.322   8.250
 6082POPC   C3A23777  32.995  28.380   7.950
 6082POPC   C4A23778  32.977  28.362   7.650
 6082POPC   C1B23779  33.112  28.552   8.550
 6082POPC   C2B23780  33.112  28.588   8.250
 6082POPC   C3B23781  33.139  28.558   7.950
 6082POPC   C4B23782  33.204  28.536   7.650
 6083POPC   NC323783  33.064   2.785   9.450
 6083POPC   PO423784  33.055   2.800   9.150
 6083POPC   GL123785  33.035   2.716   8.850
 6083POPC   GL223786  33.032   2.675   8.850
 6083POPC   C1A23787  32.980   2.809   8.550
 6083POPC   D2A23788  33.059   2.794   8.250
 6083POPC   C3A23789  33.070   2.799   7.950
 6083POPC   C4A23790  33.016   2.723   7.650
 6083POPC   C1B23791  32.950   2.556   8.550
 6083POPC   C2B23792  32.996   2.516   8.250
 6083POPC   C3B23793  33.004   2.536   7.950
 6083POPC   C4B23794  33.001   2.496   7.650
 6084POPC   NC323795  40.803  22.167   9.450
 6084POPC   PO423796  40.738  22.119   9.150
 6084POPC   GL123797  40.764  22.113   8.850
 6084POPC   GL223798  40.690  22.190   8.850
 6084POPC   C1A23799  40.813  22.152   8.550
 6084POPC   D2A23800  40.761  22.135   8.250
 6084POPC   C3A23801  40.801  22.183   7.950
 6084POPC   C4A23802  40.794  22.190   7.650
 6084POPC   C1B23803  40.570  22.283   8.550
 6084POPC   C2B23804  40.532  22.310   8.250
 6084POPC   C3B23805  40.556  22.322   7.950
 6084POPC   C4B23806  40.545  22.256   7.650
 6085POPC   NC323807  26.816  19.063   9.450
 6085POPC   PO423808  26.779  19.086   9.150
 6085POPC   GL123809  26.847  19.021   8.850
 6085POPC   GL223810  26.941  18.951   8.850
 6085POPC   C1A23811  26.788  19.017   8.550
 6085POPC   D2A23812  26.849  19.105   8.250
 6085POPC   C3A23813  26.838  19.017   7.950
 6085POPC   C4A23814  26.863  19.036   7.650
 6085POPC   C1B23815  26.981  18.866   8.550
 6085POPC   C2B23816  27.001  18.905   8.250
 6085POPC   C3B23817  26.992  18.863   7.950
 6085POPC   C4B23818  26.999  18.878   7.650
 6086POPC   NC323819  18.290  43.075   9.450
 6086POPC   PO423820  18.278  43.070   9.150
 6086POPC   GL123821  18.310  43.103   8.850
 6086POPC   GL223822  18.170  43.216   8.850
 6086POPC   C1A23823  18.314  43.110   8.550
 6086POPC   D2A23824  18.324  43.139   8.250
 6086POPC   C3A23825  18.268  43.116   7.950
 6086POPC   C4A23826  18.284  43.126   7.650
 6086POPC   C1B23827  18.174  43.328   8.550
 6086POPC   C2B23828  18.141  43.335   8.250
 6086POPC   C3B23829  18.145  43.355   7.950
 6086POPC   C4B23830  18.126  43.297   7.650
 6087POPC   NC323831  36.123  21.372   9.450
 6087POPC   PO423832  36.175  21.377   9.150
 6087POPC   GL123833  36.143  21.426   8.850
 6087POPC   GL223834  36.110  21.315   8.850
 6087POPC   C1A23835  36.142  21.397   8.550
 6087POPC   D2A23836  36.100  21.382   8.250
 6087POPC   C3A23837  36.173  21.404   7.950
 6087POPC   C4A23838  36.096  21.374   7.650
 6087POPC   C1B23839  36.088  21.104   8.550
 6087POPC   C2B23840  36.054  21.121   8.250
 6087POPC   C3B23841  36.077  21.190   7.950
 6087POPC   C4B23842  36.094  21.117   7.650
 6088POPC   NC323843  29.968   0.404   9.450
 6088POPC   PO423844  29.950   0.456   9.150
 6088POPC   GL123845  29.920   0.410   8.850
 6088POPC   GL223846  29.956   0.302   8.850
 6088POPC   C1A23847  29.962   0.479   8.550
 6088POPC   D2A23848  29.919   0.462   8.250
 6088POPC   C3A23849  29.955   0.484   7.950
 6088POPC   C4A23850  29.905   0.458   7.650
 6088POPC   C1B23851  30.017   0.193   8.550
 6088POPC   C2B23852  30.044   0.223   8.250
 6088POPC   C3B23853  30.017   0.225   7.950
 6088POPC   C4B23854  30.065   0.174   7.650
 6089POPC   NC323855  12.861  28.398   9.450
 6089POPC   PO423856  12.825  28.340   9.150
 6089POPC   GL123857  12.831  28.334   8.850
 6089POPC   GL223858  12.808  28.488   8.850
 6089POPC   C1A23859  12.877  28.408   8.550
 6089POPC   D2A23860  12.830  28.391   8.250
 6089POPC   C3A23861  12.841  28.329   7.950
 6089POPC   C4A23862  12.846  28.390   7.650
 6089POPC   C1B23863  12.676  28.586   8.550
 6089POPC   C2B23864  12.709  28.559   8.250
 6089POPC   C3B23865  12.690  28.580   7.950
 6089POPC   C4B23866  12.754  28.531   7.650
 6090POPC   NC323867  39.222  24.502   9.450
 6090POPC   PO423868  39.268  24.533   9.150
 6090POPC   GL123869  39.190  24.509   8.850
 6090POPC   GL223870  39.107  24.530   8.850
 6090POPC   C1A23871  39.280  24.486   8.550
 6090POPC   D2A23872  39.280  24.487   8.250
 6090POPC   C3A23873  39.225  24.476   7.950
 6090POPC   C4A23874  39.186  24.485   7.650
 6090POPC   C1B23875  39.007  24.568   8.550
 6090POPC   C2B23876  39.018  24.551   8.250
 6090POPC   C3B23877  38.947  24.585   7.950
 6090POPC   C4B23878  38.959  24.576   7.650
 6091POPC   NC323879  22.920   2.730   9.450
 6091POPC   PO423880  22.913   2.748   9.150
 6091POPC   GL123881  22.916   2.804   8.850
 6091POPC   GL223882  22.982   2.617   8.850
 6091POPC   C1A23883  22.957   2.797   8.550
 6091POPC   D2A23884  22.921   2.775   8.250
 6091POPC   C3A23885  22.906   2.765   7.950
 6091POPC   C4A23886  22.978   2.779   7.650
 6091POPC   C1B23887  22.989   2.528   8.550
 6091POPC   C2B23888  23.010   2.523   8.250
 6091POPC   C3B23889  23.029   2.511   7.950
 6091POPC   C4B23890  22.965   2.557   7.650
 6092POPC   NC323891  26.865   0.461   9.450
 6092POPC   PO423892  26.848   0.438   9.150
 6092POPC   GL123893  26.797   0.397   8.850
 6092POPC   GL223894  26.882   0.326   8.850
 6092POPC   C1A23895  26.853   0.470   8.550
 6092POPC   D2A23896  26.833   0.460   8.250
 6092POPC   C3A23897  26.798   0.475   7.950
 6092POPC   C4A23898  26.837   0.454   7.650
 6092POPC   C1B23899  27.018   0.270   8.550
 6092POPC   C2B23900  26.976   0.270   8.250
 6092POPC   C3B23901  26.998   0.247   7.950
 6092POPC   C4B23902  26.982   0.200   7.650
 6093POPC   NC323903  33.846  38.461   9.450
 6093POPC   PO423904  33.781  38.464   9.150
 6093POPC   GL123905  33.798  38.465   8.850
 6093POPC   GL223906  33.743  38.514   8.850
 6093POPC   C1A23907  33.827  38.428   8.550
 6093POPC   D2A23908  33.822  38.431   8.250
 6093POPC   C3A23909  33.778  38.472   7.950
 6093POPC   C4A23910  33.793  38.419   7.650
 6093POPC   C1B23911  33.553  38.638   8.550
 6093POPC   C2B23912  33.568  38.640   8.250
 6093POPC   C3B23913  33.567  38.589   7.950
 6093POPC   C4B23914  33.581  38.567   7.650
 6094POPC   NC323915  38.433  26.794   9.450
 6094POPC   PO423916  38.412  26.814   9.150
 6094POPC   GL123917  38.478  26.796   8.850
 6094POPC   GL223918  38.364  26.801   8.850
 6094POPC   C1A23919  38.426  26.846   8.550
 6094POPC   D2A23920  38.407  26.825   8.250
 6094POPC   C3A23921  38.474  26.861   7.950
 6094POPC   C4A23922  38.435  26.833   7.650
 6094POPC   C1B23923  38.223  26.707   8.550
 6094POPC   C2B23924  38.221  26.753   8.250
 6094POPC   C3B23925  38.250  26.703   7.950
 6094POPC   C4B23926  38.166  26.743   7.650
 6095POPC   NC323927  28.320   6.659   9.450
 6095POPC   PO423928  28.374   6.640   9.150
 6095POPC   GL123929  28.372   6.663   8.850
 6095POPC   GL223930  28.494   6.721   8.850
 6095POPC   C1A23931  28.345   6.677   8.550
 6095POPC   D2A23932  28.335   6.641   8.250
 6095POPC   C3A23933  28.370   6.671   7.950
 6095POPC   C4A23934  28.371   6.651   7.650
 6095POPC   C1B23935  28.573   6.696   8.550
 6095POPC   C2B23936  28.562   6.729   8.250
 6095POPC   C3B23937  28.577   6.723   7.950
 6095POPC   C4B23938  28.623   6.725   7.650
 6096POPC   NC323939  18.257   8.928   9.450
 6096POPC   PO423940  18.265   8.955   9.150
 6096POPC   GL123941  18.288   9.020   8.850
 6096POPC   GL223942  18.433   8.992   8.850
 6096POPC   C1A23943  18.273   8.947   8.550
 6096POPC   D2A23944  18.273   8.930   8.250
 6096POPC   C3A23945  18.303   8.969   7.950
 6096POPC   C4A23946  18.275   9.012   7.650
 6096POPC   C1B23947  18.495   9.070   8.550
 6096POPC   C2B23948  18.538   9.088   8.250
 6096POPC   C3B23949  18.505   9.143   7.950
 6096POPC   C4B23950  18.528   9.132   7.650
 6097POPC   NC323951  28.321   7.410   9.450
 6097POPC   PO423952  28.343   7.420   9.150
 6097POPC   GL123953  28.393   7.391   8.850
 6097POPC   GL223954  28.305   7.539   8.850
 6097POPC   C1A23955  28.395   7.450   8.550
 6097POPC   D2A23956  28.346   7.425   8.250
 6097POPC   C3A23957  28.355   7.401   7.950
 6097POPC   C4A23958  28.371   7.386   7.650
 6097POPC   C1B23959  28.150   7.535   8.550
 6097POPC   C2B23960  28.203   7.552   8.250
 6097POPC   C3B23961  28.176   7.535   7.950
 6097POPC   C4B23962  28.213   7.551   7.650
 6098POPC   NC323963  15.945  12.103   9.450
 6098POPC   PO423964  15.960  12.125   9.150
 6098POPC   GL123965  15.980  12.083   8.850
 6098POPC   GL223966  16.073  12.108   8.850
 6098POPC   C1A23967  15.988  12.095   8.550
 6098POPC   D2A23968  15.949  12.043   8.250
 6098POPC   C3A23969  15.918  12.037   7.950
 6098POPC   C4A23970  15.955  12.046   7.650
 6098POPC   C1B23971  16.168  12.020   8.550
 6098POPC   C2B23972  16.228  11.997   8.250
 6098POPC   C3B23973  16.222  12.088   7.950
 6098POPC   C4B23974  16.188  12.009   7.650
 6099POPC   NC323975  12.820  41.600   9.450
 6099POPC   PO423976  12.811  41.600   9.150
 6099POPC   GL123977  12.850  41.549   8.850
 6099POPC   GL223978  12.954  41.618   8.850
 6099POPC   C1A23979  12.861  41.555   8.550
 6099POPC   D2A23980  12.808  41.592   8.250
 6099POPC   C3A23981  12.899  41.547   7.950
 6099POPC   C4A23982  12.868  41.579   7.650
 6099POPC   C1B23983  12.937  41.822   8.550
 6099POPC   C2B23984  12.990  41.784   8.250
 6099POPC   C3B23985  12.968  41.792   7.950
 6099POPC   C4B23986  12.962  41.760   7.650
 6100POPC   NC323987   5.853   4.319   9.450
 6100POPC   PO423988   5.854   4.353   9.150
 6100POPC   GL123989   5.845   4.315   8.850
 6100POPC   GL223990   5.780   4.258   8.850
 6100POPC   C1A23991   5.874   4.293   8.550
 6100POPC   D2A23992   5.833   4.342   8.250
 6100POPC   C3A23993   5.913   4.348   7.950
 6100POPC   C4A23994   5.906   4.297   7.650
 6100POPC   C1B23995   5.578   4.295   8.550
 6100POPC   C2B23996   5.597   4.282   8.250
 6100POPC   C3B23997   5.594   4.270   7.950
 6100POPC   C4B23998   5.603   4.237   7.650
 6101POPC   NC323999   5.872  43.845   9.450
 6101POPC   PO424000   5.918  43.851   9.150
 6101POPC   GL124001   5.880  43.936   8.850
 6101POPC   GL224002   5.964  43.923   8.850
 6101POPC   C1A24003   5.841  43.875   8.550
 6101POPC   D2A24004   5.877  43.898   8.250
 6101POPC   C3A24005   5.904  43.910   7.950
 6101POPC   C4A24006   5.848  43.885   7.650
 6101POPC   C1B24007   6.068  44.008   8.550
 6101POPC   C2B24008   6.103  44.075   8.250
 6101POPC   C3B24009   6.030  44.032   7.950
 6101POPC   C4B24010   6.013  44.014   7.650
 6102POPC   NC324011   8.195  27.556   9.450
 6102POPC   PO424012   8.158  27.598   9.150
 6102POPC   GL124013   8.209  27.606   8.850
 6102POPC   GL224014   8.271  27.728   8.850
 6102POPC   C1A24015   8.201  27.593   8.550
 6102POPC   D2A24016   8.167  27.602   8.250
 6102POPC   C3A24017   8.232  27.547   7.950
 6102POPC   C4A24018   8.196  27.575   7.650
 6102POPC   C1B24019   8.339  27.773   8.550
 6102POPC   C2B24020   8.295  27.824   8.250
 6102POPC   C3B24021   8.312  27.820   7.950
 6102POPC   C4B24022   8.362  27.820   7.650
 6103POPC   NC324023  26.076  22.970   9.450
 6103POPC   PO424024  26.033  22.892   9.150
 6103POPC   GL124025  26.059  22.931   8.850
 6103POPC   GL224026  26.198  22.882   8.850
 6103POPC   C1A24027  26.032  22.935   8.550
 6103POPC   D2A24028  26.085  22.970   8.250
 6103POPC   C3A24029  26.053  22.944   7.950
 6103POPC   C4A24030  26.038  22.890   7.650
 6103POPC   C1B24031  26.239  22.775   8.550
 6103POPC   C2B24032  26.286  22.855   8.250
 6103POPC   C3B24033  26.222  22.777   7.950
 6103POPC   C4B24034  26.206  22.795   7.650
 6104POPC   NC324035  12.817  30.724   9.450
 6104POPC   PO424036  12.894  30.664   9.150
 6104POPC   GL124037  12.861  30.681   8.850
 6104POPC   GL224038  12.826  30.844   8.850
 6104POPC   C1A24039  12.849  30.683   8.550
 6104POPC   D2A24040  12.857  30.701   8.250
 6104POPC   C3A24041  12.831  30.713   7.950
 6104POPC   C4A24042  12.882  30.730   7.650
 6104POPC   C1B24043  12.870  30.955   8.550
 6104POPC   C2B24044  12.893  30.915   8.250
 6104POPC   C3B24045  12.841  30.921   7.950
 6104POPC   C4B24046  12.831  30.981   7.650
 6105POPC   NC324047  33.008   1.203   9.450
 6105POPC   PO424048  33.061   1.174   9.150
 6105POPC   GL124049  32.994   1.235   8.850
 6105POPC   GL224050  32.973   1.342   8.850
 6105POPC   C1A24051  32.986   1.217   8.550
 6105POPC   D2A24052  33.064   1.167   8.250
 6105POPC   C3A24053  32.992   1.197   7.950
 6105POPC   C4A24054  33.018   1.215   7.650
 6105POPC   C1B24055  32.961   1.464   8.550
 6105POPC   C2B24056  32.959   1.430   8.250
 6105POPC   C3B24057  32.907   1.397   7.950
 6105POPC   C4B24058  32.940   1.430   7.650
 6106POPC   NC324059  12.811  24.496   9.450
 6106POPC   PO424060  12.851  24.441   9.150
 6106POPC   GL124061  12.821  24.498   8.850
 6106POPC   GL224062  12.967  24.583   8.850
 6106POPC   C1A24063  12.854  24.508   8.550
 6106POPC   D2A24064  12.898  24.507   8.250
 6106POPC   C3A24065  12.842  24.464   7.950
 6106POPC   C4A24066  12.838  24.448   7.650
 6106POPC   C1B24067  13.013  24.741   8.550
 6106POPC   C2B24068  13.031  24.712   8.250
 6106POPC   C3B24069  12.950  24.724   7.950
 6106POPC   C4B24070  13.005  24.718   7.650
 6107POPC   NC324071  27.611  36.906   9.450
 6107POPC   PO424072  27.591  36.941   9.150
 6107POPC   GL124073  27.596  36.899   8.850
 6107POPC   GL224074  27.691  36.772   8.850
 6107POPC   C1A24075  27.630  36.938   8.550
 6107POPC   D2A24076  27.630  36.877   8.250
 6107POPC   C3A24077  27.561  36.862   7.950
 6107POPC   C4A24078  27.621  36.892   7.650
 6107POPC   C1B24079  27.669  36.687   8.550
 6107POPC   C2B24080  27.684  36.644   8.250
 6107POPC   C3B24081  27.722  36.683   7.950
 6107POPC   C4B24082  27.670  36.634   7.650
 6108POPC   NC324083  13.596  38.415   9.450
 6108POPC   PO424084  13.586  38.474   9.150
 6108POPC   GL124085  13.604  38.416   8.850
 6108POPC   GL224086  13.652  38.618   8.850
 6108POPC   C1A24087  13.617  38.485   8.550
 6108POPC   D2A24088  13.606  38.469   8.250
 6108POPC   C3A24089  13.661  38.490   7.950
 6108POPC   C4A24090  13.615  38.476   7.650
 6108POPC   C1B24091  13.605  38.746   8.550
 6108POPC   C2B24092  13.560  38.721   8.250
 6108POPC   C3B24093  13.615  38.673   7.950
 6108POPC   C4B24094  13.544  38.700   7.650
 6109POPC   NC324095  29.924  38.498   9.450
 6109POPC   PO424096  29.904  38.502   9.150
 6109POPC   GL124097  29.946  38.423   8.850
 6109POPC   GL224098  30.040  38.536   8.850
 6109POPC   C1A24099  29.949  38.411   8.550
 6109POPC   D2A24100  29.929  38.450   8.250
 6109POPC   C3A24101  29.906  38.470   7.950
 6109POPC   C4A24102  29.955  38.487   7.650
 6109POPC   C1B24103  30.133  38.629   8.550
 6109POPC   C2B24104  30.127  38.607   8.250
 6109POPC   C3B24105  30.093  38.590   7.950
 6109POPC   C4B24106  30.081  38.610   7.650
 6110POPC   NC324107  37.695  39.998   9.450
 6110POPC   PO424108  37.726  39.989   9.150
 6110POPC   GL124109  37.631  39.979   8.850
 6110POPC   GL224110  37.755  39.929   8.850
 6110POPC   C1A24111  37.708  40.049   8.550
 6110POPC   D2A24112  37.679  39.983   8.250
 6110POPC   C3A24113  37.676  40.047   7.950
 6110POPC   C4A24114  37.655  39.997   7.650
 6110POPC   C1B24115  37.840  39.810   8.550
 6110POPC   C2B24116  37.884  39.776   8.250
 6110POPC   C3B24117  37.799  39.861   7.950
 6110POPC   C4B24118  37.880  39.848   7.650
 6111POPC   NC324119   6.642   8.998   9.450
 6111POPC   PO424120   6.609   8.933   9.150
 6111POPC   GL124121   6.636   8.959   8.850
 6111POPC   GL224122   6.778   9.037   8.850
 6111POPC   C1A24123   6.664   9.003   8.550
 6111POPC   D2A24124   6.643   8.968   8.250
 6111POPC   C3A24125   6.617   9.000   7.950
 6111POPC   C4A24126   6.651   8.947   7.650
 6111POPC   C1B24127   6.872   9.109   8.550
 6111POPC   C2B24128   6.792   9.099   8.250
 6111POPC   C3B24129   6.790   9.164   7.950
 6111POPC   C4B24130   6.838   9.169   7.650
 6112POPC   NC324131   9.745  18.306   9.450
 6112POPC   PO424132   9.790  18.234   9.150
 6112POPC   GL124133   9.721  18.303   8.850
 6112POPC   GL224134   9.907  18.261   8.850
 6112POPC   C1A24135   9.769  18.321   8.550
 6112POPC   D2A24136   9.712  18.300   8.250
 6112POPC   C3A24137   9.744  18.255   7.950
 6112POPC   C4A24138   9.772  18.284   7.650
 6112POPC   C1B24139  10.007  18.212   8.550
 6112POPC   C2B24140  10.010  18.227   8.250
 6112POPC   C3B24141   9.986  18.240   7.950
 6112POPC   C4B24142  10.012  18.254   7.650
 6113POPC   NC324143   0.478  29.910   9.450
 6113POPC   PO424144   0.399  29.884   9.150
 6113POPC   GL124145   0.402  29.916   8.850
 6113POPC   GL224146   0.312  30.003   8.850
 6113POPC   C1A24147   0.392  29.963   8.550
 6113POPC   D2A24148   0.435  29.927   8.250
 6113POPC   C3A24149   0.430  29.900   7.950
 6113POPC   C4A24150   0.408  29.872   7.650
 6113POPC   C1B24151   0.232  29.955   8.550
 6113POPC   C2B24152   0.227  29.938   8.250
 6113POPC   C3B24153   0.218  29.944   7.950
 6113POPC   C4B24154   0.219  29.962   7.650
 6114POPC   NC324155  35.377  23.688   9.450
 6114POPC   PO424156  35.374  23.746   9.150
 6114POPC   GL124157  35.365  23.710   8.850
 6114POPC   GL224158  35.326  23.610   8.850
 6114POPC   C1A24159  35.360  23.700   8.550
 6114POPC   D2A24160  35.377  23.755   8.250
 6114POPC   C3A24161  35.331  23.706   7.950
 6114POPC   C4A24162  35.324  23.728   7.650
 6114POPC   C1B24163  35.261  23.454   8.550
 6114POPC   C2B24164  35.232  23.483   8.250
 6114POPC   C3B24165  35.218  23.462   7.950
 6114POPC   C4B24166  35.228  23.466   7.650
 6115POPC   NC324167  18.263   8.147   9.450
 6115POPC   PO424168  18.247   8.150   9.150
 6115POPC   GL124169  18.251   8.159   8.850
 6115POPC   GL224170  18.309   8.280   8.850
 6115POPC   C1A24171  18.323   8.182   8.550
 6115POPC   D2A24172  18.242   8.155   8.250
 6115POPC   C3A24173  18.308   8.176   7.950
 6115POPC   C4A24174  18.317   8.187   7.650
 6115POPC   C1B24175  18.362   8.404   8.550
 6115POPC   C2B24176  18.332   8.458   8.250
 6115POPC   C3B24177  18.336   8.440   7.950
 6115POPC   C4B24178  18.353   8.431   7.650
 6116POPC   NC324179  39.993  35.360   9.450
 6116POPC   PO424180  39.998  35.363   9.150
 6116POPC   GL124181  40.023  35.320   8.850
 6116POPC   GL224182  40.148  35.316   8.850
 6116POPC   C1A24183  40.051  35.310   8.550
 6116POPC   D2A24184  40.006  35.305   8.250
 6116POPC   C3A24185  39.980  35.390   7.950
 6116POPC   C4A24186  40.032  35.350   7.650
 6116POPC   C1B24187  40.242  35.347   8.550
 6116POPC   C2B24188  40.217  35.371   8.250
 6116POPC   C3B24189  40.227  35.339   7.950
 6116POPC   C4B24190  40.252  35.334   7.650
 6117POPC   NC324191   1.957  40.797   9.450
 6117POPC   PO424192   2.009  40.773   9.150
 6117POPC   GL124193   2.028  40.820   8.850
 6117POPC   GL224194   2.034  40.695   8.850
 6117POPC   C1A24195   1.972  40.831   8.550
 6117POPC   D2A24196   1.948  40.750   8.250
 6117POPC   C3A24197   1.948  40.784   7.950
 6117POPC   C4A24198   2.016  40.808   7.650
 6117POPC   C1B24199   2.051  40.492   8.550
 6117POPC   C2B24200   1.982  40.565   8.250
 6117POPC   C3B24201   2.056  40.571   7.950
 6117POPC   C4B24202   1.974  40.522   7.650
 6118POPC   NC324203  25.229   8.188   9.450
 6118POPC   PO424204  25.270   8.223   9.150
 6118POPC   GL124205  25.243   8.199   8.850
 6118POPC   GL224206  25.113   8.133   8.850
 6118POPC   C1A24207  25.281   8.219   8.550
 6118POPC   D2A24208  25.216   8.244   8.250
 6118POPC   C3A24209  25.292   8.193   7.950
 6118POPC   C4A24210  25.238   8.174   7.650
 6118POPC   C1B24211  25.065   8.121   8.550
 6118POPC   C2B24212  25.019   8.159   8.250
 6118POPC   C3B24213  25.049   8.142   7.950
 6118POPC   C4B24214  25.058   8.149   7.650
 6119POPC   NC324215  36.080  26.808   9.450
 6119POPC   PO424216  36.097  26.782   9.150
 6119POPC   GL124217  36.173  26.833   8.850
 6119POPC   GL224218  36.135  26.901   8.850
 6119POPC   C1A24219  36.140  26.857   8.550
 6119POPC   D2A24220  36.154  26.857   8.250
 6119POPC   C3A24221  36.104  26.803   7.950
 6119POPC   C4A24222  36.119  26.858   7.650
 6119POPC   C1B24223  36.076  27.033   8.550
 6119POPC   C2B24224  36.045  27.027   8.250
 6119POPC   C3B24225  36.043  27.019   7.950
 6119POPC   C4B24226  36.048  27.098   7.650
 6120POPC   NC324227   3.516   8.184   9.450
 6120POPC   PO424228   3.558   8.200   9.150
 6120POPC   GL124229   3.534   8.225   8.850
 6120POPC   GL224230   3.498   8.076   8.850
 6120POPC   C1A24231   3.507   8.209   8.550
 6120POPC   D2A24232   3.579   8.217   8.250
 6120POPC   C3A24233   3.515   8.203   7.950
 6120POPC   C4A24234   3.558   8.184   7.650
 6120POPC   C1B24235   3.520   7.955   8.550
 6120POPC   C2B24236   3.555   7.976   8.250
 6120POPC   C3B24237   3.504   7.922   7.950
 6120POPC   C4B24238   3.528   7.923   7.650
 6121POPC   NC324239  22.125  37.630   9.450
 6121POPC   PO424240  22.202  37.701   9.150
 6121POPC   GL124241  22.152  37.661   8.850
 6121POPC   GL224242  22.185  37.615   8.850
 6121POPC   C1A24243  22.155  37.669   8.550
 6121POPC   D2A24244  22.144  37.675   8.250
 6121POPC   C3A24245  22.124  37.694   7.950
 6121POPC   C4A24246  22.125  37.712   7.650
 6121POPC   C1B24247  22.253  37.452   8.550
 6121POPC   C2B24248  22.244  37.425   8.250
 6121POPC   C3B24249  22.306  37.508   7.950
 6121POPC   C4B24250  22.308  37.439   7.650
 6122POPC   NC324251  20.614  22.939   9.450
 6122POPC   PO424252  20.615  22.921   9.150
 6122POPC   GL124253  20.603  22.890   8.850
 6122POPC   GL224254  20.503  23.030   8.850
 6122POPC   C1A24255  20.639  22.892   8.550
 6122POPC   D2A24256  20.634  22.895   8.250
 6122POPC   C3A24257  20.585  22.948   7.950
 6122POPC   C4A24258  20.564  22.944   7.650
 6122POPC   C1B24259  20.460  23.064   8.550
 6122POPC   C2B24260  20.414  23.092   8.250
 6122POPC   C3B24261  20.376  23.067   7.950
 6122POPC   C4B24262  20.424  23.046   7.650
 6123POPC   NC324263   2.800  33.772   9.450
 6123POPC   PO424264   2.736  33.775   9.150
 6123POPC   GL124265   2.738  33.809   8.850
 6123POPC   GL224266   2.861  33.741   8.850
 6123POPC   C1A24267   2.750  33.812   8.550
 6123POPC   D2A24268   2.771  33.780   8.250
 6123POPC   C3A24269   2.811  33.806   7.950
 6123POPC   C4A24270   2.748  33.781   7.650
 6123POPC   C1B24271   2.922  33.633   8.550
 6123POPC   C2B24272   2.925  33.600   8.250
 6123POPC   C3B24273   2.902  33.645   7.950
 6123POPC   C4B24274   2.963  33.664   7.650
 6124POPC   NC324275  12.062  26.072   9.450
 6124POPC   PO424276  12.094  26.020   9.150
 6124POPC   GL124277  12.071  26.012   8.850
 6124POPC   GL224278  12.106  26.120   8.850
 6124POPC   C1A24279  12.123  26.057   8.550
 6124POPC   D2A24280  12.084  26.057   8.250
 6124POPC   C3A24281  12.116  26.000   7.950
 6124POPC   C4A24282  12.117  26.090   7.650
 6124POPC   C1B24283  12.211  26.281   8.550
 6124POPC   C2B24284  12.195  26.278   8.250
 6124POPC   C3B24285  12.221  26.253   7.950
 6124POPC   C4B24286  12.225  26.278   7.650
 6125POPC   NC324287  39.232  15.906   9.450
 6125POPC   PO424288  39.227  15.993   9.150
 6125POPC   GL124289  39.265  15.939   8.850
 6125POPC   GL224290  39.315  16.073   8.850
 6125POPC   C1A24291  39.204  15.941   8.550
 6125POPC   D2A24292  39.190  15.990   8.250
 6125POPC   C3A24293  39.196  15.972   7.950
 6125POPC   C4A24294  39.261  15.994   7.650
 6125POPC   C1B24295  39.452  16.094   8.550
 6125POPC   C2B24296  39.403  16.113   8.250
 6125POPC   C3B24297  39.382  16.120   7.950
 6125POPC   C4B24298  39.369  16.143   7.650
 6126POPC   NC324299   2.024  33.056   9.450
 6126POPC   PO424300   2.035  33.048   9.150
 6126POPC   GL124301   1.967  33.007   8.850
 6126POPC   GL224302   2.010  32.885   8.850
 6126POPC   C1A24303   1.943  33.058   8.550
 6126POPC   D2A24304   1.996  33.006   8.250
 6126POPC   C3A24305   2.040  33.027   7.950
 6126POPC   C4A24306   2.024  32.994   7.650
 6126POPC   C1B24307   2.005  32.792   8.550
 6126POPC   C2B24308   2.040  32.769   8.250
 6126POPC   C3B24309   1.964  32.762   7.950
 6126POPC   C4B24310   2.033  32.783   7.650
 6127POPC   NC324311   0.437  16.766   9.450
 6127POPC   PO424312   0.466  16.693   9.150
 6127POPC   GL124313   0.465  16.758   8.850
 6127POPC   GL224314   0.292  16.748   8.850
 6127POPC   C1A24315   0.409  16.721   8.550
 6127POPC   D2A24316   0.468  16.750   8.250
 6127POPC   C3A24317   0.455  16.777   7.950
 6127POPC   C4A24318   0.402  16.771   7.650
 6127POPC   C1B24319   0.148  16.768   8.550
 6127POPC   C2B24320   0.206  16.792   8.250
 6127POPC   C3B24321   0.172  16.717   7.950
 6127POPC   C4B24322   0.154  16.715   7.650
 6128POPC   NC324323  38.458  43.901   9.450
 6128POPC   PO424324  38.444  43.867   9.150
 6128POPC   GL124325  38.463  43.893   8.850
 6128POPC   GL224326  38.553  43.984   8.850
 6128POPC   C1A24327  38.488  43.926   8.550
 6128POPC   D2A24328  38.486  43.860   8.250
 6128POPC   C3A24329  38.414  43.843   7.950
 6128POPC   C4A24330  38.413  43.859   7.650
 6128POPC   C1B24331  38.659  44.002   8.550
 6128POPC   C2B24332  38.632  43.996   8.250
 6128POPC   C3B24333  38.667  44.026   7.950
 6128POPC   C4B24334  38.652  44.075   7.650
 6129POPC   NC324335   2.743  31.423   9.450
 6129POPC   PO424336   2.811  31.482   9.150
 6129POPC   GL124337   2.730  31.435   8.850
 6129POPC   GL224338   2.668  31.445   8.850
 6129POPC   C1A24339   2.796  31.495   8.550
 6129POPC   D2A24340   2.757  31.511   8.250
 6129POPC   C3A24341   2.767  31.476   7.950
 6129POPC   C4A24342   2.776  31.520   7.650
 6129POPC   C1B24343   2.577  31.384   8.550
 6129POPC   C2B24344   2.517  31.313   8.250
 6129POPC   C3B24345   2.596  31.356   7.950
 6129POPC   C4B24346   2.524  31.366   7.650
 6130POPC   NC324347  27.610   4.360   9.450
 6130POPC   PO424348  27.592   4.326   9.150
 6130POPC   GL124349  27.606   4.354   8.850
 6130POPC   GL224350  27.633   4.186   8.850
 6130POPC   C1A24351  27.587   4.315   8.550
 6130POPC   D2A24352  27.606   4.293   8.250
 6130POPC   C3A24353  27.604   4.290   7.950
 6130POPC   C4A24354  27.624   4.300   7.650
 6130POPC   C1B24355  27.598   4.070   8.550
 6130POPC   C2B24356  27.658   4.112   8.250
 6130POPC   C3B24357  27.585   4.088   7.950
 6130POPC   C4B24358  27.599   4.108   7.650
 6131POPC   NC324359  32.214  31.481   9.450
 6131POPC   PO424360  32.216  31.519   9.150
 6131POPC   GL124361  32.241  31.483   8.850
 6131POPC   GL224362  32.317  31.313   8.850
 6131POPC   C1A24363  32.257  31.466   8.550
 6131POPC   D2A24364  32.287  31.462   8.250
 6131POPC   C3A24365  32.216  31.492   7.950
 6131POPC   C4A24366  32.231  31.517   7.650
 6131POPC   C1B24367  32.338  31.252   8.550
 6131POPC   C2B24368  32.312  31.259   8.250
 6131POPC   C3B24369  32.345  31.187   7.950
 6131POPC   C4B24370  32.331  31.266   7.650
 6132POPC   NC324371  19.864  18.248   9.450
 6132POPC   PO424372  19.817  18.294   9.150
 6132POPC   GL124373  19.838  18.316   8.850
 6132POPC   GL224374  19.693  18.339   8.850
 6132POPC   C1A24375  19.832  18.249   8.550
 6132POPC   D2A24376  19.846  18.315   8.250
 6132POPC   C3A24377  19.820  18.284   7.950
 6132POPC   C4A24378  19.796  18.260   7.650
 6132POPC   C1B24379  19.588  18.337   8.550
 6132POPC   C2B24380  19.637  18.324   8.250
 6132POPC   C3B24381  19.645  18.363   7.950
 6132POPC   C4B24382  19.570  18.325   7.650
 6133POPC   NC324383  29.925  36.157   9.450
 6133POPC   PO424384  29.968  36.137   9.150
 6133POPC   GL124385  29.964  36.112   8.850
 6133POPC   GL224386  30.017  36.148   8.850
 6133POPC   C1A24387  29.924  36.165   8.550
 6133POPC   D2A24388  29.920  36.172   8.250
 6133POPC   C3A24389  29.933  36.081   7.950
 6133POPC   C4A24390  29.968  36.107   7.650
 6133POPC   C1B24391  30.151  36.197   8.550
 6133POPC   C2B24392  30.112  36.285   8.250
 6133POPC   C3B24393  30.183  36.272   7.950
 6133POPC   C4B24394  30.133  36.253   7.650
 6134POPC   NC324395   2.013   5.824   9.450
 6134POPC   PO424396   2.000   5.860   9.150
 6134POPC   GL124397   1.983   5.880   8.850
 6134POPC   GL224398   1.864   5.791   8.850
 6134POPC   C1A24399   1.978   5.855   8.550
 6134POPC   D2A24400   1.962   5.825   8.250
 6134POPC   C3A24401   2.004   5.891   7.950
 6134POPC   C4A24402   1.964   5.823   7.650
 6134POPC   C1B24403   1.751   5.777   8.550
 6134POPC   C2B24404   1.783   5.753   8.250
 6134POPC   C3B24405   1.773   5.791   7.950
 6134POPC   C4B24406   1.734   5.822   7.650
 6135POPC   NC324407  36.868  34.575   9.450
 6135POPC   PO424408  36.945  34.566   9.150
 6135POPC   GL124409  36.912  34.590   8.850
 6135POPC   GL224410  36.762  34.531   8.850
 6135POPC   C1A24411  36.890  34.538   8.550
 6135POPC   D2A24412  36.905  34.527   8.250
 6135POPC   C3A24413  36.867  34.564   7.950
 6135POPC   C4A24414  36.886  34.617   7.650
 6135POPC   C1B24415  36.727  34.476   8.550
 6135POPC   C2B24416  36.704  34.420   8.250
 6135POPC   C3B24417  36.700  34.412   7.950
 6135POPC   C4B24418  36.642  34.495   7.650
 6136POPC   NC324419  34.602  29.880   9.450
 6136POPC   PO424420  34.551  29.900   9.150
 6136POPC   GL124421  34.542  29.959   8.850
 6136POPC   GL224422  34.674  29.946   8.850
 6136POPC   C1A24423  34.536  29.877   8.550
 6136POPC   D2A24424  34.549  29.905   8.250
 6136POPC   C3A24425  34.595  29.936   7.950
 6136POPC   C4A24426  34.568  29.944   7.650
 6136POPC   C1B24427  34.859  29.938   8.550
 6136POPC   C2B24428  34.787  30.003   8.250
 6136POPC   C3B24429  34.845  29.913   7.950
 6136POPC   C4B24430  34.843  29.930   7.650
 6137POPC   NC324431  43.147  37.638   9.450
 6137POPC   PO424432  43.110  37.645   9.150
 6137POPC   GL124433  43.073  37.722   8.850
 6137POPC   GL224434  43.244  37.687   8.850
 6137POPC   C1A24435  43.118  37.663   8.550
 6137POPC   D2A24436  43.120  37.686   8.250
 6137POPC   C3A24437  43.096  37.658   7.950
 6137POPC   C4A24438  43.072  37.699   7.650
 6137POPC   C1B24439  43.329  37.642   8.550
 6137POPC   C2B24440  43.376  37.599   8.250
 6137POPC   C3B24441  43.380  37.678   7.950
 6137POPC   C4B24442  43.388  37.680   7.650
 6138POPC   NC324443  12.886  29.123   9.450
 6138POPC   PO424444  12.899  29.186   9.150
 6138POPC   GL124445  12.827  29.136   8.850
 6138POPC   GL224446  12.996  29.129   8.850
 6138POPC   C1A24447  12.829  29.143   8.550
 6138POPC   D2A24448  12.897  29.118   8.250
 6138POPC   C3A24449  12.862  29.100   7.950
 6138POPC   C4A24450  12.880  29.142   7.650
 6138POPC   C1B24451  13.135  29.101   8.550
 6138POPC   C2B24452  13.096  29.062   8.250
 6138POPC   C3B24453  13.127  29.094   7.950
 6138POPC   C4B24454  13.110  29.042   7.650
 6139POPC   NC324455  43.140  27.634   9.450
 6139POPC   PO424456  43.126  27.596   9.150
 6139POPC   GL124457  43.086  27.628   8.850
 6139POPC   GL224458  43.066  27.659   8.850
 6139POPC   C1A24459  43.093  27.643   8.550
 6139POPC   D2A24460  43.115  27.594   8.250
 6139POPC   C3A24461  43.125  27.640   7.950
 6139POPC   C4A24462  43.080  27.590   7.650
 6139POPC   C1B24463  42.947  27.787   8.550
 6139POPC   C2B24464  42.934  27.739   8.250
 6139POPC   C3B24465  42.907  27.784   7.950
 6139POPC   C4B24466  42.950  27.772   7.650
 6140POPC   NC324467  30.673  28.371   9.450
 6140POPC   PO424468  30.682  28.382   9.150
 6140POPC   GL124469  30.714  28.413   8.850
 6140POPC   GL224470  30.693  28.214   8.850
 6140POPC   C1A24471  30.716  28.398   8.550
 6140POPC   D2A24472  30.714  28.353   8.250
 6140POPC   C3A24473  30.743  28.405   7.950
 6140POPC   C4A24474  30.684  28.409   7.650
 6140POPC   C1B24475  30.646  28.167   8.550
 6140POPC   C2B24476  30.679  28.146   8.250
 6140POPC   C3B24477  30.685  28.141   7.950
 6140POPC   C4B24478  30.675  28.105   7.650
 6141POPC   NC324479  26.825  37.631   9.450
 6141POPC   PO424480  26.812  37.662   9.150
 6141POPC   GL124481  26.841  37.707   8.850
 6141POPC   GL224482  26.727  37.560   8.850
 6141POPC   C1A24483  26.850  37.703   8.550
 6141POPC   D2A24484  26.785  37.638   8.250
 6141POPC   C3A24485  26.811  37.696   7.950
 6141POPC   C4A24486  26.771  37.703   7.650
 6141POPC   C1B24487  26.690  37.432   8.550
 6141POPC   C2B24488  26.749  37.500   8.250
 6141POPC   C3B24489  26.697  37.407   7.950
 6141POPC   C4B24490  26.724  37.433   7.650
 6142POPC   NC324491  35.356  44.661   9.450
 6142POPC   PO424492  35.305  44.711   9.150
 6142POPC   GL124493  35.377  44.649   8.850
 6142POPC   GL224494  35.406  44.521   8.850
 6142POPC   C1A24495  35.317  44.660   8.550
 6142POPC   D2A24496  35.324  44.638   8.250
 6142POPC   C3A24497  35.328  44.636   7.950
 6142POPC   C4A24498  35.302  44.643   7.650
 6142POPC   C1B24499  35.425  44.423   8.550
 6142POPC   C2B24500  35.448  44.465   8.250
 6142POPC   C3B24501  35.440  44.405   7.950
 6142POPC   C4B24502  35.457  44.410   7.650
 6143POPC   NC324503  34.567  31.491   9.450
 6143POPC   PO424504  34.593  31.500   9.150
 6143POPC   GL124505  34.536  31.501   8.850
 6143POPC   GL224506  34.475  31.455   8.850
 6143POPC   C1A24507  34.605  31.469   8.550
 6143POPC   D2A24508  34.558  31.459   8.250
 6143POPC   C3A24509  34.619  31.520   7.950
 6143POPC   C4A24510  34.575  31.449   7.650
 6143POPC   C1B24511  34.367  31.357   8.550
 6143POPC   C2B24512  34.364  31.375   8.250
 6143POPC   C3B24513  34.308  31.380   7.950
 6143POPC   C4B24514  34.362  31.349   7.650
 6144POPC   NC324515  22.957   9.723   9.450
 6144POPC   PO424516  22.968   9.700   9.150
 6144POPC   GL124517  22.937   9.746   8.850
 6144POPC   GL224518  22.879   9.909   8.850
 6144POPC   C1A24519  22.949   9.798   8.550
 6144POPC   D2A24520  22.958   9.784   8.250
 6144POPC   C3A24521  22.903   9.750   7.950
 6144POPC   C4A24522  22.919   9.709   7.650
 6144POPC   C1B24523  22.937   9.948   8.550
 6144POPC   C2B24524  22.892   9.995   8.250
 6144POPC   C3B24525  22.924   9.970   7.950
 6144POPC   C4B24526  22.930   9.962   7.650
 6145POPC   NC324527  37.650  19.845   9.450
 6145POPC   PO424528  37.659  19.790   9.150
 6145POPC   GL124529  37.686  19.847   8.850
 6145POPC   GL224530  37.802  19.788   8.850
 6145POPC   C1A24531  37.673  19.861   8.550
 6145POPC   D2A24532  37.669  19.817   8.250
 6145POPC   C3A24533  37.707  19.882   7.950
 6145POPC   C4A24534  37.696  19.818   7.650
 6145POPC   C1B24535  37.959  19.695   8.550
 6145POPC   C2B24536  37.927  19.746   8.250
 6145POPC   C3B24537  37.868  19.732   7.950
 6145POPC   C4B24538  37.916  19.788   7.650
 6146POPC   NC324539   9.736  42.382   9.450
 6146POPC   PO424540   9.793  42.358   9.150
 6146POPC   GL124541   9.698  42.325   8.850
 6146POPC   GL224542   9.645  42.427   8.850
 6146POPC   C1A24543   9.698  42.384   8.550
 6146POPC   D2A24544   9.728  42.318   8.250
 6146POPC   C3A24545   9.770  42.365   7.950
 6146POPC   C4A24546   9.729  42.382   7.650
 6146POPC   C1B24547   9.596  42.512   8.550
 6146POPC   C2B24548   9.560  42.529   8.250
 6146POPC   C3B24549   9.535  42.501   7.950
 6146POPC   C4B24550   9.608  42.473   7.650
 6147POPC   NC324551  40.772  24.475   9.450
 6147POPC   PO424552  40.820  24.451   9.150
 6147POPC   GL124553  40.745  24.535   8.850
 6147POPC   GL224554  40.741  24.605   8.850
 6147POPC   C1A24555  40.754  24.516   8.550
 6147POPC   D2A24556  40.799  24.503   8.250
 6147POPC   C3A24557  40.812  24.447   7.950
 6147POPC   C4A24558  40.733  24.503   7.650
 6147POPC   C1B24559  40.574  24.700   8.550
 6147POPC   C2B24560  40.604  24.644   8.250
 6147POPC   C3B24561  40.615  24.684   7.950
 6147POPC   C4B24562  40.559  24.680   7.650
 6148POPC   NC324563  36.114  19.023   9.450
 6148POPC   PO424564  36.152  19.082   9.150
 6148POPC   GL124565  36.102  19.085   8.850
 6148POPC   GL224566  36.296  19.056   8.850
 6148POPC   C1A24567  36.090  19.100   8.550
 6148POPC   D2A24568  36.087  19.104   8.250
 6148POPC   C3A24569  36.078  19.051   7.950
 6148POPC   C4A24570  36.151  19.045   7.650
 6148POPC   C1B24571  36.368  19.008   8.550
 6148POPC   C2B24572  36.357  19.023   8.250
 6148POPC   C3B24573  36.379  18.954   7.950
 6148POPC   C4B24574  36.336  18.966   7.650
 6149POPC   NC324575  12.827   2.757   9.450
 6149POPC   PO424576  12.834   2.750   9.150
 6149POPC   GL124577  12.894   2.722   8.850
 6149POPC   GL224578  12.871   2.895   8.850
 6149POPC   C1A24579  12.849   2.744   8.550
 6149POPC   D2A24580  12.901   2.770   8.250
 6149POPC   C3A24581  12.828   2.808   7.950
 6149POPC   C4A24582  12.887   2.761   7.650
 6149POPC   C1B24583  12.863   2.968   8.550
 6149POPC   C2B24584  12.872   2.964   8.250
 6149POPC   C3B24585  12.854   3.034   7.950
 6149POPC   C4B24586  12.917   3.049   7.650
 6150POPC   NC324587  33.828  30.699   9.450
 6150POPC   PO424588  33.812  30.707   9.150
 6150POPC   GL124589  33.755  30.721   8.850
 6150POPC   GL224590  33.877  30.629   8.850
 6150POPC   C1A24591  33.761  30.667   8.550
 6150POPC   D2A24592  33.791  30.730   8.250
 6150POPC   C3A24593  33.771  30.731   7.950
 6150POPC   C4A24594  33.802  30.661   7.650
 6150POPC   C1B24595  33.964  30.521   8.550
 6150POPC   C2B24596  33.970  30.514   8.250
 6150POPC   C3B24597  33.960  30.539   7.950
 6150POPC   C4B24598  34.006  30.534   7.650
 6151POPC   NC324599  29.168  15.221   9.450
 6151POPC   PO424600  29.120  15.129   9.150
 6151POPC   GL124601  29.114  15.208   8.850
 6151POPC   GL224602  29.243  15.126   8.850
 6151POPC   C1A24603  29.153  15.163   8.550
 6151POPC   D2A24604  29.171  15.202   8.250
 6151POPC   C3A24605  29.173  15.143   7.950
 6151POPC   C4A24606  29.154  15.158   7.650
 6151POPC   C1B24607  29.400  15.188   8.550
 6151POPC   C2B24608  29.407  15.179   8.250
 6151POPC   C3B24609  29.392  15.172   7.950
 6151POPC   C4B24610  29.410  15.177   7.650
 6152POPC   NC324611  41.512  42.319   9.450
 6152POPC   PO424612  41.533  42.328   9.150
 6152POPC   GL124613  41.534  42.330   8.850
 6152POPC   GL224614  41.719  42.393   8.850
 6152POPC   C1A24615  41.561  42.366   8.550
 6152POPC   D2A24616  41.567  42.309   8.250
 6152POPC   C3A24617  41.604  42.305   7.950
 6152POPC   C4A24618  41.567  42.371   7.650
 6152POPC   C1B24619  41.775  42.481   8.550
 6152POPC   C2B24620  41.780  42.450   8.250
 6152POPC   C3B24621  41.792  42.393   7.950
 6152POPC   C4B24622  41.825  42.416   7.650
 6153POPC   NC324623  25.291  39.204   9.450
 6153POPC   PO424624  25.252  39.270   9.150
 6153POPC   GL124625  25.250  39.243   8.850
 6153POPC   GL224626  25.352  39.114   8.850
 6153POPC   C1A24627  25.303  39.233   8.550
 6153POPC   D2A24628  25.296  39.182   8.250
 6153POPC   C3A24629  25.230  39.201   7.950
 6153POPC   C4A24630  25.237  39.233   7.650
 6153POPC   C1B24631  25.422  39.026   8.550
 6153POPC   C2B24632  25.383  38.981   8.250
 6153POPC   C3B24633  25.374  39.061   7.950
 6153POPC   C4B24634  25.408  39.023   7.650
 6154POPC   NC324635  30.672  14.375   9.450
 6154POPC   PO424636  30.680  14.381   9.150
 6154POPC   GL124637  30.708  14.389   8.850
 6154POPC   GL224638  30.734  14.558   8.850
 6154POPC   C1A24639  30.647  14.367   8.550
 6154POPC   D2A24640  30.713  14.381   8.250
 6154POPC   C3A24641  30.721  14.449   7.950
 6154POPC   C4A24642  30.670  14.354   7.650
 6154POPC   C1B24643  30.709  14.656   8.550
 6154POPC   C2B24644  30.698  14.612   8.250
 6154POPC   C3B24645  30.679  14.630   7.950
 6154POPC   C4B24646  30.754  14.679   7.650
 6155POPC   NC324647  26.817  15.976   9.450
 6155POPC   PO424648  26.786  15.914   9.150
 6155POPC   GL124649  26.846  15.992   8.850
 6155POPC   GL224650  26.894  16.090   8.850
 6155POPC   C1A24651  26.855  15.964   8.550
 6155POPC   D2A24652  26.812  15.984   8.250
 6155POPC   C3A24653  26.859  15.994   7.950
 6155POPC   C4A24654  26.832  15.983   7.650
 6155POPC   C1B24655  26.915  16.143   8.550
 6155POPC   C2B24656  26.971  16.156   8.250
 6155POPC   C3B24657  26.925  16.187   7.950
 6155POPC   C4B24658  26.907  16.172   7.650
 6156POPC   NC324659   7.379  18.263   9.450
 6156POPC   PO424660   7.415  18.239   9.150
 6156POPC   GL124661   7.403  18.242   8.850
 6156POPC   GL224662   7.406  18.403   8.850
 6156POPC   C1A24663   7.382  18.321   8.550
 6156POPC   D2A24664   7.408  18.319   8.250
 6156POPC   C3A24665   7.456  18.280   7.950
 6156POPC   C4A24666   7.405  18.244   7.650
 6156POPC   C1B24667   7.355  18.566   8.550
 6156POPC   C2B24668   7.377  18.507   8.250
 6156POPC   C3B24669   7.328  18.486   7.950
 6156POPC   C4B24670   7.290  18.534   7.650
 6157POPC   NC324671   2.747   0.419   9.450
 6157POPC   PO424672   2.785   0.432   9.150
 6157POPC   GL124673   2.772   0.430   8.850
 6157POPC   GL224674   2.772   0.267   8.850
 6157POPC   C1A24675   2.725   0.481   8.550
 6157POPC   D2A24676   2.734   0.449   8.250
 6157POPC   C3A24677   2.724   0.447   7.950
 6157POPC   C4A24678   2.738   0.403   7.650
 6157POPC   C1B24679   2.719   0.233   8.550
 6157POPC   C2B24680   2.734   0.233   8.250
 6157POPC   C3B24681   2.750   0.226   7.950
 6157POPC   C4B24682   2.750   0.144   7.650
 6158POPC   NC324683  43.868   9.719   9.450
 6158POPC   PO424684  43.860   9.719   9.150
 6158POPC   GL124685  43.890   9.774   8.850
 6158POPC   GL224686  43.770   9.770   8.850
 6158POPC   C1A24687  43.915   9.761   8.550
 6158POPC   D2A24688  43.899   9.704   8.250
 6158POPC   C3A24689  43.912   9.729   7.950
 6158POPC   C4A24690  43.896   9.765   7.650
 6158POPC   C1B24691  43.630   9.676   8.550
 6158POPC   C2B24692  43.602   9.675   8.250
 6158POPC   C3B24693  43.658   9.744   7.950
 6158POPC   C4B24694  43.669   9.672   7.650
 6159POPC   NC324695  39.249  22.975   9.450
 6159POPC   PO424696  39.235  22.890   9.150
 6159POPC   GL124697  39.187  22.975   8.850
 6159POPC   GL224698  39.302  23.015   8.850
 6159POPC   C1A24699  39.237  22.916   8.550
 6159POPC   D2A24700  39.246  22.959   8.250
 6159POPC   C3A24701  39.243  22.921   7.950
 6159POPC   C4A24702  39.198  22.956   7.650
 6159POPC   C1B24703  39.446  23.088   8.550
 6159POPC   C2B24704  39.479  23.055   8.250
 6159POPC   C3B24705  39.496  23.007   7.950
 6159POPC   C4B24706  39.409  23.028   7.650
 6160POPC   NC324707  14.444  39.278   9.450
 6160POPC   PO424708  14.367  39.197   9.150
 6160POPC   GL124709  14.447  39.238   8.850
 6160POPC   GL224710  14.529  39.311   8.850
 6160POPC   C1A24711  14.386  39.260   8.550
 6160POPC   D2A24712  14.407  39.184   8.250
 6160POPC   C3A24713  14.420  39.205   7.950
 6160POPC   C4A24714  14.395  39.268   7.650
 6160POPC   C1B24715  14.595  39.307   8.550
 6160POPC   C2B24716  14.669  39.261   8.250
 6160POPC   C3B24717  14.644  39.301   7.950
 6160POPC   C4B24718  14.671  39.296   7.650
 6161POPC   NC324719  29.871  14.383   9.450
 6161POPC   PO424720  29.919  14.420   9.150
 6161POPC   GL124721  29.919  14.368   8.850
 6161POPC   GL224722  29.913  14.286   8.850
 6161POPC   C1A24723  29.922  14.375   8.550
 6161POPC   D2A24724  29.877  14.430   8.250
 6161POPC   C3A24725  29.880  14.428   7.950
 6161POPC   C4A24726  29.951  14.415   7.650
 6161POPC   C1B24727  29.835  14.137   8.550
 6161POPC   C2B24728  29.792  14.215   8.250
 6161POPC   C3B24729  29.828  14.149   7.950
 6161POPC   C4B24730  29.832  14.204   7.650
 6162POPC   NC324731   3.542  33.005   9.450
 6162POPC   PO424732   3.506  33.048   9.150
 6162POPC   GL124733   3.546  33.059   8.850
 6162POPC   GL224734   3.552  32.882   8.850
 6162POPC   C1A24735   3.513  33.025   8.550
 6162POPC   D2A24736   3.556  33.067   8.250
 6162POPC   C3A24737   3.565  33.060   7.950
 6162POPC   C4A24738   3.527  33.039   7.650
 6162POPC   C1B24739   3.452  32.767   8.550
 6162POPC   C2B24740   3.463  32.794   8.250
 6162POPC   C3B24741   3.484  32.793   7.950
 6162POPC   C4B24742   3.457  32.820   7.650
 6163POPC   NC324743  20.647  22.187   9.450
 6163POPC   PO424744  20.651  22.211   9.150
 6163POPC   GL124745  20.566  22.145   8.850
 6163POPC   GL224746  20.517  22.056   8.850
 6163POPC   C1A24747  20.657  22.138   8.550
 6163POPC   D2A24748  20.652  22.189   8.250
 6163POPC   C3A24749  20.617  22.165   7.950
 6163POPC   C4A24750  20.561  22.117   7.650
 6163POPC   C1B24751  20.458  21.976   8.550
 6163POPC   C2B24752  20.404  21.982   8.250
 6163POPC   C3B24753  20.406  21.969   7.950
 6163POPC   C4B24754  20.450  21.960   7.650
 6164POPC   NC324755  33.763  32.240   9.450
 6164POPC   PO424756  33.753  32.267   9.150
 6164POPC   GL124757  33.841  32.294   8.850
 6164POPC   GL224758  33.885  32.226   8.850
 6164POPC   C1A24759  33.840  32.288   8.550
 6164POPC   D2A24760  33.801  32.287   8.250
 6164POPC   C3A24761  33.764  32.240   7.950
 6164POPC   C4A24762  33.765  32.265   7.650
 6164POPC   C1B24763  34.057  32.157   8.550
 6164POPC   C2B24764  34.026  32.134   8.250
 6164POPC   C3B24765  34.019  32.110   7.950
 6164POPC   C4B24766  34.061  32.106   7.650
 6165POPC   NC324767   7.421  14.410   9.450
 6165POPC   PO424768   7.407  14.429   9.150
 6165POPC   GL124769   7.405  14.384   8.850
 6165POPC   GL224770   7.413  14.245   8.850
 6165POPC   C1A24771   7.387  14.372   8.550
 6165POPC   D2A24772   7.418  14.358   8.250
 6165POPC   C3A24773   7.405  14.385   7.950
 6165POPC   C4A24774   7.451  14.372   7.650
 6165POPC   C1B24775   7.334  14.147   8.550
 6165POPC   C2B24776   7.353  14.218   8.250
 6165POPC   C3B24777   7.268  14.187   7.950
 6165POPC   C4B24778   7.289  14.205   7.650
 6166POPC   NC324779  10.538  29.872   9.450
 6166POPC   PO424780  10.537  29.914   9.150
 6166POPC   GL124781  10.479  29.935   8.850
 6166POPC   GL224782  10.461  30.002   8.850
 6166POPC   C1A24783  10.561  29.955   8.550
 6166POPC   D2A24784  10.496  29.886   8.250
 6166POPC   C3A24785  10.574  29.910   7.950
 6166POPC   C4A24786  10.499  29.941   7.650
 6166POPC   C1B24787  10.431  30.182   8.550
 6166POPC   C2B24788  10.432  30.136   8.250
 6166POPC   C3B24789  10.451  30.102   7.950
 6166POPC   C4B24790  10.405  30.160   7.650
 6167POPC   NC324791  23.731  29.121   9.450
 6167POPC   PO424792  23.668  29.102   9.150
 6167POPC   GL124793  23.677  29.175   8.850
 6167POPC   GL224794  23.701  29.021   8.850
 6167POPC   C1A24795  23.745  29.121   8.550
 6167POPC   D2A24796  23.737  29.161   8.250
 6167POPC   C3A24797  23.729  29.127   7.950
 6167POPC   C4A24798  23.743  29.127   7.650
 6167POPC   C1B24799  23.633  28.897   8.550
 6167POPC   C2B24800  23.710  28.885   8.250
 6167POPC   C3B24801  23.697  28.878   7.950
 6167POPC   C4B24802  23.700  28.919   7.650
 6168POPC   NC324803  15.986  10.555   9.450
 6168POPC   PO424804  15.948  10.486   9.150
 6168POPC   GL124805  15.931  10.545   8.850
 6168POPC   GL224806  16.007  10.617   8.850
 6168POPC   C1A24807  15.997  10.487   8.550
 6168POPC   D2A24808  15.974  10.485   8.250
 6168POPC   C3A24809  15.974  10.530   7.950
 6168POPC   C4A24810  15.944  10.485   7.650
 6168POPC   C1B24811  16.135  10.723   8.550
 6168POPC   C2B24812  16.082  10.725   8.250
 6168POPC   C3B24813  16.159  10.740   7.950
 6168POPC   C4B24814  16.130  10.685   7.650
 6169POPC   NC324815  11.315  28.357   9.450
 6169POPC   PO424816  11.306  28.327   9.150
 6169POPC   GL124817  11.311  28.321   8.850
 6169POPC   GL224818  11.378  28.400   8.850
 6169POPC   C1A24819  11.277  28.339   8.550
 6169POPC   D2A24820  11.255  28.352   8.250
 6169POPC   C3A24821  11.311  28.367   7.950
 6169POPC   C4A24822  11.298  28.358   7.650
 6169POPC   C1B24823  11.522  28.557   8.550
 6169POPC   C2B24824  11.528  28.490   8.250
 6169POPC   C3B24825  11.492  28.529   7.950
 6169POPC   C4B24826  11.531  28.547   7.650
 6170POPC   NC324827  32.280  11.290   9.450
 6170POPC   PO424828  32.279  11.252   9.150
 6170POPC   GL124829  32.294  11.318   8.850
 6170POPC   GL224830  32.165  11.361   8.850
 6170POPC   C1A24831  32.292  11.337   8.550
 6170POPC   D2A24832  32.243  11.337   8.250
 6170POPC   C3A24833  32.256  11.321   7.950
 6170POPC   C4A24834  32.228  11.332   7.650
 6170POPC   C1B24835  32.034  11.326   8.550
 6170POPC   C2B24836  32.034  11.390   8.250
 6170POPC   C3B24837  32.025  11.301   7.950
 6170POPC   C4B24838  32.031  11.378   7.650
 6171POPC   NC324839  44.628  26.847   9.450
 6171POPC   PO424840  44.634  26.787   9.150
 6171POPC   GL124841  44.644  26.779   8.850
 6171POPC   GL224842  44.755  26.973   8.850
 6171POPC   C1A24843  44.623  26.809   8.550
 6171POPC   D2A24844  44.707  26.815   8.250
 6171POPC   C3A24845  44.619  26.768   7.950
 6171POPC   C4A24846  44.623  26.860   7.650
 6171POPC   C1B24847  44.744  27.041   8.550
 6171POPC   C2B24848  44.766  27.068   8.250
 6171POPC   C3B24849  44.750  27.091   7.950
 6171POPC   C4B24850  44.737  27.014   7.650
 6172POPC   NC324851  10.477  42.293   9.450
 6172POPC   PO424852  10.552  42.322   9.150
 6172POPC   GL124853  10.475  42.356   8.850
 6172POPC   GL224854  10.646  42.347   8.850
 6172POPC   C1A24855  10.555  42.291   8.550
 6172POPC   D2A24856  10.540  42.313   8.250
 6172POPC   C3A24857  10.501  42.318   7.950
 6172POPC   C4A24858  10.542  42.323   7.650
 6172POPC   C1B24859  10.804  42.304   8.550
 6172POPC   C2B24860  10.788  42.374   8.250
 6172POPC   C3B24861  10.776  42.373   7.950
 6172POPC   C4B24862  10.731  42.314   7.650
 6173POPC   NC324863  36.889  14.413   9.450
 6173POPC   PO424864  36.949  14.372   9.150
 6173POPC   GL124865  36.938  14.361   8.850
 6173POPC   GL224866  36.908  14.269   8.850
 6173POPC   C1A24867  36.916  14.372   8.550
 6173POPC   D2A24868  36.859  14.438   8.250
 6173POPC   C3A24869  36.922  14.394   7.950
 6173POPC   C4A24870  36.859  14.376   7.650
 6173POPC   C1B24871  36.947  14.209   8.550
 6173POPC   C2B24872  36.999  14.156   8.250
 6173POPC   C3B24873  36.967  14.176   7.950
 6173POPC   C4B24874  36.984  14.142   7.650
 6174POPC   NC324875  42.340  13.603   9.450
 6174POPC   PO424876  42.313  13.655   9.150
 6174POPC   GL124877  42.319  13.636   8.850
 6174POPC   GL224878  42.249  13.545   8.850
 6174POPC   C1A24879  42.290  13.663   8.550
 6174POPC   D2A24880  42.381  13.676   8.250
 6174POPC   C3A24881  42.323  13.658   7.950
 6174POPC   C4A24882  42.314  13.579   7.650
 6174POPC   C1B24883  42.156  13.414   8.550
 6174POPC   C2B24884  42.229  13.443   8.250
 6174POPC   C3B24885  42.244  13.429   7.950
 6174POPC   C4B24886  42.224  13.389   7.650
 6175POPC   NC324887  13.605  29.906   9.450
 6175POPC   PO424888  13.647  29.884   9.150
 6175POPC   GL124889  13.625  29.871   8.850
 6175POPC   GL224890  13.763  29.930   8.850
 6175POPC   C1A24891  13.603  29.954   8.550
 6175POPC   D2A24892  13.591  29.927   8.250
 6175POPC   C3A24893  13.581  29.884   7.950
 6175POPC   C4A24894  13.621  29.924   7.650
 6175POPC   C1B24895  13.832  29.845   8.550
 6175POPC   C2B24896  13.836  29.885   8.250
 6175POPC   C3B24897  13.836  29.823   7.950
 6175POPC   C4B24898  13.862  29.897   7.650
 6176POPC   NC324899  42.302  36.104   9.450
 6176POPC   PO424900  42.341  36.163   9.150
 6176POPC   GL124901  42.339  36.117   8.850
 6176POPC   GL224902  42.337  35.989   8.850
 6176POPC   C1A24903  42.363  36.084   8.550
 6176POPC   D2A24904  42.384  36.139   8.250
 6176POPC   C3A24905  42.379  36.085   7.950
 6176POPC   C4A24906  42.302  36.102   7.650
 6176POPC   C1B24907  42.477  35.887   8.550
 6176POPC   C2B24908  42.480  35.863   8.250
 6176POPC   C3B24909  42.402  35.896   7.950
 6176POPC   C4B24910  42.438  35.880   7.650
 6177POPC   NC324911  15.197   2.783   9.450
 6177POPC   PO424912  15.192   2.813   9.150
 6177POPC   GL124913  15.162   2.798   8.850
 6177POPC   GL224914  15.114   2.678   8.850
 6177POPC   C1A24915  15.149   2.779   8.550
 6177POPC   D2A24916  15.204   2.802   8.250
 6177POPC   C3A24917  15.165   2.762   7.950
 6177POPC   C4A24918  15.155   2.763   7.650
 6177POPC   C1B24919  14.945   2.572   8.550
 6177POPC   C2B24920  14.942   2.609   8.250
 6177POPC   C3B24921  14.953   2.569   7.950
 6177POPC   C4B24922  14.993   2.574   7.650
 6178POPC   NC324923  19.856  13.585   9.450
 6178POPC   PO424924  19.797  13.641   9.150
 6178POPC   GL124925  19.823  13.638   8.850
 6178POPC   GL224926  19.920  13.505   8.850
 6178POPC   C1A24927  19.800  13.657   8.550
 6178POPC   D2A24928  19.842  13.584   8.250
 6178POPC   C3A24929  19.821  13.643   7.950
 6178POPC   C4A24930  19.790  13.579   7.650
 6178POPC   C1B24931  19.913  13.371   8.550
 6178POPC   C2B24932  19.959  13.346   8.250
 6178POPC   C3B24933  19.959  13.380   7.950
 6178POPC   C4B24934  19.910  13.357   7.650
 6179POPC   NC324935   8.174  22.916   9.450
 6179POPC   PO424936   8.246  22.958   9.150
 6179POPC   GL124937   8.206  22.982   8.850
 6179POPC   GL224938   8.353  22.969   8.850
 6179POPC   C1A24939   8.240  22.930   8.550
 6179POPC   D2A24940   8.240  22.971   8.250
 6179POPC   C3A24941   8.188  22.961   7.950
 6179POPC   C4A24942   8.163  22.957   7.650
 6179POPC   C1B24943   8.457  22.909   8.550
 6179POPC   C2B24944   8.458  22.921   8.250
 6179POPC   C3B24945   8.472  22.933   7.950
 6179POPC   C4B24946   8.396  22.867   7.650
 6180POPC   NC324947  39.247   4.285   9.450
 6180POPC   PO424948  39.217   4.298   9.150
 6180POPC   GL124949  39.279   4.313   8.850
 6180POPC   GL224950  39.121   4.268   8.850
 6180POPC   C1A24951  39.261   4.282   8.550
 6180POPC   D2A24952  39.237   4.277   8.250
 6180POPC   C3A24953  39.280   4.296   7.950
 6180POPC   C4A24954  39.254   4.276   7.650
 6180POPC   C1B24955  39.103   4.106   8.550
 6180POPC   C2B24956  39.032   4.105   8.250
 6180POPC   C3B24957  39.038   4.098   7.950
 6180POPC   C4B24958  39.033   4.129   7.650
 6181POPC   NC324959   5.880  20.610   9.450
 6181POPC   PO424960   5.831  20.588   9.150
 6181POPC   GL124961   5.868  20.655   8.850
 6181POPC   GL224962   5.944  20.499   8.850
 6181POPC   C1A24963   5.870  20.578   8.550
 6181POPC   D2A24964   5.858  20.631   8.250
 6181POPC   C3A24965   5.881  20.598   7.950
 6181POPC   C4A24966   5.828  20.583   7.650
 6181POPC   C1B24967   5.981  20.343   8.550
 6181POPC   C2B24968   5.990  20.405   8.250
 6181POPC   C3B24969   6.020  20.432   7.950
 6181POPC   C4B24970   5.992  20.371   7.650
 6182POPC   NC324971  43.104  11.286   9.450
 6182POPC   PO424972  43.103  11.256   9.150
 6182POPC   GL124973  43.149  11.301   8.850
 6182POPC   GL224974  43.079  11.152   8.850
 6182POPC   C1A24975  43.077  11.317   8.550
 6182POPC   D2A24976  43.079  11.329   8.250
 6182POPC   C3A24977  43.151  11.258   7.950
 6182POPC   C4A24978  43.074  11.276   7.650
 6182POPC   C1B24979  43.150  11.041   8.550
 6182POPC   C2B24980  43.098  11.052   8.250
 6182POPC   C3B24981  43.122  11.080   7.950
 6182POPC   C4B24982  43.075  11.068   7.650
 6183POPC   NC324983   4.351  13.673   9.450
 6183POPC   PO424984   4.293  13.604   9.150
 6183POPC   GL124985   4.366  13.667   8.850
 6183POPC   GL224986   4.283  13.537   8.850
 6183POPC   C1A24987   4.293  13.656   8.550
 6183POPC   D2A24988   4.292  13.635   8.250
 6183POPC   C3A24989   4.326  13.629   7.950
 6183POPC   C4A24990   4.329  13.597   7.650
 6183POPC   C1B24991   4.320  13.356   8.550
 6183POPC   C2B24992   4.322  13.400   8.250
 6183POPC   C3B24993   4.251  13.391   7.950
 6183POPC   C4B24994   4.285  13.374   7.650
 6184POPC   NC324995  44.620  16.751   9.450
 6184POPC   PO424996  44.683  16.775   9.150
 6184POPC   GL124997  44.681  16.687   8.850
 6184POPC   GL224998  44.582  16.626   8.850
 6184POPC   C1A24999  44.686  16.694   8.550
 6184POPC   D2A25000  44.630  16.723   8.250
 6184POPC   C3A25001  44.708  16.770   7.950
 6184POPC   C4A25002  44.689  16.730   7.650
 6184POPC   C1B25003  44.484  16.597   8.550
 6184POPC   C2B25004  44.419  16.620   8.250
 6184POPC   C3B25005  44.468  16.610   7.950
 6184POPC   C4B25006  44.429  16.609   7.650
 6185POPC   NC325007  38.418  36.171   9.450
 6185POPC   PO425008  38.406  36.155   9.150
 6185POPC   GL125009  38.477  36.112   8.850
 6185POPC   GL225010  38.342  36.080   8.850
 6185POPC   C1A25011  38.428  36.148   8.550
 6185POPC   D2A25012  38.459  36.161   8.250
 6185POPC   C3A25013  38.415  36.118   7.950
 6185POPC   C4A25014  38.455  36.090   7.650
 6185POPC   C1B25015  38.247  36.029   8.550
 6185POPC   C2B25016  38.283  35.981   8.250
 6185POPC   C3B25017  38.222  36.018   7.950
 6185POPC   C4B25018  38.215  35.974   7.650
 6186POPC   NC325019  39.233   1.975   9.450
 6186POPC   PO425020  39.209   1.960   9.150
 6186POPC   GL125021  39.281   1.998   8.850
 6186POPC   GL225022  39.121   2.067   8.850
 6186POPC   C1A25023  39.262   1.976   8.550
 6186POPC   D2A25024  39.253   2.002   8.250
 6186POPC   C3A25025  39.195   2.023   7.950
 6186POPC   C4A25026  39.239   1.958   7.650
 6186POPC   C1B25027  38.990   2.131   8.550
 6186POPC   C2B25028  38.979   2.145   8.250
 6186POPC   C3B25029  38.988   2.101   7.950
 6186POPC   C4B25030  39.033   2.158   7.650
 6187POPC   NC325031  31.499   3.504   9.450
 6187POPC   PO425032  31.423   3.532   9.150
 6187POPC   GL125033  31.491   3.569   8.850
 6187POPC   GL225034  31.498   3.420   8.850
 6187POPC   C1A25035  31.456   3.534   8.550
 6187POPC   D2A25036  31.503   3.539   8.250
 6187POPC   C3A25037  31.508   3.501   7.950
 6187POPC   C4A25038  31.493   3.523   7.650
 6187POPC   C1B25039  31.607   3.345   8.550
 6187POPC   C2B25040  31.571   3.375   8.250
 6187POPC   C3B25041  31.639   3.335   7.950
 6187POPC   C4B25042  31.618   3.324   7.650
 6188POPC   NC325043  15.956  36.953   9.450
 6188POPC   PO425044  16.000  36.870   9.150
 6188POPC   GL125045  15.965  36.868   8.850
 6188POPC   GL225046  15.918  36.780   8.850
 6188POPC   C1A25047  15.943  36.890   8.550
 6188POPC   D2A25048  15.973  36.895   8.250
 6188POPC   C3A25049  15.912  36.879   7.950
 6188POPC   C4A25050  15.934  36.913   7.650
 6188POPC   C1B25051  15.800  36.711   8.550
 6188POPC   C2B25052  15.809  36.755   8.250
 6188POPC   C3B25053  15.795  36.750   7.950
 6188POPC   C4B25054  15.773  36.750   7.650
 6189POPC   NC325055  44.647  27.567   9.450
 6189POPC   PO425056  44.710  27.580   9.150
 6189POPC   GL125057  44.708  27.564   8.850
 6189POPC   GL225058  44.749  27.665   8.850
 6189POPC   C1A25059  44.619  27.556   8.550
 6189POPC   D2A25060  44.668  27.553   8.250
 6189POPC   C3A25061  44.626  27.638   7.950
 6189POPC   C4A25062  44.709  27.613   7.650
 6189POPC   C1B25063  44.784  27.813   8.550
 6189POPC   C2B25064  44.832  27.801   8.250
 6189POPC   C3B25065  44.743  27.831   7.950
 6189POPC   C4B25066  44.777  27.798   7.650
 6190POPC   NC325067  32.282   9.003   9.450
 6190POPC   PO425068  32.259   8.977   9.150
 6190POPC   GL125069  32.210   8.946   8.850
 6190POPC   GL225070  32.297   8.852   8.850
 6190POPC   C1A25071  32.202   8.939   8.550
 6190POPC   D2A25072  32.238   8.992   8.250
 6190POPC   C3A25073  32.222   8.967   7.950
 6190POPC   C4A25074  32.284   9.012   7.650
 6190POPC   C1B25075  32.409   8.740   8.550
 6190POPC   C2B25076  32.371   8.729   8.250
 6190POPC   C3B25077  32.373   8.730   7.950
 6190POPC   C4B25078  32.432   8.789   7.650
 6191POPC   NC325079  25.253  44.679   9.450
 6191POPC   PO425080  25.290  44.712   9.150
 6191POPC   GL125081  25.265  44.651   8.850
 6191POPC   GL225082  25.164  44.586   8.850
 6191POPC   C1A25083  25.309  44.638   8.550
 6191POPC   D2A25084  25.229  44.622   8.250
 6191POPC   C3A25085  25.222  44.665   7.950
 6191POPC   C4A25086  25.311  44.685   7.650
 6191POPC   C1B25087  25.101  44.443   8.550
 6191POPC   C2B25088  25.123  44.502   8.250
 6191POPC   C3B25089  25.063  44.454   7.950
 6191POPC   C4B25090  25.115  44.514   7.650
 6192POPC   NC325091  15.164  36.127   9.450
 6192POPC   PO425092  15.209  36.152   9.150
 6192POPC   GL125093  15.214  36.148   8.850
 6192POPC   GL225094  15.179  36.032   8.850
 6192POPC   C1A25095  15.188  36.139   8.550
 6192POPC   D2A25096  15.228  36.151   8.250
 6192POPC   C3A25097  15.130  36.129   7.950
 6192POPC   C4A25098  15.155  36.112   7.650
 6192POPC   C1B25099  15.127  35.866   8.550
 6192POPC   C2B25100  15.039  35.862   8.250
 6192POPC   C3B25101  15.047  35.847   7.950
 6192POPC   C4B25102  15.055  35.945   7.650
 6193POPC   NC325103  35.313  22.973   9.450
 6193POPC   PO425104  35.356  22.912   9.150
 6193POPC   GL125105  35.322  22.965   8.850
 6193POPC   GL225106  35.218  22.897   8.850
 6193POPC   C1A25107  35.321  22.983   8.550
 6193POPC   D2A25108  35.371  22.954   8.250
 6193POPC   C3A25109  35.383  22.950   7.950
 6193POPC   C4A25110  35.348  22.975   7.650
 6193POPC   C1B25111  35.122  22.908   8.550
 6193POPC   C2B25112  35.106  22.976   8.250
 6193POPC   C3B25113  35.066  22.925   7.950
 6193POPC   C4B25114  35.128  22.911   7.650
 6194POPC   NC325115   4.355   8.194   9.450
 6194POPC   PO425116   4.360   8.201   9.150
 6194POPC   GL125117   4.288   8.175   8.850
 6194POPC   GL225118   4.193   8.272   8.850
 6194POPC   C1A25119   4.285   8.162   8.550
 6194POPC   D2A25120   4.326   8.200   8.250
 6194POPC   C3A25121   4.269   8.169   7.950
 6194POPC   C4A25122   4.345   8.224   7.650
 6194POPC   C1B25123   4.124   8.340   8.550
 6194POPC   C2B25124   4.122   8.296   8.250
 6194POPC   C3B25125   4.141   8.273   7.950
 6194POPC   C4B25126   4.118   8.268   7.650
 6195POPC   NC325127  11.304  27.550   9.450
 6195POPC   PO425128  11.336  27.611   9.150
 6195POPC   GL125129  11.321  27.619   8.850
 6195POPC   GL225130  11.224  27.531   8.850
 6195POPC   C1A25131  11.346  27.594   8.550
 6195POPC   D2A25132  11.307  27.611   8.250
 6195POPC   C3A25133  11.321  27.583   7.950
 6195POPC   C4A25134  11.255  27.611   7.650
 6195POPC   C1B25135  11.190  27.372   8.550
 6195POPC   C2B25136  11.234  27.411   8.250
 6195POPC   C3B25137  11.154  27.371   7.950
 6195POPC   C4B25138  11.173  27.344   7.650
 6196POPC   NC325139  39.246  12.072   9.450
 6196POPC   PO425140  39.267  12.070   9.150
 6196POPC   GL125141  39.207  12.069   8.850
 6196POPC   GL225142  39.220  11.965   8.850
 6196POPC   C1A25143  39.274  12.045   8.550
 6196POPC   D2A25144  39.249  12.044   8.250
 6196POPC   C3A25145  39.221  12.074   7.950
 6196POPC   C4A25146  39.203  12.117   7.650
 6196POPC   C1B25147  39.164  11.853   8.550
 6196POPC   C2B25148  39.217  11.854   8.250
 6196POPC   C3B25149  39.158  11.842   7.950
 6196POPC   C4B25150  39.183  11.828   7.650
 6197POPC   NC325151  15.986  40.794   9.450
 6197POPC   PO425152  16.002  40.753   9.150
 6197POPC   GL125153  15.952  40.758   8.850
 6197POPC   GL225154  15.786  40.849   8.850
 6197POPC   C1A25155  15.983  40.755   8.550
 6197POPC   D2A25156  15.957  40.830   8.250
 6197POPC   C3A25157  15.998  40.821   7.950
 6197POPC   C4A25158  15.996  40.807   7.650
 6197POPC   C1B25159  15.669  40.779   8.550
 6197POPC   C2B25160  15.719  40.798   8.250
 6197POPC   C3B25161  15.687  40.828   7.950
 6197POPC   C4B25162  15.753  40.796   7.650
 6198POPC   NC325163  19.804  25.994   9.450
 6198POPC   PO425164  19.843  26.025   9.150
 6198POPC   GL125165  19.831  26.027   8.850
 6198POPC   GL225166  19.812  25.917   8.850
 6198POPC   C1A25167  19.837  26.035   8.550
 6198POPC   D2A25168  19.821  26.001   8.250
 6198POPC   C3A25169  19.878  26.091   7.950
 6198POPC   C4A25170  19.824  26.017   7.650
 6198POPC   C1B25171  19.888  25.780   8.550
 6198POPC   C2B25172  19.822  25.819   8.250
 6198POPC   C3B25173  19.841  25.811   7.950
 6198POPC   C4B25174  19.810  25.832   7.650
 6199POPC   NC325175  32.212  43.900   9.450
 6199POPC   PO425176  32.275  43.869   9.150
 6199POPC   GL125177  32.232  43.861   8.850
 6199POPC   GL225178  32.164  43.951   8.850
 6199POPC   C1A25179  32.287  43.904   8.550
 6199POPC   D2A25180  32.213  43.873   8.250
 6199POPC   C3A25181  32.274  43.924   7.950
 6199POPC   C4A25182  32.296  43.922   7.650
 6199POPC   C1B25183  32.040  44.082   8.550
 6199POPC   C2B25184  32.050  44.067   8.250
 6199POPC   C3B25185  32.082  44.099   7.950
 6199POPC   C4B25186  32.093  44.074   7.650
 6200POPC   NC325187   0.415   5.057   9.450
 6200POPC   PO425188   0.429   5.052   9.150
 6200POPC   GL125189   0.399   5.071   8.850
 6200POPC   GL225190   0.369   5.178   8.850
 6200POPC   C1A25191   0.437   5.106   8.550
 6200POPC   D2A25192   0.406   5.070   8.250
 6200POPC   C3A25193   0.415   5.053   7.950
 6200POPC   C4A25194   0.406   5.088   7.650
 6200POPC   C1B25195   0.234   5.233   8.550
 6200POPC   C2B25196   0.174   5.227   8.250
 6200POPC   C3B25197   0.246   5.224   7.950
 6200POPC   C4B25198   0.268   5.204   7.650
 6201POPC   NC325199   8.938  35.306   9.450
 6201POPC   PO425200   8.993  35.373   9.150
 6201POPC   GL125201   8.994  35.380   8.850
 6201POPC   GL225202   8.920  35.246   8.850
 6201POPC   C1A25203   9.019  35.347   8.550
 6201POPC   D2A25204   9.022  35.392   8.250
 6201POPC   C3A25205   8.923  35.327   7.950
 6201POPC   C4A25206   8.983  35.373   7.650
 6201POPC   C1B25207   8.816  35.137   8.550
 6201POPC   C2B25208   8.860  35.143   8.250
 6201POPC   C3B25209   8.871  35.135   7.950
 6201POPC   C4B25210   8.879  35.092   7.650
 6202POPC   NC325211   5.069   5.909   9.450
 6202POPC   PO425212   5.100   5.875   9.150
 6202POPC   GL125213   5.053   5.821   8.850
 6202POPC   GL225214   4.994   5.963   8.850
 6202POPC   C1A25215   5.095   5.860   8.550
 6202POPC   D2A25216   5.112   5.845   8.250
 6202POPC   C3A25217   5.052   5.877   7.950
 6202POPC   C4A25218   5.075   5.912   7.650
 6202POPC   C1B25219   4.906   6.018   8.550
 6202POPC   C2B25220   4.879   5.985   8.250
 6202POPC   C3B25221   4.902   5.938   7.950
 6202POPC   C4B25222   4.873   5.948   7.650
 6203POPC   NC325223   1.969  19.823   9.450
 6203POPC   PO425224   1.962  19.838   9.150
 6203POPC   GL125225   2.017  19.814   8.850
 6203POPC   GL225226   1.987  19.995   8.850
 6203POPC   C1A25227   2.026  19.806   8.550
 6203POPC   D2A25228   1.995  19.815   8.250
 6203POPC   C3A25229   1.992  19.788   7.950
 6203POPC   C4A25230   1.947  19.866   7.650
 6203POPC   C1B25231   2.037  20.126   8.550
 6203POPC   C2B25232   2.040  20.113   8.250
 6203POPC   C3B25233   1.998  20.122   7.950
 6203POPC   C4B25234   1.986  20.070   7.650
 6204POPC   NC325235   8.193  17.468   9.450
 6204POPC   PO425236   8.246  17.510   9.150
 6204POPC   GL125237   8.177  17.511   8.850
 6204POPC   GL225238   8.159  17.383   8.850
 6204POPC   C1A25239   8.242  17.473   8.550
 6204POPC   D2A25240   8.170  17.528   8.250
 6204POPC   C3A25241   8.163  17.459   7.950
 6204POPC   C4A25242   8.163  17.557   7.650
 6204POPC   C1B25243   8.108  17.250   8.550
 6204POPC   C2B25244   8.075  17.308   8.250
 6204POPC   C3B25245   8.102  17.292   7.950
 6204POPC   C4B25246   8.123  17.304   7.650
 6205POPC   NC325247   0.392  39.210   9.450
 6205POPC   PO425248   0.411  39.221   9.150
 6205POPC   GL125249   0.393  39.190   8.850
 6205POPC   GL225250   0.401  39.379   8.850
 6205POPC   C1A25251   0.461  39.193   8.550
 6205POPC   D2A25252   0.480  39.244   8.250
 6205POPC   C3A25253   0.442  39.224   7.950
 6205POPC   C4A25254   0.447  39.267   7.650
 6205POPC   C1B25255   0.385  39.443   8.550
 6205POPC   C2B25256   0.361  39.449   8.250
 6205POPC   C3B25257   0.373  39.424   7.950
 6205POPC   C4B25258   0.406  39.474   7.650
 6206POPC   NC325259  35.384  42.345   9.450
 6206POPC   PO425260  35.321  42.318   9.150
 6206POPC   GL125261  35.315  42.363   8.850
 6206POPC   GL225262  35.443  42.428   8.850
 6206POPC   C1A25263  35.335  42.339   8.550
 6206POPC   D2A25264  35.391  42.341   8.250
 6206POPC   C3A25265  35.401  42.330   7.950
 6206POPC   C4A25266  35.306  42.350   7.650
 6206POPC   C1B25267  35.451  42.527   8.550
 6206POPC   C2B25268  35.460  42.548   8.250
 6206POPC   C3B25269  35.481  42.566   7.950
 6206POPC   C4B25270  35.457  42.602   7.650
 6207POPC   NC325271  19.045  44.625   9.450
 6207POPC   PO425272  19.079  44.652   9.150
 6207POPC   GL125273  19.090  44.660   8.850
 6207POPC   GL225274  19.144  44.527   8.850
 6207POPC   C1A25275  19.074  44.642   8.550
 6207POPC   D2A25276  19.028  44.707   8.250
 6207POPC   C3A25277  19.107  44.634   7.950
 6207POPC   C4A25278  19.098  44.637   7.650
 6207POPC   C1B25279  19.168  44.493   8.550
 6207POPC   C2B25280  19.256  44.435   8.250
 6207POPC   C3B25281  19.235  44.436   7.950
 6207POPC   C4B25282  19.184  44.509   7.650
 6208POPC   NC325283  33.843   7.401   9.450
 6208POPC   PO425284  33.789   7.452   9.150
 6208POPC   GL125285  33.838   7.407   8.850
 6208POPC   GL225286  33.737   7.335   8.850
 6208POPC   C1A25287  33.842   7.458   8.550
 6208POPC   D2A25288  33.790   7.422   8.250
 6208POPC   C3A25289  33.826   7.469   7.950
 6208POPC   C4A25290  33.775   7.384   7.650
 6208POPC   C1B25291  33.631   7.256   8.550
 6208POPC   C2B25292  33.682   7.230   8.250
 6208POPC   C3B25293  33.609   7.275   7.950
 6208POPC   C4B25294  33.666   7.232   7.650
 6209POPC   NC325295  26.826   2.724   9.450
 6209POPC   PO425296  26.845   2.718   9.150
 6209POPC   GL125297  26.810   2.720   8.850
 6209POPC   GL225298  26.837   2.608   8.850
 6209POPC   C1A25299  26.813   2.730   8.550
 6209POPC   D2A25300  26.847   2.812   8.250
 6209POPC   C3A25301  26.796   2.793   7.950
 6209POPC   C4A25302  26.856   2.791   7.650
 6209POPC   C1B25303  26.749   2.567   8.550
 6209POPC   C2B25304  26.808   2.549   8.250
 6209POPC   C3B25305  26.748   2.506   7.950
 6209POPC   C4B25306  26.787   2.495   7.650
 6210POPC   NC325307  18.273  12.902   9.450
 6210POPC   PO425308  18.275  12.869   9.150
 6210POPC   GL125309  18.326  12.895   8.850
 6210POPC   GL225310  18.388  12.813   8.850
 6210POPC   C1A25311  18.321  12.843   8.550
 6210POPC   D2A25312  18.243  12.860   8.250
 6210POPC   C3A25313  18.250  12.822   7.950
 6210POPC   C4A25314  18.280  12.862   7.650
 6210POPC   C1B25315  18.537  12.838   8.550
 6210POPC   C2B25316  18.566  12.824   8.250
 6210POPC   C3B25317  18.539  12.817   7.950
 6210POPC   C4B25318  18.538  12.812   7.650
 6211POPC   NC325319  25.312   6.643   9.450
 6211POPC   PO425320  25.244   6.612   9.150
 6211POPC   GL125321  25.238   6.669   8.850
 6211POPC   GL225322  25.114   6.586   8.850
 6211POPC   C1A25323  25.241   6.634   8.550
 6211POPC   D2A25324  25.260   6.608   8.250
 6211POPC   C3A25325  25.250   6.670   7.950
 6211POPC   C4A25326  25.240   6.680   7.650
 6211POPC   C1B25327  24.981   6.533   8.550
 6211POPC   C2B25328  25.011   6.576   8.250
 6211POPC   C3B25329  25.022   6.586   7.950
 6211POPC   C4B25330  25.024   6.608   7.650
 6212POPC   NC325331   7.383  41.543   9.450
 6212POPC   PO425332   7.436  41.515   9.150
 6212POPC   GL125333   7.408  41.527   8.850
 6212POPC   GL225334   7.484  41.644   8.850
 6212POPC   C1A25335   7.452  41.577   8.550
 6212POPC   D2A25336   7.422  41.560   8.250
 6212POPC   C3A25337   7.444  41.561   7.950
 6212POPC   C4A25338   7.420  41.534   7.650
 6212POPC   C1B25339   7.480  41.756   8.550
 6212POPC   C2B25340   7.473  41.744   8.250
 6212POPC   C3B25341   7.526  41.832   7.950
 6212POPC   C4B25342   7.519  41.816   7.650
 6213POPC   NC325343  36.863  26.801   9.450
 6213POPC   PO425344  36.949  26.769   9.150
 6213POPC   GL125345  36.858  26.814   8.850
 6213POPC   GL225346  36.824  26.834   8.850
 6213POPC   C1A25347  36.922  26.793   8.550
 6213POPC   D2A25348  36.915  26.778   8.250
 6213POPC   C3A25349  36.901  26.806   7.950
 6213POPC   C4A25350  36.877  26.856   7.650
 6213POPC   C1B25351  36.722  26.964   8.550
 6213POPC   C2B25352  36.717  26.929   8.250
 6213POPC   C3B25353  36.680  26.931   7.950
 6213POPC   C4B25354  36.689  26.951   7.650
 6214POPC   NC325355  28.362   9.798   9.450
 6214POPC   PO425356  28.399   9.757   9.150
 6214POPC   GL125357  28.400   9.739   8.850
 6214POPC   GL225358  28.536   9.829   8.850
 6214POPC   C1A25359  28.347   9.708   8.550
 6214POPC   D2A25360  28.344   9.789   8.250
 6214POPC   C3A25361  28.333   9.714   7.950
 6214POPC   C4A25362  28.326   9.720   7.650
 6214POPC   C1B25363  28.642   9.826   8.550
 6214POPC   C2B25364  28.625   9.870   8.250
 6214POPC   C3B25365  28.610   9.788   7.950
 6214POPC   C4B25366  28.621   9.798   7.650
 6215POPC   NC325367   8.991  26.004   9.450
 6215POPC   PO425368   9.004  26.036   9.150
 6215POPC   GL125369   8.939  26.058   8.850
 6215POPC   GL225370   8.959  25.899   8.850
 6215POPC   C1A25371   9.013  26.074   8.550
 6215POPC   D2A25372   8.988  25.993   8.250
 6215POPC   C3A25373   8.996  26.018   7.950
 6215POPC   C4A25374   8.980  26.030   7.650
 6215POPC   C1B25375   8.899  25.825   8.550
 6215POPC   C2B25376   8.909  25.753   8.250
 6215POPC   C3B25377   8.938  25.790   7.950
 6215POPC   C4B25378   8.886  25.772   7.650
 6216POPC   NC325379  21.374   4.352   9.450
 6216POPC   PO425380  21.340   4.276   9.150
 6216POPC   GL125381  21.405   4.339   8.850
 6216POPC   GL225382  21.484   4.424   8.850
 6216POPC   C1A25383  21.352   4.268   8.550
 6216POPC   D2A25384  21.363   4.302   8.250
 6216POPC   C3A25385  21.370   4.287   7.950
 6216POPC   C4A25386  21.396   4.315   7.650
 6216POPC   C1B25387  21.548   4.499   8.550
 6216POPC   C2B25388  21.604   4.503   8.250
 6216POPC   C3B25389  21.599   4.505   7.950
 6216POPC   C4B25390  21.539   4.505   7.650
 6217POPC   NC325391  21.428  16.778   9.450
 6217POPC   PO425392  21.402  16.726   9.150
 6217POPC   GL125393  21.360  16.746   8.850
 6217POPC   GL225394  21.232  16.721   8.850
 6217POPC   C1A25395  21.339  16.729   8.550
 6217POPC   D2A25396  21.378  16.713   8.250
 6217POPC   C3A25397  21.341  16.743   7.950
 6217POPC   C4A25398  21.409  16.700   7.650
 6217POPC   C1B25399  21.095  16.677   8.550
 6217POPC   C2B25400  21.162  16.710   8.250
 6217POPC   C3B25401  21.091  16.694   7.950
 6217POPC   C4B25402  21.145  16.701   7.650
 6218POPC   NC325403   8.208   8.992   9.450
 6218POPC   PO425404   8.185   9.010   9.150
 6218POPC   GL125405   8.153   8.940   8.850
 6218POPC   GL225406   8.165   8.871   8.850
 6218POPC   C1A25407   8.167   8.989   8.550
 6218POPC   D2A25408   8.215   8.970   8.250
 6218POPC   C3A25409   8.177   8.961   7.950
 6218POPC   C4A25410   8.204   8.943   7.650
 6218POPC   C1B25411   8.174   8.750   8.550
 6218POPC   C2B25412   8.146   8.746   8.250
 6218POPC   C3B25413   8.167   8.747   7.950
 6218POPC   C4B25414   8.127   8.724   7.650
 6219POPC   NC325415  30.708  43.068   9.450
 6219POPC   PO425416  30.736  43.110   9.150
 6219POPC   GL125417  30.681  43.158   8.850
 6219POPC   GL225418  30.715  43.186   8.850
 6219POPC   C1A25419  30.734  43.104   8.550
 6219POPC   D2A25420  30.725  43.143   8.250
 6219POPC   C3A25421  30.727  43.150   7.950
 6219POPC   C4A25422  30.701  43.141   7.650
 6219POPC   C1B25423  30.690  43.339   8.550
 6219POPC   C2B25424  30.662  43.345   8.250
 6219POPC   C3B25425  30.700  43.354   7.950
 6219POPC   C4B25426  30.701  43.391   7.650
 6220POPC   NC325427  40.001   4.275   9.450
 6220POPC   PO425428  40.018   4.304   9.150
 6220POPC   GL125429  39.964   4.306   8.850
 6220POPC   GL225430  40.084   4.303   8.850
 6220POPC   C1A25431  39.996   4.326   8.550
 6220POPC   D2A25432  40.014   4.357   8.250
 6220POPC   C3A25433  40.033   4.349   7.950
 6220POPC   C4A25434  40.017   4.323   7.650
 6220POPC   C1B25435  40.189   4.185   8.550
 6220POPC   C2B25436  40.208   4.184   8.250
 6220POPC   C3B25437  40.202   4.198   7.950
 6220POPC   C4B25438  40.269   4.224   7.650
 6221POPC   NC325439  37.724  25.223   9.450
 6221POPC   PO425440  37.650  25.281   9.150
 6221POPC   GL125441  37.704  25.283   8.850
 6221POPC   GL225442  37.589  25.159   8.850
 6221POPC   C1A25443  37.721  25.251   8.550
 6221POPC   D2A25444  37.688  25.246   8.250
 6221POPC   C3A25445  37.722  25.297   7.950
 6221POPC   C4A25446  37.697  25.228   7.650
 6221POPC   C1B25447  37.583  25.086   8.550
 6221POPC   C2B25448  37.524  25.095   8.250
 6221POPC   C3B25449  37.534  25.026   7.950
 6221POPC   C4B25450  37.536  25.059   7.650
 6222POPC   NC325451   3.507  39.219   9.450
 6222POPC   PO425452   3.558  39.242   9.150
 6222POPC   GL125453   3.584  39.244   8.850
 6222POPC   GL225454   3.651  39.127   8.850
 6222POPC   C1A25455   3.557  39.196   8.550
 6222POPC   D2A25456   3.523  39.185   8.250
 6222POPC   C3A25457   3.581  39.232   7.950
 6222POPC   C4A25458   3.568  39.223   7.650
 6222POPC   C1B25459   3.708  39.107   8.550
 6222POPC   C2B25460   3.734  39.088   8.250
 6222POPC   C3B25461   3.742  39.051   7.950
 6222POPC   C4B25462   3.729  39.102   7.650
 6223POPC   NC325463  19.788  42.288   9.450
 6223POPC   PO425464  19.831  42.379   9.150
 6223POPC   GL125465  19.863  42.308   8.850
 6223POPC   GL225466  19.679  42.384   8.850
 6223POPC   C1A25467  19.871  42.364   8.550
 6223POPC   D2A25468  19.814  42.298   8.250
 6223POPC   C3A25469  19.834  42.360   7.950
 6223POPC   C4A25470  19.881  42.299   7.650
 6223POPC   C1B25471  19.652  42.386   8.550
 6223POPC   C2B25472  19.647  42.435   8.250
 6223POPC   C3B25473  19.621  42.447   7.950
 6223POPC   C4B25474  19.614  42.407   7.650
 6224POPC   NC325475  10.518   8.938   9.450
 6224POPC   PO425476  10.554   8.959   9.150
 6224POPC   GL125477  10.474   8.967   8.850
 6224POPC   GL225478  10.619   8.965   8.850
 6224POPC   C1A25479  10.559   8.954   8.550
 6224POPC   D2A25480  10.551   8.991   8.250
 6224POPC   C3A25481  10.520   9.006   7.950
 6224POPC   C4A25482  10.562   8.951   7.650
 6224POPC   C1B25483  10.814   9.039   8.550
 6224POPC   C2B25484  10.743   8.975   8.250
 6224POPC   C3B25485  10.777   9.035   7.950
 6224POPC   C4B25486  10.788   8.971   7.650
 6225POPC   NC325487  22.920  42.315   9.450
 6225POPC   PO425488  22.964  42.311   9.150
 6225POPC   GL125489  22.968  42.297   8.850
 6225POPC   GL225490  23.032  42.224   8.850
 6225POPC   C1A25491  22.933  42.330   8.550
 6225POPC   D2A25492  22.948  42.289   8.250
 6225POPC   C3A25493  22.931  42.330   7.950
 6225POPC   C4A25494  22.961  42.369   7.650
 6225POPC   C1B25495  23.066  42.119   8.550
 6225POPC   C2B25496  23.057  42.059   8.250
 6225POPC   C3B25497  23.070  42.138   7.950
 6225POPC   C4B25498  23.051  42.142   7.650
 6226POPC   NC325499  12.085  27.568   9.450
 6226POPC   PO425500  12.061  27.574   9.150
 6226POPC   GL125501  12.038  27.580   8.850
 6226POPC   GL225502  12.120  27.734   8.850
 6226POPC   C1A25503  12.044  27.553   8.550
 6226POPC   D2A25504  12.125  27.577   8.250
 6226POPC   C3A25505  12.052  27.629   7.950
 6226POPC   C4A25506  12.077  27.607   7.650
 6226POPC   C1B25507  12.112  27.827   8.550
 6226POPC   C2B25508  12.131  27.827   8.250
 6226POPC   C3B25509  12.090  27.842   7.950
 6226POPC   C4B25510  12.057  27.871   7.650
 6227POPC   NC325511  43.929  16.719   9.450
 6227POPC   PO425512  43.884  16.698   9.150
 6227POPC   GL125513  43.879  16.716   8.850
 6227POPC   GL225514  44.025  16.666   8.850
 6227POPC   C1A25515  43.870  16.735   8.550
 6227POPC   D2A25516  43.842  16.770   8.250
 6227POPC   C3A25517  43.930  16.766   7.950
 6227POPC   C4A25518  43.881  16.742   7.650
 6227POPC   C1B25519  44.141  16.664   8.550
 6227POPC   C2B25520  44.103  16.649   8.250
 6227POPC   C3B25521  44.164  16.651   7.950
 6227POPC   C4B25522  44.084  16.690   7.650
 6228POPC   NC325523  37.694  38.431   9.450
 6228POPC   PO425524  37.724  38.497   9.150
 6228POPC   GL125525  37.685  38.466   8.850
 6228POPC   GL225526  37.598  38.499   8.850
 6228POPC   C1A25527  37.699  38.459   8.550
 6228POPC   D2A25528  37.679  38.468   8.250
 6228POPC   C3A25529  37.710  38.499   7.950
 6228POPC   C4A25530  37.648  38.424   7.650
 6228POPC   C1B25531  37.472  38.572   8.550
 6228POPC   C2B25532  37.406  38.574   8.250
 6228POPC   C3B25533  37.420  38.483   7.950
 6228POPC   C4B25534  37.407  38.500   7.650
 6229POPC   NC325535  43.098  19.099   9.450
 6229POPC   PO425536  43.160  19.072   9.150
 6229POPC   GL125537  43.129  19.035   8.850
 6229POPC   GL225538  43.234  19.111   8.850
 6229POPC   C1A25539  43.094  19.051   8.550
 6229POPC   D2A25540  43.103  19.084   8.250
 6229POPC   C3A25541  43.085  19.026   7.950
 6229POPC   C4A25542  43.098  19.044   7.650
 6229POPC   C1B25543  43.301  19.284   8.550
 6229POPC   C2B25544  43.276  19.266   8.250
 6229POPC   C3B25545  43.311  19.240   7.950
 6229POPC   C4B25546  43.317  19.239   7.650
 6230POPC   NC325547  40.826  17.484   9.450
 6230POPC   PO425548  40.755  17.554   9.150
 6230POPC   GL125549  40.819  17.538   8.850
 6230POPC   GL225550  40.745  17.399   8.850
 6230POPC   C1A25551  40.821  17.553   8.550
 6230POPC   D2A25552  40.750  17.545   8.250
 6230POPC   C3A25553  40.763  17.536   7.950
 6230POPC   C4A25554  40.827  17.466   7.650
 6230POPC   C1B25555  40.604  17.275   8.550
 6230POPC   C2B25556  40.619  17.335   8.250
 6230POPC   C3B25557  40.640  17.318   7.950
 6230POPC   C4B25558  40.644  17.298   7.650
 6231POPC   NC325559  16.693  12.094   9.450
 6231POPC   PO425560  16.746  12.081   9.150
 6231POPC   GL125561  16.744  12.103   8.850
 6231POPC   GL225562  16.698  11.917   8.850
 6231POPC   C1A25563  16.691  12.107   8.550
 6231POPC   D2A25564  16.761  12.117   8.250
 6231POPC   C3A25565  16.770  12.088   7.950
 6231POPC   C4A25566  16.737  12.072   7.650
 6231POPC   C1B25567  16.637  11.890   8.550
 6231POPC   C2B25568  16.642  11.822   8.250
 6231POPC   C3B25569  16.645  11.868   7.950
 6231POPC   C4B25570  16.646  11.880   7.650
 6232POPC   NC325571  20.645  18.321   9.450
 6232POPC   PO425572  20.588  18.276   9.150
 6232POPC   GL125573  20.628  18.289   8.850
 6232POPC   GL225574  20.645  18.132   8.850
 6232POPC   C1A25575  20.656  18.285   8.550
 6232POPC   D2A25576  20.631  18.316   8.250
 6232POPC   C3A25577  20.604  18.314   7.950
 6232POPC   C4A25578  20.590  18.266   7.650
 6232POPC   C1B25579  20.738  18.029   8.550
 6232POPC   C2B25580  20.689  18.023   8.250
 6232POPC   C3B25581  20.734  18.110   7.950
 6232POPC   C4B25582  20.753  18.093   7.650
 6233POPC   NC325583  30.661  33.847   9.450
 6233POPC   PO425584  30.728  33.770   9.150
 6233POPC   GL125585  30.693  33.751   8.850
 6233POPC   GL225586  30.568  33.878   8.850
 6233POPC   C1A25587  30.715  33.758   8.550
 6233POPC   D2A25588  30.692  33.770   8.250
 6233POPC   C3A25589  30.661  33.756   7.950
 6233POPC   C4A25590  30.692  33.831   7.650
 6233POPC   C1B25591  30.555  34.006   8.550
 6233POPC   C2B25592  30.559  34.016   8.250
 6233POPC   C3B25593  30.549  34.020   7.950
 6233POPC   C4B25594  30.565  34.028   7.650
 6234POPC   NC325595   1.984  43.857   9.450
 6234POPC   PO425596   1.967  43.857   9.150
 6234POPC   GL125597   1.956  43.904   8.850
 6234POPC   GL225598   2.086  43.840   8.850
 6234POPC   C1A25599   1.957  43.843   8.550
 6234POPC   D2A25600   1.962  43.859   8.250
 6234POPC   C3A25601   1.946  43.841   7.950
 6234POPC   C4A25602   1.973  43.861   7.650
 6234POPC   C1B25603   2.182  43.735   8.550
 6234POPC   C2B25604   2.171  43.693   8.250
 6234POPC   C3B25605   2.176  43.767   7.950
 6234POPC   C4B25606   2.162  43.705   7.650
 6235POPC   NC325607   9.013  13.610   9.450
 6235POPC   PO425608   8.978  13.579   9.150
 6235POPC   GL125609   8.931  13.658   8.850
 6235POPC   GL225610   9.010  13.515   8.850
 6235POPC   C1A25611   8.976  13.583   8.550
 6235POPC   D2A25612   8.973  13.638   8.250
 6235POPC   C3A25613   8.989  13.672   7.950
 6235POPC   C4A25614   8.969  13.605   7.650
 6235POPC   C1B25615   9.005  13.381   8.550
 6235POPC   C2B25616   9.052  13.410   8.250
 6235POPC   C3B25617   9.083  13.347   7.950
 6235POPC   C4B25618   9.007  13.413   7.650
 6236POPC   NC325619   8.968   7.388   9.450
 6236POPC   PO425620   8.986   7.421   9.150
 6236POPC   GL125621   8.933   7.445   8.850
 6236POPC   GL225622   9.073   7.346   8.850
 6236POPC   C1A25623   8.962   7.423   8.550
 6236POPC   D2A25624   8.929   7.391   8.250
 6236POPC   C3A25625   8.928   7.398   7.950
 6236POPC   C4A25626   8.974   7.385   7.650
 6236POPC   C1B25627   9.161   7.221   8.550
 6236POPC   C2B25628   9.156   7.284   8.250
 6236POPC   C3B25629   9.124   7.290   7.950
 6236POPC   C4B25630   9.132   7.275   7.650
 6237POPC   NC325631  44.654  14.358   9.450
 6237POPC   PO425632  44.653  14.371   9.150
 6237POPC   GL125633  44.628  14.378   8.850
 6237POPC   GL225634  44.686  14.285   8.850
 6237POPC   C1A25635  44.659  14.407   8.550
 6237POPC   D2A25636  44.702  14.414   8.250
 6237POPC   C3A25637  44.641  14.420   7.950
 6237POPC   C4A25638  44.621  14.361   7.650
 6237POPC   C1B25639  44.813  14.191   8.550
 6237POPC   C2B25640  44.755  14.188   8.250
 6237POPC   C3B25641  44.825  14.144   7.950
 6237POPC   C4B25642  44.777  14.151   7.650
 6238POPC   NC325643  15.984   9.772   9.450
 6238POPC   PO425644  15.910   9.754   9.150
 6238POPC   GL125645  15.989   9.741   8.850
 6238POPC   GL225646  15.931   9.668   8.850
 6238POPC   C1A25647  15.994   9.716   8.550
 6238POPC   D2A25648  15.910   9.711   8.250
 6238POPC   C3A25649  15.991   9.702   7.950
 6238POPC   C4A25650  16.001   9.708   7.650
 6238POPC   C1B25651  15.858   9.526   8.550
 6238POPC   C2B25652  15.866   9.507   8.250
 6238POPC   C3B25653  15.861   9.524   7.950
 6238POPC   C4B25654  15.943   9.466   7.650
 6239POPC   NC325655   1.193  22.173   9.450
 6239POPC   PO425656   1.263  22.133   9.150
 6239POPC   GL125657   1.221  22.163   8.850
 6239POPC   GL225658   1.268  22.264   8.850
 6239POPC   C1A25659   1.170  22.198   8.550
 6239POPC   D2A25660   1.215  22.178   8.250
 6239POPC   C3A25661   1.173  22.169   7.950
 6239POPC   C4A25662   1.183  22.205   7.650
 6239POPC   C1B25663   1.292  22.439   8.550
 6239POPC   C2B25664   1.356  22.386   8.250
 6239POPC   C3B25665   1.272  22.380   7.950
 6239POPC   C4B25666   1.268  22.432   7.650
 6240POPC   NC325667   3.525  10.532   9.450
 6240POPC   PO425668   3.499  10.559   9.150
 6240POPC   GL125669   3.501  10.551   8.850
 6240POPC   GL225670   3.489  10.396   8.850
 6240POPC   C1A25671   3.497  10.570   8.550
 6240POPC   D2A25672   3.561  10.531   8.250
 6240POPC   C3A25673   3.492  10.509   7.950
 6240POPC   C4A25674   3.499  10.491   7.650
 6240POPC   C1B25675   3.553  10.277   8.550
 6240POPC   C2B25676   3.509  10.325   8.250
 6240POPC   C3B25677   3.538  10.274   7.950
 6240POPC   C4B25678   3.520  10.291   7.650
 6241POPC   NC325679  29.908  43.879   9.450
 6241POPC   PO425680  29.937  43.920   9.150
 6241POPC   GL125681  29.948  43.895   8.850
 6241POPC   GL225682  30.033  43.961   8.850
 6241POPC   C1A25683  29.943  43.899   8.550
 6241POPC   D2A25684  29.968  43.863   8.250
 6241POPC   C3A25685  29.883  43.928   7.950
 6241POPC   C4A25686  29.910  43.927   7.650
 6241POPC   C1B25687  30.150  43.945   8.550
 6241POPC   C2B25688  30.190  43.961   8.250
 6241POPC   C3B25689  30.120  43.964   7.950
 6241POPC   C4B25690  30.153  43.977   7.650
 6242POPC   NC325691   8.232   2.026   9.450
 6242POPC   PO425692   8.225   1.954   9.150
 6242POPC   GL125693   8.240   1.979   8.850
 6242POPC   GL225694   8.171   2.090   8.850
 6242POPC   C1A25695   8.152   1.984   8.550
 6242POPC   D2A25696   8.174   2.016   8.250
 6242POPC   C3A25697   8.232   1.959   7.950
 6242POPC   C4A25698   8.213   2.000   7.650
 6242POPC   C1B25699   8.094   2.185   8.550
 6242POPC   C2B25700   8.075   2.173   8.250
 6242POPC   C3B25701   8.099   2.176   7.950
 6242POPC   C4B25702   8.038   2.236   7.650
 6243POPC   NC325703  13.637  28.356   9.450
 6243POPC   PO425704  13.625  28.351   9.150
 6243POPC   GL125705  13.655  28.334   8.850
 6243POPC   GL225706  13.592  28.469   8.850
 6243POPC   C1A25707  13.637  28.398   8.550
 6243POPC   D2A25708  13.656  28.376   8.250
 6243POPC   C3A25709  13.607  28.336   7.950
 6243POPC   C4A25710  13.676  28.386   7.650
 6243POPC   C1B25711  13.621  28.644   8.550
 6243POPC   C2B25712  13.621  28.586   8.250
 6243POPC   C3B25713  13.580  28.572   7.950
 6243POPC   C4B25714  13.598  28.634   7.650
 6244POPC   NC325715  42.325   0.478   9.450
 6244POPC   PO425716  42.333   0.463   9.150
 6244POPC   GL125717  42.291   0.487   8.850
 6244POPC   GL225718  42.250   0.466   8.850
 6244POPC   C1A25719  42.334   0.401   8.550
 6244POPC   D2A25720  42.384   0.393   8.250
 6244POPC   C3A25721  42.330   0.391   7.950
 6244POPC   C4A25722  42.300   0.474   7.650
 6244POPC   C1B25723  42.081   0.392   8.550
 6244POPC   C2B25724  42.132   0.428   8.250
 6244POPC   C3B25725  42.100   0.412   7.950
 6244POPC   C4B25726  42.091   0.439   7.650
 6245POPC   NC325727  18.284  10.518   9.450
 6245POPC   PO425728  18.332  10.552   9.150
 6245POPC   GL125729  18.324  10.545   8.850
 6245POPC   GL225730  18.371  10.513   8.850
 6245POPC   C1A25731  18.253  10.570   8.550
 6245POPC   D2A25732  18.283  10.476   8.250
 6245POPC   C3A25733  18.259  10.534   7.950
 6245POPC   C4A25734  18.261  10.558   7.650
 6245POPC   C1B25735  18.531  10.561   8.550
 6245POPC   C2B25736  18.559  10.552   8.250
 6245POPC   C3B25737  18.490  10.567   7.950
 6245POPC   C4B25738  18.525  10.612   7.650
 6246POPC   NC325739  23.756   8.213   9.450
 6246POPC   PO425740  23.677   8.204   9.150
 6246POPC   GL125741  23.696   8.147   8.850
 6246POPC   GL225742  23.578   8.157   8.850
 6246POPC   C1A25743  23.675   8.237   8.550
 6246POPC   D2A25744  23.738   8.150   8.250
 6246POPC   C3A25745  23.678   8.152   7.950
 6246POPC   C4A25746  23.739   8.177   7.650
 6246POPC   C1B25747  23.491   8.088   8.550
 6246POPC   C2B25748  23.556   8.038   8.250
 6246POPC   C3B25749  23.524   8.038   7.950
 6246POPC   C4B25750  23.516   8.067   7.650
 6247POPC   NC325751   3.584  40.761   9.450
 6247POPC   PO425752   3.587  40.740   9.150
 6247POPC   GL125753   3.575  40.751   8.850
 6247POPC   GL225754   3.622  40.796   8.850
 6247POPC   C1A25755   3.581  40.788   8.550
 6247POPC   D2A25756   3.557  40.826   8.250
 6247POPC   C3A25757   3.583  40.748   7.950
 6247POPC   C4A25758   3.505  40.812   7.650
 6247POPC   C1B25759   3.817  40.815   8.550
 6247POPC   C2B25760   3.769  40.749   8.250
 6247POPC   C3B25761   3.773  40.824   7.950
 6247POPC   C4B25762   3.782  40.762   7.650
 6248POPC   NC325763  26.016   1.191   9.450
 6248POPC   PO425764  25.994   1.177   9.150
 6248POPC   GL125765  26.050   1.260   8.850
 6248POPC   GL225766  26.061   1.118   8.850
 6248POPC   C1A25767  26.058   1.201   8.550
 6248POPC   D2A25768  26.015   1.208   8.250
 6248POPC   C3A25769  25.999   1.262   7.950
 6248POPC   C4A25770  26.022   1.213   7.650
 6248POPC   C1B25771  26.098   0.964   8.550
 6248POPC   C2B25772  26.134   0.995   8.250
 6248POPC   C3B25773  26.050   0.965   7.950
 6248POPC   C4B25774  26.056   0.945   7.650
 6249POPC   NC325775   5.897  13.616   9.450
 6249POPC   PO425776   5.884  13.592   9.150
 6249POPC   GL125777   5.847  13.650   8.850
 6249POPC   GL225778   5.737  13.681   8.850
 6249POPC   C1A25779   5.874  13.664   8.550
 6249POPC   D2A25780   5.878  13.630   8.250
 6249POPC   C3A25781   5.907  13.621   7.950
 6249POPC   C4A25782   5.825  13.608   7.650
 6249POPC   C1B25783   5.697  13.809   8.550
 6249POPC   C2B25784   5.714  13.766   8.250
 6249POPC   C3B25785   5.659  13.807   7.950
 6249POPC   C4B25786   5.651  13.845   7.650
 6250POPC   NC325787  23.677  20.566   9.450
 6250POPC   PO425788  23.759  20.602   9.150
 6250POPC   GL125789  23.687  20.588   8.850
 6250POPC   GL225790  23.818  20.534   8.850
 6250POPC   C1A25791  23.707  20.600   8.550
 6250POPC   D2A25792  23.747  20.618   8.250
 6250POPC   C3A25793  23.670  20.575   7.950
 6250POPC   C4A25794  23.733  20.658   7.650
 6250POPC   C1B25795  23.950  20.451   8.550
 6250POPC   C2B25796  23.866  20.479   8.250
 6250POPC   C3B25797  23.932  20.432   7.950
 6250POPC   C4B25798  23.892  20.456   7.650
 6251POPC   NC325799  21.367  15.152   9.450
 6251POPC   PO425800  21.393  15.210   9.150
 6251POPC   GL125801  21.376  15.220   8.850
 6251POPC   GL225802  21.232  15.198   8.850
 6251POPC   C1A25803  21.398  15.208   8.550
 6251POPC   D2A25804  21.352  15.213   8.250
 6251POPC   C3A25805  21.366  15.198   7.950
 6251POPC   C4A25806  21.344  15.160   7.650
 6251POPC   C1B25807  21.151  15.241   8.550
 6251POPC   C2B25808  21.109  15.291   8.250
 6251POPC   C3B25809  21.125  15.230   7.950
 6251POPC   C4B25810  21.176  15.229   7.650
 6252POPC   NC325811  29.963  30.710   9.450
 6252POPC   PO425812  29.902  30.696   9.150
 6252POPC   GL125813  29.906  30.661   8.850
 6252POPC   GL225814  29.881  30.798   8.850
 6252POPC   C1A25815  29.942  30.701   8.550
 6252POPC   D2A25816  29.941  30.703   8.250
 6252POPC   C3A25817  29.956  30.669   7.950
 6252POPC   C4A25818  29.944  30.651   7.650
 6252POPC   C1B25819  29.770  30.875   8.550
 6252POPC   C2B25820  29.742  30.843   8.250
 6252POPC   C3B25821  29.778  30.827   7.950
 6252POPC   C4B25822  29.776  30.870   7.650
 6253POPC   NC325823  11.283   6.649   9.450
 6253POPC   PO425824  11.294   6.686   9.150
 6253POPC   GL125825  11.305   6.672   8.850
 6253POPC   GL225826  11.287   6.536   8.850
 6253POPC   C1A25827  11.334   6.606   8.550
 6253POPC   D2A25828  11.257   6.685   8.250
 6253POPC   C3A25829  11.319   6.636   7.950
 6253POPC   C4A25830  11.345   6.653   7.650
 6253POPC   C1B25831  11.320   6.421   8.550
 6253POPC   C2B25832  11.325   6.420   8.250
 6253POPC   C3B25833  11.252   6.424   7.950
 6253POPC   C4B25834  11.285   6.347   7.650
 6254POPC   NC325835   5.063   7.401   9.450
 6254POPC   PO425836   5.085   7.438   9.150
 6254POPC   GL125837   5.108   7.398   8.850
 6254POPC   GL225838   4.956   7.439   8.850
 6254POPC   C1A25839   5.124   7.468   8.550
 6254POPC   D2A25840   5.059   7.420   8.250
 6254POPC   C3A25841   5.078   7.439   7.950
 6254POPC   C4A25842   5.129   7.387   7.650
 6254POPC   C1B25843   4.854   7.369   8.550
 6254POPC   C2B25844   4.878   7.433   8.250
 6254POPC   C3B25845   4.865   7.358   7.950
 6254POPC   C4B25846   4.842   7.403   7.650
 6255POPC   NC325847  10.571  24.459   9.450
 6255POPC   PO425848  10.512  24.501   9.150
 6255POPC   GL125849  10.549  24.462   8.850
 6255POPC   GL225850  10.447  24.342   8.850
 6255POPC   C1A25851  10.493  24.445   8.550
 6255POPC   D2A25852  10.525  24.540   8.250
 6255POPC   C3A25853  10.480  24.495   7.950
 6255POPC   C4A25854  10.509  24.453   7.650
 6255POPC   C1B25855  10.420  24.269   8.550
 6255POPC   C2B25856  10.376  24.268   8.250
 6255POPC   C3B25857  10.324  24.295   7.950
 6255POPC   C4B25858  10.337  24.314   7.650
 6256POPC   NC325859   2.791  22.127   9.450
 6256POPC   PO425860   2.808  22.183   9.150
 6256POPC   GL125861   2.761  22.143   8.850
 6256POPC   GL225862   2.753  22.060   8.850
 6256POPC   C1A25863   2.743  22.169   8.550
 6256POPC   D2A25864   2.761  22.193   8.250
 6256POPC   C3A25865   2.769  22.197   7.950
 6256POPC   C4A25866   2.766  22.154   7.650
 6256POPC   C1B25867   2.792  21.959   8.550
 6256POPC   C2B25868   2.746  21.915   8.250
 6256POPC   C3B25869   2.808  21.890   7.950
 6256POPC   C4B25870   2.811  21.927   7.650
 6257POPC   NC325871  14.405   5.064   9.450
 6257POPC   PO425872  14.449   5.119   9.150
 6257POPC   GL125873  14.392   5.143   8.850
 6257POPC   GL225874  14.330   5.025   8.850
 6257POPC   C1A25875  14.422   5.136   8.550
 6257POPC   D2A25876  14.387   5.087   8.250
 6257POPC   C3A25877  14.409   5.061   7.950
 6257POPC   C4A25878  14.417   5.093   7.650
 6257POPC   C1B25879  14.172   4.965   8.550
 6257POPC   C2B25880  14.215   4.939   8.250
 6257POPC   C3B25881  14.238   4.882   7.950
 6257POPC   C4B25882  14.226   4.977   7.650
 6258POPC   NC325883  41.542   1.993   9.450
 6258POPC   PO425884  41.535   1.986   9.150
 6258POPC   GL125885  41.517   1.964   8.850
 6258POPC   GL225886  41.488   1.952   8.850
 6258POPC   C1A25887  41.555   1.947   8.550
 6258POPC   D2A25888  41.589   1.954   8.250
 6258POPC   C3A25889  41.567   2.017   7.950
 6258POPC   C4A25890  41.568   2.023   7.650
 6258POPC   C1B25891  41.296   1.881   8.550
 6258POPC   C2B25892  41.309   1.853   8.250
 6258POPC   C3B25893  41.347   1.815   7.950
 6258POPC   C4B25894  41.359   1.910   7.650
 6259POPC   NC325895   5.860  14.435   9.450
 6259POPC   PO425896   5.915  14.358   9.150
 6259POPC   GL125897   5.870  14.424   8.850
 6259POPC   GL225898   5.771  14.446   8.850
 6259POPC   C1A25899   5.860  14.389   8.550
 6259POPC   D2A25900   5.884  14.417   8.250
 6259POPC   C3A25901   5.838  14.452   7.950
 6259POPC   C4A25902   5.873  14.421   7.650
 6259POPC   C1B25903   5.620  14.513   8.550
 6259POPC   C2B25904   5.644  14.507   8.250
 6259POPC   C3B25905   5.642  14.517   7.950
 6259POPC   C4B25906   5.696  14.537   7.650
 6260POPC   NC325907  27.635  30.697   9.450
 6260POPC   PO425908  27.566  30.670   9.150
 6260POPC   GL125909  27.605  30.657   8.850
 6260POPC   GL225910  27.507  30.623   8.850
 6260POPC   C1A25911  27.580  30.741   8.550
 6260POPC   D2A25912  27.589  30.726   8.250
 6260POPC   C3A25913  27.613  30.720   7.950
 6260POPC   C4A25914  27.584  30.708   7.650
 6260POPC   C1B25915  27.464  30.459   8.550
 6260POPC   C2B25916  27.420  30.525   8.250
 6260POPC   C3B25917  27.436  30.453   7.950
 6260POPC   C4B25918  27.420  30.537   7.650
 6261POPC   NC325919  23.727  29.933   9.450
 6261POPC   PO425920  23.713  29.936   9.150
 6261POPC   GL125921  23.693  29.951   8.850
 6261POPC   GL225922  23.555  29.839   8.850
 6261POPC   C1A25923  23.714  29.908   8.550
 6261POPC   D2A25924  23.740  29.956   8.250
 6261POPC   C3A25925  23.682  29.914   7.950
 6261POPC   C4A25926  23.707  29.923   7.650
 6261POPC   C1B25927  23.497  29.828   8.550
 6261POPC   C2B25928  23.451  29.840   8.250
 6261POPC   C3B25929  23.508  29.813   7.950
 6261POPC   C4B25930  23.448  29.811   7.650
 6262POPC   NC325931  11.250  40.027   9.450
 6262POPC   PO425932  11.303  40.029   9.150
 6262POPC   GL125933  11.264  39.999   8.850
 6262POPC   GL225934  11.458  40.049   8.850
 6262POPC   C1A25935  11.286  39.977   8.550
 6262POPC   D2A25936  11.331  40.054   8.250
 6262POPC   C3A25937  11.344  40.022   7.950
 6262POPC   C4A25938  11.260  40.009   7.650
 6262POPC   C1B25939  11.498  40.109   8.550
 6262POPC   C2B25940  11.511  40.036   8.250
 6262POPC   C3B25941  11.556  40.089   7.950
 6262POPC   C4B25942  11.526  40.122   7.650
 6263POPC   NC325943  31.518   6.602   9.450
 6263POPC   PO425944  31.444   6.649   9.150
 6263POPC   GL125945  31.484   6.677   8.850
 6263POPC   GL225946  31.461   6.724   8.850
 6263POPC   C1A25947  31.438   6.644   8.550
 6263POPC   D2A25948  31.432   6.604   8.250
 6263POPC   C3A25949  31.424   6.633   7.950
 6263POPC   C4A25950  31.510   6.656   7.650
 6263POPC   C1B25951  31.502   6.889   8.550
 6263POPC   C2B25952  31.516   6.923   8.250
 6263POPC   C3B25953  31.489   6.878   7.950
 6263POPC   C4B25954  31.527   6.875   7.650
 6264POPC   NC325955   5.059  18.306   9.450
 6264POPC   PO425956   5.104  18.324   9.150
 6264POPC   GL125957   5.111  18.271   8.850
 6264POPC   GL225958   4.971  18.281   8.850
 6264POPC   C1A25959   5.109  18.294   8.550
 6264POPC   D2A25960   5.116  18.320   8.250
 6264POPC   C3A25961   5.051  18.251   7.950
 6264POPC   C4A25962   5.110  18.259   7.650
 6264POPC   C1B25963   4.887  18.321   8.550
 6264POPC   C2B25964   4.836  18.342   8.250
 6264POPC   C3B25965   4.849  18.344   7.950
 6264POPC   C4B25966   4.851  18.339   7.650
 6265POPC   NC325967  21.411  24.495   9.450
 6265POPC   PO425968  21.374  24.473   9.150
 6265POPC   GL125969  21.360  24.482   8.850
 6265POPC   GL225970  21.372  24.375   8.850
 6265POPC   C1A25971  21.344  24.518   8.550
 6265POPC   D2A25972  21.350  24.527   8.250
 6265POPC   C3A25973  21.346  24.538   7.950
 6265POPC   C4A25974  21.385  24.531   7.650
 6265POPC   C1B25975  21.396  24.240   8.550
 6265POPC   C2B25976  21.335  24.240   8.250
 6265POPC   C3B25977  21.389  24.211   7.950
 6265POPC   C4B25978  21.377  24.239   7.650
 6266POPC   NC325979  12.869  38.459   9.450
 6266POPC   PO425980  12.825  38.486   9.150
 6266POPC   GL125981  12.840  38.427   8.850
 6266POPC   GL225982  12.982  38.436   8.850
 6266POPC   C1A25983  12.858  38.427   8.550
 6266POPC   D2A25984  12.809  38.459   8.250
 6266POPC   C3A25985  12.889  38.407   7.950
 6266POPC   C4A25986  12.871  38.439   7.650
 6266POPC   C1B25987  13.116  38.459   8.550
 6266POPC   C2B25988  13.074  38.417   8.250
 6266POPC   C3B25989  13.053  38.435   7.950
 6266POPC   C4B25990  13.117  38.425   7.650
 6267POPC   NC325991  15.964  43.879   9.450
 6267POPC   PO425992  15.997  43.922   9.150
 6267POPC   GL125993  15.930  43.936   8.850
 6267POPC   GL225994  15.799  43.889   8.850
 6267POPC   C1A25995  15.915  43.912   8.550
 6267POPC   D2A25996  15.989  43.883   8.250
 6267POPC   C3A25997  15.991  43.898   7.950
 6267POPC   C4A25998  15.933  43.858   7.650
 6267POPC   C1B25999  15.733  43.810   8.550
 6267POPC   C2B26000  15.747  43.882   8.250
 6267POPC   C3B26001  15.683  43.837   7.950
 6267POPC   C4B26002  15.660  43.811   7.650
 6268POPC   NC326003  32.243  20.613   9.450
 6268POPC   PO426004  32.213  20.604   9.150
 6268POPC   GL126005  32.264  20.585   8.850
 6268POPC   GL226006  32.192  20.724   8.850
 6268POPC   C1A26007  32.261  20.580   8.550
 6268POPC   D2A26008  32.245  20.627   8.250
 6268POPC   C3A26009  32.265  20.654   7.950
 6268POPC   C4A26010  32.297  20.616   7.650
 6268POPC   C1B26011  32.096  20.810   8.550
 6268POPC   C2B26012  32.052  20.776   8.250
 6268POPC   C3B26013  32.041  20.782   7.950
 6268POPC   C4B26014  32.059  20.768   7.650
 6269POPC   NC326015   4.299  10.476   9.450
 6269POPC   PO426016   4.353  10.488   9.150
 6269POPC   GL126017   4.321  10.486   8.850
 6269POPC   GL226018   4.452  10.538   8.850
 6269POPC   C1A26019   4.273  10.487   8.550
 6269POPC   D2A26020   4.274  10.556   8.250
 6269POPC   C3A26021   4.360  10.560   7.950
 6269POPC   C4A26022   4.334  10.563   7.650
 6269POPC   C1B26023   4.588  10.618   8.550
 6269POPC   C2B26024   4.591  10.639   8.250
 6269POPC   C3B26025   4.514  10.601   7.950
 6269POPC   C4B26026   4.543  10.644   7.650
 6270POPC   NC326027  44.674  38.466   9.450
 6270POPC   PO426028  44.679  38.487   9.150
 6270POPC   GL126029  44.705  38.435   8.850
 6270POPC   GL226030  44.654  38.384   8.850
 6270POPC   C1A26031  44.639  38.453   8.550
 6270POPC   D2A26032  44.666  38.464   8.250
 6270POPC   C3A26033  44.642  38.485   7.950
 6270POPC   C4A26034  44.711  38.467   7.650
 6270POPC   C1B26035  44.608  38.222   8.550
 6270POPC   C2B26036  44.633  38.234   8.250
 6270POPC   C3B26037  44.614  38.236   7.950
 6270POPC   C4B26038  44.624  38.203   7.650
 6271POPC   NC326039  37.698   4.312   9.450
 6271POPC   PO426040  37.707   4.320   9.150
 6271POPC   GL126041  37.678   4.284   8.850
 6271POPC   GL226042  37.743   4.267   8.850
 6271POPC   C1A26043  37.663   4.328   8.550
 6271POPC   D2A26044  37.691   4.284   8.250
 6271POPC   C3A26045  37.712   4.339   7.950
 6271POPC   C4A26046  37.661   4.314   7.650
 6271POPC   C1B26047  37.937   4.232   8.550
 6271POPC   C2B26048  37.898   4.188   8.250
 6271POPC   C3B26049  37.931   4.202   7.950
 6271POPC   C4B26050  37.903   4.213   7.650
 6272POPC   NC326051   6.628  12.052   9.450
 6272POPC   PO426052   6.602  12.071   9.150
 6272POPC   GL126053   6.603  12.062   8.850
 6272POPC   GL226054   6.572  12.192   8.850
 6272POPC   C1A26055   6.633  12.051   8.550
 6272POPC   D2A26056   6.646  12.076   8.250
 6272POPC   C3A26057   6.622  12.029   7.950
 6272POPC   C4A26058   6.662  12.044   7.650
 6272POPC   C1B26059   6.495  12.249   8.550
 6272POPC   C2B26060   6.462  12.214   8.250
 6272POPC   C3B26061   6.439  12.285   7.950
 6272POPC   C4B26062   6.450  12.281   7.650
 6273POPC   NC326063  33.813  33.011   9.450
 6273POPC   PO426064  33.783  33.069   9.150
 6273POPC   GL126065  33.845  33.008   8.850
 6273POPC   GL226066  33.863  32.956   8.850
 6273POPC   C1A26067  33.843  33.032   8.550
 6273POPC   D2A26068  33.838  32.996   8.250
 6273POPC   C3A26069  33.803  33.023   7.950
 6273POPC   C4A26070  33.813  33.006   7.650
 6273POPC   C1B26071  33.936  32.808   8.550
 6273POPC   C2B26072  34.019  32.870   8.250
 6273POPC   C3B26073  33.962  32.825   7.950
 6273POPC   C4B26074  34.011  32.868   7.650
 6274POPC   NC326075  18.280  26.787   9.450
 6274POPC   PO426076  18.274  26.854   9.150
 6274POPC   GL126077  18.307  26.863   8.850
 6274POPC   GL226078  18.435  26.796   8.850
 6274POPC   C1A26079  18.236  26.842   8.550
 6274POPC   D2A26080  18.266  26.843   8.250
 6274POPC   C3A26081  18.275  26.807   7.950
 6274POPC   C4A26082  18.313  26.821   7.650
 6274POPC   C1B26083  18.534  26.683   8.550
 6274POPC   C2B26084  18.527  26.645   8.250
 6274POPC   C3B26085  18.529  26.682   7.950
 6274POPC   C4B26086  18.523  26.719   7.650
 6275POPC   NC326087   7.411   1.960   9.450
 6275POPC   PO426088   7.416   1.977   9.150
 6275POPC   GL126089   7.445   2.029   8.850
 6275POPC   GL226090   7.325   1.983   8.850
 6275POPC   C1A26091   7.398   1.945   8.550
 6275POPC   D2A26092   7.432   2.033   8.250
 6275POPC   C3A26093   7.430   1.992   7.950
 6275POPC   C4A26094   7.466   2.014   7.650
 6275POPC   C1B26095   7.220   2.054   8.550
 6275POPC   C2B26096   7.187   2.017   8.250
 6275POPC   C3B26097   7.130   2.031   7.950
 6275POPC   C4B26098   7.181   2.082   7.650
 6276POPC   NC326099  26.843   8.219   9.450
 6276POPC   PO426100  26.859   8.182   9.150
 6276POPC   GL126101  26.769   8.163   8.850
 6276POPC   GL226102  26.808   8.055   8.850
 6276POPC   C1A26103  26.798   8.199   8.550
 6276POPC   D2A26104  26.828   8.215   8.250
 6276POPC   C3A26105  26.792   8.155   7.950
 6276POPC   C4A26106  26.823   8.196   7.650
 6276POPC   C1B26107  26.704   7.955   8.550
 6276POPC   C2B26108  26.756   7.987   8.250
 6276POPC   C3B26109  26.761   7.926   7.950
 6276POPC   C4B26110  26.761   7.929   7.650
 6277POPC   NC326111  23.733   2.722   9.450
 6277POPC   PO426112  23.674   2.769   9.150
 6277POPC   GL126113  23.724   2.720   8.850
 6277POPC   GL226114  23.841   2.657   8.850
 6277POPC   C1A26115  23.742   2.760   8.550
 6277POPC   D2A26116  23.673   2.774   8.250
 6277POPC   C3A26117  23.672   2.721   7.950
 6277POPC   C4A26118  23.705   2.744   7.650
 6277POPC   C1B26119  23.925   2.612   8.550
 6277POPC   C2B26120  23.954   2.630   8.250
 6277POPC   C3B26121  23.888   2.587   7.950
 6277POPC   C4B26122  23.949   2.650   7.650
 6278POPC   NC326123  43.142  12.088   9.450
 6278POPC   PO426124  43.092  12.046   9.150
 6278POPC   GL126125  43.106  12.082   8.850
 6278POPC   GL226126  43.260  12.082   8.850
 6278POPC   C1A26127  43.122  12.043   8.550
 6278POPC   D2A26128  43.109  12.117   8.250
 6278POPC   C3A26129  43.099  12.083   7.950
 6278POPC   C4A26130  43.091  12.102   7.650
 6278POPC   C1B26131  43.396  12.086   8.550
 6278POPC   C2B26132  43.311  12.052   8.250
 6278POPC   C3B26133  43.338  12.044   7.950
 6278POPC   C4B26134  43.390  12.035   7.650
 6279POPC   NC326135   2.776  29.887   9.450
 6279POPC   PO426136   2.723  29.913   9.150
 6279POPC   GL126137   2.724  29.888   8.850
 6279POPC   GL226138   2.663  30.013   8.850
 6279POPC   C1A26139   2.718  29.927   8.550
 6279POPC   D2A26140   2.729  29.891   8.250
 6279POPC   C3A26141   2.815  29.961   7.950
 6279POPC   C4A26142   2.810  29.943   7.650
 6279POPC   C1B26143   2.612  30.066   8.550
 6279POPC   C2B26144   2.597  30.064   8.250
 6279POPC   C3B26145   2.621  30.115   7.950
 6279POPC   C4B26146   2.545  30.041   7.650
 6280POPC   NC326147   3.531   1.221   9.450
 6280POPC   PO426148   3.557   1.243   9.150
 6280POPC   GL126149   3.538   1.205   8.850
 6280POPC   GL226150   3.645   1.120   8.850
 6280POPC   C1A26151   3.564   1.201   8.550
 6280POPC   D2A26152   3.527   1.226   8.250
 6280POPC   C3A26153   3.507   1.259   7.950
 6280POPC   C4A26154   3.502   1.200   7.650
 6280POPC   C1B26155   3.700   1.011   8.550
 6280POPC   C2B26156   3.738   1.035   8.250
 6280POPC   C3B26157   3.682   1.035   7.950
 6280POPC   C4B26158   3.757   1.068   7.650
 6281POPC   NC326159   5.044  24.458   9.450
 6281POPC   PO426160   5.051  24.456   9.150
 6281POPC   GL126161   5.077  24.508   8.850
 6281POPC   GL226162   5.000  24.420   8.850
 6281POPC   C1A26163   5.093  24.511   8.550
 6281POPC   D2A26164   5.135  24.493   8.250
 6281POPC   C3A26165   5.118  24.458   7.950
 6281POPC   C4A26166   5.121  24.530   7.650
 6281POPC   C1B26167   4.886  24.296   8.550
 6281POPC   C2B26168   4.876  24.292   8.250
 6281POPC   C3B26169   4.909  24.279   7.950
 6281POPC   C4B26170   4.944  24.288   7.650
 6282POPC   NC326171  18.321  14.406   9.450
 6282POPC   PO426172  18.249  14.423   9.150
 6282POPC   GL126173  18.277  14.410   8.850
 6282POPC   GL226174  18.154  14.349   8.850
 6282POPC   C1A26175  18.291  14.394   8.550
 6282POPC   D2A26176  18.283  14.403   8.250
 6282POPC   C3A26177  18.240  14.373   7.950
 6282POPC   C4A26178  18.275  14.386   7.650
 6282POPC   C1B26179  18.014  14.352   8.550
 6282POPC   C2B26180  18.045  14.278   8.250
 6282POPC   C3B26181  18.057  14.329   7.950
 6282POPC   C4B26182  18.012  14.339   7.650
 6283POPC   NC326183   5.886  36.138   9.450
 6283POPC   PO426184   5.896  36.130   9.150
 6283POPC   GL126185   5.822  36.128   8.850
 6283POPC   GL226186   5.708  36.129   8.850
 6283POPC   C1A26187   5.840  36.158   8.550
 6283POPC   D2A26188   5.887  36.160   8.250
 6283POPC   C3A26189   5.895  36.090   7.950
 6283POPC   C4A26190   5.911  36.119   7.650
 6283POPC   C1B26191   5.590  36.128   8.550
 6283POPC   C2B26192   5.582  36.161   8.250
 6283POPC   C3B26193   5.609  36.197   7.950
 6283POPC   C4B26194   5.642  36.194   7.650
 6284POPC   NC326195  23.748  43.127   9.450
 6284POPC   PO426196  23.736  43.100   9.150
 6284POPC   GL126197  23.761  43.062   8.850
 6284POPC   GL226198  23.593  42.981   8.850
 6284POPC   C1A26199  23.695  43.067   8.550
 6284POPC   D2A26200  23.710  43.099   8.250
 6284POPC   C3A26201  23.697  43.078   7.950
 6284POPC   C4A26202  23.711  43.138   7.650
 6284POPC   C1B26203  23.575  42.976   8.550
 6284POPC   C2B26204  23.544  42.907   8.250
 6284POPC   C3B26205  23.518  42.915   7.950
 6284POPC   C4B26206  23.536  42.936   7.650
 6285POPC   NC326207  44.679  22.919   9.450
 6285POPC   PO426208  44.620  22.915   9.150
 6285POPC   GL126209  44.616  22.898   8.850
 6285POPC   GL226210  44.541  22.998   8.850
 6285POPC   C1A26211  44.640  22.957   8.550
 6285POPC   D2A26212  44.712  22.889   8.250
 6285POPC   C3A26213  44.697  22.979   7.950
 6285POPC   C4A26214  44.672  22.963   7.650
 6285POPC   C1B26215  44.402  22.944   8.550
 6285POPC   C2B26216  44.389  22.969   8.250
 6285POPC   C3B26217  44.379  22.945   7.950
 6285POPC   C4B26218  44.409  23.030   7.650
 6286POPC   NC326219  33.060  13.661   9.450
 6286POPC   PO426220  33.013  13.610   9.150
 6286POPC   GL126221  33.034  13.583   8.850
 6286POPC   GL226222  33.137  13.643   8.850
 6286POPC   C1A26223  33.066  13.587   8.550
 6286POPC   D2A26224  33.069  13.651   8.250
 6286POPC   C3A26225  32.987  13.646   7.950
 6286POPC   C4A26226  33.052  13.630   7.650
 6286POPC   C1B26227  33.270  13.701   8.550
 6286POPC   C2B26228  33.297  13.706   8.250
 6286POPC   C3B26229  33.300  13.648   7.950
 6286POPC   C4B26230  33.237  13.721   7.650
 6287POPC   NC326231  16.751   5.127   9.450
 6287POPC   PO426232  16.755   5.126   9.150
 6287POPC   GL126233  16.730   5.100   8.850
 6287POPC   GL226234  16.609   5.202   8.850
 6287POPC   C1A26235  16.744   5.065   8.550
 6287POPC   D2A26236  16.775   5.071   8.250
 6287POPC   C3A26237  16.758   5.076   7.950
 6287POPC   C4A26238  16.751   5.102   7.650
 6287POPC   C1B26239  16.591   5.295   8.550
 6287POPC   C2B26240  16.586   5.311   8.250
 6287POPC   C3B26241  16.540   5.255   7.950
 6287POPC   C4B26242  16.509   5.251   7.650
 6288POPC   NC326243  11.285   2.758   9.450
 6288POPC   PO426244  11.307   2.814   9.150
 6288POPC   GL126245  11.300   2.760   8.850
 6288POPC   GL226246  11.199   2.683   8.850
 6288POPC   C1A26247  11.262   2.754   8.550
 6288POPC   D2A26248  11.341   2.792   8.250
 6288POPC   C3A26249  11.280   2.733   7.950
 6288POPC   C4A26250  11.292   2.799   7.650
 6288POPC   C1B26251  11.130   2.542   8.550
 6288POPC   C2B26252  11.089   2.568   8.250
 6288POPC   C3B26253  11.119   2.562   7.950
 6288POPC   C4B26254  11.094   2.598   7.650
 6289POPC   NC326255  26.034   0.413   9.450
 6289POPC   PO426256  26.066   0.477   9.150
 6289POPC   GL126257  26.043   0.435   8.850
 6289POPC   GL226258  25.960   0.306   8.850
 6289POPC   C1A26259  26.001   0.472   8.550
 6289POPC   D2A26260  26.019   0.401   8.250
 6289POPC   C3A26261  25.995   0.441   7.950
 6289POPC   C4A26262  26.074   0.438   7.650
 6289POPC   C1B26263  25.975   0.223   8.550
 6289POPC   C2B26264  25.891   0.252   8.250
 6289POPC   C3B26265  25.925   0.234   7.950
 6289POPC   C4B26266  25.885   0.163   7.650
 6290POPC   NC326267  22.188  39.964   9.450
 6290POPC   PO426268  22.206  40.018   9.150
 6290POPC   GL126269  22.205  40.043   8.850
 6290POPC   GL226270  22.103  40.159   8.850
 6290POPC   C1A26271  22.200  39.961   8.550
 6290POPC   D2A26272  22.193  40.033   8.250
 6290POPC   C3A26273  22.163  40.048   7.950
 6290POPC   C4A26274  22.169  40.022   7.650
 6290POPC   C1B26275  22.058  40.239   8.550
 6290POPC   C2B26276  22.086  40.199   8.250
 6290POPC   C3B26277  22.047  40.223   7.950
 6290POPC   C4B26278  22.021  40.186   7.650
 6291POPC   NC326279  41.587   2.721   9.450
 6291POPC   PO426280  41.584   2.777   9.150
 6291POPC   GL126281  41.562   2.716   8.850
 6291POPC   GL226282  41.466   2.796   8.850
 6291POPC   C1A26283  41.536   2.739   8.550
 6291POPC   D2A26284  41.528   2.759   8.250
 6291POPC   C3A26285  41.579   2.791   7.950
 6291POPC   C4A26286  41.544   2.800   7.650
 6291POPC   C1B26287  41.370   2.896   8.550
 6291POPC   C2B26288  41.326   2.873   8.250
 6291POPC   C3B26289  41.384   2.939   7.950
 6291POPC   C4B26290  41.386   2.883   7.650
 6292POPC   NC326291  32.288   1.224   9.450
 6292POPC   PO426292  32.232   1.180   9.150
 6292POPC   GL126293  32.251   1.195   8.850
 6292POPC   GL226294  32.123   1.197   8.850
 6292POPC   C1A26295  32.239   1.197   8.550
 6292POPC   D2A26296  32.212   1.248   8.250
 6292POPC   C3A26297  32.273   1.196   7.950
 6292POPC   C4A26298  32.264   1.199   7.650
 6292POPC   C1B26299  32.056   1.084   8.550
 6292POPC   C2B26300  32.061   1.135   8.250
 6292POPC   C3B26301  32.043   1.152   7.950
 6292POPC   C4B26302  31.990   1.076   7.650
 6293POPC   NC326303   6.647  26.828   9.450
 6293POPC   PO426304   6.681  26.862   9.150
 6293POPC   GL126305   6.630  26.856   8.850
 6293POPC   GL226306   6.610  26.974   8.850
 6293POPC   C1A26307   6.622  26.785   8.550
 6293POPC   D2A26308   6.694  26.864   8.250
 6293POPC   C3A26309   6.679  26.769   7.950
 6293POPC   C4A26310   6.626  26.773   7.650
 6293POPC   C1B26311   6.575  27.053   8.550
 6293POPC   C2B26312   6.592  27.016   8.250
 6293POPC   C3B26313   6.519  27.047   7.950
 6293POPC   C4B26314   6.604  27.009   7.650
 6294POPC   NC326315  17.513  39.272   9.450
 6294POPC   PO426316  17.555  39.199   9.150
 6294POPC   GL126317  17.533  39.238   8.850
 6294POPC   GL226318  17.602  39.232   8.850
 6294POPC   C1A26319  17.459  39.203   8.550
 6294POPC   D2A26320  17.465  39.245   8.250
 6294POPC   C3A26321  17.496  39.196   7.950
 6294POPC   C4A26322  17.556  39.183   7.650
 6294POPC   C1B26323  17.745  39.169   8.550
 6294POPC   C2B26324  17.777  39.218   8.250
 6294POPC   C3B26325  17.741  39.237   7.950
 6294POPC   C4B26326  17.750  39.239   7.650
 6295POPC   NC326327  18.271   9.762   9.450
 6295POPC   PO426328  18.261   9.786   9.150
 6295POPC   GL126329  18.302   9.754   8.850
 6295POPC   GL226330  18.408   9.666   8.850
 6295POPC   C1A26331  18.253   9.732   8.550
 6295POPC   D2A26332  18.263   9.705   8.250
 6295POPC   C3A26333  18.272   9.722   7.950
 6295POPC   C4A26334  18.329   9.715   7.650
 6295POPC   C1B26335  18.470   9.578   8.550
 6295POPC   C2B26336  18.467   9.576   8.250
 6295POPC   C3B26337  18.517   9.638   7.950
 6295POPC   C4B26338  18.468   9.579   7.650
 6296POPC   NC326339   2.784  19.024   9.450
 6296POPC   PO426340   2.718  19.082   9.150
 6296POPC   GL126341   2.767  19.077   8.850
 6296POPC   GL226342   2.879  19.142   8.850
 6296POPC   C1A26343   2.757  19.027   8.550
 6296POPC   D2A26344   2.794  19.083   8.250
 6296POPC   C3A26345   2.750  19.058   7.950
 6296POPC   C4A26346   2.785  19.010   7.650
 6296POPC   C1B26347   3.048  19.116   8.550
 6296POPC   C2B26348   3.051  19.114   8.250
 6296POPC   C3B26349   3.033  19.093   7.950
 6296POPC   C4B26350   2.999  19.163   7.650
 6297POPC   NC326351  24.482   0.439   9.450
 6297POPC   PO426352  24.482   0.468   9.150
 6297POPC   GL126353  24.472   0.430   8.850
 6297POPC   GL226354  24.603   0.510   8.850
 6297POPC   C1A26355  24.441   0.452   8.550
 6297POPC   D2A26356  24.526   0.397   8.250
 6297POPC   C3A26357  24.489   0.410   7.950
 6297POPC   C4A26358  24.491   0.454   7.650
 6297POPC   C1B26359  24.643   0.610   8.550
 6297POPC   C2B26360  24.654   0.611   8.250
 6297POPC   C3B26361  24.701   0.614   7.950
 6297POPC   C4B26362  24.711   0.609   7.650
 6298POPC   NC326363   8.244  32.238   9.450
 6298POPC   PO426364   8.223  32.255   9.150
 6298POPC   GL126365   8.240  32.199   8.850
 6298POPC   GL226366   8.114  32.267   8.850
 6298POPC   C1A26367   8.230  32.262   8.550
 6298POPC   D2A26368   8.226  32.255   8.250
 6298POPC   C3A26369   8.194  32.206   7.950
 6298POPC   C4A26370   8.182  32.206   7.650
 6298POPC   C1B26371   7.960  32.378   8.550
 6298POPC   C2B26372   7.954  32.377   8.250
 6298POPC   C3B26373   7.928  32.338   7.950
 6298POPC   C4B26374   7.975  32.377   7.650
 6299POPC   NC326375  19.808   1.166   9.450
 6299POPC   PO426376  19.848   1.184   9.150
 6299POPC   GL126377  19.857   1.239   8.850
 6299POPC   GL226378  19.699   1.271   8.850
 6299POPC   C1A26379  19.869   1.262   8.550
 6299POPC   D2A26380  19.788   1.233   8.250
 6299POPC   C3A26381  19.816   1.215   7.950
 6299POPC   C4A26382  19.789   1.213   7.650
 6299POPC   C1B26383  19.581   1.365   8.550
 6299POPC   C2B26384  19.584   1.298   8.250
 6299POPC   C3B26385  19.562   1.292   7.950
 6299POPC   C4B26386  19.563   1.307   7.650
 6300POPC   NC326387  10.552   8.192   9.450
 6300POPC   PO426388  10.474   8.240   9.150
 6300POPC   GL126389  10.540   8.185   8.850
 6300POPC   GL226390  10.642   8.163   8.850
 6300POPC   C1A26391  10.492   8.184   8.550
 6300POPC   D2A26392  10.572   8.173   8.250
 6300POPC   C3A26393  10.530   8.213   7.950
 6300POPC   C4A26394  10.563   8.150   7.650
 6300POPC   C1B26395  10.772   8.173   8.550
 6300POPC   C2B26396  10.790   8.159   8.250
 6300POPC   C3B26397  10.765   8.219   7.950
 6300POPC   C4B26398  10.791   8.198   7.650
 6301POPC   NC326399  43.870  15.957   9.450
 6301POPC   PO426400  43.934  15.988   9.150
 6301POPC   GL126401  43.856  15.951   8.850
 6301POPC   GL226402  44.027  16.021   8.850
 6301POPC   C1A26403  43.843  15.922   8.550
 6301POPC   D2A26404  43.908  15.988   8.250
 6301POPC   C3A26405  43.840  15.942   7.950
 6301POPC   C4A26406  43.844  15.937   7.650
 6301POPC   C1B26407  44.042  16.079   8.550
 6301POPC   C2B26408  44.132  16.077   8.250
 6301POPC   C3B26409  44.106  16.082   7.950
 6301POPC   C4B26410  44.095  16.149   7.650
 6302POPC   NC326411   4.308  29.118   9.450
 6302POPC   PO426412   4.278  29.169   9.150
 6302POPC   GL126413   4.322  29.136   8.850
 6302POPC   GL226414   4.370  29.232   8.850
 6302POPC   C1A26415   4.352  29.151   8.550
 6302POPC   D2A26416   4.362  29.170   8.250
 6302POPC   C3A26417   4.345  29.159   7.950
 6302POPC   C4A26418   4.361  29.177   7.650
 6302POPC   C1B26419   4.409  29.397   8.550
 6302POPC   C2B26420   4.456  29.331   8.250
 6302POPC   C3B26421   4.433  29.355   7.950
 6302POPC   C4B26422   4.451  29.328   7.650
 6303POPC   NC326423   1.203  18.274   9.450
 6303POPC   PO426424   1.244  18.276   9.150
 6303POPC   GL126425   1.187  18.270   8.850
 6303POPC   GL226426   1.270  18.179   8.850
 6303POPC   C1A26427   1.233  18.249   8.550
 6303POPC   D2A26428   1.202  18.282   8.250
 6303POPC   C3A26429   1.226  18.240   7.950
 6303POPC   C4A26430   1.174  18.245   7.650
 6303POPC   C1B26431   1.361  18.057   8.550
 6303POPC   C2B26432   1.421  18.074   8.250
 6303POPC   C3B26433   1.419  18.067   7.950
 6303POPC   C4B26434   1.424  18.121   7.650
 6304POPC   NC326435  36.901  13.638   9.450
 6304POPC   PO426436  36.863  13.632   9.150
 6304POPC   GL126437  36.874  13.670   8.850
 6304POPC   GL226438  36.935  13.523   8.850
 6304POPC   C1A26439  36.922  13.610   8.550
 6304POPC   D2A26440  36.881  13.649   8.250
 6304POPC   C3A26441  36.918  13.637   7.950
 6304POPC   C4A26442  36.857  13.611   7.650
 6304POPC   C1B26443  37.020  13.412   8.550
 6304POPC   C2B26444  36.996  13.420   8.250
 6304POPC   C3B26445  36.966  13.408   7.950
 6304POPC   C4B26446  37.031  13.386   7.650
 6305POPC   NC326447  36.903  35.334   9.450
 6305POPC   PO426448  36.951  35.344   9.150
 6305POPC   GL126449  36.874  35.304   8.850
 6305POPC   GL226450  37.074  35.429   8.850
 6305POPC   C1A26451  36.859  35.363   8.550
 6305POPC   D2A26452  36.862  35.322   8.250
 6305POPC   C3A26453  36.883  35.334   7.950
 6305POPC   C4A26454  36.878  35.339   7.650
 6305POPC   C1B26455  37.110  35.364   8.550
 6305POPC   C2B26456  37.191  35.444   8.250
 6305POPC   C3B26457  37.162  35.406   7.950
 6305POPC   C4B26458  37.102  35.387   7.650
 6306POPC   NC326459   4.365  26.076   9.450
 6306POPC   PO426460   4.355  26.035   9.150
 6306POPC   GL126461   4.330  26.019   8.850
 6306POPC   GL226462   4.351  25.914   8.850
 6306POPC   C1A26463   4.284  26.029   8.550
 6306POPC   D2A26464   4.319  26.016   8.250
 6306POPC   C3A26465   4.270  26.054   7.950
 6306POPC   C4A26466   4.315  26.087   7.650
 6306POPC   C1B26467   4.400  25.793   8.550
 6306POPC   C2B26468   4.390  25.830   8.250
 6306POPC   C3B26469   4.475  25.836   7.950
 6306POPC   C4B26470   4.421  25.789   7.650
 6307POPC   NC326471  22.944   1.180   9.450
 6307POPC   PO426472  22.945   1.216   9.150
 6307POPC   GL126473  22.964   1.236   8.850
 6307POPC   GL226474  22.846   1.170   8.850
 6307POPC   C1A26475  22.950   1.200   8.550
 6307POPC   D2A26476  22.968   1.187   8.250
 6307POPC   C3A26477  22.967   1.248   7.950
 6307POPC   C4A26478  22.950   1.205   7.650
 6307POPC   C1B26479  22.701   1.095   8.550
 6307POPC   C2B26480  22.761   1.053   8.250
 6307POPC   C3B26481  22.743   1.039   7.950
 6307POPC   C4B26482  22.746   1.054   7.650
 6308POPC   NC326483   5.869   1.260   9.450
 6308POPC   PO426484   5.911   1.172   9.150
 6308POPC   GL126485   5.831   1.219   8.850
 6308POPC   GL226486   5.716   1.179   8.850
 6308POPC   C1A26487   5.848   1.231   8.550
 6308POPC   D2A26488   5.831   1.225   8.250
 6308POPC   C3A26489   5.821   1.205   7.950
 6308POPC   C4A26490   5.888   1.184   7.650
 6308POPC   C1B26491   5.580   1.197   8.550
 6308POPC   C2B26492   5.660   1.251   8.250
 6308POPC   C3B26493   5.654   1.200   7.950
 6308POPC   C4B26494   5.654   1.190   7.650
 6309POPC   NC326495  25.268  22.169   9.450
 6309POPC   PO426496  25.307  22.133   9.150
 6309POPC   GL126497  25.228  22.153   8.850
 6309POPC   GL226498  25.321  22.297   8.850
 6309POPC   C1A26499  25.293  22.126   8.550
 6309POPC   D2A26500  25.231  22.125   8.250
 6309POPC   C3A26501  25.239  22.206   7.950
 6309POPC   C4A26502  25.270  22.191   7.650
 6309POPC   C1B26503  25.351  22.388   8.550
 6309POPC   C2B26504  25.355  22.436   8.250
 6309POPC   C3B26505  25.290  22.396   7.950
 6309POPC   C4B26506  25.313  22.420   7.650
 6310POPC   NC326507  40.019  36.925   9.450
 6310POPC   PO426508  40.048  36.914   9.150
 6310POPC   GL126509  40.017  36.894   8.850
 6310POPC   GL226510  40.019  36.828   8.850
 6310POPC   C1A26511  39.974  36.895   8.550
 6310POPC   D2A26512  40.024  36.918   8.250
 6310POPC   C3A26513  40.033  36.944   7.950
 6310POPC   C4A26514  39.992  36.858   7.650
 6310POPC   C1B26515  39.965  36.641   8.550
 6310POPC   C2B26516  39.963  36.622   8.250
 6310POPC   C3B26517  39.956  36.676   7.950
 6310POPC   C4B26518  40.020  36.636   7.650
 6311POPC   NC326519   1.993  13.618   9.450
 6311POPC   PO426520   2.035  13.654   9.150
 6311POPC   GL126521   2.004  13.610   8.850
 6311POPC   GL226522   1.926  13.511   8.850
 6311POPC   C1A26523   1.957  13.609   8.550
 6311POPC   D2A26524   1.954  13.614   8.250
 6311POPC   C3A26525   1.963  13.599   7.950
 6311POPC   C4A26526   1.986  13.621   7.650
 6311POPC   C1B26527   1.795  13.463   8.550
 6311POPC   C2B26528   1.795  13.497   8.250
 6311POPC   C3B26529   1.834  13.494   7.950
 6311POPC   C4B26530   1.848  13.449   7.650
 6312POPC   NC326531  27.621   1.201   9.450
 6312POPC   PO426532  27.547   1.263   9.150
 6312POPC   GL126533  27.585   1.165   8.850
 6312POPC   GL226534  27.516   1.243   8.850
 6312POPC   C1A26535  27.599   1.257   8.550
 6312POPC   D2A26536  27.564   1.173   8.250
 6312POPC   C3A26537  27.588   1.166   7.950
 6312POPC   C4A26538  27.619   1.189   7.650
 6312POPC   C1B26539  27.377   1.214   8.550
 6312POPC   C2B26540  27.306   1.225   8.250
 6312POPC   C3B26541  27.355   1.209   7.950
 6312POPC   C4B26542  27.361   1.152   7.650
 6313POPC   NC326543  33.830  35.328   9.450
 6313POPC   PO426544  33.808  35.329   9.150
 6313POPC   GL126545  33.779  35.381   8.850
 6313POPC   GL226546  33.899  35.247   8.850
 6313POPC   C1A26547  33.778  35.399   8.550
 6313POPC   D2A26548  33.772  35.310   8.250
 6313POPC   C3A26549  33.771  35.352   7.950
 6313POPC   C4A26550  33.850  35.389   7.650
 6313POPC   C1B26551  33.904  35.105   8.550
 6313POPC   C2B26552  33.923  35.136   8.250
 6313POPC   C3B26553  33.935  35.158   7.950
 6313POPC   C4B26554  33.903  35.186   7.650
 6314POPC   NC326555  28.328   4.303   9.450
 6314POPC   PO426556  28.330   4.336   9.150
 6314POPC   GL126557  28.350   4.271   8.850
 6314POPC   GL226558  28.250   4.398   8.850
 6314POPC   C1A26559  28.378   4.340   8.550
 6314POPC   D2A26560  28.337   4.308   8.250
 6314POPC   C3A26561  28.330   4.366   7.950
 6314POPC   C4A26562  28.417   4.347   7.650
 6314POPC   C1B26563  28.190   4.451   8.550
 6314POPC   C2B26564  28.125   4.460   8.250
 6314POPC   C3B26565  28.204   4.498   7.950
 6314POPC   C4B26566  28.211   4.493   7.650
 6315POPC   NC326567   5.082  25.225   9.450
 6315POPC   PO426568   5.059  25.228   9.150
 6315POPC   GL126569   5.095  25.242   8.850
 6315POPC   GL226570   5.071  25.342   8.850
 6315POPC   C1A26571   5.089  25.294   8.550
 6315POPC   D2A26572   5.067  25.259   8.250
 6315POPC   C3A26573   5.112  25.220   7.950
 6315POPC   C4A26574   5.109  25.224   7.650
 6315POPC   C1B26575   5.090  25.480   8.550
 6315POPC   C2B26576   5.131  25.541   8.250
 6315POPC   C3B26577   5.151  25.541   7.950
 6315POPC   C4B26578   5.128  25.467   7.650
 6316POPC   NC326579   4.327   0.415   9.450
 6316POPC   PO426580   4.270   0.462   9.150
 6316POPC   GL126581   4.310   0.450   8.850
 6316POPC   GL226582   4.443   0.366   8.850
 6316POPC   C1A26583   4.278   0.458   8.550
 6316POPC   D2A26584   4.276   0.469   8.250
 6316POPC   C3A26585   4.348   0.402   7.950
 6316POPC   C4A26586   4.357   0.394   7.650
 6316POPC   C1B26587   4.556   0.337   8.550
 6316POPC   C2B26588   4.553   0.319   8.250
 6316POPC   C3B26589   4.537   0.351   7.950
 6316POPC   C4B26590   4.541   0.318   7.650
 6317POPC   NC326591  25.309   1.991   9.450
 6317POPC   PO426592  25.249   1.949   9.150
 6317POPC   GL126593  25.293   2.002   8.850
 6317POPC   GL226594  25.245   2.101   8.850
 6317POPC   C1A26595  25.265   1.968   8.550
 6317POPC   D2A26596  25.288   1.984   8.250
 6317POPC   C3A26597  25.264   1.940   7.950
 6317POPC   C4A26598  25.282   2.022   7.650
 6317POPC   C1B26599  25.181   2.235   8.550
 6317POPC   C2B26600  25.205   2.248   8.250
 6317POPC   C3B26601  25.145   2.210   7.950
 6317POPC   C4B26602  25.189   2.234   7.650
 6318POPC   NC326603  43.914  13.677   9.450
 6318POPC   PO426604  43.843  13.664   9.150
 6318POPC   GL126605  43.904  13.645   8.850
 6318POPC   GL226606  43.975  13.665   8.850
 6318POPC   C1A26607  43.893  13.609   8.550
 6318POPC   D2A26608  43.927  13.665   8.250
 6318POPC   C3A26609  43.903  13.616   7.950
 6318POPC   C4A26610  43.838  13.667   7.650
 6318POPC   C1B26611  44.097  13.676   8.550
 6318POPC   C2B26612  44.142  13.637   8.250
 6318POPC   C3B26613  44.098  13.651   7.950
 6318POPC   C4B26614  44.096  13.610   7.650
 6319POPC   NC326615  27.612   6.651   9.450
 6319POPC   PO426616  27.587   6.677   9.150
 6319POPC   GL126617  27.582   6.668   8.850
 6319POPC   GL226618  27.485   6.745   8.850
 6319POPC   C1A26619  27.626   6.598   8.550
 6319POPC   D2A26620  27.555   6.602   8.250
 6319POPC   C3A26621  27.634   6.674   7.950
 6319POPC   C4A26622  27.550   6.621   7.650
 6319POPC   C1B26623  27.358   6.846   8.550
 6319POPC   C2B26624  27.381   6.809   8.250
 6319POPC   C3B26625  27.376   6.852   7.950
 6319POPC   C4B26626  27.410   6.795   7.650
 6320POPC   NC326627  37.632   2.014   9.450
 6320POPC   PO426628  37.702   2.019   9.150
 6320POPC   GL126629  37.720   1.986   8.850
 6320POPC   GL226630  37.770   2.039   8.850
 6320POPC   C1A26631  37.655   1.958   8.550
 6320POPC   D2A26632  37.669   1.968   8.250
 6320POPC   C3A26633  37.632   1.995   7.950
 6320POPC   C4A26634  37.663   2.039   7.650
 6320POPC   C1B26635  37.876   2.162   8.550
 6320POPC   C2B26636  37.894   2.171   8.250
 6320POPC   C3B26637  37.829   2.124   7.950
 6320POPC   C4B26638  37.874   2.187   7.650
 6321POPC   NC326639   6.631  36.874   9.450
 6321POPC   PO426640   6.666  36.952   9.150
 6321POPC   GL126641   6.657  36.883   8.850
 6321POPC   GL226642   6.740  37.052   8.850
 6321POPC   C1A26643   6.649  36.854   8.550
 6321POPC   D2A26644   6.679  36.895   8.250
 6321POPC   C3A26645   6.670  36.858   7.950
 6321POPC   C4A26646   6.671  36.949   7.650
 6321POPC   C1B26647   6.730  37.124   8.550
 6321POPC   C2B26648   6.724  37.104   8.250
 6321POPC   C3B26649   6.771  37.131   7.950
 6321POPC   C4B26650   6.777  37.085   7.650
 6322POPC   NC326651  44.645  40.756   9.450
 6322POPC   PO426652  44.677  40.790   9.150
 6322POPC   GL126653  44.628  40.769   8.850
 6322POPC   GL226654  44.584  40.868   8.850
 6322POPC   C1A26655  44.709  40.748   8.550
 6322POPC   D2A26656  44.628  40.735   8.250
 6322POPC   C3A26657  44.661  40.784   7.950
 6322POPC   C4A26658  44.676  40.783   7.650
 6322POPC   C1B26659  44.468  40.929   8.550
 6322POPC   C2B26660  44.538  40.990   8.250
 6322POPC   C3B26661  44.521  40.934   7.950
 6322POPC   C4B26662  44.541  40.986   7.650
 6323POPC   NC326663  39.977  27.574   9.450
 6323POPC   PO426664  40.053  27.577   9.150
 6323POPC   GL126665  39.987  27.555   8.850
 6323POPC   GL226666  40.140  27.658   8.850
 6323POPC   C1A26667  39.996  27.584   8.550
 6323POPC   D2A26668  39.982  27.554   8.250
 6323POPC   C3A26669  40.004  27.565   7.950
 6323POPC   C4A26670  39.982  27.558   7.650
 6323POPC   C1B26671  40.144  27.722   8.550
 6323POPC   C2B26672  40.211  27.813   8.250
 6323POPC   C3B26673  40.188  27.720   7.950
 6323POPC   C4B26674  40.135  27.778   7.650
 6324POPC   NC326675  18.284   6.676   9.450
 6324POPC   PO426676  18.310   6.627   9.150
 6324POPC   GL126677  18.271   6.607   8.850
 6324POPC   GL226678  18.354   6.526   8.850
 6324POPC   C1A26679  18.274   6.687   8.550
 6324POPC   D2A26680  18.298   6.626   8.250
 6324POPC   C3A26681  18.254   6.649   7.950
 6324POPC   C4A26682  18.275   6.625   7.650
 6324POPC   C1B26683  18.312   6.407   8.550
 6324POPC   C2B26684  18.367   6.453   8.250
 6324POPC   C3B26685  18.380   6.362   7.950
 6324POPC   C4B26686  18.335   6.403   7.650
 6325POPC   NC326687   1.181  19.882   9.450
 6325POPC   PO426688   1.175  19.868   9.150
 6325POPC   GL126689   1.165  19.880   8.850
 6325POPC   GL226690   1.272  19.870   8.850
 6325POPC   C1A26691   1.196  19.790   8.550
 6325POPC   D2A26692   1.176  19.823   8.250
 6325POPC   C3A26693   1.221  19.879   7.950
 6325POPC   C4A26694   1.251  19.793   7.650
 6325POPC   C1B26695   1.399  20.015   8.550
 6325POPC   C2B26696   1.464  19.946   8.250
 6325POPC   C3B26697   1.426  19.932   7.950
 6325POPC   C4B26698   1.457  19.997   7.650
 6326POPC   NC326699  44.657  29.946   9.450
 6326POPC   PO426700  44.659  29.877   9.150
 6326POPC   GL126701  44.655  29.925   8.850
 6326POPC   GL226702  44.612  29.784   8.850
 6326POPC   C1A26703  44.658  29.916   8.550
 6326POPC   D2A26704  44.643  29.952   8.250
 6326POPC   C3A26705  44.613  29.965   7.950
 6326POPC   C4A26706  44.664  29.912   7.650
 6326POPC   C1B26707  44.488  29.742   8.550
 6326POPC   C2B26708  44.467  29.770   8.250
 6326POPC   C3B26709  44.499  29.724   7.950
 6326POPC   C4B26710  44.489  29.718   7.650
 6327POPC   NC326711  24.519  43.103   9.450
 6327POPC   PO426712  24.487  43.157   9.150
 6327POPC   GL126713  24.535  43.119   8.850
 6327POPC   GL226714  24.346  43.061   8.850
 6327POPC   C1A26715  24.461  43.095   8.550
 6327POPC   D2A26716  24.475  43.132   8.250
 6327POPC   C3A26717  24.477  43.097   7.950
 6327POPC   C4A26718  24.487  43.146   7.650
 6327POPC   C1B26719  24.225  43.020   8.550
 6327POPC   C2B26720  24.296  43.088   8.250
 6327POPC   C3B26721  24.296  43.084   7.950
 6327POPC   C4B26722  24.225  43.018   7.650
 6328POPC   NC326723  39.958  38.480   9.450
 6328POPC   PO426724  39.973  38.466   9.150
 6328POPC   GL126725  40.015  38.453   8.850
 6328POPC   GL226726  40.041  38.547   8.850
 6328POPC   C1A26727  40.015  38.493   8.550
 6328POPC   D2A26728  39.989  38.449   8.250
 6328POPC   C3A26729  40.002  38.428   7.950
 6328POPC   C4A26730  40.029  38.501   7.650
 6328POPC   C1B26731  40.106  38.656   8.550
 6328POPC   C2B26732  40.070  38.704   8.250
 6328POPC   C3B26733  40.081  38.670   7.950
 6328POPC   C4B26734  40.151  38.668   7.650
 6329POPC   NC326735   5.907  24.533   9.450
 6329POPC   PO426736   5.857  24.497   9.150
 6329POPC   GL126737   5.865  24.475   8.850
 6329POPC   GL226738   5.763  24.584   8.850
 6329POPC   C1A26739   5.873  24.451   8.550
 6329POPC   D2A26740   5.918  24.476   8.250
 6329POPC   C3A26741   5.899  24.507   7.950
 6329POPC   C4A26742   5.896  24.473   7.650
 6329POPC   C1B26743   5.736  24.656   8.550
 6329POPC   C2B26744   5.671  24.672   8.250
 6329POPC   C3B26745   5.690  24.618   7.950
 6329POPC   C4B26746   5.727  24.627   7.650
 6330POPC   NC326747  40.767  15.221   9.450
 6330POPC   PO426748  40.736  15.199   9.150
 6330POPC   GL126749  40.749  15.224   8.850
 6330POPC   GL226750  40.949  15.152   8.850
 6330POPC   C1A26751  40.818  15.165   8.550
 6330POPC   D2A26752  40.774  15.173   8.250
 6330POPC   C3A26753  40.776  15.132   7.950
 6330POPC   C4A26754  40.780  15.143   7.650
 6330POPC   C1B26755  40.988  15.159   8.550
 6330POPC   C2B26756  40.989  15.153   8.250
 6330POPC   C3B26757  41.001  15.184   7.950
 6330POPC   C4B26758  41.047  15.150   7.650
 6331POPC   NC326759  20.574  26.072   9.450
 6331POPC   PO426760  20.570  26.007   9.150
 6331POPC   GL126761  20.589  26.032   8.850
 6331POPC   GL226762  20.522  26.112   8.850
 6331POPC   C1A26763  20.582  26.053   8.550
 6331POPC   D2A26764  20.660  25.992   8.250
 6331POPC   C3A26765  20.596  26.075   7.950
 6331POPC   C4A26766  20.577  26.000   7.650
 6331POPC   C1B26767  20.513  26.301   8.550
 6331POPC   C2B26768  20.501  26.247   8.250
 6331POPC   C3B26769  20.472  26.290   7.950
 6331POPC   C4B26770  20.523  26.223   7.650
 6332POPC   NC326771  36.866  36.165   9.450
 6332POPC   PO426772  36.860  36.136   9.150
 6332POPC   GL126773  36.884  36.113   8.850
 6332POPC   GL226774  36.990  36.063   8.850
 6332POPC   C1A26775  36.889  36.104   8.550
 6332POPC   D2A26776  36.951  36.160   8.250
 6332POPC   C3A26777  36.923  36.091   7.950
 6332POPC   C4A26778  36.931  36.139   7.650
 6332POPC   C1B26779  37.134  35.995   8.550
 6332POPC   C2B26780  37.096  36.004   8.250
 6332POPC   C3B26781  37.141  36.062   7.950
 6332POPC   C4B26782  37.166  36.037   7.650
 6333POPC   NC326783   1.994   9.789   9.450
 6333POPC   PO426784   1.961   9.774   9.150
 6333POPC   GL126785   1.973   9.779   8.850
 6333POPC   GL226786   1.888   9.835   8.850
 6333POPC   C1A26787   1.963   9.771   8.550
 6333POPC   D2A26788   1.979   9.738   8.250
 6333POPC   C3A26789   2.013   9.721   7.950
 6333POPC   C4A26790   2.022   9.780   7.650
 6333POPC   C1B26791   1.763   9.923   8.550
 6333POPC   C2B26792   1.822   9.860   8.250
 6333POPC   C3B26793   1.814   9.893   7.950
 6333POPC   C4B26794   1.767   9.858   7.650
 6334POPC   NC326795  15.982  27.631   9.450
 6334POPC   PO426796  15.914  27.569   9.150
 6334POPC   GL126797  15.943  27.641   8.850
 6334POPC   GL226798  15.922  27.698   8.850
 6334POPC   C1A26799  15.974  27.633   8.550
 6334POPC   D2A26800  15.947  27.600   8.250
 6334POPC   C3A26801  15.928  27.616   7.950
 6334POPC   C4A26802  15.950  27.587   7.650
 6334POPC   C1B26803  15.907  27.868   8.550
 6334POPC   C2B26804  15.975  27.857   8.250
 6334POPC   C3B26805  15.897  27.822   7.950
 6334POPC   C4B26806  15.979  27.860   7.650
 6335POPC   NC326807   2.726  22.924   9.450
 6335POPC   PO426808   2.807  22.943   9.150
 6335POPC   GL126809   2.735  22.977   8.850
 6335POPC   GL226810   2.860  22.835   8.850
 6335POPC   C1A26811   2.778  22.889   8.550
 6335POPC   D2A26812   2.814  22.914   8.250
 6335POPC   C3A26813   2.766  22.978   7.950
 6335POPC   C4A26814   2.733  22.943   7.650
 6335POPC   C1B26815   2.920  22.811   8.550
 6335POPC   C2B26816   2.933  22.765   8.250
 6335POPC   C3B26817   2.929  22.754   7.950
 6335POPC   C4B26818   2.945  22.750   7.650
 6336POPC   NC326819  20.600  12.091   9.450
 6336POPC   PO426820  20.623  12.084   9.150
 6336POPC   GL126821  20.606  12.099   8.850
 6336POPC   GL226822  20.621  12.001   8.850
 6336POPC   C1A26823  20.595  12.069   8.550
 6336POPC   D2A26824  20.658  12.101   8.250
 6336POPC   C3A26825  20.597  12.089   7.950
 6336POPC   C4A26826  20.564  12.041   7.650
 6336POPC   C1B26827  20.532  11.829   8.550
 6336POPC   C2B26828  20.577  11.829   8.250
 6336POPC   C3B26829  20.527  11.831   7.950
 6336POPC   C4B26830  20.510  11.810   7.650
 6337POPC   NC326831  12.110   2.811   9.450
 6337POPC   PO426832  12.093   2.804   9.150
 6337POPC   GL126833  12.092   2.722   8.850
 6337POPC   GL226834  11.917   2.764   8.850
 6337POPC   C1A26835  12.052   2.813   8.550
 6337POPC   D2A26836  12.105   2.789   8.250
 6337POPC   C3A26837  12.123   2.750   7.950
 6337POPC   C4A26838  12.093   2.727   7.650
 6337POPC   C1B26839  11.880   2.886   8.550
 6337POPC   C2B26840  11.892   2.850   8.250
 6337POPC   C3B26841  11.840   2.904   7.950
 6337POPC   C4B26842  11.825   2.819   7.650
 6338POPC   NC326843  29.917  35.314   9.450
 6338POPC   PO426844  29.885  35.386   9.150
 6338POPC   GL126845  29.963  35.400   8.850
 6338POPC   GL226846  29.856  35.474   8.850
 6338POPC   C1A26847  29.948  35.398   8.550
 6338POPC   D2A26848  29.877  35.399   8.250
 6338POPC   C3A26849  29.878  35.349   7.950
 6338POPC   C4A26850  29.951  35.400   7.650
 6338POPC   C1B26851  29.867  35.586   8.550
 6338POPC   C2B26852  29.893  35.578   8.250
 6338POPC   C3B26853  29.881  35.609   7.950
 6338POPC   C4B26854  29.858  35.557   7.650
 6339POPC   NC326855  24.491  43.886   9.450
 6339POPC   PO426856  24.449  43.884   9.150
 6339POPC   GL126857  24.466  43.859   8.850
 6339POPC   GL226858  24.415  43.921   8.850
 6339POPC   C1A26859  24.507  43.863   8.550
 6339POPC   D2A26860  24.476  43.930   8.250
 6339POPC   C3A26861  24.521  43.853   7.950
 6339POPC   C4A26862  24.516  43.843   7.650
 6339POPC   C1B26863  24.226  43.931   8.550
 6339POPC   C2B26864  24.243  43.922   8.250
 6339POPC   C3B26865  24.268  43.968   7.950
 6339POPC   C4B26866  24.251  43.934   7.650
 6340POPC   NC326867  26.791  41.566   9.450
 6340POPC   PO426868  26.835  41.558   9.150
 6340POPC   GL126869  26.830  41.533   8.850
 6340POPC   GL226870  26.786  41.464   8.850
 6340POPC   C1A26871  26.774  41.594   8.550
 6340POPC   D2A26872  26.832  41.560   8.250
 6340POPC   C3A26873  26.859  41.532   7.950
 6340POPC   C4A26874  26.785  41.579   7.650
 6340POPC   C1B26875  26.672  41.288   8.550
 6340POPC   C2B26876  26.724  41.371   8.250
 6340POPC   C3B26877  26.748  41.307   7.950
 6340POPC   C4B26878  26.723  41.304   7.650
 6341POPC   NC326879  36.150   4.286   9.450
 6341POPC   PO426880  36.165   4.333   9.150
 6341POPC   GL126881  36.126   4.305   8.850
 6341POPC   GL226882  36.063   4.163   8.850
 6341POPC   C1A26883  36.172   4.270   8.550
 6341POPC   D2A26884  36.127   4.300   8.250
 6341POPC   C3A26885  36.097   4.307   7.950
 6341POPC   C4A26886  36.082   4.343   7.650
 6341POPC   C1B26887  36.078   4.084   8.550
 6341POPC   C2B26888  36.100   4.057   8.250
 6341POPC   C3B26889  36.125   4.092   7.950
 6341POPC   C4B26890  36.121   4.084   7.650
 6342POPC   NC326891  43.848  41.585   9.450
 6342POPC   PO426892  43.853  41.538   9.150
 6342POPC   GL126893  43.842  41.513   8.850
 6342POPC   GL226894  44.006  41.499   8.850
 6342POPC   C1A26895  43.922  41.597   8.550
 6342POPC   D2A26896  43.875  41.539   8.250
 6342POPC   C3A26897  43.840  41.518   7.950
 6342POPC   C4A26898  43.878  41.596   7.650
 6342POPC   C1B26899  44.038  41.372   8.550
 6342POPC   C2B26900  44.087  41.383   8.250
 6342POPC   C3B26901  44.051  41.401   7.950
 6342POPC   C4B26902  44.099  41.423   7.650
 6343POPC   NC326903   8.246  43.088   9.450
 6343POPC   PO426904   8.152  43.082   9.150
 6343POPC   GL126905   8.246  43.082   8.850
 6343POPC   GL226906   8.328  43.181   8.850
 6343POPC   C1A26907   8.171  43.076   8.550
 6343POPC   D2A26908   8.229  43.077   8.250
 6343POPC   C3A26909   8.200  43.159   7.950
 6343POPC   C4A26910   8.179  43.127   7.650
 6343POPC   C1B26911   8.384  43.218   8.550
 6343POPC   C2B26912   8.375  43.253   8.250
 6343POPC   C3B26913   8.384  43.279   7.950
 6343POPC   C4B26914   8.394  43.233   7.650
 6344POPC   NC326915  37.688  23.708   9.450
 6344POPC   PO426916  37.713  23.716   9.150
 6344POPC   GL126917  37.693  23.742   8.850
 6344POPC   GL226918  37.680  23.870   8.850
 6344POPC   C1A26919  37.662  23.732   8.550
 6344POPC   D2A26920  37.633  23.719   8.250
 6344POPC   C3A26921  37.630  23.743   7.950
 6344POPC   C4A26922  37.631  23.723   7.650
 6344POPC   C1B26923  37.688  24.008   8.550
 6344POPC   C2B26924  37.711  24.008   8.250
 6344POPC   C3B26925  37.714  23.959   7.950
 6344POPC   C4B26926  37.756  24.009   7.650
 6345POPC   NC326927  26.021  40.832   9.450
 6345POPC   PO426928  26.086  40.788   9.150
 6345POPC   GL126929  26.091  40.808   8.850
 6345POPC   GL226930  25.889  40.827   8.850
 6345POPC   C1A26931  26.037  40.757   8.550
 6345POPC   D2A26932  26.063  40.820   8.250
 6345POPC   C3A26933  26.020  40.799   7.950
 6345POPC   C4A26934  26.066  40.763   7.650
 6345POPC   C1B26935  25.829  40.828   8.550
 6345POPC   C2B26936  25.763  40.763   8.250
 6345POPC   C3B26937  25.749  40.788   7.950
 6345POPC   C4B26938  25.829  40.809   7.650
 6346POPC   NC326939   1.182   0.435   9.450
 6346POPC   PO426940   1.216   0.473   9.150
 6346POPC   GL126941   1.167   0.428   8.850
 6346POPC   GL226942   1.259   0.529   8.850
 6346POPC   C1A26943   1.243   0.426   8.550
 6346POPC   D2A26944   1.251   0.442   8.250
 6346POPC   C3A26945   1.247   0.485   7.950
 6346POPC   C4A26946   1.233   0.468   7.650
 6346POPC   C1B26947   1.291   0.614   8.550
 6346POPC   C2B26948   1.362   0.704   8.250
 6346POPC   C3B26949   1.297   0.667   7.950
 6346POPC   C4B26950   1.309   0.612   7.650
 6347POPC   NC326951  43.898  24.485   9.450
 6347POPC   PO426952  43.907  24.474   9.150
 6347POPC   GL126953  43.896  24.504   8.850
 6347POPC   GL226954  43.860  24.627   8.850
 6347POPC   C1A26955  43.917  24.474   8.550
 6347POPC   D2A26956  43.922  24.465   8.250
 6347POPC   C3A26957  43.934  24.448   7.950
 6347POPC   C4A26958  43.903  24.532   7.650
 6347POPC   C1B26959  43.812  24.726   8.550
 6347POPC   C2B26960  43.851  24.766   8.250
 6347POPC   C3B26961  43.791  24.743   7.950
 6347POPC   C4B26962  43.845  24.717   7.650
 6348POPC   NC326963  15.169  10.560   9.450
 6348POPC   PO426964  15.159  10.505   9.150
 6348POPC   GL126965  15.148  10.556   8.850
 6348POPC   GL226966  15.339  10.512   8.850
 6348POPC   C1A26967  15.201  10.483   8.550
 6348POPC   D2A26968  15.220  10.548   8.250
 6348POPC   C3A26969  15.160  10.513   7.950
 6348POPC   C4A26970  15.189  10.543   7.650
 6348POPC   C1B26971  15.468  10.526   8.550
 6348POPC   C2B26972  15.476  10.576   8.250
 6348POPC   C3B26973  15.377  10.538   7.950
 6348POPC   C4B26974  15.424  10.579   7.650
 6349POPC   NC326975  29.136  39.232   9.450
 6349POPC   PO426976  29.127  39.273   9.150
 6349POPC   GL126977  29.099  39.249   8.850
 6349POPC   GL226978  29.033  39.157   8.850
 6349POPC   C1A26979  29.151  39.213   8.550
 6349POPC   D2A26980  29.157  39.274   8.250
 6349POPC   C3A26981  29.195  39.253   7.950
 6349POPC   C4A26982  29.129  39.193   7.650
 6349POPC   C1B26983  29.006  38.979   8.550
 6349POPC   C2B26984  28.960  39.043   8.250
 6349POPC   C3B26985  28.975  39.027   7.950
 6349POPC   C4B26986  28.985  39.062   7.650
 6350POPC   NC326987   7.411   5.834   9.450
 6350POPC   PO426988   7.402   5.877   9.150
 6350POPC   GL126989   7.431   5.865   8.850
 6350POPC   GL226990   7.290   5.946   8.850
 6350POPC   C1A26991   7.468   5.835   8.550
 6350POPC   D2A26992   7.471   5.891   8.250
 6350POPC   C3A26993   7.444   5.871   7.950
 6350POPC   C4A26994   7.398   5.837   7.650
 6350POPC   C1B26995   7.248   6.020   8.550
 6350POPC   C2B26996   7.233   6.009   8.250
 6350POPC   C3B26997   7.274   5.998   7.950
 6350POPC   C4B26998   7.255   6.083   7.650
 6351POPC   NC326999  35.394  32.999   9.450
 6351POPC   PO427000  35.397  33.003   9.150
 6351POPC   GL127001  35.389  32.984   8.850
 6351POPC   GL227002  35.451  33.131   8.850
 6351POPC   C1A27003  35.310  32.991   8.550
 6351POPC   D2A27004  35.337  33.071   8.250
 6351POPC   C3A27005  35.330  32.992   7.950
 6351POPC   C4A27006  35.331  33.001   7.650
 6351POPC   C1B27007  35.572  33.187   8.550
 6351POPC   C2B27008  35.562  33.160   8.250
 6351POPC   C3B27009  35.569  33.179   7.950
 6351POPC   C4B27010  35.565  33.138   7.650
 6352POPC   NC327011   9.783  16.683   9.450
 6352POPC   PO427012   9.771  16.712   9.150
 6352POPC   GL127013   9.712  16.708   8.850
 6352POPC   GL227014   9.773  16.610   8.850
 6352POPC   C1A27015   9.755  16.695   8.550
 6352POPC   D2A27016   9.718  16.728   8.250
 6352POPC   C3A27017   9.786  16.707   7.950
 6352POPC   C4A27018   9.798  16.711   7.650
 6352POPC   C1B27019   9.917  16.555   8.550
 6352POPC   C2B27020   9.869  16.522   8.250
 6352POPC   C3B27021   9.907  16.492   7.950
 6352POPC   C4B27022   9.938  16.517   7.650
 6353POPC   NC327023   6.673   5.135   9.450
 6353POPC   PO427024   6.682   5.122   9.150
 6353POPC   GL127025   6.640   5.068   8.850
 6353POPC   GL227026   6.570   5.183   8.850
 6353POPC   C1A27027   6.694   5.105   8.550
 6353POPC   D2A27028   6.643   5.141   8.250
 6353POPC   C3A27029   6.674   5.140   7.950
 6353POPC   C4A27030   6.677   5.067   7.650
 6353POPC   C1B27031   6.533   5.370   8.550
 6353POPC   C2B27032   6.570   5.364   8.250
 6353POPC   C3B27033   6.541   5.279   7.950
 6353POPC   C4B27034   6.585   5.318   7.650
 6354POPC   NC327035  32.296  12.860   9.450
 6354POPC   PO427036  32.275  12.814   9.150
 6354POPC   GL127037  32.208  12.873   8.850
 6354POPC   GL227038  32.227  12.763   8.850
 6354POPC   C1A27039  32.208  12.802   8.550
 6354POPC   D2A27040  32.225  12.823   8.250
 6354POPC   C3A27041  32.297  12.879   7.950
 6354POPC   C4A27042  32.289  12.851   7.650
 6354POPC   C1B27043  32.252  12.558   8.550
 6354POPC   C2B27044  32.213  12.637   8.250
 6354POPC   C3B27045  32.206  12.633   7.950
 6354POPC   C4B27046  32.182  12.566   7.650
 6355POPC   NC327047   5.899  40.772   9.450
 6355POPC   PO427048   5.826  40.792   9.150
 6355POPC   GL127049   5.882  40.787   8.850
 6355POPC   GL227050   5.888  40.925   8.850
 6355POPC   C1A27051   5.832  40.754   8.550
 6355POPC   D2A27052   5.830  40.796   8.250
 6355POPC   C3A27053   5.883  40.754   7.950
 6355POPC   C4A27054   5.876  40.809   7.650
 6355POPC   C1B27055   5.956  40.997   8.550
 6355POPC   C2B27056   5.922  41.002   8.250
 6355POPC   C3B27057   5.966  41.015   7.950
 6355POPC   C4B27058   5.940  40.984   7.650
 6356POPC   NC327059  20.575  11.292   9.450
 6356POPC   PO427060  20.599  11.348   9.150
 6356POPC   GL127061  20.589  11.284   8.850
 6356POPC   GL227062  20.553  11.408   8.850
 6356POPC   C1A27063  20.597  11.289   8.550
 6356POPC   D2A27064  20.570  11.308   8.250
 6356POPC   C3A27065  20.627  11.292   7.950
 6356POPC   C4A27066  20.571  11.280   7.650
 6356POPC   C1B27067  20.435  11.479   8.550
 6356POPC   C2B27068  20.401  11.467   8.250
 6356POPC   C3B27069  20.444  11.452   7.950
 6356POPC   C4B27070  20.390  11.441   7.650
 6357POPC   NC327071  40.761  13.641   9.450
 6357POPC   PO427072  40.771  13.597   9.150
 6357POPC   GL127073  40.809  13.629   8.850
 6357POPC   GL227074  40.728  13.723   8.850
 6357POPC   C1A27075  40.766  13.591   8.550
 6357POPC   D2A27076  40.815  13.662   8.250
 6357POPC   C3A27077  40.746  13.655   7.950
 6357POPC   C4A27078  40.804  13.580   7.650
 6357POPC   C1B27079  40.769  13.896   8.550
 6357POPC   C2B27080  40.703  13.919   8.250
 6357POPC   C3B27081  40.713  13.869   7.950
 6357POPC   C4B27082  40.693  13.858   7.650
 6358POPC   NC327083  41.582   4.291   9.450
 6358POPC   PO427084  41.534   4.322   9.150
 6358POPC   GL127085  41.563   4.299   8.850
 6358POPC   GL227086  41.499   4.435   8.850
 6358POPC   C1A27087  41.568   4.320   8.550
 6358POPC   D2A27088  41.541   4.291   8.250
 6358POPC   C3A27089  41.573   4.278   7.950
 6358POPC   C4A27090  41.510   4.329   7.650
 6358POPC   C1B27091  41.352   4.429   8.550
 6358POPC   C2B27092  41.314   4.411   8.250
 6358POPC   C3B27093  41.311   4.433   7.950
 6358POPC   C4B27094  41.396   4.454   7.650
 6359POPC   NC327095  38.500  40.760   9.450
 6359POPC   PO427096  38.446  40.745   9.150
 6359POPC   GL127097  38.446  40.737   8.850
 6359POPC   GL227098  38.555  40.891   8.850
 6359POPC   C1A27099  38.439  40.812   8.550
 6359POPC   D2A27100  38.466  40.770   8.250
 6359POPC   C3A27101  38.474  40.739   7.950
 6359POPC   C4A27102  38.476  40.818   7.650
 6359POPC   C1B27103  38.712  40.938   8.550
 6359POPC   C2B27104  38.649  40.960   8.250
 6359POPC   C3B27105  38.637  40.886   7.950
 6359POPC   C4B27106  38.702  40.961   7.650
 6360POPC   NC327107   1.994  20.582   9.450
 6360POPC   PO427108   2.021  20.634   9.150
 6360POPC   GL127109   1.944  20.630   8.850
 6360POPC   GL227110   1.956  20.457   8.850
 6360POPC   C1A27111   1.958  20.639   8.550
 6360POPC   D2A27112   2.031  20.590   8.250
 6360POPC   C3A27113   1.941  20.649   7.950
 6360POPC   C4A27114   2.013  20.600   7.650
 6360POPC   C1B27115   2.031  20.335   8.550
 6360POPC   C2B27116   1.978  20.375   8.250
 6360POPC   C3B27117   1.990  20.320   7.950
 6360POPC   C4B27118   2.010  20.400   7.650
 6361POPC   NC327119   2.798  44.657   9.450
 6361POPC   PO427120   2.762  44.660   9.150
 6361POPC   GL127121   2.729  44.639   8.850
 6361POPC   GL227122   2.881  44.673   8.850
 6361POPC   C1A27123   2.758  44.635   8.550
 6361POPC   D2A27124   2.742  44.625   8.250
 6361POPC   C3A27125   2.754  44.691   7.950
 6361POPC   C4A27126   2.718  44.646   7.650
 6361POPC   C1B27127   3.046  44.614   8.550
 6361POPC   C2B27128   2.967  44.690   8.250
 6361POPC   C3B27129   2.969  44.693   7.950
 6361POPC   C4B27130   2.992  44.624   7.650
 6362POPC   NC327131  14.386   1.994   9.450
 6362POPC   PO427132  14.427   1.980   9.150
 6362POPC   GL127133  14.381   1.993   8.850
 6362POPC   GL227134  14.496   2.063   8.850
 6362POPC   C1A27135  14.383   2.033   8.550
 6362POPC   D2A27136  14.428   1.945   8.250
 6362POPC   C3A27137  14.390   2.036   7.950
 6362POPC   C4A27138  14.381   2.015   7.650
 6362POPC   C1B27139  14.580   2.159   8.550
 6362POPC   C2B27140  14.533   2.205   8.250
 6362POPC   C3B27141  14.586   2.217   7.950
 6362POPC   C4B27142  14.514   2.160   7.650
 6363POPC   NC327143  24.497  41.572   9.450
 6363POPC   PO427144  24.489  41.592   9.150
 6363POPC   GL127145  24.494  41.572   8.850
 6363POPC   GL227146  24.534  41.726   8.850
 6363POPC   C1A27147  24.532  41.594   8.550
 6363POPC   D2A27148  24.449  41.599   8.250
 6363POPC   C3A27149  24.508  41.561   7.950
 6363POPC   C4A27150  24.457  41.599   7.650
 6363POPC   C1B27151  24.538  41.794   8.550
 6363POPC   C2B27152  24.544  41.816   8.250
 6363POPC   C3B27153  24.535  41.771   7.950
 6363POPC   C4B27154  24.597  41.803   7.650
 6364POPC   NC327155  40.774   7.468   9.450
 6364POPC   PO427156  40.734   7.430   9.150
 6364POPC   GL127157  40.796   7.406   8.850
 6364POPC   GL227158  40.721   7.564   8.850
 6364POPC   C1A27159  40.801   7.470   8.550
 6364POPC   D2A27160  40.751   7.451   8.250
 6364POPC   C3A27161  40.788   7.459   7.950
 6364POPC   C4A27162  40.826   7.457   7.650
 6364POPC   C1B27163  40.731   7.671   8.550
 6364POPC   C2B27164  40.739   7.617   8.250
 6364POPC   C3B27165  40.684   7.619   7.950
 6364POPC   C4B27166  40.682   7.652   7.650
 6365POPC   NC327167  12.826  17.464   9.450
 6365POPC   PO427168  12.879  17.467   9.150
 6365POPC   GL127169  12.889  17.492   8.850
 6365POPC   GL227170  12.977  17.495   8.850
 6365POPC   C1A27171  12.811  17.541   8.550
 6365POPC   D2A27172  12.809  17.462   8.250
 6365POPC   C3A27173  12.808  17.458   7.950
 6365POPC   C4A27174  12.840  17.512   7.650
 6365POPC   C1B27175  13.128  17.372   8.550
 6365POPC   C2B27176  13.041  17.453   8.250
 6365POPC   C3B27177  13.063  17.390   7.950
 6365POPC   C4B27178  13.044  17.401   7.650
 6366POPC   NC327179   2.731  10.481   9.450
 6366POPC   PO427180   2.780  10.574   9.150
 6366POPC   GL127181   2.739  10.496   8.850
 6366POPC   GL227182   2.860  10.452   8.850
 6366POPC   C1A27183   2.750  10.502   8.550
 6366POPC   D2A27184   2.770  10.534   8.250
 6366POPC   C3A27185   2.795  10.547   7.950
 6366POPC   C4A27186   2.808  10.504   7.650
 6366POPC   C1B27187   2.979  10.421   8.550
 6366POPC   C2B27188   3.013  10.408   8.250
 6366POPC   C3B27189   2.971  10.361   7.950
 6366POPC   C4B27190   2.976  10.360   7.650
 6367POPC   NC327191   5.853  35.315   9.450
 6367POPC   PO427192   5.895  35.387   9.150
 6367POPC   GL127193   5.864  35.374   8.850
 6367POPC   GL227194   5.826  35.472   8.850
 6367POPC   C1A27195   5.853  35.309   8.550
 6367POPC   D2A27196   5.839  35.368   8.250
 6367POPC   C3A27197   5.845  35.380   7.950
 6367POPC   C4A27198   5.860  35.371   7.650
 6367POPC   C1B27199   5.887  35.588   8.550
 6367POPC   C2B27200   5.788  35.572   8.250
 6367POPC   C3B27201   5.831  35.619   7.950
 6367POPC   C4B27202   5.800  35.638   7.650
 6368POPC   NC327203  29.160  40.825   9.450
 6368POPC   PO427204  29.180  40.802   9.150
 6368POPC   GL127205  29.132  40.779   8.850
 6368POPC   GL227206  29.224  40.810   8.850
 6368POPC   C1A27207  29.125  40.747   8.550
 6368POPC   D2A27208  29.191  40.773   8.250
 6368POPC   C3A27209  29.133  40.771   7.950
 6368POPC   C4A27210  29.130  40.813   7.650
 6368POPC   C1B27211  29.336  40.924   8.550
 6368POPC   C2B27212  29.329  40.909   8.250
 6368POPC   C3B27213  29.301  40.943   7.950
 6368POPC   C4B27214  29.346  40.967   7.650
 6369POPC   NC327215   3.532  18.249   9.450
 6369POPC   PO427216   3.511  18.297   9.150
 6369POPC   GL127217   3.578  18.253   8.850
 6369POPC   GL227218   3.663  18.218   8.850
 6369POPC   C1A27219   3.590  18.233   8.550
 6369POPC   D2A27220   3.566  18.236   8.250
 6369POPC   C3A27221   3.491  18.320   7.950
 6369POPC   C4A27222   3.540  18.250   7.650
 6369POPC   C1B27223   3.739  18.169   8.550
 6369POPC   C2B27224   3.760  18.162   8.250
 6369POPC   C3B27225   3.773  18.150   7.950
 6369POPC   C4B27226   3.715  18.138   7.650
 6370POPC   NC327227  32.271   1.941   9.450
 6370POPC   PO427228  32.208   2.019   9.150
 6370POPC   GL127229  32.258   1.953   8.850
 6370POPC   GL227230  32.235   2.085   8.850
 6370POPC   C1A27231  32.217   2.019   8.550
 6370POPC   D2A27232  32.292   2.033   8.250
 6370POPC   C3A27233  32.247   2.027   7.950
 6370POPC   C4A27234  32.277   1.951   7.650
 6370POPC   C1B27235  32.282   2.251   8.550
 6370POPC   C2B27236  32.264   2.226   8.250
 6370POPC   C3B27237  32.239   2.251   7.950
 6370POPC   C4B27238  32.278   2.248   7.650
 6371POPC   NC327239  15.197  34.545   9.450
 6371POPC   PO427240  15.214  34.529   9.150
 6371POPC   GL127241  15.170  34.589   8.850
 6371POPC   GL227242  15.268  34.451   8.850
 6371POPC   C1A27243  15.180  34.548   8.550
 6371POPC   D2A27244  15.206  34.605   8.250
 6371POPC   C3A27245  15.170  34.538   7.950
 6371POPC   C4A27246  15.159  34.603   7.650
 6371POPC   C1B27247  15.291  34.366   8.550
 6371POPC   C2B27248  15.359  34.412   8.250
 6371POPC   C3B27249  15.327  34.423   7.950
 6371POPC   C4B27250  15.291  34.399   7.650
 6372POPC   NC327251  28.337   5.129   9.450
 6372POPC   PO427252  28.330   5.055   9.150
 6372POPC   GL127253  28.390   5.102   8.850
 6372POPC   GL227254  28.495   5.166   8.850
 6372POPC   C1A27255  28.356   5.078   8.550
 6372POPC   D2A27256  28.336   5.107   8.250
 6372POPC   C3A27257  28.390   5.081   7.950
 6372POPC   C4A27258  28.392   5.109   7.650
 6372POPC   C1B27259  28.587   5.247   8.550
 6372POPC   C2B27260  28.524   5.277   8.250
 6372POPC   C3B27261  28.545   5.263   7.950
 6372POPC   C4B27262  28.587   5.308   7.650
 6373POPC   NC327263   5.857  33.791   9.450
 6373POPC   PO427264   5.848  33.756   9.150
 6373POPC   GL127265   5.885  33.794   8.850
 6373POPC   GL227266   5.985  33.749   8.850
 6373POPC   C1A27267   5.823  33.780   8.550
 6373POPC   D2A27268   5.834  33.798   8.250
 6373POPC   C3A27269   5.885  33.837   7.950
 6373POPC   C4A27270   5.832  33.772   7.650
 6373POPC   C1B27271   6.043  33.673   8.550
 6373POPC   C2B27272   6.097  33.662   8.250
 6373POPC   C3B27273   6.003  33.641   7.950
 6373POPC   C4B27274   6.076  33.579   7.650
 6374POPC   NC327275  36.945   2.748   9.450
 6374POPC   PO427276  36.888   2.778   9.150
 6374POPC   GL127277  36.861   2.758   8.850
 6374POPC   GL227278  36.943   2.931   8.850
 6374POPC   C1A27279  36.883   2.811   8.550
 6374POPC   D2A27280  36.869   2.805   8.250
 6374POPC   C3A27281  36.892   2.758   7.950
 6374POPC   C4A27282  36.875   2.807   7.650
 6374POPC   C1B27283  36.948   3.043   8.550
 6374POPC   C2B27284  36.904   2.989   8.250
 6374POPC   C3B27285  36.962   3.036   7.950
 6374POPC   C4B27286  36.981   2.968   7.650
 6375POPC   NC327287  30.678  29.152   9.450
 6375POPC   PO427288  30.716  29.130   9.150
 6375POPC   GL127289  30.674  29.195   8.850
 6375POPC   GL227290  30.579  29.271   8.850
 6375POPC   C1A27291  30.728  29.152   8.550
 6375POPC   D2A27292  30.692  29.187   8.250
 6375POPC   C3A27293  30.673  29.147   7.950
 6375POPC   C4A27294  30.675  29.128   7.650
 6375POPC   C1B27295  30.544  29.350   8.550
 6375POPC   C2B27296  30.534  29.325   8.250
 6375POPC   C3B27297  30.496  29.333   7.950
 6375POPC   C4B27298  30.540  29.331   7.650
 6376POPC   NC327299  26.823  21.348   9.450
 6376POPC   PO427300  26.857  21.365   9.150
 6376POPC   GL127301  26.829  21.409   8.850
 6376POPC   GL227302  26.657  21.361   8.850
 6376POPC   C1A27303  26.799  21.356   8.550
 6376POPC   D2A27304  26.789  21.416   8.250
 6376POPC   C3A27305  26.779  21.430   7.950
 6376POPC   C4A27306  26.772  21.367   7.650
 6376POPC   C1B27307  26.601  21.302   8.550
 6376POPC   C2B27308  26.539  21.262   8.250
 6376POPC   C3B27309  26.544  21.249   7.950
 6376POPC   C4B27310  26.543  21.321   7.650
 6377POPC   NC327311  38.429   5.143   9.450
 6377POPC   PO427312  38.504   5.086   9.150
 6377POPC   GL127313  38.474   5.059   8.850
 6377POPC   GL227314  38.365   5.142   8.850
 6377POPC   C1A27315  38.468   5.074   8.550
 6377POPC   D2A27316  38.481   5.078   8.250
 6377POPC   C3A27317  38.429   5.104   7.950
 6377POPC   C4A27318  38.466   5.139   7.650
 6377POPC   C1B27319  38.253   5.268   8.550
 6377POPC   C2B27320  38.347   5.287   8.250
 6377POPC   C3B27321  38.322   5.265   7.950
 6377POPC   C4B27322  38.266   5.247   7.650
 6378POPC   NC327323  36.106  23.727   9.450
 6378POPC   PO427324  36.169  23.682   9.150
 6378POPC   GL127325  36.120  23.679   8.850
 6378POPC   GL227326  36.178  23.616   8.850
 6378POPC   C1A27327  36.159  23.683   8.550
 6378POPC   D2A27328  36.113  23.701   8.250
 6378POPC   C3A27329  36.143  23.691   7.950
 6378POPC   C4A27330  36.085  23.701   7.650
 6378POPC   C1B27331  36.273  23.527   8.550
 6378POPC   C2B27332  36.291  23.559   8.250
 6378POPC   C3B27333  36.296  23.550   7.950
 6378POPC   C4B27334  36.295  23.554   7.650
 6379POPC   NC327335   5.871  12.123   9.450
 6379POPC   PO427336   5.847  12.063   9.150
 6379POPC   GL127337   5.867  12.101   8.850
 6379POPC   GL227338   5.969  12.146   8.850
 6379POPC   C1A27339   5.833  12.055   8.550
 6379POPC   D2A27340   5.883  12.066   8.250
 6379POPC   C3A27341   5.860  12.111   7.950
 6379POPC   C4A27342   5.842  12.039   7.650
 6379POPC   C1B27343   6.094  12.196   8.550
 6379POPC   C2B27344   6.075  12.204   8.250
 6379POPC   C3B27345   6.108  12.204   7.950
 6379POPC   C4B27346   6.039  12.221   7.650
 6380POPC   NC327347   7.428  26.015   9.450
 6380POPC   PO427348   7.421  26.067   9.150
 6380POPC   GL127349   7.378  26.050   8.850
 6380POPC   GL227350   7.533  26.127   8.850
 6380POPC   C1A27351   7.467  26.053   8.550
 6380POPC   D2A27352   7.402  25.992   8.250
 6380POPC   C3A27353   7.382  26.067   7.950
 6380POPC   C4A27354   7.441  26.072   7.650
 6380POPC   C1B27355   7.532  26.278   8.550
 6380POPC   C2B27356   7.519  26.222   8.250
 6380POPC   C3B27357   7.545  26.224   7.950
 6380POPC   C4B27358   7.578  26.283   7.650
 6381POPC   NC327359  20.655  17.528   9.450
 6381POPC   PO427360  20.645  17.499   9.150
 6381POPC   GL127361  20.622  17.501   8.850
 6381POPC   GL227362  20.701  17.551   8.850
 6381POPC   C1A27363  20.580  17.511   8.550
 6381POPC   D2A27364  20.643  17.503   8.250
 6381POPC   C3A27365  20.634  17.507   7.950
 6381POPC   C4A27366  20.626  17.532   7.650
 6381POPC   C1B27367  20.785  17.667   8.550
 6381POPC   C2B27368  20.793  17.635   8.250
 6381POPC   C3B27369  20.863  17.617   7.950
 6381POPC   C4B27370  20.809  17.600   7.650
 6382POPC   NC327371  16.758  42.379   9.450
 6382POPC   PO427372  16.696  42.374   9.150
 6382POPC   GL127373  16.724  42.286   8.850
 6382POPC   GL227374  16.815  42.414   8.850
 6382POPC   C1A27375  16.687  42.361   8.550
 6382POPC   D2A27376  16.763  42.301   8.250
 6382POPC   C3A27377  16.743  42.327   7.950
 6382POPC   C4A27378  16.735  42.364   7.650
 6382POPC   C1B27379  16.850  42.588   8.550
 6382POPC   C2B27380  16.857  42.582   8.250
 6382POPC   C3B27381  16.830  42.587   7.950
 6382POPC   C4B27382  16.837  42.514   7.650
 6383POPC   NC327383  11.251  43.876   9.450
 6383POPC   PO427384  11.297  43.885   9.150
 6383POPC   GL127385  11.280  43.901   8.850
 6383POPC   GL227386  11.225  43.954   8.850
 6383POPC   C1A27387  11.349  43.869   8.550
 6383POPC   D2A27388  11.338  43.845   8.250
 6383POPC   C3A27389  11.287  43.857   7.950
 6383POPC   C4A27390  11.324  43.886   7.650
 6383POPC   C1B27391  11.087  43.916   8.550
 6383POPC   C2B27392  11.051  43.934   8.250
 6383POPC   C3B27393  11.056  43.947   7.950
 6383POPC   C4B27394  11.088  43.948   7.650
 6384POPC   NC327395  43.111  20.642   9.450
 6384POPC   PO427396  43.084  20.615   9.150
 6384POPC   GL127397  43.109  20.651   8.850
 6384POPC   GL227398  43.253  20.704   8.850
 6384POPC   C1A27399  43.073  20.587   8.550
 6384POPC   D2A27400  43.084  20.589   8.250
 6384POPC   C3A27401  43.113  20.646   7.950
 6384POPC   C4A27402  43.145  20.608   7.650
 6384POPC   C1B27403  43.260  20.731   8.550
 6384POPC   C2B27404  43.301  20.744   8.250
 6384POPC   C3B27405  43.320  20.812   7.950
 6384POPC   C4B27406  43.274  20.792   7.650
 6385POPC   NC327407   9.782  15.196   9.450
 6385POPC   PO427408   9.729  15.144   9.150
 6385POPC   GL127409   9.704  15.178   8.850
 6385POPC   GL227410   9.668  15.120   8.850
 6385POPC   C1A27411   9.737  15.217   8.550
 6385POPC   D2A27412   9.768  15.146   8.250
 6385POPC   C3A27413   9.764  15.131   7.950
 6385POPC   C4A27414   9.765  15.209   7.650
 6385POPC   C1B27415   9.549  15.006   8.550
 6385POPC   C2B27416   9.586  15.070   8.250
 6385POPC   C3B27417   9.554  15.072   7.950
 6385POPC   C4B27418   9.525  15.024   7.650
 6386POPC   NC327419  37.692  15.930   9.450
 6386POPC   PO427420  37.707  15.949   9.150
 6386POPC   GL127421  37.705  15.945   8.850
 6386POPC   GL227422  37.528  16.014   8.850
 6386POPC   C1A27423  37.723  15.911   8.550
 6386POPC   D2A27424  37.680  15.910   8.250
 6386POPC   C3A27425  37.710  15.978   7.950
 6386POPC   C4A27426  37.638  15.937   7.650
 6386POPC   C1B27427  37.434  16.039   8.550
 6386POPC   C2B27428  37.435  15.983   8.250
 6386POPC   C3B27429  37.452  16.029   7.950
 6386POPC   C4B27430  37.461  16.003   7.650
 6387POPC   NC327431  40.740  43.898   9.450
 6387POPC   PO427432  40.741  43.884   9.150
 6387POPC   GL127433  40.744  43.868   8.850
 6387POPC   GL227434  40.663  43.949   8.850
 6387POPC   C1A27435  40.784  43.914   8.550
 6387POPC   D2A27436  40.759  43.931   8.250
 6387POPC   C3A27437  40.827  43.906   7.950
 6387POPC   C4A27438  40.819  43.906   7.650
 6387POPC   C1B27439  40.569  43.972   8.550
 6387POPC   C2B27440  40.610  43.985   8.250
 6387POPC   C3B27441  40.533  43.999   7.950
 6387POPC   C4B27442  40.572  44.040   7.650
 6388POPC   NC327443  11.341   5.081   9.450
 6388POPC   PO427444  11.251   5.132   9.150
 6388POPC   GL127445  11.331   5.136   8.850
 6388POPC   GL227446  11.256   5.264   8.850
 6388POPC   C1A27447  11.326   5.110   8.550
 6388POPC   D2A27448  11.299   5.109   8.250
 6388POPC   C3A27449  11.294   5.089   7.950
 6388POPC   C4A27450  11.268   5.138   7.650
 6388POPC   C1B27451  11.255   5.363   8.550
 6388POPC   C2B27452  11.347   5.388   8.250
 6388POPC   C3B27453  11.285   5.348   7.950
 6388POPC   C4B27454  11.321   5.295   7.650
 6389POPC   NC327455  12.080  16.753   9.450
 6389POPC   PO427456  12.049  16.746   9.150
 6389POPC   GL127457  12.091  16.716   8.850
 6389POPC   GL227458  12.010  16.621   8.850
 6389POPC   C1A27459  12.074  16.719   8.550
 6389POPC   D2A27460  12.120  16.767   8.250
 6389POPC   C3A27461  12.082  16.684   7.950
 6389POPC   C4A27462  12.126  16.755   7.650
 6389POPC   C1B27463  11.908  16.544   8.550
 6389POPC   C2B27464  11.868  16.613   8.250
 6389POPC   C3B27465  11.880  16.582   7.950
 6389POPC   C4B27466  11.848  16.620   7.650
 6390POPC   NC327467  40.801  33.835   9.450
 6390POPC   PO427468  40.804  33.771   9.150
 6390POPC   GL127469  40.763  33.802   8.850
 6390POPC   GL227470  40.694  33.877   8.850
 6390POPC   C1A27471  40.825  33.806   8.550
 6390POPC   D2A27472  40.742  33.806   8.250
 6390POPC   C3A27473  40.776  33.773   7.950
 6390POPC   C4A27474  40.831  33.773   7.650
 6390POPC   C1B27475  40.622  33.971   8.550
 6390POPC   C2B27476  40.647  34.023   8.250
 6390POPC   C3B27477  40.638  33.967   7.950
 6390POPC   C4B27478  40.599  34.037   7.650
 6391POPC   NC327479   9.002  38.446   9.450
 6391POPC   PO427480   8.977  38.436   9.150
 6391POPC   GL127481   8.961  38.489   8.850
 6391POPC   GL227482   8.922  38.589   8.850
 6391POPC   C1A27483   8.984  38.494   8.550
 6391POPC   D2A27484   8.977  38.492   8.250
 6391POPC   C3A27485   8.935  38.486   7.950
 6391POPC   C4A27486   8.988  38.436   7.650
 6391POPC   C1B27487   8.825  38.630   8.550
 6391POPC   C2B27488   8.817  38.690   8.250
 6391POPC   C3B27489   8.779  38.624   7.950
 6391POPC   C4B27490   8.797  38.681   7.650
 6392POPC   NC327491  24.532  44.692   9.450
 6392POPC   PO427492  24.502  44.673   9.150
 6392POPC   GL127493  24.501  44.648   8.850
 6392POPC   GL227494  24.435  44.822   8.850
 6392POPC   C1A27495  24.441  44.698   8.550
 6392POPC   D2A27496  24.490  44.654   8.250
 6392POPC   C3A27497  24.479  44.643   7.950
 6392POPC   C4A27498  24.536  44.647   7.650
 6392POPC   C1B27499  24.442  44.886   8.550
 6392POPC   C2B27500  24.416  44.931   8.250
 6392POPC   C3B27501  24.352  44.862   7.950
 6392POPC   C4B27502  24.377  44.895   7.650
 6393POPC   NC327503  27.586  44.654   9.450
 6393POPC   PO427504  27.591  44.710   9.150
 6393POPC   GL127505  27.612  44.643   8.850
 6393POPC   GL227506  27.612  44.524   8.850
 6393POPC   C1A27507  27.605  44.630   8.550
 6393POPC   D2A27508  27.596  44.681   8.250
 6393POPC   C3A27509  27.636  44.634   7.950
 6393POPC   C4A27510  27.638  44.689   7.650
 6393POPC   C1B27511  27.650  44.394   8.550
 6393POPC   C2B27512  27.605  44.427   8.250
 6393POPC   C3B27513  27.649  44.391   7.950
 6393POPC   C4B27514  27.621  44.405   7.650
 6394POPC   NC327515  29.100  40.002   9.450
 6394POPC   PO427516  29.179  40.049   9.150
 6394POPC   GL127517  29.169  39.974   8.850
 6394POPC   GL227518  29.079  39.978   8.850
 6394POPC   C1A27519  29.128  40.032   8.550
 6394POPC   D2A27520  29.106  40.017   8.250
 6394POPC   C3A27521  29.118  40.026   7.950
 6394POPC   C4A27522  29.108  39.991   7.650
 6394POPC   C1B27523  28.954  39.838   8.550
 6394POPC   C2B27524  28.892  39.930   8.250
 6394POPC   C3B27525  28.975  39.853   7.950
 6394POPC   C4B27526  28.893  39.916   7.650
 6395POPC   NC327527  43.086  19.796   9.450
 6395POPC   PO427528  43.122  19.822   9.150
 6395POPC   GL127529  43.138  19.821   8.850
 6395POPC   GL227530  43.275  19.839   8.850
 6395POPC   C1A27531  43.098  19.832   8.550
 6395POPC   D2A27532  43.073  19.831   8.250
 6395POPC   C3A27533  43.137  19.856   7.950
 6395POPC   C4A27534  43.128  19.803   7.650
 6395POPC   C1B27535  43.393  19.777   8.550
 6395POPC   C2B27536  43.369  19.766   8.250
 6395POPC   C3B27537  43.345  19.785   7.950
 6395POPC   C4B27538  43.326  19.797   7.650
 6396POPC   NC327539  38.470  34.621   9.450
 6396POPC   PO427540  38.425  34.571   9.150
 6396POPC   GL127541  38.426  34.558   8.850
 6396POPC   GL227542  38.474  34.643   8.850
 6396POPC   C1A27543  38.413  34.601   8.550
 6396POPC   D2A27544  38.442  34.538   8.250
 6396POPC   C3A27545  38.489  34.556   7.950
 6396POPC   C4A27546  38.494  34.603   7.650
 6396POPC   C1B27547  38.584  34.772   8.550
 6396POPC   C2B27548  38.568  34.753   8.250
 6396POPC   C3B27549  38.603  34.804   7.950
 6396POPC   C4B27550  38.540  34.821   7.650
 6397POPC   NC327551   5.859  44.681   9.450
 6397POPC   PO427552   5.858  44.619   9.150
 6397POPC   GL127553   5.850  44.651   8.850
 6397POPC   GL227554   5.819  44.566   8.850
 6397POPC   C1A27555   5.856  44.650   8.550
 6397POPC   D2A27556   5.882  44.657   8.250
 6397POPC   C3A27557   5.897  44.704   7.950
 6397POPC   C4A27558   5.913  44.671   7.650
 6397POPC   C1B27559   5.702  44.494   8.550
 6397POPC   C2B27560   5.664  44.490   8.250
 6397POPC   C3B27561   5.705  44.446   7.950
 6397POPC   C4B27562   5.753  44.518   7.650
 6398POPC   NC327563  29.152   1.944   9.450
 6398POPC   PO427564  29.112   1.945   9.150
 6398POPC   GL127565  29.157   1.988   8.850
 6398POPC   GL227566  29.218   1.902   8.850
 6398POPC   C1A27567  29.098   2.008   8.550
 6398POPC   D2A27568  29.124   2.030   8.250
 6398POPC   C3A27569  29.101   2.020   7.950
 6398POPC   C4A27570  29.132   2.009   7.650
 6398POPC   C1B27571  29.325   1.868   8.550
 6398POPC   C2B27572  29.408   1.870   8.250
 6398POPC   C3B27573  29.355   1.869   7.950
 6398POPC   C4B27574  29.410   1.920   7.650
 6399POPC   NC327575  19.009  43.890   9.450
 6399POPC   PO427576  19.023  43.913   9.150
 6399POPC   GL127577  19.057  43.887   8.850
 6399POPC   GL227578  19.124  43.942   8.850
 6399POPC   C1A27579  19.052  43.861   8.550
 6399POPC   D2A27580  19.052  43.865   8.250
 6399POPC   C3A27581  19.073  43.930   7.950
 6399POPC   C4A27582  19.040  43.851   7.650
 6399POPC   C1B27583  19.198  44.094   8.550
 6399POPC   C2B27584  19.194  44.022   8.250
 6399POPC   C3B27585  19.225  44.103   7.950
 6399POPC   C4B27586  19.239  44.060   7.650
 6400POPC   NC327587   1.171   4.317   9.450
 6400POPC   PO427588   1.211   4.278   9.150
 6400POPC   GL127589   1.240   4.284   8.850
 6400POPC   GL227590   1.258   4.477   8.850
 6400POPC   C1A27591   1.206   4.339   8.550
 6400POPC   D2A27592   1.237   4.324   8.250
 6400POPC   C3A27593   1.203   4.342   7.950
 6400POPC   C4A27594   1.204   4.309   7.650
 6400POPC   C1B27595   1.256   4.550   8.550
 6400POPC   C2B27596   1.265   4.608   8.250
 6400POPC   C3B27597   1.198   4.560   7.950
 6400POPC   C4B27598   1.254   4.536   7.650
 6401POPC   NC327599  36.151   3.554   9.450
 6401POPC   PO427600  36.126   3.548   9.150
 6401POPC   GL127601  36.135   3.536   8.850
 6401POPC   GL227602  36.195   3.431   8.850
 6401POPC   C1A27603  36.106   3.516   8.550
 6401POPC   D2A27604  36.106   3.551   8.250
 6401POPC   C3A27605  36.086   3.563   7.950
 6401POPC   C4A27606  36.114   3.531   7.650
 6401POPC   C1B27607  36.297   3.399   8.550
 6401POPC   C2B27608  36.379   3.381   8.250
 6401POPC   C3B27609  36.353   3.424   7.950
 6401POPC   C4B27610  36.325   3.373   7.650
 6402POPC   NC327611  15.972  33.003   9.450
 6402POPC   PO427612  15.917  32.989   9.150
 6402POPC   GL127613  15.917  33.034   8.850
 6402POPC   GL227614  16.064  32.940   8.850
 6402POPC   C1A27615  15.959  32.988   8.550
 6402POPC   D2A27616  15.926  32.976   8.250
 6402POPC   C3A27617  15.965  33.018   7.950
 6402POPC   C4A27618  15.915  33.047   7.650
 6402POPC   C1B27619  16.160  32.877   8.550
 6402POPC   C2B27620  16.113  32.860   8.250
 6402POPC   C3B27621  16.118  32.863   7.950
 6402POPC   C4B27622  16.133  32.840   7.650
 6403POPC   NC327623  38.411   0.435   9.450
 6403POPC   PO427624  38.407   0.475   9.150
 6403POPC   GL127625  38.461   0.479   8.850
 6403POPC   GL227626  38.473   0.539   8.850
 6403POPC   C1A27627  38.461   0.471   8.550
 6403POPC   D2A27628  38.457   0.486   8.250
 6403POPC   C3A27629  38.445   0.471   7.950
 6403POPC   C4A27630  38.481   0.407   7.650
 6403POPC   C1B27631  38.552   0.708   8.550
 6403POPC   C2B27632  38.557   0.677   8.250
 6403POPC   C3B27633  38.484   0.682   7.950
 6403POPC   C4B27634  38.472   0.660   7.650
 6404POPC   NC327635  34.551  12.077   9.450
 6404POPC   PO427636  34.586  12.034   9.150
 6404POPC   GL127637  34.620  12.120   8.850
 6404POPC   GL227638  34.692  12.021   8.850
 6404POPC   C1A27639  34.544  12.066   8.550
 6404POPC   D2A27640  34.545  12.028   8.250
 6404POPC   C3A27641  34.610  12.041   7.950
 6404POPC   C4A27642  34.559  12.090   7.650
 6404POPC   C1B27643  34.702  11.870   8.550
 6404POPC   C2B27644  34.719  11.939   8.250
 6404POPC   C3B27645  34.795  11.878   7.950
 6404POPC   C4B27646  34.776  11.855   7.650
 6405POPC   NC327647   9.795  41.560   9.450
 6405POPC   PO427648   9.786  41.566   9.150
 6405POPC   GL127649   9.725  41.589   8.850
 6405POPC   GL227650   9.834  41.477   8.850
 6405POPC   C1A27651   9.699  41.602   8.550
 6405POPC   D2A27652   9.744  41.549   8.250
 6405POPC   C3A27653   9.710  41.536   7.950
 6405POPC   C4A27654   9.727  41.601   7.650
 6405POPC   C1B27655   9.873  41.393   8.550
 6405POPC   C2B27656   9.880  41.375   8.250
 6405POPC   C3B27657   9.903  41.344   7.950
 6405POPC   C4B27658   9.916  41.382   7.650
 6406POPC   NC327659   9.731  34.572   9.450
 6406POPC   PO427660   9.708  34.543   9.150
 6406POPC   GL127661   9.718  34.545   8.850
 6406POPC   GL227662   9.663  34.540   8.850
 6406POPC   C1A27663   9.757  34.598   8.550
 6406POPC   D2A27664   9.774  34.528   8.250
 6406POPC   C3A27665   9.745  34.581   7.950
 6406POPC   C4A27666   9.773  34.558   7.650
 6406POPC   C1B27667   9.557  34.509   8.550
 6406POPC   C2B27668   9.570  34.487   8.250
 6406POPC   C3B27669   9.525  34.425   7.950
 6406POPC   C4B27670   9.491  34.490   7.650
 6407POPC   NC327671  32.261  34.560   9.450
 6407POPC   PO427672  32.279  34.593   9.150
 6407POPC   GL127673  32.231  34.611   8.850
 6407POPC   GL227674  32.351  34.474   8.850
 6407POPC   C1A27675  32.204  34.625   8.550
 6407POPC   D2A27676  32.226  34.567   8.250
 6407POPC   C3A27677  32.217  34.559   7.950
 6407POPC   C4A27678  32.287  34.615   7.650
 6407POPC   C1B27679  32.384  34.350   8.550
 6407POPC   C2B27680  32.462  34.356   8.250
 6407POPC   C3B27681  32.394  34.388   7.950
 6407POPC   C4B27682  32.383  34.423   7.650
 6408POPC   NC327683  32.272   7.408   9.450
 6408POPC   PO427684  32.217   7.419   9.150
 6408POPC   GL127685  32.245   7.437   8.850
 6408POPC   GL227686  32.205   7.321   8.850
 6408POPC   C1A27687  32.261   7.430   8.550
 6408POPC   D2A27688  32.203   7.380   8.250
 6408POPC   C3A27689  32.250   7.465   7.950
 6408POPC   C4A27690  32.298   7.406   7.650
 6408POPC   C1B27691  32.093   7.188   8.550
 6408POPC   C2B27692  32.112   7.262   8.250
 6408POPC   C3B27693  32.082   7.283   7.950
 6408POPC   C4B27694  32.042   7.235   7.650
 6409POPC   NC327695   6.628  33.756   9.450
 6409POPC   PO427696   6.627  33.762   9.150
 6409POPC   GL127697   6.645  33.816   8.850
 6409POPC   GL227698   6.645  33.944   8.850
 6409POPC   C1A27699   6.625  33.836   8.550
 6409POPC   D2A27700   6.641  33.803   8.250
 6409POPC   C3A27701   6.609  33.780   7.950
 6409POPC   C4A27702   6.681  33.753   7.650
 6409POPC   C1B27703   6.623  34.053   8.550
 6409POPC   C2B27704   6.602  34.078   8.250
 6409POPC   C3B27705   6.576  34.073   7.950
 6409POPC   C4B27706   6.648  34.044   7.650
 6410POPC   NC327707  12.058   3.553   9.450
 6410POPC   PO427708  12.044   3.561   9.150
 6410POPC   GL127709  12.033   3.496   8.850
 6410POPC   GL227710  12.188   3.527   8.850
 6410POPC   C1A27711  12.065   3.564   8.550
 6410POPC   D2A27712  12.041   3.524   8.250
 6410POPC   C3A27713  12.055   3.541   7.950
 6410POPC   C4A27714  12.088   3.533   7.650
 6410POPC   C1B27715  12.301   3.491   8.550
 6410POPC   C2B27716  12.275   3.519   8.250
 6410POPC   C3B27717  12.335   3.506   7.950
 6410POPC   C4B27718  12.345   3.509   7.650
 6411POPC   NC327719  10.520  16.743   9.450
 6411POPC   PO427720  10.534  16.762   9.150
 6411POPC   GL127721  10.527  16.775   8.850
 6411POPC   GL227722  10.382  16.793   8.850
 6411POPC   C1A27723  10.558  16.722   8.550
 6411POPC   D2A27724  10.518  16.752   8.250
 6411POPC   C3A27725  10.532  16.742   7.950
 6411POPC   C4A27726  10.514  16.697   7.650
 6411POPC   C1B27727  10.257  16.843   8.550
 6411POPC   C2B27728  10.306  16.814   8.250
 6411POPC   C3B27729  10.332  16.850   7.950
 6411POPC   C4B27730  10.298  16.825   7.650
 6412POPC   NC327731   8.217  44.629   9.450
 6412POPC   PO427732   8.205  44.707   9.150
 6412POPC   GL127733   8.200  44.652   8.850
 6412POPC   GL227734   8.339  44.684   8.850
 6412POPC   C1A27735   8.192  44.623   8.550
 6412POPC   D2A27736   8.161  44.662   8.250
 6412POPC   C3A27737   8.189  44.678   7.950
 6412POPC   C4A27738   8.217  44.704   7.650
 6412POPC   C1B27739   8.363  44.765   8.550
 6412POPC   C2B27740   8.359  44.759   8.250
 6412POPC   C3B27741   8.413  44.822   7.950
 6412POPC   C4B27742   8.419  44.803   7.650
 6413POPC   NC327743  35.310  41.552   9.450
 6413POPC   PO427744  35.391  41.523   9.150
 6413POPC   GL127745  35.398  41.547   8.850
 6413POPC   GL227746  35.323  41.658   8.850
 6413POPC   C1A27747  35.358  41.549   8.550
 6413POPC   D2A27748  35.396  41.566   8.250
 6413POPC   C3A27749  35.362  41.588   7.950
 6413POPC   C4A27750  35.345  41.566   7.650
 6413POPC   C1B27751  35.232  41.818   8.550
 6413POPC   C2B27752  35.289  41.772   8.250
 6413POPC   C3B27753  35.321  41.803   7.950
 6413POPC   C4B27754  35.301  41.817   7.650
 6414POPC   NC327755  22.950  18.289   9.450
 6414POPC   PO427756  22.986  18.262   9.150
 6414POPC   GL127757  22.937  18.311   8.850
 6414POPC   GL227758  22.897  18.195   8.850
 6414POPC   C1A27759  22.981  18.289   8.550
 6414POPC   D2A27760  22.899  18.302   8.250
 6414POPC   C3A27761  22.933  18.272   7.950
 6414POPC   C4A27762  22.979  18.251   7.650
 6414POPC   C1B27763  22.827  18.074   8.550
 6414POPC   C2B27764  22.810  18.092   8.250
 6414POPC   C3B27765  22.831  18.011   7.950
 6414POPC   C4B27766  22.852  18.037   7.650
 6415POPC   NC327767   0.475  27.595   9.450
 6415POPC   PO427768   0.421  27.576   9.150
 6415POPC   GL127769   0.409  27.634   8.850
 6415POPC   GL227770   0.482  27.652   8.850
 6415POPC   C1A27771   0.464  27.569   8.550
 6415POPC   D2A27772   0.487  27.562   8.250
 6415POPC   C3A27773   0.467  27.606   7.950
 6415POPC   C4A27774   0.478  27.617   7.650
 6415POPC   C1B27775   0.647  27.773   8.550
 6415POPC   C2B27776   0.597  27.800   8.250
 6415POPC   C3B27777   0.588  27.727   7.950
 6415POPC   C4B27778   0.578  27.727   7.650
 6416POPC   NC327779  23.714  43.867   9.450
 6416POPC   PO427780  23.696  43.843   9.150
 6416POPC   GL127781  23.727  43.847   8.850
 6416POPC   GL227782  23.750  44.008   8.850
 6416POPC   C1A27783  23.753  43.854   8.550
 6416POPC   D2A27784  23.735  43.918   8.250
 6416POPC   C3A27785  23.730  43.854   7.950
 6416POPC   C4A27786  23.737  43.886   7.650
 6416POPC   C1B27787  23.807  44.068   8.550
 6416POPC   C2B27788  23.857  44.109   8.250
 6416POPC   C3B27789  23.863  44.129   7.950
 6416POPC   C4B27790  23.851  44.100   7.650
 6417POPC   NC327791  42.314  35.391   9.450
 6417POPC   PO427792  42.293  35.358   9.150
 6417POPC   GL127793  42.343  35.342   8.850
 6417POPC   GL227794  42.282  35.512   8.850
 6417POPC   C1A27795  42.304  35.382   8.550
 6417POPC   D2A27796  42.287  35.338   8.250
 6417POPC   C3A27797  42.291  35.397   7.950
 6417POPC   C4A27798  42.335  35.371   7.650
 6417POPC   C1B27799  42.321  35.605   8.550
 6417POPC   C2B27800  42.303  35.627   8.250
 6417POPC   C3B27801  42.266  35.644   7.950
 6417POPC   C4B27802  42.249  35.645   7.650
 6418POPC   NC327803  33.807   5.104   9.450
 6418POPC   PO427804  33.761   5.075   9.150
 6418POPC   GL127805  33.770   5.056   8.850
 6418POPC   GL227806  33.796   5.250   8.850
 6418POPC   C1A27807  33.832   5.050   8.550
 6418POPC   D2A27808  33.839   5.049   8.250
 6418POPC   C3A27809  33.835   5.141   7.950
 6418POPC   C4A27810  33.818   5.091   7.650
 6418POPC   C1B27811  33.864   5.315   8.550
 6418POPC   C2B27812  33.816   5.315   8.250
 6418POPC   C3B27813  33.791   5.292   7.950
 6418POPC   C4B27814  33.783   5.313   7.650
 6419POPC   NC327815   7.396  13.638   9.450
 6419POPC   PO427816   7.434  13.582   9.150
 6419POPC   GL127817   7.469  13.618   8.850
 6419POPC   GL227818   7.374  13.482   8.850
 6419POPC   C1A27819   7.414  13.610   8.550
 6419POPC   D2A27820   7.417  13.629   8.250
 6419POPC   C3A27821   7.391  13.635   7.950
 6419POPC   C4A27822   7.419  13.631   7.650
 6419POPC   C1B27823   7.331  13.336   8.550
 6419POPC   C2B27824   7.371  13.345   8.250
 6419POPC   C3B27825   7.374  13.409   7.950
 6419POPC   C4B27826   7.346  13.348   7.650
 6420POPC   NC327827  25.294  22.902   9.450
 6420POPC   PO427828  25.255  22.888   9.150
 6420POPC   GL127829  25.218  22.988   8.850
 6420POPC   GL227830  25.291  22.791   8.850
 6420POPC   C1A27831  25.239  22.977   8.550
 6420POPC   D2A27832  25.253  22.893   8.250
 6420POPC   C3A27833  25.306  22.928   7.950
 6420POPC   C4A27834  25.285  22.924   7.650
 6420POPC   C1B27835  25.425  22.741   8.550
 6420POPC   C2B27836  25.411  22.735   8.250
 6420POPC   C3B27837  25.424  22.727   7.950
 6420POPC   C4B27838  25.412  22.714   7.650
 6421POPC   NC327839  17.529  20.629   9.450
 6421POPC   PO427840  17.462  20.656   9.150
 6421POPC   GL127841  17.553  20.566   8.850
 6421POPC   GL227842  17.505  20.483   8.850
 6421POPC   C1A27843  17.458  20.636   8.550
 6421POPC   D2A27844  17.543  20.593   8.250
 6421POPC   C3A27845  17.550  20.615   7.950
 6421POPC   C4A27846  17.498  20.604   7.650
 6421POPC   C1B27847  17.429  20.389   8.550
 6421POPC   C2B27848  17.422  20.409   8.250
 6421POPC   C3B27849  17.424  20.339   7.950
 6421POPC   C4B27850  17.410  20.380   7.650
 6422POPC   NC327851  43.073  35.325   9.450
 6422POPC   PO427852  43.087  35.341   9.150
 6422POPC   GL127853  43.146  35.309   8.850
 6422POPC   GL227854  43.198  35.346   8.850
 6422POPC   C1A27855  43.149  35.345   8.550
 6422POPC   D2A27856  43.124  35.367   8.250
 6422POPC   C3A27857  43.124  35.349   7.950
 6422POPC   C4A27858  43.105  35.329   7.650
 6422POPC   C1B27859  43.378  35.258   8.550
 6422POPC   C2B27860  43.372  35.253   8.250
 6422POPC   C3B27861  43.325  35.259   7.950
 6422POPC   C4B27862  43.342  35.249   7.650
 6423POPC   NC327863  29.193  22.209   9.450
 6423POPC   PO427864  29.124  22.114   9.150
 6423POPC   GL127865  29.106  22.210   8.850
 6423POPC   GL227866  29.065  22.147   8.850
 6423POPC   C1A27867  29.143  22.196   8.550
 6423POPC   D2A27868  29.101  22.193   8.250
 6423POPC   C3A27869  29.186  22.131   7.950
 6423POPC   C4A27870  29.137  22.132   7.650
 6423POPC   C1B27871  28.965  21.999   8.550
 6423POPC   C2B27872  28.891  21.997   8.250
 6423POPC   C3B27873  28.894  22.050   7.950
 6423POPC   C4B27874  28.912  21.998   7.650
 6424POPC   NC327875  11.282  15.973   9.450
 6424POPC   PO427876  11.347  15.992   9.150
 6424POPC   GL127877  11.265  15.949   8.850
 6424POPC   GL227878  11.280  15.810   8.850
 6424POPC   C1A27879  11.345  15.956   8.550
 6424POPC   D2A27880  11.347  15.986   8.250
 6424POPC   C3A27881  11.277  15.935   7.950
 6424POPC   C4A27882  11.286  15.965   7.650
 6424POPC   C1B27883  11.291  15.694   8.550
 6424POPC   C2B27884  11.285  15.722   8.250
 6424POPC   C3B27885  11.270  15.754   7.950
 6424POPC   C4B27886  11.246  15.759   7.650
 6425POPC   NC327887  26.781   5.116   9.450
 6425POPC   PO427888  26.838   5.060   9.150
 6425POPC   GL127889  26.813   5.126   8.850
 6425POPC   GL227890  26.919   5.071   8.850
 6425POPC   C1A27891  26.782   5.086   8.550
 6425POPC   D2A27892  26.812   5.121   8.250
 6425POPC   C3A27893  26.845   5.084   7.950
 6425POPC   C4A27894  26.773   5.061   7.650
 6425POPC   C1B27895  27.082   4.985   8.550
 6425POPC   C2B27896  27.071   5.073   8.250
 6425POPC   C3B27897  27.069   5.051   7.950
 6425POPC   C4B27898  27.036   5.073   7.650
 6426POPC   NC327899  19.803  19.872   9.450
 6426POPC   PO427900  19.827  19.793   9.150
 6426POPC   GL127901  19.824  19.875   8.850
 6426POPC   GL227902  19.916  19.736   8.850
 6426POPC   C1A27903  19.804  19.825   8.550
 6426POPC   D2A27904  19.877  19.865   8.250
 6426POPC   C3A27905  19.798  19.794   7.950
 6426POPC   C4A27906  19.878  19.794   7.650
 6426POPC   C1B27907  19.998  19.649   8.550
 6426POPC   C2B27908  19.974  19.668   8.250
 6426POPC   C3B27909  19.967  19.623   7.950
 6426POPC   C4B27910  20.000  19.676   7.650
 6427POPC   NC327911  32.293  36.114   9.450
 6427POPC   PO427912  32.297  36.148   9.150
 6427POPC   GL127913  32.256  36.168   8.850
 6427POPC   GL227914  32.293  36.179   8.850
 6427POPC   C1A27915  32.213  36.176   8.550
 6427POPC   D2A27916  32.265  36.093   8.250
 6427POPC   C3A27917  32.245  36.099   7.950
 6427POPC   C4A27918  32.227  36.093   7.650
 6427POPC   C1B27919  32.429  36.362   8.550
 6427POPC   C2B27920  32.413  36.339   8.250
 6427POPC   C3B27921  32.411  36.287   7.950
 6427POPC   C4B27922  32.430  36.295   7.650
 6428POPC   NC327923  11.293  22.168   9.450
 6428POPC   PO427924  11.262  22.123   9.150
 6428POPC   GL127925  11.318  22.122   8.850
 6428POPC   GL227926  11.215  22.271   8.850
 6428POPC   C1A27927  11.346  22.152   8.550
 6428POPC   D2A27928  11.282  22.126   8.250
 6428POPC   C3A27929  11.252  22.159   7.950
 6428POPC   C4A27930  11.336  22.117   7.650
 6428POPC   C1B27931  11.247  22.380   8.550
 6428POPC   C2B27932  11.247  22.427   8.250
 6428POPC   C3B27933  11.206  22.398   7.950
 6428POPC   C4B27934  11.203  22.419   7.650
 6429POPC   NC327935  33.847  10.570   9.450
 6429POPC   PO427936  33.751  10.569   9.150
 6429POPC   GL127937  33.779  10.564   8.850
 6429POPC   GL227938  33.761  10.427   8.850
 6429POPC   C1A27939  33.820  10.555   8.550
 6429POPC   D2A27940  33.810  10.505   8.250
 6429POPC   C3A27941  33.760  10.531   7.950
 6429POPC   C4A27942  33.789  10.508   7.650
 6429POPC   C1B27943  33.791  10.316   8.550
 6429POPC   C2B27944  33.771  10.271   8.250
 6429POPC   C3B27945  33.797  10.280   7.950
 6429POPC   C4B27946  33.793  10.232   7.650
 6430POPC   NC327947  22.946  29.959   9.450
 6430POPC   PO427948  22.916  29.952   9.150
 6430POPC   GL127949  22.928  29.897   8.850
 6430POPC   GL227950  22.971  29.786   8.850
 6430POPC   C1A27951  22.987  29.882   8.550
 6430POPC   D2A27952  22.969  29.909   8.250
 6430POPC   C3A27953  22.945  29.879   7.950
 6430POPC   C4A27954  22.894  29.907   7.650
 6430POPC   C1B27955  23.034  29.700   8.550
 6430POPC   C2B27956  23.069  29.659   8.250
 6430POPC   C3B27957  23.077  29.677   7.950
 6430POPC   C4B27958  23.053  29.673   7.650
 6431POPC   NC327959  20.576  15.999   9.450
 6431POPC   PO427960  20.648  16.003   9.150
 6431POPC   GL127961  20.603  15.960   8.850
 6431POPC   GL227962  20.661  15.811   8.850
 6431POPC   C1A27963  20.595  15.922   8.550
 6431POPC   D2A27964  20.571  15.922   8.250
 6431POPC   C3A27965  20.599  15.923   7.950
 6431POPC   C4A27966  20.638  15.950   7.650
 6431POPC   C1B27967  20.641  15.746   8.550
 6431POPC   C2B27968  20.646  15.671   8.250
 6431POPC   C3B27969  20.641  15.741   7.950
 6431POPC   C4B27970  20.657  15.673   7.650
 6432POPC   NC327971  39.972  19.820   9.450
 6432POPC   PO427972  40.001  19.839   9.150
 6432POPC   GL127973  40.035  19.826   8.850
 6432POPC   GL227974  39.999  19.917   8.850
 6432POPC   C1A27975  39.965  19.842   8.550
 6432POPC   D2A27976  39.979  19.881   8.250
 6432POPC   C3A27977  40.006  19.831   7.950
 6432POPC   C4A27978  39.979  19.878   7.650
 6432POPC   C1B27979  39.950  20.041   8.550
 6432POPC   C2B27980  39.915  20.118   8.250
 6432POPC   C3B27981  39.927  20.044   7.950
 6432POPC   C4B27982  39.948  20.125   7.650
 6433POPC   NC327983   0.425  43.907   9.450
 6433POPC   PO427984   0.474  43.895   9.150
 6433POPC   GL127985   0.459  43.876   8.850
 6433POPC   GL227986   0.533  43.968   8.850
 6433POPC   C1A27987   0.405  43.906   8.550
 6433POPC   D2A27988   0.445  43.869   8.250
 6433POPC   C3A27989   0.389  43.888   7.950
 6433POPC   C4A27990   0.412  43.910   7.650
 6433POPC   C1B27991   0.658  44.006   8.550
 6433POPC   C2B27992   0.672  43.988   8.250
 6433POPC   C3B27993   0.592  44.003   7.950
 6433POPC   C4B27994   0.649  43.998   7.650
 6434POPC   NC327995   2.766  23.751   9.450
 6434POPC   PO427996   2.756  23.757   9.150
 6434POPC   GL127997   2.801  23.700   8.850
 6434POPC   GL227998   2.851  23.618   8.850
 6434POPC   C1A27999   2.783  23.742   8.550
 6434POPC   D2A28000   2.759  23.686   8.250
 6434POPC   C3A28001   2.775  23.739   7.950
 6434POPC   C4A28002   2.718  23.742   7.650
 6434POPC   C1B28003   2.908  23.497   8.550
 6434POPC   C2B28004   2.901  23.552   8.250
 6434POPC   C3B28005   2.929  23.584   7.950
 6434POPC   C4B28006   2.978  23.533   7.650
 6435POPC   NC328007  12.064  18.313   9.450
 6435POPC   PO428008  12.093  18.329   9.150
 6435POPC   GL128009  12.054  18.267   8.850
 6435POPC   GL228010  12.188  18.271   8.850
 6435POPC   C1A28011  12.064  18.295   8.550
 6435POPC   D2A28012  12.074  18.240   8.250
 6435POPC   C3A28013  12.057  18.274   7.950
 6435POPC   C4A28014  12.057  18.318   7.650
 6435POPC   C1B28015  12.278  18.141   8.550
 6435POPC   C2B28016  12.319  18.177   8.250
 6435POPC   C3B28017  12.351  18.212   7.950
 6435POPC   C4B28018  12.347  18.191   7.650
 6436POPC   NC328019   4.287  18.316   9.450
 6436POPC   PO428020   4.287  18.311   9.150
 6436POPC   GL128021   4.289  18.291   8.850
 6436POPC   GL228022   4.487  18.322   8.850
 6436POPC   C1A28023   4.294  18.269   8.550
 6436POPC   D2A28024   4.309  18.297   8.250
 6436POPC   C3A28025   4.350  18.296   7.950
 6436POPC   C4A28026   4.351  18.259   7.650
 6436POPC   C1B28027   4.554  18.273   8.550
 6436POPC   C2B28028   4.590  18.266   8.250
 6436POPC   C3B28029   4.585  18.274   7.950
 6436POPC   C4B28030   4.580  18.309   7.650
 6437POPC   NC328031  10.569  32.994   9.450
 6437POPC   PO428032  10.502  33.020   9.150
 6437POPC   GL128033  10.512  33.029   8.850
 6437POPC   GL228034  10.434  32.900   8.850
 6437POPC   C1A28035  10.509  32.983   8.550
 6437POPC   D2A28036  10.552  33.007   8.250
 6437POPC   C3A28037  10.500  33.029   7.950
 6437POPC   C4A28038  10.492  32.975   7.650
 6437POPC   C1B28039  10.434  32.819   8.550
 6437POPC   C2B28040  10.358  32.757   8.250
 6437POPC   C3B28041  10.381  32.794   7.950
 6437POPC   C4B28042  10.449  32.811   7.650
 6438POPC   NC328043  36.862  12.823   9.450
 6438POPC   PO428044  36.936  12.843   9.150
 6438POPC   GL128045  36.857  12.862   8.850
 6438POPC   GL228046  37.000  12.878   8.850
 6438POPC   C1A28047  36.897  12.823   8.550
 6438POPC   D2A28048  36.919  12.814   8.250
 6438POPC   C3A28049  36.914  12.895   7.950
 6438POPC   C4A28050  36.891  12.888   7.650
 6438POPC   C1B28051  37.103  12.890   8.550
 6438POPC   C2B28052  37.149  12.905   8.250
 6438POPC   C3B28053  37.117  12.890   7.950
 6438POPC   C4B28054  37.138  12.874   7.650
 6439POPC   NC328055  25.293   5.843   9.450
 6439POPC   PO428056  25.315   5.832   9.150
 6439POPC   GL128057  25.247   5.859   8.850
 6439POPC   GL228058  25.430   5.883   8.850
 6439POPC   C1A28059  25.251   5.898   8.550
 6439POPC   D2A28060  25.304   5.848   8.250
 6439POPC   C3A28061  25.300   5.918   7.950
 6439POPC   C4A28062  25.312   5.856   7.650
 6439POPC   C1B28063  25.477   5.852   8.550
 6439POPC   C2B28064  25.499   5.892   8.250
 6439POPC   C3B28065  25.489   5.844   7.950
 6439POPC   C4B28066  25.498   5.909   7.650
 6440POPC   NC328067  42.345   1.979   9.450
 6440POPC   PO428068  42.348   2.014   9.150
 6440POPC   GL128069  42.361   1.962   8.850
 6440POPC   GL228070  42.257   2.103   8.850
 6440POPC   C1A28071  42.383   1.947   8.550
 6440POPC   D2A28072  42.384   2.030   8.250
 6440POPC   C3A28073  42.364   2.035   7.950
 6440POPC   C4A28074  42.356   1.972   7.650
 6440POPC   C1B28075  42.244   2.219   8.550
 6440POPC   C2B28076  42.159   2.212   8.250
 6440POPC   C3B28077  42.224   2.180   7.950
 6440POPC   C4B28078  42.239   2.177   7.650
 6441POPC   NC328079   4.346  16.693   9.450
 6441POPC   PO428080   4.355  16.722   9.150
 6441POPC   GL128081   4.340  16.694   8.850
 6441POPC   GL228082   4.175  16.745   8.850
 6441POPC   C1A28083   4.349  16.758   8.550
 6441POPC   D2A28084   4.313  16.717   8.250
 6441POPC   C3A28085   4.272  16.744   7.950
 6441POPC   C4A28086   4.332  16.773   7.650
 6441POPC   C1B28087   4.099  16.792   8.550
 6441POPC   C2B28088   4.091  16.776   8.250
 6441POPC   C3B28089   4.080  16.824   7.950
 6441POPC   C4B28090   4.117  16.815   7.650
 6442POPC   NC328091  21.369  38.417   9.450
 6442POPC   PO428092  21.402  38.483   9.150
 6442POPC   GL128093  21.420  38.432   8.850
 6442POPC   GL228094  21.459  38.500   8.850
 6442POPC   C1A28095  21.431  38.498   8.550
 6442POPC   D2A28096  21.433  38.484   8.250
 6442POPC   C3A28097  21.399  38.476   7.950
 6442POPC   C4A28098  21.381  38.414   7.650
 6442POPC   C1B28099  21.576  38.571   8.550
 6442POPC   C2B28100  21.599  38.624   8.250
 6442POPC   C3B28101  21.550  38.608   7.950
 6442POPC   C4B28102  21.619  38.565   7.650
 6443POPC   NC328103  40.801   6.598   9.450
 6443POPC   PO428104  40.736   6.645   9.150
 6443POPC   GL128105  40.761   6.616   8.850
 6443POPC   GL228106  40.673   6.701   8.850
 6443POPC   C1A28107  40.790   6.597   8.550
 6443POPC   D2A28108  40.787   6.619   8.250
 6443POPC   C3A28109  40.788   6.634   7.950
 6443POPC   C4A28110  40.817   6.623   7.650
 6443POPC   C1B28111  40.524   6.746   8.550
 6443POPC   C2B28112  40.526   6.745   8.250
 6443POPC   C3B28113  40.505   6.738   7.950
 6443POPC   C4B28114  40.576   6.666   7.650
 6444POPC   NC328115  35.356  21.368   9.450
 6444POPC   PO428116  35.360  21.357   9.150
 6444POPC   GL128117  35.383  21.425   8.850
 6444POPC   GL228118  35.239  21.463   8.850
 6444POPC   C1A28119  35.393  21.391   8.550
 6444POPC   D2A28120  35.326  21.418   8.250
 6444POPC   C3A28121  35.364  21.358   7.950
 6444POPC   C4A28122  35.354  21.402   7.650
 6444POPC   C1B28123  35.196  21.584   8.550
 6444POPC   C2B28124  35.203  21.525   8.250
 6444POPC   C3B28125  35.175  21.528   7.950
 6444POPC   C4B28126  35.179  21.562   7.650
 6445POPC   NC328127  19.874  36.940   9.450
 6445POPC   PO428128  19.829  36.944   9.150
 6445POPC   GL128129  19.834  36.952   8.850
 6445POPC   GL228130  19.947  36.942   8.850
 6445POPC   C1A28131  19.790  36.949   8.550
 6445POPC   D2A28132  19.813  36.893   8.250
 6445POPC   C3A28133  19.786  36.920   7.950
 6445POPC   C4A28134  19.807  36.910   7.650
 6445POPC   C1B28135  20.064  36.905   8.550
 6445POPC   C2B28136  20.057  36.877   8.250
 6445POPC   C3B28137  20.083  36.958   7.950
 6445POPC   C4B28138  20.118  36.883   7.650
 6446POPC   NC328139  34.552  40.041   9.450
 6446POPC   PO428140  34.536  39.961   9.150
 6446POPC   GL128141  34.565  40.027   8.850
 6446POPC   GL228142  34.694  40.121   8.850
 6446POPC   C1A28143  34.606  39.988   8.550
 6446POPC   D2A28144  34.599  40.047   8.250
 6446POPC   C3A28145  34.595  40.027   7.950
 6446POPC   C4A28146  34.572  40.012   7.650
 6446POPC   C1B28147  34.705  40.161   8.550
 6446POPC   C2B28148  34.762  40.151   8.250
 6446POPC   C3B28149  34.699  40.185   7.950
 6446POPC   C4B28150  34.735  40.150   7.650
 6447POPC   NC328151  33.029   1.956   9.450
 6447POPC   PO428152  33.051   1.949   9.150
 6447POPC   GL128153  33.013   2.034   8.850
 6447POPC   GL228154  33.083   2.014   8.850
 6447POPC   C1A28155  33.055   1.966   8.550
 6447POPC   D2A28156  33.048   1.944   8.250
 6447POPC   C3A28157  33.011   1.993   7.950
 6447POPC   C4A28158  33.066   2.035   7.650
 6447POPC   C1B28159  33.221   2.101   8.550
 6447POPC   C2B28160  33.244   2.067   8.250
 6447POPC   C3B28161  33.270   2.100   7.950
 6447POPC   C4B28162  33.207   2.122   7.650
 6448POPC   NC328163   8.949  22.143   9.450
 6448POPC   PO428164   8.984  22.201   9.150
 6448POPC   GL128165   9.008  22.185   8.850
 6448POPC   GL228166   8.870  22.177   8.850
 6448POPC   C1A28167   8.970  22.115   8.550
 6448POPC   D2A28168   8.996  22.133   8.250
 6448POPC   C3A28169   8.939  22.151   7.950
 6448POPC   C4A28170   8.959  22.123   7.650
 6448POPC   C1B28171   8.764  22.148   8.550
 6448POPC   C2B28172   8.674  22.204   8.250
 6448POPC   C3B28173   8.771  22.123   7.950
 6448POPC   C4B28174   8.696  22.204   7.650
 6449POPC   NC328175  12.109  38.459   9.450
 6449POPC   PO428176  12.032  38.474   9.150
 6449POPC   GL128177  12.047  38.495   8.850
 6449POPC   GL228178  12.044  38.310   8.850
 6449POPC   C1A28179  12.110  38.410   8.550
 6449POPC   D2A28180  12.054  38.464   8.250
 6449POPC   C3A28181  12.031  38.427   7.950
 6449POPC   C4A28182  12.078  38.485   7.650
 6449POPC   C1B28183  11.979  38.198   8.550
 6449POPC   C2B28184  11.970  38.212   8.250
 6449POPC   C3B28185  11.929  38.266   7.950
 6449POPC   C4B28186  12.002  38.200   7.650
 6450POPC   NC328187  24.472  26.797   9.450
 6450POPC   PO428188  24.535  26.796   9.150
 6450POPC   GL128189  24.529  26.836   8.850
 6450POPC   GL228190  24.583  26.879   8.850
 6450POPC   C1A28191  24.526  26.807   8.550
 6450POPC   D2A28192  24.481  26.804   8.250
 6450POPC   C3A28193  24.475  26.863   7.950
 6450POPC   C4A28194  24.458  26.864   7.650
 6450POPC   C1B28195  24.721  26.906   8.550
 6450POPC   C2B28196  24.693  26.845   8.250
 6450POPC   C3B28197  24.744  26.851   7.950
 6450POPC   C4B28198  24.763  26.864   7.650
 6451POPC   NC328199  37.670  26.848   9.450
 6451POPC   PO428200  37.632  26.829   9.150
 6451POPC   GL128201  37.718  26.773   8.850
 6451POPC   GL228202  37.637  26.720   8.850
 6451POPC   C1A28203  37.673  26.812   8.550
 6451POPC   D2A28204  37.710  26.855   8.250
 6451POPC   C3A28205  37.691  26.802   7.950
 6451POPC   C4A28206  37.694  26.842   7.650
 6451POPC   C1B28207  37.599  26.595   8.550
 6451POPC   C2B28208  37.564  26.577   8.250
 6451POPC   C3B28209  37.526  26.620   7.950
 6451POPC   C4B28210  37.524  26.573   7.650
 6452POPC   NC328211  42.287  16.779   9.450
 6452POPC   PO428212  42.327  16.694   9.150
 6452POPC   GL128213  42.315  16.701   8.850
 6452POPC   GL228214  42.358  16.571   8.850
 6452POPC   C1A28215  42.333  16.753   8.550
 6452POPC   D2A28216  42.295  16.718   8.250
 6452POPC   C3A28217  42.353  16.741   7.950
 6452POPC   C4A28218  42.319  16.759   7.650
 6452POPC   C1B28219  42.328  16.444   8.550
 6452POPC   C2B28220  42.370  16.452   8.250
 6452POPC   C3B28221  42.349  16.501   7.950
 6452POPC   C4B28222  42.353  16.507   7.650
 6453POPC   NC328223  14.426   4.328   9.450
 6453POPC   PO428224  14.377   4.327   9.150
 6453POPC   GL128225  14.369   4.291   8.850
 6453POPC   GL228226  14.331   4.338   8.850
 6453POPC   C1A28227  14.355   4.316   8.550
 6453POPC   D2A28228  14.404   4.316   8.250
 6453POPC   C3A28229  14.417   4.346   7.950
 6453POPC   C4A28230  14.382   4.345   7.650
 6453POPC   C1B28231  14.147   4.372   8.550
 6453POPC   C2B28232  14.206   4.387   8.250
 6453POPC   C3B28233  14.165   4.375   7.950
 6453POPC   C4B28234  14.186   4.443   7.650
 6454POPC   NC328235   2.037  22.958   9.450
 6454POPC   PO428236   2.014  22.985   9.150
 6454POPC   GL128237   1.980  22.958   8.850
 6454POPC   GL228238   2.097  23.013   8.850
 6454POPC   C1A28239   1.988  22.921   8.550
 6454POPC   D2A28240   1.977  22.902   8.250
 6454POPC   C3A28241   1.949  22.980   7.950
 6454POPC   C4A28242   1.969  22.944   7.650
 6454POPC   C1B28243   2.193  22.964   8.550
 6454POPC   C2B28244   2.234  23.057   8.250
 6454POPC   C3B28245   2.241  23.013   7.950
 6454POPC   C4B28246   2.235  23.051   7.650
 6455POPC   NC328247  36.945  27.583   9.450
 6455POPC   PO428248  36.919  27.561   9.150
 6455POPC   GL128249  36.943  27.545   8.850
 6455POPC   GL228250  36.985  27.667   8.850
 6455POPC   C1A28251  36.881  27.564   8.550
 6455POPC   D2A28252  36.911  27.637   8.250
 6455POPC   C3A28253  36.855  27.560   7.950
 6455POPC   C4A28254  36.881  27.606   7.650
 6455POPC   C1B28255  37.148  27.753   8.550
 6455POPC   C2B28256  37.085  27.707   8.250
 6455POPC   C3B28257  37.111  27.679   7.950
 6455POPC   C4B28258  37.135  27.745   7.650
 6456POPC   NC328259   0.399  11.261   9.450
 6456POPC   PO428260   0.458  11.281   9.150
 6456POPC   GL128261   0.437  11.319   8.850
 6456POPC   GL228262   0.564  11.302   8.850
 6456POPC   C1A28263   0.420  11.333   8.550
 6456POPC   D2A28264   0.430  11.265   8.250
 6456POPC   C3A28265   0.465  11.285   7.950
 6456POPC   C4A28266   0.420  11.319   7.650
 6456POPC   C1B28267   0.677  11.204   8.550
 6456POPC   C2B28268   0.694  11.208   8.250
 6456POPC   C3B28269   0.660  11.240   7.950
 6456POPC   C4B28270   0.709  11.204   7.650
 6457POPC   NC328271  23.739   3.561   9.450
 6457POPC   PO428272  23.721   3.570   9.150
 6457POPC   GL128273  23.758   3.543   8.850
 6457POPC   GL228274  23.755   3.604   8.850
 6457POPC   C1A28275  23.754   3.556   8.550
 6457POPC   D2A28276  23.732   3.509   8.250
 6457POPC   C3A28277  23.737   3.537   7.950
 6457POPC   C4A28278  23.719   3.537   7.650
 6457POPC   C1B28279  23.828   3.796   8.550
 6457POPC   C2B28280  23.806   3.741   8.250
 6457POPC   C3B28281  23.874   3.744   7.950
 6457POPC   C4B28282  23.826   3.754   7.650
 6458POPC   NC328283  37.640  22.178   9.450
 6458POPC   PO428284  37.656  22.178   9.150
 6458POPC   GL128285  37.722  22.121   8.850
 6458POPC   GL228286  37.788  22.133   8.850
 6458POPC   C1A28287  37.675  22.164   8.550
 6458POPC   D2A28288  37.694  22.162   8.250
 6458POPC   C3A28289  37.661  22.158   7.950
 6458POPC   C4A28290  37.724  22.136   7.650
 6458POPC   C1B28291  37.917  22.079   8.550
 6458POPC   C2B28292  37.920  22.006   8.250
 6458POPC   C3B28293  37.863  22.024   7.950
 6458POPC   C4B28294  37.862  22.069   7.650
 6459POPC   NC328295  35.303  22.174   9.450
 6459POPC   PO428296  35.344  22.141   9.150
 6459POPC   GL128297  35.367  22.173   8.850
 6459POPC   GL228298  35.301  22.220   8.850
 6459POPC   C1A28299  35.351  22.190   8.550
 6459POPC   D2A28300  35.353  22.199   8.250
 6459POPC   C3A28301  35.339  22.192   7.950
 6459POPC   C4A28302  35.333  22.141   7.650
 6459POPC   C1B28303  35.157  22.322   8.550
 6459POPC   C2B28304  35.189  22.300   8.250
 6459POPC   C3B28305  35.158  22.358   7.950
 6459POPC   C4B28306  35.167  22.317   7.650
 6460POPC   NC328307  34.619  22.149   9.450
 6460POPC   PO428308  34.569  22.210   9.150
 6460POPC   GL128309  34.575  22.127   8.850
 6460POPC   GL228310  34.545  22.072   8.850
 6460POPC   C1A28311  34.529  22.209   8.550
 6460POPC   D2A28312  34.625  22.194   8.250
 6460POPC   C3A28313  34.551  22.179   7.950
 6460POPC   C4A28314  34.619  22.142   7.650
 6460POPC   C1B28315  34.460  21.954   8.550
 6460POPC   C2B28316  34.448  21.965   8.250
 6460POPC   C3B28317  34.403  21.997   7.950
 6460POPC   C4B28318  34.391  21.942   7.650
 6461POPC   NC328319   9.771  43.856   9.450
 6461POPC   PO428320   9.788  43.889   9.150
 6461POPC   GL128321   9.753  43.891   8.850
 6461POPC   GL228322   9.876  43.890   8.850
 6461POPC   C1A28323   9.747  43.936   8.550
 6461POPC   D2A28324   9.723  43.859   8.250
 6461POPC   C3A28325   9.759  43.906   7.950
 6461POPC   C4A28326   9.756  43.925   7.650
 6461POPC   C1B28327  10.021  43.900   8.550
 6461POPC   C2B28328   9.952  43.977   8.250
 6461POPC   C3B28329  10.023  43.933   7.950
 6461POPC   C4B28330   9.946  43.917   7.650
 6462POPC   NC328331  11.270  34.564   9.450
 6462POPC   PO428332  11.312  34.595   9.150
 6462POPC   GL128333  11.320  34.592   8.850
 6462POPC   GL228334  11.377  34.586   8.850
 6462POPC   C1A28335  11.319  34.578   8.550
 6462POPC   D2A28336  11.336  34.559   8.250
 6462POPC   C3A28337  11.348  34.583   7.950
 6462POPC   C4A28338  11.279  34.609   7.650
 6462POPC   C1B28339  11.554  34.653   8.550
 6462POPC   C2B28340  11.513  34.651   8.250
 6462POPC   C3B28341  11.491  34.679   7.950
 6462POPC   C4B28342  11.523  34.695   7.650
 6463POPC   NC328343   1.995   8.234   9.450
 6463POPC   PO428344   2.024   8.241   9.150
 6463POPC   GL128345   2.039   8.168   8.850
 6463POPC   GL228346   1.838   8.200   8.850
 6463POPC   C1A28347   2.024   8.179   8.550
 6463POPC   D2A28348   1.980   8.238   8.250
 6463POPC   C3A28349   1.996   8.206   7.950
 6463POPC   C4A28350   2.003   8.246   7.650
 6463POPC   C1B28351   1.732   8.260   8.550
 6463POPC   C2B28352   1.753   8.267   8.250
 6463POPC   C3B28353   1.765   8.217   7.950
 6463POPC   C4B28354   1.774   8.230   7.650
 6464POPC   NC328355   4.359   3.498   9.450
 6464POPC   PO428356   4.355   3.510   9.150
 6464POPC   GL128357   4.307   3.519   8.850
 6464POPC   GL228358   4.181   3.568   8.850
 6464POPC   C1A28359   4.361   3.542   8.550
 6464POPC   D2A28360   4.276   3.578   8.250
 6464POPC   C3A28361   4.333   3.517   7.950
 6464POPC   C4A28362   4.272   3.554   7.650
 6464POPC   C1B28363   4.067   3.517   8.550
 6464POPC   C2B28364   4.075   3.604   8.250
 6464POPC   C3B28365   4.041   3.607   7.950
 6464POPC   C4B28366   4.095   3.551   7.650
 6465POPC   NC328367  19.084  39.228   9.450
 6465POPC   PO428368  19.074  39.278   9.150
 6465POPC   GL128369  19.048  39.222   8.850
 6465POPC   GL228370  19.176  39.303   8.850
 6465POPC   C1A28371  19.019  39.222   8.550
 6465POPC   D2A28372  19.018  39.281   8.250
 6465POPC   C3A28373  19.063  39.233   7.950
 6465POPC   C4A28374  19.046  39.182   7.650
 6465POPC   C1B28375  19.220  39.451   8.550
 6465POPC   C2B28376  19.244  39.454   8.250
 6465POPC   C3B28377  19.267  39.398   7.950
 6465POPC   C4B28378  19.245  39.450   7.650
 6466POPC   NC328379   3.561  11.323   9.450
 6466POPC   PO428380   3.526  11.287   9.150
 6466POPC   GL128381   3.522  11.325   8.850
 6466POPC   GL228382   3.424  11.267   8.850
 6466POPC   C1A28383   3.569  11.278   8.550
 6466POPC   D2A28384   3.535  11.342   8.250
 6466POPC   C3A28385   3.499  11.287   7.950
 6466POPC   C4A28386   3.547  11.304   7.650
 6466POPC   C1B28387   3.308  11.278   8.550
 6466POPC   C2B28388   3.270  11.240   8.250
 6466POPC   C3B28389   3.249  11.233   7.950
 6466POPC   C4B28390   3.255  11.271   7.650
 6467POPC   NC328391  12.072  43.126   9.450
 6467POPC   PO428392  12.113  43.074   9.150
 6467POPC   GL128393  12.033  43.147   8.850
 6467POPC   GL228394  11.948  43.125   8.850
 6467POPC   C1A28395  12.087  43.067   8.550
 6467POPC   D2A28396  12.076  43.160   8.250
 6467POPC   C3A28397  12.092  43.121   7.950
 6467POPC   C4A28398  12.116  43.141   7.650
 6467POPC   C1B28399  11.809  43.184   8.550
 6467POPC   C2B28400  11.893  43.198   8.250
 6467POPC   C3B28401  11.852  43.262   7.950
 6467POPC   C4B28402  11.887  43.239   7.650
 6468POPC   NC328403  15.225  33.034   9.450
 6468POPC   PO428404  15.200  33.013   9.150
 6468POPC   GL128405  15.171  33.069   8.850
 6468POPC   GL228406  15.269  32.877   8.850
 6468POPC   C1A28407  15.206  32.995   8.550
 6468POPC   D2A28408  15.137  33.024   8.250
 6468POPC   C3A28409  15.192  32.984   7.950
 6468POPC   C4A28410  15.190  32.983   7.650
 6468POPC   C1B28411  15.283  32.777   8.550
 6468POPC   C2B28412  15.341  32.837   8.250
 6468POPC   C3B28413  15.321  32.813   7.950
 6468POPC   C4B28414  15.302  32.801   7.650
 6469POPC   NC328415  23.682   5.864   9.450
 6469POPC   PO428416  23.728   5.863   9.150
 6469POPC   GL128417  23.694   5.848   8.850
 6469POPC   GL228418  23.819   5.805   8.850
 6469POPC   C1A28419  23.672   5.859   8.550
 6469POPC   D2A28420  23.753   5.906   8.250
 6469POPC   C3A28421  23.747   5.850   7.950
 6469POPC   C4A28422  23.733   5.873   7.650
 6469POPC   C1B28423  23.825   5.610   8.550
 6469POPC   C2B28424  23.798   5.639   8.250
 6469POPC   C3B28425  23.882   5.672   7.950
 6469POPC   C4B28426  23.889   5.690   7.650
 6470POPC   NC328427   5.889   5.853   9.450
 6470POPC   PO428428   5.869   5.875   9.150
 6470POPC   GL128429   5.898   5.868   8.850
 6470POPC   GL228430   5.921   5.960   8.850
 6470POPC   C1A28431   5.824   5.880   8.550
 6470POPC   D2A28432   5.859   5.874   8.250
 6470POPC   C3A28433   5.917   5.903   7.950
 6470POPC   C4A28434   5.852   5.856   7.650
 6470POPC   C1B28435   6.066   6.066   8.550
 6470POPC   C2B28436   6.098   6.056   8.250
 6470POPC   C3B28437   6.106   6.028   7.950
 6470POPC   C4B28438   6.075   6.048   7.650
 6471POPC   NC328439   8.207  42.314   9.450
 6471POPC   PO428440   8.157  42.365   9.150
 6471POPC   GL128441   8.185  42.289   8.850
 6471POPC   GL228442   8.079  42.347   8.850
 6471POPC   C1A28443   8.197  42.376   8.550
 6471POPC   D2A28444   8.213  42.305   8.250
 6471POPC   C3A28445   8.241  42.326   7.950
 6471POPC   C4A28446   8.219  42.363   7.650
 6471POPC   C1B28447   7.912  42.384   8.550
 6471POPC   C2B28448   7.977  42.388   8.250
 6471POPC   C3B28449   7.933  42.366   7.950
 6471POPC   C4B28450   7.947  42.387   7.650
 6472POPC   NC328451   9.004   5.831   9.450
 6472POPC   PO428452   8.939   5.895   9.150
 6472POPC   GL128453   9.005   5.914   8.850
 6472POPC   GL228454   8.890   5.915   8.850
 6472POPC   C1A28455   8.975   5.828   8.550
 6472POPC   D2A28456   9.008   5.876   8.250
 6472POPC   C3A28457   8.928   5.889   7.950
 6472POPC   C4A28458   8.998   5.831   7.650
 6472POPC   C1B28459   8.743   5.897   8.550
 6472POPC   C2B28460   8.758   5.904   8.250
 6472POPC   C3B28461   8.703   5.933   7.950
 6472POPC   C4B28462   8.764   5.897   7.650
 6473POPC   NC328463  40.029  39.204   9.450
 6473POPC   PO428464  39.978  39.214   9.150
 6473POPC   GL128465  40.038  39.263   8.850
 6473POPC   GL228466  39.898  39.150   8.850
 6473POPC   C1A28467  39.969  39.239   8.550
 6473POPC   D2A28468  39.961  39.196   8.250
 6473POPC   C3A28469  39.996  39.207   7.950
 6473POPC   C4A28470  40.025  39.197   7.650
 6473POPC   C1B28471  39.793  39.185   8.550
 6473POPC   C2B28472  39.753  39.132   8.250
 6473POPC   C3B28473  39.754  39.169   7.950
 6473POPC   C4B28474  39.730  39.145   7.650
 6474POPC   NC328475  26.862  40.806   9.450
 6474POPC   PO428476  26.770  40.769   9.150
 6474POPC   GL128477  26.781  40.775   8.850
 6474POPC   GL228478  26.828  40.631   8.850
 6474POPC   C1A28479  26.860  40.751   8.550
 6474POPC   D2A28480  26.801  40.790   8.250
 6474POPC   C3A28481  26.772  40.828   7.950
 6474POPC   C4A28482  26.827  40.778   7.650
 6474POPC   C1B28483  26.706  40.590   8.550
 6474POPC   C2B28484  26.798  40.546   8.250
 6474POPC   C3B28485  26.775  40.573   7.950
 6474POPC   C4B28486  26.802  40.505   7.650
 6475POPC   NC328487  15.216  38.442   9.450
 6475POPC   PO428488  15.133  38.479   9.150
 6475POPC   GL128489  15.227  38.439   8.850
 6475POPC   GL228490  15.114  38.375   8.850
 6475POPC   C1A28491  15.202  38.457   8.550
 6475POPC   D2A28492  15.132  38.496   8.250
 6475POPC   C3A28493  15.205  38.442   7.950
 6475POPC   C4A28494  15.213  38.447   7.650
 6475POPC   C1B28495  15.056  38.282   8.550
 6475POPC   C2B28496  15.047  38.247   8.250
 6475POPC   C3B28497  15.050  38.258   7.950
 6475POPC   C4B28498  14.969  38.288   7.650
 6476POPC   NC328499  15.918  35.312   9.450
 6476POPC   PO428500  15.930  35.352   9.150
 6476POPC   GL128501  15.992  35.401   8.850
 6476POPC   GL228502  15.877  35.352   8.850
 6476POPC   C1A28503  15.919  35.328   8.550
 6476POPC   D2A28504  15.998  35.399   8.250
 6476POPC   C3A28505  15.907  35.310   7.950
 6476POPC   C4A28506  15.961  35.369   7.650
 6476POPC   C1B28507  15.760  35.266   8.550
 6476POPC   C2B28508  15.743  35.261   8.250
 6476POPC   C3B28509  15.748  35.346   7.950
 6476POPC   C4B28510  15.666  35.268   7.650
 6477POPC   NC328511  26.024  15.906   9.450
 6477POPC   PO428512  26.073  15.973   9.150
 6477POPC   GL128513  26.081  15.987   8.850
 6477POPC   GL228514  26.178  15.935   8.850
 6477POPC   C1A28515  26.059  15.992   8.550
 6477POPC   D2A28516  26.028  16.000   8.250
 6477POPC   C3A28517  26.070  15.937   7.950
 6477POPC   C4A28518  26.061  15.916   7.650
 6477POPC   C1B28519  26.244  15.810   8.550
 6477POPC   C2B28520  26.221  15.797   8.250
 6477POPC   C3B28521  26.270  15.825   7.950
 6477POPC   C4B28522  26.277  15.891   7.650
 6478POPC   NC328523  36.856  42.382   9.450
 6478POPC   PO428524  36.948  42.363   9.150
 6478POPC   GL128525  36.898  42.296   8.850
 6478POPC   GL228526  36.840  42.253   8.850
 6478POPC   C1A28527  36.881  42.381   8.550
 6478POPC   D2A28528  36.876  42.378   8.250
 6478POPC   C3A28529  36.933  42.309   7.950
 6478POPC   C4A28530  36.907  42.383   7.650
 6478POPC   C1B28531  36.775  42.165   8.550
 6478POPC   C2B28532  36.794  42.189   8.250
 6478POPC   C3B28533  36.724  42.118   7.950
 6478POPC   C4B28534  36.792  42.098   7.650
 6479POPC   NC328535  39.995  11.294   9.450
 6479POPC   PO428536  40.052  11.311   9.150
 6479POPC   GL128537  40.048  11.336   8.850
 6479POPC   GL228538  39.921  11.415   8.850
 6479POPC   C1A28539  40.053  11.308   8.550
 6479POPC   D2A28540  40.029  11.329   8.250
 6479POPC   C3A28541  39.982  11.327   7.950
 6479POPC   C4A28542  39.968  11.303   7.650
 6479POPC   C1B28543  39.882  11.512   8.550
 6479POPC   C2B28544  39.849  11.501   8.250
 6479POPC   C3B28545  39.819  11.458   7.950
 6479POPC   C4B28546  39.861  11.477   7.650
 6480POPC   NC328547   6.675  40.801   9.450
 6480POPC   PO428548   6.656  40.779   9.150
 6480POPC   GL128549   6.681  40.760   8.850
 6480POPC   GL228550   6.562  40.900   8.850
 6480POPC   C1A28551   6.637  40.796   8.550
 6480POPC   D2A28552   6.660  40.800   8.250
 6480POPC   C3A28553   6.643  40.819   7.950
 6480POPC   C4A28554   6.661  40.822   7.650
 6480POPC   C1B28555   6.462  41.004   8.550
 6480POPC   C2B28556   6.507  40.924   8.250
 6480POPC   C3B28557   6.426  40.927   7.950
 6480POPC   C4B28558   6.449  40.916   7.650
 6481POPC   NC328559  22.908   6.694   9.450
 6481POPC   PO428560  22.897   6.675   9.150
 6481POPC   GL128561  22.900   6.650   8.850
 6481POPC   GL228562  22.937   6.769   8.850
 6481POPC   C1A28563  22.986   6.655   8.550
 6481POPC   D2A28564  22.950   6.608   8.250
 6481POPC   C3A28565  22.966   6.616   7.950
 6481POPC   C4A28566  22.919   6.608   7.650
 6481POPC   C1B28567  22.993   6.891   8.550
 6481POPC   C2B28568  22.984   6.874   8.250
 6481POPC   C3B28569  22.999   6.902   7.950
 6481POPC   C4B28570  22.970   6.867   7.650
 6482POPC   NC328571  15.941  30.679   9.450
 6482POPC   PO428572  15.974  30.666   9.150
 6482POPC   GL128573  15.973  30.652   8.850
 6482POPC   GL228574  15.837  30.675   8.850
 6482POPC   C1A28575  15.927  30.737   8.550
 6482POPC   D2A28576  15.937  30.714   8.250
 6482POPC   C3A28577  16.004  30.731   7.950
 6482POPC   C4A28578  15.907  30.687   7.650
 6482POPC   C1B28579  15.723  30.598   8.550
 6482POPC   C2B28580  15.781  30.586   8.250
 6482POPC   C3B28581  15.758  30.539   7.950
 6482POPC   C4B28582  15.704  30.613   7.650
 6483POPC   NC328583  40.759  44.673   9.450
 6483POPC   PO428584  40.783  44.673   9.150
 6483POPC   GL128585  40.773  44.624   8.850
 6483POPC   GL228586  40.746  44.770   8.850
 6483POPC   C1A28587  40.788  44.648   8.550
 6483POPC   D2A28588  40.776  44.622   8.250
 6483POPC   C3A28589  40.738  44.657   7.950
 6483POPC   C4A28590  40.767  44.688   7.650
 6483POPC   C1B28591  40.667  44.929   8.550
 6483POPC   C2B28592  40.667  44.945   8.250
 6483POPC   C3B28593  40.656  44.922   7.950
 6483POPC   C4B28594  40.666  44.940   7.650
 6484POPC   NC328595  24.503  42.331   9.450
 6484POPC   PO428596  24.453  42.356   9.150
 6484POPC   GL128597  24.471  42.326   8.850
 6484POPC   GL228598  24.347  42.294   8.850
 6484POPC   C1A28599  24.460  42.307   8.550
 6484POPC   D2A28600  24.460  42.340   8.250
 6484POPC   C3A28601  24.449  42.320   7.950
 6484POPC   C4A28602  24.470  42.303   7.650
 6484POPC   C1B28603  24.209  42.233   8.550
 6484POPC   C2B28604  24.304  42.213   8.250
 6484POPC   C3B28605  24.277  42.242   7.950
 6484POPC   C4B28606  24.239  42.212   7.650
 6485POPC   NC328607   2.005  29.194   9.450
 6485POPC   PO428608   2.010  29.112   9.150
 6485POPC   GL128609   1.954  29.108   8.850
 6485POPC   GL228610   1.979  29.283   8.850
 6485POPC   C1A28611   1.946  29.192   8.550
 6485POPC   D2A28612   1.992  29.135   8.250
 6485POPC   C3A28613   1.943  29.147   7.950
 6485POPC   C4A28614   2.001  29.175   7.650
 6485POPC   C1B28615   2.101  29.401   8.550
 6485POPC   C2B28616   2.031  29.351   8.250
 6485POPC   C3B28617   2.105  29.400   7.950
 6485POPC   C4B28618   2.038  29.424   7.650
 6486POPC   NC328619  39.193  35.343   9.450
 6486POPC   PO428620  39.190  35.363   9.150
 6486POPC   GL128621  39.184  35.333   8.850
 6486POPC   GL228622  39.301  35.475   8.850
 6486POPC   C1A28623  39.231  35.335   8.550
 6486POPC   D2A28624  39.280  35.395   8.250
 6486POPC   C3A28625  39.182  35.341   7.950
 6486POPC   C4A28626  39.276  35.392   7.650
 6486POPC   C1B28627  39.376  35.546   8.550
 6486POPC   C2B28628  39.428  35.570   8.250
 6486POPC   C3B28629  39.377  35.559   7.950
 6486POPC   C4B28630  39.351  35.587   7.650
 6487POPC   NC328631  26.776  43.860   9.450
 6487POPC   PO428632  26.798  43.910   9.150
 6487POPC   GL128633  26.849  43.862   8.850
 6487POPC   GL228634  26.817  43.729   8.850
 6487POPC   C1A28635  26.860  43.847   8.550
 6487POPC   D2A28636  26.800  43.913   8.250
 6487POPC   C3A28637  26.820  43.875   7.950
 6487POPC   C4A28638  26.784  43.903   7.650
 6487POPC   C1B28639  26.866  43.691   8.550
 6487POPC   C2B28640  26.848  43.628   8.250
 6487POPC   C3B28641  26.870  43.653   7.950
 6487POPC   C4B28642  26.930  43.645   7.650
 6488POPC   NC328643   8.976   1.995   9.450
 6488POPC   PO428644   9.008   2.038   9.150
 6488POPC   GL128645   8.988   1.999   8.850
 6488POPC   GL228646   9.057   2.094   8.850
 6488POPC   C1A28647   8.943   2.016   8.550
 6488POPC   D2A28648   8.999   2.034   8.250
 6488POPC   C3A28649   8.949   1.961   7.950
 6488POPC   C4A28650   9.019   1.988   7.650
 6488POPC   C1B28651   9.120   2.230   8.550
 6488POPC   C2B28652   9.095   2.169   8.250
 6488POPC   C3B28653   9.126   2.240   7.950
 6488POPC   C4B28654   9.117   2.250   7.650
 6489POPC   NC328655   0.392   5.887   9.450
 6489POPC   PO428656   0.455   5.897   9.150
 6489POPC   GL128657   0.413   5.887   8.850
 6489POPC   GL228658   0.557   5.935   8.850
 6489POPC   C1A28659   0.479   5.844   8.550
 6489POPC   D2A28660   0.430   5.914   8.250
 6489POPC   C3A28661   0.470   5.883   7.950
 6489POPC   C4A28662   0.404   5.871   7.650
 6489POPC   C1B28663   0.677   5.982   8.550
 6489POPC   C2B28664   0.680   5.946   8.250
 6489POPC   C3B28665   0.706   6.001   7.950
 6489POPC   C4B28666   0.703   5.974   7.650
 6490POPC   NC328667   8.959  21.415   9.450
 6490POPC   PO428668   8.951  21.403   9.150
 6490POPC   GL128669   9.017  21.339   8.850
 6490POPC   GL228670   8.989  21.468   8.850
 6490POPC   C1A28671   9.002  21.380   8.550
 6490POPC   D2A28672   8.955  21.425   8.250
 6490POPC   C3A28673   8.986  21.424   7.950
 6490POPC   C4A28674   9.018  21.395   7.650
 6490POPC   C1B28675   8.987  21.644   8.550
 6490POPC   C2B28676   8.981  21.656   8.250
 6490POPC   C3B28677   8.946  21.642   7.950
 6490POPC   C4B28678   8.990  21.669   7.650
 6491POPC   NC328679  43.119  21.400   9.450
 6491POPC   PO428680  43.069  21.396   9.150
 6491POPC   GL128681  43.099  21.392   8.850
 6491POPC   GL228682  42.952  21.385   8.850
 6491POPC   C1A28683  43.138  21.378   8.550
 6491POPC   D2A28684  43.130  21.421   8.250
 6491POPC   C3A28685  43.130  21.347   7.950
 6491POPC   C4A28686  43.074  21.344   7.650
 6491POPC   C1B28687  42.921  21.443   8.550
 6491POPC   C2B28688  42.852  21.459   8.250
 6491POPC   C3B28689  42.879  21.517   7.950
 6491POPC   C4B28690  42.896  21.523   7.650
 6492POPC   NC328691  40.013  37.657   9.450
 6492POPC   PO428692  39.983  37.664   9.150
 6492POPC   GL128693  39.980  37.678   8.850
 6492POPC   GL228694  40.062  37.545   8.850
 6492POPC   C1A28695  39.997  37.725   8.550
 6492POPC   D2A28696  40.040  37.631   8.250
 6492POPC   C3A28697  40.000  37.679   7.950
 6492POPC   C4A28698  39.988  37.700   7.650
 6492POPC   C1B28699  39.981  37.433   8.550
 6492POPC   C2B28700  40.063  37.380   8.250
 6492POPC   C3B28701  40.052  37.406   7.950
 6492POPC   C4B28702  40.047  37.399   7.650
 6493POPC   NC328703   7.470  22.912   9.450
 6493POPC   PO428704   7.405  22.953   9.150
 6493POPC   GL128705   7.423  22.928   8.850
 6493POPC   GL228706   7.384  23.095   8.850
 6493POPC   C1A28707   7.459  22.929   8.550
 6493POPC   D2A28708   7.422  22.954   8.250
 6493POPC   C3A28709   7.412  22.946   7.950
 6493POPC   C4A28710   7.433  22.937   7.650
 6493POPC   C1B28711   7.371  23.188   8.550
 6493POPC   C2B28712   7.411  23.232   8.250
 6493POPC   C3B28713   7.383  23.144   7.950
 6493POPC   C4B28714   7.402  23.153   7.650
 6494POPC   NC328715  13.619  29.194   9.450
 6494POPC   PO428716  13.621  29.175   9.150
 6494POPC   GL128717  13.608  29.143   8.850
 6494POPC   GL228718  13.560  29.256   8.850
 6494POPC   C1A28719  13.650  29.121   8.550
 6494POPC   D2A28720  13.624  29.146   8.250
 6494POPC   C3A28721  13.660  29.128   7.950
 6494POPC   C4A28722  13.612  29.177   7.650
 6494POPC   C1B28723  13.470  29.335   8.550
 6494POPC   C2B28724  13.465  29.339   8.250
 6494POPC   C3B28725  13.425  29.336   7.950
 6494POPC   C4B28726  13.482  29.380   7.650
 6495POPC   NC328727   0.483  17.553   9.450
 6495POPC   PO428728   0.457  17.499   9.150
 6495POPC   GL128729   0.469  17.459   8.850
 6495POPC   GL228730   0.563  17.460   8.850
 6495POPC   C1A28731   0.475  17.463   8.550
 6495POPC   D2A28732   0.454  17.463   8.250
 6495POPC   C3A28733   0.422  17.505   7.950
 6495POPC   C4A28734   0.411  17.552   7.650
 6495POPC   C1B28735   0.690  17.359   8.550
 6495POPC   C2B28736   0.703  17.405   8.250
 6495POPC   C3B28737   0.679  17.376   7.950
 6495POPC   C4B28738   0.687  17.419   7.650
 6496POPC   NC328739   9.017  37.653   9.450
 6496POPC   PO428740   9.003  37.662   9.150
 6496POPC   GL128741   8.989  37.659   8.850
 6496POPC   GL228742   8.840  37.657   8.850
 6496POPC   C1A28743   8.970  37.698   8.550
 6496POPC   D2A28744   8.929  37.692   8.250
 6496POPC   C3A28745   8.935  37.717   7.950
 6496POPC   C4A28746   8.930  37.636   7.650
 6496POPC   C1B28747   8.748  37.693   8.550
 6496POPC   C2B28748   8.679  37.781   8.250
 6496POPC   C3B28749   8.773  37.707   7.950
 6496POPC   C4B28750   8.687  37.744   7.650
 6497POPC   NC328751  21.417  36.141   9.450
 6497POPC   PO428752  21.375  36.101   9.150
 6497POPC   GL128753  21.367  36.139   8.850
 6497POPC   GL228754  21.499  36.002   8.850
 6497POPC   C1A28755  21.345  36.084   8.550
 6497POPC   D2A28756  21.374  36.156   8.250
 6497POPC   C3A28757  21.389  36.083   7.950
 6497POPC   C4A28758  21.383  36.147   7.650
 6497POPC   C1B28759  21.523  35.875   8.550
 6497POPC   C2B28760  21.508  35.909   8.250
 6497POPC   C3B28761  21.516  35.904   7.950
 6497POPC   C4B28762  21.579  35.889   7.650
 6498POPC   NC328763  41.512   7.407   9.450
 6498POPC   PO428764  41.595   7.414   9.150
 6498POPC   GL128765  41.581   7.424   8.850
 6498POPC   GL228766  41.677   7.455   8.850
 6498POPC   C1A28767  41.541   7.425   8.550
 6498POPC   D2A28768  41.521   7.438   8.250
 6498POPC   C3A28769  41.518   7.465   7.950
 6498POPC   C4A28770  41.573   7.422   7.650
 6498POPC   C1B28771  41.756   7.471   8.550
 6498POPC   C2B28772  41.827   7.433   8.250
 6498POPC   C3B28773  41.830   7.516   7.950
 6498POPC   C4B28774  41.811   7.509   7.650
 6499POPC   NC328775  28.352  16.736   9.450
 6499POPC   PO428776  28.330  16.731   9.150
 6499POPC   GL128777  28.360  16.769   8.850
 6499POPC   GL228778  28.380  16.854   8.850
 6499POPC   C1A28779  28.320  16.736   8.550
 6499POPC   D2A28780  28.364  16.756   8.250
 6499POPC   C3A28781  28.345  16.754   7.950
 6499POPC   C4A28782  28.365  16.752   7.650
 6499POPC   C1B28783  28.351  16.959   8.550
 6499POPC   C2B28784  28.274  16.983   8.250
 6499POPC   C3B28785  28.284  16.993   7.950
 6499POPC   C4B28786  28.317  16.952   7.650
 6500POPC   NC328787  33.813  37.661   9.450
 6500POPC   PO428788  33.829  37.663   9.150
 6500POPC   GL128789  33.820  37.630   8.850
 6500POPC   GL228790  33.892  37.610   8.850
 6500POPC   C1A28791  33.830  37.670   8.550
 6500POPC   D2A28792  33.766  37.706   8.250
 6500POPC   C3A28793  33.768  37.686   7.950
 6500POPC   C4A28794  33.841  37.633   7.650
 6500POPC   C1B28795  33.885  37.469   8.550
 6500POPC   C2B28796  33.955  37.427   8.250
 6500POPC   C3B28797  33.957  37.473   7.950
 6500POPC   C4B28798  33.970  37.493   7.650
 6501POPC   NC328799  30.731  35.341   9.450
 6501POPC   PO428800  30.668  35.379   9.150
 6501POPC   GL128801  30.651  35.345   8.850
 6501POPC   GL228802  30.743  35.239   8.850
 6501POPC   C1A28803  30.734  35.398   8.550
 6501POPC   D2A28804  30.714  35.371   8.250
 6501POPC   C3A28805  30.688  35.324   7.950
 6501POPC   C4A28806  30.728  35.306   7.650
 6501POPC   C1B28807  30.696  35.058   8.550
 6501POPC   C2B28808  30.662  35.078   8.250
 6501POPC   C3B28809  30.664  35.075   7.950
 6501POPC   C4B28810  30.739  35.118   7.650
 6502POPC   NC328811  38.449  12.068   9.450
 6502POPC   PO428812  38.460  12.100   9.150
 6502POPC   GL128813  38.458  12.079   8.850
 6502POPC   GL228814  38.532  11.977   8.850
 6502POPC   C1A28815  38.448  12.078   8.550
 6502POPC   D2A28816  38.416  12.117   8.250
 6502POPC   C3A28817  38.469  12.115   7.950
 6502POPC   C4A28818  38.422  12.123   7.650
 6502POPC   C1B28819  38.607  11.889   8.550
 6502POPC   C2B28820  38.681  11.952   8.250
 6502POPC   C3B28821  38.603  11.904   7.950
 6502POPC   C4B28822  38.657  11.887   7.650
 6503POPC   NC328823  24.476   9.022   9.450
 6503POPC   PO428824  24.468   9.019   9.150
 6503POPC   GL128825  24.516   9.014   8.850
 6503POPC   GL228826  24.579   8.982   8.850
 6503POPC   C1A28827  24.528   8.975   8.550
 6503POPC   D2A28828  24.536   8.990   8.250
 6503POPC   C3A28829  24.440   8.923   7.950
 6503POPC   C4A28830  24.489   8.947   7.650
 6503POPC   C1B28831  24.732   9.003   8.550
 6503POPC   C2B28832  24.716   8.983   8.250
 6503POPC   C3B28833  24.742   8.923   7.950
 6503POPC   C4B28834  24.738   8.995   7.650
 6504POPC   NC328835  41.595   1.261   9.450
 6504POPC   PO428836  41.599   1.226   9.150
 6504POPC   GL128837  41.525   1.219   8.850
 6504POPC   GL228838  41.407   1.147   8.850
 6504POPC   C1A28839  41.568   1.214   8.550
 6504POPC   D2A28840  41.546   1.213   8.250
 6504POPC   C3A28841  41.596   1.262   7.950
 6504POPC   C4A28842  41.579   1.232   7.650
 6504POPC   C1B28843  41.289   1.144   8.550
 6504POPC   C2B28844  41.273   1.127   8.250
 6504POPC   C3B28845  41.320   1.163   7.950
 6504POPC   C4B28846  41.366   1.150   7.650
 6505POPC   NC328847  36.139   2.778   9.450
 6505POPC   PO428848  36.177   2.728   9.150
 6505POPC   GL128849  36.106   2.777   8.850
 6505POPC   GL228850  36.189   2.662   8.850
 6505POPC   C1A28851  36.147   2.765   8.550
 6505POPC   D2A28852  36.125   2.811   8.250
 6505POPC   C3A28853  36.095   2.746   7.950
 6505POPC   C4A28854  36.164   2.801   7.650
 6505POPC   C1B28855  36.262   2.514   8.550
 6505POPC   C2B28856  36.297   2.575   8.250
 6505POPC   C3B28857  36.240   2.574   7.950
 6505POPC   C4B28858  36.263   2.503   7.650
 6506POPC   NC328859  26.806  24.470   9.450
 6506POPC   PO428860  26.771  24.451   9.150
 6506POPC   GL128861  26.802  24.477   8.850
 6506POPC   GL228862  26.765  24.351   8.850
 6506POPC   C1A28863  26.866  24.462   8.550
 6506POPC   D2A28864  26.809  24.481   8.250
 6506POPC   C3A28865  26.801  24.461   7.950
 6506POPC   C4A28866  26.820  24.468   7.650
 6506POPC   C1B28867  26.650  24.236   8.550
 6506POPC   C2B28868  26.674  24.315   8.250
 6506POPC   C3B28869  26.697  24.233   7.950
 6506POPC   C4B28870  26.696  24.230   7.650
 6507POPC   NC328871   5.863  39.193   9.450
 6507POPC   PO428872   5.863  39.272   9.150
 6507POPC   GL128873   5.859  39.191   8.850
 6507POPC   GL228874   5.984  39.143   8.850
 6507POPC   C1A28875   5.888  39.277   8.550
 6507POPC   D2A28876   5.837  39.259   8.250
 6507POPC   C3A28877   5.871  39.254   7.950
 6507POPC   C4A28878   5.876  39.183   7.650
 6507POPC   C1B28879   5.979  39.079   8.550
 6507POPC   C2B28880   6.055  39.066   8.250
 6507POPC   C3B28881   6.068  39.013   7.950
 6507POPC   C4B28882   5.983  39.015   7.650
 6508POPC   NC328883  37.701  33.845   9.450
 6508POPC   PO428884  37.653  33.836   9.150
 6508POPC   GL128885  37.707  33.811   8.850
 6508POPC   GL228886  37.798  33.892   8.850
 6508POPC   C1A28887  37.661  33.820   8.550
 6508POPC   D2A28888  37.681  33.791   8.250
 6508POPC   C3A28889  37.695  33.806   7.950
 6508POPC   C4A28890  37.721  33.799   7.650
 6508POPC   C1B28891  37.849  33.995   8.550
 6508POPC   C2B28892  37.909  33.971   8.250
 6508POPC   C3B28893  37.858  33.949   7.950
 6508POPC   C4B28894  37.857  33.944   7.650
 6509POPC   NC328895  27.617  14.404   9.450
 6509POPC   PO428896  27.575  14.387   9.150
 6509POPC   GL128897  27.559  14.387   8.850
 6509POPC   GL228898  27.452  14.427   8.850
 6509POPC   C1A28899  27.593  14.367   8.550
 6509POPC   D2A28900  27.559  14.370   8.250
 6509POPC   C3A28901  27.628  14.366   7.950
 6509POPC   C4A28902  27.569  14.413   7.650
 6509POPC   C1B28903  27.299  14.381   8.550
 6509POPC   C2B28904  27.354  14.379   8.250
 6509POPC   C3B28905  27.353  14.408   7.950
 6509POPC   C4B28906  27.303  14.410   7.650
 6510POPC   NC328907  23.664   1.210   9.450
 6510POPC   PO428908  23.756   1.223   9.150
 6510POPC   GL128909  23.671   1.255   8.850
 6510POPC   GL228910  23.642   1.264   8.850
 6510POPC   C1A28911  23.668   1.255   8.550
 6510POPC   D2A28912  23.696   1.226   8.250
 6510POPC   C3A28913  23.704   1.229   7.950
 6510POPC   C4A28914  23.722   1.208   7.650
 6510POPC   C1B28915  23.499   1.324   8.550
 6510POPC   C2B28916  23.494   1.313   8.250
 6510POPC   C3B28917  23.559   1.382   7.950
 6510POPC   C4B28918  23.490   1.395   7.650
 6511POPC   NC328919  38.481  18.289   9.450
 6511POPC   PO428920  38.461  18.310   9.150
 6511POPC   GL128921  38.422  18.323   8.850
 6511POPC   GL228922  38.406  18.422   8.850
 6511POPC   C1A28923  38.464  18.253   8.550
 6511POPC   D2A28924  38.447  18.280   8.250
 6511POPC   C3A28925  38.496  18.243   7.950
 6511POPC   C4A28926  38.485  18.331   7.650
 6511POPC   C1B28927  38.436  18.528   8.550
 6511POPC   C2B28928  38.455  18.491   8.250
 6511POPC   C3B28929  38.442  18.487   7.950
 6511POPC   C4B28930  38.409  18.502   7.650
 6512POPC   NC328931  43.900  32.271   9.450
 6512POPC   PO428932  43.864  32.258   9.150
 6512POPC   GL128933  43.845  32.238   8.850
 6512POPC   GL228934  43.783  32.203   8.850
 6512POPC   C1A28935  43.913  32.289   8.550
 6512POPC   D2A28936  43.915  32.270   8.250
 6512POPC   C3A28937  43.906  32.281   7.950
 6512POPC   C4A28938  43.890  32.257   7.650
 6512POPC   C1B28939  43.596  32.258   8.550
 6512POPC   C2B28940  43.682  32.231   8.250
 6512POPC   C3B28941  43.665  32.294   7.950
 6512POPC   C4B28942  43.670  32.293   7.650
 6513POPC   NC328943   0.474   1.165   9.450
 6513POPC   PO428944   0.455   1.242   9.150
 6513POPC   GL128945   0.414   1.185   8.850
 6513POPC   GL228946   0.559   1.287   8.850
 6513POPC   C1A28947   0.422   1.257   8.550
 6513POPC   D2A28948   0.403   1.224   8.250
 6513POPC   C3A28949   0.485   1.228   7.950
 6513POPC   C4A28950   0.478   1.217   7.650
 6513POPC   C1B28951   0.649   1.307   8.550
 6513POPC   C2B28952   0.633   1.311   8.250
 6513POPC   C3B28953   0.615   1.333   7.950
 6513POPC   C4B28954   0.605   1.358   7.650
 6514POPC   NC328955  26.067  19.101   9.450
 6514POPC   PO428956  26.007  19.044   9.150
 6514POPC   GL128957  26.082  19.018   8.850
 6514POPC   GL228958  25.972  18.905   8.850
 6514POPC   C1A28959  25.999  19.048   8.550
 6514POPC   D2A28960  26.073  19.059   8.250
 6514POPC   C3A28961  26.019  19.077   7.950
 6514POPC   C4A28962  26.056  19.009   7.650
 6514POPC   C1B28963  26.020  18.828   8.550
 6514POPC   C2B28964  26.006  18.788   8.250
 6514POPC   C3B28965  25.943  18.809   7.950
 6514POPC   C4B28966  25.997  18.845   7.650
 6515POPC   NC328967  26.047  21.433   9.450
 6515POPC   PO428968  25.994  21.343   9.150
 6515POPC   GL128969  26.083  21.376   8.850
 6515POPC   GL228970  26.042  21.493   8.850
 6515POPC   C1A28971  26.083  21.428   8.550
 6515POPC   D2A28972  26.050  21.412   8.250
 6515POPC   C3A28973  26.075  21.354   7.950
 6515POPC   C4A28974  26.073  21.420   7.650
 6515POPC   C1B28975  26.033  21.594   8.550
 6515POPC   C2B28976  26.005  21.638   8.250
 6515POPC   C3B28977  26.061  21.670   7.950
 6515POPC   C4B28978  26.017  21.657   7.650
 6516POPC   NC328979  22.188  19.832   9.450
 6516POPC   PO428980  22.156  19.800   9.150
 6516POPC   GL128981  22.209  19.837   8.850
 6516POPC   GL228982  22.115  19.702   8.850
 6516POPC   C1A28983  22.128  19.869   8.550
 6516POPC   D2A28984  22.178  19.825   8.250
 6516POPC   C3A28985  22.136  19.816   7.950
 6516POPC   C4A28986  22.130  19.798   7.650
 6516POPC   C1B28987  22.119  19.585   8.550
 6516POPC   C2B28988  22.136  19.600   8.250
 6516POPC   C3B28989  22.160  19.588   7.950
 6516POPC   C4B28990  22.074  19.554   7.650
 6517POPC   NC328991  38.465  43.114   9.450
 6517POPC   PO428992  38.452  43.109   9.150
 6517POPC   GL128993  38.505  43.074   8.850
 6517POPC   GL228994  38.530  43.016   8.850
 6517POPC   C1A28995  38.408  43.063   8.550
 6517POPC   D2A28996  38.472  43.152   8.250
 6517POPC   C3A28997  38.455  43.159   7.950
 6517POPC   C4A28998  38.481  43.100   7.650
 6517POPC   C1B28999  38.533  42.914   8.550
 6517POPC   C2B29000  38.529  42.909   8.250
 6517POPC   C3B29001  38.566  42.875   7.950
 6517POPC   C4B29002  38.590  42.881   7.650
 6518POPC   NC329003   0.438  14.431   9.450
 6518POPC   PO429004   0.447  14.377   9.150
 6518POPC   GL129005   0.484  14.389   8.850
 6518POPC   GL229006   0.587  14.310   8.850
 6518POPC   C1A29007   0.394  14.434   8.550
 6518POPC   D2A29008   0.455  14.449   8.250
 6518POPC   C3A29009   0.440  14.407   7.950
 6518POPC   C4A29010   0.408  14.360   7.650
 6518POPC   C1B29011   0.643  14.314   8.550
 6518POPC   C2B29012   0.673  14.358   8.250
 6518POPC   C3B29013   0.701  14.302   7.950
 6518POPC   C4B29014   0.625  14.361   7.650
 6519POPC   NC329015   3.499  28.366   9.450
 6519POPC   PO429016   3.527  28.414   9.150
 6519POPC   GL129017   3.541  28.381   8.850
 6519POPC   GL229018   3.663  28.309   8.850
 6519POPC   C1A29019   3.498  28.387   8.550
 6519POPC   D2A29020   3.513  28.329   8.250
 6519POPC   C3A29021   3.492  28.355   7.950
 6519POPC   C4A29022   3.574  28.397   7.650
 6519POPC   C1B29023   3.710  28.215   8.550
 6519POPC   C2B29024   3.734  28.191   8.250
 6519POPC   C3B29025   3.782  28.257   7.950
 6519POPC   C4B29026   3.778  28.183   7.650
 6520POPC   NC329027   6.663  44.615   9.450
 6520POPC   PO429028   6.649  44.628   9.150
 6520POPC   GL129029   6.624  44.683   8.850
 6520POPC   GL229030   6.797  44.585   8.850
 6520POPC   C1A29031   6.693  44.697   8.550
 6520POPC   D2A29032   6.623  44.639   8.250
 6520POPC   C3A29033   6.600  44.630   7.950
 6520POPC   C4A29034   6.679  44.649   7.650
 6520POPC   C1B29035   6.823  44.563   8.550
 6520POPC   C2B29036   6.894  44.536   8.250
 6520POPC   C3B29037   6.843  44.565   7.950
 6520POPC   C4B29038   6.876  44.525   7.650
 6521POPC   NC329039   8.991  18.273   9.450
 6521POPC   PO429040   8.981  18.310   9.150
 6521POPC   GL129041   8.973  18.282   8.850
 6521POPC   GL229042   9.103  18.320   8.850
 6521POPC   C1A29043   8.963  18.321   8.550
 6521POPC   D2A29044   9.002  18.284   8.250
 6521POPC   C3A29045   8.959  18.242   7.950
 6521POPC   C4A29046   8.981  18.324   7.650
 6521POPC   C1B29047   9.167  18.406   8.550
 6521POPC   C2B29048   9.184  18.424   8.250
 6521POPC   C3B29049   9.168  18.419   7.950
 6521POPC   C4B29050   9.215  18.370   7.650
 6522POPC   NC329051   5.081  37.676   9.450
 6522POPC   PO429052   5.066  37.680   9.150
 6522POPC   GL129053   5.102  37.688   8.850
 6522POPC   GL229054   5.187  37.808   8.850
 6522POPC   C1A29055   5.076  37.688   8.550
 6522POPC   D2A29056   5.133  37.685   8.250
 6522POPC   C3A29057   5.107  37.708   7.950
 6522POPC   C4A29058   5.057  37.669   7.650
 6522POPC   C1B29059   5.311  37.907   8.550
 6522POPC   C2B29060   5.303  37.860   8.250
 6522POPC   C3B29061   5.264  37.857   7.950
 6522POPC   C4B29062   5.238  37.851   7.650
 6523POPC   NC329063   4.271  22.911   9.450
 6523POPC   PO429064   4.298  22.969   9.150
 6523POPC   GL129065   4.329  22.911   8.850
 6523POPC   GL229066   4.427  23.014   8.850
 6523POPC   C1A29067   4.306  22.983   8.550
 6523POPC   D2A29068   4.315  22.968   8.250
 6523POPC   C3A29069   4.304  22.962   7.950
 6523POPC   C4A29070   4.366  22.913   7.650
 6523POPC   C1B29071   4.588  22.978   8.550
 6523POPC   C2B29072   4.584  22.987   8.250
 6523POPC   C3B29073   4.540  22.979   7.950
 6523POPC   C4B29074   4.526  22.994   7.650
 6524POPC   NC329075  30.737  36.088   9.450
 6524POPC   PO429076  30.715  36.171   9.150
 6524POPC   GL129077  30.686  36.116   8.850
 6524POPC   GL229078  30.817  36.027   8.850
 6524POPC   C1A29079  30.674  36.163   8.550
 6524POPC   D2A29080  30.709  36.107   8.250
 6524POPC   C3A29081  30.741  36.080   7.950
 6524POPC   C4A29082  30.670  36.081   7.650
 6524POPC   C1B29083  30.912  35.978   8.550
 6524POPC   C2B29084  30.882  35.927   8.250
 6524POPC   C3B29085  30.855  35.961   7.950
 6524POPC   C4B29086  30.910  35.966   7.650
 6525POPC   NC329087   8.992  31.485   9.450
 6525POPC   PO429088   8.996  31.453   9.150
 6525POPC   GL129089   8.973  31.510   8.850
 6525POPC   GL229090   8.919  31.558   8.850
 6525POPC   C1A29091   9.018  31.475   8.550
 6525POPC   D2A29092   8.992  31.428   8.250
 6525POPC   C3A29093   9.021  31.468   7.950
 6525POPC   C4A29094   8.968  31.454   7.650
 6525POPC   C1B29095   8.883  31.709   8.550
 6525POPC   C2B29096   8.914  31.758   8.250
 6525POPC   C3B29097   8.883  31.739   7.950
 6525POPC   C4B29098   8.939  31.716   7.650
 6526POPC   NC329099  37.630  24.495   9.450
 6526POPC   PO429100  37.654  24.513   9.150
 6526POPC   GL129101  37.687  24.463   8.850
 6526POPC   GL229102  37.681  24.395   8.850
 6526POPC   C1A29103  37.666  24.504   8.550
 6526POPC   D2A29104  37.697  24.442   8.250
 6526POPC   C3A29105  37.717  24.517   7.950
 6526POPC   C4A29106  37.638  24.453   7.650
 6526POPC   C1B29107  37.724  24.284   8.550
 6526POPC   C2B29108  37.716  24.282   8.250
 6526POPC   C3B29109  37.625  24.233   7.950
 6526POPC   C4B29110  37.709  24.203   7.650
 6527POPC   NC329111  40.811   2.021   9.450
 6527POPC   PO429112  40.822   1.990   9.150
 6527POPC   GL129113  40.772   1.941   8.850
 6527POPC   GL229114  40.804   1.864   8.850
 6527POPC   C1A29115  40.748   1.976   8.550
 6527POPC   D2A29116  40.746   2.006   8.250
 6527POPC   C3A29117  40.798   1.952   7.950
 6527POPC   C4A29118  40.761   1.962   7.650
 6527POPC   C1B29119  40.840   1.781   8.550
 6527POPC   C2B29120  40.855   1.787   8.250
 6527POPC   C3B29121  40.921   1.716   7.950
 6527POPC   C4B29122  40.862   1.780   7.650
 6528POPC   NC329123  24.467   4.348   9.450
 6528POPC   PO429124  24.481   4.318   9.150
 6528POPC   GL129125  24.451   4.323   8.850
 6528POPC   GL229126  24.606   4.213   8.850
 6528POPC   C1A29127  24.507   4.336   8.550
 6528POPC   D2A29128  24.502   4.358   8.250
 6528POPC   C3A29129  24.498   4.295   7.950
 6528POPC   C4A29130  24.491   4.298   7.650
 6528POPC   C1B29131  24.662   4.076   8.550
 6528POPC   C2B29132  24.694   4.171   8.250
 6528POPC   C3B29133  24.640   4.154   7.950
 6528POPC   C4B29134  24.689   4.166   7.650
 6529POPC   NC329135  12.051   0.480   9.450
 6529POPC   PO429136  12.115   0.429   9.150
 6529POPC   GL129137  12.078   0.450   8.850
 6529POPC   GL229138  12.038   0.559   8.850
 6529POPC   C1A29139  12.120   0.405   8.550
 6529POPC   D2A29140  12.070   0.481   8.250
 6529POPC   C3A29141  12.061   0.486   7.950
 6529POPC   C4A29142  12.038   0.473   7.650
 6529POPC   C1B29143  11.956   0.633   8.550
 6529POPC   C2B29144  11.924   0.670   8.250
 6529POPC   C3B29145  11.932   0.617   7.950
 6529POPC   C4B29146  11.927   0.620   7.650
 6530POPC   NC329147  20.583  40.012   9.450
 6530POPC   PO429148  20.627  40.025   9.150
 6530POPC   GL129149  20.603  39.962   8.850
 6530POPC   GL229150  20.510  39.914   8.850
 6530POPC   C1A29151  20.643  39.965   8.550
 6530POPC   D2A29152  20.590  39.999   8.250
 6530POPC   C3A29153  20.605  40.051   7.950
 6530POPC   C4A29154  20.638  39.966   7.650
 6530POPC   C1B29155  20.476  39.822   8.550
 6530POPC   C2B29156  20.425  39.871   8.250
 6530POPC   C3B29157  20.397  39.789   7.950
 6530POPC   C4B29158  20.428  39.816   7.650
 6531POPC   NC329159  22.183  42.382   9.450
 6531POPC   PO429160  22.184  42.309   9.150
 6531POPC   GL129161  22.155  42.314   8.850
 6531POPC   GL229162  22.292  42.381   8.850
 6531POPC   C1A29163  22.172  42.310   8.550
 6531POPC   D2A29164  22.124  42.349   8.250
 6531POPC   C3A29165  22.114  42.318   7.950
 6531POPC   C4A29166  22.210  42.299   7.650
 6531POPC   C1B29167  22.402  42.466   8.550
 6531POPC   C2B29168  22.397  42.497   8.250
 6531POPC   C3B29169  22.363  42.426   7.950
 6531POPC   C4B29170  22.355  42.421   7.650
 6532POPC   NC329171   2.035  12.858   9.450
 6532POPC   PO429172   1.960  12.830   9.150
 6532POPC   GL129173   2.010  12.899   8.850
 6532POPC   GL229174   2.084  12.776   8.850
 6532POPC   C1A29175   1.997  12.901   8.550
 6532POPC   D2A29176   2.001  12.821   8.250
 6532POPC   C3A29177   2.023  12.815   7.950
 6532POPC   C4A29178   2.024  12.848   7.650
 6532POPC   C1B29179   2.214  12.796   8.550
 6532POPC   C2B29180   2.213  12.792   8.250
 6532POPC   C3B29181   2.239  12.806   7.950
 6532POPC   C4B29182   2.265  12.773   7.650
 6533POPC   NC329183  15.987  29.104   9.450
 6533POPC   PO429184  16.002  29.131   9.150
 6533POPC   GL129185  15.916  29.140   8.850
 6533POPC   GL229186  15.984  29.017   8.850
 6533POPC   C1A29187  16.004  29.116   8.550
 6533POPC   D2A29188  15.963  29.098   8.250
 6533POPC   C3A29189  15.978  29.154   7.950
 6533POPC   C4A29190  15.941  29.170   7.650
 6533POPC   C1B29191  16.051  28.912   8.550
 6533POPC   C2B29192  16.056  28.974   8.250
 6533POPC   C3B29193  16.107  28.900   7.950
 6533POPC   C4B29194  16.116  28.877   7.650
 6534POPC   NC329195  43.098  16.747   9.450
 6534POPC   PO429196  43.064  16.688   9.150
 6534POPC   GL129197  43.077  16.698   8.850
 6534POPC   GL229198  43.202  16.682   8.850
 6534POPC   C1A29199  43.140  16.735   8.550
 6534POPC   D2A29200  43.119  16.753   8.250
 6534POPC   C3A29201  43.074  16.718   7.950
 6534POPC   C4A29202  43.150  16.774   7.650
 6534POPC   C1B29203  43.312  16.663   8.550
 6534POPC   C2B29204  43.317  16.686   8.250
 6534POPC   C3B29205  43.405  16.699   7.950
 6534POPC   C4B29206  43.310  16.723   7.650
 6535POPC   NC329207  35.328  32.202   9.450
 6535POPC   PO429208  35.402  32.226   9.150
 6535POPC   GL129209  35.362  32.282   8.850
 6535POPC   GL229210  35.440  32.145   8.850
 6535POPC   C1A29211  35.320  32.264   8.550
 6535POPC   D2A29212  35.360  32.286   8.250
 6535POPC   C3A29213  35.367  32.269   7.950
 6535POPC   C4A29214  35.364  32.257   7.650
 6535POPC   C1B29215  35.467  31.973   8.550
 6535POPC   C2B29216  35.457  32.003   8.250
 6535POPC   C3B29217  35.484  32.061   7.950
 6535POPC   C4B29218  35.497  32.036   7.650
 6536POPC   NC329219  33.800  36.096   9.450
 6536POPC   PO429220  33.792  36.155   9.150
 6536POPC   GL129221  33.799  36.170   8.850
 6536POPC   GL229222  33.681  36.031   8.850
 6536POPC   C1A29223  33.813  36.127   8.550
 6536POPC   D2A29224  33.833  36.116   8.250
 6536POPC   C3A29225  33.838  36.142   7.950
 6536POPC   C4A29226  33.751  36.088   7.650
 6536POPC   C1B29227  33.534  35.982   8.550
 6536POPC   C2B29228  33.550  36.020   8.250
 6536POPC   C3B29229  33.578  36.000   7.950
 6536POPC   C4B29230  33.567  36.053   7.650
 6537POPC   NC329231  28.418  27.608   9.450
 6537POPC   PO429232  28.369  27.595   9.150
 6537POPC   GL129233  28.411  27.597   8.850
 6537POPC   GL229234  28.368  27.734   8.850
 6537POPC   C1A29235  28.320  27.597   8.550
 6537POPC   D2A29236  28.418  27.642   8.250
 6537POPC   C3A29237  28.349  27.639   7.950
 6537POPC   C4A29238  28.351  27.623   7.650
 6537POPC   C1B29239  28.465  27.841   8.550
 6537POPC   C2B29240  28.453  27.814   8.250
 6537POPC   C3B29241  28.471  27.874   7.950
 6537POPC   C4B29242  28.445  27.788   7.650
 6538POPC   NC329243   6.646   1.227   9.450
 6538POPC   PO429244   6.622   1.239   9.150
 6538POPC   GL129245   6.647   1.199   8.850
 6538POPC   GL229246   6.533   1.291   8.850
 6538POPC   C1A29247   6.675   1.177   8.550
 6538POPC   D2A29248   6.624   1.216   8.250
 6538POPC   C3A29249   6.668   1.255   7.950
 6538POPC   C4A29250   6.685   1.208   7.650
 6538POPC   C1B29251   6.358   1.253   8.550
 6538POPC   C2B29252   6.390   1.266   8.250
 6538POPC   C3B29253   6.410   1.225   7.950
 6538POPC   C4B29254   6.365   1.305   7.650
 6539POPC   NC329255  10.549   6.640   9.450
 6539POPC   PO429256  10.544   6.674   9.150
 6539POPC   GL129257  10.500   6.683   8.850
 6539POPC   GL229258  10.433   6.792   8.850
 6539POPC   C1A29259  10.523   6.621   8.550
 6539POPC   D2A29260  10.482   6.619   8.250
 6539POPC   C3A29261  10.538   6.616   7.950
 6539POPC   C4A29262  10.537   6.669   7.650
 6539POPC   C1B29263  10.336   6.871   8.550
 6539POPC   C2B29264  10.363   6.891   8.250
 6539POPC   C3B29265  10.388   6.845   7.950
 6539POPC   C4B29266  10.346   6.861   7.650
 6540POPC   NC329267  42.308  40.735   9.450
 6540POPC   PO429268  42.288  40.758   9.150
 6540POPC   GL129269  42.347  40.779   8.850
 6540POPC   GL229270  42.362  40.677   8.850
 6540POPC   C1A29271  42.373  40.815   8.550
 6540POPC   D2A29272  42.295  40.809   8.250
 6540POPC   C3A29273  42.370  40.803   7.950
 6540POPC   C4A29274  42.308  40.763   7.650
 6540POPC   C1B29275  42.406  40.492   8.550
 6540POPC   C2B29276  42.367  40.571   8.250
 6540POPC   C3B29277  42.372  40.513   7.950
 6540POPC   C4B29278  42.405  40.485   7.650
 6541POPC   NC329279  40.786  43.159   9.450
 6541POPC   PO429280  40.789  43.143   9.150
 6541POPC   GL129281  40.735  43.101   8.850
 6541POPC   GL229282  40.658  43.233   8.850
 6541POPC   C1A29283  40.768  43.124   8.550
 6541POPC   D2A29284  40.740  43.113   8.250
 6541POPC   C3A29285  40.776  43.124   7.950
 6541POPC   C4A29286  40.743  43.125   7.650
 6541POPC   C1B29287  40.619  43.328   8.550
 6541POPC   C2B29288  40.639  43.284   8.250
 6541POPC   C3B29289  40.596  43.321   7.950
 6541POPC   C4B29290  40.589  43.257   7.650
 6542POPC   NC329291  29.955  23.673   9.450
 6542POPC   PO429292  29.883  23.704   9.150
 6542POPC   GL129293  29.959  23.677   8.850
 6542POPC   GL229294  29.977  23.833   8.850
 6542POPC   C1A29295  29.934  23.696   8.550
 6542POPC   D2A29296  29.902  23.739   8.250
 6542POPC   C3A29297  29.930  23.728   7.950
 6542POPC   C4A29298  29.905  23.708   7.650
 6542POPC   C1B29299  30.006  23.965   8.550
 6542POPC   C2B29300  29.956  23.996   8.250
 6542POPC   C3B29301  29.945  23.971   7.950
 6542POPC   C4B29302  29.919  23.922   7.650
 6543POPC   NC329303  24.478  15.140   9.450
 6543POPC   PO429304  24.536  15.147   9.150
 6543POPC   GL129305  24.466  15.202   8.850
 6543POPC   GL229306  24.443  15.046   8.850
 6543POPC   C1A29307  24.463  15.177   8.550
 6543POPC   D2A29308  24.504  15.174   8.250
 6543POPC   C3A29309  24.515  15.226   7.950
 6543POPC   C4A29310  24.471  15.157   7.650
 6543POPC   C1B29311  24.296  14.943   8.550
 6543POPC   C2B29312  24.323  14.995   8.250
 6543POPC   C3B29313  24.376  14.954   7.950
 6543POPC   C4B29314  24.345  15.030   7.650
 6544POPC   NC329315  35.395  30.701   9.450
 6544POPC   PO429316  35.390  30.740   9.150
 6544POPC   GL129317  35.360  30.689   8.850
 6544POPC   GL229318  35.369  30.795   8.850
 6544POPC   C1A29319  35.371  30.666   8.550
 6544POPC   D2A29320  35.306  30.704   8.250
 6544POPC   C3A29321  35.330  30.739   7.950
 6544POPC   C4A29322  35.340  30.681   7.650
 6544POPC   C1B29323  35.295  30.907   8.550
 6544POPC   C2B29324  35.309  30.933   8.250
 6544POPC   C3B29325  35.301  30.959   7.950
 6544POPC   C4B29326  35.340  30.945   7.650
 6545POPC   NC329327  17.523  12.088   9.450
 6545POPC   PO429328  17.484  12.036   9.150
 6545POPC   GL129329  17.509  12.037   8.850
 6545POPC   GL229330  17.569  11.982   8.850
 6545POPC   C1A29331  17.501  12.057   8.550
 6545POPC   D2A29332  17.498  12.061   8.250
 6545POPC   C3A29333  17.539  12.119   7.950
 6545POPC   C4A29334  17.511  12.072   7.650
 6545POPC   C1B29335  17.612  11.856   8.550
 6545POPC   C2B29336  17.635  11.820   8.250
 6545POPC   C3B29337  17.661  11.873   7.950
 6545POPC   C4B29338  17.677  11.827   7.650
 6546POPC   NC329339   9.709  44.613   9.450
 6546POPC   PO429340   9.722  44.633   9.150
 6546POPC   GL129341   9.729  44.692   8.850
 6546POPC   GL229342   9.791  44.749   8.850
 6546POPC   C1A29343   9.779  44.657   8.550
 6546POPC   D2A29344   9.732  44.666   8.250
 6546POPC   C3A29345   9.702  44.631   7.950
 6546POPC   C4A29346   9.791  44.617   7.650
 6546POPC   C1B29347   9.794  44.884   8.550
 6546POPC   C2B29348   9.778  44.883   8.250
 6546POPC   C3B29349   9.790  44.882   7.950
 6546POPC   C4B29350   9.754  44.886   7.650
 6547POPC   NC329351  34.584   5.877   9.450
 6547POPC   PO429352  34.622   5.842   9.150
 6547POPC   GL129353  34.554   5.887   8.850
 6547POPC   GL229354  34.435   5.821   8.850
 6547POPC   C1A29355  34.584   5.852   8.550
 6547POPC   D2A29356  34.556   5.837   8.250
 6547POPC   C3A29357  34.571   5.890   7.950
 6547POPC   C4A29358  34.548   5.852   7.650
 6547POPC   C1B29359  34.361   5.737   8.550
 6547POPC   C2B29360  34.343   5.750   8.250
 6547POPC   C3B29361  34.328   5.786   7.950
 6547POPC   C4B29362  34.320   5.718   7.650
 6548POPC   NC329363  33.063  25.232   9.450
 6548POPC   PO429364  33.056  25.288   9.150
 6548POPC   GL129365  33.046  25.273   8.850
 6548POPC   GL229366  32.903  25.332   8.850
 6548POPC   C1A29367  33.010  25.272   8.550
 6548POPC   D2A29368  33.071  25.290   8.250
 6548POPC   C3A29369  32.989  25.251   7.950
 6548POPC   C4A29370  33.018  25.230   7.650
 6548POPC   C1B29371  32.788  25.361   8.550
 6548POPC   C2B29372  32.747  25.387   8.250
 6548POPC   C3B29373  32.798  25.355   7.950
 6548POPC   C4B29374  32.809  25.352   7.650
 6549POPC   NC329375   8.173  13.599   9.450
 6549POPC   PO429376   8.210  13.613   9.150
 6549POPC   GL129377   8.165  13.600   8.850
 6549POPC   GL229378   8.234  13.481   8.850
 6549POPC   C1A29379   8.240  13.594   8.550
 6549POPC   D2A29380   8.215  13.661   8.250
 6549POPC   C3A29381   8.206  13.607   7.950
 6549POPC   C4A29382   8.167  13.620   7.650
 6549POPC   C1B29383   8.263  13.422   8.550
 6549POPC   C2B29384   8.319  13.447   8.250
 6549POPC   C3B29385   8.279  13.412   7.950
 6549POPC   C4B29386   8.257  13.446   7.650
 6550POPC   NC329387  11.274  39.213   9.450
 6550POPC   PO429388  11.305  39.278   9.150
 6550POPC   GL129389  11.280  39.265   8.850
 6550POPC   GL229390  11.367  39.063   8.850
 6550POPC   C1A29391  11.322  39.224   8.550
 6550POPC   D2A29392  11.312  39.260   8.250
 6550POPC   C3A29393  11.311  39.220   7.950
 6550POPC   C4A29394  11.300  39.252   7.650
 6550POPC   C1B29395  11.341  38.991   8.550
 6550POPC   C2B29396  11.345  39.003   8.250
 6550POPC   C3B29397  11.396  38.937   7.950
 6550POPC   C4B29398  11.328  38.943   7.650
 6551POPC   NC329399  29.961  26.063   9.450
 6551POPC   PO429400  29.906  26.009   9.150
 6551POPC   GL129401  29.946  26.029   8.850
 6551POPC   GL229402  29.893  25.891   8.850
 6551POPC   C1A29403  29.927  26.010   8.550
 6551POPC   D2A29404  29.928  26.002   8.250
 6551POPC   C3A29405  29.883  25.999   7.950
 6551POPC   C4A29406  29.952  26.066   7.650
 6551POPC   C1B29407  29.797  25.792   8.550
 6551POPC   C2B29408  29.794  25.864   8.250
 6551POPC   C3B29409  29.845  25.795   7.950
 6551POPC   C4B29410  29.778  25.797   7.650
 6552POPC   NC329411  33.820  12.125   9.450
 6552POPC   PO429412  33.784  12.063   9.150
 6552POPC   GL129413  33.845  12.056   8.850
 6552POPC   GL229414  33.889  11.981   8.850
 6552POPC   C1A29415  33.817  12.048   8.550
 6552POPC   D2A29416  33.842  12.068   8.250
 6552POPC   C3A29417  33.797  12.096   7.950
 6552POPC   C4A29418  33.774  12.064   7.650
 6552POPC   C1B29419  33.989  11.955   8.550
 6552POPC   C2B29420  33.982  11.874   8.250
 6552POPC   C3B29421  33.989  11.930   7.950
 6552POPC   C4B29422  34.037  11.935   7.650
 6553POPC   NC329423  33.786   0.448   9.450
 6553POPC   PO429424  33.803   0.466   9.150
 6553POPC   GL129425  33.805   0.476   8.850
 6553POPC   GL229426  33.881   0.432   8.850
 6553POPC   C1A29427  33.791   0.484   8.550
 6553POPC   D2A29428  33.820   0.416   8.250
 6553POPC   C3A29429  33.828   0.447   7.950
 6553POPC   C4A29430  33.784   0.458   7.650
 6553POPC   C1B29431  34.073   0.350   8.550
 6553POPC   C2B29432  34.010   0.323   8.250
 6553POPC   C3B29433  34.037   0.284   7.950
 6553POPC   C4B29434  33.990   0.308   7.650
 6554POPC   NC329435   2.724   9.742   9.450
 6554POPC   PO429436   2.780   9.706   9.150
 6554POPC   GL129437   2.776   9.731   8.850
 6554POPC   GL229438   2.890   9.831   8.850
 6554POPC   C1A29439   2.720   9.728   8.550
 6554POPC   D2A29440   2.717   9.756   8.250
 6554POPC   C3A29441   2.802   9.783   7.950
 6554POPC   C4A29442   2.782   9.705   7.650
 6554POPC   C1B29443   3.011   9.875   8.550
 6554POPC   C2B29444   2.966   9.878   8.250
 6554POPC   C3B29445   3.032   9.811   7.950
 6554POPC   C4B29446   2.963   9.875   7.650
 6555POPC   NC329447  41.551  24.528   9.450
 6555POPC   PO429448  41.594  24.441   9.150
 6555POPC   GL129449  41.560  24.484   8.850
 6555POPC   GL229450  41.639  24.458   8.850
 6555POPC   C1A29451  41.517  24.527   8.550
 6555POPC   D2A29452  41.590  24.509   8.250
 6555POPC   C3A29453  41.600  24.447   7.950
 6555POPC   C4A29454  41.571  24.483   7.650
 6555POPC   C1B29455  41.803  24.383   8.550
 6555POPC   C2B29456  41.799  24.333   8.250
 6555POPC   C3B29457  41.770  24.329   7.950
 6555POPC   C4B29458  41.805  24.384   7.650
 6556POPC   NC329459   5.136   1.232   9.450
 6556POPC   PO429460   5.066   1.245   9.150
 6556POPC   GL129461   5.051   1.238   8.850
 6556POPC   GL229462   5.011   1.252   8.850
 6556POPC   C1A29463   5.085   1.167   8.550
 6556POPC   D2A29464   5.080   1.194   8.250
 6556POPC   C3A29465   5.126   1.257   7.950
 6556POPC   C4A29466   5.098   1.174   7.650
 6556POPC   C1B29467   4.831   1.358   8.550
 6556POPC   C2B29468   4.864   1.293   8.250
 6556POPC   C3B29469   4.825   1.360   7.950
 6556POPC   C4B29470   4.851   1.279   7.650
 6557POPC   NC329471  26.021  29.893   9.450
 6557POPC   PO429472  26.040  29.918   9.150
 6557POPC   GL129473  26.020  29.884   8.850
 6557POPC   GL229474  26.010  29.758   8.850
 6557POPC   C1A29475  26.024  29.934   8.550
 6557POPC   D2A29476  25.995  29.880   8.250
 6557POPC   C3A29477  26.040  29.964   7.950
 6557POPC   C4A29478  26.029  29.946   7.650
 6557POPC   C1B29479  26.020  29.720   8.550
 6557POPC   C2B29480  26.077  29.679   8.250
 6557POPC   C3B29481  26.107  29.665   7.950
 6557POPC   C4B29482  26.027  29.666   7.650
 6558POPC   NC329483  13.651  41.567   9.450
 6558POPC   PO429484  13.625  41.573   9.150
 6558POPC   GL129485  13.675  41.561   8.850
 6558POPC   GL229486  13.553  41.674   8.850
 6558POPC   C1A29487  13.632  41.572   8.550
 6558POPC   D2A29488  13.617  41.586   8.250
 6558POPC   C3A29489  13.596  41.516   7.950
 6558POPC   C4A29490  13.580  41.565   7.650
 6558POPC   C1B29491  13.497  41.734   8.550
 6558POPC   C2B29492  13.557  41.788   8.250
 6558POPC   C3B29493  13.515  41.746   7.950
 6558POPC   C4B29494  13.541  41.816   7.650
 6559POPC   NC329495  34.542  13.608   9.450
 6559POPC   PO429496  34.610  13.620   9.150
 6559POPC   GL129497  34.547  13.634   8.850
 6559POPC   GL229498  34.647  13.493   8.850
 6559POPC   C1A29499  34.588  13.588   8.550
 6559POPC   D2A29500  34.579  13.677   8.250
 6559POPC   C3A29501  34.568  13.664   7.950
 6559POPC   C4A29502  34.565  13.593   7.650
 6559POPC   C1B29503  34.788  13.460   8.550
 6559POPC   C2B29504  34.735  13.478   8.250
 6559POPC   C3B29505  34.773  13.435   7.950
 6559POPC   C4B29506  34.707  13.407   7.650
 6560POPC   NC329507  15.135  44.615   9.450
 6560POPC   PO429508  15.160  44.638   9.150
 6560POPC   GL129509  15.227  44.627   8.850
 6560POPC   GL229510  15.056  44.643   8.850
 6560POPC   C1A29511  15.147  44.689   8.550
 6560POPC   D2A29512  15.188  44.659   8.250
 6560POPC   C3A29513  15.131  44.652   7.950
 6560POPC   C4A29514  15.196  44.697   7.650
 6560POPC   C1B29515  14.979  44.556   8.550
 6560POPC   C2B29516  14.959  44.520   8.250
 6560POPC   C3B29517  14.931  44.566   7.950
 6560POPC   C4B29518  15.005  44.495   7.650
 6561POPC   NC329519  34.543  25.225   9.450
 6561POPC   PO429520  34.531  25.263   9.150
 6561POPC   GL129521  34.553  25.254   8.850
 6561POPC   GL229522  34.559  25.163   8.850
 6561POPC   C1A29523  34.618  25.238   8.550
 6561POPC   D2A29524  34.531  25.219   8.250
 6561POPC   C3A29525  34.614  25.283   7.950
 6561POPC   C4A29526  34.572  25.264   7.650
 6561POPC   C1B29527  34.458  25.004   8.550
 6561POPC   C2B29528  34.450  25.074   8.250
 6561POPC   C3B29529  34.415  24.999   7.950
 6561POPC   C4B29530  34.466  25.075   7.650
 6562POPC   NC329531  33.824  25.285   9.450
 6562POPC   PO429532  33.815  25.277   9.150
 6562POPC   GL129533  33.826  25.285   8.850
 6562POPC   GL229534  33.828  25.182   8.850
 6562POPC   C1A29535  33.831  25.255   8.550
 6562POPC   D2A29536  33.841  25.283   8.250
 6562POPC   C3A29537  33.810  25.233   7.950
 6562POPC   C4A29538  33.776  25.301   7.650
 6562POPC   C1B29539  33.858  25.044   8.550
 6562POPC   C2B29540  33.817  25.015   8.250
 6562POPC   C3B29541  33.871  25.053   7.950
 6562POPC   C4B29542  33.849  25.043   7.650
 6563POPC   NC329543   1.213  16.682   9.450
 6563POPC   PO429544   1.242  16.702   9.150
 6563POPC   GL129545   1.238  16.755   8.850
 6563POPC   GL229546   1.249  16.849   8.850
 6563POPC   C1A29547   1.240  16.751   8.550
 6563POPC   D2A29548   1.234  16.705   8.250
 6563POPC   C3A29549   1.217  16.701   7.950
 6563POPC   C4A29550   1.239  16.720   7.650
 6563POPC   C1B29551   1.203  16.996   8.550
 6563POPC   C2B29552   1.224  16.975   8.250
 6563POPC   C3B29553   1.292  17.023   7.950
 6563POPC   C4B29554   1.236  16.986   7.650
 6564POPC   NC329555  25.306  17.534   9.450
 6564POPC   PO429556  25.239  17.511   9.150
 6564POPC   GL129557  25.219  17.471   8.850
 6564POPC   GL229558  25.409  17.606   8.850
 6564POPC   C1A29559  25.292  17.541   8.550
 6564POPC   D2A29560  25.273  17.551   8.250
 6564POPC   C3A29561  25.252  17.534   7.950
 6564POPC   C4A29562  25.254  17.474   7.650
 6564POPC   C1B29563  25.498  17.642   8.550
 6564POPC   C2B29564  25.472  17.684   8.250
 6564POPC   C3B29565  25.464  17.655   7.950
 6564POPC   C4B29566  25.507  17.681   7.650
 6565POPC   NC329567   5.068  29.902   9.450
 6565POPC   PO429568   5.097  29.916   9.150
 6565POPC   GL129569   5.068  29.968   8.850
 6565POPC   GL229570   5.197  29.862   8.850
 6565POPC   C1A29571   5.063  29.939   8.550
 6565POPC   D2A29572   5.091  29.938   8.250
 6565POPC   C3A29573   5.096  29.906   7.950
 6565POPC   C4A29574   5.128  29.961   7.650
 6565POPC   C1B29575   5.272  29.779   8.550
 6565POPC   C2B29576   5.277  29.772   8.250
 6565POPC   C3B29577   5.341  29.782   7.950
 6565POPC   C4B29578   5.306  29.794   7.650
 6566POPC   NC329579  28.343  25.251   9.450
 6566POPC   PO429580  28.410  25.235   9.150
 6566POPC   GL129581  28.349  25.292   8.850
 6566POPC   GL229582  28.461  25.157   8.850
 6566POPC   C1A29583  28.355  25.276   8.550
 6566POPC   D2A29584  28.355  25.293   8.250
 6566POPC   C3A29585  28.319  25.216   7.950
 6566POPC   C4A29586  28.396  25.303   7.650
 6566POPC   C1B29587  28.558  25.144   8.550
 6566POPC   C2B29588  28.622  25.156   8.250
 6566POPC   C3B29589  28.559  25.106   7.950
 6566POPC   C4B29590  28.585  25.120   7.650
 6567POPC   NC329591  39.248  37.661   9.450
 6567POPC   PO429592  39.277  37.643   9.150
 6567POPC   GL129593  39.275  37.697   8.850
 6567POPC   GL229594  39.272  37.766   8.850
 6567POPC   C1A29595  39.208  37.666   8.550
 6567POPC   D2A29596  39.199  37.641   8.250
 6567POPC   C3A29597  39.270  37.682   7.950
 6567POPC   C4A29598  39.259  37.648   7.650
 6567POPC   C1B29599  39.304  37.885   8.550
 6567POPC   C2B29600  39.334  37.887   8.250
 6567POPC   C3B29601  39.278  37.937   7.950
 6567POPC   C4B29602  39.359  37.937   7.650
 6568POPC   NC329603  36.883  11.263   9.450
 6568POPC   PO429604  36.854  11.260   9.150
 6568POPC   GL129605  36.874  11.335   8.850
 6568POPC   GL229606  37.000  11.293   8.850
 6568POPC   C1A29607  36.898  11.255   8.550
 6568POPC   D2A29608  36.930  11.299   8.250
 6568POPC   C3A29609  36.923  11.301   7.950
 6568POPC   C4A29610  36.894  11.293   7.650
 6568POPC   C1B29611  37.184  11.278   8.550
 6568POPC   C2B29612  37.145  11.279   8.250
 6568POPC   C3B29613  37.178  11.254   7.950
 6568POPC   C4B29614  37.166  11.284   7.650
 6569POPC   NC329615   4.358  20.584   9.450
 6569POPC   PO429616   4.351  20.621   9.150
 6569POPC   GL129617   4.345  20.639   8.850
 6569POPC   GL229618   4.461  20.618   8.850
 6569POPC   C1A29619   4.364  20.612   8.550
 6569POPC   D2A29620   4.345  20.635   8.250
 6569POPC   C3A29621   4.365  20.614   7.950
 6569POPC   C4A29622   4.272  20.566   7.650
 6569POPC   C1B29623   4.528  20.693   8.550
 6569POPC   C2B29624   4.579  20.653   8.250
 6569POPC   C3B29625   4.594  20.648   7.950
 6569POPC   C4B29626   4.565  20.684   7.650
 6570POPC   NC329627  32.199  44.694   9.450
 6570POPC   PO429628  32.200  44.652   9.150
 6570POPC   GL129629  32.255  44.635   8.850
 6570POPC   GL229630  32.417  44.679   8.850
 6570POPC   C1A29631  32.255  44.651   8.550
 6570POPC   D2A29632  32.237  44.689   8.250
 6570POPC   C3A29633  32.215  44.616   7.950
 6570POPC   C4A29634  32.266  44.698   7.650
 6570POPC   C1B29635  32.541  44.650   8.550
 6570POPC   C2B29636  32.519  44.684   8.250
 6570POPC   C3B29637  32.450  44.686   7.950
 6570POPC   C4B29638  32.503  44.686   7.650
 6571POPC   NC329639  37.675   0.400   9.450
 6571POPC   PO429640  37.654   0.401   9.150
 6571POPC   GL129641  37.633   0.396   8.850
 6571POPC   GL229642  37.758   0.308   8.850
 6571POPC   C1A29643  37.682   0.450   8.550
 6571POPC   D2A29644  37.644   0.439   8.250
 6571POPC   C3A29645  37.702   0.423   7.950
 6571POPC   C4A29646  37.682   0.480   7.650
 6571POPC   C1B29647  37.844   0.248   8.550
 6571POPC   C2B29648  37.821   0.239   8.250
 6571POPC   C3B29649  37.845   0.222   7.950
 6571POPC   C4B29650  37.757   0.210   7.650
 6572POPC   NC329651   0.425  20.627   9.450
 6572POPC   PO429652   0.442  20.650   9.150
 6572POPC   GL129653   0.487  20.573   8.850
 6572POPC   GL229654   0.372  20.733   8.850
 6572POPC   C1A29655   0.463  20.610   8.550
 6572POPC   D2A29656   0.445  20.632   8.250
 6572POPC   C3A29657   0.417  20.602   7.950
 6572POPC   C4A29658   0.469  20.611   7.650
 6572POPC   C1B29659   0.222  20.729   8.550
 6572POPC   C2B29660   0.276  20.797   8.250
 6572POPC   C3B29661   0.255  20.816   7.950
 6572POPC   C4B29662   0.211  20.735   7.650
 6573POPC   NC329663  33.799  29.903   9.450
 6573POPC   PO429664  33.796  29.945   9.150
 6573POPC   GL129665  33.822  29.920   8.850
 6573POPC   GL229666  33.946  29.953   8.850
 6573POPC   C1A29667  33.781  29.951   8.550
 6573POPC   D2A29668  33.839  29.963   8.250
 6573POPC   C3A29669  33.758  29.921   7.950
 6573POPC   C4A29670  33.805  29.950   7.650
 6573POPC   C1B29671  34.015  30.033   8.550
 6573POPC   C2B29672  33.997  30.030   8.250
 6573POPC   C3B29673  34.004  29.980   7.950
 6573POPC   C4B29674  33.992  30.049   7.650
 6574POPC   NC329675  15.943  44.619   9.450
 6574POPC   PO429676  15.952  44.696   9.150
 6574POPC   GL129677  15.959  44.613   8.850
 6574POPC   GL229678  15.867  44.514   8.850
 6574POPC   C1A29679  15.918  44.658   8.550
 6574POPC   D2A29680  15.933  44.650   8.250
 6574POPC   C3A29681  15.912  44.656   7.950
 6574POPC   C4A29682  15.966  44.642   7.650
 6574POPC   C1B29683  15.830  44.388   8.550
 6574POPC   C2B29684  15.843  44.413   8.250
 6574POPC   C3B29685  15.832  44.454   7.950
 6574POPC   C4B29686  15.828  44.475   7.650
 6575POPC   NC329687   5.874  42.314   9.450
 6575POPC   PO429688   5.913  42.293   9.150
 6575POPC   GL129689   5.822  42.299   8.850
 6575POPC   GL229690   5.862  42.174   8.850
 6575POPC   C1A29691   5.897  42.291   8.550
 6575POPC   D2A29692   5.866  42.304   8.250
 6575POPC   C3A29693   5.883  42.337   7.950
 6575POPC   C4A29694   5.897  42.330   7.650
 6575POPC   C1B29695   5.902  42.054   8.550
 6575POPC   C2B29696   5.828  42.114   8.250
 6575POPC   C3B29697   5.885  42.048   7.950
 6575POPC   C4B29698   5.894  42.047   7.650
 6576POPC   NC329699   7.463  44.625   9.450
 6576POPC   PO429700   7.451  44.628   9.150
 6576POPC   GL129701   7.388  44.654   8.850
 6576POPC   GL229702   7.358  44.722   8.850
 6576POPC   C1A29703   7.378  44.687   8.550
 6576POPC   D2A29704   7.457  44.622   8.250
 6576POPC   C3A29705   7.397  44.659   7.950
 6576POPC   C4A29706   7.384  44.698   7.650
 6576POPC   C1B29707   7.278  44.890   8.550
 6576POPC   C2B29708   7.265  44.852   8.250
 6576POPC   C3B29709   7.301  44.820   7.950
 6576POPC   C4B29710   7.292  44.831   7.650
 6577POPC   NC329711  39.199  34.625   9.450
 6577POPC   PO429712  39.244  34.565   9.150
 6577POPC   GL129713  39.184  34.568   8.850
 6577POPC   GL229714  39.248  34.460   8.850
 6577POPC   C1A29715  39.202  34.536   8.550
 6577POPC   D2A29716  39.251  34.583   8.250
 6577POPC   C3A29717  39.260  34.554   7.950
 6577POPC   C4A29718  39.201  34.585   7.650
 6577POPC   C1B29719  39.333  34.328   8.550
 6577POPC   C2B29720  39.345  34.334   8.250
 6577POPC   C3B29721  39.354  34.305   7.950
 6577POPC   C4B29722  39.276  34.304   7.650
 6578POPC   NC329723  42.286   5.083   9.450
 6578POPC   PO429724  42.331   5.052   9.150
 6578POPC   GL129725  42.293   5.089   8.850
 6578POPC   GL229726  42.237   5.142   8.850
 6578POPC   C1A29727  42.356   5.050   8.550
 6578POPC   D2A29728  42.348   5.078   8.250
 6578POPC   C3A29729  42.343   5.056   7.950
 6578POPC   C4A29730  42.339   5.124   7.650
 6578POPC   C1B29731  42.113   5.139   8.550
 6578POPC   C2B29732  42.127   5.160   8.250
 6578POPC   C3B29733  42.078   5.136   7.950
 6578POPC   C4B29734  42.127   5.144   7.650
 6579POPC   NC329735  43.094  39.232   9.450
 6579POPC   PO429736  43.160  39.244   9.150
 6579POPC   GL129737  43.154  39.264   8.850
 6579POPC   GL229738  43.008  39.165   8.850
 6579POPC   C1A29739  43.086  39.261   8.550
 6579POPC   D2A29740  43.085  39.244   8.250
 6579POPC   C3A29741  43.153  39.241   7.950
 6579POPC   C4A29742  43.115  39.182   7.650
 6579POPC   C1B29743  42.903  39.166   8.550
 6579POPC   C2B29744  42.917  39.101   8.250
 6579POPC   C3B29745  42.858  39.123   7.950
 6579POPC   C4B29746  42.901  39.161   7.650
 6580POPC   NC329747  44.672  33.030   9.450
 6580POPC   PO429748  44.692  33.010   9.150
 6580POPC   GL129749  44.663  33.003   8.850
 6580POPC   GL229750  44.501  33.009   8.850
 6580POPC   C1A29751  44.654  32.994   8.550
 6580POPC   D2A29752  44.660  33.071   8.250
 6580POPC   C3A29753  44.699  32.976   7.950
 6580POPC   C4A29754  44.682  32.989   7.650
 6580POPC   C1B29755  44.450  33.055   8.550
 6580POPC   C2B29756  44.433  32.979   8.250
 6580POPC   C3B29757  44.443  33.004   7.950
 6580POPC   C4B29758  44.411  33.054   7.650
 6581POPC   NC329759  40.774  36.938   9.450
 6581POPC   PO429760  40.799  36.945   9.150
 6581POPC   GL129761  40.744  36.906   8.850
 6581POPC   GL229762  40.680  36.940   8.850
 6581POPC   C1A29763  40.762  36.942   8.550
 6581POPC   D2A29764  40.789  36.855   8.250
 6581POPC   C3A29765  40.792  36.893   7.950
 6581POPC   C4A29766  40.810  36.855   7.650
 6581POPC   C1B29767  40.596  37.089   8.550
 6581POPC   C2B29768  40.593  37.055   8.250
 6581POPC   C3B29769  40.610  37.055   7.950
 6581POPC   C4B29770  40.605  37.065   7.650
 6582POPC   NC329771  16.684   3.576   9.450
 6582POPC   PO429772  16.725   3.557   9.150
 6582POPC   GL129773  16.695   3.495   8.850
 6582POPC   GL229774  16.736   3.372   8.850
 6582POPC   C1A29775  16.728   3.589   8.550
 6582POPC   D2A29776  16.733   3.560   8.250
 6582POPC   C3A29777  16.742   3.510   7.950
 6582POPC   C4A29778  16.742   3.570   7.650
 6582POPC   C1B29779  16.696   3.318   8.550
 6582POPC   C2B29780  16.640   3.342   8.250
 6582POPC   C3B29781  16.693   3.286   7.950
 6582POPC   C4B29782  16.672   3.329   7.650
 6583POPC   NC329783  27.597  40.824   9.450
 6583POPC   PO429784  27.635  40.734   9.150
 6583POPC   GL129785  27.600  40.806   8.850
 6583POPC   GL229786  27.498  40.657   8.850
 6583POPC   C1A29787  27.590  40.820   8.550
 6583POPC   D2A29788  27.579  40.758   8.250
 6583POPC   C3A29789  27.601  40.773   7.950
 6583POPC   C4A29790  27.598  40.757   7.650
 6583POPC   C1B29791  27.408  40.575   8.550
 6583POPC   C2B29792  27.482  40.539   8.250
 6583POPC   C3B29793  27.445  40.570   7.950
 6583POPC   C4B29794  27.481  40.593   7.650
 6584POPC   NC329795  32.268  29.915   9.450
 6584POPC   PO429796  32.218  29.877   9.150
 6584POPC   GL129797  32.248  29.953   8.850
 6584POPC   GL229798  32.236  29.760   8.850
 6584POPC   C1A29799  32.249  29.927   8.550
 6584POPC   D2A29800  32.220  29.969   8.250
 6584POPC   C3A29801  32.259  29.948   7.950
 6584POPC   C4A29802  32.249  29.873   7.650
 6584POPC   C1B29803  32.196  29.686   8.550
 6584POPC   C2B29804  32.226  29.659   8.250
 6584POPC   C3B29805  32.200  29.670   7.950
 6584POPC   C4B29806  32.233  29.713   7.650
 6585POPC   NC329807   2.742  41.547   9.450
 6585POPC   PO429808   2.748  41.602   9.150
 6585POPC   GL129809   2.807  41.550   8.850
 6585POPC   GL229810   2.821  41.472   8.850
 6585POPC   C1A29811   2.765  41.531   8.550
 6585POPC   D2A29812   2.781  41.526   8.250
 6585POPC   C3A29813   2.749  41.511   7.950
 6585POPC   C4A29814   2.759  41.553   7.650
 6585POPC   C1B29815   2.775  41.278   8.550
 6585POPC   C2B29816   2.781  41.347   8.250
 6585POPC   C3B29817   2.858  41.296   7.950
 6585POPC   C4B29818   2.804  41.273   7.650
 6586POPC   NC329819  42.348  38.433   9.450
 6586POPC   PO429820  42.341  38.436   9.150
 6586POPC   GL129821  42.299  38.496   8.850
 6586POPC   GL229822  42.398  38.415   8.850
 6586POPC   C1A29823  42.339  38.444   8.550
 6586POPC   D2A29824  42.290  38.433   8.250
 6586POPC   C3A29825  42.357  38.406   7.950
 6586POPC   C4A29826  42.321  38.443   7.650
 6586POPC   C1B29827  42.512  38.364   8.550
 6586POPC   C2B29828  42.541  38.296   8.250
 6586POPC   C3B29829  42.575  38.353   7.950
 6586POPC   C4B29830  42.498  38.308   7.650
 6587POPC   NC329831  36.918  41.525   9.450
 6587POPC   PO429832  36.871  41.531   9.150
 6587POPC   GL129833  36.858  41.517   8.850
 6587POPC   GL229834  36.814  41.514   8.850
 6587POPC   C1A29835  36.875  41.606   8.550
 6587POPC   D2A29836  36.936  41.536   8.250
 6587POPC   C3A29837  36.862  41.511   7.950
 6587POPC   C4A29838  36.906  41.600   7.650
 6587POPC   C1B29839  36.691  41.512   8.550
 6587POPC   C2B29840  36.610  41.501   8.250
 6587POPC   C3B29841  36.702  41.542   7.950
 6587POPC   C4B29842  36.663  41.550   7.650
 6588POPC   NC329843   8.988  25.229   9.450
 6588POPC   PO429844   8.982  25.296   9.150
 6588POPC   GL129845   9.018  25.230   8.850
 6588POPC   GL229846   8.914  25.399   8.850
 6588POPC   C1A29847   8.993  25.293   8.550
 6588POPC   D2A29848   8.924  25.240   8.250
 6588POPC   C3A29849   8.951  25.276   7.950
 6588POPC   C4A29850   8.926  25.298   7.650
 6588POPC   C1B29851   8.872  25.468   8.550
 6588POPC   C2B29852   8.853  25.542   8.250
 6588POPC   C3B29853   8.925  25.452   7.950
 6588POPC   C4B29854   8.863  25.486   7.650
 6589POPC   NC329855  29.969   5.136   9.450
 6589POPC   PO429856  29.936   5.070   9.150
 6589POPC   GL129857  29.896   5.122   8.850
 6589POPC   GL229858  29.933   5.229   8.850
 6589POPC   C1A29859  29.943   5.070   8.550
 6589POPC   D2A29860  29.969   5.120   8.250
 6589POPC   C3A29861  29.913   5.126   7.950
 6589POPC   C4A29862  29.946   5.080   7.650
 6589POPC   C1B29863  29.866   5.353   8.550
 6589POPC   C2B29864  29.857   5.312   8.250
 6589POPC   C3B29865  29.872   5.371   7.950
 6589POPC   C4B29866  29.903   5.340   7.650
 6590POPC   NC329867  40.016  39.988   9.450
 6590POPC   PO429868  39.992  40.039   9.150
 6590POPC   GL129869  39.978  39.981   8.850
 6590POPC   GL229870  39.967  40.109   8.850
 6590POPC   C1A29871  39.996  40.030   8.550
 6590POPC   D2A29872  39.979  39.989   8.250
 6590POPC   C3A29873  39.973  40.056   7.950
 6590POPC   C4A29874  39.995  40.056   7.650
 6590POPC   C1B29875  39.983  40.299   8.550
 6590POPC   C2B29876  40.050  40.245   8.250
 6590POPC   C3B29877  40.021  40.211   7.950
 6590POPC   C4B29878  40.060  40.216   7.650
 6591POPC   NC329879  14.375   6.652   9.450
 6591POPC   PO429880  14.440   6.633   9.150
 6591POPC   GL129881  14.438   6.632   8.850
 6591POPC   GL229882  14.401   6.728   8.850
 6591POPC   C1A29883  14.443   6.688   8.550
 6591POPC   D2A29884  14.450   6.636   8.250
 6591POPC   C3A29885  14.404   6.682   7.950
 6591POPC   C4A29886  14.357   6.680   7.650
 6591POPC   C1B29887  14.409   6.878   8.550
 6591POPC   C2B29888  14.393   6.910   8.250
 6591POPC   C3B29889  14.380   6.890   7.950
 6591POPC   C4B29890  14.359   6.857   7.650
 6592POPC   NC329891   5.082  32.982   9.450
 6592POPC   PO429892   5.134  33.069   9.150
 6592POPC   GL129893   5.094  33.030   8.850
 6592POPC   GL229894   5.233  33.091   8.850
 6592POPC   C1A29895   5.088  33.057   8.550
 6592POPC   D2A29896   5.072  33.067   8.250
 6592POPC   C3A29897   5.099  33.020   7.950
 6592POPC   C4A29898   5.061  33.074   7.650
 6592POPC   C1B29899   5.265  33.199   8.550
 6592POPC   C2B29900   5.334  33.125   8.250
 6592POPC   C3B29901   5.315  33.119   7.950
 6592POPC   C4B29902   5.272  33.108   7.650
 6593POPC   NC329903  11.258  33.848   9.450
 6593POPC   PO429904  11.343  33.771   9.150
 6593POPC   GL129905  11.322  33.790   8.850
 6593POPC   GL229906  11.411  33.861   8.850
 6593POPC   C1A29907  11.253  33.811   8.550
 6593POPC   D2A29908  11.264  33.802   8.250
 6593POPC   C3A29909  11.258  33.760   7.950
 6593POPC   C4A29910  11.338  33.776   7.650
 6593POPC   C1B29911  11.503  33.917   8.550
 6593POPC   C2B29912  11.584  33.842   8.250
 6593POPC   C3B29913  11.560  33.923   7.950
 6593POPC   C4B29914  11.556  33.882   7.650
 6594POPC   NC329915  43.118  32.229   9.450
 6594POPC   PO429916  43.112  32.280   9.150
 6594POPC   GL129917  43.119  32.257   8.850
 6594POPC   GL229918  42.984  32.174   8.850
 6594POPC   C1A29919  43.101  32.255   8.550
 6594POPC   D2A29920  43.099  32.215   8.250
 6594POPC   C3A29921  43.073  32.262   7.950
 6594POPC   C4A29922  43.069  32.269   7.650
 6594POPC   C1B29923  42.900  32.082   8.550
 6594POPC   C2B29924  42.893  32.157   8.250
 6594POPC   C3B29925  42.858  32.112   7.950
 6594POPC   C4B29926  42.935  32.072   7.650
 6595POPC   NC329927  39.265  18.319   9.450
 6595POPC   PO429928  39.193  18.281   9.150
 6595POPC   GL129929  39.251  18.234   8.850
 6595POPC   GL229930  39.224  18.200   8.850
 6595POPC   C1A29931  39.227  18.321   8.550
 6595POPC   D2A29932  39.279  18.246   8.250
 6595POPC   C3A29933  39.209  18.320   7.950
 6595POPC   C4A29934  39.274  18.240   7.650
 6595POPC   C1B29935  39.315  18.001   8.550
 6595POPC   C2B29936  39.313  18.065   8.250
 6595POPC   C3B29937  39.249  18.024   7.950
 6595POPC   C4B29938  39.242  18.067   7.650
 6596POPC   NC329939   8.210  39.213   9.450
 6596POPC   PO429940   8.192  39.276   9.150
 6596POPC   GL129941   8.176  39.204   8.850
 6596POPC   GL229942   8.046  39.287   8.850
 6596POPC   C1A29943   8.189  39.243   8.550
 6596POPC   D2A29944   8.187  39.197   8.250
 6596POPC   C3A29945   8.184  39.254   7.950
 6596POPC   C4A29946   8.200  39.210   7.650
 6596POPC   C1B29947   8.015  39.389   8.550
 6596POPC   C2B29948   8.035  39.418   8.250
 6596POPC   C3B29949   7.995  39.412   7.950
 6596POPC   C4B29950   7.975  39.370   7.650
 6597POPC   NC329951  23.736  23.681   9.450
 6597POPC   PO429952  23.671  23.698   9.150
 6597POPC   GL129953  23.677  23.724   8.850
 6597POPC   GL229954  23.848  23.824   8.850
 6597POPC   C1A29955  23.711  23.731   8.550
 6597POPC   D2A29956  23.682  23.746   8.250
 6597POPC   C3A29957  23.750  23.748   7.950
 6597POPC   C4A29958  23.705  23.739   7.650
 6597POPC   C1B29959  23.922  23.881   8.550
 6597POPC   C2B29960  23.905  23.851   8.250
 6597POPC   C3B29961  23.965  23.870   7.950
 6597POPC   C4B29962  23.944  23.851   7.650
 6598POPC   NC329963   8.979  29.921   9.450
 6598POPC   PO429964   8.989  29.873   9.150
 6598POPC   GL129965   9.007  29.965   8.850
 6598POPC   GL229966   9.030  30.002   8.850
 6598POPC   C1A29967   8.961  29.895   8.550
 6598POPC   D2A29968   9.004  29.956   8.250
 6598POPC   C3A29969   9.020  29.883   7.950
 6598POPC   C4A29970   8.946  29.948   7.650
 6598POPC   C1B29971   9.101  30.111   8.550
 6598POPC   C2B29972   9.118  30.074   8.250
 6598POPC   C3B29973   9.100  30.105   7.950
 6598POPC   C4B29974   9.120  30.140   7.650
 6599POPC   NC329975   3.516   4.277   9.450
 6599POPC   PO429976   3.512   4.359   9.150
 6599POPC   GL129977   3.529   4.356   8.850
 6599POPC   GL229978   3.662   4.447   8.850
 6599POPC   C1A29979   3.523   4.314   8.550
 6599POPC   D2A29980   3.543   4.337   8.250
 6599POPC   C3A29981   3.494   4.272   7.950
 6599POPC   C4A29982   3.549   4.306   7.650
 6599POPC   C1B29983   3.678   4.494   8.550
 6599POPC   C2B29984   3.705   4.486   8.250
 6599POPC   C3B29985   3.680   4.511   7.950
 6599POPC   C4B29986   3.753   4.499   7.650
 6600POPC   NC329987  42.344   8.215   9.450
 6600POPC   PO429988  42.335   8.162   9.150
 6600POPC   GL129989  42.336   8.211   8.850
 6600POPC   GL229990  42.411   8.189   8.850
 6600POPC   C1A29991  42.366   8.174   8.550
 6600POPC   D2A29992  42.317   8.168   8.250
 6600POPC   C3A29993  42.364   8.233   7.950
 6600POPC   C4A29994  42.338   8.229   7.650
 6600POPC   C1B29995  42.553   8.243   8.550
 6600POPC   C2B29996  42.581   8.284   8.250
 6600POPC   C3B29997  42.545   8.260   7.950
 6600POPC   C4B29998  42.575   8.258   7.650
 6601POPC   NC329999  24.490  36.946   9.450
 6601POPC   PO430000  24.473  36.922   9.150
 6601POPC   GL130001  24.454  36.923   8.850
 6601POPC   GL230002  24.396  36.842   8.850
 6601POPC   C1A30003  24.509  36.930   8.550
 6601POPC   D2A30004  24.467  36.944   8.250
 6601POPC   C3A30005  24.494  36.905   7.950
 6601POPC   C4A30006  24.524  36.911   7.650
 6601POPC   C1B30007  24.263  36.912   8.550
 6601POPC   C2B30008  24.286  36.873   8.250
 6601POPC   C3B30009  24.256  36.867   7.950
 6601POPC   C4B30010  24.282  36.873   7.650
 6602POPC   NC330011  34.607   8.180   9.450
 6602POPC   PO430012  34.569   8.163   9.150
 6602POPC   GL130013  34.554   8.203   8.850
 6602POPC   GL230014  34.581   8.270   8.850
 6602POPC   C1A30015  34.598   8.243   8.550
 6602POPC   D2A30016  34.541   8.177   8.250
 6602POPC   C3A30017  34.551   8.199   7.950
 6602POPC   C4A30018  34.562   8.190   7.650
 6602POPC   C1B30019  34.649   8.451   8.550
 6602POPC   C2B30020  34.677   8.435   8.250
 6602POPC   C3B30021  34.595   8.440   7.950
 6602POPC   C4B30022  34.604   8.390   7.650
 6603POPC   NC330023  36.144  15.945   9.450
 6603POPC   PO430024  36.137  15.964   9.150
 6603POPC   GL130025  36.148  15.940   8.850
 6603POPC   GL230026  36.193  16.000   8.850
 6603POPC   C1A30027  36.107  15.985   8.550
 6603POPC   D2A30028  36.090  15.915   8.250
 6603POPC   C3A30029  36.086  15.971   7.950
 6603POPC   C4A30030  36.130  15.949   7.650
 6603POPC   C1B30031  36.299  16.125   8.550
 6603POPC   C2B30032  36.322  16.069   8.250
 6603POPC   C3B30033  36.294  16.122   7.950
 6603POPC   C4B30034  36.346  16.048   7.650
 6604POPC   NC330035  27.614   3.510   9.450
 6604POPC   PO430036  27.564   3.571   9.150
 6604POPC   GL130037  27.623   3.497   8.850
 6604POPC   GL230038  27.481   3.589   8.850
 6604POPC   C1A30039  27.623   3.555   8.550
 6604POPC   D2A30040  27.605   3.544   8.250
 6604POPC   C3A30041  27.588   3.577   7.950
 6604POPC   C4A30042  27.589   3.551   7.650
 6604POPC   C1B30043  27.332   3.594   8.550
 6604POPC   C2B30044  27.404   3.621   8.250
 6604POPC   C3B30045  27.387   3.686   7.950
 6604POPC   C4B30046  27.370   3.677   7.650
 6605POPC   NC330047  36.952  33.804   9.450
 6605POPC   PO430048  36.863  33.833   9.150
 6605POPC   GL130049  36.910  33.830   8.850
 6605POPC   GL230050  36.995  33.929   8.850
 6605POPC   C1A30051  36.883  33.823   8.550
 6605POPC   D2A30052  36.900  33.814   8.250
 6605POPC   C3A30053  36.925  33.805   7.950
 6605POPC   C4A30054  36.921  33.772   7.650
 6605POPC   C1B30055  37.091  33.987   8.550
 6605POPC   C2B30056  37.135  33.984   8.250
 6605POPC   C3B30057  37.138  33.964   7.950
 6605POPC   C4B30058  37.105  33.921   7.650
 6606POPC   NC330059   7.392  23.758   9.450
 6606POPC   PO430060   7.467  23.756   9.150
 6606POPC   GL130061   7.379  23.685   8.850
 6606POPC   GL230062   7.462  23.587   8.850
 6606POPC   C1A30063   7.444  23.723   8.550
 6606POPC   D2A30064   7.403  23.705   8.250
 6606POPC   C3A30065   7.380  23.693   7.950
 6606POPC   C4A30066   7.454  23.719   7.650
 6606POPC   C1B30067   7.474  23.443   8.550
 6606POPC   C2B30068   7.486  23.463   8.250
 6606POPC   C3B30069   7.445  23.455   7.950
 6606POPC   C4B30070   7.473  23.436   7.650
 6607POPC   NC330071   6.655  27.553   9.450
 6607POPC   PO430072   6.636  27.565   9.150
 6607POPC   GL130073   6.611  27.630   8.850
 6607POPC   GL230074   6.536  27.494   8.850
 6607POPC   C1A30075   6.605  27.597   8.550
 6607POPC   D2A30076   6.615  27.582   8.250
 6607POPC   C3A30077   6.613  27.641   7.950
 6607POPC   C4A30078   6.653  27.588   7.650
 6607POPC   C1B30079   6.486  27.387   8.550
 6607POPC   C2B30080   6.510  27.337   8.250
 6607POPC   C3B30081   6.539  27.332   7.950
 6607POPC   C4B30082   6.529  27.332   7.650
 6608POPC   NC330083  23.733   5.088   9.450
 6608POPC   PO430084  23.731   5.103   9.150
 6608POPC   GL130085  23.701   5.108   8.850
 6608POPC   GL230086  23.712   4.968   8.850
 6608POPC   C1A30087  23.708   5.049   8.550
 6608POPC   D2A30088  23.742   5.082   8.250
 6608POPC   C3A30089  23.731   5.070   7.950
 6608POPC   C4A30090  23.689   5.104   7.650
 6608POPC   C1B30091  23.713   4.830   8.550
 6608POPC   C2B30092  23.727   4.847   8.250
 6608POPC   C3B30093  23.734   4.796   7.950
 6608POPC   C4B30094  23.705   4.869   7.650
 6609POPC   NC330095  39.221  40.813   9.450
 6609POPC   PO430096  39.205  40.791   9.150
 6609POPC   GL130097  39.270  40.823   8.850
 6609POPC   GL230098  39.076  40.774   8.850
 6609POPC   C1A30099  39.280  40.739   8.550
 6609POPC   D2A30100  39.199  40.747   8.250
 6609POPC   C3A30101  39.204  40.825   7.950
 6609POPC   C4A30102  39.194  40.831   7.650
 6609POPC   C1B30103  38.957  40.779   8.550
 6609POPC   C2B30104  38.991  40.803   8.250
 6609POPC   C3B30105  38.966  40.807   7.950
 6609POPC   C4B30106  39.013  40.830   7.650
 6610POPC   NC330107  36.861  18.328   9.450
 6610POPC   PO430108  36.921  18.306   9.150
 6610POPC   GL130109  36.885  18.282   8.850
 6610POPC   GL230110  36.830  18.185   8.850
 6610POPC   C1A30111  36.877  18.267   8.550
 6610POPC   D2A30112  36.939  18.263   8.250
 6610POPC   C3A30113  36.908  18.265   7.950
 6610POPC   C4A30114  36.856  18.254   7.650
 6610POPC   C1B30115  36.764  18.096   8.550
 6610POPC   C2B30116  36.817  18.103   8.250
 6610POPC   C3B30117  36.742  18.017   7.950
 6610POPC   C4B30118  36.781  18.047   7.650
 6611POPC   NC330119  43.116  22.965   9.450
 6611POPC   PO430120  43.120  22.889   9.150
 6611POPC   GL130121  43.146  22.923   8.850
 6611POPC   GL230122  43.211  22.851   8.850
 6611POPC   C1A30123  43.117  22.977   8.550
 6611POPC   D2A30124  43.105  22.952   8.250
 6611POPC   C3A30125  43.086  22.937   7.950
 6611POPC   C4A30126  43.105  22.964   7.650
 6611POPC   C1B30127  43.390  22.853   8.550
 6611POPC   C2B30128  43.372  22.845   8.250
 6611POPC   C3B30129  43.365  22.831   7.950
 6611POPC   C4B30130  43.384  22.837   7.650
 6612POPC   NC330131   0.399  40.772   9.450
 6612POPC   PO430132   0.470  40.825   9.150
 6612POPC   GL130133   0.390  40.809   8.850
 6612POPC   GL230134   0.374  40.944   8.850
 6612POPC   C1A30135   0.389  40.742   8.550
 6612POPC   D2A30136   0.414  40.744   8.250
 6612POPC   C3A30137   0.391  40.824   7.950
 6612POPC   C4A30138   0.393  40.786   7.650
 6612POPC   C1B30139   0.400  40.978   8.550
 6612POPC   C2B30140   0.308  41.006   8.250
 6612POPC   C3B30141   0.363  40.999   7.950
 6612POPC   C4B30142   0.314  40.996   7.650
 6613POPC   NC330143  13.616  15.212   9.450
 6613POPC   PO430144  13.662  15.176   9.150
 6613POPC   GL130145  13.607  15.152   8.850
 6613POPC   GL230146  13.497  15.230   8.850
 6613POPC   C1A30147  13.621  15.170   8.550
 6613POPC   D2A30148  13.671  15.155   8.250
 6613POPC   C3A30149  13.648  15.222   7.950
 6613POPC   C4A30150  13.641  15.150   7.650
 6613POPC   C1B30151  13.460  15.316   8.550
 6613POPC   C2B30152  13.379  15.281   8.250
 6613POPC   C3B30153  13.450  15.362   7.950
 6613POPC   C4B30154  13.403  15.359   7.650
 6614POPC   NC330155   1.205   3.589   9.450
 6614POPC   PO430156   1.245   3.533   9.150
 6614POPC   GL130157   1.228   3.496   8.850
 6614POPC   GL230158   1.150   3.608   8.850
 6614POPC   C1A30159   1.218   3.547   8.550
 6614POPC   D2A30160   1.184   3.545   8.250
 6614POPC   C3A30161   1.233   3.552   7.950
 6614POPC   C4A30162   1.219   3.579   7.650
 6614POPC   C1B30163   1.095   3.800   8.550
 6614POPC   C2B30164   1.130   3.733   8.250
 6614POPC   C3B30165   1.086   3.748   7.950
 6614POPC   C4B30166   1.056   3.768   7.650
 6615POPC   NC330167  14.405  20.642   9.450
 6615POPC   PO430168  14.392  20.630   9.150
 6615POPC   GL130169  14.418  20.598   8.850
 6615POPC   GL230170  14.408  20.761   8.850
 6615POPC   C1A30171  14.398  20.587   8.550
 6615POPC   D2A30172  14.380  20.642   8.250
 6615POPC   C3A30173  14.434  20.603   7.950
 6615POPC   C4A30174  14.424  20.603   7.650
 6615POPC   C1B30175  14.451  20.872   8.550
 6615POPC   C2B30176  14.536  20.799   8.250
 6615POPC   C3B30177  14.489  20.875   7.950
 6615POPC   C4B30178  14.463  20.816   7.650
 6616POPC   NC330179  13.581  43.138   9.450
 6616POPC   PO430180  13.580  43.160   9.150
 6616POPC   GL130181  13.656  43.072   8.850
 6616POPC   GL230182  13.541  43.016   8.850
 6616POPC   C1A30183  13.618  43.113   8.550
 6616POPC   D2A30184  13.580  43.083   8.250
 6616POPC   C3A30185  13.603  43.109   7.950
 6616POPC   C4A30186  13.672  43.135   7.650
 6616POPC   C1B30187  13.536  42.926   8.550
 6616POPC   C2B30188  13.496  42.862   8.250
 6616POPC   C3B30189  13.465  42.892   7.950
 6616POPC   C4B30190  13.509  42.881   7.650
 6617POPC   NC330191  29.936   4.351   9.450
 6617POPC   PO430192  29.943   4.318   9.150
 6617POPC   GL130193  29.944   4.300   8.850
 6617POPC   GL230194  29.973   4.415   8.850
 6617POPC   C1A30195  29.893   4.276   8.550
 6617POPC   D2A30196  29.948   4.346   8.250
 6617POPC   C3A30197  29.946   4.275   7.950
 6617POPC   C4A30198  29.880   4.317   7.650
 6617POPC   C1B30199  30.033   4.607   8.550
 6617POPC   C2B30200  29.994   4.605   8.250
 6617POPC   C3B30201  29.956   4.588   7.950
 6617POPC   C4B30202  30.019   4.529   7.650
 6618POPC   NC330203  42.286   6.687   9.450
 6618POPC   PO430204  42.334   6.682   9.150
 6618POPC   GL130205  42.342   6.631   8.850
 6618POPC   GL230206  42.273   6.522   8.850
 6618POPC   C1A30207  42.322   6.688   8.550
 6618POPC   D2A30208  42.341   6.612   8.250
 6618POPC   C3A30209  42.371   6.681   7.950
 6618POPC   C4A30210  42.300   6.630   7.650
 6618POPC   C1B30211  42.309   6.416   8.550
 6618POPC   C2B30212  42.306   6.370   8.250
 6618POPC   C3B30213  42.296   6.389   7.950
 6618POPC   C4B30214  42.248   6.372   7.650
 6619POPC   NC330215  27.588  25.261   9.450
 6619POPC   PO430216  27.642  25.232   9.150
 6619POPC   GL130217  27.596  25.299   8.850
 6619POPC   GL230218  27.556  25.121   8.850
 6619POPC   C1A30219  27.556  25.223   8.550
 6619POPC   D2A30220  27.617  25.307   8.250
 6619POPC   C3A30221  27.608  25.272   7.950
 6619POPC   C4A30222  27.577  25.309   7.650
 6619POPC   C1B30223  27.487  25.067   8.550
 6619POPC   C2B30224  27.569  25.048   8.250
 6619POPC   C3B30225  27.496  25.007   7.950
 6619POPC   C4B30226  27.512  24.995   7.650
 6620POPC   NC330227  41.586  13.663   9.450
 6620POPC   PO430228  41.551  13.675   9.150
 6620POPC   GL130229  41.602  13.596   8.850
 6620POPC   GL230230  41.532  13.757   8.850
 6620POPC   C1A30231  41.513  13.628   8.550
 6620POPC   D2A30232  41.594  13.676   8.250
 6620POPC   C3A30233  41.540  13.606   7.950
 6620POPC   C4A30234  41.512  13.647   7.650
 6620POPC   C1B30235  41.493  13.915   8.550
 6620POPC   C2B30236  41.494  13.842   8.250
 6620POPC   C3B30237  41.558  13.833   7.950
 6620POPC   C4B30238  41.538  13.832   7.650
 6621POPC   NC330239  19.018  19.816   9.450
 6621POPC   PO430240  19.101  19.811   9.150
 6621POPC   GL130241  19.091  19.876   8.850
 6621POPC   GL230242  19.060  19.982   8.850
 6621POPC   C1A30243  19.016  19.873   8.550
 6621POPC   D2A30244  19.057  19.819   8.250
 6621POPC   C3A30245  19.042  19.884   7.950
 6621POPC   C4A30246  19.058  19.835   7.650
 6621POPC   C1B30247  19.089  20.064   8.550
 6621POPC   C2B30248  19.067  20.093   8.250
 6621POPC   C3B30249  19.079  20.037   7.950
 6621POPC   C4B30250  19.047  20.123   7.650
 6622POPC   NC330251  27.643  26.053   9.450
 6622POPC   PO430252  27.582  26.016   9.150
 6622POPC   GL130253  27.591  26.069   8.850
 6622POPC   GL230254  27.677  25.962   8.850
 6622POPC   C1A30255  27.551  26.059   8.550
 6622POPC   D2A30256  27.631  26.044   8.250
 6622POPC   C3A30257  27.606  26.059   7.950
 6622POPC   C4A30258  27.630  26.061   7.650
 6622POPC   C1B30259  27.732  25.856   8.550
 6622POPC   C2B30260  27.702  25.832   8.250
 6622POPC   C3B30261  27.696  25.861   7.950
 6622POPC   C4B30262  27.736  25.859   7.650
 6623POPC   NC330263   3.583   6.614   9.450
 6623POPC   PO430264   3.525   6.623   9.150
 6623POPC   GL130265   3.536   6.666   8.850
 6623POPC   GL230266   3.545   6.503   8.850
 6623POPC   C1A30267   3.551   6.625   8.550
 6623POPC   D2A30268   3.573   6.618   8.250
 6623POPC   C3A30269   3.522   6.668   7.950
 6623POPC   C4A30270   3.513   6.692   7.650
 6623POPC   C1B30271   3.544   6.374   8.550
 6623POPC   C2B30272   3.608   6.360   8.250
 6623POPC   C3B30273   3.584   6.375   7.950
 6623POPC   C4B30274   3.617   6.365   7.650
 6624POPC   NC330275  39.979   9.721   9.450
 6624POPC   PO430276  40.021   9.703   9.150
 6624POPC   GL130277  39.999   9.749   8.850
 6624POPC   GL230278  39.989   9.894   8.850
 6624POPC   C1A30279  39.991   9.785   8.550
 6624POPC   D2A30280  39.967   9.790   8.250
 6624POPC   C3A30281  40.011   9.782   7.950
 6624POPC   C4A30282  40.016   9.796   7.650
 6624POPC   C1B30283  40.071  10.007   8.550
 6624POPC   C2B30284  40.033   9.970   8.250
 6624POPC   C3B30285  40.093  10.030   7.950
 6624POPC   C4B30286  40.096   9.995   7.650
 6625POPC   NC330287  14.411  29.884   9.450
 6625POPC   PO430288  14.398  29.946   9.150
 6625POPC   GL130289  14.396  29.953   8.850
 6625POPC   GL230290  14.230  29.952   8.850
 6625POPC   C1A30291  14.363  29.923   8.550
 6625POPC   D2A30292  14.410  29.908   8.250
 6625POPC   C3A30293  14.369  29.915   7.950
 6625POPC   C4A30294  14.386  29.970   7.650
 6625POPC   C1B30295  14.121  29.903   8.550
 6625POPC   C2B30296  14.126  29.943   8.250
 6625POPC   C3B30297  14.177  29.964   7.950
 6625POPC   C4B30298  14.199  29.878   7.650
 6626POPC   NC330299  44.664   5.109   9.450
 6626POPC   PO430300  44.661   5.058   9.150
 6626POPC   GL130301  44.674   5.143   8.850
 6626POPC   GL230302  44.512   5.018   8.850
 6626POPC   C1A30303  44.698   5.070   8.550
 6626POPC   D2A30304  44.630   5.093   8.250
 6626POPC   C3A30305  44.711   5.101   7.950
 6626POPC   C4A30306  44.686   5.093   7.650
 6626POPC   C1B30307  44.446   5.054   8.550
 6626POPC   C2B30308  44.417   4.991   8.250
 6626POPC   C3B30309  44.411   5.056   7.950
 6626POPC   C4B30310  44.411   5.020   7.650
 6627POPC   NC330311  20.610   3.515   9.450
 6627POPC   PO430312  20.611   3.555   9.150
 6627POPC   GL130313  20.649   3.498   8.850
 6627POPC   GL230314  20.668   3.664   8.850
 6627POPC   C1A30315  20.572   3.513   8.550
 6627POPC   D2A30316  20.576   3.571   8.250
 6627POPC   C3A30317  20.643   3.561   7.950
 6627POPC   C4A30318  20.578   3.516   7.650
 6627POPC   C1B30319  20.792   3.720   8.550
 6627POPC   C2B30320  20.756   3.726   8.250
 6627POPC   C3B30321  20.840   3.731   7.950
 6627POPC   C4B30322  20.786   3.707   7.650
 6628POPC   NC330323  26.077  38.489   9.450
 6628POPC   PO430324  26.048  38.407   9.150
 6628POPC   GL130325  26.041  38.482   8.850
 6628POPC   GL230326  25.908  38.416   8.850
 6628POPC   C1A30327  26.059  38.494   8.550
 6628POPC   D2A30328  25.992  38.423   8.250
 6628POPC   C3A30329  26.074  38.445   7.950
 6628POPC   C4A30330  26.065  38.452   7.650
 6628POPC   C1B30331  25.800  38.333   8.550
 6628POPC   C2B30332  25.840  38.343   8.250
 6628POPC   C3B30333  25.877  38.265   7.950
 6628POPC   C4B30334  25.879  38.342   7.650
 6629POPC   NC330335  32.233   4.353   9.450
 6629POPC   PO430336  32.246   4.291   9.150
 6629POPC   GL130337  32.291   4.340   8.850
 6629POPC   GL230338  32.171   4.324   8.850
 6629POPC   C1A30339  32.270   4.357   8.550
 6629POPC   D2A30340  32.226   4.337   8.250
 6629POPC   C3A30341  32.272   4.338   7.950
 6629POPC   C4A30342  32.272   4.360   7.650
 6629POPC   C1B30343  32.000   4.388   8.550
 6629POPC   C2B30344  32.018   4.330   8.250
 6629POPC   C3B30345  32.053   4.328   7.950
 6629POPC   C4B30346  32.000   4.404   7.650
 6630POPC   NC330347  29.143   5.094   9.450
 6630POPC   PO430348  29.136   5.069   9.150
 6630POPC   GL130349  29.133   5.058   8.850
 6630POPC   GL230350  29.226   4.970   8.850
 6630POPC   C1A30351  29.127   5.092   8.550
 6630POPC   D2A30352  29.186   5.117   8.250
 6630POPC   C3A30353  29.115   5.078   7.950
 6630POPC   C4A30354  29.105   5.130   7.650
 6630POPC   C1B30355  29.282   4.863   8.550
 6630POPC   C2B30356  29.284   4.930   8.250
 6630POPC   C3B30357  29.252   4.850   7.950
 6630POPC   C4B30358  29.338   4.929   7.650
 6631POPC   NC330359  19.087   5.915   9.450
 6631POPC   PO430360  19.022   5.879   9.150
 6631POPC   GL130361  19.067   5.837   8.850
 6631POPC   GL230362  19.076   5.936   8.850
 6631POPC   C1A30363  19.038   5.838   8.550
 6631POPC   D2A30364  19.044   5.852   8.250
 6631POPC   C3A30365  19.047   5.893   7.950
 6631POPC   C4A30366  19.011   5.893   7.650
 6631POPC   C1B30367  19.112   6.073   8.550
 6631POPC   C2B30368  19.133   6.106   8.250
 6631POPC   C3B30369  19.117   6.127   7.950
 6631POPC   C4B30370  19.113   6.133   7.650
 6632POPC   NC330371   3.504  12.061   9.450
 6632POPC   PO430372   3.590  12.044   9.150
 6632POPC   GL130373   3.557  12.054   8.850
 6632POPC   GL230374   3.651  12.156   8.850
 6632POPC   C1A30375   3.545  12.058   8.550
 6632POPC   D2A30376   3.576  12.102   8.250
 6632POPC   C3A30377   3.526  12.048   7.950
 6632POPC   C4A30378   3.575  12.083   7.650
 6632POPC   C1B30379   3.736  12.188   8.550
 6632POPC   C2B30380   3.798  12.158   8.250
 6632POPC   C3B30381   3.739  12.190   7.950
 6632POPC   C4B30382   3.731  12.152   7.650
 6633POPC   NC330383  40.812  37.644   9.450
 6633POPC   PO430384  40.824  37.677   9.150
 6633POPC   GL130385  40.817  37.664   8.850
 6633POPC   GL230386  40.860  37.808   8.850
 6633POPC   C1A30387  40.736  37.663   8.550
 6633POPC   D2A30388  40.747  37.633   8.250
 6633POPC   C3A30389  40.805  37.647   7.950
 6633POPC   C4A30390  40.769  37.636   7.650
 6633POPC   C1B30391  40.942  37.849   8.550
 6633POPC   C2B30392  40.894  37.932   8.250
 6633POPC   C3B30393  40.910  37.854   7.950
 6633POPC   C4B30394  40.929  37.929   7.650
 6634POPC   NC330395  26.074   5.101   9.450
 6634POPC   PO430396  26.009   5.095   9.150
 6634POPC   GL130397  26.038   5.045   8.850
 6634POPC   GL230398  25.914   5.074   8.850
 6634POPC   C1A30399  26.067   5.134   8.550
 6634POPC   D2A30400  26.034   5.128   8.250
 6634POPC   C3A30401  26.073   5.117   7.950
 6634POPC   C4A30402  26.044   5.044   7.650
 6634POPC   C1B30403  25.834   5.032   8.550
 6634POPC   C2B30404  25.754   5.004   8.250
 6634POPC   C3B30405  25.826   5.057   7.950
 6634POPC   C4B30406  25.809   5.068   7.650
 6635POPC   NC330407   0.434  41.528   9.450
 6635POPC   PO430408   0.419  41.576   9.150
 6635POPC   GL130409   0.431  41.520   8.850
 6635POPC   GL230410   0.536  41.489   8.850
 6635POPC   C1A30411   0.428  41.546   8.550
 6635POPC   D2A30412   0.478  41.580   8.250
 6635POPC   C3A30413   0.488  41.604   7.950
 6635POPC   C4A30414   0.401  41.607   7.650
 6635POPC   C1B30415   0.682  41.448   8.550
 6635POPC   C2B30416   0.614  41.459   8.250
 6635POPC   C3B30417   0.660  41.429   7.950
 6635POPC   C4B30418   0.610  41.454   7.650
 6636POPC   NC330419  37.712  17.457   9.450
 6636POPC   PO430420  37.657  17.520   9.150
 6636POPC   GL130421  37.686  17.527   8.850
 6636POPC   GL230422  37.815  17.580   8.850
 6636POPC   C1A30423  37.630  17.504   8.550
 6636POPC   D2A30424  37.725  17.521   8.250
 6636POPC   C3A30425  37.658  17.475   7.950
 6636POPC   C4A30426  37.721  17.476   7.650
 6636POPC   C1B30427  37.925  17.577   8.550
 6636POPC   C2B30428  37.923  17.576   8.250
 6636POPC   C3B30429  37.939  17.580   7.950
 6636POPC   C4B30430  37.870  17.584   7.650
 6637POPC   NC330431   5.120   5.116   9.450
 6637POPC   PO430432   5.091   5.089   9.150
 6637POPC   GL130433   5.093   5.137   8.850
 6637POPC   GL230434   5.019   5.174   8.850
 6637POPC   C1A30435   5.087   5.099   8.550
 6637POPC   D2A30436   5.112   5.091   8.250
 6637POPC   C3A30437   5.126   5.057   7.950
 6637POPC   C4A30438   5.069   5.133   7.650
 6637POPC   C1B30439   4.960   5.334   8.550
 6637POPC   C2B30440   4.959   5.280   8.250
 6637POPC   C3B30441   4.954   5.344   7.950
 6637POPC   C4B30442   4.974   5.322   7.650
 6638POPC   NC330443  15.994  43.157   9.450
 6638POPC   PO430444  15.909  43.074   9.150
 6638POPC   GL130445  16.005  43.139   8.850
 6638POPC   GL230446  15.925  42.953   8.850
 6638POPC   C1A30447  15.916  43.151   8.550
 6638POPC   D2A30448  15.923  43.088   8.250
 6638POPC   C3A30449  15.982  43.070   7.950
 6638POPC   C4A30450  15.958  43.066   7.650
 6638POPC   C1B30451  15.974  42.841   8.550
 6638POPC   C2B30452  15.955  42.862   8.250
 6638POPC   C3B30453  15.970  42.882   7.950
 6638POPC   C4B30454  16.018  42.872   7.650
 6639POPC   NC330455  19.041  21.431   9.450
 6639POPC   PO430456  19.093  21.407   9.150
 6639POPC   GL130457  19.033  21.340   8.850
 6639POPC   GL230458  18.931  21.311   8.850
 6639POPC   C1A30459  19.101  21.410   8.550
 6639POPC   D2A30460  19.049  21.358   8.250
 6639POPC   C3A30461  19.018  21.365   7.950
 6639POPC   C4A30462  19.104  21.410   7.650
 6639POPC   C1B30463  18.802  21.341   8.550
 6639POPC   C2B30464  18.808  21.369   8.250
 6639POPC   C3B30465  18.808  21.322   7.950
 6639POPC   C4B30466  18.795  21.345   7.650
 6640POPC   NC330467  10.525  39.188   9.450
 6640POPC   PO430468  10.539  39.205   9.150
 6640POPC   GL130469  10.493  39.280   8.850
 6640POPC   GL230470  10.598  39.326   8.850
 6640POPC   C1A30471  10.537  39.186   8.550
 6640POPC   D2A30472  10.509  39.229   8.250
 6640POPC   C3A30473  10.560  39.186   7.950
 6640POPC   C4A30474  10.502  39.215   7.650
 6640POPC   C1B30475  10.725  39.372   8.550
 6640POPC   C2B30476  10.650  39.413   8.250
 6640POPC   C3B30477  10.746  39.456   7.950
 6640POPC   C4B30478  10.705  39.434   7.650
 6641POPC   NC330479  36.095  41.517   9.450
 6641POPC   PO430480  36.094  41.602   9.150
 6641POPC   GL130481  36.117  41.580   8.850
 6641POPC   GL230482  36.118  41.659   8.850
 6641POPC   C1A30483  36.117  41.548   8.550
 6641POPC   D2A30484  36.162  41.558   8.250
 6641POPC   C3A30485  36.098  41.529   7.950
 6641POPC   C4A30486  36.141  41.544   7.650
 6641POPC   C1B30487  36.115  41.818   8.550
 6641POPC   C2B30488  36.092  41.802   8.250
 6641POPC   C3B30489  36.132  41.808   7.950
 6641POPC   C4B30490  36.156  41.795   7.650
 6642POPC   NC330491  36.868  26.009   9.450
 6642POPC   PO430492  36.893  26.042   9.150
 6642POPC   GL130493  36.903  26.057   8.850
 6642POPC   GL230494  36.923  26.151   8.850
 6642POPC   C1A30495  36.902  26.041   8.550
 6642POPC   D2A30496  36.944  26.053   8.250
 6642POPC   C3A30497  36.859  26.065   7.950
 6642POPC   C4A30498  36.882  26.019   7.650
 6642POPC   C1B30499  36.983  26.274   8.550
 6642POPC   C2B30500  36.970  26.321   8.250
 6642POPC   C3B30501  37.013  26.307   7.950
 6642POPC   C4B30502  36.983  26.323   7.650
 6643POPC   NC330503  20.617  13.651   9.450
 6643POPC   PO430504  20.606  13.641   9.150
 6643POPC   GL130505  20.608  13.605   8.850
 6643POPC   GL230506  20.514  13.687   8.850
 6643POPC   C1A30507  20.571  13.616   8.550
 6643POPC   D2A30508  20.602  13.609   8.250
 6643POPC   C3A30509  20.575  13.644   7.950
 6643POPC   C4A30510  20.568  13.595   7.650
 6643POPC   C1B30511  20.447  13.803   8.550
 6643POPC   C2B30512  20.414  13.788   8.250
 6643POPC   C3B30513  20.426  13.768   7.950
 6643POPC   C4B30514  20.449  13.818   7.650
 6644POPC   NC330515  38.494  20.648   9.450
 6644POPC   PO430516  38.478  20.625   9.150
 6644POPC   GL130517  38.461  20.631   8.850
 6644POPC   GL230518  38.475  20.710   8.850
 6644POPC   C1A30519  38.413  20.601   8.550
 6644POPC   D2A30520  38.466  20.635   8.250
 6644POPC   C3A30521  38.475  20.588   7.950
 6644POPC   C4A30522  38.468  20.618   7.650
 6644POPC   C1B30523  38.603  20.837   8.550
 6644POPC   C2B30524  38.575  20.858   8.250
 6644POPC   C3B30525  38.508  20.801   7.950
 6644POPC   C4B30526  38.542  20.814   7.650
 6645POPC   NC330527  33.806   3.545   9.450
 6645POPC   PO430528  33.760   3.591   9.150
 6645POPC   GL130529  33.762   3.559   8.850
 6645POPC   GL230530  33.685   3.517   8.850
 6645POPC   C1A30531  33.814   3.547   8.550
 6645POPC   D2A30532  33.849   3.523   8.250
 6645POPC   C3A30533  33.815   3.526   7.950
 6645POPC   C4A30534  33.850   3.515   7.650
 6645POPC   C1B30535  33.540   3.584   8.550
 6645POPC   C2B30536  33.571   3.532   8.250
 6645POPC   C3B30537  33.549   3.592   7.950
 6645POPC   C4B30538  33.590   3.570   7.650
 6646POPC   NC330539  40.831   9.758   9.450
 6646POPC   PO430540  40.782   9.742   9.150
 6646POPC   GL130541  40.784   9.756   8.850
 6646POPC   GL230542  40.689   9.771   8.850
 6646POPC   C1A30543  40.776   9.709   8.550
 6646POPC   D2A30544  40.755   9.749   8.250
 6646POPC   C3A30545  40.799   9.772   7.950
 6646POPC   C4A30546  40.740   9.726   7.650
 6646POPC   C1B30547  40.578   9.849   8.550
 6646POPC   C2B30548  40.560   9.822   8.250
 6646POPC   C3B30549  40.539   9.810   7.950
 6646POPC   C4B30550  40.506   9.841   7.650
 6647POPC   NC330551  41.595  18.286   9.450
 6647POPC   PO430552  41.601  18.261   9.150
 6647POPC   GL130553  41.596  18.275   8.850
 6647POPC   GL230554  41.451  18.173   8.850
 6647POPC   C1A30555  41.580  18.240   8.550
 6647POPC   D2A30556  41.578  18.309   8.250
 6647POPC   C3A30557  41.537  18.270   7.950
 6647POPC   C4A30558  41.581  18.324   7.650
 6647POPC   C1B30559  41.405  18.108   8.550
 6647POPC   C2B30560  41.424  18.106   8.250
 6647POPC   C3B30561  41.421  18.091   7.950
 6647POPC   C4B30562  41.431  18.116   7.650
 6648POPC   NC330563  43.904  14.368   9.450
 6648POPC   PO430564  43.919  14.379   9.150
 6648POPC   GL130565  43.854  14.385   8.850
 6648POPC   GL230566  43.813  14.494   8.850
 6648POPC   C1A30567  43.871  14.388   8.550
 6648POPC   D2A30568  43.863  14.399   8.250
 6648POPC   C3A30569  43.861  14.414   7.950
 6648POPC   C4A30570  43.904  14.417   7.650
 6648POPC   C1B30571  43.683  14.542   8.550
 6648POPC   C2B30572  43.694  14.547   8.250
 6648POPC   C3B30573  43.699  14.540   7.950
 6648POPC   C4B30574  43.663  14.526   7.650
 6649POPC   NC330575   5.846  19.863   9.450
 6649POPC   PO430576   5.860  19.861   9.150
 6649POPC   GL130577   5.873  19.864   8.850
 6649POPC   GL230578   5.996  19.911   8.850
 6649POPC   C1A30579   5.839  19.806   8.550
 6649POPC   D2A30580   5.918  19.843   8.250
 6649POPC   C3A30581   5.890  19.788   7.950
 6649POPC   C4A30582   5.843  19.787   7.650
 6649POPC   C1B30583   6.071  19.894   8.550
 6649POPC   C2B30584   6.097  19.943   8.250
 6649POPC   C3B30585   6.133  19.899   7.950
 6649POPC   C4B30586   6.109  19.899   7.650
 6650POPC   NC330587   1.170  25.299   9.450
 6650POPC   PO430588   1.177  25.225   9.150
 6650POPC   GL130589   1.170  25.294   8.850
 6650POPC   GL230590   1.121  25.215   8.850
 6650POPC   C1A30591   1.224  25.265   8.550
 6650POPC   D2A30592   1.261  25.228   8.250
 6650POPC   C3A30593   1.194  25.307   7.950
 6650POPC   C4A30594   1.226  25.231   7.650
 6650POPC   C1B30595   1.011  25.262   8.550
 6650POPC   C2B30596   0.965  25.197   8.250
 6650POPC   C3B30597   0.967  25.247   7.950
 6650POPC   C4B30598   0.928  25.239   7.650
 6651POPC   NC330599  28.360  22.126   9.450
 6651POPC   PO430600  28.326  22.200   9.150
 6651POPC   GL130601  28.374  22.201   8.850
 6651POPC   GL230602  28.437  22.212   8.850
 6651POPC   C1A30603  28.412  22.171   8.550
 6651POPC   D2A30604  28.330  22.154   8.250
 6651POPC   C3A30605  28.357  22.128   7.950
 6651POPC   C4A30606  28.405  22.149   7.650
 6651POPC   C1B30607  28.559  22.335   8.550
 6651POPC   C2B30608  28.524  22.309   8.250
 6651POPC   C3B30609  28.557  22.346   7.950
 6651POPC   C4B30610  28.535  22.326   7.650
 6652POPC   NC330611  39.220  21.354   9.450
 6652POPC   PO430612  39.227  21.379   9.150
 6652POPC   GL130613  39.256  21.342   8.850
 6652POPC   GL230614  39.168  21.302   8.850
 6652POPC   C1A30615  39.188  21.421   8.550
 6652POPC   D2A30616  39.248  21.398   8.250
 6652POPC   C3A30617  39.217  21.374   7.950
 6652POPC   C4A30618  39.235  21.421   7.650
 6652POPC   C1B30619  38.991  21.210   8.550
 6652POPC   C2B30620  38.987  21.277   8.250
 6652POPC   C3B30621  38.972  21.283   7.950
 6652POPC   C4B30622  39.058  21.300   7.650
 6653POPC   NC330623  40.790  40.786   9.450
 6653POPC   PO430624  40.821  40.817   9.150
 6653POPC   GL130625  40.770  40.810   8.850
 6653POPC   GL230626  40.695  40.774   8.850
 6653POPC   C1A30627  40.774  40.803   8.550
 6653POPC   D2A30628  40.761  40.777   8.250
 6653POPC   C3A30629  40.766  40.772   7.950
 6653POPC   C4A30630  40.792  40.829   7.650
 6653POPC   C1B30631  40.523  40.720   8.550
 6653POPC   C2B30632  40.572  40.667   8.250
 6653POPC   C3B30633  40.543  40.750   7.950
 6653POPC   C4B30634  40.541  40.678   7.650
 6654POPC   NC330635  35.392  43.147   9.450
 6654POPC   PO430636  35.333  43.097   9.150
 6654POPC   GL130637  35.398  43.119   8.850
 6654POPC   GL230638  35.263  43.117   8.850
 6654POPC   C1A30639  35.378  43.100   8.550
 6654POPC   D2A30640  35.357  43.082   8.250
 6654POPC   C3A30641  35.315  43.122   7.950
 6654POPC   C4A30642  35.321  43.119   7.650
 6654POPC   C1B30643  35.157  43.267   8.550
 6654POPC   C2B30644  35.169  43.243   8.250
 6654POPC   C3B30645  35.177  43.182   7.950
 6654POPC   C4B30646  35.103  43.268   7.650
 6655POPC   NC330647  33.034   6.683   9.450
 6655POPC   PO430648  33.007   6.655   9.150
 6655POPC   GL130649  33.008   6.694   8.850
 6655POPC   GL230650  32.921   6.586   8.850
 6655POPC   C1A30651  32.989   6.624   8.550
 6655POPC   D2A30652  33.071   6.666   8.250
 6655POPC   C3A30653  33.008   6.649   7.950
 6655POPC   C4A30654  33.060   6.665   7.650
 6655POPC   C1B30655  32.780   6.592   8.550
 6655POPC   C2B30656  32.750   6.564   8.250
 6655POPC   C3B30657  32.779   6.581   7.950
 6655POPC   C4B30658  32.807   6.581   7.650
 6656POPC   NC330659  34.557  38.469   9.450
 6656POPC   PO430660  34.625  38.416   9.150
 6656POPC   GL130661  34.622  38.464   8.850
 6656POPC   GL230662  34.493  38.399   8.850
 6656POPC   C1A30663  34.588  38.466   8.550
 6656POPC   D2A30664  34.619  38.408   8.250
 6656POPC   C3A30665  34.565  38.424   7.950
 6656POPC   C4A30666  34.529  38.481   7.650
 6656POPC   C1B30667  34.404  38.314   8.550
 6656POPC   C2B30668  34.397  38.269   8.250
 6656POPC   C3B30669  34.393  38.235   7.950
 6656POPC   C4B30670  34.426  38.298   7.650
 6657POPC   NC330671  23.748  17.523   9.450
 6657POPC   PO430672  23.739  17.465   9.150
 6657POPC   GL130673  23.750  17.547   8.850
 6657POPC   GL230674  23.694  17.624   8.850
 6657POPC   C1A30675  23.680  17.527   8.550
 6657POPC   D2A30676  23.759  17.509   8.250
 6657POPC   C3A30677  23.728  17.461   7.950
 6657POPC   C4A30678  23.723  17.465   7.650
 6657POPC   C1B30679  23.718  17.749   8.550
 6657POPC   C2B30680  23.714  17.763   8.250
 6657POPC   C3B30681  23.737  17.802   7.950
 6657POPC   C4B30682  23.727  17.737   7.650
 6658POPC   NC330683  29.168   6.610   9.450
 6658POPC   PO430684  29.130   6.619   9.150
 6658POPC   GL130685  29.131   6.647   8.850
 6658POPC   GL230686  29.099   6.740   8.850
 6658POPC   C1A30687  29.107   6.687   8.550
 6658POPC   D2A30688  29.193   6.652   8.250
 6658POPC   C3A30689  29.178   6.683   7.950
 6658POPC   C4A30690  29.154   6.684   7.650
 6658POPC   C1B30691  29.161   6.903   8.550
 6658POPC   C2B30692  29.134   6.866   8.250
 6658POPC   C3B30693  29.161   6.923   7.950
 6658POPC   C4B30694  29.149   6.856   7.650
 6659POPC   NC330695  11.266  23.666   9.450
 6659POPC   PO430696  11.264  23.688   9.150
 6659POPC   GL130697  11.301  23.711   8.850
 6659POPC   GL230698  11.342  23.843   8.850
 6659POPC   C1A30699  11.269  23.675   8.550
 6659POPC   D2A30700  11.339  23.761   8.250
 6659POPC   C3A30701  11.330  23.746   7.950
 6659POPC   C4A30702  11.345  23.694   7.650
 6659POPC   C1B30703  11.350  23.919   8.550
 6659POPC   C2B30704  11.339  23.932   8.250
 6659POPC   C3B30705  11.320  23.996   7.950
 6659POPC   C4B30706  11.292  23.955   7.650
 6660POPC   NC330707   7.396  35.330   9.450
 6660POPC   PO430708   7.432  35.307   9.150
 6660POPC   GL130709   7.403  35.402   8.850
 6660POPC   GL230710   7.474  35.486   8.850
 6660POPC   C1A30711   7.437  35.336   8.550
 6660POPC   D2A30712   7.412  35.390   8.250
 6660POPC   C3A30713   7.430  35.329   7.950
 6660POPC   C4A30714   7.422  35.353   7.650
 6660POPC   C1B30715   7.482  35.615   8.550
 6660POPC   C2B30716   7.467  35.564   8.250
 6660POPC   C3B30717   7.521  35.610   7.950
 6660POPC   C4B30718   7.489  35.555   7.650
 6661POPC   NC330719   8.994  30.686   9.450
 6661POPC   PO430720   9.007  30.664   9.150
 6661POPC   GL130721   8.985  30.715   8.850
 6661POPC   GL230722   9.038  30.775   8.850
 6661POPC   C1A30723   8.996  30.705   8.550
 6661POPC   D2A30724   9.021  30.659   8.250
 6661POPC   C3A30725   8.976  30.665   7.950
 6661POPC   C4A30726   8.931  30.727   7.650
 6661POPC   C1B30727   9.152  30.894   8.550
 6661POPC   C2B30728   9.124  30.849   8.250
 6661POPC   C3B30729   9.111  30.915   7.950
 6661POPC   C4B30730   9.163  30.850   7.650
 6662POPC   NC330731  14.382  40.756   9.450
 6662POPC   PO430732  14.419  40.772   9.150
 6662POPC   GL130733  14.366  40.782   8.850
 6662POPC   GL230734  14.442  40.686   8.850
 6662POPC   C1A30735  14.358  40.829   8.550
 6662POPC   D2A30736  14.398  40.736   8.250
 6662POPC   C3A30737  14.415  40.819   7.950
 6662POPC   C4A30738  14.449  40.807   7.650
 6662POPC   C1B30739  14.519  40.570   8.550
 6662POPC   C2B30740  14.501  40.580   8.250
 6662POPC   C3B30741  14.495  40.589   7.950
 6662POPC   C4B30742  14.441  40.586   7.650
 6663POPC   NC330743  34.618  11.346   9.450
 6663POPC   PO430744  34.547  11.301   9.150
 6663POPC   GL130745  34.560  11.350   8.850
 6663POPC   GL230746  34.680  11.276   8.850
 6663POPC   C1A30747  34.561  11.272   8.550
 6663POPC   D2A30748  34.619  11.259   8.250
 6663POPC   C3A30749  34.583  11.290   7.950
 6663POPC   C4A30750  34.549  11.280   7.650
 6663POPC   C1B30751  34.868  11.288   8.550
 6663POPC   C2B30752  34.839  11.304   8.250
 6663POPC   C3B30753  34.837  11.267   7.950
 6663POPC   C4B30754  34.777  11.271   7.650
 6664POPC   NC330755  27.624   2.799   9.450
 6664POPC   PO430756  27.623   2.766   9.150
 6664POPC   GL130757  27.555   2.752   8.850
 6664POPC   GL230758  27.500   2.843   8.850
 6664POPC   C1A30759  27.576   2.795   8.550
 6664POPC   D2A30760  27.583   2.795   8.250
 6664POPC   C3A30761  27.569   2.728   7.950
 6664POPC   C4A30762  27.596   2.757   7.650
 6664POPC   C1B30763  27.450   2.958   8.550
 6664POPC   C2B30764  27.434   3.001   8.250
 6664POPC   C3B30765  27.454   2.994   7.950
 6664POPC   C4B30766  27.474   2.993   7.650
 6665POPC   NC330767   8.952  40.769   9.450
 6665POPC   PO430768   8.931  40.810   9.150
 6665POPC   GL130769   8.931  40.754   8.850
 6665POPC   GL230770   8.963  40.933   8.850
 6665POPC   C1A30771   8.997  40.821   8.550
 6665POPC   D2A30772   8.926  40.774   8.250
 6665POPC   C3A30773   8.989  40.816   7.950
 6665POPC   C4A30774   9.009  40.827   7.650
 6665POPC   C1B30775   8.906  41.048   8.550
 6665POPC   C2B30776   8.934  40.982   8.250
 6665POPC   C3B30777   8.890  41.012   7.950
 6665POPC   C4B30778   8.867  41.059   7.650
 6666POPC   NC330779  15.981   8.976   9.450
 6666POPC   PO430780  15.972   9.016   9.150
 6666POPC   GL130781  15.916   8.949   8.850
 6666POPC   GL230782  16.033   9.036   8.850
 6666POPC   C1A30783  15.991   8.929   8.550
 6666POPC   D2A30784  15.911   8.939   8.250
 6666POPC   C3A30785  15.923   8.990   7.950
 6666POPC   C4A30786  15.999   8.936   7.650
 6666POPC   C1B30787  16.191   9.033   8.550
 6666POPC   C2B30788  16.159   9.070   8.250
 6666POPC   C3B30789  16.210   8.996   7.950
 6666POPC   C4B30790  16.159   9.052   7.650
 6667POPC   NC330791  43.894  44.673   9.450
 6667POPC   PO430792  43.933  44.708   9.150
 6667POPC   GL130793  43.914  44.629   8.850
 6667POPC   GL230794  43.857  44.575   8.850
 6667POPC   C1A30795  43.850  44.697   8.550
 6667POPC   D2A30796  43.853  44.631   8.250
 6667POPC   C3A30797  43.909  44.703   7.950
 6667POPC   C4A30798  43.895  44.634   7.650
 6667POPC   C1B30799  43.753  44.468   8.550
 6667POPC   C2B30800  43.842  44.433   8.250
 6667POPC   C3B30801  43.834  44.425   7.950
 6667POPC   C4B30802  43.771  44.473   7.650
 6668POPC   NC330803  44.703  20.569   9.450
 6668POPC   PO430804  44.664  20.603   9.150
 6668POPC   GL130805  44.629  20.591   8.850
 6668POPC   GL230806  44.741  20.734   8.850
 6668POPC   C1A30807  44.702  20.573   8.550
 6668POPC   D2A30808  44.684  20.615   8.250
 6668POPC   C3A30809  44.687  20.600   7.950
 6668POPC   C4A30810  44.667  20.629   7.650
 6668POPC   C1B30811  44.844  20.805   8.550
 6668POPC   C2B30812  44.834  20.847   8.250
 6668POPC   C3B30813  44.834  20.756   7.950
 6668POPC   C4B30814  44.786  20.814   7.650
 6669POPC   NC330815  11.293   0.391   9.450
 6669POPC   PO430816  11.269   0.428   9.150
 6669POPC   GL130817  11.325   0.488   8.850
 6669POPC   GL230818  11.146   0.426   8.850
 6669POPC   C1A30819  11.319   0.469   8.550
 6669POPC   D2A30820  11.269   0.429   8.250
 6669POPC   C3A30821  11.265   0.408   7.950
 6669POPC   C4A30822  11.298   0.461   7.650
 6669POPC   C1B30823  11.091   0.341   8.550
 6669POPC   C2B30824  11.095   0.305   8.250
 6669POPC   C3B30825  11.047   0.381   7.950
 6669POPC   C4B30826  11.041   0.367   7.650
 6670POPC   NC330827   2.768  29.114   9.450
 6670POPC   PO430828   2.727  29.134   9.150
 6670POPC   GL130829   2.758  29.159   8.850
 6670POPC   GL230830   2.748  29.292   8.850
 6670POPC   C1A30831   2.785  29.145   8.550
 6670POPC   D2A30832   2.722  29.131   8.250
 6670POPC   C3A30833   2.799  29.160   7.950
 6670POPC   C4A30834   2.734  29.132   7.650
 6670POPC   C1B30835   2.772  29.350   8.550
 6670POPC   C2B30836   2.767  29.360   8.250
 6670POPC   C3B30837   2.812  29.423   7.950
 6670POPC   C4B30838   2.800  29.373   7.650
 6671POPC   NC330839  33.008  23.714   9.450
 6671POPC   PO430840  33.045  23.728   9.150
 6671POPC   GL130841  33.019  23.732   8.850
 6671POPC   GL230842  32.958  23.805   8.850
 6671POPC   C1A30843  33.008  23.670   8.550
 6671POPC   D2A30844  33.050  23.719   8.250
 6671POPC   C3A30845  33.029  23.751   7.950
 6671POPC   C4A30846  33.066  23.708   7.650
 6671POPC   C1B30847  32.795  23.912   8.550
 6671POPC   C2B30848  32.863  23.892   8.250
 6671POPC   C3B30849  32.843  23.864   7.950
 6671POPC   C4B30850  32.840  23.868   7.650
 6672POPC   NC330851   7.431  21.369   9.450
 6672POPC   PO430852   7.387  21.351   9.150
 6672POPC   GL130853   7.400  21.390   8.850
 6672POPC   GL230854   7.460  21.538   8.850
 6672POPC   C1A30855   7.416  21.354   8.550
 6672POPC   D2A30856   7.460  21.410   8.250
 6672POPC   C3A30857   7.371  21.366   7.950
 6672POPC   C4A30858   7.396  21.404   7.650
 6672POPC   C1B30859   7.508  21.627   8.550
 6672POPC   C2B30860   7.504  21.585   8.250
 6672POPC   C3B30861   7.577  21.567   7.950
 6672POPC   C4B30862   7.564  21.601   7.650
 6673POPC   NC330863  31.516   5.886   9.450
 6673POPC   PO430864  31.512   5.867   9.150
 6673POPC   GL130865  31.506   5.849   8.850
 6673POPC   GL230866  31.528   5.736   8.850
 6673POPC   C1A30867  31.470   5.858   8.550
 6673POPC   D2A30868  31.500   5.886   8.250
 6673POPC   C3A30869  31.479   5.821   7.950
 6673POPC   C4A30870  31.506   5.859   7.650
 6673POPC   C1B30871  31.639   5.714   8.550
 6673POPC   C2B30872  31.679   5.708   8.250
 6673POPC   C3B30873  31.603   5.663   7.950
 6673POPC   C4B30874  31.672   5.636   7.650
 6674POPC   NC330875  44.679  29.167   9.450
 6674POPC   PO430876  44.641  29.123   9.150
 6674POPC   GL130877  44.658  29.152   8.850
 6674POPC   GL230878  44.705  29.068   8.850
 6674POPC   C1A30879  44.656  29.108   8.550
 6674POPC   D2A30880  44.655  29.150   8.250
 6674POPC   C3A30881  44.697  29.120   7.950
 6674POPC   C4A30882  44.706  29.110   7.650
 6674POPC   C1B30883  44.799  28.985   8.550
 6674POPC   C2B30884  44.799  28.971   8.250
 6674POPC   C3B30885  44.837  28.920   7.950
 6674POPC   C4B30886  44.832  28.988   7.650
 6675POPC   NC330887  12.804  27.575   9.450
 6675POPC   PO430888  12.899  27.607   9.150
 6675POPC   GL130889  12.850  27.579   8.850
 6675POPC   GL230890  12.791  27.732   8.850
 6675POPC   C1A30891  12.885  27.611   8.550
 6675POPC   D2A30892  12.877  27.615   8.250
 6675POPC   C3A30893  12.884  27.579   7.950
 6675POPC   C4A30894  12.848  27.618   7.650
 6675POPC   C1B30895  12.810  27.852   8.550
 6675POPC   C2B30896  12.788  27.875   8.250
 6675POPC   C3B30897  12.810  27.883   7.950
 6675POPC   C4B30898  12.749  27.869   7.650
 6676POPC   NC330899  13.603   3.522   9.450
 6676POPC   PO430900  13.578   3.544   9.150
 6676POPC   GL130901  13.656   3.549   8.850
 6676POPC   GL230902  13.587   3.625   8.850
 6676POPC   C1A30903  13.672   3.524   8.550
 6676POPC   D2A30904  13.635   3.569   8.250
 6676POPC   C3A30905  13.627   3.541   7.950
 6676POPC   C4A30906  13.612   3.570   7.650
 6676POPC   C1B30907  13.597   3.754   8.550
 6676POPC   C2B30908  13.642   3.763   8.250
 6676POPC   C3B30909  13.634   3.832   7.950
 6676POPC   C4B30910  13.589   3.827   7.650
 6677POPC   NC330911  22.190  15.911   9.450
 6677POPC   PO430912  22.153  15.947   9.150
 6677POPC   GL130913  22.196  15.992   8.850
 6677POPC   GL230914  22.278  16.098   8.850
 6677POPC   C1A30915  22.132  15.953   8.550
 6677POPC   D2A30916  22.129  15.953   8.250
 6677POPC   C3A30917  22.163  15.962   7.950
 6677POPC   C4A30918  22.153  15.931   7.650
 6677POPC   C1B30919  22.327  16.150   8.550
 6677POPC   C2B30920  22.341  16.154   8.250
 6677POPC   C3B30921  22.309  16.108   7.950
 6677POPC   C4B30922  22.346  16.107   7.650
 6678POPC   NC330923   1.176   9.792   9.450
 6678POPC   PO430924   1.255   9.754   9.150
 6678POPC   GL130925   1.264   9.785   8.850
 6678POPC   GL230926   1.296   9.715   8.850
 6678POPC   C1A30927   1.171   9.770   8.550
 6678POPC   D2A30928   1.199   9.788   8.250
 6678POPC   C3A30929   1.224   9.737   7.950
 6678POPC   C4A30930   1.214   9.744   7.650
 6678POPC   C1B30931   1.505   9.717   8.550
 6678POPC   C2B30932   1.411   9.658   8.250
 6678POPC   C3B30933   1.453   9.695   7.950
 6678POPC   C4B30934   1.445   9.746   7.650
 6679POPC   NC330935  42.364  39.244   9.450
 6679POPC   PO430936  42.310  39.220   9.150
 6679POPC   GL130937  42.376  39.209   8.850
 6679POPC   GL230938  42.271  39.313   8.850
 6679POPC   C1A30939  42.294  39.200   8.550
 6679POPC   D2A30940  42.301  39.217   8.250
 6679POPC   C3A30941  42.311  39.233   7.950
 6679POPC   C4A30942  42.343  39.183   7.650
 6679POPC   C1B30943  42.175  39.466   8.550
 6679POPC   C2B30944  42.154  39.388   8.250
 6679POPC   C3B30945  42.226  39.388   7.950
 6679POPC   C4B30946  42.133  39.461   7.650
 6680POPC   NC330947  22.122  11.327   9.450
 6680POPC   PO430948  22.200  11.301   9.150
 6680POPC   GL130949  22.144  11.342   8.850
 6680POPC   GL230950  22.098  11.385   8.850
 6680POPC   C1A30951  22.169  11.342   8.550
 6680POPC   D2A30952  22.124  11.269   8.250
 6680POPC   C3A30953  22.154  11.324   7.950
 6680POPC   C4A30954  22.200  11.279   7.650
 6680POPC   C1B30955  21.932  11.443   8.550
 6680POPC   C2B30956  22.013  11.505   8.250
 6680POPC   C3B30957  21.964  11.492   7.950
 6680POPC   C4B30958  21.949  11.451   7.650
 6681POPC   NC330959  29.879  15.222   9.450
 6681POPC   PO430960  29.927  15.189   9.150
 6681POPC   GL130961  29.938  15.204   8.850
 6681POPC   GL230962  29.943  15.097   8.850
 6681POPC   C1A30963  29.912  15.199   8.550
 6681POPC   D2A30964  29.909  15.156   8.250
 6681POPC   C3A30965  29.872  15.167   7.950
 6681POPC   C4A30966  29.970  15.145   7.650
 6681POPC   C1B30967  30.019  14.911   8.550
 6681POPC   C2B30968  30.024  14.935   8.250
 6681POPC   C3B30969  29.955  14.950   7.950
 6681POPC   C4B30970  29.995  14.961   7.650
 6682POPC   NC330971  19.823  12.042   9.450
 6682POPC   PO430972  19.802  12.044   9.150
 6682POPC   GL130973  19.809  12.053   8.850
 6682POPC   GL230974  19.744  12.147   8.850
 6682POPC   C1A30975  19.830  12.040   8.550
 6682POPC   D2A30976  19.789  12.057   8.250
 6682POPC   C3A30977  19.816  12.123   7.950
 6682POPC   C4A30978  19.874  12.078   7.650
 6682POPC   C1B30979  19.576  12.181   8.550
 6682POPC   C2B30980  19.628  12.152   8.250
 6682POPC   C3B30981  19.559  12.131   7.950
 6682POPC   C4B30982  19.619  12.151   7.650
 6683POPC   NC330983  12.061  42.355   9.450
 6683POPC   PO430984  12.093  42.340   9.150
 6683POPC   GL130985  12.065  42.349   8.850
 6683POPC   GL230986  12.242  42.359   8.850
 6683POPC   C1A30987  12.048  42.331   8.550
 6683POPC   D2A30988  12.053  42.327   8.250
 6683POPC   C3A30989  12.110  42.340   7.950
 6683POPC   C4A30990  12.122  42.380   7.650
 6683POPC   C1B30991  12.313  42.332   8.550
 6683POPC   C2B30992  12.272  42.270   8.250
 6683POPC   C3B30993  12.307  42.290   7.950
 6683POPC   C4B30994  12.354  42.280   7.650
 6684POPC   NC330995  38.501  37.634   9.450
 6684POPC   PO430996  38.492  37.675   9.150
 6684POPC   GL130997  38.475  37.686   8.850
 6684POPC   GL230998  38.572  37.652   8.850
 6684POPC   C1A30999  38.408  37.687   8.550
 6684POPC   D2A31000  38.465  37.727   8.250
 6684POPC   C3A31001  38.448  37.656   7.950
 6684POPC   C4A31002  38.494  37.695   7.650
 6684POPC   C1B31003  38.699  37.735   8.550
 6684POPC   C2B31004  38.688  37.672   8.250
 6684POPC   C3B31005  38.694  37.655   7.950
 6684POPC   C4B31006  38.699  37.651   7.650
 6685POPC   NC331007  19.032  38.444   9.450
 6685POPC   PO431008  19.098  38.447   9.150
 6685POPC   GL131009  19.089  38.420   8.850
 6685POPC   GL231010  18.945  38.510   8.850
 6685POPC   C1A31011  19.099  38.432   8.550
 6685POPC   D2A31012  19.031  38.455   8.250
 6685POPC   C3A31013  19.097  38.439   7.950
 6685POPC   C4A31014  19.091  38.490   7.650
 6685POPC   C1B31015  18.846  38.589   8.550
 6685POPC   C2B31016  18.838  38.562   8.250
 6685POPC   C3B31017  18.872  38.563   7.950
 6685POPC   C4B31018  18.867  38.600   7.650
 6686POPC   NC331019  31.494  29.109   9.450
 6686POPC   PO431020  31.482  29.110   9.150
 6686POPC   GL131021  31.471  29.133   8.850
 6686POPC   GL231022  31.382  29.274   8.850
 6686POPC   C1A31023  31.461  29.163   8.550
 6686POPC   D2A31024  31.425  29.165   8.250
 6686POPC   C3A31025  31.502  29.114   7.950
 6686POPC   C4A31026  31.427  29.162   7.650
 6686POPC   C1B31027  31.366  29.328   8.550
 6686POPC   C2B31028  31.398  29.334   8.250
 6686POPC   C3B31029  31.330  29.390   7.950
 6686POPC   C4B31030  31.419  29.401   7.650
 6687POPC   NC331031  36.113   1.198   9.450
 6687POPC   PO431032  36.130   1.237   9.150
 6687POPC   GL131033  36.079   1.189   8.850
 6687POPC   GL231034  36.127   1.061   8.850
 6687POPC   C1A31035  36.110   1.204   8.550
 6687POPC   D2A31036  36.118   1.173   8.250
 6687POPC   C3A31037  36.093   1.166   7.950
 6687POPC   C4A31038  36.175   1.212   7.650
 6687POPC   C1B31039  36.069   0.988   8.550
 6687POPC   C2B31040  36.075   1.000   8.250
 6687POPC   C3B31041  36.068   0.995   7.950
 6687POPC   C4B31042  36.102   0.952   7.650
 6688POPC   NC331043  33.021  35.302   9.450
 6688POPC   PO431044  33.015  35.345   9.150
 6688POPC   GL131045  33.063  35.389   8.850
 6688POPC   GL231046  32.952  35.262   8.850
 6688POPC   C1A31047  33.035  35.355   8.550
 6688POPC   D2A31048  33.049  35.340   8.250
 6688POPC   C3A31049  33.016  35.384   7.950
 6688POPC   C4A31050  33.034  35.372   7.650
 6688POPC   C1B31051  32.959  35.098   8.550
 6688POPC   C2B31052  32.926  35.099   8.250
 6688POPC   C3B31053  32.980  35.134   7.950
 6688POPC   C4B31054  32.973  35.077   7.650
 6689POPC   NC331055  28.341  22.948   9.450
 6689POPC   PO431056  28.343  22.919   9.150
 6689POPC   GL131057  28.381  22.941   8.850
 6689POPC   GL231058  28.451  23.049   8.850
 6689POPC   C1A31059  28.384  22.915   8.550
 6689POPC   D2A31060  28.411  22.986   8.250
 6689POPC   C3A31061  28.380  22.949   7.950
 6689POPC   C4A31062  28.385  22.984   7.650
 6689POPC   C1B31063  28.595  23.088   8.550
 6689POPC   C2B31064  28.521  23.108   8.250
 6689POPC   C3B31065  28.547  23.066   7.950
 6689POPC   C4B31066  28.534  23.059   7.650
 6690POPC   NC331067  37.656  28.337   9.450
 6690POPC   PO431068  37.690  28.341   9.150
 6690POPC   GL131069  37.682  28.416   8.850
 6690POPC   GL231070  37.785  28.434   8.850
 6690POPC   C1A31071  37.636  28.345   8.550
 6690POPC   D2A31072  37.713  28.327   8.250
 6690POPC   C3A31073  37.661  28.343   7.950
 6690POPC   C4A31074  37.636  28.349   7.650
 6690POPC   C1B31075  37.857  28.510   8.550
 6690POPC   C2B31076  37.886  28.461   8.250
 6690POPC   C3B31077  37.903  28.489   7.950
 6690POPC   C4B31078  37.927  28.456   7.650
 6691POPC   NC331079  22.936  31.499   9.450
 6691POPC   PO431080  22.909  31.485   9.150
 6691POPC   GL131081  22.899  31.443   8.850
 6691POPC   GL231082  22.804  31.440   8.850
 6691POPC   C1A31083  22.890  31.471   8.550
 6691POPC   D2A31084  22.899  31.425   8.250
 6691POPC   C3A31085  22.954  31.489   7.950
 6691POPC   C4A31086  22.918  31.509   7.650
 6691POPC   C1B31087  22.681  31.444   8.550
 6691POPC   C2B31088  22.722  31.463   8.250
 6691POPC   C3B31089  22.699  31.478   7.950
 6691POPC   C4B31090  22.671  31.450   7.650
 6692POPC   NC331091  41.586  10.497   9.450
 6692POPC   PO431092  41.599  10.544   9.150
 6692POPC   GL131093  41.599  10.560   8.850
 6692POPC   GL231094  41.635  10.517   8.850
 6692POPC   C1A31095  41.562  10.526   8.550
 6692POPC   D2A31096  41.563  10.538   8.250
 6692POPC   C3A31097  41.565  10.559   7.950
 6692POPC   C4A31098  41.605  10.574   7.650
 6692POPC   C1B31099  41.761  10.514   8.550
 6692POPC   C2B31100  41.765  10.504   8.250
 6692POPC   C3B31101  41.759  10.460   7.950
 6692POPC   C4B31102  41.833  10.497   7.650
 6693POPC   NC331103  26.029   9.748   9.450
 6693POPC   PO431104  26.024   9.709   9.150
 6693POPC   GL131105  26.007   9.739   8.850
 6693POPC   GL231106  25.896   9.676   8.850
 6693POPC   C1A31107  26.000   9.704   8.550
 6693POPC   D2A31108  26.053   9.764   8.250
 6693POPC   C3A31109  26.048   9.720   7.950
 6693POPC   C4A31110  26.028   9.730   7.650
 6693POPC   C1B31111  25.874   9.604   8.550
 6693POPC   C2B31112  25.858   9.600   8.250
 6693POPC   C3B31113  25.872   9.620   7.950
 6693POPC   C4B31114  25.810   9.635   7.650
 6694POPC   NC331115  26.842  23.697   9.450
 6694POPC   PO431116  26.815  23.705   9.150
 6694POPC   GL131117  26.828  23.750   8.850
 6694POPC   GL231118  26.737  23.614   8.850
 6694POPC   C1A31119  26.770  23.692   8.550
 6694POPC   D2A31120  26.815  23.684   8.250
 6694POPC   C3A31121  26.778  23.665   7.950
 6694POPC   C4A31122  26.784  23.709   7.650
 6694POPC   C1B31123  26.743  23.494   8.550
 6694POPC   C2B31124  26.658  23.445   8.250
 6694POPC   C3B31125  26.686  23.451   7.950
 6694POPC   C4B31126  26.713  23.468   7.650
 6695POPC   NC331127  33.826  19.854   9.450
 6695POPC   PO431128  33.759  19.870   9.150
 6695POPC   GL131129  33.801  19.884   8.850
 6695POPC   GL231130  33.667  19.922   8.850
 6695POPC   C1A31131  33.830  19.840   8.550
 6695POPC   D2A31132  33.778  19.804   8.250
 6695POPC   C3A31133  33.785  19.867   7.950
 6695POPC   C4A31134  33.810  19.840   7.650
 6695POPC   C1B31135  33.639  20.016   8.550
 6695POPC   C2B31136  33.563  20.005   8.250
 6695POPC   C3B31137  33.631  19.940   7.950
 6695POPC   C4B31138  33.555  20.008   7.650
 6696POPC   NC331139  25.276  41.545   9.450
 6696POPC   PO431140  25.252  41.559   9.150
 6696POPC   GL131141  25.276  41.542   8.850
 6696POPC   GL231142  25.335  41.500   8.850
 6696POPC   C1A31143  25.292  41.531   8.550
 6696POPC   D2A31144  25.298  41.558   8.250
 6696POPC   C3A31145  25.269  41.526   7.950
 6696POPC   C4A31146  25.255  41.592   7.650
 6696POPC   C1B31147  25.523  41.502   8.550
 6696POPC   C2B31148  25.532  41.463   8.250
 6696POPC   C3B31149  25.479  41.517   7.950
 6696POPC   C4B31150  25.492  41.422   7.650
 6697POPC   NC331151  25.308  19.797   9.450
 6697POPC   PO431152  25.243  19.796   9.150
 6697POPC   GL131153  25.281  19.829   8.850
 6697POPC   GL231154  25.108  19.798   8.850
 6697POPC   C1A31155  25.257  19.876   8.550
 6697POPC   D2A31156  25.291  19.813   8.250
 6697POPC   C3A31157  25.230  19.819   7.950
 6697POPC   C4A31158  25.257  19.792   7.650
 6697POPC   C1B31159  24.991  19.775   8.550
 6697POPC   C2B31160  24.994  19.817   8.250
 6697POPC   C3B31161  25.029  19.747   7.950
 6697POPC   C4B31162  25.044  19.805   7.650
 6698POPC   NC331163   9.791   8.242   9.450
 6698POPC   PO431164   9.738   8.149   9.150
 6698POPC   GL131165   9.787   8.198   8.850
 6698POPC   GL231166   9.705   8.275   8.850
 6698POPC   C1A31167   9.791   8.225   8.550
 6698POPC   D2A31168   9.790   8.173   8.250
 6698POPC   C3A31169   9.757   8.214   7.950
 6698POPC   C4A31170   9.768   8.208   7.650
 6698POPC   C1B31171   9.702   8.436   8.550
 6698POPC   C2B31172   9.706   8.421   8.250
 6698POPC   C3B31173   9.722   8.455   7.950
 6698POPC   C4B31174   9.720   8.402   7.650
 6699POPC   NC331175   3.583  42.346   9.450
 6699POPC   PO431176   3.501  42.381   9.150
 6699POPC   GL131177   3.546  42.294   8.850
 6699POPC   GL231178   3.614  42.242   8.850
 6699POPC   C1A31179   3.531  42.315   8.550
 6699POPC   D2A31180   3.555  42.328   8.250
 6699POPC   C3A31181   3.535  42.363   7.950
 6699POPC   C4A31182   3.520  42.303   7.650
 6699POPC   C1B31183   3.626  42.105   8.550
 6699POPC   C2B31184   3.593  42.081   8.250
 6699POPC   C3B31185   3.656  42.146   7.950
 6699POPC   C4B31186   3.636  42.078   7.650
 6700POPC   NC331187  20.638   0.472   9.450
 6700POPC   PO431188  20.618   0.411   9.150
 6700POPC   GL131189  20.615   0.479   8.850
 6700POPC   GL231190  20.691   0.306   8.850
 6700POPC   C1A31191  20.642   0.408   8.550
 6700POPC   D2A31192  20.588   0.449   8.250
 6700POPC   C3A31193  20.583   0.442   7.950
 6700POPC   C4A31194  20.658   0.398   7.650
 6700POPC   C1B31195  20.798   0.233   8.550
 6700POPC   C2B31196  20.750   0.222   8.250
 6700POPC   C3B31197  20.764   0.210   7.950
 6700POPC   C4B31198  20.804   0.227   7.650
 6701POPC   NC331199  31.497  35.390   9.450
 6701POPC   PO431200  31.499  35.304   9.150
 6701POPC   GL131201  31.495  35.314   8.850
 6701POPC   GL231202  31.602  35.379   8.850
 6701POPC   C1A31203  31.518  35.394   8.550
 6701POPC   D2A31204  31.441  35.359   8.250
 6701POPC   C3A31205  31.440  35.319   7.950
 6701POPC   C4A31206  31.479  35.347   7.650
 6701POPC   C1B31207  31.687  35.475   8.550
 6701POPC   C2B31208  31.655  35.471   8.250
 6701POPC   C3B31209  31.716  35.442   7.950
 6701POPC   C4B31210  31.734  35.500   7.650
 6702POPC   NC331211  43.085  18.244   9.450
 6702POPC   PO431212  43.130  18.316   9.150
 6702POPC   GL131213  43.143  18.285   8.850
 6702POPC   GL231214  43.126  18.130   8.850
 6702POPC   C1A31215  43.116  18.278   8.550
 6702POPC   D2A31216  43.083  18.285   8.250
 6702POPC   C3A31217  43.135  18.327   7.950
 6702POPC   C4A31218  43.146  18.314   7.650
 6702POPC   C1B31219  43.265  18.101   8.550
 6702POPC   C2B31220  43.231  18.080   8.250
 6702POPC   C3B31221  43.252  18.109   7.950
 6702POPC   C4B31222  43.266  18.077   7.650
 6703POPC   NC331223  33.044  26.825   9.450
 6703POPC   PO431224  33.029  26.830   9.150
 6703POPC   GL131225  33.010  26.840   8.850
 6703POPC   GL231226  32.992  26.733   8.850
 6703POPC   C1A31227  33.056  26.814   8.550
 6703POPC   D2A31228  32.981  26.840   8.250
 6703POPC   C3A31229  33.033  26.848   7.950
 6703POPC   C4A31230  33.019  26.814   7.650
 6703POPC   C1B31231  32.920  26.555   8.550
 6703POPC   C2B31232  32.963  26.538   8.250
 6703POPC   C3B31233  32.976  26.547   7.950
 6703POPC   C4B31234  32.912  26.622   7.650
 6704POPC   NC331235  29.122  26.812   9.450
 6704POPC   PO431236  29.163  26.809   9.150
 6704POPC   GL131237  29.189  26.843   8.850
 6704POPC   GL231238  29.268  26.876   8.850
 6704POPC   C1A31239  29.191  26.854   8.550
 6704POPC   D2A31240  29.169  26.828   8.250
 6704POPC   C3A31241  29.111  26.828   7.950
 6704POPC   C4A31242  29.102  26.841   7.650
 6704POPC   C1B31243  29.385  27.010   8.550
 6704POPC   C2B31244  29.353  26.970   8.250
 6704POPC   C3B31245  29.354  26.997   7.950
 6704POPC   C4B31246  29.351  27.004   7.650
 6705POPC   NC331247  22.151  32.215   9.450
 6705POPC   PO431248  22.127  32.244   9.150
 6705POPC   GL131249  22.148  32.203   8.850
 6705POPC   GL231250  22.241  32.365   8.850
 6705POPC   C1A31251  22.134  32.293   8.550
 6705POPC   D2A31252  22.142  32.282   8.250
 6705POPC   C3A31253  22.200  32.297   7.950
 6705POPC   C4A31254  22.127  32.263   7.650
 6705POPC   C1B31255  22.334  32.456   8.550
 6705POPC   C2B31256  22.316  32.454   8.250
 6705POPC   C3B31257  22.320  32.473   7.950
 6705POPC   C4B31258  22.365  32.398   7.650
 6706POPC   NC331259  18.299   5.848   9.450
 6706POPC   PO431260  18.267   5.884   9.150
 6706POPC   GL131261  18.297   5.870   8.850
 6706POPC   GL231262  18.362   5.792   8.850
 6706POPC   C1A31263  18.287   5.899   8.550
 6706POPC   D2A31264  18.251   5.871   8.250
 6706POPC   C3A31265  18.251   5.888   7.950
 6706POPC   C4A31266  18.244   5.836   7.650
 6706POPC   C1B31267  18.434   5.662   8.550
 6706POPC   C2B31268  18.403   5.600   8.250
 6706POPC   C3B31269  18.385   5.667   7.950
 6706POPC   C4B31270  18.420   5.615   7.650
 6707POPC   NC331271   2.786  28.415   9.450
 6707POPC   PO431272   2.810  28.418   9.150
 6707POPC   GL131273   2.736  28.324   8.850
 6707POPC   GL231274   2.785  28.217   8.850
 6707POPC   C1A31275   2.774  28.372   8.550
 6707POPC   D2A31276   2.744  28.342   8.250
 6707POPC   C3A31277   2.794  28.418   7.950
 6707POPC   C4A31278   2.809  28.341   7.650
 6707POPC   C1B31279   2.919  28.192   8.550
 6707POPC   C2B31280   2.898  28.110   8.250
 6707POPC   C3B31281   2.841  28.132   7.950
 6707POPC   C4B31282   2.829  28.109   7.650
 6708POPC   NC331283  26.856  22.199   9.450
 6708POPC   PO431284  26.773  22.212   9.150
 6708POPC   GL131285  26.814  22.130   8.850
 6708POPC   GL231286  26.767  22.099   8.850
 6708POPC   C1A31287  26.843  22.164   8.550
 6708POPC   D2A31288  26.768  22.197   8.250
 6708POPC   C3A31289  26.780  22.208   7.950
 6708POPC   C4A31290  26.819  22.194   7.650
 6708POPC   C1B31291  26.639  21.997   8.550
 6708POPC   C2B31292  26.667  21.973   8.250
 6708POPC   C3B31293  26.650  21.950   7.950
 6708POPC   C4B31294  26.644  21.999   7.650
 6709POPC   NC331295   6.660  19.051   9.450
 6709POPC   PO431296   6.683  19.083   9.150
 6709POPC   GL131297   6.688  19.056   8.850
 6709POPC   GL231298   6.746  19.112   8.850
 6709POPC   C1A31299   6.613  19.094   8.550
 6709POPC   D2A31300   6.675  19.080   8.250
 6709POPC   C3A31301   6.653  19.031   7.950
 6709POPC   C4A31302   6.646  19.041   7.650
 6709POPC   C1B31303   6.883  19.203   8.550
 6709POPC   C2B31304   6.832  19.178   8.250
 6709POPC   C3B31305   6.871  19.155   7.950
 6709POPC   C4B31306   6.826  19.175   7.650
 6710POPC   NC331307  43.924  34.548   9.450
 6710POPC   PO431308  43.897  34.531   9.150
 6710POPC   GL131309  43.856  34.576   8.850
 6710POPC   GL231310  43.994  34.575   8.850
 6710POPC   C1A31311  43.894  34.572   8.550
 6710POPC   D2A31312  43.917  34.578   8.250
 6710POPC   C3A31313  43.870  34.592   7.950
 6710POPC   C4A31314  43.935  34.625   7.650
 6710POPC   C1B31315  44.105  34.569   8.550
 6710POPC   C2B31316  44.106  34.526   8.250
 6710POPC   C3B31317  44.127  34.535   7.950
 6710POPC   C4B31318  44.158  34.513   7.650
 6711POPC   NC331319  12.114  37.723   9.450
 6711POPC   PO431320  12.064  37.701   9.150
 6711POPC   GL131321  12.113  37.637   8.850
 6711POPC   GL231322  11.980  37.706   8.850
 6711POPC   C1A31323  12.081  37.671   8.550
 6711POPC   D2A31324  12.062  37.644   8.250
 6711POPC   C3A31325  12.045  37.635   7.950
 6711POPC   C4A31326  12.080  37.658   7.650
 6711POPC   C1B31327  11.891  37.840   8.550
 6711POPC   C2B31328  11.910  37.838   8.250
 6711POPC   C3B31329  11.911  37.858   7.950
 6711POPC   C4B31330  11.877  37.774   7.650
 6712POPC   NC331331  31.449  12.824   9.450
 6712POPC   PO431332  31.493  12.885   9.150
 6712POPC   GL131333  31.508  12.876   8.850
 6712POPC   GL231334  31.577  12.920   8.850
 6712POPC   C1A31335  31.446  12.886   8.550
 6712POPC   D2A31336  31.492  12.901   8.250
 6712POPC   C3A31337  31.484  12.855   7.950
 6712POPC   C4A31338  31.441  12.839   7.650
 6712POPC   C1B31339  31.737  12.970   8.550
 6712POPC   C2B31340  31.654  12.913   8.250
 6712POPC   C3B31341  31.723  12.985   7.950
 6712POPC   C4B31342  31.729  12.933   7.650
 6713POPC   NC331343  27.587  38.458   9.450
 6713POPC   PO431344  27.642  38.461   9.150
 6713POPC   GL131345  27.618  38.469   8.850
 6713POPC   GL231346  27.582  38.570   8.850
 6713POPC   C1A31347  27.574  38.442   8.550
 6713POPC   D2A31348  27.548  38.486   8.250
 6713POPC   C3A31349  27.588  38.434   7.950
 6713POPC   C4A31350  27.586  38.477   7.650
 6713POPC   C1B31351  27.486  38.663   8.550
 6713POPC   C2B31352  27.539  38.709   8.250
 6713POPC   C3B31353  27.518  38.718   7.950
 6713POPC   C4B31354  27.545  38.727   7.650
 6714POPC   NC331355  23.669  18.268   9.450
 6714POPC   PO431356  23.762  18.250   9.150
 6714POPC   GL131357  23.680  18.291   8.850
 6714POPC   GL231358  23.618  18.261   8.850
 6714POPC   C1A31359  23.665  18.280   8.550
 6714POPC   D2A31360  23.758  18.295   8.250
 6714POPC   C3A31361  23.715  18.246   7.950
 6714POPC   C4A31362  23.687  18.266   7.650
 6714POPC   C1B31363  23.428  18.231   8.550
 6714POPC   C2B31364  23.524  18.156   8.250
 6714POPC   C3B31365  23.485  18.182   7.950
 6714POPC   C4B31366  23.495  18.186   7.650
 6715POPC   NC331367  12.054   9.021   9.450
 6715POPC   PO431368  12.098   9.021   9.150
 6715POPC   GL131369  12.038   8.978   8.850
 6715POPC   GL231370  12.168   8.902   8.850
 6715POPC   C1A31371  12.067   9.015   8.550
 6715POPC   D2A31372  12.074   8.965   8.250
 6715POPC   C3A31373  12.064   8.937   7.950
 6715POPC   C4A31374  12.118   9.016   7.650
 6715POPC   C1B31375  12.329   8.810   8.550
 6715POPC   C2B31376  12.323   8.817   8.250
 6715POPC   C3B31377  12.293   8.814   7.950
 6715POPC   C4B31378  12.328   8.830   7.650
 6716POPC   NC331379  28.357  19.048   9.450
 6716POPC   PO431380  28.375  19.074   9.150
 6716POPC   GL131381  28.337  19.014   8.850
 6716POPC   GL231382  28.460  19.160   8.850
 6716POPC   C1A31383  28.322  19.044   8.550
 6716POPC   D2A31384  28.354  19.030   8.250
 6716POPC   C3A31385  28.344  19.092   7.950
 6716POPC   C4A31386  28.374  19.015   7.650
 6716POPC   C1B31387  28.475  19.269   8.550
 6716POPC   C2B31388  28.465  19.292   8.250
 6716POPC   C3B31389  28.499  19.238   7.950
 6716POPC   C4B31390  28.525  19.313   7.650
 6717POPC   NC331391  12.047  19.030   9.450
 6717POPC   PO431392  12.044  19.084   9.150
 6717POPC   GL131393  12.104  19.079   8.850
 6717POPC   GL231394  11.968  18.983   8.850
 6717POPC   C1A31395  12.096  19.108   8.550
 6717POPC   D2A31396  12.092  19.052   8.250
 6717POPC   C3A31397  12.085  19.053   7.950
 6717POPC   C4A31398  12.049  19.051   7.650
 6717POPC   C1B31399  11.934  18.892   8.550
 6717POPC   C2B31400  11.883  18.923   8.250
 6717POPC   C3B31401  11.870  18.905   7.950
 6717POPC   C4B31402  11.948  18.905   7.650
 6718POPC   NC331403  28.388  17.555   9.450
 6718POPC   PO431404  28.418  17.542   9.150
 6718POPC   GL131405  28.344  17.525   8.850
 6718POPC   GL231406  28.341  17.610   8.850
 6718POPC   C1A31407  28.409  17.490   8.550
 6718POPC   D2A31408  28.403  17.540   8.250
 6718POPC   C3A31409  28.376  17.537   7.950
 6718POPC   C4A31410  28.351  17.479   7.650
 6718POPC   C1B31411  28.272  17.711   8.550
 6718POPC   C2B31412  28.353  17.785   8.250
 6718POPC   C3B31413  28.275  17.767   7.950
 6718POPC   C4B31414  28.265  17.701   7.650
 6719POPC   NC331415  11.285  20.606   9.450
 6719POPC   PO431416  11.321  20.653   9.150
 6719POPC   GL131417  11.277  20.585   8.850
 6719POPC   GL231418  11.408  20.551   8.850
 6719POPC   C1A31419  11.347  20.564   8.550
 6719POPC   D2A31420  11.344  20.598   8.250
 6719POPC   C3A31421  11.258  20.564   7.950
 6719POPC   C4A31422  11.292  20.604   7.650
 6719POPC   C1B31423  11.504  20.513   8.550
 6719POPC   C2B31424  11.516  20.545   8.250
 6719POPC   C3B31425  11.585  20.546   7.950
 6719POPC   C4B31426  11.582  20.572   7.650
 6720POPC   NC331427  27.560  23.743   9.450
 6720POPC   PO431428  27.640  23.750   9.150
 6720POPC   GL131429  27.547  23.705   8.850
 6720POPC   GL231430  27.506  23.791   8.850
 6720POPC   C1A31431  27.585  23.739   8.550
 6720POPC   D2A31432  27.547  23.755   8.250
 6720POPC   C3A31433  27.579  23.719   7.950
 6720POPC   C4A31434  27.604  23.737   7.650
 6720POPC   C1B31435  27.335  23.812   8.550
 6720POPC   C2B31436  27.384  23.772   8.250
 6720POPC   C3B31437  27.389  23.811   7.950
 6720POPC   C4B31438  27.402  23.859   7.650
 6721POPC   NC331439  12.855  40.786   9.450
 6721POPC   PO431440  12.843  40.811   9.150
 6721POPC   GL131441  12.823  40.799   8.850
 6721POPC   GL231442  12.823  40.693   8.850
 6721POPC   C1A31443  12.813  40.812   8.550
 6721POPC   D2A31444  12.876  40.811   8.250
 6721POPC   C3A31445  12.841  40.737   7.950
 6721POPC   C4A31446  12.890  40.768   7.650
 6721POPC   C1B31447  12.674  40.575   8.550
 6721POPC   C2B31448  12.692  40.554   8.250
 6721POPC   C3B31449  12.726  40.565   7.950
 6721POPC   C4B31450  12.703  40.619   7.650
 6722POPC   NC331451   6.675  41.549   9.450
 6722POPC   PO431452   6.671  41.551   9.150
 6722POPC   GL131453   6.676  41.548   8.850
 6722POPC   GL231454   6.744  41.603   8.850
 6722POPC   C1A31455   6.660  41.518   8.550
 6722POPC   D2A31456   6.636  41.533   8.250
 6722POPC   C3A31457   6.631  41.582   7.950
 6722POPC   C4A31458   6.660  41.542   7.650
 6722POPC   C1B31459   6.892  41.524   8.550
 6722POPC   C2B31460   6.930  41.600   8.250
 6722POPC   C3B31461   6.927  41.573   7.950
 6722POPC   C4B31462   6.894  41.548   7.650
 6723POPC   NC331463  10.491   5.829   9.450
 6723POPC   PO431464  10.491   5.844   9.150
 6723POPC   GL131465  10.518   5.917   8.850
 6723POPC   GL231466  10.512   5.968   8.850
 6723POPC   C1A31467  10.536   5.888   8.550
 6723POPC   D2A31468  10.528   5.903   8.250
 6723POPC   C3A31469  10.507   5.865   7.950
 6723POPC   C4A31470  10.542   5.834   7.650
 6723POPC   C1B31471  10.519   6.112   8.550
 6723POPC   C2B31472  10.534   6.115   8.250
 6723POPC   C3B31473  10.528   6.109   7.950
 6723POPC   C4B31474  10.528   6.162   7.650
 6724POPC   NC331475  22.961   4.365   9.450
 6724POPC   PO431476  22.891   4.305   9.150
 6724POPC   GL131477  22.936   4.295   8.850
 6724POPC   GL231478  23.021   4.265   8.850
 6724POPC   C1A31479  22.967   4.312   8.550
 6724POPC   D2A31480  22.905   4.323   8.250
 6724POPC   C3A31481  22.958   4.322   7.950
 6724POPC   C4A31482  22.930   4.328   7.650
 6724POPC   C1B31483  23.145   4.184   8.550
 6724POPC   C2B31484  23.154   4.196   8.250
 6724POPC   C3B31485  23.081   4.182   7.950
 6724POPC   C4B31486  23.097   4.165   7.650
 6725POPC   NC331487  37.722  22.973   9.450
 6725POPC   PO431488  37.686  22.906   9.150
 6725POPC   GL131489  37.657  22.964   8.850
 6725POPC   GL231490  37.620  23.026   8.850
 6725POPC   C1A31491  37.662  22.923   8.550
 6725POPC   D2A31492  37.646  22.925   8.250
 6725POPC   C3A31493  37.724  22.914   7.950
 6725POPC   C4A31494  37.638  22.890   7.650
 6725POPC   C1B31495  37.654  23.137   8.550
 6725POPC   C2B31496  37.640  23.204   8.250
 6725POPC   C3B31497  37.632  23.227   7.950
 6725POPC   C4B31498  37.666  23.201   7.650
 6726POPC   NC331499  39.990   1.241   9.450
 6726POPC   PO431500  40.039   1.246   9.150
 6726POPC   GL131501  39.980   1.253   8.850
 6726POPC   GL231502  39.972   1.084   8.850
 6726POPC   C1A31503  40.042   1.251   8.550
 6726POPC   D2A31504  39.963   1.172   8.250
 6726POPC   C3A31505  40.028   1.172   7.950
 6726POPC   C4A31506  40.030   1.203   7.650
 6726POPC   C1B31507  39.895   1.029   8.550
 6726POPC   C2B31508  39.833   1.032   8.250
 6726POPC   C3B31509  39.814   1.030   7.950
 6726POPC   C4B31510  39.898   0.984   7.650
 6727POPC   NC331511  26.831  16.708   9.450
 6727POPC   PO431512  26.816  16.720   9.150
 6727POPC   GL131513  26.850  16.772   8.850
 6727POPC   GL231514  26.874  16.573   8.850
 6727POPC   C1A31515  26.780  16.756   8.550
 6727POPC   D2A31516  26.822  16.737   8.250
 6727POPC   C3A31517  26.840  16.722   7.950
 6727POPC   C4A31518  26.860  16.708   7.650
 6727POPC   C1B31519  26.868  16.517   8.550
 6727POPC   C2B31520  26.890  16.468   8.250
 6727POPC   C3B31521  26.889  16.517   7.950
 6727POPC   C4B31522  26.858  16.462   7.650
 6728POPC   NC331523  20.608  44.674   9.450
 6728POPC   PO431524  20.573  44.667   9.150
 6728POPC   GL131525  20.631  44.646   8.850
 6728POPC   GL231526  20.676  44.787   8.850
 6728POPC   C1A31527  20.629  44.692   8.550
 6728POPC   D2A31528  20.620  44.657   8.250
 6728POPC   C3A31529  20.599  44.630   7.950
 6728POPC   C4A31530  20.650  44.649   7.650
 6728POPC   C1B31531  20.684  44.886   8.550
 6728POPC   C2B31532  20.668  44.879   8.250
 6728POPC   C3B31533  20.655  44.946   7.950
 6728POPC   C4B31534  20.692  44.890   7.650
 6729POPC   NC331535  22.192  24.504   9.450
 6729POPC   PO431536  22.164  24.523   9.150
 6729POPC   GL131537  22.202  24.453   8.850
 6729POPC   GL231538  22.008  24.485   8.850
 6729POPC   C1A31539  22.137  24.520   8.550
 6729POPC   D2A31540  22.117  24.458   8.250
 6729POPC   C3A31541  22.136  24.530   7.950
 6729POPC   C4A31542  22.197  24.520   7.650
 6729POPC   C1B31543  21.939  24.532   8.550
 6729POPC   C2B31544  21.953  24.468   8.250
 6729POPC   C3B31545  21.903  24.509   7.950
 6729POPC   C4B31546  21.948  24.495   7.650
 6730POPC   NC331547  40.050  22.890   9.450
 6730POPC   PO431548  39.965  22.894   9.150
 6730POPC   GL131549  39.962  22.922   8.850
 6730POPC   GL231550  40.080  22.909   8.850
 6730POPC   C1A31551  39.983  22.969   8.550
 6730POPC   D2A31552  39.961  22.891   8.250
 6730POPC   C3A31553  40.032  22.941   7.950
 6730POPC   C4A31554  39.960  22.933   7.650
 6730POPC   C1B31555  40.252  22.828   8.550
 6730POPC   C2B31556  40.203  22.814   8.250
 6730POPC   C3B31557  40.218  22.866   7.950
 6730POPC   C4B31558  40.188  22.789   7.650
 6731POPC   NC331559  24.528  29.169   9.450
 6731POPC   PO431560  24.466  29.130   9.150
 6731POPC   GL131561  24.459  29.141   8.850
 6731POPC   GL231562  24.360  29.122   8.850
 6731POPC   C1A31563  24.503  29.174   8.550
 6731POPC   D2A31564  24.460  29.171   8.250
 6731POPC   C3A31565  24.460  29.114   7.950
 6731POPC   C4A31566  24.530  29.160   7.650
 6731POPC   C1B31567  24.250  29.192   8.550
 6731POPC   C2B31568  24.257  29.176   8.250
 6731POPC   C3B31569  24.205  29.154   7.950
 6731POPC   C4B31570  24.242  29.196   7.650
 6732POPC   NC331571  18.325  15.212   9.450
 6732POPC   PO431572  18.286  15.221   9.150
 6732POPC   GL131573  18.287  15.206   8.850
 6732POPC   GL231574  18.365  15.136   8.850
 6732POPC   C1A31575  18.302  15.156   8.550
 6732POPC   D2A31576  18.240  15.206   8.250
 6732POPC   C3A31577  18.251  15.167   7.950
 6732POPC   C4A31578  18.273  15.194   7.650
 6732POPC   C1B31579  18.498  15.168   8.550
 6732POPC   C2B31580  18.481  15.146   8.250
 6732POPC   C3B31581  18.517  15.135   7.950
 6732POPC   C4B31582  18.492  15.147   7.650
 6733POPC   NC331583  42.349  19.030   9.450
 6733POPC   PO431584  42.316  19.095   9.150
 6733POPC   GL131585  42.322  19.065   8.850
 6733POPC   GL231586  42.446  19.041   8.850
 6733POPC   C1A31587  42.323  19.019   8.550
 6733POPC   D2A31588  42.360  19.072   8.250
 6733POPC   C3A31589  42.343  19.041   7.950
 6733POPC   C4A31590  42.329  19.094   7.650
 6733POPC   C1B31591  42.593  18.930   8.550
 6733POPC   C2B31592  42.520  18.951   8.250
 6733POPC   C3B31593  42.524  18.909   7.950
 6733POPC   C4B31594  42.589  18.956   7.650
 6734POPC   NC331595  29.179  33.834   9.450
 6734POPC   PO431596  29.121  33.817   9.150
 6734POPC   GL131597  29.108  33.774   8.850
 6734POPC   GL231598  29.050  33.820   8.850
 6734POPC   C1A31599  29.178  33.792   8.550
 6734POPC   D2A31600  29.107  33.834   8.250
 6734POPC   C3A31601  29.186  33.755   7.950
 6734POPC   C4A31602  29.146  33.831   7.650
 6734POPC   C1B31603  28.912  33.937   8.550
 6734POPC   C2B31604  28.894  33.927   8.250
 6734POPC   C3B31605  28.932  33.958   7.950
 6734POPC   C4B31606  28.925  33.915   7.650
 6735POPC   NC331607  15.991  26.829   9.450
 6735POPC   PO431608  16.004  26.791   9.150
 6735POPC   GL131609  15.939  26.775   8.850
 6735POPC   GL231610  15.817  26.756   8.850
 6735POPC   C1A31611  16.004  26.844   8.550
 6735POPC   D2A31612  15.914  26.784   8.250
 6735POPC   C3A31613  15.905  26.807   7.950
 6735POPC   C4A31614  15.953  26.848   7.650
 6735POPC   C1B31615  15.734  26.774   8.550
 6735POPC   C2B31616  15.704  26.791   8.250
 6735POPC   C3B31617  15.689  26.713   7.950
 6735POPC   C4B31618  15.694  26.742   7.650
 6736POPC   NC331619   9.709  35.341   9.450
 6736POPC   PO431620   9.764  35.350   9.150
 6736POPC   GL131621   9.722  35.346   8.850
 6736POPC   GL231622   9.676  35.315   8.850
 6736POPC   C1A31623   9.746  35.318   8.550
 6736POPC   D2A31624   9.699  35.322   8.250
 6736POPC   C3A31625   9.739  35.322   7.950
 6736POPC   C4A31626   9.735  35.353   7.650
 6736POPC   C1B31627   9.520  35.287   8.550
 6736POPC   C2B31628   9.501  35.302   8.250
 6736POPC   C3B31629   9.547  35.301   7.950
 6736POPC   C4B31630   9.544  35.335   7.650
 6737POPC   NC331631   0.430  29.170   9.450
 6737POPC   PO431632   0.410  29.132   9.150
 6737POPC   GL131633   0.437  29.111   8.850
 6737POPC   GL231634   0.424  28.989   8.850
 6737POPC   C1A31635   0.408  29.165   8.550
 6737POPC   D2A31636   0.480  29.185   8.250
 6737POPC   C3A31637   0.406  29.113   7.950
 6737POPC   C4A31638   0.395  29.193   7.650
 6737POPC   C1B31639   0.472  28.856   8.550
 6737POPC   C2B31640   0.533  28.876   8.250
 6737POPC   C3B31641   0.466  28.877   7.950
 6737POPC   C4B31642   0.540  28.929   7.650
 6738POPC   NC331643  32.250  22.959   9.450
 6738POPC   PO431644  32.250  22.982   9.150
 6738POPC   GL131645  32.215  22.976   8.850
 6738POPC   GL231646  32.199  22.859   8.850
 6738POPC   C1A31647  32.228  22.930   8.550
 6738POPC   D2A31648  32.219  22.924   8.250
 6738POPC   C3A31649  32.279  22.926   7.950
 6738POPC   C4A31650  32.284  22.977   7.650
 6738POPC   C1B31651  32.181  22.699   8.550
 6738POPC   C2B31652  32.160  22.699   8.250
 6738POPC   C3B31653  32.165  22.713   7.950
 6738POPC   C4B31654  32.195  22.680   7.650
 6739POPC   NC331655  16.740  28.348   9.450
 6739POPC   PO431656  16.736  28.381   9.150
 6739POPC   GL131657  16.748  28.404   8.850
 6739POPC   GL231658  16.731  28.254   8.850
 6739POPC   C1A31659  16.779  28.414   8.550
 6739POPC   D2A31660  16.694  28.398   8.250
 6739POPC   C3A31661  16.770  28.364   7.950
 6739POPC   C4A31662  16.701  28.361   7.650
 6739POPC   C1B31663  16.665  28.093   8.550
 6739POPC   C2B31664  16.724  28.119   8.250
 6739POPC   C3B31665  16.703  28.133   7.950
 6739POPC   C4B31666  16.725  28.173   7.650
 6740POPC   NC331667  12.838   0.454   9.450
 6740POPC   PO431668  12.818   0.413   9.150
 6740POPC   GL131669  12.891   0.440   8.850
 6740POPC   GL231670  12.958   0.523   8.850
 6740POPC   C1A31671  12.869   0.438   8.550
 6740POPC   D2A31672  12.819   0.456   8.250
 6740POPC   C3A31673  12.880   0.388   7.950
 6740POPC   C4A31674  12.873   0.427   7.650
 6740POPC   C1B31675  13.101   0.581   8.550
 6740POPC   C2B31676  13.083   0.576   8.250
 6740POPC   C3B31677  13.107   0.582   7.950
 6740POPC   C4B31678  13.081   0.543   7.650
 6741POPC   NC331679  31.458   1.220   9.450
 6741POPC   PO431680  31.503   1.194   9.150
 6741POPC   GL131681  31.488   1.226   8.850
 6741POPC   GL231682  31.401   1.128   8.850
 6741POPC   C1A31683  31.438   1.190   8.550
 6741POPC   D2A31684  31.427   1.204   8.250
 6741POPC   C3A31685  31.468   1.260   7.950
 6741POPC   C4A31686  31.450   1.227   7.650
 6741POPC   C1B31687  31.233   1.112   8.550
 6741POPC   C2B31688  31.235   1.116   8.250
 6741POPC   C3B31689  31.263   1.039   7.950
 6741POPC   C4B31690  31.274   1.091   7.650
 6742POPC   NC331691  35.384  25.259   9.450
 6742POPC   PO431692  35.339  25.306   9.150
 6742POPC   GL131693  35.380  25.249   8.850
 6742POPC   GL231694  35.266  25.319   8.850
 6742POPC   C1A31695  35.321  25.259   8.550
 6742POPC   D2A31696  35.401  25.294   8.250
 6742POPC   C3A31697  35.347  25.286   7.950
 6742POPC   C4A31698  35.380  25.282   7.650
 6742POPC   C1B31699  35.063  25.358   8.550
 6742POPC   C2B31700  35.125  25.358   8.250
 6742POPC   C3B31701  35.058  25.278   7.950
 6742POPC   C4B31702  35.117  25.340   7.650
 6743POPC   NC331703   9.775   3.527   9.450
 6743POPC   PO431704   9.754   3.547   9.150
 6743POPC   GL131705   9.738   3.499   8.850
 6743POPC   GL231706   9.630   3.495   8.850
 6743POPC   C1A31707   9.743   3.514   8.550
 6743POPC   D2A31708   9.731   3.506   8.250
 6743POPC   C3A31709   9.741   3.548   7.950
 6743POPC   C4A31710   9.759   3.579   7.650
 6743POPC   C1B31711   9.537   3.400   8.550
 6743POPC   C2B31712   9.526   3.471   8.250
 6743POPC   C3B31713   9.488   3.413   7.950
 6743POPC   C4B31714   9.560   3.406   7.650
 6744POPC   NC331715  38.454   1.980   9.450
 6744POPC   PO431716  38.487   1.954   9.150
 6744POPC   GL131717  38.499   2.035   8.850
 6744POPC   GL231718  38.566   1.900   8.850
 6744POPC   C1A31719  38.499   2.023   8.550
 6744POPC   D2A31720  38.419   2.026   8.250
 6744POPC   C3A31721  38.501   1.975   7.950
 6744POPC   C4A31722  38.500   2.035   7.650
 6744POPC   C1B31723  38.655   1.816   8.550
 6744POPC   C2B31724  38.696   1.840   8.250
 6744POPC   C3B31725  38.657   1.803   7.950
 6744POPC   C4B31726  38.674   1.814   7.650
 6745POPC   NC331727  12.829  35.302   9.450
 6745POPC   PO431728  12.861  35.314   9.150
 6745POPC   GL131729  12.895  35.325   8.850
 6745POPC   GL231730  12.848  35.459   8.850
 6745POPC   C1A31731  12.832  35.303   8.550
 6745POPC   D2A31732  12.829  35.346   8.250
 6745POPC   C3A31733  12.856  35.393   7.950
 6745POPC   C4A31734  12.814  35.374   7.650
 6745POPC   C1B31735  12.976  35.538   8.550
 6745POPC   C2B31736  12.904  35.591   8.250
 6745POPC   C3B31737  12.902  35.616   7.950
 6745POPC   C4B31738  12.935  35.622   7.650
 6746POPC   NC331739  13.625  40.828   9.450
 6746POPC   PO431740  13.610  40.795   9.150
 6746POPC   GL131741  13.655  40.765   8.850
 6746POPC   GL231742  13.513  40.768   8.850
 6746POPC   C1A31743  13.618  40.832   8.550
 6746POPC   D2A31744  13.606  40.816   8.250
 6746POPC   C3A31745  13.586  40.814   7.950
 6746POPC   C4A31746  13.612  40.780   7.650
 6746POPC   C1B31747  13.423  40.731   8.550
 6746POPC   C2B31748  13.373  40.641   8.250
 6746POPC   C3B31749  13.433  40.731   7.950
 6746POPC   C4B31750  13.362  40.707   7.650
 6747POPC   NC331751  35.339  31.439   9.450
 6747POPC   PO431752  35.318  31.442   9.150
 6747POPC   GL131753  35.400  31.509   8.850
 6747POPC   GL231754  35.278  31.313   8.850
 6747POPC   C1A31755  35.396  31.502   8.550
 6747POPC   D2A31756  35.323  31.479   8.250
 6747POPC   C3A31757  35.323  31.445   7.950
 6747POPC   C4A31758  35.360  31.503   7.650
 6747POPC   C1B31759  35.240  31.300   8.550
 6747POPC   C2B31760  35.199  31.238   8.250
 6747POPC   C3B31761  35.283  31.218   7.950
 6747POPC   C4B31762  35.234  31.213   7.650
 6748POPC   NC331763   5.892  37.679   9.450
 6748POPC   PO431764   5.872  37.651   9.150
 6748POPC   GL131765   5.894  37.652   8.850
 6748POPC   GL231766   5.777  37.700   8.850
 6748POPC   C1A31767   5.905  37.639   8.550
 6748POPC   D2A31768   5.834  37.710   8.250
 6748POPC   C3A31769   5.841  37.703   7.950
 6748POPC   C4A31770   5.836  37.704   7.650
 6748POPC   C1B31771   5.614  37.752   8.550
 6748POPC   C2B31772   5.634  37.733   8.250
 6748POPC   C3B31773   5.577  37.742   7.950
 6748POPC   C4B31774   5.648  37.663   7.650
 6749POPC   NC331775  26.774   6.674   9.450
 6749POPC   PO431776  26.799   6.694   9.150
 6749POPC   GL131777  26.847   6.657   8.850
 6749POPC   GL231778  26.667   6.720   8.850
 6749POPC   C1A31779  26.802   6.618   8.550
 6749POPC   D2A31780  26.809   6.686   8.250
 6749POPC   C3A31781  26.818   6.599   7.950
 6749POPC   C4A31782  26.791   6.599   7.650
 6749POPC   C1B31783  26.613   6.741   8.550
 6749POPC   C2B31784  26.554   6.690   8.250
 6749POPC   C3B31785  26.622   6.762   7.950
 6749POPC   C4B31786  26.605   6.727   7.650
 6750POPC   NC331787  22.940  10.559   9.450
 6750POPC   PO431788  22.931  10.504   9.150
 6750POPC   GL131789  22.893  10.493   8.850
 6750POPC   GL231790  23.032  10.513   8.850
 6750POPC   C1A31791  22.946  10.541   8.550
 6750POPC   D2A31792  22.933  10.572   8.250
 6750POPC   C3A31793  22.971  10.487   7.950
 6750POPC   C4A31794  22.914  10.565   7.650
 6750POPC   C1B31795  23.160  10.493   8.550
 6750POPC   C2B31796  23.161  10.514   8.250
 6750POPC   C3B31797  23.166  10.504   7.950
 6750POPC   C4B31798  23.207  10.486   7.650
 6751POPC   NC331799  42.364  43.858   9.450
 6751POPC   PO431800  42.317  43.874   9.150
 6751POPC   GL131801  42.360  43.927   8.850
 6751POPC   GL231802  42.494  43.925   8.850
 6751POPC   C1A31803  42.287  43.934   8.550
 6751POPC   D2A31804  42.326  43.900   8.250
 6751POPC   C3A31805  42.336  43.856   7.950
 6751POPC   C4A31806  42.376  43.923   7.650
 6751POPC   C1B31807  42.528  44.022   8.550
 6751POPC   C2B31808  42.569  43.942   8.250
 6751POPC   C3B31809  42.567  43.978   7.950
 6751POPC   C4B31810  42.525  43.997   7.650
 6752POPC   NC331811  14.431  30.714   9.450
 6752POPC   PO431812  14.453  30.652   9.150
 6752POPC   GL131813  14.360  30.672   8.850
 6752POPC   GL231814  14.501  30.666   8.850
 6752POPC   C1A31815  14.420  30.673   8.550
 6752POPC   D2A31816  14.425  30.696   8.250
 6752POPC   C3A31817  14.402  30.708   7.950
 6752POPC   C4A31818  14.399  30.670   7.650
 6752POPC   C1B31819  14.647  30.668   8.550
 6752POPC   C2B31820  14.637  30.667   8.250
 6752POPC   C3B31821  14.647  30.609   7.950
 6752POPC   C4B31822  14.617  30.646   7.650
 6753POPC   NC331823  24.468  16.729   9.450
 6753POPC   PO431824  24.451  16.699   9.150
 6753POPC   GL131825  24.484  16.723   8.850
 6753POPC   GL231826  24.592  16.588   8.850
 6753POPC   C1A31827  24.513  16.732   8.550
 6753POPC   D2A31828  24.529  16.722   8.250
 6753POPC   C3A31829  24.511  16.681   7.950
 6753POPC   C4A31830  24.496  16.696   7.650
 6753POPC   C1B31831  24.618  16.465   8.550
 6753POPC   C2B31832  24.611  16.522   8.250
 6753POPC   C3B31833  24.621  16.461   7.950
 6753POPC   C4B31834  24.590  16.496   7.650
 6754POPC   NC331835  27.569  37.692   9.450
 6754POPC   PO431836  27.628  37.676   9.150
 6754POPC   GL131837  27.550  37.654   8.850
 6754POPC   GL231838  27.551  37.537   8.850
 6754POPC   C1A31839  27.559  37.715   8.550
 6754POPC   D2A31840  27.629  37.685   8.250
 6754POPC   C3A31841  27.550  37.697   7.950
 6754POPC   C4A31842  27.631  37.684   7.650
 6754POPC   C1B31843  27.621  37.411   8.550
 6754POPC   C2B31844  27.627  37.390   8.250
 6754POPC   C3B31845  27.578  37.449   7.950
 6754POPC   C4B31846  27.589  37.417   7.650
 6755POPC   NC331847  42.341  40.026   9.450
 6755POPC   PO431848  42.382  39.994   9.150
 6755POPC   GL131849  42.352  40.056   8.850
 6755POPC   GL231850  42.459  40.114   8.850
 6755POPC   C1A31851  42.349  39.997   8.550
 6755POPC   D2A31852  42.295  40.031   8.250
 6755POPC   C3A31853  42.314  39.994   7.950
 6755POPC   C4A31854  42.348  40.034   7.650
 6755POPC   C1B31855  42.517  40.120   8.550
 6755POPC   C2B31856  42.516  40.119   8.250
 6755POPC   C3B31857  42.506  40.107   7.950
 6755POPC   C4B31858  42.592  40.127   7.650
 6756POPC   NC331859  42.330  31.508   9.450
 6756POPC   PO431860  42.355  31.461   9.150
 6756POPC   GL131861  42.308  31.474   8.850
 6756POPC   GL231862  42.246  31.396   8.850
 6756POPC   C1A31863  42.314  31.517   8.550
 6756POPC   D2A31864  42.300  31.459   8.250
 6756POPC   C3A31865  42.324  31.504   7.950
 6756POPC   C4A31866  42.337  31.510   7.650
 6756POPC   C1B31867  42.176  31.240   8.550
 6756POPC   C2B31868  42.247  31.213   8.250
 6756POPC   C3B31869  42.246  31.250   7.950
 6756POPC   C4B31870  42.215  31.259   7.650
 6757POPC   NC331871  40.811  12.893   9.450
 6757POPC   PO431872  40.743  12.877   9.150
 6757POPC   GL131873  40.788  12.838   8.850
 6757POPC   GL231874  40.671  12.876   8.850
 6757POPC   C1A31875  40.768  12.845   8.550
 6757POPC   D2A31876  40.737  12.843   8.250
 6757POPC   C3A31877  40.792  12.803   7.950
 6757POPC   C4A31878  40.810  12.830   7.650
 6757POPC   C1B31879  40.525  12.964   8.550
 6757POPC   C2B31880  40.563  12.983   8.250
 6757POPC   C3B31881  40.587  12.927   7.950
 6757POPC   C4B31882  40.561  12.919   7.650
 6758POPC   NC331883   8.933  33.805   9.450
 6758POPC   PO431884   8.982  33.806   9.150
 6758POPC   GL131885   8.960  33.756   8.850
 6758POPC   GL231886   8.893  33.845   8.850
 6758POPC   C1A31887   8.950  33.789   8.550
 6758POPC   D2A31888   8.931  33.759   8.250
 6758POPC   C3A31889   8.932  33.839   7.950
 6758POPC   C4A31890   8.987  33.840   7.650
 6758POPC   C1B31891   8.746  33.808   8.550
 6758POPC   C2B31892   8.691  33.857   8.250
 6758POPC   C3B31893   8.715  33.819   7.950
 6758POPC   C4B31894   8.744  33.821   7.650
 6759POPC   NC331895  24.463   5.059   9.450
 6759POPC   PO431896  24.537   5.064   9.150
 6759POPC   GL131897  24.476   5.116   8.850
 6759POPC   GL231898  24.519   5.218   8.850
 6759POPC   C1A31899  24.500   5.110   8.550
 6759POPC   D2A31900  24.462   5.095   8.250
 6759POPC   C3A31901  24.473   5.076   7.950
 6759POPC   C4A31902  24.456   5.108   7.650
 6759POPC   C1B31903  24.523   5.346   8.550
 6759POPC   C2B31904  24.474   5.372   8.250
 6759POPC   C3B31905  24.480   5.351   7.950
 6759POPC   C4B31906  24.464   5.314   7.650
 6760POPC   NC331907   5.045  20.607   9.450
 6760POPC   PO431908   5.134  20.563   9.150
 6760POPC   GL131909   5.050  20.568   8.850
 6760POPC   GL231910   5.002  20.627   8.850
 6760POPC   C1A31911   5.053  20.618   8.550
 6760POPC   D2A31912   5.056  20.616   8.250
 6760POPC   C3A31913   5.050  20.591   7.950
 6760POPC   C4A31914   5.100  20.631   7.650
 6760POPC   C1B31915   4.829  20.576   8.550
 6760POPC   C2B31916   4.867  20.594   8.250
 6760POPC   C3B31917   4.893  20.607   7.950
 6760POPC   C4B31918   4.829  20.529   7.650
 6761POPC   NC331919  30.678   7.416   9.450
 6761POPC   PO431920  30.673   7.432   9.150
 6761POPC   GL131921  30.718   7.470   8.850
 6761POPC   GL231922  30.548   7.363   8.850
 6761POPC   C1A31923  30.692   7.449   8.550
 6761POPC   D2A31924  30.674   7.460   8.250
 6761POPC   C3A31925  30.708   7.468   7.950
 6761POPC   C4A31926  30.661   7.409   7.650
 6761POPC   C1B31927  30.504   7.263   8.550
 6761POPC   C2B31928  30.479   7.346   8.250
 6761POPC   C3B31929  30.444   7.263   7.950
 6761POPC   C4B31930  30.494   7.329   7.650
 6762POPC   NC331931  29.940  28.357   9.450
 6762POPC   PO431932  29.901  28.393   9.150
 6762POPC   GL131933  29.939  28.412   8.850
 6762POPC   GL231934  29.990  28.289   8.850
 6762POPC   C1A31935  29.925  28.386   8.550
 6762POPC   D2A31936  29.915  28.392   8.250
 6762POPC   C3A31937  29.901  28.321   7.950
 6762POPC   C4A31938  29.964  28.326   7.650
 6762POPC   C1B31939  30.083  28.208   8.550
 6762POPC   C2B31940  30.042  28.199   8.250
 6762POPC   C3B31941  30.041  28.133   7.950
 6762POPC   C4B31942  30.057  28.214   7.650
 6763POPC   NC331943  31.479  29.920   9.450
 6763POPC   PO431944  31.513  29.904   9.150
 6763POPC   GL131945  31.424  29.941   8.850
 6763POPC   GL231946  31.445  29.995   8.850
 6763POPC   C1A31947  31.515  29.884   8.550
 6763POPC   D2A31948  31.479  29.956   8.250
 6763POPC   C3A31949  31.518  29.905   7.950
 6763POPC   C4A31950  31.510  29.939   7.650
 6763POPC   C1B31951  31.327  30.155   8.550
 6763POPC   C2B31952  31.403  30.133   8.250
 6763POPC   C3B31953  31.391  30.120   7.950
 6763POPC   C4B31954  31.372  30.155   7.650
 6764POPC   NC331955  34.547  20.574   9.450
 6764POPC   PO431956  34.563  20.563   9.150
 6764POPC   GL131957  34.616  20.656   8.850
 6764POPC   GL231958  34.437  20.567   8.850
 6764POPC   C1A31959  34.540  20.590   8.550
 6764POPC   D2A31960  34.571  20.583   8.250
 6764POPC   C3A31961  34.595  20.623   7.950
 6764POPC   C4A31962  34.596  20.646   7.650
 6764POPC   C1B31963  34.373  20.514   8.550
 6764POPC   C2B31964  34.346  20.577   8.250
 6764POPC   C3B31965  34.312  20.560   7.950
 6764POPC   C4B31966  34.343  20.545   7.650
 6765POPC   NC331967  15.215  29.180   9.450
 6765POPC   PO431968  15.136  29.126   9.150
 6765POPC   GL131969  15.212  29.181   8.850
 6765POPC   GL231970  15.077  29.070   8.850
 6765POPC   C1A31971  15.191  29.169   8.550
 6765POPC   D2A31972  15.143  29.142   8.250
 6765POPC   C3A31973  15.192  29.162   7.950
 6765POPC   C4A31974  15.228  29.127   7.650
 6765POPC   C1B31975  14.979  28.927   8.550
 6765POPC   C2B31976  15.016  28.930   8.250
 6765POPC   C3B31977  15.030  29.014   7.950
 6765POPC   C4B31978  14.975  28.926   7.650
 6766POPC   NC331979  40.023  10.499   9.450
 6766POPC   PO431980  39.988  10.517   9.150
 6766POPC   GL131981  40.014  10.538   8.850
 6766POPC   GL231982  40.126  10.486   8.850
 6766POPC   C1A31983  40.039  10.531   8.550
 6766POPC   D2A31984  40.057  10.532   8.250
 6766POPC   C3A31985  40.025  10.537   7.950
 6766POPC   C4A31986  39.963  10.524   7.650
 6766POPC   C1B31987  40.231  10.390   8.550
 6766POPC   C2B31988  40.262  10.427   8.250
 6766POPC   C3B31989  40.223  10.395   7.950
 6766POPC   C4B31990  40.217  10.448   7.650
 6767POPC   NC331991  39.255  19.089   9.450
 6767POPC   PO431992  39.205  19.068   9.150
 6767POPC   GL131993  39.242  19.107   8.850
 6767POPC   GL231994  39.234  19.208   8.850
 6767POPC   C1A31995  39.185  19.011   8.550
 6767POPC   D2A31996  39.205  19.066   8.250
 6767POPC   C3A31997  39.223  19.091   7.950
 6767POPC   C4A31998  39.215  19.027   7.650
 6767POPC   C1B31999  39.158  19.271   8.550
 6767POPC   C2B32000  39.206  19.339   8.250
 6767POPC   C3B32001  39.180  19.254   7.950
 6767POPC   C4B32002  39.137  19.302   7.650
 6768POPC   NC332003  19.039   0.474   9.450
 6768POPC   PO432004  19.027   0.440   9.150
 6768POPC   GL132005  19.045   0.457   8.850
 6768POPC   GL232006  19.017   0.272   8.850
 6768POPC   C1A32007  19.047   0.461   8.550
 6768POPC   D2A32008  19.067   0.457   8.250
 6768POPC   C3A32009  19.093   0.405   7.950
 6768POPC   C4A32010  19.052   0.417   7.650
 6768POPC   C1B32011  18.988   0.153   8.550
 6768POPC   C2B32012  19.050   0.153   8.250
 6768POPC   C3B32013  18.991   0.151   7.950
 6768POPC   C4B32014  19.020   0.168   7.650
 6769POPC   NC332015  33.033  36.942   9.450
 6769POPC   PO432016  33.030  36.946   9.150
 6769POPC   GL132017  33.069  36.897   8.850
 6769POPC   GL232018  33.194  36.925   8.850
 6769POPC   C1A32019  33.073  36.924   8.550
 6769POPC   D2A32020  33.042  36.928   8.250
 6769POPC   C3A32021  33.023  36.951   7.950
 6769POPC   C4A32022  32.989  36.949   7.650
 6769POPC   C1B32023  33.314  36.983   8.550
 6769POPC   C2B32024  33.235  36.953   8.250
 6769POPC   C3B32025  33.309  36.948   7.950
 6769POPC   C4B32026  33.221  36.974   7.650
 6770POPC   NC332027  34.579   4.355   9.450
 6770POPC   PO432028  34.626   4.345   9.150
 6770POPC   GL132029  34.580   4.322   8.850
 6770POPC   GL232030  34.674   4.308   8.850
 6770POPC   C1A32031  34.602   4.272   8.550
 6770POPC   D2A32032  34.576   4.318   8.250
 6770POPC   C3A32033  34.619   4.269   7.950
 6770POPC   C4A32034  34.625   4.367   7.650
 6770POPC   C1B32035  34.820   4.334   8.550
 6770POPC   C2B32036  34.776   4.314   8.250
 6770POPC   C3B32037  34.855   4.308   7.950
 6770POPC   C4B32038  34.782   4.390   7.650
 6771POPC   NC332039   4.280  28.355   9.450
 6771POPC   PO432040   4.325  28.393   9.150
 6771POPC   GL132041   4.296  28.365   8.850
 6771POPC   GL232042   4.336  28.540   8.850
 6771POPC   C1A32043   4.305  28.384   8.550
 6771POPC   D2A32044   4.322  28.340   8.250
 6771POPC   C3A32045   4.321  28.328   7.950
 6771POPC   C4A32046   4.276  28.358   7.650
 6771POPC   C1B32047   4.249  28.656   8.550
 6771POPC   C2B32048   4.231  28.586   8.250
 6771POPC   C3B32049   4.260  28.660   7.950
 6771POPC   C4B32050   4.241  28.572   7.650
 6772POPC   NC332051  22.942  25.230   9.450
 6772POPC   PO432052  22.951  25.252   9.150
 6772POPC   GL132053  22.984  25.292   8.850
 6772POPC   GL232054  22.893  25.404   8.850
 6772POPC   C1A32055  22.932  25.314   8.550
 6772POPC   D2A32056  22.938  25.313   8.250
 6772POPC   C3A32057  22.940  25.239   7.950
 6772POPC   C4A32058  22.890  25.233   7.650
 6772POPC   C1B32059  22.799  25.539   8.550
 6772POPC   C2B32060  22.866  25.515   8.250
 6772POPC   C3B32061  22.813  25.503   7.950
 6772POPC   C4B32062  22.861  25.446   7.650
 6773POPC   NC332063  36.140  14.424   9.450
 6773POPC   PO432064  36.113  14.418   9.150
 6773POPC   GL132065  36.078  14.431   8.850
 6773POPC   GL232066  36.114  14.302   8.850
 6773POPC   C1A32067  36.087  14.375   8.550
 6773POPC   D2A32068  36.159  14.400   8.250
 6773POPC   C3A32069  36.163  14.445   7.950
 6773POPC   C4A32070  36.128  14.413   7.650
 6773POPC   C1B32071  35.998  14.222   8.550
 6773POPC   C2B32072  36.004  14.148   8.250
 6773POPC   C3B32073  35.972  14.175   7.950
 6773POPC   C4B32074  35.958  14.236   7.650
 6774POPC   NC332075  17.532   6.646   9.450
 6774POPC   PO432076  17.494   6.610   9.150
 6774POPC   GL132077  17.462   6.609   8.850
 6774POPC   GL232078  17.671   6.653   8.850
 6774POPC   C1A32079  17.549   6.662   8.550
 6774POPC   D2A32080  17.546   6.661   8.250
 6774POPC   C3A32081  17.472   6.673   7.950
 6774POPC   C4A32082  17.471   6.690   7.650
 6774POPC   C1B32083  17.732   6.679   8.550
 6774POPC   C2B32084  17.801   6.658   8.250
 6774POPC   C3B32085  17.799   6.643   7.950
 6774POPC   C4B32086  17.784   6.687   7.650
 6775POPC   NC332087  27.576  43.899   9.450
 6775POPC   PO432088  27.547  43.871   9.150
 6775POPC   GL132089  27.622  43.896   8.850
 6775POPC   GL232090  27.457  43.821   8.850
 6775POPC   C1A32091  27.562  43.927   8.550
 6775POPC   D2A32092  27.545  43.899   8.250
 6775POPC   C3A32093  27.553  43.843   7.950
 6775POPC   C4A32094  27.597  43.911   7.650
 6775POPC   C1B32095  27.376  43.809   8.550
 6775POPC   C2B32096  27.363  43.774   8.250
 6775POPC   C3B32097  27.378  43.804   7.950
 6775POPC   C4B32098  27.399  43.733   7.650
 6776POPC   NC332099  38.470  42.292   9.450
 6776POPC   PO432100  38.473  42.349   9.150
 6776POPC   GL132101  38.420  42.303   8.850
 6776POPC   GL232102  38.356  42.321   8.850
 6776POPC   C1A32103  38.442  42.349   8.550
 6776POPC   D2A32104  38.419  42.303   8.250
 6776POPC   C3A32105  38.432  42.343   7.950
 6776POPC   C4A32106  38.460  42.327   7.650
 6776POPC   C1B32107  38.189  42.354   8.550
 6776POPC   C2B32108  38.222  42.278   8.250
 6776POPC   C3B32109  38.203  42.363   7.950
 6776POPC   C4B32110  38.167  42.273   7.650
 6777POPC   NC332111  14.367   0.442   9.450
 6777POPC   PO432112  14.399   0.405   9.150
 6777POPC   GL132113  14.450   0.439   8.850
 6777POPC   GL232114  14.334   0.565   8.850
 6777POPC   C1A32115  14.446   0.477   8.550
 6777POPC   D2A32116  14.400   0.457   8.250
 6777POPC   C3A32117  14.387   0.408   7.950
 6777POPC   C4A32118  14.386   0.391   7.650
 6777POPC   C1B32119  14.212   0.627   8.550
 6777POPC   C2B32120  14.196   0.596   8.250
 6777POPC   C3B32121  14.263   0.568   7.950
 6777POPC   C4B32122  14.203   0.649   7.650
 6778POPC   NC332123   8.952  15.164   9.450
 6778POPC   PO432124   9.012  15.142   9.150
 6778POPC   GL132125   8.961  15.218   8.850
 6778POPC   GL232126   8.851  15.193   8.850
 6778POPC   C1A32127   8.970  15.166   8.550
 6778POPC   D2A32128   9.004  15.154   8.250
 6778POPC   C3A32129   9.009  15.202   7.950
 6778POPC   C4A32130   8.991  15.154   7.650
 6778POPC   C1B32131   8.704  15.249   8.550
 6778POPC   C2B32132   8.724  15.278   8.250
 6778POPC   C3B32133   8.766  15.195   7.950
 6778POPC   C4B32134   8.682  15.290   7.650
 6779POPC   NC332135  36.913  25.301   9.450
 6779POPC   PO432136  36.934  25.229   9.150
 6779POPC   GL132137  36.905  25.232   8.850
 6779POPC   GL232138  36.830  25.246   8.850
 6779POPC   C1A32139  36.873  25.312   8.550
 6779POPC   D2A32140  36.928  25.216   8.250
 6779POPC   C3A32141  36.858  25.287   7.950
 6779POPC   C4A32142  36.905  25.225   7.650
 6779POPC   C1B32143  36.633  25.225   8.550
 6779POPC   C2B32144  36.697  25.194   8.250
 6779POPC   C3B32145  36.652  25.245   7.950
 6779POPC   C4B32146  36.702  25.192   7.650
 6780POPC   NC332147  23.740   6.628   9.450
 6780POPC   PO432148  23.673   6.606   9.150
 6780POPC   GL132149  23.684   6.641   8.850
 6780POPC   GL232150  23.757   6.739   8.850
 6780POPC   C1A32151  23.677   6.670   8.550
 6780POPC   D2A32152  23.700   6.682   8.250
 6780POPC   C3A32153  23.705   6.611   7.950
 6780POPC   C4A32154  23.732   6.675   7.650
 6780POPC   C1B32155  23.862   6.821   8.550
 6780POPC   C2B32156  23.878   6.887   8.250
 6780POPC   C3B32157  23.914   6.832   7.950
 6780POPC   C4B32158  23.908   6.841   7.650
 6781POPC   NC332159  19.042  28.371   9.450
 6781POPC   PO432160  19.046  28.391   9.150
 6781POPC   GL132161  19.018  28.336   8.850
 6781POPC   GL232162  18.999  28.443   8.850
 6781POPC   C1A32163  19.055  28.396   8.550
 6781POPC   D2A32164  19.037  28.387   8.250
 6781POPC   C3A32165  19.054  28.340   7.950
 6781POPC   C4A32166  19.033  28.418   7.650
 6781POPC   C1B32167  18.859  28.529   8.550
 6781POPC   C2B32168  18.905  28.575   8.250
 6781POPC   C3B32169  18.864  28.519   7.950
 6781POPC   C4B32170  18.872  28.526   7.650
 6782POPC   NC332171   6.644   3.557   9.450
 6782POPC   PO432172   6.654   3.580   9.150
 6782POPC   GL132173   6.651   3.555   8.850
 6782POPC   GL232174   6.782   3.501   8.850
 6782POPC   C1A32175   6.650   3.567   8.550
 6782POPC   D2A32176   6.600   3.570   8.250
 6782POPC   C3A32177   6.653   3.556   7.950
 6782POPC   C4A32178   6.612   3.540   7.650
 6782POPC   C1B32179   6.889   3.502   8.550
 6782POPC   C2B32180   6.886   3.565   8.250
 6782POPC   C3B32181   6.854   3.512   7.950
 6782POPC   C4B32182   6.915   3.513   7.650
 6783POPC   NC332183   8.228  24.525   9.450
 6783POPC   PO432184   8.240  24.520   9.150
 6783POPC   GL132185   8.167  24.463   8.850
 6783POPC   GL232186   8.128  24.403   8.850
 6783POPC   C1A32187   8.231  24.497   8.550
 6783POPC   D2A32188   8.196  24.513   8.250
 6783POPC   C3A32189   8.184  24.489   7.950
 6783POPC   C4A32190   8.217  24.499   7.650
 6783POPC   C1B32191   7.991  24.349   8.550
 6783POPC   C2B32192   8.010  24.331   8.250
 6783POPC   C3B32193   7.998  24.354   7.950
 6783POPC   C4B32194   7.985  24.376   7.650
 6784POPC   NC332195  19.103   2.765   9.450
 6784POPC   PO432196  19.010   2.742   9.150
 6784POPC   GL132197  19.057   2.805   8.850
 6784POPC   GL232198  19.041   2.880   8.850
 6784POPC   C1A32199  19.082   2.777   8.550
 6784POPC   D2A32200  19.024   2.797   8.250
 6784POPC   C3A32201  19.080   2.747   7.950
 6784POPC   C4A32202  19.107   2.788   7.650
 6784POPC   C1B32203  18.997   2.969   8.550
 6784POPC   C2B32204  19.020   3.017   8.250
 6784POPC   C3B32205  18.973   3.046   7.950
 6784POPC   C4B32206  18.953   3.045   7.650
 6785POPC   NC332207  29.938  17.542   9.450
 6785POPC   PO432208  29.883  17.523   9.150
 6785POPC   GL132209  29.887  17.537   8.850
 6785POPC   GL232210  29.788  17.570   8.850
 6785POPC   C1A32211  29.896  17.501   8.550
 6785POPC   D2A32212  29.961  17.491   8.250
 6785POPC   C3A32213  29.895  17.505   7.950
 6785POPC   C4A32214  29.957  17.487   7.650
 6785POPC   C1B32215  29.679  17.591   8.550
 6785POPC   C2B32216  29.643  17.560   8.250
 6785POPC   C3B32217  29.672  17.562   7.950
 6785POPC   C4B32218  29.646  17.548   7.650
 6786POPC   NC332219  40.020   2.751   9.450
 6786POPC   PO432220  39.981   2.756   9.150
 6786POPC   GL132221  40.057   2.775   8.850
 6786POPC   GL232222  39.909   2.746   8.850
 6786POPC   C1A32223  39.966   2.753   8.550
 6786POPC   D2A32224  39.960   2.737   8.250
 6786POPC   C3A32225  39.957   2.757   7.950
 6786POPC   C4A32226  39.979   2.787   7.650
 6786POPC   C1B32227  39.793   2.633   8.550
 6786POPC   C2B32228  39.753   2.619   8.250
 6786POPC   C3B32229  39.773   2.678   7.950
 6786POPC   C4B32230  39.808   2.677   7.650
 6787POPC   NC332231  29.139  43.933   9.450
 6787POPC   PO432232  29.142  43.848   9.150
 6787POPC   GL132233  29.140  43.904   8.850
 6787POPC   GL232234  29.034  43.919   8.850
 6787POPC   C1A32235  29.168  43.916   8.550
 6787POPC   D2A32236  29.175  43.908   8.250
 6787POPC   C3A32237  29.177  43.934   7.950
 6787POPC   C4A32238  29.096  43.839   7.650
 6787POPC   C1B32239  28.896  43.888   8.550
 6787POPC   C2B32240  28.864  43.940   8.250
 6787POPC   C3B32241  28.913  43.927   7.950
 6787POPC   C4B32242  28.898  43.869   7.650
 6788POPC   NC332243   8.957  41.585   9.450
 6788POPC   PO432244   8.979  41.563   9.150
 6788POPC   GL132245   9.000  41.520   8.850
 6788POPC   GL232246   9.097  41.572   8.850
 6788POPC   C1A32247   8.985  41.510   8.550
 6788POPC   D2A32248   9.009  41.590   8.250
 6788POPC   C3A32249   8.953  41.607   7.950
 6788POPC   C4A32250   8.950  41.536   7.650
 6788POPC   C1B32251   9.241  41.580   8.550
 6788POPC   C2B32252   9.237  41.554   8.250
 6788POPC   C3B32253   9.267  41.564   7.950
 6788POPC   C4B32254   9.230  41.566   7.650
 6789POPC   NC332255  26.085   4.313   9.450
 6789POPC   PO432256  26.090   4.303   9.150
 6789POPC   GL132257  26.062   4.284   8.850
 6789POPC   GL232258  26.175   4.281   8.850
 6789POPC   C1A32259  26.082   4.268   8.550
 6789POPC   D2A32260  26.023   4.364   8.250
 6789POPC   C3A32261  26.006   4.349   7.950
 6789POPC   C4A32262  26.022   4.321   7.650
 6789POPC   C1B32263  26.263   4.130   8.550
 6789POPC   C2B32264  26.204   4.156   8.250
 6789POPC   C3B32265  26.225   4.223   7.950
 6789POPC   C4B32266  26.239   4.149   7.650
 6790POPC   NC332267   5.885   1.985   9.450
 6790POPC   PO432268   5.910   1.955   9.150
 6790POPC   GL132269   5.907   2.028   8.850
 6790POPC   GL232270   5.800   2.116   8.850
 6790POPC   C1A32271   5.820   1.948   8.550
 6790POPC   D2A32272   5.823   2.014   8.250
 6790POPC   C3A32273   5.896   2.023   7.950
 6790POPC   C4A32274   5.902   2.028   7.650
 6790POPC   C1B32275   5.677   2.183   8.550
 6790POPC   C2B32276   5.665   2.152   8.250
 6790POPC   C3B32277   5.679   2.209   7.950
 6790POPC   C4B32278   5.704   2.161   7.650
 6791POPC   NC332279  10.538  35.313   9.450
 6791POPC   PO432280  10.562  35.356   9.150
 6791POPC   GL132281  10.531  35.304   8.850
 6791POPC   GL232282  10.509  35.207   8.850
 6791POPC   C1A32283  10.506  35.305   8.550
 6791POPC   D2A32284  10.527  35.340   8.250
 6791POPC   C3A32285  10.536  35.322   7.950
 6791POPC   C4A32286  10.492  35.336   7.650
 6791POPC   C1B32287  10.385  35.104   8.550
 6791POPC   C2B32288  10.401  35.171   8.250
 6791POPC   C3B32289  10.393  35.169   7.950
 6791POPC   C4B32290  10.409  35.132   7.650
 6792POPC   NC332291  21.427  19.015   9.450
 6792POPC   PO432292  21.390  19.046   9.150
 6792POPC   GL132293  21.360  19.026   8.850
 6792POPC   GL232294  21.437  19.121   8.850
 6792POPC   C1A32295  21.356  19.011   8.550
 6792POPC   D2A32296  21.380  19.020   8.250
 6792POPC   C3A32297  21.401  19.097   7.950
 6792POPC   C4A32298  21.417  19.099   7.650
 6792POPC   C1B32299  21.559  19.241   8.550
 6792POPC   C2B32300  21.562  19.284   8.250
 6792POPC   C3B32301  21.489  19.247   7.950
 6792POPC   C4B32302  21.519  19.238   7.650
 6793POPC   NC332303   3.547  20.617   9.450
 6793POPC   PO432304   3.509  20.583   9.150
 6793POPC   GL132305   3.566  20.592   8.850
 6793POPC   GL232306   3.538  20.451   8.850
 6793POPC   C1A32307   3.569  20.635   8.550
 6793POPC   D2A32308   3.584  20.616   8.250
 6793POPC   C3A32309   3.508  20.612   7.950
 6793POPC   C4A32310   3.537  20.566   7.650
 6793POPC   C1B32311   3.539  20.394   8.550
 6793POPC   C2B32312   3.579  20.322   8.250
 6793POPC   C3B32313   3.631  20.411   7.950
 6793POPC   C4B32314   3.551  20.400   7.650
 6794POPC   NC332315  33.053   8.953   9.450
 6794POPC   PO432316  33.007   8.947   9.150
 6794POPC   GL132317  33.011   8.999   8.850
 6794POPC   GL232318  33.118   8.894   8.850
 6794POPC   C1A32319  33.043   9.002   8.550
 6794POPC   D2A32320  33.004   8.929   8.250
 6794POPC   C3A32321  32.992   8.966   7.950
 6794POPC   C4A32322  33.024   8.986   7.650
 6794POPC   C1B32323  33.140   8.738   8.550
 6794POPC   C2B32324  33.156   8.753   8.250
 6794POPC   C3B32325  33.172   8.813   7.950
 6794POPC   C4B32326  33.151   8.813   7.650
 6795POPC   NC332327  44.625  28.362   9.450
 6795POPC   PO432328  44.646  28.419   9.150
 6795POPC   GL132329  44.661  28.352   8.850
 6795POPC   GL232330  44.787  28.429   8.850
 6795POPC   C1A32331  44.659  28.395   8.550
 6795POPC   D2A32332  44.701  28.331   8.250
 6795POPC   C3A32333  44.614  28.359   7.950
 6795POPC   C4A32334  44.677  28.357   7.650
 6795POPC   C1B32335  44.908  28.521   8.550
 6795POPC   C2B32336  44.836  28.481   8.250
 6795POPC   C3B32337  44.924  28.478   7.950
 6795POPC   C4B32338  44.847  28.460   7.650
 6796POPC   NC332339  19.881   8.197   9.450
 6796POPC   PO432340  19.862   8.194   9.150
 6796POPC   GL132341  19.789   8.185   8.850
 6796POPC   GL232342  19.905   8.047   8.850
 6796POPC   C1A32343  19.791   8.211   8.550
 6796POPC   D2A32344  19.810   8.166   8.250
 6796POPC   C3A32345  19.863   8.207   7.950
 6796POPC   C4A32346  19.837   8.203   7.650
 6796POPC   C1B32347  19.930   8.002   8.550
 6796POPC   C2B32348  19.934   7.989   8.250
 6796POPC   C3B32349  19.999   7.960   7.950
 6796POPC   C4B32350  19.984   7.988   7.650
 6797POPC   NC332351  24.502  27.584   9.450
 6797POPC   PO432352  24.450  27.597   9.150
 6797POPC   GL132353  24.508  27.635   8.850
 6797POPC   GL232354  24.613  27.506   8.850
 6797POPC   C1A32355  24.455  27.643   8.550
 6797POPC   D2A32356  24.538  27.579   8.250
 6797POPC   C3A32357  24.475  27.562   7.950
 6797POPC   C4A32358  24.532  27.586   7.650
 6797POPC   C1B32359  24.678  27.368   8.550
 6797POPC   C2B32360  24.632  27.407   8.250
 6797POPC   C3B32361  24.662  27.412   7.950
 6797POPC   C4B32362  24.708  27.446   7.650
 6798POPC   NC332363  44.682   1.255   9.450
 6798POPC   PO432364  44.642   1.187   9.150
 6798POPC   GL132365  44.625   1.260   8.850
 6798POPC   GL232366  44.685   1.351   8.850
 6798POPC   C1A32367  44.630   1.254   8.550
 6798POPC   D2A32368  44.656   1.218   8.250
 6798POPC   C3A32369  44.666   1.183   7.950
 6798POPC   C4A32370  44.679   1.205   7.650
 6798POPC   C1B32371  44.634   1.492   8.550
 6798POPC   C2B32372  44.593   1.451   8.250
 6798POPC   C3B32373  44.612   1.504   7.950
 6798POPC   C4B32374  44.606   1.439   7.650
 6799POPC   NC332375  34.538  40.808   9.450
 6799POPC   PO432376  34.576  40.784   9.150
 6799POPC   GL132377  34.568  40.758   8.850
 6799POPC   GL232378  34.676  40.856   8.850
 6799POPC   C1A32379  34.537  40.758   8.550
 6799POPC   D2A32380  34.582  40.781   8.250
 6799POPC   C3A32381  34.552  40.760   7.950
 6799POPC   C4A32382  34.620  40.751   7.650
 6799POPC   C1B32383  34.783  40.916   8.550
 6799POPC   C2B32384  34.802  40.963   8.250
 6799POPC   C3B32385  34.836  40.913   7.950
 6799POPC   C4B32386  34.789  40.925   7.650
 6800POPC   NC332387  12.091  20.641   9.450
 6800POPC   PO432388  12.069  20.573   9.150
 6800POPC   GL132389  12.079  20.657   8.850
 6800POPC   GL232390  11.987  20.606   8.850
 6800POPC   C1A32391  12.073  20.624   8.550
 6800POPC   D2A32392  12.093  20.642   8.250
 6800POPC   C3A32393  12.039  20.646   7.950
 6800POPC   C4A32394  12.110  20.583   7.650
 6800POPC   C1B32395  11.787  20.680   8.550
 6800POPC   C2B32396  11.832  20.668   8.250
 6800POPC   C3B32397  11.853  20.624   7.950
 6800POPC   C4B32398  11.806  20.625   7.650
 6801POPC   NC332399  17.495   5.859   9.450
 6801POPC   PO432400  17.486   5.904   9.150
 6801POPC   GL132401  17.469   5.842   8.850
 6801POPC   GL232402  17.451   5.775   8.850
 6801POPC   C1A32403  17.499   5.855   8.550
 6801POPC   D2A32404  17.546   5.915   8.250
 6801POPC   C3A32405  17.535   5.855   7.950
 6801POPC   C4A32406  17.474   5.859   7.650
 6801POPC   C1B32407  17.370   5.691   8.550
 6801POPC   C2B32408  17.300   5.726   8.250
 6801POPC   C3B32409  17.343   5.655   7.950
 6801POPC   C4B32410  17.359   5.684   7.650
 6802POPC   NC332411  19.034  12.899   9.450
 6802POPC   PO432412  19.034  12.808   9.150
 6802POPC   GL132413  19.049  12.811   8.850
 6802POPC   GL232414  19.220  12.894   8.850
 6802POPC   C1A32415  19.022  12.819   8.550
 6802POPC   D2A32416  19.078  12.844   8.250
 6802POPC   C3A32417  19.034  12.840   7.950
 6802POPC   C4A32418  19.047  12.838   7.650
 6802POPC   C1B32419  19.274  12.978   8.550
 6802POPC   C2B32420  19.304  12.982   8.250
 6802POPC   C3B32421  19.265  12.984   7.950
 6802POPC   C4B32422  19.300  12.934   7.650
 6803POPC   NC332423  36.883  40.053   9.450
 6803POPC   PO432424  36.859  40.012   9.150
 6803POPC   GL132425  36.864  40.036   8.850
 6803POPC   GL232426  37.033  39.981   8.850
 6803POPC   C1A32427  36.904  40.024   8.550
 6803POPC   D2A32428  36.943  40.028   8.250
 6803POPC   C3A32429  36.880  40.051   7.950
 6803POPC   C4A32430  36.901  40.020   7.650
 6803POPC   C1B32431  37.122  40.046   8.550
 6803POPC   C2B32432  37.109  40.081   8.250
 6803POPC   C3B32433  37.199  40.084   7.950
 6803POPC   C4B32434  37.174  39.998   7.650
 6804POPC   NC332435   1.207   5.840   9.450
 6804POPC   PO432436   1.263   5.885   9.150
 6804POPC   GL132437   1.260   5.837   8.850
 6804POPC   GL232438   1.156   5.927   8.850
 6804POPC   C1A32439   1.262   5.865   8.550
 6804POPC   D2A32440   1.199   5.823   8.250
 6804POPC   C3A32441   1.251   5.909   7.950
 6804POPC   C4A32442   1.174   5.839   7.650
 6804POPC   C1B32443   1.059   6.085   8.550
 6804POPC   C2B32444   0.988   5.995   8.250
 6804POPC   C3B32445   0.993   6.048   7.950
 6804POPC   C4B32446   1.022   6.048   7.650
 6805POPC   NC332447  27.566  21.374   9.450
 6805POPC   PO432448  27.633  21.366   9.150
 6805POPC   GL132449  27.564  21.433   8.850
 6805POPC   GL232450  27.583  21.256   8.850
 6805POPC   C1A32451  27.596  21.359   8.550
 6805POPC   D2A32452  27.604  21.398   8.250
 6805POPC   C3A32453  27.643  21.340   7.950
 6805POPC   C4A32454  27.591  21.380   7.650
 6805POPC   C1B32455  27.495  21.112   8.550
 6805POPC   C2B32456  27.550  21.129   8.250
 6805POPC   C3B32457  27.550  21.147   7.950
 6805POPC   C4B32458  27.467  21.111   7.650
 6806POPC   NC332459  43.891  43.155   9.450
 6806POPC   PO432460  43.847  43.076   9.150
 6806POPC   GL132461  43.841  43.065   8.850
 6806POPC   GL232462  43.774  42.984   8.850
 6806POPC   C1A32463  43.890  43.103   8.550
 6806POPC   D2A32464  43.901  43.153   8.250
 6806POPC   C3A32465  43.889  43.147   7.950
 6806POPC   C4A32466  43.876  43.158   7.650
 6806POPC   C1B32467  43.704  42.901   8.550
 6806POPC   C2B32468  43.663  42.946   8.250
 6806POPC   C3B32469  43.739  42.967   7.950
 6806POPC   C4B32470  43.744  42.947   7.650
 6807POPC   NC332471  33.826  22.888   9.450
 6807POPC   PO432472  33.804  22.943   9.150
 6807POPC   GL132473  33.782  22.946   8.850
 6807POPC   GL232474  33.707  22.965   8.850
 6807POPC   C1A32475  33.761  22.919   8.550
 6807POPC   D2A32476  33.847  22.968   8.250
 6807POPC   C3A32477  33.766  22.912   7.950
 6807POPC   C4A32478  33.815  22.926   7.650
 6807POPC   C1B32479  33.586  22.942   8.550
 6807POPC   C2B32480  33.551  22.928   8.250
 6807POPC   C3B32481  33.556  22.922   7.950
 6807POPC   C4B32482  33.582  22.969   7.650
 6808POPC   NC332483   2.012  17.531   9.450
 6808POPC   PO432484   1.945  17.482   9.150
 6808POPC   GL132485   1.988  17.510   8.850
 6808POPC   GL232486   1.923  17.436   8.850
 6808POPC   C1A32487   1.948  17.541   8.550
 6808POPC   D2A32488   1.948  17.517   8.250
 6808POPC   C3A32489   2.019  17.480   7.950
 6808POPC   C4A32490   1.970  17.540   7.650
 6808POPC   C1B32491   1.814  17.322   8.550
 6808POPC   C2B32492   1.787  17.305   8.250
 6808POPC   C3B32493   1.796  17.390   7.950
 6808POPC   C4B32494   1.805  17.354   7.650
 6809POPC   NC332495  25.232   2.782   9.450
 6809POPC   PO432496  25.306   2.797   9.150
 6809POPC   GL132497  25.270   2.746   8.850
 6809POPC   GL232498  25.331   2.779   8.850
 6809POPC   C1A32499  25.243   2.735   8.550
 6809POPC   D2A32500  25.279   2.771   8.250
 6809POPC   C3A32501  25.314   2.758   7.950
 6809POPC   C4A32502  25.245   2.754   7.650
 6809POPC   C1B32503  25.526   2.843   8.550
 6809POPC   C2B32504  25.452   2.895   8.250
 6809POPC   C3B32505  25.443   2.892   7.950
 6809POPC   C4B32506  25.507   2.866   7.650
 6810POPC   NC332507  18.324  21.426   9.450
 6810POPC   PO432508  18.241  21.412   9.150
 6810POPC   GL132509  18.328  21.381   8.850
 6810POPC   GL232510  18.138  21.394   8.850
 6810POPC   C1A32511  18.253  21.383   8.550
 6810POPC   D2A32512  18.247  21.390   8.250
 6810POPC   C3A32513  18.284  21.339   7.950
 6810POPC   C4A32514  18.248  21.374   7.650
 6810POPC   C1B32515  17.997  21.456   8.550
 6810POPC   C2B32516  17.997  21.408   8.250
 6810POPC   C3B32517  18.052  21.371   7.950
 6810POPC   C4B32518  18.081  21.448   7.650
 6811POPC   NC332519   7.436  22.112   9.450
 6811POPC   PO432520   7.373  22.121   9.150
 6811POPC   GL132521   7.382  22.164   8.850
 6811POPC   GL232522   7.433  22.264   8.850
 6811POPC   C1A32523   7.415  22.157   8.550
 6811POPC   D2A32524   7.467  22.157   8.250
 6811POPC   C3A32525   7.444  22.165   7.950
 6811POPC   C4A32526   7.376  22.201   7.650
 6811POPC   C1B32527   7.468  22.423   8.550
 6811POPC   C2B32528   7.522  22.365   8.250
 6811POPC   C3B32529   7.430  22.406   7.950
 6811POPC   C4B32530   7.454  22.436   7.650
 6812POPC   NC332531  26.083  29.145   9.450
 6812POPC   PO432532  26.011  29.183   9.150
 6812POPC   GL132533  26.023  29.156   8.850
 6812POPC   GL232534  26.179  29.153   8.850
 6812POPC   C1A32535  26.073  29.161   8.550
 6812POPC   D2A32536  26.047  29.099   8.250
 6812POPC   C3A32537  26.087  29.113   7.950
 6812POPC   C4A32538  26.079  29.114   7.650
 6812POPC   C1B32539  26.289  29.197   8.550
 6812POPC   C2B32540  26.296  29.160   8.250
 6812POPC   C3B32541  26.316  29.160   7.950
 6812POPC   C4B32542  26.249  29.194   7.650
 6813POPC   NC332543  13.656  31.463   9.450
 6813POPC   PO432544  13.611  31.443   9.150
 6813POPC   GL132545  13.626  31.440   8.850
 6813POPC   GL232546  13.618  31.619   8.850
 6813POPC   C1A32547  13.625  31.460   8.550
 6813POPC   D2A32548  13.673  31.464   8.250
 6813POPC   C3A32549  13.653  31.516   7.950
 6813POPC   C4A32550  13.674  31.497   7.650
 6813POPC   C1B32551  13.598  31.770   8.550
 6813POPC   C2B32552  13.551  31.722   8.250
 6813POPC   C3B32553  13.629  31.680   7.950
 6813POPC   C4B32554  13.633  31.697   7.650
 6814POPC   NC332555   4.343  17.465   9.450
 6814POPC   PO432556   4.348  17.506   9.150
 6814POPC   GL132557   4.367  17.506   8.850
 6814POPC   GL232558   4.435  17.447   8.850
 6814POPC   C1A32559   4.335  17.466   8.550
 6814POPC   D2A32560   4.308  17.461   8.250
 6814POPC   C3A32561   4.342  17.482   7.950
 6814POPC   C4A32562   4.347  17.462   7.650
 6814POPC   C1B32563   4.508  17.439   8.550
 6814POPC   C2B32564   4.571  17.407   8.250
 6814POPC   C3B32565   4.492  17.429   7.950
 6814POPC   C4B32566   4.547  17.394   7.650
 6815POPC   NC332567  27.627  17.509   9.450
 6815POPC   PO432568  27.621  17.499   9.150
 6815POPC   GL132569  27.563  17.460   8.850
 6815POPC   GL232570  27.462  17.479   8.850
 6815POPC   C1A32571  27.569  17.476   8.550
 6815POPC   D2A32572  27.581  17.493   8.250
 6815POPC   C3A32573  27.642  17.487   7.950
 6815POPC   C4A32574  27.623  17.518   7.650
 6815POPC   C1B32575  27.405  17.318   8.550
 6815POPC   C2B32576  27.383  17.367   8.250
 6815POPC   C3B32577  27.366  17.362   7.950
 6815POPC   C4B32578  27.443  17.400   7.650
 6816POPC   NC332579  20.645  25.239   9.450
 6816POPC   PO432580  20.581  25.237   9.150
 6816POPC   GL132581  20.641  25.250   8.850
 6816POPC   GL232582  20.485  25.236   8.850
 6816POPC   C1A32583  20.645  25.299   8.550
 6816POPC   D2A32584  20.605  25.249   8.250
 6816POPC   C3A32585  20.634  25.248   7.950
 6816POPC   C4A32586  20.563  25.235   7.650
 6816POPC   C1B32587  20.340  25.304   8.550
 6816POPC   C2B32588  20.403  25.294   8.250
 6816POPC   C3B32589  20.392  25.351   7.950
 6816POPC   C4B32590  20.390  25.344   7.650
 6817POPC   NC332591  32.200  43.125   9.450
 6817POPC   PO432592  32.219  43.071   9.150
 6817POPC   GL132593  32.271  43.062   8.850
 6817POPC   GL232594  32.125  43.192   8.850
 6817POPC   C1A32595  32.220  43.112   8.550
 6817POPC   D2A32596  32.263  43.142   8.250
 6817POPC   C3A32597  32.245  43.064   7.950
 6817POPC   C4A32598  32.279  43.105   7.650
 6817POPC   C1B32599  32.123  43.323   8.550
 6817POPC   C2B32600  32.109  43.320   8.250
 6817POPC   C3B32601  32.111  43.263   7.950
 6817POPC   C4B32602  32.074  43.330   7.650
 6818POPC   NC332603  42.348  33.040   9.450
 6818POPC   PO432604  42.378  33.056   9.150
 6818POPC   GL132605  42.382  33.006   8.850
 6818POPC   GL232606  42.380  32.954   8.850
 6818POPC   C1A32607  42.286  32.999   8.550
 6818POPC   D2A32608  42.331  33.018   8.250
 6818POPC   C3A32609  42.347  33.033   7.950
 6818POPC   C4A32610  42.361  33.004   7.650
 6818POPC   C1B32611  42.445  32.781   8.550
 6818POPC   C2B32612  42.426  32.834   8.250
 6818POPC   C3B32613  42.439  32.758   7.950
 6818POPC   C4B32614  42.440  32.761   7.650
 6819POPC   NC332615   1.251  12.844   9.450
 6819POPC   PO432616   1.254  12.839   9.150
 6819POPC   GL132617   1.175  12.819   8.850
 6819POPC   GL232618   1.284  12.951   8.850
 6819POPC   C1A32619   1.165  12.817   8.550
 6819POPC   D2A32620   1.232  12.856   8.250
 6819POPC   C3A32621   1.246  12.865   7.950
 6819POPC   C4A32622   1.221  12.828   7.650
 6819POPC   C1B32623   1.411  13.027   8.550
 6819POPC   C2B32624   1.426  12.999   8.250
 6819POPC   C3B32625   1.400  12.974   7.950
 6819POPC   C4B32626   1.424  13.009   7.650
 6820POPC   NC332627   8.215  41.564   9.450
 6820POPC   PO432628   8.203  41.582   9.150
 6820POPC   GL132629   8.244  41.543   8.850
 6820POPC   GL232630   8.316  41.570   8.850
 6820POPC   C1A32631   8.181  41.564   8.550
 6820POPC   D2A32632   8.232  41.564   8.250
 6820POPC   C3A32633   8.189  41.522   7.950
 6820POPC   C4A32634   8.189  41.513   7.650
 6820POPC   C1B32635   8.437  41.654   8.550
 6820POPC   C2B32636   8.450  41.653   8.250
 6820POPC   C3B32637   8.420  41.629   7.950
 6820POPC   C4B32638   8.379  41.705   7.650
 6821POPC   NC332639   5.902  19.057   9.450
 6821POPC   PO432640   5.893  19.093   9.150
 6821POPC   GL132641   5.821  19.103   8.850
 6821POPC   GL232642   5.973  19.030   8.850
 6821POPC   C1A32643   5.902  19.086   8.550
 6821POPC   D2A32644   5.911  19.093   8.250
 6821POPC   C3A32645   5.858  19.064   7.950
 6821POPC   C4A32646   5.900  19.098   7.650
 6821POPC   C1B32647   6.069  19.047   8.550
 6821POPC   C2B32648   6.092  19.100   8.250
 6821POPC   C3B32649   6.072  19.113   7.950
 6821POPC   C4B32650   6.109  19.105   7.650
 6822POPC   NC332651   5.084  14.395   9.450
 6822POPC   PO432652   5.086  14.386   9.150
 6822POPC   GL132653   5.120  14.414   8.850
 6822POPC   GL232654   5.162  14.494   8.850
 6822POPC   C1A32655   5.067  14.409   8.550
 6822POPC   D2A32656   5.131  14.410   8.250
 6822POPC   C3A32657   5.108  14.366   7.950
 6822POPC   C4A32658   5.136  14.447   7.650
 6822POPC   C1B32659   5.284  14.555   8.550
 6822POPC   C2B32660   5.320  14.556   8.250
 6822POPC   C3B32661   5.258  14.598   7.950
 6822POPC   C4B32662   5.308  14.600   7.650
 6823POPC   NC332663  33.031  26.058   9.450
 6823POPC   PO432664  33.000  26.019   9.150
 6823POPC   GL132665  33.024  26.031   8.850
 6823POPC   GL232666  33.164  26.074   8.850
 6823POPC   C1A32667  33.008  26.043   8.550
 6823POPC   D2A32668  33.003  26.007   8.250
 6823POPC   C3A32669  33.019  26.037   7.950
 6823POPC   C4A32670  33.026  26.070   7.650
 6823POPC   C1B32671  33.222  26.170   8.550
 6823POPC   C2B32672  33.246  26.164   8.250
 6823POPC   C3B32673  33.259  26.115   7.950
 6823POPC   C4B32674  33.217  26.158   7.650
 6824POPC   NC332675   9.758   2.015   9.450
 6824POPC   PO432676   9.787   1.978   9.150
 6824POPC   GL132677   9.742   1.988   8.850
 6824POPC   GL232678   9.779   2.074   8.850
 6824POPC   C1A32679   9.776   2.007   8.550
 6824POPC   D2A32680   9.773   2.021   8.250
 6824POPC   C3A32681   9.725   1.948   7.950
 6824POPC   C4A32682   9.711   1.990   7.650
 6824POPC   C1B32683   9.800   2.201   8.550
 6824POPC   C2B32684   9.747   2.280   8.250
 6824POPC   C3B32685   9.816   2.229   7.950
 6824POPC   C4B32686   9.769   2.244   7.650
 6825POPC   NC332687   6.600   4.306   9.450
 6825POPC   PO432688   6.624   4.304   9.150
 6825POPC   GL132689   6.637   4.298   8.850
 6825POPC   GL232690   6.560   4.378   8.850
 6825POPC   C1A32691   6.673   4.315   8.550
 6825POPC   D2A32692   6.674   4.300   8.250
 6825POPC   C3A32693   6.629   4.303   7.950
 6825POPC   C4A32694   6.654   4.330   7.650
 6825POPC   C1B32695   6.506   4.558   8.550
 6825POPC   C2B32696   6.487   4.536   8.250
 6825POPC   C3B32697   6.440   4.490   7.950
 6825POPC   C4B32698   6.510   4.508   7.650
 6826POPC   NC332699   1.222  44.688   9.450
 6826POPC   PO432700   1.166  44.696   9.150
 6826POPC   GL132701   1.227  44.620   8.850
 6826POPC   GL232702   1.209  44.764   8.850
 6826POPC   C1A32703   1.262  44.652   8.550
 6826POPC   D2A32704   1.195  44.618   8.250
 6826POPC   C3A32705   1.197  44.651   7.950
 6826POPC   C4A32706   1.257  44.662   7.650
 6826POPC   C1B32707   1.221  44.884   8.550
 6826POPC   C2B32708   1.258  44.885   8.250
 6826POPC   C3B32709   1.237  44.909   7.950
 6826POPC   C4B32710   1.263  44.941   7.650
 6827POPC   NC332711  22.176   5.108   9.450
 6827POPC   PO432712  22.128   5.133   9.150
 6827POPC   GL132713  22.129   5.119   8.850
 6827POPC   GL232714  22.244   4.976   8.850
 6827POPC   C1A32715  22.154   5.109   8.550
 6827POPC   D2A32716  22.206   5.127   8.250
 6827POPC   C3A32717  22.122   5.054   7.950
 6827POPC   C4A32718  22.177   5.075   7.650
 6827POPC   C1B32719  22.397   4.910   8.550
 6827POPC   C2B32720  22.373   4.886   8.250
 6827POPC   C3B32721  22.313   4.956   7.950
 6827POPC   C4B32722  22.383   4.894   7.650
 6828POPC   NC332723  43.116  26.851   9.450
 6828POPC   PO432724  43.099  26.844   9.150
 6828POPC   GL132725  43.064  26.862   8.850
 6828POPC   GL232726  43.258  26.825   8.850
 6828POPC   C1A32727  43.136  26.865   8.550
 6828POPC   D2A32728  43.121  26.779   8.250
 6828POPC   C3A32729  43.136  26.852   7.950
 6828POPC   C4A32730  43.095  26.804   7.650
 6828POPC   C1B32731  43.340  26.821   8.550
 6828POPC   C2B32732  43.374  26.866   8.250
 6828POPC   C3B32733  43.393  26.894   7.950
 6828POPC   C4B32734  43.306  26.908   7.650
 6829POPC   NC332735  23.748  21.395   9.450
 6829POPC   PO432736  23.733  21.411   9.150
 6829POPC   GL132737  23.743  21.350   8.850
 6829POPC   GL232738  23.754  21.231   8.850
 6829POPC   C1A32739  23.740  21.417   8.550
 6829POPC   D2A32740  23.673  21.408   8.250
 6829POPC   C3A32741  23.674  21.353   7.950
 6829POPC   C4A32742  23.714  21.342   7.650
 6829POPC   C1B32743  23.754  21.173   8.550
 6829POPC   C2B32744  23.715  21.119   8.250
 6829POPC   C3B32745  23.715  21.172   7.950
 6829POPC   C4B32746  23.723  21.115   7.650
 6830POPC   NC332747   5.917   0.431   9.450
 6830POPC   PO432748   5.819   0.484   9.150
 6830POPC   GL132749   5.875   0.411   8.850
 6830POPC   GL232750   5.854   0.553   8.850
 6830POPC   C1A32751   5.910   0.451   8.550
 6830POPC   D2A32752   5.882   0.484   8.250
 6830POPC   C3A32753   5.875   0.465   7.950
 6830POPC   C4A32754   5.875   0.459   7.650
 6830POPC   C1B32755   5.754   0.696   8.550
 6830POPC   C2B32756   5.787   0.687   8.250
 6830POPC   C3B32757   5.718   0.634   7.950
 6830POPC   C4B32758   5.778   0.631   7.650
 6831POPC   NC332759   0.474  21.420   9.450
 6831POPC   PO432760   0.396  21.353   9.150
 6831POPC   GL132761   0.404  21.347   8.850
 6831POPC   GL232762   0.346  21.411   8.850
 6831POPC   C1A32763   0.396  21.357   8.550
 6831POPC   D2A32764   0.485  21.358   8.250
 6831POPC   C3A32765   0.415  21.420   7.950
 6831POPC   C4A32766   0.393  21.436   7.650
 6831POPC   C1B32767   0.193  21.435   8.550
 6831POPC   C2B32768   0.179  21.369   8.250
 6831POPC   C3B32769   0.186  21.437   7.950
 6831POPC   C4B32770   0.231  21.399   7.650
 6832POPC   NC332771   2.027  32.289   9.450
 6832POPC   PO432772   1.942  32.202   9.150
 6832POPC   GL132773   1.951  32.210   8.850
 6832POPC   GL232774   2.044  32.314   8.850
 6832POPC   C1A32775   1.990  32.213   8.550
 6832POPC   D2A32776   2.019  32.232   8.250
 6832POPC   C3A32777   1.977  32.260   7.950
 6832POPC   C4A32778   2.019  32.202   7.650
 6832POPC   C1B32779   2.048  32.520   8.550
 6832POPC   C2B32780   2.054  32.520   8.250
 6832POPC   C3B32781   2.073  32.519   7.950
 6832POPC   C4B32782   2.050  32.431   7.650
 6833POPC   NC332783   1.239  42.380   9.450
 6833POPC   PO432784   1.232  42.312   9.150
 6833POPC   GL132785   1.168  42.365   8.850
 6833POPC   GL232786   1.073  42.216   8.850
 6833POPC   C1A32787   1.233  42.294   8.550
 6833POPC   D2A32788   1.255  42.329   8.250
 6833POPC   C3A32789   1.237  42.322   7.950
 6833POPC   C4A32790   1.170  42.372   7.650
 6833POPC   C1B32791   1.052  42.220   8.550
 6833POPC   C2B32792   0.987  42.149   8.250
 6833POPC   C3B32793   0.977  42.169   7.950
 6833POPC   C4B32794   0.976  42.178   7.650
 6834POPC   NC332795   6.685   8.178   9.450
 6834POPC   PO432796   6.647   8.191   9.150
 6834POPC   GL132797   6.657   8.152   8.850
 6834POPC   GL232798   6.607   8.046   8.850
 6834POPC   C1A32799   6.649   8.199   8.550
 6834POPC   D2A32800   6.637   8.183   8.250
 6834POPC   C3A32801   6.634   8.229   7.950
 6834POPC   C4A32802   6.605   8.222   7.650
 6834POPC   C1B32803   6.645   7.994   8.550
 6834POPC   C2B32804   6.680   7.946   8.250
 6834POPC   C3B32805   6.626   7.914   7.950
 6834POPC   C4B32806   6.611   7.991   7.650
 6835POPC   NC332807  26.841  25.271   9.450
 6835POPC   PO432808  26.835  25.295   9.150
 6835POPC   GL132809  26.825  25.306   8.850
 6835POPC   GL232810  26.934  25.249   8.850
 6835POPC   C1A32811  26.825  25.217   8.550
 6835POPC   D2A32812  26.835  25.274   8.250
 6835POPC   C3A32813  26.780  25.234   7.950
 6835POPC   C4A32814  26.791  25.310   7.650
 6835POPC   C1B32815  27.040  25.200   8.550
 6835POPC   C2B32816  27.094  25.204   8.250
 6835POPC   C3B32817  27.068  25.168   7.950
 6835POPC   C4B32818  27.087  25.176   7.650
 6836POPC   NC332819  23.727  16.716   9.450
 6836POPC   PO432820  23.685  16.743   9.150
 6836POPC   GL132821  23.668  16.734   8.850
 6836POPC   GL232822  23.810  16.681   8.850
 6836POPC   C1A32823  23.745  16.711   8.550
 6836POPC   D2A32824  23.700  16.695   8.250
 6836POPC   C3A32825  23.709  16.708   7.950
 6836POPC   C4A32826  23.712  16.745   7.650
 6836POPC   C1B32827  23.954  16.589   8.550
 6836POPC   C2B32828  23.883  16.597   8.250
 6836POPC   C3B32829  23.876  16.573   7.950
 6836POPC   C4B32830  23.921  16.626   7.650
 6837POPC   NC332831   1.182  15.975   9.450
 6837POPC   PO432832   1.169  15.915   9.150
 6837POPC   GL132833   1.243  15.911   8.850
 6837POPC   GL232834   1.211  15.813   8.850
 6837POPC   C1A32835   1.222  15.934   8.550
 6837POPC   D2A32836   1.168  15.971   8.250
 6837POPC   C3A32837   1.228  15.962   7.950
 6837POPC   C4A32838   1.168  15.978   7.650
 6837POPC   C1B32839   1.199  15.717   8.550
 6837POPC   C2B32840   1.248  15.690   8.250
 6837POPC   C3B32841   1.184  15.716   7.950
 6837POPC   C4B32842   1.258  15.667   7.650
 6838POPC   NC332843  16.709  11.257   9.450
 6838POPC   PO432844  16.683  11.262   9.150
 6838POPC   GL132845  16.776  11.345   8.850
 6838POPC   GL232846  16.680  11.177   8.850
 6838POPC   C1A32847  16.728  11.318   8.550
 6838POPC   D2A32848  16.732  11.296   8.250
 6838POPC   C3A32849  16.768  11.295   7.950
 6838POPC   C4A32850  16.743  11.327   7.650
 6838POPC   C1B32851  16.685  11.068   8.550
 6838POPC   C2B32852  16.679  11.051   8.250
 6838POPC   C3B32853  16.687  11.070   7.950
 6838POPC   C4B32854  16.677  11.044   7.650
 6839POPC   NC332855  34.567   9.740   9.450
 6839POPC   PO432856  34.615   9.742   9.150
 6839POPC   GL132857  34.582   9.720   8.850
 6839POPC   GL232858  34.643   9.886   8.850
 6839POPC   C1A32859  34.545   9.736   8.550
 6839POPC   D2A32860  34.613   9.705   8.250
 6839POPC   C3A32861  34.619   9.712   7.950
 6839POPC   C4A32862  34.567   9.720   7.650
 6839POPC   C1B32863  34.643   9.971   8.550
 6839POPC   C2B32864  34.707   9.937   8.250
 6839POPC   C3B32865  34.670  10.008   7.950
 6839POPC   C4B32866  34.648   9.962   7.650
 6840POPC   NC332867  10.483  19.832   9.450
 6840POPC   PO432868  10.550  19.881   9.150
 6840POPC   GL132869  10.552  19.793   8.850
 6840POPC   GL232870  10.474  19.742   8.850
 6840POPC   C1A32871  10.552  19.805   8.550
 6840POPC   D2A32872  10.500  19.807   8.250
 6840POPC   C3A32873  10.545  19.832   7.950
 6840POPC   C4A32874  10.531  19.803   7.650
 6840POPC   C1B32875  10.498  19.576   8.550
 6840POPC   C2B32876  10.480  19.553   8.250
 6840POPC   C3B32877  10.503  19.604   7.950
 6840POPC   C4B32878  10.479  19.571   7.650
 6841POPC   NC332879  34.532  36.121   9.450
 6841POPC   PO432880  34.565  36.165   9.150
 6841POPC   GL132881  34.606  36.098   8.850
 6841POPC   GL232882  34.711  36.164   8.850
 6841POPC   C1A32883  34.614  36.110   8.550
 6841POPC   D2A32884  34.558  36.114   8.250
 6841POPC   C3A32885  34.594  36.098   7.950
 6841POPC   C4A32886  34.611  36.097   7.650
 6841POPC   C1B32887  34.811  36.208   8.550
 6841POPC   C2B32888  34.852  36.247   8.250
 6841POPC   C3B32889  34.787  36.249   7.950
 6841POPC   C4B32890  34.795  36.228   7.650
 6842POPC   NC332891  36.908  12.064   9.450
 6842POPC   PO432892  36.939  12.069   9.150
 6842POPC   GL132893  36.868  12.074   8.850
 6842POPC   GL232894  36.849  11.941   8.850
 6842POPC   C1A32895  36.865  12.081   8.550
 6842POPC   D2A32896  36.911  12.095   8.250
 6842POPC   C3A32897  36.934  12.080   7.950
 6842POPC   C4A32898  36.873  12.050   7.650
 6842POPC   C1B32899  36.835  11.840   8.550
 6842POPC   C2B32900  36.864  11.869   8.250
 6842POPC   C3B32901  36.803  11.805   7.950
 6842POPC   C4B32902  36.853  11.806   7.650
 6843POPC   NC332903  30.719  21.358   9.450
 6843POPC   PO432904  30.688  21.416   9.150
 6843POPC   GL132905  30.647  21.402   8.850
 6843POPC   GL232906  30.668  21.447   8.850
 6843POPC   C1A32907  30.652  21.344   8.550
 6843POPC   D2A32908  30.690  21.376   8.250
 6843POPC   C3A32909  30.701  21.422   7.950
 6843POPC   C4A32910  30.680  21.344   7.650
 6843POPC   C1B32911  30.545  21.639   8.550
 6843POPC   C2B32912  30.557  21.568   8.250
 6843POPC   C3B32913  30.566  21.624   7.950
 6843POPC   C4B32914  30.627  21.576   7.650
 6844POPC   NC332915  20.577  14.414   9.450
 6844POPC   PO432916  20.615  14.369   9.150
 6844POPC   GL132917  20.611  14.427   8.850
 6844POPC   GL232918  20.727  14.420   8.850
 6844POPC   C1A32919  20.574  14.438   8.550
 6844POPC   D2A32920  20.566  14.438   8.250
 6844POPC   C3A32921  20.622  14.452   7.950
 6844POPC   C4A32922  20.561  14.361   7.650
 6844POPC   C1B32923  20.844  14.526   8.550
 6844POPC   C2B32924  20.877  14.577   8.250
 6844POPC   C3B32925  20.826  14.543   7.950
 6844POPC   C4B32926  20.850  14.502   7.650
 6845POPC   NC332927   8.990  17.510   9.450
 6845POPC   PO432928   8.980  17.522   9.150
 6845POPC   GL132929   9.012  17.547   8.850
 6845POPC   GL232930   9.063  17.539   8.850
 6845POPC   C1A32931   8.970  17.481   8.550
 6845POPC   D2A32932   8.943  17.543   8.250
 6845POPC   C3A32933   8.971  17.543   7.950
 6845POPC   C4A32934   8.967  17.491   7.650
 6845POPC   C1B32935   9.246  17.533   8.550
 6845POPC   C2B32936   9.196  17.474   8.250
 6845POPC   C3B32937   9.268  17.529   7.950
 6845POPC   C4B32938   9.200  17.553   7.650
 6846POPC   NC332939  44.699  17.540   9.450
 6846POPC   PO432940  44.685  17.463   9.150
 6846POPC   GL132941  44.620  17.504   8.850
 6846POPC   GL232942  44.765  17.502   8.850
 6846POPC   C1A32943  44.675  17.476   8.550
 6846POPC   D2A32944  44.646  17.460   8.250
 6846POPC   C3A32945  44.680  17.550   7.950
 6846POPC   C4A32946  44.688  17.477   7.650
 6846POPC   C1B32947  44.924  17.534   8.550
 6846POPC   C2B32948  44.889  17.593   8.250
 6846POPC   C3B32949  44.887  17.515   7.950
 6846POPC   C4B32950  44.889  17.590   7.650
 6847POPC   NC332951  10.565  15.220   9.450
 6847POPC   PO432952  10.552  15.143   9.150
 6847POPC   GL132953  10.559  15.199   8.850
 6847POPC   GL232954  10.654  15.104   8.850
 6847POPC   C1A32955  10.493  15.148   8.550
 6847POPC   D2A32956  10.526  15.210   8.250
 6847POPC   C3A32957  10.560  15.136   7.950
 6847POPC   C4A32958  10.509  15.181   7.650
 6847POPC   C1B32959  10.723  14.994   8.550
 6847POPC   C2B32960  10.664  15.045   8.250
 6847POPC   C3B32961  10.724  14.986   7.950
 6847POPC   C4B32962  10.687  15.034   7.650
 6848POPC   NC332963   6.637  22.156   9.450
 6848POPC   PO432964   6.598  22.120   9.150
 6848POPC   GL132965   6.628  22.141   8.850
 6848POPC   GL232966   6.791  22.163   8.850
 6848POPC   C1A32967   6.638  22.182   8.550
 6848POPC   D2A32968   6.694  22.128   8.250
 6848POPC   C3A32969   6.610  22.132   7.950
 6848POPC   C4A32970   6.684  22.186   7.650
 6848POPC   C1B32971   6.845  22.174   8.550
 6848POPC   C2B32972   6.896  22.216   8.250
 6848POPC   C3B32973   6.920  22.213   7.950
 6848POPC   C4B32974   6.923  22.188   7.650
 6849POPC   NC332975  36.169  36.952   9.450
 6849POPC   PO432976  36.117  36.913   9.150
 6849POPC   GL132977  36.153  36.862   8.850
 6849POPC   GL232978  35.975  36.841   8.850
 6849POPC   C1A32979  36.098  36.902   8.550
 6849POPC   D2A32980  36.174  36.945   8.250
 6849POPC   C3A32981  36.114  36.949   7.950
 6849POPC   C4A32982  36.177  36.936   7.650
 6849POPC   C1B32983  35.885  36.750   8.550
 6849POPC   C2B32984  35.905  36.756   8.250
 6849POPC   C3B32985  35.946  36.829   7.950
 6849POPC   C4B32986  35.893  36.836   7.650
 6850POPC   NC332987  36.885  21.409   9.450
 6850POPC   PO432988  36.873  21.424   9.150
 6850POPC   GL132989  36.867  21.417   8.850
 6850POPC   GL232990  36.958  21.270   8.850
 6850POPC   C1A32991  36.915  21.370   8.550
 6850POPC   D2A32992  36.935  21.355   8.250
 6850POPC   C3A32993  36.874  21.433   7.950
 6850POPC   C4A32994  36.888  21.369   7.650
 6850POPC   C1B32995  36.999  21.191   8.550
 6850POPC   C2B32996  36.951  21.107   8.250
 6850POPC   C3B32997  36.933  21.148   7.950
 6850POPC   C4B32998  36.957  21.139   7.650
 6851POPC   NC332999  37.639  12.096   9.450
 6851POPC   PO433000  37.709  12.033   9.150
 6851POPC   GL133001  37.646  12.104   8.850
 6851POPC   GL233002  37.592  11.919   8.850
 6851POPC   C1A33003  37.698  12.075   8.550
 6851POPC   D2A33004  37.676  12.107   8.250
 6851POPC   C3A33005  37.652  12.078   7.950
 6851POPC   C4A33006  37.718  12.038   7.650
 6851POPC   C1B33007  37.567  11.812   8.550
 6851POPC   C2B33008  37.623  11.878   8.250
 6851POPC   C3B33009  37.525  11.828   7.950
 6851POPC   C4B33010  37.594  11.827   7.650
 6852POPC   NC333011  19.032  41.548   9.450
 6852POPC   PO433012  19.016  41.515   9.150
 6852POPC   GL133013  19.063  41.562   8.850
 6852POPC   GL233014  19.023  41.625   8.850
 6852POPC   C1A33015  19.093  41.573   8.550
 6852POPC   D2A33016  19.061  41.527   8.250
 6852POPC   C3A33017  19.056  41.581   7.950
 6852POPC   C4A33018  19.101  41.516   7.650
 6852POPC   C1B33019  18.904  41.790   8.550
 6852POPC   C2B33020  18.912  41.729   8.250
 6852POPC   C3B33021  18.873  41.779   7.950
 6852POPC   C4B33022  18.878  41.794   7.650
 6853POPC   NC333023  28.340  38.482   9.450
 6853POPC   PO433024  28.334  38.434   9.150
 6853POPC   GL133025  28.327  38.433   8.850
 6853POPC   GL233026  28.263  38.488   8.850
 6853POPC   C1A33027  28.380  38.488   8.550
 6853POPC   D2A33028  28.364  38.448   8.250
 6853POPC   C3A33029  28.418  38.454   7.950
 6853POPC   C4A33030  28.360  38.487   7.650
 6853POPC   C1B33031  28.170  38.494   8.550
 6853POPC   C2B33032  28.104  38.498   8.250
 6853POPC   C3B33033  28.101  38.495   7.950
 6853POPC   C4B33034  28.094  38.476   7.650
 6854POPC   NC333035  40.012  22.174   9.450
 6854POPC   PO433036  40.038  22.156   9.150
 6854POPC   GL133037  39.992  22.176   8.850
 6854POPC   GL233038  40.006  22.316   8.850
 6854POPC   C1A33039  40.028  22.130   8.550
 6854POPC   D2A33040  39.978  22.176   8.250
 6854POPC   C3A33041  40.038  22.154   7.950
 6854POPC   C4A33042  39.974  22.193   7.650
 6854POPC   C1B33043  39.964  22.433   8.550
 6854POPC   C2B33044  39.952  22.401   8.250
 6854POPC   C3B33045  39.970  22.382   7.950
 6854POPC   C4B33046  39.914  22.368   7.650
 6855POPC   NC333047  12.865   9.714   9.450
 6855POPC   PO433048  12.882   9.726   9.150
 6855POPC   GL133049  12.851   9.707   8.850
 6855POPC   GL233050  12.908   9.870   8.850
 6855POPC   C1A33051  12.833   9.790   8.550
 6855POPC   D2A33052  12.864   9.769   8.250
 6855POPC   C3A33053  12.871   9.704   7.950
 6855POPC   C4A33054  12.854   9.717   7.650
 6855POPC   C1B33055  12.918   9.972   8.550
 6855POPC   C2B33056  12.903   9.988   8.250
 6855POPC   C3B33057  12.912   9.964   7.950
 6855POPC   C4B33058  12.856  10.022   7.650
 6856POPC   NC333059  19.880  15.949   9.450
 6856POPC   PO433060  19.813  15.943   9.150
 6856POPC   GL133061  19.839  15.967   8.850
 6856POPC   GL233062  19.741  15.915   8.850
 6856POPC   C1A33063  19.786  15.992   8.550
 6856POPC   D2A33064  19.792  15.979   8.250
 6856POPC   C3A33065  19.803  15.938   7.950
 6856POPC   C4A33066  19.861  15.986   7.650
 6856POPC   C1B33067  19.597  15.922   8.550
 6856POPC   C2B33068  19.567  15.867   8.250
 6856POPC   C3B33069  19.594  15.940   7.950
 6856POPC   C4B33070  19.632  15.870   7.650
 6857POPC   NC333071  22.190  29.130   9.450
 6857POPC   PO433072  22.157  29.185   9.150
 6857POPC   GL133073  22.193  29.135   8.850
 6857POPC   GL233074  22.206  29.047   8.850
 6857POPC   C1A33075  22.202  29.100   8.550
 6857POPC   D2A33076  22.162  29.109   8.250
 6857POPC   C3A33077  22.181  29.170   7.950
 6857POPC   C4A33078  22.195  29.174   7.650
 6857POPC   C1B33079  22.194  28.938   8.550
 6857POPC   C2B33080  22.151  28.872   8.250
 6857POPC   C3B33081  22.151  28.848   7.950
 6857POPC   C4B33082  22.156  28.880   7.650
 6858POPC   NC333083  26.072  43.158   9.450
 6858POPC   PO433084  26.065  43.113   9.150
 6858POPC   GL133085  26.060  43.079   8.850
 6858POPC   GL233086  25.908  43.078   8.850
 6858POPC   C1A33087  26.031  43.073   8.550
 6858POPC   D2A33088  26.060  43.098   8.250
 6858POPC   C3A33089  26.010  43.068   7.950
 6858POPC   C4A33090  26.081  43.146   7.650
 6858POPC   C1B33091  25.766  43.106   8.550
 6858POPC   C2B33092  25.782  43.130   8.250
 6858POPC   C3B33093  25.838  43.054   7.950
 6858POPC   C4B33094  25.816  43.125   7.650
 6859POPC   NC333095  29.949  13.672   9.450
 6859POPC   PO433096  29.945  13.678   9.150
 6859POPC   GL133097  29.884  13.611   8.850
 6859POPC   GL233098  29.758  13.625   8.850
 6859POPC   C1A33099  29.942  13.675   8.550
 6859POPC   D2A33100  29.918  13.637   8.250
 6859POPC   C3A33101  29.875  13.637   7.950
 6859POPC   C4A33102  29.942  13.628   7.650
 6859POPC   C1B33103  29.668  13.741   8.550
 6859POPC   C2B33104  29.635  13.740   8.250
 6859POPC   C3B33105  29.669  13.687   7.950
 6859POPC   C4B33106  29.716  13.683   7.650
 6860POPC   NC333107   2.802  12.856   9.450
 6860POPC   PO433108   2.769  12.827   9.150
 6860POPC   GL133109   2.796  12.814   8.850
 6860POPC   GL233110   2.648  12.925   8.850
 6860POPC   C1A33111   2.781  12.811   8.550
 6860POPC   D2A33112   2.719  12.832   8.250
 6860POPC   C3A33113   2.731  12.889   7.950
 6860POPC   C4A33114   2.779  12.881   7.650
 6860POPC   C1B33115   2.549  12.920   8.550
 6860POPC   C2B33116   2.505  12.955   8.250
 6860POPC   C3B33117   2.510  12.981   7.950
 6860POPC   C4B33118   2.582  13.000   7.650
 6861POPC   NC333119  27.630  22.204   9.450
 6861POPC   PO433120  27.635  22.148   9.150
 6861POPC   GL133121  27.559  22.127   8.850
 6861POPC   GL233122  27.469  22.137   8.850
 6861POPC   C1A33123  27.564  22.179   8.550
 6861POPC   D2A33124  27.570  22.125   8.250
 6861POPC   C3A33125  27.551  22.188   7.950
 6861POPC   C4A33126  27.552  22.172   7.650
 6861POPC   C1B33127  27.359  22.077   8.550
 6861POPC   C2B33128  27.326  22.082   8.250
 6861POPC   C3B33129  27.367  22.054   7.950
 6861POPC   C4B33130  27.336  22.071   7.650
 6862POPC   NC333131  19.098   3.509   9.450
 6862POPC   PO433132  19.038   3.501   9.150
 6862POPC   GL133133  19.050   3.511   8.850
 6862POPC   GL233134  19.171   3.621   8.850
 6862POPC   C1A33135  19.024   3.508   8.550
 6862POPC   D2A33136  19.041   3.512   8.250
 6862POPC   C3A33137  19.026   3.499   7.950
 6862POPC   C4A33138  19.054   3.577   7.650
 6862POPC   C1B33139  19.292   3.639   8.550
 6862POPC   C2B33140  19.271   3.678   8.250
 6862POPC   C3B33141  19.254   3.671   7.950
 6862POPC   C4B33142  19.218   3.686   7.650
 6863POPC   NC333143  22.960   8.977   9.450
 6863POPC   PO433144  22.936   9.005   9.150
 6863POPC   GL133145  22.929   9.008   8.850
 6863POPC   GL233146  22.940   8.880   8.850
 6863POPC   C1A33147  22.981   9.008   8.550
 6863POPC   D2A33148  22.935   8.931   8.250
 6863POPC   C3A33149  22.905   8.990   7.950
 6863POPC   C4A33150  22.890   9.013   7.650
 6863POPC   C1B33151  22.886   8.682   8.550
 6863POPC   C2B33152  22.906   8.763   8.250
 6863POPC   C3B33153  22.872   8.761   7.950
 6863POPC   C4B33154  22.899   8.694   7.650
 6864POPC   NC333155  29.957  12.102   9.450
 6864POPC   PO433156  29.882  12.049   9.150
 6864POPC   GL133157  29.943  12.065   8.850
 6864POPC   GL233158  29.922  12.178   8.850
 6864POPC   C1A33159  29.907  12.045   8.550
 6864POPC   D2A33160  29.957  12.070   8.250
 6864POPC   C3A33161  29.934  12.058   7.950
 6864POPC   C4A33162  29.895  12.096   7.650
 6864POPC   C1B33163  29.935  12.346   8.550
 6864POPC   C2B33164  29.932  12.375   8.250
 6864POPC   C3B33165  29.911  12.324   7.950
 6864POPC   C4B33166  29.881  12.345   7.650
 6865POPC   NC333167  10.540  29.110   9.450
 6865POPC   PO433168  10.514  29.168   9.150
 6865POPC   GL133169  10.480  29.105   8.850
 6865POPC   GL233170  10.484  29.034   8.850
 6865POPC   C1A33171  10.516  29.165   8.550
 6865POPC   D2A33172  10.535  29.097   8.250
 6865POPC   C3A33173  10.534  29.175   7.950
 6865POPC   C4A33174  10.522  29.143   7.650
 6865POPC   C1B33175  10.492  28.911   8.550
 6865POPC   C2B33176  10.562  28.850   8.250
 6865POPC   C3B33177  10.486  28.914   7.950
 6865POPC   C4B33178  10.527  28.942   7.650
 6866POPC   NC333179  22.209  44.686   9.450
 6866POPC   PO433180  22.156  44.637   9.150
 6866POPC   GL133181  22.157  44.656   8.850
 6866POPC   GL233182  22.267  44.804   8.850
 6866POPC   C1A33183  22.133  44.660   8.550
 6866POPC   D2A33184  22.199  44.699   8.250
 6866POPC   C3A33185  22.178  44.621   7.950
 6866POPC   C4A33186  22.185  44.666   7.650
 6866POPC   C1B33187  22.279  44.863   8.550
 6866POPC   C2B33188  22.231  44.862   8.250
 6866POPC   C3B33189  22.317  44.906   7.950
 6866POPC   C4B33190  22.250  44.882   7.650
 6867POPC   NC333191   2.759  15.953   9.450
 6867POPC   PO433192   2.772  15.906   9.150
 6867POPC   GL133193   2.767  15.972   8.850
 6867POPC   GL233194   2.873  15.881   8.850
 6867POPC   C1A33195   2.787  15.949   8.550
 6867POPC   D2A33196   2.752  15.970   8.250
 6867POPC   C3A33197   2.724  15.960   7.950
 6867POPC   C4A33198   2.786  15.932   7.650
 6867POPC   C1B33199   2.939  15.791   8.550
 6867POPC   C2B33200   2.938  15.762   8.250
 6867POPC   C3B33201   2.900  15.724   7.950
 6867POPC   C4B33202   2.946  15.736   7.650
 6868POPC   NC333203  22.139  16.714   9.450
 6868POPC   PO433204  22.210  16.719   9.150
 6868POPC   GL133205  22.171  16.688   8.850
 6868POPC   GL233206  22.290  16.744   8.850
 6868POPC   C1A33207  22.118  16.690   8.550
 6868POPC   D2A33208  22.134  16.684   8.250
 6868POPC   C3A33209  22.112  16.731   7.950
 6868POPC   C4A33210  22.155  16.765   7.650
 6868POPC   C1B33211  22.385  16.807   8.550
 6868POPC   C2B33212  22.363  16.826   8.250
 6868POPC   C3B33213  22.362  16.801   7.950
 6868POPC   C4B33214  22.356  16.792   7.650
 6869POPC   NC333215  42.319  24.457   9.450
 6869POPC   PO433216  42.329  24.522   9.150
 6869POPC   GL133217  42.335  24.529   8.850
 6869POPC   GL233218  42.229  24.443   8.850
 6869POPC   C1A33219  42.383  24.469   8.550
 6869POPC   D2A33220  42.344  24.452   8.250
 6869POPC   C3A33221  42.318  24.522   7.950
 6869POPC   C4A33222  42.345  24.498   7.650
 6869POPC   C1B33223  42.115  24.388   8.550
 6869POPC   C2B33224  42.099  24.460   8.250
 6869POPC   C3B33225  42.088  24.399   7.950
 6869POPC   C4B33226  42.061  24.452   7.650
 6870POPC   NC333227  39.969  43.889   9.450
 6870POPC   PO433228  40.001  43.914   9.150
 6870POPC   GL133229  39.993  43.848   8.850
 6870POPC   GL233230  40.073  43.800   8.850
 6870POPC   C1A33231  40.029  43.890   8.550
 6870POPC   D2A33232  39.957  43.914   8.250
 6870POPC   C3A33233  39.991  43.908   7.950
 6870POPC   C4A33234  40.047  43.907   7.650
 6870POPC   C1B33235  40.142  43.705   8.550
 6870POPC   C2B33236  40.189  43.635   8.250
 6870POPC   C3B33237  40.171  43.689   7.950
 6870POPC   C4B33238  40.153  43.654   7.650
 6871POPC   NC333239  17.504  42.376   9.450
 6871POPC   PO433240  17.527  42.340   9.150
 6871POPC   GL133241  17.483  42.345   8.850
 6871POPC   GL233242  17.468  42.414   8.850
 6871POPC   C1A33243  17.497  42.308   8.550
 6871POPC   D2A33244  17.523  42.289   8.250
 6871POPC   C3A33245  17.482  42.352   7.950
 6871POPC   C4A33246  17.494  42.325   7.650
 6871POPC   C1B33247  17.367  42.562   8.550
 6871POPC   C2B33248  17.393  42.497   8.250
 6871POPC   C3B33249  17.421  42.574   7.950
 6871POPC   C4B33250  17.327  42.548   7.650
 6872POPC   NC333251  10.527  41.581   9.450
 6872POPC   PO433252  10.556  41.568   9.150
 6872POPC   GL133253  10.499  41.604   8.850
 6872POPC   GL233254  10.434  41.468   8.850
 6872POPC   C1A33255  10.503  41.515   8.550
 6872POPC   D2A33256  10.483  41.590   8.250
 6872POPC   C3A33257  10.474  41.519   7.950
 6872POPC   C4A33258  10.547  41.552   7.650
 6872POPC   C1B33259  10.391  41.385   8.550
 6872POPC   C2B33260  10.374  41.380   8.250
 6872POPC   C3B33261  10.328  41.416   7.950
 6872POPC   C4B33262  10.332  41.412   7.650
 6873POPC   NC333263  27.573  39.992   9.450
 6873POPC   PO433264  27.585  40.001   9.150
 6873POPC   GL133265  27.550  40.017   8.850
 6873POPC   GL233266  27.451  40.077   8.850
 6873POPC   C1A33267  27.554  40.029   8.550
 6873POPC   D2A33268  27.636  39.993   8.250
 6873POPC   C3A33269  27.587  39.965   7.950
 6873POPC   C4A33270  27.612  40.021   7.650
 6873POPC   C1B33271  27.394  40.144   8.550
 6873POPC   C2B33272  27.359  40.096   8.250
 6873POPC   C3B33273  27.317  40.076   7.950
 6873POPC   C4B33274  27.390  40.133   7.650
 6874POPC   NC333275  40.044  17.540   9.450
 6874POPC   PO433276  39.980  17.538   9.150
 6874POPC   GL133277  39.994  17.481   8.850
 6874POPC   GL233278  40.042  17.637   8.850
 6874POPC   C1A33279  39.975  17.483   8.550
 6874POPC   D2A33280  40.007  17.537   8.250
 6874POPC   C3A33281  40.042  17.536   7.950
 6874POPC   C4A33282  40.021  17.463   7.650
 6874POPC   C1B33283  39.978  17.730   8.550
 6874POPC   C2B33284  39.997  17.776   8.250
 6874POPC   C3B33285  39.944  17.787   7.950
 6874POPC   C4B33286  39.946  17.725   7.650
 6875POPC   NC333287  34.567   5.064   9.450
 6875POPC   PO433288  34.561   5.095   9.150
 6875POPC   GL133289  34.584   5.111   8.850
 6875POPC   GL233290  34.559   5.008   8.850
 6875POPC   C1A33291  34.540   5.090   8.550
 6875POPC   D2A33292  34.611   5.087   8.250
 6875POPC   C3A33293  34.561   5.058   7.950
 6875POPC   C4A33294  34.534   5.062   7.650
 6875POPC   C1B33295  34.606   4.864   8.550
 6875POPC   C2B33296  34.617   4.805   8.250
 6875POPC   C3B33297  34.539   4.841   7.950
 6875POPC   C4B33298  34.611   4.808   7.650
 6876POPC   NC333299  36.895  15.921   9.450
 6876POPC   PO433300  36.918  15.997   9.150
 6876POPC   GL133301  36.921  15.978   8.850
 6876POPC   GL233302  36.759  15.998   8.850
 6876POPC   C1A33303  36.876  15.998   8.550
 6876POPC   D2A33304  36.951  15.932   8.250
 6876POPC   C3A33305  36.861  15.917   7.950
 6876POPC   C4A33306  36.933  15.928   7.650
 6876POPC   C1B33307  36.664  15.915   8.550
 6876POPC   C2B33308  36.617  15.898   8.250
 6876POPC   C3B33309  36.619  15.922   7.950
 6876POPC   C4B33310  36.613  15.938   7.650
 6877POPC   NC333311  33.014  21.434   9.450
 6877POPC   PO433312  33.036  21.342   9.150
 6877POPC   GL133313  33.017  21.362   8.850
 6877POPC   GL233314  32.897  21.520   8.850
 6877POPC   C1A33315  33.057  21.339   8.550
 6877POPC   D2A33316  33.015  21.359   8.250
 6877POPC   C3A33317  33.019  21.399   7.950
 6877POPC   C4A33318  33.033  21.406   7.650
 6877POPC   C1B33319  32.843  21.569   8.550
 6877POPC   C2B33320  32.892  21.547   8.250
 6877POPC   C3B33321  32.837  21.541   7.950
 6877POPC   C4B33322  32.816  21.556   7.650
 6878POPC   NC333323  28.384  20.564   9.450
 6878POPC   PO433324  28.387  20.640   9.150
 6878POPC   GL133325  28.372  20.640   8.850
 6878POPC   GL233326  28.416  20.706   8.850
 6878POPC   C1A33327  28.370  20.631   8.550
 6878POPC   D2A33328  28.385  20.624   8.250
 6878POPC   C3A33329  28.382  20.599   7.950
 6878POPC   C4A33330  28.371  20.656   7.650
 6878POPC   C1B33331  28.435  20.886   8.550
 6878POPC   C2B33332  28.372  20.834   8.250
 6878POPC   C3B33333  28.395  20.815   7.950
 6878POPC   C4B33334  28.383  20.902   7.650
 6879POPC   NC333335  44.666  19.100   9.450
 6879POPC   PO433336  44.675  19.095   9.150
 6879POPC   GL133337  44.670  19.052   8.850
 6879POPC   GL233338  44.726  18.971   8.850
 6879POPC   C1A33339  44.655  19.055   8.550
 6879POPC   D2A33340  44.661  19.040   8.250
 6879POPC   C3A33341  44.625  19.097   7.950
 6879POPC   C4A33342  44.693  19.079   7.650
 6879POPC   C1B33343  44.844  18.874   8.550
 6879POPC   C2B33344  44.816  18.904   8.250
 6879POPC   C3B33345  44.807  18.824   7.950
 6879POPC   C4B33346  44.847  18.814   7.650
 6880POPC   NC333347  40.041   0.427   9.450
 6880POPC   PO433348  39.961   0.416   9.150
 6880POPC   GL133349  39.996   0.484   8.850
 6880POPC   GL233350  40.053   0.572   8.850
 6880POPC   C1A33351  40.020   0.444   8.550
 6880POPC   D2A33352  40.006   0.424   8.250
 6880POPC   C3A33353  39.961   0.419   7.950
 6880POPC   C4A33354  40.033   0.398   7.650
 6880POPC   C1B33355  40.188   0.620   8.550
 6880POPC   C2B33356  40.186   0.643   8.250
 6880POPC   C3B33357  40.169   0.620   7.950
 6880POPC   C4B33358  40.123   0.683   7.650
 6881POPC   NC333359  37.714  13.664   9.450
 6881POPC   PO433360  37.650  13.649   9.150
 6881POPC   GL133361  37.672  13.641   8.850
 6881POPC   GL233362  37.829  13.571   8.850
 6881POPC   C1A33363  37.681  13.638   8.550
 6881POPC   D2A33364  37.688  13.644   8.250
 6881POPC   C3A33365  37.709  13.646   7.950
 6881POPC   C4A33366  37.725  13.661   7.650
 6881POPC   C1B33367  37.873  13.491   8.550
 6881POPC   C2B33368  37.928  13.520   8.250
 6881POPC   C3B33369  37.889  13.512   7.950
 6881POPC   C4B33370  37.883  13.446   7.650
 6882POPC   NC333371   9.769  26.064   9.450
 6882POPC   PO433372   9.769  26.084   9.150
 6882POPC   GL133373   9.742  26.048   8.850
 6882POPC   GL233374   9.646  26.043   8.850
 6882POPC   C1A33375   9.723  26.026   8.550
 6882POPC   D2A33376   9.709  26.029   8.250
 6882POPC   C3A33377   9.703  25.992   7.950
 6882POPC   C4A33378   9.744  26.089   7.650
 6882POPC   C1B33379   9.497  26.054   8.550
 6882POPC   C2B33380   9.510  25.989   8.250
 6882POPC   C3B33381   9.463  25.991   7.950
 6882POPC   C4B33382   9.454  26.060   7.650
 6883POPC   NC333383  34.547  33.785   9.450
 6883POPC   PO433384  34.541  33.810   9.150
 6883POPC   GL133385  34.611  33.756   8.850
 6883POPC   GL233386  34.504  33.758   8.850
 6883POPC   C1A33387  34.592  33.821   8.550
 6883POPC   D2A33388  34.548  33.799   8.250
 6883POPC   C3A33389  34.597  33.842   7.950
 6883POPC   C4A33390  34.571  33.788   7.650
 6883POPC   C1B33391  34.366  33.670   8.550
 6883POPC   C2B33392  34.301  33.673   8.250
 6883POPC   C3B33393  34.304  33.745   7.950
 6883POPC   C4B33394  34.360  33.695   7.650
 6884POPC   NC333395  37.664  20.570   9.450
 6884POPC   PO433396  37.684  20.591   9.150
 6884POPC   GL133397  37.637  20.579   8.850
 6884POPC   GL233398  37.583  20.521   8.850
 6884POPC   C1A33399  37.718  20.650   8.550
 6884POPC   D2A33400  37.636  20.656   8.250
 6884POPC   C3A33401  37.718  20.653   7.950
 6884POPC   C4A33402  37.676  20.655   7.650
 6884POPC   C1B33403  37.602  20.384   8.550
 6884POPC   C2B33404  37.521  20.396   8.250
 6884POPC   C3B33405  37.529  20.392   7.950
 6884POPC   C4B33406  37.540  20.359   7.650
 6885POPC   NC333407  30.737  31.514   9.450
 6885POPC   PO433408  30.732  31.456   9.150
 6885POPC   GL133409  30.652  31.486   8.850
 6885POPC   GL233410  30.844  31.500   8.850
 6885POPC   C1A33411  30.653  31.436   8.550
 6885POPC   D2A33412  30.664  31.476   8.250
 6885POPC   C3A33413  30.652  31.438   7.950
 6885POPC   C4A33414  30.659  31.456   7.650
 6885POPC   C1B33415  30.935  31.499   8.550
 6885POPC   C2B33416  30.990  31.454   8.250
 6885POPC   C3B33417  30.934  31.464   7.950
 6885POPC   C4B33418  30.914  31.451   7.650
 6886POPC   NC333419  41.556  22.160   9.450
 6886POPC   PO433420  41.607  22.200   9.150
 6886POPC   GL133421  41.511  22.210   8.850
 6886POPC   GL233422  41.446  22.181   8.850
 6886POPC   C1A33423  41.579  22.161   8.550
 6886POPC   D2A33424  41.558  22.178   8.250
 6886POPC   C3A33425  41.529  22.133   7.950
 6886POPC   C4A33426  41.534  22.164   7.650
 6886POPC   C1B33427  41.287  22.118   8.550
 6886POPC   C2B33428  41.332  22.158   8.250
 6886POPC   C3B33429  41.260  22.112   7.950
 6886POPC   C4B33430  41.270  22.148   7.650
 6887POPC   NC333431  24.505   5.904   9.450
 6887POPC   PO433432  24.450   5.876   9.150
 6887POPC   GL133433  24.531   5.869   8.850
 6887POPC   GL233434  24.570   5.955   8.850
 6887POPC   C1A33435  24.538   5.913   8.550
 6887POPC   D2A33436  24.452   5.855   8.250
 6887POPC   C3A33437  24.530   5.860   7.950
 6887POPC   C4A33438  24.504   5.897   7.650
 6887POPC   C1B33439  24.576   6.138   8.550
 6887POPC   C2B33440  24.556   6.089   8.250
 6887POPC   C3B33441  24.521   6.060   7.950
 6887POPC   C4B33442  24.556   6.090   7.650
 6888POPC   NC333443  22.204   8.227   9.450
 6888POPC   PO433444  22.149   8.171   9.150
 6888POPC   GL133445  22.188   8.148   8.850
 6888POPC   GL233446  22.101   8.256   8.850
 6888POPC   C1A33447  22.175   8.246   8.550
 6888POPC   D2A33448  22.135   8.240   8.250
 6888POPC   C3A33449  22.117   8.241   7.950
 6888POPC   C4A33450  22.164   8.197   7.650
 6888POPC   C1B33451  21.986   8.357   8.550
 6888POPC   C2B33452  21.927   8.296   8.250
 6888POPC   C3B33453  21.952   8.341   7.950
 6888POPC   C4B33454  21.969   8.363   7.650
 6889POPC   NC333455  29.942  41.589   9.450
 6889POPC   PO433456  29.966  41.576   9.150
 6889POPC   GL133457  29.969  41.520   8.850
 6889POPC   GL233458  30.021  41.444   8.850
 6889POPC   C1A33459  29.907  41.599   8.550
 6889POPC   D2A33460  29.951  41.563   8.250
 6889POPC   C3A33461  29.876  41.596   7.950
 6889POPC   C4A33462  29.950  41.552   7.650
 6889POPC   C1B33463  30.073  41.341   8.550
 6889POPC   C2B33464  30.072  41.346   8.250
 6889POPC   C3B33465  30.063  41.363   7.950
 6889POPC   C4B33466  30.099  41.439   7.650
 6890POPC   NC333467  35.385  37.714   9.450
 6890POPC   PO433468  35.350  37.639   9.150
 6890POPC   GL133469  35.379  37.693   8.850
 6890POPC   GL233470  35.421  37.793   8.850
 6890POPC   C1A33471  35.385  37.671   8.550
 6890POPC   D2A33472  35.324  37.640   8.250
 6890POPC   C3A33473  35.390  37.691   7.950
 6890POPC   C4A33474  35.368  37.709   7.650
 6890POPC   C1B33475  35.535  37.894   8.550
 6890POPC   C2B33476  35.535  37.864   8.250
 6890POPC   C3B33477  35.561  37.827   7.950
 6890POPC   C4B33478  35.554  37.906   7.650
 6891POPC   NC333479  28.386  36.946   9.450
 6891POPC   PO433480  28.406  36.951   9.150
 6891POPC   GL133481  28.384  36.915   8.850
 6891POPC   GL233482  28.322  36.779   8.850
 6891POPC   C1A33483  28.394  36.889   8.550
 6891POPC   D2A33484  28.369  36.905   8.250
 6891POPC   C3A33485  28.391  36.857   7.950
 6891POPC   C4A33486  28.369  36.890   7.650
 6891POPC   C1B33487  28.284  36.645   8.550
 6891POPC   C2B33488  28.204  36.641   8.250
 6891POPC   C3B33489  28.255  36.701   7.950
 6891POPC   C4B33490  28.231  36.693   7.650
 6892POPC   NC333491  21.417  35.346   9.450
 6892POPC   PO433492  21.374  35.351   9.150
 6892POPC   GL133493  21.427  35.316   8.850
 6892POPC   GL233494  21.464  35.435   8.850
 6892POPC   C1A33495  21.388  35.362   8.550
 6892POPC   D2A33496  21.426  35.382   8.250
 6892POPC   C3A33497  21.386  35.338   7.950
 6892POPC   C4A33498  21.357  35.315   7.650
 6892POPC   C1B33499  21.568  35.412   8.550
 6892POPC   C2B33500  21.576  35.498   8.250
 6892POPC   C3B33501  21.647  35.428   7.950
 6892POPC   C4B33502  21.568  35.441   7.650
 6893POPC   NC333503   5.079  16.754   9.450
 6893POPC   PO433504   5.142  16.760   9.150
 6893POPC   GL133505   5.070  16.689   8.850
 6893POPC   GL233506   5.074  16.574   8.850
 6893POPC   C1A33507   5.054  16.721   8.550
 6893POPC   D2A33508   5.089  16.737   8.250
 6893POPC   C3A33509   5.137  16.741   7.950
 6893POPC   C4A33510   5.092  16.742   7.650
 6893POPC   C1B33511   5.069  16.488   8.550
 6893POPC   C2B33512   5.012  16.493   8.250
 6893POPC   C3B33513   5.079  16.448   7.950
 6893POPC   C4B33514   5.002  16.483   7.650
 6894POPC   NC333515  22.929  21.395   9.450
 6894POPC   PO433516  22.971  21.418   9.150
 6894POPC   GL133517  22.966  21.428   8.850
 6894POPC   GL233518  22.811  21.305   8.850
 6894POPC   C1A33519  22.984  21.414   8.550
 6894POPC   D2A33520  22.960  21.358   8.250
 6894POPC   C3A33521  22.910  21.425   7.950
 6894POPC   C4A33522  22.919  21.367   7.650
 6894POPC   C1B33523  22.705  21.324   8.550
 6894POPC   C2B33524  22.671  21.255   8.250
 6894POPC   C3B33525  22.667  21.254   7.950
 6894POPC   C4B33526  22.717  21.319   7.650
 6895POPC   NC333527  23.710  40.825   9.450
 6895POPC   PO433528  23.758  40.829   9.150
 6895POPC   GL133529  23.698  40.751   8.850
 6895POPC   GL233530  23.695  40.630   8.850
 6895POPC   C1A33531  23.685  40.737   8.550
 6895POPC   D2A33532  23.701  40.821   8.250
 6895POPC   C3A33533  23.730  40.819   7.950
 6895POPC   C4A33534  23.747  40.776   7.650
 6895POPC   C1B33535  23.685  40.562   8.550
 6895POPC   C2B33536  23.612  40.568   8.250
 6895POPC   C3B33537  23.660  40.529   7.950
 6895POPC   C4B33538  23.601  40.583   7.650
 6896POPC   NC333539  20.567   9.699   9.450
 6896POPC   PO433540  20.610   9.746   9.150
 6896POPC   GL133541  20.626   9.782   8.850
 6896POPC   GL233542  20.679   9.692   8.850
 6896POPC   C1A33543  20.591   9.715   8.550
 6896POPC   D2A33544  20.619   9.772   8.250
 6896POPC   C3A33545  20.578   9.753   7.950
 6896POPC   C4A33546  20.646   9.748   7.650
 6896POPC   C1B33547  20.824   9.625   8.550
 6896POPC   C2B33548  20.822   9.603   8.250
 6896POPC   C3B33549  20.787   9.628   7.950
 6896POPC   C4B33550  20.840   9.556   7.650
 6897POPC   NC333551   0.407  31.453   9.450
 6897POPC   PO433552   0.476  31.487   9.150
 6897POPC   GL133553   0.467  31.474   8.850
 6897POPC   GL233554   0.308  31.538   8.850
 6897POPC   C1A33555   0.433  31.481   8.550
 6897POPC   D2A33556   0.389  31.423   8.250
 6897POPC   C3A33557   0.429  31.506   7.950
 6897POPC   C4A33558   0.451  31.522   7.650
 6897POPC   C1B33559   0.212  31.602   8.550
 6897POPC   C2B33560   0.202  31.580   8.250
 6897POPC   C3B33561   0.271  31.632   7.950
 6897POPC   C4B33562   0.283  31.577   7.650
 6898POPC   NC333563  13.636  27.605   9.450
 6898POPC   PO433564  13.647  27.632   9.150
 6898POPC   GL133565  13.640  27.586   8.850
 6898POPC   GL233566  13.515  27.704   8.850
 6898POPC   C1A33567  13.611  27.544   8.550
 6898POPC   D2A33568  13.659  27.572   8.250
 6898POPC   C3A33569  13.609  27.556   7.950
 6898POPC   C4A33570  13.579  27.560   7.650
 6898POPC   C1B33571  13.501  27.822   8.550
 6898POPC   C2B33572  13.510  27.773   8.250
 6898POPC   C3B33573  13.489  27.755   7.950
 6898POPC   C4B33574  13.461  27.746   7.650
 6899POPC   NC333575  25.290  20.593   9.450
 6899POPC   PO433576  25.278  20.600   9.150
 6899POPC   GL133577  25.258  20.659   8.850
 6899POPC   GL233578  25.432  20.567   8.850
 6899POPC   C1A33579  25.245  20.561   8.550
 6899POPC   D2A33580  25.229  20.585   8.250
 6899POPC   C3A33581  25.294  20.651   7.950
 6899POPC   C4A33582  25.230  20.656   7.650
 6899POPC   C1B33583  25.514  20.515   8.550
 6899POPC   C2B33584  25.500  20.566   8.250
 6899POPC   C3B33585  25.459  20.590   7.950
 6899POPC   C4B33586  25.509  20.567   7.650
 6900POPC   NC333587  22.183  27.545   9.450
 6900POPC   PO433588  22.148  27.610   9.150
 6900POPC   GL133589  22.167  27.609   8.850
 6900POPC   GL233590  22.221  27.555   8.850
 6900POPC   C1A33591  22.201  27.584   8.550
 6900POPC   D2A33592  22.157  27.560   8.250
 6900POPC   C3A33593  22.203  27.569   7.950
 6900POPC   C4A33594  22.182  27.598   7.650
 6900POPC   C1B33595  22.412  27.442   8.550
 6900POPC   C2B33596  22.406  27.430   8.250
 6900POPC   C3B33597  22.354  27.489   7.950
 6900POPC   C4B33598  22.381  27.445   7.650
 6901POPC   NC333599   2.734  40.049   9.450
 6901POPC   PO433600   2.749  40.005   9.150
 6901POPC   GL133601   2.736  40.034   8.850
 6901POPC   GL233602   2.638  39.933   8.850
 6901POPC   C1A33603   2.806  40.009   8.550
 6901POPC   D2A33604   2.716  39.990   8.250
 6901POPC   C3A33605   2.756  40.042   7.950
 6901POPC   C4A33606   2.779  39.958   7.650
 6901POPC   C1B33607   2.513  39.850   8.550
 6901POPC   C2B33608   2.562  39.840   8.250
 6901POPC   C3B33609   2.598  39.906   7.950
 6901POPC   C4B33610   2.542  39.886   7.650
 6902POPC   NC333611  44.613  10.572   9.450
 6902POPC   PO433612  44.709  10.551   9.150
 6902POPC   GL133613  44.660  10.475   8.850
 6902POPC   GL233614  44.711  10.605   8.850
 6902POPC   C1A33615  44.638  10.511   8.550
 6902POPC   D2A33616  44.632  10.493   8.250
 6902POPC   C3A33617  44.651  10.548   7.950
 6902POPC   C4A33618  44.639  10.497   7.650
 6902POPC   C1B33619  44.659  10.800   8.550
 6902POPC   C2B33620  44.657  10.755   8.250
 6902POPC   C3B33621  44.719  10.755   7.950
 6902POPC   C4B33622  44.622  10.805   7.650
 6903POPC   NC333623  33.000  29.944   9.450
 6903POPC   PO433624  33.019  29.968   9.150
 6903POPC   GL133625  33.071  29.894   8.850
 6903POPC   GL233626  33.042  29.793   8.850
 6903POPC   C1A33627  33.026  29.943   8.550
 6903POPC   D2A33628  33.021  29.921   8.250
 6903POPC   C3A33629  33.019  29.893   7.950
 6903POPC   C4A33630  33.058  29.931   7.650
 6903POPC   C1B33631  32.929  29.668   8.550
 6903POPC   C2B33632  33.018  29.642   8.250
 6903POPC   C3B33633  32.960  29.632   7.950
 6903POPC   C4B33634  33.022  29.666   7.650
 6904POPC   NC333635  34.559  43.921   9.450
 6904POPC   PO433636  34.577  43.867   9.150
 6904POPC   GL133637  34.618  43.922   8.850
 6904POPC   GL233638  34.445  43.791   8.850
 6904POPC   C1A33639  34.593  43.848   8.550
 6904POPC   D2A33640  34.526  43.893   8.250
 6904POPC   C3A33641  34.559  43.870   7.950
 6904POPC   C4A33642  34.605  43.927   7.650
 6904POPC   C1B33643  34.356  43.746   8.550
 6904POPC   C2B33644  34.344  43.834   8.250
 6904POPC   C3B33645  34.343  43.772   7.950
 6904POPC   C4B33646  34.363  43.796   7.650
 6905POPC   NC333647  27.582   1.984   9.450
 6905POPC   PO433648  27.591   1.952   9.150
 6905POPC   GL133649  27.592   2.029   8.850
 6905POPC   GL233650  27.627   2.046   8.850
 6905POPC   C1A33651  27.591   2.014   8.550
 6905POPC   D2A33652  27.573   2.033   8.250
 6905POPC   C3A33653  27.610   2.007   7.950
 6905POPC   C4A33654  27.562   2.020   7.650
 6905POPC   C1B33655  27.790   2.144   8.550
 6905POPC   C2B33656  27.734   2.215   8.250
 6905POPC   C3B33657  27.722   2.218   7.950
 6905POPC   C4B33658  27.770   2.202   7.650
 6906POPC   NC333659   9.022  26.815   9.450
 6906POPC   PO433660   8.930  26.820   9.150
 6906POPC   GL133661   8.986  26.814   8.850
 6906POPC   GL233662   8.884  26.874   8.850
 6906POPC   C1A33663   9.014  26.803   8.550
 6906POPC   D2A33664   8.991  26.779   8.250
 6906POPC   C3A33665   9.007  26.820   7.950
 6906POPC   C4A33666   8.965  26.835   7.650
 6906POPC   C1B33667   8.815  27.002   8.550
 6906POPC   C2B33668   8.783  27.012   8.250
 6906POPC   C3B33669   8.772  27.012   7.950
 6906POPC   C4B33670   8.818  26.985   7.650
 6907POPC   NC333671  28.378  39.973   9.450
 6907POPC   PO433672  28.371  39.970   9.150
 6907POPC   GL133673  28.370  39.968   8.850
 6907POPC   GL233674  28.273  40.059   8.850
 6907POPC   C1A33675  28.354  39.971   8.550
 6907POPC   D2A33676  28.359  39.972   8.250
 6907POPC   C3A33677  28.408  39.964   7.950
 6907POPC   C4A33678  28.417  40.010   7.650
 6907POPC   C1B33679  28.145  40.070   8.550
 6907POPC   C2B33680  28.135  40.047   8.250
 6907POPC   C3B33681  28.121  40.086   7.950
 6907POPC   C4B33682  28.129  40.093   7.650
 6908POPC   NC333683  41.545  26.793   9.450
 6908POPC   PO433684  41.520  26.865   9.150
 6908POPC   GL133685  41.569  26.863   8.850
 6908POPC   GL233686  41.614  26.901   8.850
 6908POPC   C1A33687  41.572  26.864   8.550
 6908POPC   D2A33688  41.536  26.834   8.250
 6908POPC   C3A33689  41.513  26.851   7.950
 6908POPC   C4A33690  41.517  26.794   7.650
 6908POPC   C1B33691  41.699  27.048   8.550
 6908POPC   C2B33692  41.685  27.035   8.250
 6908POPC   C3B33693  41.650  27.097   7.950
 6908POPC   C4B33694  41.620  27.074   7.650
 6909POPC   NC333695  33.062  30.658   9.450
 6909POPC   PO433696  33.018  30.722   9.150
 6909POPC   GL133697  33.061  30.726   8.850
 6909POPC   GL233698  32.957  30.614   8.850
 6909POPC   C1A33699  33.029  30.670   8.550
 6909POPC   D2A33700  33.071  30.742   8.250
 6909POPC   C3A33701  33.056  30.651   7.950
 6909POPC   C4A33702  32.979  30.744   7.650
 6909POPC   C1B33703  32.841  30.572   8.550
 6909POPC   C2B33704  32.824  30.553   8.250
 6909POPC   C3B33705  32.828  30.549   7.950
 6909POPC   C4B33706  32.848  30.580   7.650
 6910POPC   NC333707  33.000  29.121   9.450
 6910POPC   PO433708  32.978  29.131   9.150
 6910POPC   GL133709  33.063  29.188   8.850
 6910POPC   GL233710  32.883  29.050   8.850
 6910POPC   C1A33711  33.061  29.185   8.550
 6910POPC   D2A33712  33.063  29.179   8.250
 6910POPC   C3A33713  32.978  29.117   7.950
 6910POPC   C4A33714  32.988  29.116   7.650
 6910POPC   C1B33715  32.770  29.051   8.550
 6910POPC   C2B33716  32.797  28.985   8.250
 6910POPC   C3B33717  32.810  29.060   7.950
 6910POPC   C4B33718  32.759  29.039   7.650
 6911POPC   NC333719  22.123  43.898   9.450
 6911POPC   PO433720  22.189  43.887   9.150
 6911POPC   GL133721  22.174  43.892   8.850
 6911POPC   GL233722  22.111  44.040   8.850
 6911POPC   C1A33723  22.185  43.867   8.550
 6911POPC   D2A33724  22.183  43.886   8.250
 6911POPC   C3A33725  22.211  43.934   7.950
 6911POPC   C4A33726  22.170  43.878   7.650
 6911POPC   C1B33727  22.037  44.082   8.550
 6911POPC   C2B33728  22.062  44.088   8.250
 6911POPC   C3B33729  21.996  44.122   7.950
 6911POPC   C4B33730  22.014  44.110   7.650
 6912POPC   NC333731  19.811  44.626   9.450
 6912POPC   PO433732  19.789  44.691   9.150
 6912POPC   GL133733  19.870  44.630   8.850
 6912POPC   GL233734  19.917  44.748   8.850
 6912POPC   C1A33735  19.864  44.642   8.550
 6912POPC   D2A33736  19.845  44.699   8.250
 6912POPC   C3A33737  19.794  44.677   7.950
 6912POPC   C4A33738  19.837  44.614   7.650
 6912POPC   C1B33739  19.903  44.888   8.550
 6912POPC   C2B33740  19.906  44.891   8.250
 6912POPC   C3B33741  19.971  44.860   7.950
 6912POPC   C4B33742  19.941  44.842   7.650
 6913POPC   NC333743  13.623  40.023   9.450
 6913POPC   PO433744  13.588  40.042   9.150
 6913POPC   GL133745  13.626  40.036   8.850
 6913POPC   GL233746  13.549  39.905   8.850
 6913POPC   C1A33747  13.608  40.012   8.550
 6913POPC   D2A33748  13.589  40.044   8.250
 6913POPC   C3A33749  13.671  40.009   7.950
 6913POPC   C4A33750  13.613  39.968   7.650
 6913POPC   C1B33751  13.388  39.877   8.550
 6913POPC   C2B33752  13.356  39.879   8.250
 6913POPC   C3B33753  13.371  39.909   7.950
 6913POPC   C4B33754  13.403  39.903   7.650
 6914POPC   NC333755  34.550  34.611   9.450
 6914POPC   PO433756  34.580  34.526   9.150
 6914POPC   GL133757  34.526  34.588   8.850
 6914POPC   GL233758  34.733  34.509   8.850
 6914POPC   C1A33759  34.543  34.556   8.550
 6914POPC   D2A33760  34.568  34.623   8.250
 6914POPC   C3A33761  34.532  34.620   7.950
 6914POPC   C4A33762  34.605  34.572   7.650
 6914POPC   C1B33763  34.840  34.478   8.550
 6914POPC   C2B33764  34.764  34.408   8.250
 6914POPC   C3B33765  34.783  34.436   7.950
 6914POPC   C4B33766  34.809  34.409   7.650
 6915POPC   NC333767  19.866  29.161   9.450
 6915POPC   PO433768  19.862  29.127   9.150
 6915POPC   GL133769  19.831  29.118   8.850
 6915POPC   GL233770  19.774  29.311   8.850
 6915POPC   C1A33771  19.809  29.135   8.550
 6915POPC   D2A33772  19.864  29.187   8.250
 6915POPC   C3A33773  19.786  29.126   7.950
 6915POPC   C4A33774  19.836  29.154   7.650
 6915POPC   C1B33775  19.765  29.414   8.550
 6915POPC   C2B33776  19.808  29.350   8.250
 6915POPC   C3B33777  19.810  29.398   7.950
 6915POPC   C4B33778  19.823  29.381   7.650
 6916POPC   NC333779  13.634   2.761   9.450
 6916POPC   PO433780  13.605   2.738   9.150
 6916POPC   GL133781  13.661   2.782   8.850
 6916POPC   GL233782  13.656   2.642   8.850
 6916POPC   C1A33783  13.594   2.737   8.550
 6916POPC   D2A33784  13.612   2.745   8.250
 6916POPC   C3A33785  13.668   2.717   7.950
 6916POPC   C4A33786  13.651   2.761   7.650
 6916POPC   C1B33787  13.684   2.582   8.550
 6916POPC   C2B33788  13.713   2.520   8.250
 6916POPC   C3B33789  13.762   2.505   7.950
 6916POPC   C4B33790  13.737   2.516   7.650
 6917POPC   NC333791  12.900  25.995   9.450
 6917POPC   PO433792  12.894  26.049   9.150
 6917POPC   GL133793  12.842  26.018   8.850
 6917POPC   GL233794  12.837  26.187   8.850
 6917POPC   C1A33795  12.872  26.002   8.550
 6917POPC   D2A33796  12.833  26.070   8.250
 6917POPC   C3A33797  12.900  26.019   7.950
 6917POPC   C4A33798  12.867  26.005   7.650
 6917POPC   C1B33799  12.731  26.229   8.550
 6917POPC   C2B33800  12.782  26.239   8.250
 6917POPC   C3B33801  12.790  26.304   7.950
 6917POPC   C4B33802  12.713  26.269   7.650
 6918POPC   NC333803  12.892  43.861   9.450
 6918POPC   PO433804  12.858  43.876   9.150
 6918POPC   GL133805  12.873  43.927   8.850
 6918POPC   GL233806  12.808  43.763   8.850
 6918POPC   C1A33807  12.836  43.895   8.550
 6918POPC   D2A33808  12.844  43.838   8.250
 6918POPC   C3A33809  12.879  43.925   7.950
 6918POPC   C4A33810  12.865  43.903   7.650
 6918POPC   C1B33811  12.724  43.702   8.550
 6918POPC   C2B33812  12.706  43.656   8.250
 6918POPC   C3B33813  12.700  43.666   7.950
 6918POPC   C4B33814  12.712  43.647   7.650
 6919POPC   NC333815  36.152  16.743   9.450
 6919POPC   PO433816  36.158  16.682   9.150
 6919POPC   GL133817  36.091  16.742   8.850
 6919POPC   GL233818  36.212  16.579   8.850
 6919POPC   C1A33819  36.110  16.710   8.550
 6919POPC   D2A33820  36.081  16.719   8.250
 6919POPC   C3A33821  36.103  16.682   7.950
 6919POPC   C4A33822  36.108  16.733   7.650
 6919POPC   C1B33823  36.256  16.539   8.550
 6919POPC   C2B33824  36.210  16.466   8.250
 6919POPC   C3B33825  36.238  16.539   7.950
 6919POPC   C4B33826  36.248  16.466   7.650
 6920POPC   NC333827  34.565  12.863   9.450
 6920POPC   PO433828  34.618  12.815   9.150
 6920POPC   GL133829  34.572  12.843   8.850
 6920POPC   GL233830  34.488  12.873   8.850
 6920POPC   C1A33831  34.598  12.891   8.550
 6920POPC   D2A33832  34.547  12.807   8.250
 6920POPC   C3A33833  34.546  12.889   7.950
 6920POPC   C4A33834  34.601  12.813   7.650
 6920POPC   C1B33835  34.332  12.910   8.550
 6920POPC   C2B33836  34.338  12.919   8.250
 6920POPC   C3B33837  34.387  12.990   7.950
 6920POPC   C4B33838  34.393  12.957   7.650
 6921POPC   NC333839   8.152  30.737   9.450
 6921POPC   PO433840   8.211  30.714   9.150
 6921POPC   GL133841   8.242  30.714   8.850
 6921POPC   GL233842   8.159  30.834   8.850
 6921POPC   C1A33843   8.193  30.712   8.550
 6921POPC   D2A33844   8.199  30.663   8.250
 6921POPC   C3A33845   8.169  30.680   7.950
 6921POPC   C4A33846   8.238  30.719   7.650
 6921POPC   C1B33847   8.000  30.848   8.550
 6921POPC   C2B33848   8.046  30.849   8.250
 6921POPC   C3B33849   7.990  30.899   7.950
 6921POPC   C4B33850   8.028  30.834   7.650
 6922POPC   NC333851  37.689   3.517   9.450
 6922POPC   PO433852  37.682   3.581   9.150
 6922POPC   GL133853  37.694   3.507   8.850
 6922POPC   GL233854  37.702   3.487   8.850
 6922POPC   C1A33855  37.692   3.582   8.550
 6922POPC   D2A33856  37.702   3.552   8.250
 6922POPC   C3A33857  37.701   3.535   7.950
 6922POPC   C4A33858  37.725   3.533   7.650
 6922POPC   C1B33859  37.850   3.370   8.550
 6922POPC   C2B33860  37.827   3.325   8.250
 6922POPC   C3B33861  37.787   3.304   7.950
 6922POPC   C4B33862  37.808   3.358   7.650
 6923POPC   NC333863   3.529  22.946   9.450
 6923POPC   PO433864   3.507  22.943   9.150
 6923POPC   GL133865   3.512  22.967   8.850
 6923POPC   GL233866   3.606  22.961   8.850
 6923POPC   C1A33867   3.579  22.916   8.550
 6923POPC   D2A33868   3.540  22.890   8.250
 6923POPC   C3A33869   3.553  22.981   7.950
 6923POPC   C4A33870   3.580  22.949   7.650
 6923POPC   C1B33871   3.710  23.110   8.550
 6923POPC   C2B33872   3.732  23.085   8.250
 6923POPC   C3B33873   3.768  23.040   7.950
 6923POPC   C4B33874   3.722  23.112   7.650
 6924POPC   NC333875   4.307   5.138   9.450
 6924POPC   PO433876   4.336   5.109   9.150
 6924POPC   GL133877   4.278   5.045   8.850
 6924POPC   GL233878   4.227   5.203   8.850
 6924POPC   C1A33879   4.364   5.080   8.550
 6924POPC   D2A33880   4.284   5.084   8.250
 6924POPC   C3A33881   4.298   5.102   7.950
 6924POPC   C4A33882   4.334   5.129   7.650
 6924POPC   C1B33883   4.125   5.274   8.550
 6924POPC   C2B33884   4.181   5.326   8.250
 6924POPC   C3B33885   4.154   5.254   7.950
 6924POPC   C4B33886   4.155   5.310   7.650
 6925POPC   NC333887   6.667  34.575   9.450
 6925POPC   PO433888   6.617  34.553   9.150
 6925POPC   GL133889   6.675  34.554   8.850
 6925POPC   GL233890   6.649  34.707   8.850
 6925POPC   C1A33891   6.624  34.607   8.550
 6925POPC   D2A33892   6.670  34.591   8.250
 6925POPC   C3A33893   6.659  34.552   7.950
 6925POPC   C4A33894   6.657  34.613   7.650
 6925POPC   C1B33895   6.570  34.778   8.550
 6925POPC   C2B33896   6.592  34.774   8.250
 6925POPC   C3B33897   6.625  34.863   7.950
 6925POPC   C4B33898   6.619  34.793   7.650
 6926POPC   NC333899  10.526   2.773   9.450
 6926POPC   PO433900  10.514   2.719   9.150
 6926POPC   GL133901  10.481   2.741   8.850
 6926POPC   GL233902  10.498   2.928   8.850
 6926POPC   C1A33903  10.483   2.788   8.550
 6926POPC   D2A33904  10.482   2.788   8.250
 6926POPC   C3A33905  10.559   2.806   7.950
 6926POPC   C4A33906  10.549   2.792   7.650
 6926POPC   C1B33907  10.545   3.041   8.550
 6926POPC   C2B33908  10.490   3.028   8.250
 6926POPC   C3B33909  10.458   3.016   7.950
 6926POPC   C4B33910  10.508   2.983   7.650
 6927POPC   NC333911   6.620   5.851   9.450
 6927POPC   PO433912   6.656   5.865   9.150
 6927POPC   GL133913   6.626   5.867   8.850
 6927POPC   GL233914   6.733   5.749   8.850
 6927POPC   C1A33915   6.650   5.874   8.550
 6927POPC   D2A33916   6.620   5.869   8.250
 6927POPC   C3A33917   6.678   5.857   7.950
 6927POPC   C4A33918   6.682   5.886   7.650
 6927POPC   C1B33919   6.815   5.646   8.550
 6927POPC   C2B33920   6.846   5.688   8.250
 6927POPC   C3B33921   6.870   5.695   7.950
 6927POPC   C4B33922   6.776   5.650   7.650
 6928POPC   NC333923  44.613   4.315   9.450
 6928POPC   PO433924  44.625   4.326   9.150
 6928POPC   GL133925  44.670   4.345   8.850
 6928POPC   GL233926  44.793   4.416   8.850
 6928POPC   C1A33927  44.684   4.317   8.550
 6928POPC   D2A33928  44.709   4.310   8.250
 6928POPC   C3A33929  44.615   4.326   7.950
 6928POPC   C4A33930  44.696   4.315   7.650
 6928POPC   C1B33931  44.795   4.461   8.550
 6928POPC   C2B33932  44.863   4.497   8.250
 6928POPC   C3B33933  44.800   4.479   7.950
 6928POPC   C4B33934  44.797   4.488   7.650
 6929POPC   NC333935  43.912  40.023   9.450
 6929POPC   PO433936  43.848  39.984   9.150
 6929POPC   GL133937  43.858  40.003   8.850
 6929POPC   GL233938  43.794  39.925   8.850
 6929POPC   C1A33939  43.887  40.026   8.550
 6929POPC   D2A33940  43.905  39.986   8.250
 6929POPC   C3A33941  43.846  40.048   7.950
 6929POPC   C4A33942  43.894  40.002   7.650
 6929POPC   C1B33943  43.730  39.874   8.550
 6929POPC   C2B33944  43.669  39.840   8.250
 6929POPC   C3B33945  43.680  39.820   7.950
 6929POPC   C4B33946  43.724  39.787   7.650
 6930POPC   NC333947  34.571  33.008   9.450
 6930POPC   PO433948  34.619  33.001   9.150
 6930POPC   GL133949  34.610  32.983   8.850
 6930POPC   GL233950  34.549  33.115   8.850
 6930POPC   C1A33951  34.605  33.045   8.550
 6930POPC   D2A33952  34.545  33.045   8.250
 6930POPC   C3A33953  34.575  33.056   7.950
 6930POPC   C4A33954  34.530  32.999   7.650
 6930POPC   C1B33955  34.521  33.218   8.550
 6930POPC   C2B33956  34.453  33.212   8.250
 6930POPC   C3B33957  34.474  33.243   7.950
 6930POPC   C4B33958  34.516  33.257   7.650
 6931POPC   NC333959  29.950  40.831   9.450
 6931POPC   PO433960  29.883  40.820   9.150
 6931POPC   GL133961  29.879  40.824   8.850
 6931POPC   GL233962  29.796  40.742   8.850
 6931POPC   C1A33963  29.890  40.754   8.550
 6931POPC   D2A33964  29.879  40.750   8.250
 6931POPC   C3A33965  29.897  40.780   7.950
 6931POPC   C4A33966  29.936  40.826   7.650
 6931POPC   C1B33967  29.747  40.642   8.550
 6931POPC   C2B33968  29.745  40.632   8.250
 6931POPC   C3B33969  29.732  40.625   7.950
 6931POPC   C4B33970  29.702  40.577   7.650
 6932POPC   NC333971  24.450  39.963   9.450
 6932POPC   PO433972  24.469  39.957   9.150
 6932POPC   GL133973  24.461  39.960   8.850
 6932POPC   GL233974  24.641  39.975   8.850
 6932POPC   C1A33975  24.482  40.014   8.550
 6932POPC   D2A33976  24.483  40.006   8.250
 6932POPC   C3A33977  24.504  40.017   7.950
 6932POPC   C4A33978  24.523  40.014   7.650
 6932POPC   C1B33979  24.778  39.964   8.550
 6932POPC   C2B33980  24.697  39.960   8.250
 6932POPC   C3B33981  24.741  40.014   7.950
 6932POPC   C4B33982  24.738  39.975   7.650
 6933POPC   NC333983  43.925  30.705   9.450
 6933POPC   PO433984  43.897  30.733   9.150
 6933POPC   GL133985  43.889  30.730   8.850
 6933POPC   GL233986  43.813  30.663   8.850
 6933POPC   C1A33987  43.855  30.719   8.550
 6933POPC   D2A33988  43.922  30.671   8.250
 6933POPC   C3A33989  43.865  30.695   7.950
 6933POPC   C4A33990  43.853  30.675   7.650
 6933POPC   C1B33991  43.646  30.641   8.550
 6933POPC   C2B33992  43.627  30.593   8.250
 6933POPC   C3B33993  43.641  30.596   7.950
 6933POPC   C4B33994  43.658  30.641   7.650
 6934POPC   NC333995  22.161  22.971   9.450
 6934POPC   PO433996  22.157  22.965   9.150
 6934POPC   GL133997  22.147  22.973   8.850
 6934POPC   GL233998  22.219  23.021   8.850
 6934POPC   C1A33999  22.198  22.915   8.550
 6934POPC   D2A34000  22.182  22.948   8.250
 6934POPC   C3A34001  22.141  22.984   7.950
 6934POPC   C4A34002  22.212  22.973   7.650
 6934POPC   C1B34003  22.383  23.115   8.550
 6934POPC   C2B34004  22.364  23.125   8.250
 6934POPC   C3B34005  22.317  23.125   7.950
 6934POPC   C4B34006  22.324  23.083   7.650
 6935POPC   NC334007  16.719  14.356   9.450
 6935POPC   PO434008  16.692  14.411   9.150
 6935POPC   GL134009  16.690  14.393   8.850
 6935POPC   GL234010  16.589  14.428   8.850
 6935POPC   C1A34011  16.690  14.373   8.550
 6935POPC   D2A34012  16.773  14.382   8.250
 6935POPC   C3A34013  16.744  14.436   7.950
 6935POPC   C4A34014  16.773  14.398   7.650
 6935POPC   C1B34015  16.528  14.439   8.550
 6935POPC   C2B34016  16.530  14.431   8.250
 6935POPC   C3B34017  16.477  14.444   7.950
 6935POPC   C4B34018  16.494  14.364   7.650
 6936POPC   NC334019  12.064  40.768   9.450
 6936POPC   PO434020  12.087  40.824   9.150
 6936POPC   GL134021  12.082  40.755   8.850
 6936POPC   GL234022  12.177  40.697   8.850
 6936POPC   C1A34023  12.101  40.752   8.550
 6936POPC   D2A34024  12.117  40.805   8.250
 6936POPC   C3A34025  12.102  40.760   7.950
 6936POPC   C4A34026  12.032  40.775   7.650
 6936POPC   C1B34027  12.211  40.577   8.550
 6936POPC   C2B34028  12.285  40.607   8.250
 6936POPC   C3B34029  12.228  40.614   7.950
 6936POPC   C4B34030  12.239  40.571   7.650
 6937POPC   NC334031  24.508  25.257   9.450
 6937POPC   PO434032  24.507  25.293   9.150
 6937POPC   GL134033  24.528  25.279   8.850
 6937POPC   GL234034  24.570  25.421   8.850
 6937POPC   C1A34035  24.525  25.301   8.550
 6937POPC   D2A34036  24.527  25.216   8.250
 6937POPC   C3A34037  24.455  25.290   7.950
 6937POPC   C4A34038  24.511  25.280   7.650
 6937POPC   C1B34039  24.595  25.519   8.550
 6937POPC   C2B34040  24.617  25.518   8.250
 6937POPC   C3B34041  24.583  25.543   7.950
 6937POPC   C4B34042  24.561  25.506   7.650
 6938POPC   NC334043  38.486  16.765   9.450
 6938POPC   PO434044  38.472  16.708   9.150
 6938POPC   GL134045  38.492  16.764   8.850
 6938POPC   GL234046  38.533  16.846   8.850
 6938POPC   C1A34047  38.472  16.713   8.550
 6938POPC   D2A34048  38.473  16.730   8.250
 6938POPC   C3A34049  38.436  16.751   7.950
 6938POPC   C4A34050  38.406  16.779   7.650
 6938POPC   C1B34051  38.631  16.993   8.550
 6938POPC   C2B34052  38.596  16.964   8.250
 6938POPC   C3B34053  38.545  16.908   7.950
 6938POPC   C4B34054  38.557  16.993   7.650
 6939POPC   NC334055  35.339   2.744   9.450
 6939POPC   PO434056  35.391   2.814   9.150
 6939POPC   GL134057  35.400   2.772   8.850
 6939POPC   GL234058  35.445   2.744   8.850
 6939POPC   C1A34059  35.326   2.722   8.550
 6939POPC   D2A34060  35.374   2.773   8.250
 6939POPC   C3A34061  35.360   2.803   7.950
 6939POPC   C4A34062  35.385   2.763   7.650
 6939POPC   C1B34063  35.574   2.653   8.550
 6939POPC   C2B34064  35.588   2.591   8.250
 6939POPC   C3B34065  35.517   2.588   7.950
 6939POPC   C4B34066  35.564   2.585   7.650
 6940POPC   NC334067  35.345   1.186   9.450
 6940POPC   PO434068  35.345   1.183   9.150
 6940POPC   GL134069  35.400   1.196   8.850
 6940POPC   GL234070  35.219   1.160   8.850
 6940POPC   C1A34071  35.378   1.249   8.550
 6940POPC   D2A34072  35.372   1.191   8.250
 6940POPC   C3A34073  35.348   1.172   7.950
 6940POPC   C4A34074  35.380   1.165   7.650
 6940POPC   C1B34075  35.108   1.182   8.550
 6940POPC   C2B34076  35.127   1.104   8.250
 6940POPC   C3B34077  35.149   1.116   7.950
 6940POPC   C4B34078  35.065   1.145   7.650
 6941POPC   NC334079  43.131   7.408   9.450
 6941POPC   PO434080  43.129   7.466   9.150
 6941POPC   GL134081  43.139   7.375   8.850
 6941POPC   GL234082  43.216   7.421   8.850
 6941POPC   C1A34083  43.096   7.419   8.550
 6941POPC   D2A34084  43.111   7.417   8.250
 6941POPC   C3A34085  43.145   7.459   7.950
 6941POPC   C4A34086  43.085   7.470   7.650
 6941POPC   C1B34087  43.380   7.436   8.550
 6941POPC   C2B34088  43.350   7.379   8.250
 6941POPC   C3B34089  43.409   7.351   7.950
 6941POPC   C4B34090  43.390   7.403   7.650
 6942POPC   NC334091  44.709  18.287   9.450
 6942POPC   PO434092  44.650  18.286   9.150
 6942POPC   GL134093  44.646  18.306   8.850
 6942POPC   GL234094  44.542  18.241   8.850
 6942POPC   C1A34095  44.626  18.330   8.550
 6942POPC   D2A34096  44.684  18.300   8.250
 6942POPC   C3A34097  44.650  18.275   7.950
 6942POPC   C4A34098  44.652  18.258   7.650
 6942POPC   C1B34099  44.408  18.235   8.550
 6942POPC   C2B34100  44.467  18.206   8.250
 6942POPC   C3B34101  44.409  18.275   7.950
 6942POPC   C4B34102  44.418  18.259   7.650
 6943POPC   NC334103   7.371  10.536   9.450
 6943POPC   PO434104   7.416  10.559   9.150
 6943POPC   GL134105   7.460  10.547   8.850
 6943POPC   GL234106   7.398  10.653   8.850
 6943POPC   C1A34107   7.460  10.479   8.550
 6943POPC   D2A34108   7.403  10.478   8.250
 6943POPC   C3A34109   7.408  10.482   7.950
 6943POPC   C4A34110   7.403  10.515   7.650
 6943POPC   C1B34111   7.365  10.812   8.550
 6943POPC   C2B34112   7.330  10.737   8.250
 6943POPC   C3B34113   7.382  10.815   7.950
 6943POPC   C4B34114   7.403  10.809   7.650
 6944POPC   NC334115  19.868  22.935   9.450
 6944POPC   PO434116  19.826  22.987   9.150
 6944POPC   GL134117  19.872  22.970   8.850
 6944POPC   GL234118  19.891  22.776   8.850
 6944POPC   C1A34119  19.792  22.978   8.550
 6944POPC   D2A34120  19.834  22.905   8.250
 6944POPC   C3A34121  19.818  22.982   7.950
 6944POPC   C4A34122  19.802  22.899   7.650
 6944POPC   C1B34123  19.904  22.703   8.550
 6944POPC   C2B34124  19.909  22.716   8.250
 6944POPC   C3B34125  19.892  22.665   7.950
 6944POPC   C4B34126  19.900  22.691   7.650
 6945POPC   NC334127  11.337  19.090   9.450
 6945POPC   PO434128  11.258  19.070   9.150
 6945POPC   GL134129  11.256  19.056   8.850
 6945POPC   GL234130  11.218  19.132   8.850
 6945POPC   C1A34131  11.348  19.050   8.550
 6945POPC   D2A34132  11.324  19.046   8.250
 6945POPC   C3A34133  11.294  19.059   7.950
 6945POPC   C4A34134  11.294  19.102   7.650
 6945POPC   C1B34135  11.040  19.235   8.550
 6945POPC   C2B34136  11.123  19.207   8.250
 6945POPC   C3B34137  11.048  19.184   7.950
 6945POPC   C4B34138  11.037  19.155   7.650
 6946POPC   NC334139   5.897   8.941   9.450
 6946POPC   PO434140   5.871   8.959   9.150
 6946POPC   GL134141   5.882   8.986   8.850
 6946POPC   GL234142   5.947   8.898   8.850
 6946POPC   C1A34143   5.853   9.015   8.550
 6946POPC   D2A34144   5.895   8.932   8.250
 6946POPC   C3A34145   5.890   8.939   7.950
 6946POPC   C4A34146   5.877   8.948   7.650
 6946POPC   C1B34147   6.056   8.782   8.550
 6946POPC   C2B34148   6.057   8.794   8.250
 6946POPC   C3B34149   6.019   8.764   7.950
 6946POPC   C4B34150   6.054   8.744   7.650
 6947POPC   NC334151   5.820   8.228   9.450
 6947POPC   PO434152   5.885   8.151   9.150
 6947POPC   GL134153   5.857   8.212   8.850
 6947POPC   GL234154   5.925   8.154   8.850
 6947POPC   C1A34155   5.827   8.246   8.550
 6947POPC   D2A34156   5.897   8.236   8.250
 6947POPC   C3A34157   5.866   8.242   7.950
 6947POPC   C4A34158   5.887   8.175   7.650
 6947POPC   C1B34159   6.084   7.985   8.550
 6947POPC   C2B34160   6.057   7.969   8.250
 6947POPC   C3B34161   6.019   8.046   7.950
 6947POPC   C4B34162   6.068   8.020   7.650
 6948POPC   NC334163  24.520  39.186   9.450
 6948POPC   PO434164  24.523  39.280   9.150
 6948POPC   GL134165  24.516  39.251   8.850
 6948POPC   GL234166  24.571  39.371   8.850
 6948POPC   C1A34167  24.536  39.197   8.550
 6948POPC   D2A34168  24.475  39.198   8.250
 6948POPC   C3A34169  24.483  39.202   7.950
 6948POPC   C4A34170  24.505  39.233   7.650
 6948POPC   C1B34171  24.613  39.514   8.550
 6948POPC   C2B34172  24.552  39.515   8.250
 6948POPC   C3B34173  24.616  39.453   7.950
 6948POPC   C4B34174  24.555  39.450   7.650
 6949POPC   NC334175   5.096  30.661   9.450
 6949POPC   PO434176   5.100  30.728   9.150
 6949POPC   GL134177   5.125  30.701   8.850
 6949POPC   GL234178   5.144  30.752   8.850
 6949POPC   C1A34179   5.068  30.728   8.550
 6949POPC   D2A34180   5.139  30.647   8.250
 6949POPC   C3A34181   5.107  30.695   7.950
 6949POPC   C4A34182   5.129  30.711   7.650
 6949POPC   C1B34183   5.328  30.829   8.550
 6949POPC   C2B34184   5.259  30.846   8.250
 6949POPC   C3B34185   5.244  30.870   7.950
 6949POPC   C4B34186   5.255  30.809   7.650
 6950POPC   NC334187   7.464  36.875   9.450
 6950POPC   PO434188   7.442  36.946   9.150
 6950POPC   GL134189   7.408  36.854   8.850
 6950POPC   GL234190   7.473  36.974   8.850
 6950POPC   C1A34191   7.434  36.925   8.550
 6950POPC   D2A34192   7.382  36.916   8.250
 6950POPC   C3A34193   7.383  36.900   7.950
 6950POPC   C4A34194   7.428  36.869   7.650
 6950POPC   C1B34195   7.629  37.053   8.550
 6950POPC   C2B34196   7.649  37.068   8.250
 6950POPC   C3B34197   7.629  37.103   7.950
 6950POPC   C4B34198   7.586  37.058   7.650
 6951POPC   NC334199   8.231  35.352   9.450
 6951POPC   PO434200   8.149  35.395   9.150
 6951POPC   GL134201   8.177  35.340   8.850
 6951POPC   GL234202   8.353  35.278   8.850
 6951POPC   C1A34203   8.225  35.396   8.550
 6951POPC   D2A34204   8.236  35.326   8.250
 6951POPC   C3A34205   8.229  35.321   7.950
 6951POPC   C4A34206   8.210  35.367   7.650
 6951POPC   C1B34207   8.390  35.234   8.550
 6951POPC   C2B34208   8.455  35.211   8.250
 6951POPC   C3B34209   8.470  35.282   7.950
 6951POPC   C4B34210   8.379  35.292   7.650
 6952POPC   NC334211  30.717  32.223   9.450
 6952POPC   PO434212  30.721  32.295   9.150
 6952POPC   GL134213  30.691  32.224   8.850
 6952POPC   GL234214  30.621  32.409   8.850
 6952POPC   C1A34215  30.745  32.208   8.550
 6952POPC   D2A34216  30.681  32.206   8.250
 6952POPC   C3A34217  30.721  32.249   7.950
 6952POPC   C4A34218  30.691  32.234   7.650
 6952POPC   C1B34219  30.620  32.487   8.550
 6952POPC   C2B34220  30.654  32.520   8.250
 6952POPC   C3B34221  30.594  32.517   7.950
 6952POPC   C4B34222  30.669  32.494   7.650
 6953POPC   NC334223   9.001  34.539   9.450
 6953POPC   PO434224   9.019  34.538   9.150
 6953POPC   GL134225   8.927  34.543   8.850
 6953POPC   GL234226   8.900  34.471   8.850
 6953POPC   C1A34227   8.944  34.597   8.550
 6953POPC   D2A34228   9.021  34.609   8.250
 6953POPC   C3A34229   8.958  34.541   7.950
 6953POPC   C4A34230   8.929  34.588   7.650
 6953POPC   C1B34231   8.777  34.479   8.550
 6953POPC   C2B34232   8.805  34.412   8.250
 6953POPC   C3B34233   8.738  34.429   7.950
 6953POPC   C4B34234   8.726  34.459   7.650
 6954POPC   NC334235  31.458  36.941   9.450
 6954POPC   PO434236  31.453  36.908   9.150
 6954POPC   GL134237  31.472  36.908   8.850
 6954POPC   GL234238  31.637  36.944   8.850
 6954POPC   C1A34239  31.520  36.931   8.550
 6954POPC   D2A34240  31.464  36.923   8.250
 6954POPC   C3A34241  31.464  36.854   7.950
 6954POPC   C4A34242  31.486  36.915   7.650
 6954POPC   C1B34243  31.739  36.946   8.550
 6954POPC   C2B34244  31.673  36.949   8.250
 6954POPC   C3B34245  31.713  36.935   7.950
 6954POPC   C4B34246  31.723  36.917   7.650
 6955POPC   NC334247  15.185  37.693   9.450
 6955POPC   PO434248  15.208  37.712   9.150
 6955POPC   GL134249  15.184  37.649   8.850
 6955POPC   GL234250  15.167  37.567   8.850
 6955POPC   C1A34251  15.163  37.706   8.550
 6955POPC   D2A34252  15.199  37.693   8.250
 6955POPC   C3A34253  15.161  37.654   7.950
 6955POPC   C4A34254  15.144  37.642   7.650
 6955POPC   C1B34255  15.239  37.478   8.550
 6955POPC   C2B34256  15.206  37.431   8.250
 6955POPC   C3B34257  15.283  37.400   7.950
 6955POPC   C4B34258  15.264  37.391   7.650
 6956POPC   NC334259  30.742  27.585   9.450
 6956POPC   PO434260  30.695  27.552   9.150
 6956POPC   GL134261  30.728  27.606   8.850
 6956POPC   GL234262  30.564  27.653   8.850
 6956POPC   C1A34263  30.719  27.620   8.550
 6956POPC   D2A34264  30.657  27.546   8.250
 6956POPC   C3A34265  30.725  27.637   7.950
 6956POPC   C4A34266  30.669  27.571   7.650
 6956POPC   C1B34267  30.505  27.788   8.550
 6956POPC   C2B34268  30.556  27.753   8.250
 6956POPC   C3B34269  30.540  27.788   7.950
 6956POPC   C4B34270  30.558  27.754   7.650
 6957POPC   NC334271  26.081  16.731   9.450
 6957POPC   PO434272  26.032  16.766   9.150
 6957POPC   GL134273  26.091  16.754   8.850
 6957POPC   GL234274  25.929  16.827   8.850
 6957POPC   C1A34275  26.005  16.754   8.550
 6957POPC   D2A34276  26.015  16.740   8.250
 6957POPC   C3A34277  26.013  16.691   7.950
 6957POPC   C4A34278  26.056  16.711   7.650
 6957POPC   C1B34279  25.848  16.900   8.550
 6957POPC   C2B34280  25.857  16.929   8.250
 6957POPC   C3B34281  25.831  16.906   7.950
 6957POPC   C4B34282  25.885  16.938   7.650
 6958POPC   NC334283   1.969   2.729   9.450
 6958POPC   PO434284   2.030   2.753   9.150
 6958POPC   GL134285   1.964   2.795   8.850
 6958POPC   GL234286   2.052   2.618   8.850
 6958POPC   C1A34287   1.958   2.771   8.550
 6958POPC   D2A34288   1.979   2.811   8.250
 6958POPC   C3A34289   1.948   2.726   7.950
 6958POPC   C4A34290   1.997   2.807   7.650
 6958POPC   C1B34291   2.085   2.517   8.550
 6958POPC   C2B34292   2.005   2.561   8.250
 6958POPC   C3B34293   2.072   2.474   7.950
 6958POPC   C4B34294   1.999   2.522   7.650
 6959POPC   NC334295  41.591  43.905   9.450
 6959POPC   PO434296  41.556  43.916   9.150
 6959POPC   GL134297  41.517  43.882   8.850
 6959POPC   GL234298  41.447  43.816   8.850
 6959POPC   C1A34299  41.553  43.865   8.550
 6959POPC   D2A34300  41.571  43.906   8.250
 6959POPC   C3A34301  41.523  43.870   7.950
 6959POPC   C4A34302  41.592  43.874   7.650
 6959POPC   C1B34303  41.282  43.854   8.550
 6959POPC   C2B34304  41.319  43.823   8.250
 6959POPC   C3B34305  41.296  43.850   7.950
 6959POPC   C4B34306  41.364  43.790   7.650
 6960POPC   NC334307  43.061   9.746   9.450
 6960POPC   PO434308  43.155   9.699   9.150
 6960POPC   GL134309  43.070   9.721   8.850
 6960POPC   GL234310  43.100   9.659   8.850
 6960POPC   C1A34311  43.136   9.779   8.550
 6960POPC   D2A34312  43.129   9.704   8.250
 6960POPC   C3A34313  43.129   9.701   7.950
 6960POPC   C4A34314  43.078   9.738   7.650
 6960POPC   C1B34315  43.068   9.487   8.550
 6960POPC   C2B34316  43.025   9.500   8.250
 6960POPC   C3B34317  43.032   9.518   7.950
 6960POPC   C4B34318  43.041   9.507   7.650
 6961POPC   NC334319   6.653  24.446   9.450
 6961POPC   PO434320   6.606  24.524   9.150
 6961POPC   GL134321   6.694  24.444   8.850
 6961POPC   GL234322   6.593  24.419   8.850
 6961POPC   C1A34323   6.687  24.464   8.550
 6961POPC   D2A34324   6.679  24.494   8.250
 6961POPC   C3A34325   6.650  24.472   7.950
 6961POPC   C4A34326   6.664  24.529   7.650
 6961POPC   C1B34327   6.544  24.262   8.550
 6961POPC   C2B34328   6.549  24.311   8.250
 6961POPC   C3B34329   6.481  24.284   7.950
 6961POPC   C4B34330   6.499  24.290   7.650
 6962POPC   NC334331  28.379  43.133   9.450
 6962POPC   PO434332  28.368  43.072   9.150
 6962POPC   GL134333  28.412  43.083   8.850
 6962POPC   GL234334  28.235  43.033   8.850
 6962POPC   C1A34335  28.367  43.067   8.550
 6962POPC   D2A34336  28.355  43.132   8.250
 6962POPC   C3A34337  28.375  43.070   7.950
 6962POPC   C4A34338  28.365  43.132   7.650
 6962POPC   C1B34339  28.146  42.958   8.550
 6962POPC   C2B34340  28.178  42.985   8.250
 6962POPC   C3B34341  28.179  42.963   7.950
 6962POPC   C4B34342  28.200  42.972   7.650
 6963POPC   NC334343  39.193  23.732   9.450
 6963POPC   PO434344  39.218  23.717   9.150
 6963POPC   GL134345  39.197  23.748   8.850
 6963POPC   GL234346  39.275  23.567   8.850
 6963POPC   C1A34347  39.257  23.671   8.550
 6963POPC   D2A34348  39.252  23.731   8.250
 6963POPC   C3A34349  39.264  23.686   7.950
 6963POPC   C4A34350  39.281  23.680   7.650
 6963POPC   C1B34351  39.279  23.453   8.550
 6963POPC   C2B34352  39.290  23.428   8.250
 6963POPC   C3B34353  39.314  23.458   7.950
 6963POPC   C4B34354  39.300  23.499   7.650
 6964POPC   NC334355  13.612  19.042   9.450
 6964POPC   PO434356  13.664  19.086   9.150
 6964POPC   GL134357  13.639  19.012   8.850
 6964POPC   GL234358  13.658  18.966   8.850
 6964POPC   C1A34359  13.617  19.056   8.550
 6964POPC   D2A34360  13.640  19.050   8.250
 6964POPC   C3A34361  13.677  19.082   7.950
 6964POPC   C4A34362  13.650  19.017   7.650
 6964POPC   C1B34363  13.722  18.860   8.550
 6964POPC   C2B34364  13.639  18.823   8.250
 6964POPC   C3B34365  13.686  18.795   7.950
 6964POPC   C4B34366  13.664  18.858   7.650
 6965POPC   NC334367  12.809   6.684   9.450
 6965POPC   PO434368  12.847   6.640   9.150
 6965POPC   GL134369  12.877   6.648   8.850
 6965POPC   GL234370  12.779   6.525   8.850
 6965POPC   C1A34371  12.865   6.645   8.550
 6965POPC   D2A34372  12.850   6.636   8.250
 6965POPC   C3A34373  12.885   6.616   7.950
 6965POPC   C4A34374  12.821   6.601   7.650
 6965POPC   C1B34375  12.744   6.420   8.550
 6965POPC   C2B34376  12.663   6.429   8.250
 6965POPC   C3B34377  12.737   6.409   7.950
 6965POPC   C4B34378  12.662   6.408   7.650
 6966POPC   NC334379  11.260  38.495   9.450
 6966POPC   PO434380  11.330  38.451   9.150
 6966POPC   GL134381  11.274  38.499   8.850
 6966POPC   GL234382  11.186  38.492   8.850
 6966POPC   C1A34383  11.259  38.457   8.550
 6966POPC   D2A34384  11.341  38.462   8.250
 6966POPC   C3A34385  11.320  38.481   7.950
 6966POPC   C4A34386  11.306  38.426   7.650
 6966POPC   C1B34387  11.079  38.510   8.550
 6966POPC   C2B34388  11.070  38.497   8.250
 6966POPC   C3B34389  11.084  38.531   7.950
 6966POPC   C4B34390  11.057  38.461   7.650
 6967POPC   NC334391  21.357  21.380   9.450
 6967POPC   PO434392  21.434  21.361   9.150
 6967POPC   GL134393  21.429  21.404   8.850
 6967POPC   GL234394  21.470  21.269   8.850
 6967POPC   C1A34395  21.363  21.433   8.550
 6967POPC   D2A34396  21.377  21.393   8.250
 6967POPC   C3A34397  21.382  21.426   7.950
 6967POPC   C4A34398  21.349  21.399   7.650
 6967POPC   C1B34399  21.592  21.254   8.550
 6967POPC   C2B34400  21.546  21.209   8.250
 6967POPC   C3B34401  21.618  21.256   7.950
 6967POPC   C4B34402  21.562  21.236   7.650
 6968POPC   NC334403  14.354  27.625   9.450
 6968POPC   PO434404  14.427  27.620   9.150
 6968POPC   GL134405  14.367  27.581   8.850
 6968POPC   GL234406  14.383  27.738   8.850
 6968POPC   C1A34407  14.419  27.575   8.550
 6968POPC   D2A34408  14.396  27.576   8.250
 6968POPC   C3A34409  14.429  27.604   7.950
 6968POPC   C4A34410  14.364  27.582   7.650
 6968POPC   C1B34411  14.374  27.865   8.550
 6968POPC   C2B34412  14.348  27.863   8.250
 6968POPC   C3B34413  14.381  27.853   7.950
 6968POPC   C4B34414  14.315  27.854   7.650
 6969POPC   NC334415   8.925   8.948   9.450
 6969POPC   PO434416   8.955   8.927   9.150
 6969POPC   GL134417   8.991   9.005   8.850
 6969POPC   GL234418   8.859   9.080   8.850
 6969POPC   C1A34419   8.934   8.934   8.550
 6969POPC   D2A34420   8.959   9.005   8.250
 6969POPC   C3A34421   8.963   8.967   7.950
 6969POPC   C4A34422   8.978   8.985   7.650
 6969POPC   C1B34423   8.791   9.105   8.550
 6969POPC   C2B34424   8.788   9.169   8.250
 6969POPC   C3B34425   8.789   9.093   7.950
 6969POPC   C4B34426   8.764   9.168   7.650
 6970POPC   NC334427  33.796  28.389   9.450
 6970POPC   PO434428  33.774  28.391   9.150
 6970POPC   GL134429  33.841  28.358   8.850
 6970POPC   GL234430  33.745  28.484   8.850
 6970POPC   C1A34431  33.776  28.411   8.550
 6970POPC   D2A34432  33.755  28.416   8.250
 6970POPC   C3A34433  33.837  28.379   7.950
 6970POPC   C4A34434  33.759  28.416   7.650
 6970POPC   C1B34435  33.681  28.588   8.550
 6970POPC   C2B34436  33.623  28.561   8.250
 6970POPC   C3B34437  33.623  28.596   7.950
 6970POPC   C4B34438  33.682  28.593   7.650
 6971POPC   NC334439   2.755  26.020   9.450
 6971POPC   PO434440   2.756  26.087   9.150
 6971POPC   GL134441   2.720  26.072   8.850
 6971POPC   GL234442   2.835  26.018   8.850
 6971POPC   C1A34443   2.733  26.071   8.550
 6971POPC   D2A34444   2.726  26.086   8.250
 6971POPC   C3A34445   2.792  26.048   7.950
 6971POPC   C4A34446   2.770  26.083   7.650
 6971POPC   C1B34447   2.943  25.964   8.550
 6971POPC   C2B34448   3.007  25.901   8.250
 6971POPC   C3B34449   2.952  25.915   7.950
 6971POPC   C4B34450   2.977  25.905   7.650
 6972POPC   NC334451  38.454  41.608   9.450
 6972POPC   PO434452  38.470  41.531   9.150
 6972POPC   GL134453  38.486  41.600   8.850
 6972POPC   GL234454  38.557  41.496   8.850
 6972POPC   C1A34455  38.500  41.519   8.550
 6972POPC   D2A34456  38.475  41.568   8.250
 6972POPC   C3A34457  38.469  41.533   7.950
 6972POPC   C4A34458  38.455  41.599   7.650
 6972POPC   C1B34459  38.640  41.343   8.550
 6972POPC   C2B34460  38.676  41.394   8.250
 6972POPC   C3B34461  38.635  41.357   7.950
 6972POPC   C4B34462  38.636  41.399   7.650
 6973POPC   NC334463  35.391  36.855   9.450
 6973POPC   PO434464  35.307  36.943   9.150
 6973POPC   GL134465  35.308  36.940   8.850
 6973POPC   GL234466  35.219  36.923   8.850
 6973POPC   C1A34467  35.400  36.892   8.550
 6973POPC   D2A34468  35.329  36.937   8.250
 6973POPC   C3A34469  35.384  36.867   7.950
 6973POPC   C4A34470  35.317  36.861   7.650
 6973POPC   C1B34471  35.115  36.977   8.550
 6973POPC   C2B34472  35.060  36.895   8.250
 6973POPC   C3B34473  35.107  36.884   7.950
 6973POPC   C4B34474  35.107  36.974   7.650
 6974POPC   NC334475  15.143   5.908   9.450
 6974POPC   PO434476  15.140   5.858   9.150
 6974POPC   GL134477  15.150   5.854   8.850
 6974POPC   GL234478  15.088   5.764   8.850
 6974POPC   C1A34479  15.208   5.883   8.550
 6974POPC   D2A34480  15.224   5.839   8.250
 6974POPC   C3A34481  15.165   5.877   7.950
 6974POPC   C4A34482  15.189   5.889   7.650
 6974POPC   C1B34483  15.049   5.664   8.550
 6974POPC   C2B34484  15.008   5.707   8.250
 6974POPC   C3B34485  15.053   5.701   7.950
 6974POPC   C4B34486  15.003   5.710   7.650
 6975POPC   NC334487  20.605   1.942   9.450
 6975POPC   PO434488  20.600   2.004   9.150
 6975POPC   GL134489  20.588   2.018   8.850
 6975POPC   GL234490  20.634   2.102   8.850
 6975POPC   C1A34491  20.575   1.976   8.550
 6975POPC   D2A34492  20.657   2.011   8.250
 6975POPC   C3A34493  20.574   2.011   7.950
 6975POPC   C4A34494  20.590   1.977   7.650
 6975POPC   C1B34495  20.729   2.248   8.550
 6975POPC   C2B34496  20.675   2.244   8.250
 6975POPC   C3B34497  20.743   2.219   7.950
 6975POPC   C4B34498  20.690   2.179   7.650
 6976POPC   NC334499  30.669  12.064   9.450
 6976POPC   PO434500  30.717  12.115   9.150
 6976POPC   GL134501  30.746  12.085   8.850
 6976POPC   GL234502  30.727  12.226   8.850
 6976POPC   C1A34503  30.727  12.086   8.550
 6976POPC   D2A34504  30.737  12.050   8.250
 6976POPC   C3A34505  30.721  12.122   7.950
 6976POPC   C4A34506  30.731  12.103   7.650
 6976POPC   C1B34507  30.684  12.282   8.550
 6976POPC   C2B34508  30.676  12.336   8.250
 6976POPC   C3B34509  30.673  12.342   7.950
 6976POPC   C4B34510  30.643  12.351   7.650
 6977POPC   NC334511  35.303  35.347   9.450
 6977POPC   PO434512  35.325  35.329   9.150
 6977POPC   GL134513  35.326  35.350   8.850
 6977POPC   GL234514  35.428  35.291   8.850
 6977POPC   C1A34515  35.319  35.313   8.550
 6977POPC   D2A34516  35.360  35.346   8.250
 6977POPC   C3A34517  35.380  35.355   7.950
 6977POPC   C4A34518  35.351  35.357   7.650
 6977POPC   C1B34519  35.636  35.250   8.550
 6977POPC   C2B34520  35.586  35.293   8.250
 6977POPC   C3B34521  35.587  35.276   7.950
 6977POPC   C4B34522  35.601  35.289   7.650
 6978POPC   NC334523  25.304  27.591   9.450
 6978POPC   PO434524  25.229  27.632   9.150
 6978POPC   GL134525  25.238  27.633   8.850
 6978POPC   GL234526  25.160  27.700   8.850
 6978POPC   C1A34527  25.256  27.548   8.550
 6978POPC   D2A34528  25.283  27.545   8.250
 6978POPC   C3A34529  25.275  27.551   7.950
 6978POPC   C4A34530  25.232  27.548   7.650
 6978POPC   C1B34531  25.077  27.758   8.550
 6978POPC   C2B34532  25.139  27.754   8.250
 6978POPC   C3B34533  25.143  27.808   7.950
 6978POPC   C4B34534  25.171  27.821   7.650
 6979POPC   NC334535  29.189   1.199   9.450
 6979POPC   PO434536  29.136   1.221   9.150
 6979POPC   GL134537  29.182   1.243   8.850
 6979POPC   GL234538  29.066   1.191   8.850
 6979POPC   C1A34539  29.109   1.251   8.550
 6979POPC   D2A34540  29.178   1.210   8.250
 6979POPC   C3A34541  29.131   1.178   7.950
 6979POPC   C4A34542  29.119   1.233   7.650
 6979POPC   C1B34543  28.931   1.117   8.550
 6979POPC   C2B34544  28.962   1.138   8.250
 6979POPC   C3B34545  28.961   1.051   7.950
 6979POPC   C4B34546  28.903   1.137   7.650
 6980POPC   NC334547   6.660  29.877   9.450
 6980POPC   PO434548   6.634  29.953   9.150
 6980POPC   GL134549   6.635  29.898   8.850
 6980POPC   GL234550   6.655  30.027   8.850
 6980POPC   C1A34551   6.600  29.907   8.550
 6980POPC   D2A34552   6.654  29.931   8.250
 6980POPC   C3A34553   6.647  29.952   7.950
 6980POPC   C4A34554   6.670  29.926   7.650
 6980POPC   C1B34555   6.740  30.117   8.550
 6980POPC   C2B34556   6.710  30.138   8.250
 6980POPC   C3B34557   6.702  30.100   7.950
 6980POPC   C4B34558   6.792  30.170   7.650
 6981POPC   NC334559  22.933  40.762   9.450
 6981POPC   PO434560  22.889  40.737   9.150
 6981POPC   GL134561  22.924  40.754   8.850
 6981POPC   GL234562  22.972  40.658   8.850
 6981POPC   C1A34563  22.949  40.790   8.550
 6981POPC   D2A34564  22.986  40.763   8.250
 6981POPC   C3A34565  22.981  40.784   7.950
 6981POPC   C4A34566  22.892  40.757   7.650
 6981POPC   C1B34567  23.005  40.515   8.550
 6981POPC   C2B34568  22.948  40.587   8.250
 6981POPC   C3B34569  22.974  40.551   7.950
 6981POPC   C4B34570  23.005  40.509   7.650
 6982POPC   NC334571  36.118  15.211   9.450
 6982POPC   PO434572  36.157  15.194   9.150
 6982POPC   GL134573  36.096  15.140   8.850
 6982POPC   GL234574  36.021  15.142   8.850
 6982POPC   C1A34575  36.092  15.181   8.550
 6982POPC   D2A34576  36.157  15.157   8.250
 6982POPC   C3A34577  36.120  15.156   7.950
 6982POPC   C4A34578  36.133  15.216   7.650
 6982POPC   C1B34579  35.986  14.972   8.550
 6982POPC   C2B34580  35.962  15.029   8.250
 6982POPC   C3B34581  35.957  14.982   7.950
 6982POPC   C4B34582  35.955  14.995   7.650
 6983POPC   NC334583   1.941  31.469   9.450
 6983POPC   PO434584   1.982  31.518   9.150
 6983POPC   GL134585   2.023  31.443   8.850
 6983POPC   GL234586   2.054  31.303   8.850
 6983POPC   C1A34587   2.001  31.480   8.550
 6983POPC   D2A34588   1.976  31.477   8.250
 6983POPC   C3A34589   2.037  31.505   7.950
 6983POPC   C4A34590   1.974  31.435   7.650
 6983POPC   C1B34591   2.083  31.212   8.550
 6983POPC   C2B34592   2.060  31.242   8.250
 6983POPC   C3B34593   2.039  31.261   7.950
 6983POPC   C4B34594   2.024  31.224   7.650
 6984POPC   NC334595   5.062  39.276   9.450
 6984POPC   PO434596   5.075  39.261   9.150
 6984POPC   GL134597   5.090  39.258   8.850
 6984POPC   GL234598   5.235  39.248   8.850
 6984POPC   C1A34599   5.085  39.185   8.550
 6984POPC   D2A34600   5.084  39.222   8.250
 6984POPC   C3A34601   5.118  39.194   7.950
 6984POPC   C4A34602   5.098  39.280   7.650
 6984POPC   C1B34603   5.300  39.211   8.550
 6984POPC   C2B34604   5.359  39.171   8.250
 6984POPC   C3B34605   5.296  39.214   7.950
 6984POPC   C4B34606   5.333  39.214   7.650
 6985POPC   NC334607  39.244  38.430   9.450
 6985POPC   PO434608  39.209  38.484   9.150
 6985POPC   GL134609  39.196  38.498   8.850
 6985POPC   GL234610  39.134  38.498   8.850
 6985POPC   C1A34611  39.209  38.455   8.550
 6985POPC   D2A34612  39.273  38.474   8.250
 6985POPC   C3A34613  39.254  38.469   7.950
 6985POPC   C4A34614  39.211  38.408   7.650
 6985POPC   C1B34615  39.073  38.662   8.550
 6985POPC   C2B34616  39.012  38.612   8.250
 6985POPC   C3B34617  39.074  38.616   7.950
 6985POPC   C4B34618  39.025  38.669   7.650
 6986POPC   NC334619  15.975   1.961   9.450
 6986POPC   PO434620  15.920   1.958   9.150
 6986POPC   GL134621  15.959   1.989   8.850
 6986POPC   GL234622  15.808   2.024   8.850
 6986POPC   C1A34623  15.962   2.006   8.550
 6986POPC   D2A34624  15.970   1.998   8.250
 6986POPC   C3A34625  15.910   1.978   7.950
 6986POPC   C4A34626  15.956   2.011   7.650
 6986POPC   C1B34627  15.709   2.134   8.550
 6986POPC   C2B34628  15.729   2.098   8.250
 6986POPC   C3B34629  15.734   2.147   7.950
 6986POPC   C4B34630  15.768   2.076   7.650
 6987POPC   NC334631  12.044   8.185   9.450
 6987POPC   PO434632  12.091   8.246   9.150
 6987POPC   GL134633  12.042   8.192   8.850
 6987POPC   GL234634  12.204   8.189   8.850
 6987POPC   C1A34635  12.058   8.191   8.550
 6987POPC   D2A34636  12.075   8.175   8.250
 6987POPC   C3A34637  12.075   8.175   7.950
 6987POPC   C4A34638  12.098   8.219   7.650
 6987POPC   C1B34639  12.289   8.159   8.550
 6987POPC   C2B34640  12.362   8.157   8.250
 6987POPC   C3B34641  12.343   8.187   7.950
 6987POPC   C4B34642  12.329   8.199   7.650
 6988POPC   NC334643   5.117  17.546   9.450
 6988POPC   PO434644   5.090  17.510   9.150
 6988POPC   GL134645   5.124  17.526   8.850
 6988POPC   GL234646   5.047  17.610   8.850
 6988POPC   C1A34647   5.129  17.545   8.550
 6988POPC   D2A34648   5.058  17.478   8.250
 6988POPC   C3A34649   5.105  17.509   7.950
 6988POPC   C4A34650   5.140  17.524   7.650
 6988POPC   C1B34651   5.047  17.751   8.550
 6988POPC   C2B34652   5.115  17.794   8.250
 6988POPC   C3B34653   5.066  17.732   7.950
 6988POPC   C4B34654   5.091  17.781   7.650
 6989POPC   NC334655  26.045   2.001   9.450
 6989POPC   PO434656  26.071   1.940   9.150
 6989POPC   GL134657  26.054   2.014   8.850
 6989POPC   GL234658  26.188   1.927   8.850
 6989POPC   C1A34659  25.995   1.955   8.550
 6989POPC   D2A34660  26.036   2.014   8.250
 6989POPC   C3A34661  25.993   1.977   7.950
 6989POPC   C4A34662  26.078   1.986   7.650
 6989POPC   C1B34663  26.321   1.853   8.550
 6989POPC   C2B34664  26.293   1.847   8.250
 6989POPC   C3B34665  26.270   1.889   7.950
 6989POPC   C4B34666  26.306   1.926   7.650
 6990POPC   NC334667   1.197  22.966   9.450
 6990POPC   PO434668   1.246  22.949   9.150
 6990POPC   GL134669   1.193  22.975   8.850
 6990POPC   GL234670   1.325  22.844   8.850
 6990POPC   C1A34671   1.193  22.925   8.550
 6990POPC   D2A34672   1.226  22.894   8.250
 6990POPC   C3A34673   1.230  22.911   7.950
 6990POPC   C4A34674   1.225  22.972   7.650
 6990POPC   C1B34675   1.452  22.847   8.550
 6990POPC   C2B34676   1.406  22.820   8.250
 6990POPC   C3B34677   1.428  22.841   7.950
 6990POPC   C4B34678   1.409  22.809   7.650
 6991POPC   NC334679  20.589   1.234   9.450
 6991POPC   PO434680  20.566   1.193   9.150
 6991POPC   GL134681  20.633   1.173   8.850
 6991POPC   GL234682  20.751   1.217   8.850
 6991POPC   C1A34683  20.642   1.263   8.550
 6991POPC   D2A34684  20.564   1.196   8.250
 6991POPC   C3A34685  20.587   1.237   7.950
 6991POPC   C4A34686  20.610   1.202   7.650
 6991POPC   C1B34687  20.863   1.203   8.550
 6991POPC   C2B34688  20.862   1.224   8.250
 6991POPC   C3B34689  20.898   1.259   7.950
 6991POPC   C4B34690  20.873   1.272   7.650
 6992POPC   NC334691  19.829  14.420   9.450
 6992POPC   PO434692  19.808  14.376   9.150
 6992POPC   GL134693  19.829  14.369   8.850
 6992POPC   GL234694  19.705  14.530   8.850
 6992POPC   C1A34695  19.877  14.399   8.550
 6992POPC   D2A34696  19.813  14.398   8.250
 6992POPC   C3A34697  19.798  14.403   7.950
 6992POPC   C4A34698  19.822  14.384   7.650
 6992POPC   C1B34699  19.632  14.587   8.550
 6992POPC   C2B34700  19.693  14.548   8.250
 6992POPC   C3B34701  19.688  14.562   7.950
 6992POPC   C4B34702  19.674  14.560   7.650
 6993POPC   NC334703  14.416   8.977   9.450
 6993POPC   PO434704  14.365   8.991   9.150
 6993POPC   GL134705  14.426   8.941   8.850
 6993POPC   GL234706  14.326   9.016   8.850
 6993POPC   C1A34707  14.444   8.989   8.550
 6993POPC   D2A34708  14.444   9.020   8.250
 6993POPC   C3A34709  14.375   8.943   7.950
 6993POPC   C4A34710  14.390   8.966   7.650
 6993POPC   C1B34711  14.235   9.137   8.550
 6993POPC   C2B34712  14.181   9.165   8.250
 6993POPC   C3B34713  14.233   9.165   7.950
 6993POPC   C4B34714  14.193   9.089   7.650
 6994POPC   NC334715  31.431  38.440   9.450
 6994POPC   PO434716  31.514  38.426   9.150
 6994POPC   GL134717  31.450  38.477   8.850
 6994POPC   GL234718  31.554  38.520   8.850
 6994POPC   C1A34719  31.461  38.450   8.550
 6994POPC   D2A34720  31.478  38.455   8.250
 6994POPC   C3A34721  31.430  38.498   7.950
 6994POPC   C4A34722  31.461  38.481   7.650
 6994POPC   C1B34723  31.582  38.654   8.550
 6994POPC   C2B34724  31.647  38.667   8.250
 6994POPC   C3B34725  31.652  38.644   7.950
 6994POPC   C4B34726  31.654  38.656   7.650
 6995POPC   NC334727  41.600  33.049   9.450
 6995POPC   PO434728  41.563  32.988   9.150
 6995POPC   GL134729  41.589  33.002   8.850
 6995POPC   GL234730  41.484  33.057   8.850
 6995POPC   C1A34731  41.568  33.033   8.550
 6995POPC   D2A34732  41.555  33.059   8.250
 6995POPC   C3A34733  41.545  33.039   7.950
 6995POPC   C4A34734  41.533  33.035   7.650
 6995POPC   C1B34735  41.359  33.162   8.550
 6995POPC   C2B34736  41.364  33.173   8.250
 6995POPC   C3B34737  41.363  33.202   7.950
 6995POPC   C4B34738  41.395  33.209   7.650
 6996POPC   NC334739  17.471  38.457   9.450
 6996POPC   PO434740  17.468  38.502   9.150
 6996POPC   GL134741  17.506  38.440   8.850
 6996POPC   GL234742  17.418  38.519   8.850
 6996POPC   C1A34743  17.533  38.492   8.550
 6996POPC   D2A34744  17.543  38.406   8.250
 6996POPC   C3A34745  17.543  38.459   7.950
 6996POPC   C4A34746  17.470  38.496   7.650
 6996POPC   C1B34747  17.218  38.515   8.550
 6996POPC   C2B34748  17.259  38.496   8.250
 6996POPC   C3B34749  17.272  38.476   7.950
 6996POPC   C4B34750  17.240  38.451   7.650
 6997POPC   NC334751  37.683  43.861   9.450
 6997POPC   PO434752  37.728  43.861   9.150
 6997POPC   GL134753  37.660  43.906   8.850
 6997POPC   GL234754  37.786  43.962   8.850
 6997POPC   C1A34755  37.652  43.837   8.550
 6997POPC   D2A34756  37.644  43.881   8.250
 6997POPC   C3A34757  37.691  43.897   7.950
 6997POPC   C4A34758  37.661  43.893   7.650
 6997POPC   C1B34759  37.825  44.054   8.550
 6997POPC   C2B34760  37.863  44.068   8.250
 6997POPC   C3B34761  37.791  44.042   7.950
 6997POPC   C4B34762  37.848  44.083   7.650
 6998POPC   NC334763  43.860  29.948   9.450
 6998POPC   PO434764  43.858  29.935   9.150
 6998POPC   GL134765  43.885  29.964   8.850
 6998POPC   GL234766  43.886  29.793   8.850
 6998POPC   C1A34767  43.837  29.874   8.550
 6998POPC   D2A34768  43.914  29.945   8.250
 6998POPC   C3A34769  43.908  29.902   7.950
 6998POPC   C4A34770  43.867  29.907   7.650
 6998POPC   C1B34771  43.864  29.703   8.550
 6998POPC   C2B34772  43.854  29.703   8.250
 6998POPC   C3B34773  43.862  29.648   7.950
 6998POPC   C4B34774  43.874  29.650   7.650
 6999POPC   NC334775   3.510  21.372   9.450
 6999POPC   PO434776   3.583  21.419   9.150
 6999POPC   GL134777   3.547  21.418   8.850
 6999POPC   GL234778   3.507  21.271   8.850
 6999POPC   C1A34779   3.552  21.428   8.550
 6999POPC   D2A34780   3.589  21.412   8.250
 6999POPC   C3A34781   3.562  21.360   7.950
 6999POPC   C4A34782   3.514  21.434   7.650
 6999POPC   C1B34783   3.444  21.178   8.550
 6999POPC   C2B34784   3.417  21.110   8.250
 6999POPC   C3B34785   3.485  21.171   7.950
 6999POPC   C4B34786   3.497  21.182   7.650
 7000POPC   NC334787  43.848  10.494   9.450
 7000POPC   PO434788  43.890  10.484   9.150
 7000POPC   GL134789  43.924  10.521   8.850
 7000POPC   GL234790  44.038  10.456   8.850
 7000POPC   C1A34791  43.887  10.487   8.550
 7000POPC   D2A34792  43.885  10.573   8.250
 7000POPC   C3A34793  43.922  10.500   7.950
 7000POPC   C4A34794  43.901  10.537   7.650
 7000POPC   C1B34795  44.109  10.429   8.550
 7000POPC   C2B34796  44.153  10.361   8.250
 7000POPC   C3B34797  44.076  10.443   7.950
 7000POPC   C4B34798  44.095  10.454   7.650
 7001POPC   NC334799  26.029  26.804   9.450
 7001POPC   PO434800  25.997  26.867   9.150
 7001POPC   GL134801  26.042  26.799   8.850
 7001POPC   GL234802  26.167  26.749   8.850
 7001POPC   C1A34803  26.020  26.833   8.550
 7001POPC   D2A34804  26.088  26.830   8.250
 7001POPC   C3A34805  26.087  26.819   7.950
 7001POPC   C4A34806  26.046  26.857   7.650
 7001POPC   C1B34807  26.251  26.689   8.550
 7001POPC   C2B34808  26.303  26.689   8.250
 7001POPC   C3B34809  26.247  26.778   7.950
 7001POPC   C4B34810  26.264  26.716   7.650
 7002POPC   NC334811   3.534   7.411   9.450
 7002POPC   PO434812   3.497   7.470   9.150
 7002POPC   GL134813   3.497   7.446   8.850
 7002POPC   GL234814   3.603   7.347   8.850
 7002POPC   C1A34815   3.582   7.465   8.550
 7002POPC   D2A34816   3.554   7.464   8.250
 7002POPC   C3A34817   3.555   7.398   7.950
 7002POPC   C4A34818   3.494   7.429   7.650
 7002POPC   C1B34819   3.783   7.251   8.550
 7002POPC   C2B34820   3.776   7.233   8.250
 7002POPC   C3B34821   3.707   7.262   7.950
 7002POPC   C4B34822   3.723   7.328   7.650
 7003POPC   NC334823   9.793  43.147   9.450
 7003POPC   PO434824   9.721  43.098   9.150
 7003POPC   GL134825   9.771  43.142   8.850
 7003POPC   GL234826   9.902  43.046   8.850
 7003POPC   C1A34827   9.742  43.137   8.550
 7003POPC   D2A34828   9.738  43.092   8.250
 7003POPC   C3A34829   9.735  43.084   7.950
 7003POPC   C4A34830   9.788  43.116   7.650
 7003POPC   C1B34831   9.999  43.018   8.550
 7003POPC   C2B34832   9.942  42.950   8.250
 7003POPC   C3B34833   9.997  42.972   7.950
 7003POPC   C4B34834   9.971  42.958   7.650
 7004POPC   NC334835   6.661  17.515   9.450
 7004POPC   PO434836   6.688  17.485   9.150
 7004POPC   GL134837   6.599  17.476   8.850
 7004POPC   GL234838   6.742  17.410   8.850
 7004POPC   C1A34839   6.612  17.516   8.550
 7004POPC   D2A34840   6.629  17.519   8.250
 7004POPC   C3A34841   6.626  17.497   7.950
 7004POPC   C4A34842   6.632  17.523   7.650
 7004POPC   C1B34843   6.826  17.413   8.550
 7004POPC   C2B34844   6.905  17.346   8.250
 7004POPC   C3B34845   6.908  17.394   7.950
 7004POPC   C4B34846   6.907  17.404   7.650
 7005POPC   NC334847  35.356  11.314   9.450
 7005POPC   PO434848  35.369  11.321   9.150
 7005POPC   GL134849  35.354  11.255   8.850
 7005POPC   GL234850  35.412  11.377   8.850
 7005POPC   C1A34851  35.353  11.267   8.550
 7005POPC   D2A34852  35.348  11.291   8.250
 7005POPC   C3A34853  35.361  11.292   7.950
 7005POPC   C4A34854  35.386  11.338   7.650
 7005POPC   C1B34855  35.374  11.579   8.550
 7005POPC   C2B34856  35.403  11.564   8.250
 7005POPC   C3B34857  35.399  11.561   7.950
 7005POPC   C4B34858  35.393  11.494   7.650
 7006POPC   NC334859  43.129  30.728   9.450
 7006POPC   PO434860  43.150  30.667   9.150
 7006POPC   GL134861  43.148  30.734   8.850
 7006POPC   GL234862  43.024  30.707   8.850
 7006POPC   C1A34863  43.150  30.743   8.550
 7006POPC   D2A34864  43.087  30.652   8.250
 7006POPC   C3A34865  43.112  30.714   7.950
 7006POPC   C4A34866  43.107  30.673   7.650
 7006POPC   C1B34867  42.842  30.718   8.550
 7006POPC   C2B34868  42.861  30.701   8.250
 7006POPC   C3B34869  42.832  30.707   7.950
 7006POPC   C4B34870  42.814  30.680   7.650
 7007POPC   NC334871  30.703   3.543   9.450
 7007POPC   PO434872  30.711   3.561   9.150
 7007POPC   GL134873  30.708   3.498   8.850
 7007POPC   GL234874  30.600   3.556   8.850
 7007POPC   C1A34875  30.746   3.579   8.550
 7007POPC   D2A34876  30.727   3.539   8.250
 7007POPC   C3A34877  30.700   3.499   7.950
 7007POPC   C4A34878  30.670   3.511   7.650
 7007POPC   C1B34879  30.408   3.564   8.550
 7007POPC   C2B34880  30.398   3.556   8.250
 7007POPC   C3B34881  30.452   3.555   7.950
 7007POPC   C4B34882  30.444   3.533   7.650
 7008POPC   NC334883   1.955   8.980   9.450
 7008POPC   PO434884   1.960   8.938   9.150
 7008POPC   GL134885   1.998   8.976   8.850
 7008POPC   GL234886   1.875   8.913   8.850
 7008POPC   C1A34887   2.014   8.958   8.550
 7008POPC   D2A34888   1.948   9.013   8.250
 7008POPC   C3A34889   2.030   8.996   7.950
 7008POPC   C4A34890   2.029   8.935   7.650
 7008POPC   C1B34891   1.794   8.930   8.550
 7008POPC   C2B34892   1.725   8.950   8.250
 7008POPC   C3B34893   1.786   8.868   7.950
 7008POPC   C4B34894   1.704   8.942   7.650
 7009POPC   NC334895   4.284  15.923   9.450
 7009POPC   PO434896   4.273  15.965   9.150
 7009POPC   GL134897   4.323  15.991   8.850
 7009POPC   GL234898   4.247  15.820   8.850
 7009POPC   C1A34899   4.305  15.964   8.550
 7009POPC   D2A34900   4.362  15.984   8.250
 7009POPC   C3A34901   4.280  15.979   7.950
 7009POPC   C4A34902   4.360  15.947   7.650
 7009POPC   C1B34903   4.306  15.757   8.550
 7009POPC   C2B34904   4.248  15.675   8.250
 7009POPC   C3B34905   4.278  15.732   7.950
 7009POPC   C4B34906   4.304  15.660   7.650
 7010POPC   NC334907   8.930  40.041   9.450
 7010POPC   PO434908   8.929  40.021   9.150
 7010POPC   GL134909   8.947  39.986   8.850
 7010POPC   GL234910   9.075  39.938   8.850
 7010POPC   C1A34911   8.981  40.026   8.550
 7010POPC   D2A34912   8.971  40.028   8.250
 7010POPC   C3A34913   9.010  40.022   7.950
 7010POPC   C4A34914   8.957  40.037   7.650
 7010POPC   C1B34915   9.209  39.829   8.550
 7010POPC   C2B34916   9.223  39.875   8.250
 7010POPC   C3B34917   9.207  39.892   7.950
 7010POPC   C4B34918   9.142  39.884   7.650
 7011POPC   NC334919  19.050  40.786   9.450
 7011POPC   PO434920  19.079  40.828   9.150
 7011POPC   GL134921  19.091  40.738   8.850
 7011POPC   GL234922  19.045  40.873   8.850
 7011POPC   C1A34923  19.101  40.793   8.550
 7011POPC   D2A34924  19.076  40.749   8.250
 7011POPC   C3A34925  19.062  40.804   7.950
 7011POPC   C4A34926  19.040  40.794   7.650
 7011POPC   C1B34927  19.041  41.050   8.550
 7011POPC   C2B34928  18.993  41.006   8.250
 7011POPC   C3B34929  18.976  41.026   7.950
 7011POPC   C4B34930  19.021  41.038   7.650
 7012POPC   NC334931   2.748   7.432   9.450
 7012POPC   PO434932   2.799   7.381   9.150
 7012POPC   GL134933   2.802   7.450   8.850
 7012POPC   GL234934   2.636   7.433   8.850
 7012POPC   C1A34935   2.810   7.379   8.550
 7012POPC   D2A34936   2.755   7.432   8.250
 7012POPC   C3A34937   2.743   7.413   7.950
 7012POPC   C4A34938   2.787   7.431   7.650
 7012POPC   C1B34939   2.553   7.379   8.550
 7012POPC   C2B34940   2.543   7.445   8.250
 7012POPC   C3B34941   2.542   7.386   7.950
 7012POPC   C4B34942   2.489   7.429   7.650
 7013POPC   NC334943  18.272  28.331   9.450
 7013POPC   PO434944  18.240  28.341   9.150
 7013POPC   GL134945  18.295  28.372   8.850
 7013POPC   GL234946  18.198  28.457   8.850
 7013POPC   C1A34947  18.301  28.412   8.550
 7013POPC   D2A34948  18.253  28.337   8.250
 7013POPC   C3A34949  18.311  28.320   7.950
 7013POPC   C4A34950  18.317  28.361   7.650
 7013POPC   C1B34951  18.119  28.556   8.550
 7013POPC   C2B34952  18.159  28.579   8.250
 7013POPC   C3B34953  18.124  28.572   7.950
 7013POPC   C4B34954  18.184  28.623   7.650
 7014POPC   NC334955   8.240  29.179   9.450
 7014POPC   PO434956   8.188  29.178   9.150
 7014POPC   GL134957   8.202  29.109   8.850
 7014POPC   GL234958   8.250  29.237   8.850
 7014POPC   C1A34959   8.178  29.114   8.550
 7014POPC   D2A34960   8.188  29.122   8.250
 7014POPC   C3A34961   8.236  29.137   7.950
 7014POPC   C4A34962   8.186  29.178   7.650
 7014POPC   C1B34963   8.343  29.355   8.550
 7014POPC   C2B34964   8.399  29.266   8.250
 7014POPC   C3B34965   8.385  29.332   7.950
 7014POPC   C4B34966   8.369  29.288   7.650
 7015POPC   NC334967  44.696  36.128   9.450
 7015POPC   PO434968  44.682  36.143   9.150
 7015POPC   GL134969  44.678  36.090   8.850
 7015POPC   GL234970  44.513  36.095   8.850
 7015POPC   C1A34971  44.704  36.092   8.550
 7015POPC   D2A34972  44.664  36.090   8.250
 7015POPC   C3A34973  44.639  36.091   7.950
 7015POPC   C4A34974  44.665  36.081   7.650
 7015POPC   C1B34975  44.370  36.025   8.550
 7015POPC   C2B34976  44.462  36.037   8.250
 7015POPC   C3B34977  44.369  36.087   7.950
 7015POPC   C4B34978  44.427  36.104   7.650
 7016POPC   NC334979   8.192  26.003   9.450
 7016POPC   PO434980   8.174  26.029   9.150
 7016POPC   GL134981   8.178  26.081   8.850
 7016POPC   GL234982   8.136  26.159   8.850
 7016POPC   C1A34983   8.210  26.036   8.550
 7016POPC   D2A34984   8.154  26.051   8.250
 7016POPC   C3A34985   8.175  26.030   7.950
 7016POPC   C4A34986   8.147  26.065   7.650
 7016POPC   C1B34987   8.097  26.240   8.550
 7016POPC   C2B34988   8.069  26.292   8.250
 7016POPC   C3B34989   8.084  26.256   7.950
 7016POPC   C4B34990   8.041  26.235   7.650
 7017POPC   NC334991  31.459   7.373   9.450
 7017POPC   PO434992  31.517   7.414   9.150
 7017POPC   GL134993  31.482   7.385   8.850
 7017POPC   GL234994  31.471   7.522   8.850
 7017POPC   C1A34995  31.430   7.407   8.550
 7017POPC   D2A34996  31.487   7.389   8.250
 7017POPC   C3A34997  31.481   7.413   7.950
 7017POPC   C4A34998  31.429   7.461   7.650
 7017POPC   C1B34999  31.387   7.608   8.550
 7017POPC   C2B35000  31.425   7.631   8.250
 7017POPC   C3B35001  31.359   7.648   7.950
 7017POPC   C4B35002  31.344   7.606   7.650
 7018POPC   NC335003  21.343   0.419   9.450
 7018POPC   PO435004  21.407   0.396   9.150
 7018POPC   GL135005  21.405   0.408   8.850
 7018POPC   GL235006  21.285   0.515   8.850
 7018POPC   C1A35007  21.381   0.454   8.550
 7018POPC   D2A35008  21.423   0.419   8.250
 7018POPC   C3A35009  21.399   0.409   7.950
 7018POPC   C4A35010  21.342   0.482   7.650
 7018POPC   C1B35011  21.234   0.645   8.550
 7018POPC   C2B35012  21.253   0.689   8.250
 7018POPC   C3B35013  21.205   0.650   7.950
 7018POPC   C4B35014  21.223   0.667   7.650
 7019POPC   NC335015  33.803   4.294   9.450
 7019POPC   PO435016  33.836   4.311   9.150
 7019POPC   GL135017  33.836   4.276   8.850
 7019POPC   GL235018  33.754   4.397   8.850
 7019POPC   C1A35019  33.832   4.279   8.550
 7019POPC   D2A35020  33.803   4.271   8.250
 7019POPC   C3A35021  33.840   4.275   7.950
 7019POPC   C4A35022  33.801   4.353   7.650
 7019POPC   C1B35023  33.654   4.521   8.550
 7019POPC   C2B35024  33.743   4.549   8.250
 7019POPC   C3B35025  33.664   4.584   7.950
 7019POPC   C4B35026  33.743   4.500   7.650
 7020POPC   NC335027   8.173   7.414   9.450
 7020POPC   PO435028   8.180   7.407   9.150
 7020POPC   GL135029   8.211   7.386   8.850
 7020POPC   GL235030   8.282   7.452   8.850
 7020POPC   C1A35031   8.224   7.410   8.550
 7020POPC   D2A35032   8.197   7.427   8.250
 7020POPC   C3A35033   8.160   7.396   7.950
 7020POPC   C4A35034   8.206   7.435   7.650
 7020POPC   C1B35035   8.403   7.529   8.550
 7020POPC   C2B35036   8.426   7.579   8.250
 7020POPC   C3B35037   8.420   7.558   7.950
 7020POPC   C4B35038   8.400   7.484   7.650
 7021POPC   NC335039  14.451  33.834   9.450
 7021POPC   PO435040  14.427  33.784   9.150
 7021POPC   GL135041  14.450  33.795   8.850
 7021POPC   GL235042  14.343  33.935   8.850
 7021POPC   C1A35043  14.363  33.793   8.550
 7021POPC   D2A35044  14.392  33.818   8.250
 7021POPC   C3A35045  14.425  33.828   7.950
 7021POPC   C4A35046  14.375  33.832   7.650
 7021POPC   C1B35047  14.428  34.090   8.550
 7021POPC   C2B35048  14.341  34.065   8.250
 7021POPC   C3B35049  14.346  34.003   7.950
 7021POPC   C4B35050  14.420  34.049   7.650
 7022POPC   NC335051  37.680  14.426   9.450
 7022POPC   PO435052  37.642  14.445   9.150
 7022POPC   GL135053  37.679  14.354   8.850
 7022POPC   GL235054  37.561  14.314   8.850
 7022POPC   C1A35055  37.671  14.448   8.550
 7022POPC   D2A35056  37.646  14.382   8.250
 7022POPC   C3A35057  37.680  14.390   7.950
 7022POPC   C4A35058  37.673  14.453   7.650
 7022POPC   C1B35059  37.476  14.203   8.550
 7022POPC   C2B35060  37.505  14.215   8.250
 7022POPC   C3B35061  37.453  14.259   7.950
 7022POPC   C4B35062  37.522  14.204   7.650
 7023POPC   NC335063  21.419  30.679   9.450
 7023POPC   PO435064  21.413  30.680   9.150
 7023POPC   GL135065  21.356  30.682   8.850
 7023POPC   GL235066  21.462  30.620   8.850
 7023POPC   C1A35067  21.393  30.708   8.550
 7023POPC   D2A35068  21.405  30.738   8.250
 7023POPC   C3A35069  21.435  30.688   7.950
 7023POPC   C4A35070  21.373  30.730   7.650
 7023POPC   C1B35071  21.500  30.479   8.550
 7023POPC   C2B35072  21.413  30.490   8.250
 7023POPC   C3B35073  21.498  30.454   7.950
 7023POPC   C4B35074  21.441  30.428   7.650
 7024POPC   NC335075  38.430  22.183   9.450
 7024POPC   PO435076  38.421  22.207   9.150
 7024POPC   GL135077  38.482  22.172   8.850
 7024POPC   GL235078  38.550  22.068   8.850
 7024POPC   C1A35079  38.409  22.208   8.550
 7024POPC   D2A35080  38.465  22.149   8.250
 7024POPC   C3A35081  38.453  22.125   7.950
 7024POPC   C4A35082  38.451  22.181   7.650
 7024POPC   C1B35083  38.595  21.959   8.550
 7024POPC   C2B35084  38.638  21.928   8.250
 7024POPC   C3B35085  38.604  21.994   7.950
 7024POPC   C4B35086  38.633  22.003   7.650
 7025POPC   NC335087  30.711  34.562   9.450
 7025POPC   PO435088  30.655  34.570   9.150
 7025POPC   GL135089  30.663  34.616   8.850
 7025POPC   GL235090  30.790  34.426   8.850
 7025POPC   C1A35091  30.744  34.579   8.550
 7025POPC   D2A35092  30.739  34.527   8.250
 7025POPC   C3A35093  30.659  34.607   7.950
 7025POPC   C4A35094  30.673  34.590   7.650
 7025POPC   C1B35095  30.780  34.349   8.550
 7025POPC   C2B35096  30.769  34.323   8.250
 7025POPC   C3B35097  30.804  34.335   7.950
 7025POPC   C4B35098  30.793  34.387   7.650
 7026POPC   NC335099  22.968  26.055   9.450
 7026POPC   PO435100  22.926  26.046   9.150
 7026POPC   GL135101  22.916  26.027   8.850
 7026POPC   GL235102  23.079  26.018   8.850
 7026POPC   C1A35103  22.924  26.052   8.550
 7026POPC   D2A35104  22.969  26.053   8.250
 7026POPC   C3A35105  22.925  25.999   7.950
 7026POPC   C4A35106  22.936  26.054   7.650
 7026POPC   C1B35107  23.124  26.005   8.550
 7026POPC   C2B35108  23.165  25.986   8.250
 7026POPC   C3B35109  23.169  25.945   7.950
 7026POPC   C4B35110  23.128  25.951   7.650
 7027POPC   NC335111  32.982  14.355   9.450
 7027POPC   PO435112  33.047  14.448   9.150
 7027POPC   GL135113  33.023  14.402   8.850
 7027POPC   GL235114  32.992  14.548   8.850
 7027POPC   C1A35115  32.997  14.357   8.550
 7027POPC   D2A35116  33.049  14.355   8.250
 7027POPC   C3A35117  33.066  14.376   7.950
 7027POPC   C4A35118  32.998  14.373   7.650
 7027POPC   C1B35119  33.017  14.617   8.550
 7027POPC   C2B35120  32.993  14.681   8.250
 7027POPC   C3B35121  33.037  14.678   7.950
 7027POPC   C4B35122  32.943  14.671   7.650
 7028POPC   NC335123  36.876  36.861   9.450
 7028POPC   PO435124  36.925  36.935   9.150
 7028POPC   GL135125  36.881  36.933   8.850
 7028POPC   GL235126  36.902  36.767   8.850
 7028POPC   C1A35127  36.890  36.919   8.550
 7028POPC   D2A35128  36.881  36.890   8.250
 7028POPC   C3A35129  36.879  36.892   7.950
 7028POPC   C4A35130  36.915  36.856   7.650
 7028POPC   C1B35131  36.937  36.632   8.550
 7028POPC   C2B35132  36.994  36.677   8.250
 7028POPC   C3B35133  37.003  36.633   7.950
 7028POPC   C4B35134  36.924  36.709   7.650
 7029POPC   NC335135  11.330  33.074   9.450
 7029POPC   PO435136  11.323  32.998   9.150
 7029POPC   GL135137  11.283  32.976   8.850
 7029POPC   GL235138  11.329  32.854   8.850
 7029POPC   C1A35139  11.301  33.058   8.550
 7029POPC   D2A35140  11.327  33.043   8.250
 7029POPC   C3A35141  11.320  32.997   7.950
 7029POPC   C4A35142  11.256  33.033   7.650
 7029POPC   C1B35143  11.317  32.750   8.550
 7029POPC   C2B35144  11.333  32.794   8.250
 7029POPC   C3B35145  11.286  32.779   7.950
 7029POPC   C4B35146  11.288  32.794   7.650
 7030POPC   NC335147  23.752  37.726   9.450
 7030POPC   PO435148  23.688  37.656   9.150
 7030POPC   GL135149  23.665  37.699   8.850
 7030POPC   GL235150  23.816  37.609   8.850
 7030POPC   C1A35151  23.674  37.726   8.550
 7030POPC   D2A35152  23.684  37.634   8.250
 7030POPC   C3A35153  23.742  37.726   7.950
 7030POPC   C4A35154  23.706  37.665   7.650
 7030POPC   C1B35155  23.920  37.648   8.550
 7030POPC   C2B35156  23.984  37.581   8.250
 7030POPC   C3B35157  23.939  37.647   7.950
 7030POPC   C4B35158  23.924  37.587   7.650
 7031POPC   NC335159  16.739  36.088   9.450
 7031POPC   PO435160  16.764  36.085   9.150
 7031POPC   GL135161  16.775  36.113   8.850
 7031POPC   GL235162  16.612  36.203   8.850
 7031POPC   C1A35163  16.742  36.105   8.550
 7031POPC   D2A35164  16.728  36.147   8.250
 7031POPC   C3A35165  16.700  36.169   7.950
 7031POPC   C4A35166  16.720  36.141   7.650
 7031POPC   C1B35167  16.508  36.182   8.550
 7031POPC   C2B35168  16.476  36.222   8.250
 7031POPC   C3B35169  16.455  36.155   7.950
 7031POPC   C4B35170  16.459  36.239   7.650
 7032POPC   NC335171  30.720  12.837   9.450
 7032POPC   PO435172  30.734  12.869   9.150
 7032POPC   GL135173  30.729  12.830   8.850
 7032POPC   GL235174  30.663  12.940   8.850
 7032POPC   C1A35175  30.685  12.853   8.550
 7032POPC   D2A35176  30.734  12.813   8.250
 7032POPC   C3A35177  30.740  12.857   7.950
 7032POPC   C4A35178  30.694  12.827   7.650
 7032POPC   C1B35179  30.494  13.041   8.550
 7032POPC   C2B35180  30.496  13.018   8.250
 7032POPC   C3B35181  30.495  13.038   7.950
 7032POPC   C4B35182  30.524  13.029   7.650
 7033POPC   NC335183  10.494  23.683   9.450
 7033POPC   PO435184  10.521  23.677   9.150
 7033POPC   GL135185  10.504  23.710   8.850
 7033POPC   GL235186  10.461  23.845   8.850
 7033POPC   C1A35187  10.544  23.669   8.550
 7033POPC   D2A35188  10.488  23.672   8.250
 7033POPC   C3A35189  10.503  23.743   7.950
 7033POPC   C4A35190  10.498  23.733   7.650
 7033POPC   C1B35191  10.497  23.962   8.550
 7033POPC   C2B35192  10.498  23.998   8.250
 7033POPC   C3B35193  10.504  23.967   7.950
 7033POPC   C4B35194  10.488  23.946   7.650
 7034POPC   NC335195  29.106   3.579   9.450
 7034POPC   PO435196  29.172   3.575   9.150
 7034POPC   GL135197  29.107   3.546   8.850
 7034POPC   GL235198  29.137   3.453   8.850
 7034POPC   C1A35199  29.138   3.534   8.550
 7034POPC   D2A35200  29.147   3.576   8.250
 7034POPC   C3A35201  29.194   3.567   7.950
 7034POPC   C4A35202  29.133   3.493   7.650
 7034POPC   C1B35203  29.068   3.333   8.550
 7034POPC   C2B35204  29.129   3.274   8.250
 7034POPC   C3B35205  29.125   3.293   7.950
 7034POPC   C4B35206  29.137   3.270   7.650
 7035POPC   NC335207   1.188   7.415   9.450
 7035POPC   PO435208   1.169   7.445   9.150
 7035POPC   GL135209   1.196   7.455   8.850
 7035POPC   GL235210   1.234   7.334   8.850
 7035POPC   C1A35211   1.191   7.408   8.550
 7035POPC   D2A35212   1.230   7.452   8.250
 7035POPC   C3A35213   1.180   7.389   7.950
 7035POPC   C4A35214   1.215   7.403   7.650
 7035POPC   C1B35215   1.169   7.128   8.550
 7035POPC   C2B35216   1.154   7.168   8.250
 7035POPC   C3B35217   1.228   7.198   7.950
 7035POPC   C4B35218   1.166   7.186   7.650
 7036POPC   NC335219   6.666  30.705   9.450
 7036POPC   PO435220   6.658  30.658   9.150
 7036POPC   GL135221   6.604  30.722   8.850
 7036POPC   GL235222   6.526  30.675   8.850
 7036POPC   C1A35223   6.616  30.661   8.550
 7036POPC   D2A35224   6.654  30.650   8.250
 7036POPC   C3A35225   6.654  30.670   7.950
 7036POPC   C4A35226   6.600  30.657   7.650
 7036POPC   C1B35227   6.400  30.581   8.550
 7036POPC   C2B35228   6.441  30.554   8.250
 7036POPC   C3B35229   6.370  30.551   7.950
 7036POPC   C4B35230   6.402  30.546   7.650
 7037POPC   NC335231   9.756  40.812   9.450
 7037POPC   PO435232   9.725  40.816   9.150
 7037POPC   GL135233   9.792  40.822   8.850
 7037POPC   GL235234   9.768  40.918   8.850
 7037POPC   C1A35235   9.796  40.780   8.550
 7037POPC   D2A35236   9.781  40.740   8.250
 7037POPC   C3A35237   9.788  40.825   7.950
 7037POPC   C4A35238   9.713  40.804   7.650
 7037POPC   C1B35239   9.773  41.028   8.550
 7037POPC   C2B35240   9.762  41.001   8.250
 7037POPC   C3B35241   9.736  41.032   7.950
 7037POPC   C4B35242   9.798  41.055   7.650
 7038POPC   NC335243   4.325  11.272   9.450
 7038POPC   PO435244   4.352  11.310   9.150
 7038POPC   GL135245   4.276  11.272   8.850
 7038POPC   GL235246   4.209  11.144   8.850
 7038POPC   C1A35247   4.321  11.266   8.550
 7038POPC   D2A35248   4.281  11.278   8.250
 7038POPC   C3A35249   4.272  11.265   7.950
 7038POPC   C4A35250   4.284  11.305   7.650
 7038POPC   C1B35251   4.219  11.099   8.550
 7038POPC   C2B35252   4.157  11.039   8.250
 7038POPC   C3B35253   4.232  11.102   7.950
 7038POPC   C4B35254   4.201  11.106   7.650
 7039POPC   NC335255  17.461   2.761   9.450
 7039POPC   PO435256  17.516   2.726   9.150
 7039POPC   GL135257  17.552   2.766   8.850
 7039POPC   GL235258  17.498   2.602   8.850
 7039POPC   C1A35259  17.469   2.724   8.550
 7039POPC   D2A35260  17.496   2.742   8.250
 7039POPC   C3A35261  17.510   2.780   7.950
 7039POPC   C4A35262  17.474   2.742   7.650
 7039POPC   C1B35263  17.568   2.525   8.550
 7039POPC   C2B35264  17.565   2.552   8.250
 7039POPC   C3B35265  17.569   2.521   7.950
 7039POPC   C4B35266  17.535   2.531   7.650
 7040POPC   NC335267  25.224  28.375   9.450
 7040POPC   PO435268  25.312  28.357   9.150
 7040POPC   GL135269  25.303  28.326   8.850
 7040POPC   GL235270  25.204  28.212   8.850
 7040POPC   C1A35271  25.283  28.363   8.550
 7040POPC   D2A35272  25.311  28.338   8.250
 7040POPC   C3A35273  25.224  28.399   7.950
 7040POPC   C4A35274  25.244  28.371   7.650
 7040POPC   C1B35275  25.176  28.158   8.550
 7040POPC   C2B35276  25.206  28.115   8.250
 7040POPC   C3B35277  25.198  28.120   7.950
 7040POPC   C4B35278  25.122  28.175   7.650
 7041POPC   NC335279  20.619  26.818   9.450
 7041POPC   PO435280  20.597  26.794   9.150
 7041POPC   GL135281  20.600  26.802   8.850
 7041POPC   GL235282  20.581  26.890   8.850
 7041POPC   C1A35283  20.655  26.779   8.550
 7041POPC   D2A35284  20.563  26.816   8.250
 7041POPC   C3A35285  20.660  26.774   7.950
 7041POPC   C4A35286  20.612  26.820   7.650
 7041POPC   C1B35287  20.469  27.078   8.550
 7041POPC   C2B35288  20.484  27.058   8.250
 7041POPC   C3B35289  20.449  27.058   7.950
 7041POPC   C4B35290  20.523  27.075   7.650
 7042POPC   NC335291  26.852   1.976   9.450
 7042POPC   PO435292  26.827   1.947   9.150
 7042POPC   GL135293  26.773   2.001   8.850
 7042POPC   GL235294  26.976   1.887   8.850
 7042POPC   C1A35295  26.811   2.029   8.550
 7042POPC   D2A35296  26.834   1.972   8.250
 7042POPC   C3A35297  26.867   2.037   7.950
 7042POPC   C4A35298  26.822   1.949   7.650
 7042POPC   C1B35299  27.079   1.865   8.550
 7042POPC   C2B35300  27.043   1.842   8.250
 7042POPC   C3B35301  27.048   1.867   7.950
 7042POPC   C4B35302  27.018   1.904   7.650
 7043POPC   NC335303  33.843  26.060   9.450
 7043POPC   PO435304  33.824  26.018   9.150
 7043POPC   GL135305  33.778  26.059   8.850
 7043POPC   GL235306  33.807  25.940   8.850
 7043POPC   C1A35307  33.790  26.004   8.550
 7043POPC   D2A35308  33.767  26.074   8.250
 7043POPC   C3A35309  33.850  26.029   7.950
 7043POPC   C4A35310  33.819  26.089   7.650
 7043POPC   C1B35311  33.903  25.760   8.550
 7043POPC   C2B35312  33.878  25.850   8.250
 7043POPC   C3B35313  33.868  25.762   7.950
 7043POPC   C4B35314  33.861  25.792   7.650
 7044POPC   NC335315  17.472   1.215   9.450
 7044POPC   PO435316  17.491   1.245   9.150
 7044POPC   GL135317  17.476   1.198   8.850
 7044POPC   GL235318  17.440   1.313   8.850
 7044POPC   C1A35319  17.541   1.173   8.550
 7044POPC   D2A35320  17.470   1.197   8.250
 7044POPC   C3A35321  17.515   1.170   7.950
 7044POPC   C4A35322  17.491   1.228   7.650
 7044POPC   C1B35323  17.256   1.382   8.550
 7044POPC   C2B35324  17.271   1.311   8.250
 7044POPC   C3B35325  17.300   1.340   7.950
 7044POPC   C4B35326  17.247   1.378   7.650
 7045POPC   NC335327  20.578   6.595   9.450
 7045POPC   PO435328  20.602   6.626   9.150
 7045POPC   GL135329  20.639   6.634   8.850
 7045POPC   GL235330  20.741   6.671   8.850
 7045POPC   C1A35331  20.593   6.599   8.550
 7045POPC   D2A35332  20.605   6.667   8.250
 7045POPC   C3A35333  20.605   6.621   7.950
 7045POPC   C4A35334  20.568   6.660   7.650
 7045POPC   C1B35335  20.857   6.709   8.550
 7045POPC   C2B35336  20.849   6.776   8.250
 7045POPC   C3B35337  20.875   6.804   7.950
 7045POPC   C4B35338  20.826   6.795   7.650
 7046POPC   NC335339  29.170  21.435   9.450
 7046POPC   PO435340  29.161  21.404   9.150
 7046POPC   GL135341  29.189  21.382   8.850
 7046POPC   GL235342  29.222  21.466   8.850
 7046POPC   C1A35343  29.193  21.371   8.550
 7046POPC   D2A35344  29.147  21.407   8.250
 7046POPC   C3A35345  29.182  21.423   7.950
 7046POPC   C4A35346  29.111  21.363   7.650
 7046POPC   C1B35347  29.354  21.602   8.550
 7046POPC   C2B35348  29.281  21.595   8.250
 7046POPC   C3B35349  29.325  21.568   7.950
 7046POPC   C4B35350  29.317  21.569   7.650
 7047POPC   NC335351  20.587  41.578   9.450
 7047POPC   PO435352  20.569  41.511   9.150
 7047POPC   GL135353  20.595  41.574   8.850
 7047POPC   GL235354  20.692  41.471   8.850
 7047POPC   C1A35355  20.647  41.605   8.550
 7047POPC   D2A35356  20.618  41.514   8.250
 7047POPC   C3A35357  20.625  41.602   7.950
 7047POPC   C4A35358  20.565  41.600   7.650
 7047POPC   C1B35359  20.700  41.346   8.550
 7047POPC   C2B35360  20.695  41.370   8.250
 7047POPC   C3B35361  20.761  41.387   7.950
 7047POPC   C4B35362  20.750  41.359   7.650
 7048POPC   NC335363  32.223   6.620   9.450
 7048POPC   PO435364  32.272   6.610   9.150
 7048POPC   GL135365  32.282   6.608   8.850
 7048POPC   GL235366  32.344   6.707   8.850
 7048POPC   C1A35367  32.292   6.608   8.550
 7048POPC   D2A35368  32.206   6.638   8.250
 7048POPC   C3A35369  32.199   6.664   7.950
 7048POPC   C4A35370  32.235   6.688   7.650
 7048POPC   C1B35371  32.461   6.795   8.550
 7048POPC   C2B35372  32.509   6.745   8.250
 7048POPC   C3B35373  32.479   6.762   7.950
 7048POPC   C4B35374  32.428   6.725   7.650
 7049POPC   NC335375  35.378  28.414   9.450
 7049POPC   PO435376  35.386  28.407   9.150
 7049POPC   GL135377  35.341  28.350   8.850
 7049POPC   GL235378  35.509  28.406   8.850
 7049POPC   C1A35379  35.333  28.322   8.550
 7049POPC   D2A35380  35.380  28.357   8.250
 7049POPC   C3A35381  35.389  28.321   7.950
 7049POPC   C4A35382  35.345  28.345   7.650
 7049POPC   C1B35383  35.646  28.410   8.550
 7049POPC   C2B35384  35.569  28.318   8.250
 7049POPC   C3B35385  35.564  28.340   7.950
 7049POPC   C4B35386  35.554  28.413   7.650
 7050POPC   NC335387   4.290   1.979   9.450
 7050POPC   PO435388   4.362   2.015   9.150
 7050POPC   GL135389   4.344   2.039   8.850
 7050POPC   GL235390   4.340   1.850   8.850
 7050POPC   C1A35391   4.316   1.982   8.550
 7050POPC   D2A35392   4.364   1.963   8.250
 7050POPC   C3A35393   4.272   1.970   7.950
 7050POPC   C4A35394   4.362   1.976   7.650
 7050POPC   C1B35395   4.272   1.718   8.550
 7050POPC   C2B35396   4.323   1.749   8.250
 7050POPC   C3B35397   4.275   1.703   7.950
 7050POPC   C4B35398   4.303   1.753   7.650
 7051POPC   NC335399   8.979  23.670   9.450
 7051POPC   PO435400   8.954  23.712   9.150
 7051POPC   GL135401   8.938  23.722   8.850
 7051POPC   GL235402   8.907  23.662   8.850
 7051POPC   C1A35403   8.987  23.702   8.550
 7051POPC   D2A35404   8.934  23.718   8.250
 7051POPC   C3A35405   8.930  23.672   7.950
 7051POPC   C4A35406   8.956  23.692   7.650
 7051POPC   C1B35407   8.711  23.568   8.550
 7051POPC   C2B35408   8.742  23.578   8.250
 7051POPC   C3B35409   8.718  23.608   7.950
 7051POPC   C4B35410   8.773  23.603   7.650
 7052POPC   NC335411  17.490   1.997   9.450
 7052POPC   PO435412  17.468   2.016   9.150
 7052POPC   GL135413  17.529   2.026   8.850
 7052POPC   GL235414  17.344   1.946   8.850
 7052POPC   C1A35415  17.477   1.993   8.550
 7052POPC   D2A35416  17.525   2.034   8.250
 7052POPC   C3A35417  17.493   2.037   7.950
 7052POPC   C4A35418  17.498   1.980   7.650
 7052POPC   C1B35419  17.245   1.949   8.550
 7052POPC   C2B35420  17.271   1.933   8.250
 7052POPC   C3B35421  17.255   1.976   7.950
 7052POPC   C4B35422  17.218   1.962   7.650
 7053POPC   NC335423  34.588  10.498   9.450
 7053POPC   PO435424  34.554  10.519   9.150
 7053POPC   GL135425  34.581  10.503   8.850
 7053POPC   GL235426  34.485  10.481   8.850
 7053POPC   C1A35427  34.549  10.493   8.550
 7053POPC   D2A35428  34.613  10.531   8.250
 7053POPC   C3A35429  34.607  10.476   7.950
 7053POPC   C4A35430  34.554  10.539   7.650
 7053POPC   C1B35431  34.439  10.339   8.550
 7053POPC   C2B35432  34.451  10.345   8.250
 7053POPC   C3B35433  34.416  10.301   7.950
 7053POPC   C4B35434  34.404  10.387   7.650
 7054POPC   NC335435  44.687  44.642   9.450
 7054POPC   PO435436  44.629  44.686   9.150
 7054POPC   GL135437  44.670  44.622   8.850
 7054POPC   GL235438  44.775  44.607   8.850
 7054POPC   C1A35439  44.703  44.645   8.550
 7054POPC   D2A35440  44.684  44.682   8.250
 7054POPC   C3A35441  44.635  44.630   7.950
 7054POPC   C4A35442  44.690  44.623   7.650
 7054POPC   C1B35443  44.826  44.523   8.550
 7054POPC   C2B35444  44.846  44.455   8.250
 7054POPC   C3B35445  44.879  44.481   7.950
 7054POPC   C4B35446  44.802  44.447   7.650
 7055POPC   NC335447  43.125  43.125   9.450
 7055POPC   PO435448  43.130  43.067   9.150
 7055POPC   GL135449  43.070  43.157   8.850
 7055POPC   GL235450  43.252  43.139   8.850
 7055POPC   C1A35451  43.146  43.110   8.550
 7055POPC   D2A35452  43.097  43.090   8.250
 7055POPC   C3A35453  43.149  43.150   7.950
 7055POPC   C4A35454  43.065  43.135   7.650
 7055POPC   C1B35455  43.310  43.218   8.550
 7055POPC   C2B35456  43.308  43.186   8.250
 7055POPC   C3B35457  43.315  43.215   7.950
 7055POPC   C4B35458  43.353  43.232   7.650
 7056POPC   NC335459  41.605  37.665   9.450
 7056POPC   PO435460  41.514  37.637   9.150
 7056POPC   GL135461  41.541  37.631   8.850
 7056POPC   GL235462  41.621  37.571   8.850
 7056POPC   C1A35463  41.568  37.683   8.550
 7056POPC   D2A35464  41.517  37.688   8.250
 7056POPC   C3A35465  41.578  37.672   7.950
 7056POPC   C4A35466  41.542  37.683   7.650
 7056POPC   C1B35467  41.661  37.468   8.550
 7056POPC   C2B35468  41.712  37.500   8.250
 7056POPC   C3B35469  41.675  37.437   7.950
 7056POPC   C4B35470  41.723  37.473   7.650
 7057POPC   NC335471   5.823  17.530   9.450
 7057POPC   PO435472   5.855  17.508   9.150
 7057POPC   GL135473   5.830  17.535   8.850
 7057POPC   GL235474   5.965  17.613   8.850
 7057POPC   C1A35475   5.841  17.463   8.550
 7057POPC   D2A35476   5.898  17.523   8.250
 7057POPC   C3A35477   5.891  17.523   7.950
 7057POPC   C4A35478   5.892  17.555   7.650
 7057POPC   C1B35479   6.137  17.640   8.550
 7057POPC   C2B35480   6.071  17.613   8.250
 7057POPC   C3B35481   6.111  17.616   7.950
 7057POPC   C4B35482   6.125  17.616   7.650
 7058POPC   NC335483  38.457  11.250   9.450
 7058POPC   PO435484  38.494  11.347   9.150
 7058POPC   GL135485  38.456  11.345   8.850
 7058POPC   GL235486  38.436  11.219   8.850
 7058POPC   C1A35487  38.504  11.292   8.550
 7058POPC   D2A35488  38.410  11.267   8.250
 7058POPC   C3A35489  38.491  11.293   7.950
 7058POPC   C4A35490  38.502  11.306   7.650
 7058POPC   C1B35491  38.417  11.085   8.550
 7058POPC   C2B35492  38.403  11.011   8.250
 7058POPC   C3B35493  38.348  11.030   7.950
 7058POPC   C4B35494  38.363  11.024   7.650
 7059POPC   NC335495   5.894  39.988   9.450
 7059POPC   PO435496   5.852  39.971   9.150
 7059POPC   GL135497   5.873  39.985   8.850
 7059POPC   GL235498   5.974  40.086   8.850
 7059POPC   C1A35499   5.873  40.042   8.550
 7059POPC   D2A35500   5.836  39.990   8.250
 7059POPC   C3A35501   5.918  39.993   7.950
 7059POPC   C4A35502   5.870  40.046   7.650
 7059POPC   C1B35503   6.006  40.228   8.550
 7059POPC   C2B35504   6.078  40.228   8.250
 7059POPC   C3B35505   6.070  40.196   7.950
 7059POPC   C4B35506   6.012  40.141   7.650
 7060POPC   NC335507  22.123  29.879   9.450
 7060POPC   PO435508  22.141  29.966   9.150
 7060POPC   GL135509  22.193  29.917   8.850
 7060POPC   GL235510  22.192  30.082   8.850
 7060POPC   C1A35511  22.157  29.873   8.550
 7060POPC   D2A35512  22.116  29.953   8.250
 7060POPC   C3A35513  22.131  29.957   7.950
 7060POPC   C4A35514  22.201  29.965   7.650
 7060POPC   C1B35515  22.272  30.204   8.550
 7060POPC   C2B35516  22.293  30.133   8.250
 7060POPC   C3B35517  22.282  30.113   7.950
 7060POPC   C4B35518  22.196  30.160   7.650
 7061POPC   NC335519   3.537  15.999   9.450
 7061POPC   PO435520   3.560  15.970   9.150
 7061POPC   GL135521   3.508  15.926   8.850
 7061POPC   GL235522   3.587  16.120   8.850
 7061POPC   C1A35523   3.556  15.985   8.550
 7061POPC   D2A35524   3.564  15.952   8.250
 7061POPC   C3A35525   3.517  15.994   7.950
 7061POPC   C4A35526   3.545  15.913   7.650
 7061POPC   C1B35527   3.564  16.221   8.550
 7061POPC   C2B35528   3.637  16.213   8.250
 7061POPC   C3B35529   3.591  16.226   7.950
 7061POPC   C4B35530   3.619  16.191   7.650
 7062POPC   NC335531  19.820  15.177   9.450
 7062POPC   PO435532  19.840  15.203   9.150
 7062POPC   GL135533  19.884  15.187   8.850
 7062POPC   GL235534  19.861  15.083   8.850
 7062POPC   C1A35535  19.841  15.154   8.550
 7062POPC   D2A35536  19.819  15.136   8.250
 7062POPC   C3A35537  19.801  15.181   7.950
 7062POPC   C4A35538  19.794  15.158   7.650
 7062POPC   C1B35539  19.904  14.902   8.550
 7062POPC   C2B35540  19.938  14.980   8.250
 7062POPC   C3B35541  19.898  14.912   7.950
 7062POPC   C4B35542  19.927  14.947   7.650
 7063POPC   NC335543   5.918  15.172   9.450
 7063POPC   PO435544   5.831  15.201   9.150
 7063POPC   GL135545   5.826  15.167   8.850
 7063POPC   GL235546   5.974  15.171   8.850
 7063POPC   C1A35547   5.901  15.134   8.550
 7063POPC   D2A35548   5.872  15.218   8.250
 7063POPC   C3A35549   5.897  15.149   7.950
 7063POPC   C4A35550   5.826  15.195   7.650
 7063POPC   C1B35551   6.159  15.184   8.550
 7063POPC   C2B35552   6.124  15.133   8.250
 7063POPC   C3B35553   6.077  15.110   7.950
 7063POPC   C4B35554   6.100  15.133   7.650
 7064POPC   NC335555  43.926  38.480   9.450
 7064POPC   PO435556  43.848  38.484   9.150
 7064POPC   GL135557  43.902  38.432   8.850
 7064POPC   GL235558  44.045  38.402   8.850
 7064POPC   C1A35559  43.935  38.463   8.550
 7064POPC   D2A35560  43.868  38.503   8.250
 7064POPC   C3A35561  43.921  38.485   7.950
 7064POPC   C4A35562  43.921  38.412   7.650
 7064POPC   C1B35563  44.184  38.472   8.550
 7064POPC   C2B35564  44.156  38.402   8.250
 7064POPC   C3B35565  44.135  38.402   7.950
 7064POPC   C4B35566  44.138  38.420   7.650
 7065POPC   NC335567   4.283   7.447   9.450
 7065POPC   PO435568   4.292   7.453   9.150
 7065POPC   GL135569   4.303   7.415   8.850
 7065POPC   GL235570   4.392   7.364   8.850
 7065POPC   C1A35571   4.268   7.419   8.550
 7065POPC   D2A35572   4.293   7.394   8.250
 7065POPC   C3A35573   4.335   7.399   7.950
 7065POPC   C4A35574   4.273   7.397   7.650
 7065POPC   C1B35575   4.497   7.177   8.550
 7065POPC   C2B35576   4.460   7.238   8.250
 7065POPC   C3B35577   4.507   7.175   7.950
 7065POPC   C4B35578   4.484   7.226   7.650
 7066POPC   NC335579  26.051  18.274   9.450
 7066POPC   PO435580  26.062  18.326   9.150
 7066POPC   GL135581  26.036  18.324   8.850
 7066POPC   GL235582  26.117  18.162   8.850
 7066POPC   C1A35583  26.073  18.275   8.550
 7066POPC   D2A35584  26.037  18.327   8.250
 7066POPC   C3A35585  26.018  18.312   7.950
 7066POPC   C4A35586  26.025  18.256   7.650
 7066POPC   C1B35587  26.123  18.001   8.550
 7066POPC   C2B35588  26.127  18.088   8.250
 7066POPC   C3B35589  26.097  18.044   7.950
 7066POPC   C4B35590  26.066  18.055   7.650
 7067POPC   NC335591  32.228  25.280   9.450
 7067POPC   PO435592  32.296  25.245   9.150
 7067POPC   GL135593  32.273  25.263   8.850
 7067POPC   GL235594  32.170  25.184   8.850
 7067POPC   C1A35595  32.209  25.242   8.550
 7067POPC   D2A35596  32.216  25.218   8.250
 7067POPC   C3A35597  32.224  25.263   7.950
 7067POPC   C4A35598  32.216  25.221   7.650
 7067POPC   C1B35599  32.002  25.213   8.550
 7067POPC   C2B35600  31.961  25.174   8.250
 7067POPC   C3B35601  31.990  25.182   7.950
 7067POPC   C4B35602  32.010  25.161   7.650
 7068POPC   NC335603   9.753  31.455   9.450
 7068POPC   PO435604   9.747  31.458   9.150
 7068POPC   GL135605   9.733  31.475   8.850
 7068POPC   GL235606   9.819  31.379   8.850
 7068POPC   C1A35607   9.721  31.503   8.550
 7068POPC   D2A35608   9.729  31.515   8.250
 7068POPC   C3A35609   9.764  31.467   7.950
 7068POPC   C4A35610   9.797  31.439   7.650
 7068POPC   C1B35611   9.942  31.317   8.550
 7068POPC   C2B35612   9.984  31.342   8.250
 7068POPC   C3B35613  10.003  31.355   7.950
 7068POPC   C4B35614  10.008  31.377   7.650
 7069POPC   NC335615   6.605   9.791   9.450
 7069POPC   PO435616   6.621   9.738   9.150
 7069POPC   GL135617   6.686   9.795   8.850
 7069POPC   GL235618   6.770   9.753   8.850
 7069POPC   C1A35619   6.617   9.743   8.550
 7069POPC   D2A35620   6.645   9.776   8.250
 7069POPC   C3A35621   6.684   9.709   7.950
 7069POPC   C4A35622   6.660   9.700   7.650
 7069POPC   C1B35623   6.936   9.763   8.550
 7069POPC   C2B35624   6.876   9.684   8.250
 7069POPC   C3B35625   6.870   9.707   7.950
 7069POPC   C4B35626   6.896   9.684   7.650
 7070POPC   NC335627  15.981  37.688   9.450
 7070POPC   PO435628  15.973  37.682   9.150
 7070POPC   GL135629  15.961  37.653   8.850
 7070POPC   GL235630  15.833  37.624   8.850
 7070POPC   C1A35631  15.975  37.723   8.550
 7070POPC   D2A35632  15.919  37.673   8.250
 7070POPC   C3A35633  15.980  37.654   7.950
 7070POPC   C4A35634  15.994  37.727   7.650
 7070POPC   C1B35635  15.719  37.606   8.550
 7070POPC   C2B35636  15.708  37.643   8.250
 7070POPC   C3B35637  15.697  37.606   7.950
 7070POPC   C4B35638  15.735  37.571   7.650
 7071POPC   NC335639  22.198   2.012   9.450
 7071POPC   PO435640  22.209   2.031   9.150
 7071POPC   GL135641  22.142   1.997   8.850
 7071POPC   GL235642  22.133   1.901   8.850
 7071POPC   C1A35643  22.162   1.985   8.550
 7071POPC   D2A35644  22.187   1.984   8.250
 7071POPC   C3A35645  22.152   2.032   7.950
 7071POPC   C4A35646  22.202   1.961   7.650
 7071POPC   C1B35647  22.038   1.804   8.550
 7071POPC   C2B35648  22.014   1.817   8.250
 7071POPC   C3B35649  22.031   1.787   7.950
 7071POPC   C4B35650  22.063   1.772   7.650
 7072POPC   NC335651  10.495   0.446   9.450
 7072POPC   PO435652  10.489   0.433   9.150
 7072POPC   GL135653  10.505   0.463   8.850
 7072POPC   GL235654  10.399   0.492   8.850
 7072POPC   C1A35655  10.474   0.414   8.550
 7072POPC   D2A35656  10.517   0.478   8.250
 7072POPC   C3A35657  10.554   0.475   7.950
 7072POPC   C4A35658  10.529   0.407   7.650
 7072POPC   C1B35659  10.314   0.551   8.550
 7072POPC   C2B35660  10.336   0.538   8.250
 7072POPC   C3B35661  10.286   0.537   7.950
 7072POPC   C4B35662  10.296   0.508   7.650
 7073POPC   NC335663  35.311  15.986   9.450
 7073POPC   PO435664  35.356  15.929   9.150
 7073POPC   GL135665  35.379  15.977   8.850
 7073POPC   GL235666  35.421  16.040   8.850
 7073POPC   C1A35667  35.361  15.966   8.550
 7073POPC   D2A35668  35.329  15.931   8.250
 7073POPC   C3A35669  35.348  15.986   7.950
 7073POPC   C4A35670  35.304  15.960   7.650
 7073POPC   C1B35671  35.462  16.130   8.550
 7073POPC   C2B35672  35.513  16.176   8.250
 7073POPC   C3B35673  35.455  16.202   7.950
 7073POPC   C4B35674  35.443  16.141   7.650
 7074POPC   NC335675  43.148   1.186   9.450
 7074POPC   PO435676  43.100   1.183   9.150
 7074POPC   GL135677  43.091   1.177   8.850
 7074POPC   GL235678  43.228   1.154   8.850
 7074POPC   C1A35679  43.085   1.183   8.550
 7074POPC   D2A35680  43.138   1.236   8.250
 7074POPC   C3A35681  43.075   1.229   7.950
 7074POPC   C4A35682  43.107   1.201   7.650
 7074POPC   C1B35683  43.324   1.092   8.550
 7074POPC   C2B35684  43.355   1.047   8.250
 7074POPC   C3B35685  43.296   1.087   7.950
 7074POPC   C4B35686  43.371   1.075   7.650
 7075POPC   NC335687  24.463  40.742   9.450
 7075POPC   PO435688  24.489  40.794   9.150
 7075POPC   GL135689  24.534  40.746   8.850
 7075POPC   GL235690  24.525  40.889   8.850
 7075POPC   C1A35691  24.507  40.740   8.550
 7075POPC   D2A35692  24.496  40.769   8.250
 7075POPC   C3A35693  24.471  40.767   7.950
 7075POPC   C4A35694  24.487  40.806   7.650
 7075POPC   C1B35695  24.468  41.009   8.550
 7075POPC   C2B35696  24.469  41.060   8.250
 7075POPC   C3B35697  24.479  40.987   7.950
 7075POPC   C4B35698  24.458  41.050   7.650
 7076POPC   NC335699  28.393   5.835   9.450
 7076POPC   PO435700  28.398   5.910   9.150
 7076POPC   GL135701  28.351   5.845   8.850
 7076POPC   GL235702  28.261   5.799   8.850
 7076POPC   C1A35703  28.323   5.847   8.550
 7076POPC   D2A35704  28.346   5.852   8.250
 7076POPC   C3A35705  28.378   5.894   7.950
 7076POPC   C4A35706  28.414   5.841   7.650
 7076POPC   C1B35707  28.178   5.744   8.550
 7076POPC   C2B35708  28.138   5.736   8.250
 7076POPC   C3B35709  28.166   5.813   7.950
 7076POPC   C4B35710  28.126   5.757   7.650
 7077POPC   NC335711  10.567   7.397   9.450
 7077POPC   PO435712  10.545   7.443   9.150
 7077POPC   GL135713  10.551   7.374   8.850
 7077POPC   GL235714  10.631   7.514   8.850
 7077POPC   C1A35715  10.495   7.468   8.550
 7077POPC   D2A35716  10.558   7.409   8.250
 7077POPC   C3A35717  10.551   7.468   7.950
 7077POPC   C4A35718  10.550   7.418   7.650
 7077POPC   C1B35719  10.736   7.546   8.550
 7077POPC   C2B35720  10.696   7.621   8.250
 7077POPC   C3B35721  10.760   7.550   7.950
 7077POPC   C4B35722  10.699   7.540   7.650
 7078POPC   NC335723  36.930  22.917   9.450
 7078POPC   PO435724  36.870  22.983   9.150
 7078POPC   GL135725  36.910  22.933   8.850
 7078POPC   GL235726  36.834  22.869   8.850
 7078POPC   C1A35727  36.939  22.889   8.550
 7078POPC   D2A35728  36.947  22.920   8.250
 7078POPC   C3A35729  36.904  22.910   7.950
 7078POPC   C4A35730  36.907  22.898   7.650
 7078POPC   C1B35731  36.710  22.806   8.550
 7078POPC   C2B35732  36.689  22.801   8.250
 7078POPC   C3B35733  36.663  22.817   7.950
 7078POPC   C4B35734  36.666  22.805   7.650
 7079POPC   NC335735   4.333  40.802   9.450
 7079POPC   PO435736   4.322  40.745   9.150
 7079POPC   GL135737   4.273  40.809   8.850
 7079POPC   GL235738   4.231  40.785   8.850
 7079POPC   C1A35739   4.333  40.774   8.550
 7079POPC   D2A35740   4.298  40.827   8.250
 7079POPC   C3A35741   4.277  40.811   7.950
 7079POPC   C4A35742   4.339  40.831   7.650
 7079POPC   C1B35743   4.094  40.697   8.550
 7079POPC   C2B35744   4.112  40.771   8.250
 7079POPC   C3B35745   4.066  40.742   7.950
 7079POPC   C4B35746   4.042  40.770   7.650
 7080POPC   NC335747   7.393   6.650   9.450
 7080POPC   PO435748   7.381   6.653   9.150
 7080POPC   GL135749   7.447   6.617   8.850
 7080POPC   GL235750   7.489   6.541   8.850
 7080POPC   C1A35751   7.444   6.649   8.550
 7080POPC   D2A35752   7.409   6.608   8.250
 7080POPC   C3A35753   7.455   6.605   7.950
 7080POPC   C4A35754   7.447   6.645   7.650
 7080POPC   C1B35755   7.625   6.479   8.550
 7080POPC   C2B35756   7.612   6.555   8.250
 7080POPC   C3B35757   7.597   6.475   7.950
 7080POPC   C4B35758   7.617   6.502   7.650
 7081POPC   NC335759  15.202   5.043   9.450
 7081POPC   PO435760  15.179   5.128   9.150
 7081POPC   GL135761  15.199   5.142   8.850
 7081POPC   GL235762  15.100   5.057   8.850
 7081POPC   C1A35763  15.137   5.101   8.550
 7081POPC   D2A35764  15.187   5.142   8.250
 7081POPC   C3A35765  15.167   5.125   7.950
 7081POPC   C4A35766  15.180   5.143   7.650
 7081POPC   C1B35767  14.988   4.934   8.550
 7081POPC   C2B35768  14.978   4.978   8.250
 7081POPC   C3B35769  15.030   4.951   7.950
 7081POPC   C4B35770  15.024   4.979   7.650
 7082POPC   NC335771  12.058  24.530   9.450
 7082POPC   PO435772  12.114  24.502   9.150
 7082POPC   GL135773  12.093  24.487   8.850
 7082POPC   GL235774  12.120  24.378   8.850
 7082POPC   C1A35775  12.118  24.530   8.550
 7082POPC   D2A35776  12.094  24.484   8.250
 7082POPC   C3A35777  12.057  24.492   7.950
 7082POPC   C4A35778  12.042  24.494   7.650
 7082POPC   C1B35779  12.173  24.313   8.550
 7082POPC   C2B35780  12.180  24.290   8.250
 7082POPC   C3B35781  12.248  24.286   7.950
 7082POPC   C4B35782  12.216  24.237   7.650
 7083POPC   NC335783  12.872  22.133   9.450
 7083POPC   PO435784  12.895  22.188   9.150
 7083POPC   GL135785  12.855  22.138   8.850
 7083POPC   GL235786  12.966  22.093   8.850
 7083POPC   C1A35787  12.879  22.189   8.550
 7083POPC   D2A35788  12.831  22.210   8.250
 7083POPC   C3A35789  12.878  22.207   7.950
 7083POPC   C4A35790  12.847  22.153   7.650
 7083POPC   C1B35791  13.020  21.973   8.550
 7083POPC   C2B35792  12.981  21.939   8.250
 7083POPC   C3B35793  13.001  21.992   7.950
 7083POPC   C4B35794  13.015  21.929   7.650
 7084POPC   NC335795  41.588   8.959   9.450
 7084POPC   PO435796  41.544   8.982   9.150
 7084POPC   GL135797  41.572   8.986   8.850
 7084POPC   GL235798  41.637   9.091   8.850
 7084POPC   C1A35799  41.532   8.943   8.550
 7084POPC   D2A35800  41.512   9.004   8.250
 7084POPC   C3A35801  41.510   8.952   7.950
 7084POPC   C4A35802  41.521   8.973   7.650
 7084POPC   C1B35803  41.731   9.104   8.550
 7084POPC   C2B35804  41.762   9.140   8.250
 7084POPC   C3B35805  41.787   9.075   7.950
 7084POPC   C4B35806  41.721   9.149   7.650
 7085POPC   NC335807   8.167  19.057   9.450
 7085POPC   PO435808   8.192  19.047   9.150
 7085POPC   GL135809   8.191  19.068   8.850
 7085POPC   GL235810   8.367  19.043   8.850
 7085POPC   C1A35811   8.205  19.032   8.550
 7085POPC   D2A35812   8.246  19.106   8.250
 7085POPC   C3A35813   8.148  19.040   7.950
 7085POPC   C4A35814   8.229  19.096   7.650
 7085POPC   C1B35815   8.420  19.043   8.550
 7085POPC   C2B35816   8.428  19.092   8.250
 7085POPC   C3B35817   8.438  19.094   7.950
 7085POPC   C4B35818   8.402  19.044   7.650
 7086POPC   NC335819  33.835  12.842   9.450
 7086POPC   PO435820  33.829  12.869   9.150
 7086POPC   GL135821  33.790  12.833   8.850
 7086POPC   GL235822  33.879  12.796   8.850
 7086POPC   C1A35823  33.844  12.876   8.550
 7086POPC   D2A35824  33.825  12.895   8.250
 7086POPC   C3A35825  33.784  12.842   7.950
 7086POPC   C4A35826  33.767  12.815   7.650
 7086POPC   C1B35827  34.061  12.752   8.550
 7086POPC   C2B35828  34.065  12.779   8.250
 7086POPC   C3B35829  34.004  12.753   7.950
 7086POPC   C4B35830  34.047  12.841   7.650
 7087POPC   NC335831  31.434   9.759   9.450
 7087POPC   PO435832  31.479   9.788   9.150
 7087POPC   GL135833  31.513   9.794   8.850
 7087POPC   GL235834  31.585   9.732   8.850
 7087POPC   C1A35835  31.433   9.764   8.550
 7087POPC   D2A35836  31.448   9.754   8.250
 7087POPC   C3A35837  31.435   9.773   7.950
 7087POPC   C4A35838  31.479   9.789   7.650
 7087POPC   C1B35839  31.722   9.659   8.550
 7087POPC   C2B35840  31.757   9.694   8.250
 7087POPC   C3B35841  31.720   9.643   7.950
 7087POPC   C4B35842  31.744   9.647   7.650
 7088POPC   NC335843  42.319  15.184   9.450
 7088POPC   PO435844  42.294  15.172   9.150
 7088POPC   GL135845  42.380  15.134   8.850
 7088POPC   GL235846  42.251  15.274   8.850
 7088POPC   C1A35847  42.328  15.205   8.550
 7088POPC   D2A35848  42.306  15.216   8.250
 7088POPC   C3A35849  42.314  15.178   7.950
 7088POPC   C4A35850  42.345  15.154   7.650
 7088POPC   C1B35851  42.094  15.328   8.550
 7088POPC   C2B35852  42.138  15.277   8.250
 7088POPC   C3B35853  42.146  15.300   7.950
 7088POPC   C4B35854  42.101  15.353   7.650
 7089POPC   NC335855  15.930   1.251   9.450
 7089POPC   PO435856  15.947   1.179   9.150
 7089POPC   GL135857  16.005   1.219   8.850
 7089POPC   GL235858  15.865   1.154   8.850
 7089POPC   C1A35859  15.955   1.210   8.550
 7089POPC   D2A35860  16.003   1.236   8.250
 7089POPC   C3A35861  15.928   1.215   7.950
 7089POPC   C4A35862  15.928   1.175   7.650
 7089POPC   C1B35863  15.731   1.057   8.550
 7089POPC   C2B35864  15.814   1.056   8.250
 7089POPC   C3B35865  15.764   1.049   7.950
 7089POPC   C4B35866  15.730   1.047   7.650
 7090POPC   NC335867   3.527  32.284   9.450
 7090POPC   PO435868   3.582  32.260   9.150
 7090POPC   GL135869   3.498  32.296   8.850
 7090POPC   GL235870   3.702  32.243   8.850
 7090POPC   C1A35871   3.582  32.262   8.550
 7090POPC   D2A35872   3.588  32.251   8.250
 7090POPC   C3A35873   3.528  32.246   7.950
 7090POPC   C4A35874   3.509  32.218   7.650
 7090POPC   C1B35875   3.804  32.187   8.550
 7090POPC   C2B35876   3.790  32.119   8.250
 7090POPC   C3B35877   3.810  32.178   7.950
 7090POPC   C4B35878   3.810  32.135   7.650
 7091POPC   NC335879  15.924  14.365   9.450
 7091POPC   PO435880  15.942  14.442   9.150
 7091POPC   GL135881  15.978  14.416   8.850
 7091POPC   GL235882  16.114  14.406   8.850
 7091POPC   C1A35883  15.950  14.390   8.550
 7091POPC   D2A35884  15.969  14.423   8.250
 7091POPC   C3A35885  15.995  14.405   7.950
 7091POPC   C4A35886  15.918  14.411   7.650
 7091POPC   C1B35887  16.235  14.455   8.550
 7091POPC   C2B35888  16.228  14.452   8.250
 7091POPC   C3B35889  16.189  14.418   7.950
 7091POPC   C4B35890  16.250  14.394   7.650
 7092POPC   NC335891  42.333  23.735   9.450
 7092POPC   PO435892  42.287  23.681   9.150
 7092POPC   GL135893  42.357  23.692   8.850
 7092POPC   GL235894  42.268  23.646   8.850
 7092POPC   C1A35895  42.356  23.742   8.550
 7092POPC   D2A35896  42.287  23.672   8.250
 7092POPC   C3A35897  42.317  23.713   7.950
 7092POPC   C4A35898  42.294  23.714   7.650
 7092POPC   C1B35899  42.196  23.448   8.550
 7092POPC   C2B35900  42.168  23.508   8.250
 7092POPC   C3B35901  42.174  23.498   7.950
 7092POPC   C4B35902  42.223  23.468   7.650
 7093POPC   NC335903   5.895  29.123   9.450
 7093POPC   PO435904   5.871  29.147   9.150
 7093POPC   GL135905   5.915  29.132   8.850
 7093POPC   GL235906   5.971  29.077   8.850
 7093POPC   C1A35907   5.836  29.177   8.550
 7093POPC   D2A35908   5.898  29.113   8.250
 7093POPC   C3A35909   5.873  29.193   7.950
 7093POPC   C4A35910   5.857  29.159   7.650
 7093POPC   C1B35911   6.107  28.958   8.550
 7093POPC   C2B35912   6.033  28.977   8.250
 7093POPC   C3B35913   6.031  28.968   7.950
 7093POPC   C4B35914   6.078  28.952   7.650
 7094POPC   NC335915  13.587   4.292   9.450
 7094POPC   PO435916  13.589   4.290   9.150
 7094POPC   GL135917  13.587   4.360   8.850
 7094POPC   GL235918  13.653   4.476   8.850
 7094POPC   C1A35919  13.618   4.340   8.550
 7094POPC   D2A35920  13.579   4.331   8.250
 7094POPC   C3A35921  13.591   4.290   7.950
 7094POPC   C4A35922  13.668   4.292   7.650
 7094POPC   C1B35923  13.687   4.602   8.550
 7094POPC   C2B35924  13.705   4.576   8.250
 7094POPC   C3B35925  13.678   4.521   7.950
 7094POPC   C4B35926  13.670   4.569   7.650
 7095POPC   NC335927  29.130  28.333   9.450
 7095POPC   PO435928  29.123  28.335   9.150
 7095POPC   GL135929  29.125  28.409   8.850
 7095POPC   GL235930  29.183  28.244   8.850
 7095POPC   C1A35931  29.191  28.331   8.550
 7095POPC   D2A35932  29.173  28.325   8.250
 7095POPC   C3A35933  29.129  28.397   7.950
 7095POPC   C4A35934  29.179  28.365   7.650
 7095POPC   C1B35935  29.326  28.119   8.550
 7095POPC   C2B35936  29.302  28.198   8.250
 7095POPC   C3B35937  29.287  28.158   7.950
 7095POPC   C4B35938  29.302  28.131   7.650
 7096POPC   NC335939  11.349   8.225   9.450
 7096POPC   PO435940  11.347   8.191   9.150
 7096POPC   GL135941  11.287   8.175   8.850
 7096POPC   GL235942  11.216   8.130   8.850
 7096POPC   C1A35943  11.302   8.207   8.550
 7096POPC   D2A35944  11.280   8.237   8.250
 7096POPC   C3A35945  11.340   8.148   7.950
 7096POPC   C4A35946  11.333   8.184   7.650
 7096POPC   C1B35947  11.128   8.019   8.550
 7096POPC   C2B35948  11.142   8.009   8.250
 7096POPC   C3B35949  11.086   8.060   7.950
 7096POPC   C4B35950  11.106   8.078   7.650
 7097POPC   NC335951  30.718   5.099   9.450
 7097POPC   PO435952  30.651   5.130   9.150
 7097POPC   GL135953  30.675   5.049   8.850
 7097POPC   GL235954  30.838   5.170   8.850
 7097POPC   C1A35955  30.677   5.063   8.550
 7097POPC   D2A35956  30.648   5.103   8.250
 7097POPC   C3A35957  30.690   5.051   7.950
 7097POPC   C4A35958  30.714   5.083   7.650
 7097POPC   C1B35959  30.918   5.267   8.550
 7097POPC   C2B35960  30.851   5.222   8.250
 7097POPC   C3B35961  30.904   5.282   7.950
 7097POPC   C4B35962  30.943   5.268   7.650
 7098POPC   NC335963  17.489  43.846   9.450
 7098POPC   PO435964  17.462  43.914   9.150
 7098POPC   GL135965  17.470  43.908   8.850
 7098POPC   GL235966  17.668  43.940   8.850
 7098POPC   C1A35967  17.469  43.899   8.550
 7098POPC   D2A35968  17.511  43.936   8.250
 7098POPC   C3A35969  17.504  43.898   7.950
 7098POPC   C4A35970  17.459  43.926   7.650
 7098POPC   C1B35971  17.705  43.956   8.550
 7098POPC   C2B35972  17.725  44.012   8.250
 7098POPC   C3B35973  17.727  43.998   7.950
 7098POPC   C4B35974  17.784  44.009   7.650
 7099POPC   NC335975  43.881   2.737   9.450
 7099POPC   PO435976  43.935   2.813   9.150
 7099POPC   GL135977  43.850   2.763   8.850
 7099POPC   GL235978  44.016   2.788   8.850
 7099POPC   C1A35979  43.910   2.775   8.550
 7099POPC   D2A35980  43.909   2.726   8.250
 7099POPC   C3A35981  43.910   2.734   7.950
 7099POPC   C4A35982  43.910   2.814   7.650
 7099POPC   C1B35983  44.103   2.760   8.550
 7099POPC   C2B35984  44.107   2.784   8.250
 7099POPC   C3B35985  44.089   2.751   7.950
 7099POPC   C4B35986  44.176   2.718   7.650
 7100POPC   NC335987  12.897   5.884   9.450
 7100POPC   PO435988  12.866   5.870   9.150
 7100POPC   GL135989  12.829   5.889   8.850
 7100POPC   GL235990  12.910   5.756   8.850
 7100POPC   C1A35991  12.890   5.852   8.550
 7100POPC   D2A35992  12.835   5.821   8.250
 7100POPC   C3A35993  12.875   5.905   7.950
 7100POPC   C4A35994  12.845   5.850   7.650
 7100POPC   C1B35995  12.944   5.581   8.550
 7100POPC   C2B35996  12.933   5.581   8.250
 7100POPC   C3B35997  12.933   5.583   7.950
 7100POPC   C4B35998  12.868   5.586   7.650
 7101POPC   NC335999  39.971  15.996   9.450
 7101POPC   PO436000  40.028  15.931   9.150
 7101POPC   GL136001  40.042  15.952   8.850
 7101POPC   GL236002  40.150  15.897   8.850
 7101POPC   C1A36003  40.015  15.931   8.550
 7101POPC   D2A36004  39.995  15.930   8.250
 7101POPC   C3A36005  39.976  15.945   7.950
 7101POPC   C4A36006  39.969  15.986   7.650
 7101POPC   C1B36007  40.300  15.973   8.550
 7101POPC   C2B36008  40.250  15.901   8.250
 7101POPC   C3B36009  40.247  15.911   7.950
 7101POPC   C4B36010  40.248  15.885   7.650
 7102POPC   NC336011  14.447  28.336   9.450
 7102POPC   PO436012  14.354  28.359   9.150
 7102POPC   GL136013  14.442  28.415   8.850
 7102POPC   GL236014  14.290  28.440   8.850
 7102POPC   C1A36015  14.418  28.417   8.550
 7102POPC   D2A36016  14.371  28.404   8.250
 7102POPC   C3A36017  14.410  28.405   7.950
 7102POPC   C4A36018  14.361  28.374   7.650
 7102POPC   C1B36019  14.201  28.479   8.550
 7102POPC   C2B36020  14.144  28.425   8.250
 7102POPC   C3B36021  14.201  28.454   7.950
 7102POPC   C4B36022  14.197  28.502   7.650
 7103POPC   NC336023   4.302   4.293   9.450
 7103POPC   PO436024   4.297   4.280   9.150
 7103POPC   GL136025   4.299   4.345   8.850
 7103POPC   GL236026   4.252   4.227   8.850
 7103POPC   C1A36027   4.309   4.277   8.550
 7103POPC   D2A36028   4.319   4.325   8.250
 7103POPC   C3A36029   4.291   4.301   7.950
 7103POPC   C4A36030   4.315   4.361   7.650
 7103POPC   C1B36031   4.098   4.202   8.550
 7103POPC   C2B36032   4.060   4.172   8.250
 7103POPC   C3B36033   4.134   4.195   7.950
 7103POPC   C4B36034   4.115   4.203   7.650
 7104POPC   NC336035  16.737   6.605   9.450
 7104POPC   PO436036  16.759   6.678   9.150
 7104POPC   GL136037  16.739   6.644   8.850
 7104POPC   GL236038  16.801   6.789   8.850
 7104POPC   C1A36039  16.763   6.648   8.550
 7104POPC   D2A36040  16.718   6.676   8.250
 7104POPC   C3A36041  16.708   6.637   7.950
 7104POPC   C4A36042  16.706   6.618   7.650
 7104POPC   C1B36043  16.812   6.845   8.550
 7104POPC   C2B36044  16.772   6.921   8.250
 7104POPC   C3B36045  16.779   6.856   7.950
 7104POPC   C4B36046  16.834   6.917   7.650
 7105POPC   NC336047   1.262   8.937   9.450
 7105POPC   PO436048   1.257   9.014   9.150
 7105POPC   GL136049   1.231   8.948   8.850
 7105POPC   GL236050   1.089   8.862   8.850
 7105POPC   C1A36051   1.214   9.006   8.550
 7105POPC   D2A36052   1.217   9.001   8.250
 7105POPC   C3A36053   1.242   8.930   7.950
 7105POPC   C4A36054   1.227   8.986   7.650
 7105POPC   C1B36055   1.002   8.852   8.550
 7105POPC   C2B36056   1.033   8.883   8.250
 7105POPC   C3B36057   1.008   8.839   7.950
 7105POPC   C4B36058   1.041   8.887   7.650
 7106POPC   NC336059  31.485   8.230   9.450
 7106POPC   PO436060  31.492   8.200   9.150
 7106POPC   GL136061  31.471   8.224   8.850
 7106POPC   GL236062  31.385   8.228   8.850
 7106POPC   C1A36063  31.468   8.211   8.550
 7106POPC   D2A36064  31.490   8.197   8.250
 7106POPC   C3A36065  31.451   8.222   7.950
 7106POPC   C4A36066  31.433   8.154   7.650
 7106POPC   C1B36067  31.236   8.209   8.550
 7106POPC   C2B36068  31.265   8.222   8.250
 7106POPC   C3B36069  31.254   8.231   7.950
 7106POPC   C4B36070  31.195   8.257   7.650
 7107POPC   NC336071  43.914   7.447   9.450
 7107POPC   PO436072  43.840   7.450   9.150
 7107POPC   GL136073  43.935   7.436   8.850
 7107POPC   GL236074  43.833   7.343   8.850
 7107POPC   C1A36075  43.934   7.424   8.550
 7107POPC   D2A36076  43.928   7.409   8.250
 7107POPC   C3A36077  43.928   7.390   7.950
 7107POPC   C4A36078  43.893   7.416   7.650
 7107POPC   C1B36079  43.764   7.162   8.550
 7107POPC   C2B36080  43.846   7.194   8.250
 7107POPC   C3B36081  43.841   7.174   7.950
 7107POPC   C4B36082  43.838   7.203   7.650
 7108POPC   NC336083  42.348  11.287   9.450
 7108POPC   PO436084  42.312  11.270   9.150
 7108POPC   GL136085  42.310  11.255   8.850
 7108POPC   GL236086  42.479  11.303   8.850
 7108POPC   C1A36087  42.309  11.279   8.550
 7108POPC   D2A36088  42.286  11.264   8.250
 7108POPC   C3A36089  42.292  11.299   7.950
 7108POPC   C4A36090  42.302  11.319   7.650
 7108POPC   C1B36091  42.539  11.214   8.550
 7108POPC   C2B36092  42.576  11.262   8.250
 7108POPC   C3B36093  42.594  11.208   7.950
 7108POPC   C4B36094  42.535  11.244   7.650
 7109POPC   NC336095  22.201  18.240   9.450
 7109POPC   PO436096  22.152  18.309   9.150
 7109POPC   GL136097  22.126  18.270   8.850
 7109POPC   GL236098  22.044  18.226   8.850
 7109POPC   C1A36099  22.142  18.263   8.550
 7109POPC   D2A36100  22.212  18.241   8.250
 7109POPC   C3A36101  22.177  18.322   7.950
 7109POPC   C4A36102  22.123  18.261   7.650
 7109POPC   C1B36103  21.955  18.241   8.550
 7109POPC   C2B36104  21.883  18.185   8.250
 7109POPC   C3B36105  21.959  18.179   7.950
 7109POPC   C4B36106  21.903  18.241   7.650
 7110POPC   NC336107  11.259  35.400   9.450
 7110POPC   PO436108  11.341  35.395   9.150
 7110POPC   GL136109  11.328  35.353   8.850
 7110POPC   GL236110  11.263  35.255   8.850
 7110POPC   C1A36111  11.288  35.391   8.550
 7110POPC   D2A36112  11.266  35.366   8.250
 7110POPC   C3A36113  11.285  35.347   7.950
 7110POPC   C4A36114  11.270  35.343   7.650
 7110POPC   C1B36115  11.256  35.138   8.550
 7110POPC   C2B36116  11.227  35.130   8.250
 7110POPC   C3B36117  11.252  35.109   7.950
 7110POPC   C4B36118  11.296  35.155   7.650
 7111POPC   NC336119  14.358  26.811   9.450
 7111POPC   PO436120  14.357  26.790   9.150
 7111POPC   GL136121  14.386  26.779   8.850
 7111POPC   GL236122  14.500  26.905   8.850
 7111POPC   C1A36123  14.427  26.860   8.550
 7111POPC   D2A36124  14.410  26.782   8.250
 7111POPC   C3A36125  14.388  26.861   7.950
 7111POPC   C4A36126  14.365  26.790   7.650
 7111POPC   C1B36127  14.627  26.956   8.550
 7111POPC   C2B36128  14.631  26.958   8.250
 7111POPC   C3B36129  14.648  26.932   7.950
 7111POPC   C4B36130  14.593  26.945   7.650
 7112POPC   NC336131  23.722  27.641   9.450
 7112POPC   PO436132  23.749  27.553   9.150
 7112POPC   GL136133  23.721  27.612   8.850
 7112POPC   GL236134  23.637  27.592   8.850
 7112POPC   C1A36135  23.764  27.555   8.550
 7112POPC   D2A36136  23.702  27.642   8.250
 7112POPC   C3A36137  23.734  27.639   7.950
 7112POPC   C4A36138  23.762  27.610   7.650
 7112POPC   C1B36139  23.451  27.646   8.550
 7112POPC   C2B36140  23.420  27.582   8.250
 7112POPC   C3B36141  23.480  27.630   7.950
 7112POPC   C4B36142  23.427  27.597   7.650
 7113POPC   NC336143  26.074  39.964   9.450
 7113POPC   PO436144  25.998  40.016   9.150
 7113POPC   GL136145  26.085  39.995   8.850
 7113POPC   GL236146  25.910  39.966   8.850
 7113POPC   C1A36147  26.043  40.054   8.550
 7113POPC   D2A36148  26.006  39.985   8.250
 7113POPC   C3A36149  26.080  40.001   7.950
 7113POPC   C4A36150  26.001  39.966   7.650
 7113POPC   C1B36151  25.764  40.013   8.550
 7113POPC   C2B36152  25.805  40.007   8.250
 7113POPC   C3B36153  25.761  39.994   7.950
 7113POPC   C4B36154  25.834  40.066   7.650
 7114POPC   NC336155  32.199  36.900   9.450
 7114POPC   PO436156  32.268  36.944   9.150
 7114POPC   GL136157  32.272  36.936   8.850
 7114POPC   GL236158  32.279  36.774   8.850
 7114POPC   C1A36159  32.295  36.862   8.550
 7114POPC   D2A36160  32.219  36.857   8.250
 7114POPC   C3A36161  32.209  36.943   7.950
 7114POPC   C4A36162  32.221  36.868   7.650
 7114POPC   C1B36163  32.276  36.696   8.550
 7114POPC   C2B36164  32.260  36.684   8.250
 7114POPC   C3B36165  32.290  36.622   7.950
 7114POPC   C4B36166  32.256  36.635   7.650
 7115POPC   NC336167  12.034  33.789   9.450
 7115POPC   PO436168  12.075  33.790   9.150
 7115POPC   GL136169  12.095  33.828   8.850
 7115POPC   GL236170  12.077  33.886   8.850
 7115POPC   C1A36171  12.042  33.784   8.550
 7115POPC   D2A36172  12.074  33.817   8.250
 7115POPC   C3A36173  12.062  33.757   7.950
 7115POPC   C4A36174  12.039  33.840   7.650
 7115POPC   C1B36175  12.132  34.012   8.550
 7115POPC   C2B36176  12.072  34.098   8.250
 7115POPC   C3B36177  12.100  34.025   7.950
 7115POPC   C4B36178  12.070  34.025   7.650
 7116POPC   NC336179  22.929  17.459   9.450
 7116POPC   PO436180  22.984  17.494   9.150
 7116POPC   GL136181  22.950  17.481   8.850
 7116POPC   GL236182  22.909  17.382   8.850
 7116POPC   C1A36183  22.966  17.458   8.550
 7116POPC   D2A36184  22.974  17.542   8.250
 7116POPC   C3A36185  22.979  17.537   7.950
 7116POPC   C4A36186  22.936  17.515   7.650
 7116POPC   C1B36187  22.803  17.293   8.550
 7116POPC   C2B36188  22.789  17.334   8.250
 7116POPC   C3B36189  22.836  17.279   7.950
 7116POPC   C4B36190  22.797  17.274   7.650
 7117POPC   NC336191  30.678  30.661   9.450
 7117POPC   PO436192  30.742  30.687   9.150
 7117POPC   GL136193  30.693  30.722   8.850
 7117POPC   GL236194  30.703  30.564   8.850
 7117POPC   C1A36195  30.677  30.706   8.550
 7117POPC   D2A36196  30.696  30.699   8.250
 7117POPC   C3A36197  30.678  30.681   7.950
 7117POPC   C4A36198  30.703  30.728   7.650
 7117POPC   C1B36199  30.663  30.484   8.550
 7117POPC   C2B36200  30.611  30.433   8.250
 7117POPC   C3B36201  30.649  30.485   7.950
 7117POPC   C4B36202  30.642  30.404   7.650
 7118POPC   NC336203   0.418  23.747   9.450
 7118POPC   PO436204   0.425  23.700   9.150
 7118POPC   GL136205   0.396  23.726   8.850
 7118POPC   GL236206   0.466  23.770   8.850
 7118POPC   C1A36207   0.467  23.762   8.550
 7118POPC   D2A36208   0.471  23.722   8.250
 7118POPC   C3A36209   0.444  23.721   7.950
 7118POPC   C4A36210   0.466  23.728   7.650
 7118POPC   C1B36211   0.610  23.881   8.550
 7118POPC   C2B36212   0.554  23.921   8.250
 7118POPC   C3B36213   0.566  23.944   7.950
 7118POPC   C4B36214   0.614  23.882   7.650
 7119POPC   NC336215  39.251   5.052   9.450
 7119POPC   PO436216  39.266   5.108   9.150
 7119POPC   GL136217  39.196   5.059   8.850
 7119POPC   GL236218  39.132   5.085   8.850
 7119POPC   C1A36219  39.193   5.078   8.550
 7119POPC   D2A36220  39.221   5.118   8.250
 7119POPC   C3A36221  39.189   5.108   7.950
 7119POPC   C4A36222  39.189   5.105   7.650
 7119POPC   C1B36223  38.943   5.146   8.550
 7119POPC   C2B36224  39.003   5.074   8.250
 7119POPC   C3B36225  38.969   5.160   7.950
 7119POPC   C4B36226  38.985   5.099   7.650
 7120POPC   NC336227  36.121  38.466   9.450
 7120POPC   PO436228  36.123  38.429   9.150
 7120POPC   GL136229  36.081  38.500   8.850
 7120POPC   GL236230  36.065  38.518   8.850
 7120POPC   C1A36231  36.086  38.407   8.550
 7120POPC   D2A36232  36.115  38.464   8.250
 7120POPC   C3A36233  36.111  38.437   7.950
 7120POPC   C4A36234  36.154  38.480   7.650
 7120POPC   C1B36235  35.892  38.650   8.550
 7120POPC   C2B36236  35.894  38.607   8.250
 7120POPC   C3B36237  35.927  38.623   7.950
 7120POPC   C4B36238  35.949  38.655   7.650
 7121POPC   NC336239  16.684  36.912   9.450
 7121POPC   PO436240  16.766  36.891   9.150
 7121POPC   GL136241  16.693  36.922   8.850
 7121POPC   GL236242  16.847  36.884   8.850
 7121POPC   C1A36243  16.703  36.864   8.550
 7121POPC   D2A36244  16.739  36.870   8.250
 7121POPC   C3A36245  16.709  36.864   7.950
 7121POPC   C4A36246  16.763  36.936   7.650
 7121POPC   C1B36247  16.993  36.801   8.550
 7121POPC   C2B36248  16.994  36.798   8.250
 7121POPC   C3B36249  16.976  36.845   7.950
 7121POPC   C4B36250  16.962  36.828   7.650
 7122POPC   NC336251  26.027  20.596   9.450
 7122POPC   PO436252  26.034  20.564   9.150
 7122POPC   GL136253  26.014  20.645   8.850
 7122POPC   GL236254  25.947  20.723   8.850
 7122POPC   C1A36255  26.063  20.632   8.550
 7122POPC   D2A36256  26.081  20.645   8.250
 7122POPC   C3A36257  26.046  20.640   7.950
 7122POPC   C4A36258  26.024  20.660   7.650
 7122POPC   C1B36259  25.860  20.813   8.550
 7122POPC   C2B36260  25.844  20.826   8.250
 7122POPC   C3B36261  25.905  20.834   7.950
 7122POPC   C4B36262  25.883  20.796   7.650
 7123POPC   NC336263  36.878   9.741   9.450
 7123POPC   PO436264  36.882   9.796   9.150
 7123POPC   GL136265  36.920   9.718   8.850
 7123POPC   GL236266  36.912   9.829   8.850
 7123POPC   C1A36267  36.950   9.739   8.550
 7123POPC   D2A36268  36.931   9.751   8.250
 7123POPC   C3A36269  36.909   9.788   7.950
 7123POPC   C4A36270  36.909   9.773   7.650
 7123POPC   C1B36271  36.870   9.992   8.550
 7123POPC   C2B36272  36.866  10.027   8.250
 7123POPC   C3B36273  36.893  10.006   7.950
 7123POPC   C4B36274  36.881   9.965   7.650
 7124POPC   NC336275  33.014  33.037   9.450
 7124POPC   PO436276  33.020  33.038   9.150
 7124POPC   GL136277  33.045  33.047   8.850
 7124POPC   GL236278  33.153  33.160   8.850
 7124POPC   C1A36279  33.042  32.980   8.550
 7124POPC   D2A36280  32.986  32.994   8.250
 7124POPC   C3A36281  33.021  33.064   7.950
 7124POPC   C4A36282  33.039  33.014   7.650
 7124POPC   C1B36283  33.144  33.181   8.550
 7124POPC   C2B36284  33.185  33.205   8.250
 7124POPC   C3B36285  33.142  33.232   7.950
 7124POPC   C4B36286  33.196  33.238   7.650
 7125POPC   NC336287  18.312  13.580   9.450
 7125POPC   PO436288  18.289  13.637   9.150
 7125POPC   GL136289  18.259  13.634   8.850
 7125POPC   GL236290  18.239  13.551   8.850
 7125POPC   C1A36291  18.329  13.611   8.550
 7125POPC   D2A36292  18.285  13.612   8.250
 7125POPC   C3A36293  18.268  13.655   7.950
 7125POPC   C4A36294  18.291  13.593   7.650
 7125POPC   C1B36295  18.166  13.464   8.550
 7125POPC   C2B36296  18.099  13.448   8.250
 7125POPC   C3B36297  18.116  13.455   7.950
 7125POPC   C4B36298  18.177  13.466   7.650
 7126POPC   NC336299  13.654  20.613   9.450
 7126POPC   PO436300  13.656  20.633   9.150
 7126POPC   GL136301  13.620  20.637   8.850
 7126POPC   GL236302  13.765  20.616   8.850
 7126POPC   C1A36303  13.586  20.569   8.550
 7126POPC   D2A36304  13.639  20.571   8.250
 7126POPC   C3A36305  13.632  20.621   7.950
 7126POPC   C4A36306  13.608  20.579   7.650
 7126POPC   C1B36307  13.918  20.686   8.550
 7126POPC   C2B36308  13.837  20.635   8.250
 7126POPC   C3B36309  13.882  20.603   7.950
 7126POPC   C4B36310  13.830  20.672   7.650
 7127POPC   NC336311  11.335   5.867   9.450
 7127POPC   PO436312  11.279   5.916   9.150
 7127POPC   GL136313  11.346   5.902   8.850
 7127POPC   GL236314  11.408   5.997   8.850
 7127POPC   C1A36315  11.327   5.887   8.550
 7127POPC   D2A36316  11.260   5.883   8.250
 7127POPC   C3A36317  11.315   5.837   7.950
 7127POPC   C4A36318  11.285   5.892   7.650
 7127POPC   C1B36319  11.388   6.080   8.550
 7127POPC   C2B36320  11.470   6.097   8.250
 7127POPC   C3B36321  11.401   6.066   7.950
 7127POPC   C4B36322  11.379   6.072   7.650
 7128POPC   NC336323  20.635  12.887   9.450
 7128POPC   PO436324  20.625  12.804   9.150
 7128POPC   GL136325  20.631  12.820   8.850
 7128POPC   GL236326  20.726  12.737   8.850
 7128POPC   C1A36327  20.628  12.809   8.550
 7128POPC   D2A36328  20.578  12.847   8.250
 7128POPC   C3A36329  20.588  12.895   7.950
 7128POPC   C4A36330  20.617  12.832   7.650
 7128POPC   C1B36331  20.834  12.682   8.550
 7128POPC   C2B36332  20.843  12.722   8.250
 7128POPC   C3B36333  20.815  12.730   7.950
 7128POPC   C4B36334  20.851  12.656   7.650
 7129POPC   NC336335  23.747   2.023   9.450
 7129POPC   PO436336  23.709   1.998   9.150
 7129POPC   GL136337  23.725   1.984   8.850
 7129POPC   GL236338  23.720   1.915   8.850
 7129POPC   C1A36339  23.712   2.005   8.550
 7129POPC   D2A36340  23.705   2.023   8.250
 7129POPC   C3A36341  23.706   2.001   7.950
 7129POPC   C4A36342  23.745   1.970   7.650
 7129POPC   C1B36343  23.787   1.711   8.550
 7129POPC   C2B36344  23.736   1.775   8.250
 7129POPC   C3B36345  23.807   1.761   7.950
 7129POPC   C4B36346  23.800   1.797   7.650
 7130POPC   NC336347  19.040   9.792   9.450
 7130POPC   PO436348  19.021   9.770   9.150
 7130POPC   GL136349  19.082   9.768   8.850
 7130POPC   GL236350  18.937   9.832   8.850
 7130POPC   C1A36351  19.043   9.755   8.550
 7130POPC   D2A36352  19.085   9.720   8.250
 7130POPC   C3A36353  19.102   9.724   7.950
 7130POPC   C4A36354  19.088   9.744   7.650
 7130POPC   C1B36355  18.875   9.890   8.550
 7130POPC   C2B36356  18.852   9.899   8.250
 7130POPC   C3B36357  18.786   9.881   7.950
 7130POPC   C4B36358  18.823   9.880   7.650
 7131POPC   NC336359   2.024   1.259   9.450
 7131POPC   PO436360   2.001   1.236   9.150
 7131POPC   GL136361   1.965   1.211   8.850
 7131POPC   GL236362   1.837   1.248   8.850
 7131POPC   C1A36363   2.028   1.190   8.550
 7131POPC   D2A36364   2.014   1.201   8.250
 7131POPC   C3A36365   2.017   1.227   7.950
 7131POPC   C4A36366   1.952   1.231   7.650
 7131POPC   C1B36367   1.763   1.284   8.550
 7131POPC   C2B36368   1.779   1.312   8.250
 7131POPC   C3B36369   1.736   1.271   7.950
 7131POPC   C4B36370   1.780   1.300   7.650
 7132POPC   NC336371  20.593   8.951   9.450
 7132POPC   PO436372  20.561   8.934   9.150
 7132POPC   GL136373  20.576   9.020   8.850
 7132POPC   GL236374  20.710   9.068   8.850
 7132POPC   C1A36375  20.565   8.957   8.550
 7132POPC   D2A36376  20.631   8.977   8.250
 7132POPC   C3A36377  20.563   8.980   7.950
 7132POPC   C4A36378  20.643   8.935   7.650
 7132POPC   C1B36379  20.780   9.093   8.550
 7132POPC   C2B36380  20.849   9.142   8.250
 7132POPC   C3B36381  20.766   9.166   7.950
 7132POPC   C4B36382  20.854   9.109   7.650
 7133POPC   NC336383  40.788  32.995   9.450
 7133POPC   PO436384  40.764  33.035   9.150
 7133POPC   GL136385  40.798  33.053   8.850
 7133POPC   GL236386  40.858  33.000   8.850
 7133POPC   C1A36387  40.789  33.040   8.550
 7133POPC   D2A36388  40.770  33.027   8.250
 7133POPC   C3A36389  40.762  33.072   7.950
 7133POPC   C4A36390  40.816  33.011   7.650
 7133POPC   C1B36391  41.070  32.993   8.550
 7133POPC   C2B36392  41.041  32.946   8.250
 7133POPC   C3B36393  40.998  32.972   7.950
 7133POPC   C4B36394  41.026  32.926   7.650
 7134POPC   NC336395   8.955  36.947   9.450
 7134POPC   PO436396   8.989  36.909   9.150
 7134POPC   GL136397   8.957  36.874   8.850
 7134POPC   GL236398   8.850  36.836   8.850
 7134POPC   C1A36399   8.938  36.941   8.550
 7134POPC   D2A36400   8.956  36.951   8.250
 7134POPC   C3A36401   8.982  36.886   7.950
 7134POPC   C4A36402   8.981  36.889   7.650
 7134POPC   C1B36403   8.814  36.691   8.550
 7134POPC   C2B36404   8.833  36.669   8.250
 7134POPC   C3B36405   8.828  36.675   7.950
 7134POPC   C4B36406   8.862  36.696   7.650
 7135POPC   NC336407  35.347  40.796   9.450
 7135POPC   PO436408  35.342  40.826   9.150
 7135POPC   GL136409  35.366  40.733   8.850
 7135POPC   GL236410  35.408  40.730   8.850
 7135POPC   C1A36411  35.376  40.752   8.550
 7135POPC   D2A36412  35.323  40.787   8.250
 7135POPC   C3A36413  35.393  40.826   7.950
 7135POPC   C4A36414  35.345  40.795   7.650
 7135POPC   C1B36415  35.526  40.598   8.550
 7135POPC   C2B36416  35.519  40.641   8.250
 7135POPC   C3B36417  35.558  40.608   7.950
 7135POPC   C4B36418  35.531  40.597   7.650
 7136POPC   NC336419  27.556  28.333   9.450
 7136POPC   PO436420  27.550  28.405   9.150
 7136POPC   GL136421  27.550  28.413   8.850
 7136POPC   GL236422  27.527  28.413   8.850
 7136POPC   C1A36423  27.608  28.339   8.550
 7136POPC   D2A36424  27.619  28.383   8.250
 7136POPC   C3A36425  27.574  28.321   7.950
 7136POPC   C4A36426  27.599  28.370   7.650
 7136POPC   C1B36427  27.468  28.589   8.550
 7136POPC   C2B36428  27.377  28.526   8.250
 7136POPC   C3B36429  27.457  28.499   7.950
 7136POPC   C4B36430  27.393  28.506   7.650
 7137POPC   NC336431  40.738   1.245   9.450
 7137POPC   PO436432  40.800   1.212   9.150
 7137POPC   GL136433  40.759   1.201   8.850
 7137POPC   GL236434  40.862   1.229   8.850
 7137POPC   C1A36435  40.781   1.179   8.550
 7137POPC   D2A36436  40.799   1.169   8.250
 7137POPC   C3A36437  40.821   1.234   7.950
 7137POPC   C4A36438  40.763   1.180   7.650
 7137POPC   C1B36439  41.047   1.249   8.550
 7137POPC   C2B36440  40.991   1.234   8.250
 7137POPC   C3B36441  41.063   1.219   7.950
 7137POPC   C4B36442  41.076   1.256   7.650
 7138POPC   NC336443   5.107   8.231   9.450
 7138POPC   PO436444   5.052   8.233   9.150
 7138POPC   GL136445   5.132   8.209   8.850
 7138POPC   GL236446   5.133   8.088   8.850
 7138POPC   C1A36447   5.046   8.164   8.550
 7138POPC   D2A36448   5.075   8.229   8.250
 7138POPC   C3A36449   5.093   8.220   7.950
 7138POPC   C4A36450   5.132   8.185   7.650
 7138POPC   C1B36451   5.192   7.953   8.550
 7138POPC   C2B36452   5.184   8.009   8.250
 7138POPC   C3B36453   5.185   7.987   7.950
 7138POPC   C4B36454   5.155   7.949   7.650
 7139POPC   NC336455  32.225  28.372   9.450
 7139POPC   PO436456  32.239  28.396   9.150
 7139POPC   GL136457  32.261  28.335   8.850
 7139POPC   GL236458  32.328  28.406   8.850
 7139POPC   C1A36459  32.283  28.345   8.550
 7139POPC   D2A36460  32.252  28.353   8.250
 7139POPC   C3A36461  32.297  28.342   7.950
 7139POPC   C4A36462  32.214  28.342   7.650
 7139POPC   C1B36463  32.400  28.553   8.550
 7139POPC   C2B36464  32.489  28.542   8.250
 7139POPC   C3B36465  32.468  28.552   7.950
 7139POPC   C4B36466  32.420  28.487   7.650
 7140POPC   NC336467  32.246  39.275   9.450
 7140POPC   PO436468  32.276  39.274   9.150
 7140POPC   GL136469  32.244  39.182   8.850
 7140POPC   GL236470  32.315  39.340   8.850
 7140POPC   C1A36471  32.242  39.281   8.550
 7140POPC   D2A36472  32.224  39.183   8.250
 7140POPC   C3A36473  32.218  39.242   7.950
 7140POPC   C4A36474  32.267  39.281   7.650
 7140POPC   C1B36475  32.328  39.425   8.550
 7140POPC   C2B36476  32.357  39.457   8.250
 7140POPC   C3B36477  32.339  39.451   7.950
 7140POPC   C4B36478  32.376  39.474   7.650
 7141POPC   NC336479  33.065  43.897   9.450
 7141POPC   PO436480  32.997  43.892   9.150
 7141POPC   GL136481  32.990  43.863   8.850
 7141POPC   GL236482  33.060  43.725   8.850
 7141POPC   C1A36483  33.042  43.925   8.550
 7141POPC   D2A36484  32.992  43.927   8.250
 7141POPC   C3A36485  32.974  43.843   7.950
 7141POPC   C4A36486  33.010  43.905   7.650
 7141POPC   C1B36487  33.016  43.643   8.550
 7141POPC   C2B36488  33.021  43.675   8.250
 7141POPC   C3B36489  33.042  43.597   7.950
 7141POPC   C4B36490  33.021  43.663   7.650
 7142POPC   NC336491  36.935  22.164   9.450
 7142POPC   PO436492  36.929  22.138   9.150
 7142POPC   GL136493  36.881  22.133   8.850
 7142POPC   GL236494  36.782  22.039   8.850
 7142POPC   C1A36495  36.941  22.178   8.550
 7142POPC   D2A36496  36.865  22.123   8.250
 7142POPC   C3A36497  36.877  22.211   7.950
 7142POPC   C4A36498  36.949  22.124   7.650
 7142POPC   C1B36499  36.791  22.008   8.550
 7142POPC   C2B36500  36.728  21.947   8.250
 7142POPC   C3B36501  36.733  21.956   7.950
 7142POPC   C4B36502  36.770  21.993   7.650
 7143POPC   NC336503  27.608   5.831   9.450
 7143POPC   PO436504  27.585   5.910   9.150
 7143POPC   GL136505  27.600   5.827   8.850
 7143POPC   GL236506  27.535   5.765   8.850
 7143POPC   C1A36507  27.587   5.830   8.550
 7143POPC   D2A36508  27.621   5.885   8.250
 7143POPC   C3A36509  27.556   5.880   7.950
 7143POPC   C4A36510  27.637   5.847   7.650
 7143POPC   C1B36511  27.542   5.659   8.550
 7143POPC   C2B36512  27.556   5.577   8.250
 7143POPC   C3B36513  27.579   5.643   7.950
 7143POPC   C4B36514  27.554   5.661   7.650
 7144POPC   NC336515   8.942   0.483   9.450
 7144POPC   PO436516   8.977   0.403   9.150
 7144POPC   GL136517   9.018   0.456   8.850
 7144POPC   GL236518   9.063   0.511   8.850
 7144POPC   C1A36519   8.972   0.396   8.550
 7144POPC   D2A36520   8.979   0.460   8.250
 7144POPC   C3A36521   8.944   0.456   7.950
 7144POPC   C4A36522   9.020   0.452   7.650
 7144POPC   C1B36523   9.232   0.546   8.550
 7144POPC   C2B36524   9.199   0.540   8.250
 7144POPC   C3B36525   9.233   0.512   7.950
 7144POPC   C4B36526   9.177   0.502   7.650
 7145POPC   NC336527   3.524   2.783   9.450
 7145POPC   PO436528   3.517   2.724   9.150
 7145POPC   GL136529   3.565   2.753   8.850
 7145POPC   GL236530   3.575   2.898   8.850
 7145POPC   C1A36531   3.544   2.740   8.550
 7145POPC   D2A36532   3.543   2.806   8.250
 7145POPC   C3A36533   3.561   2.746   7.950
 7145POPC   C4A36534   3.521   2.786   7.650
 7145POPC   C1B36535   3.697   3.012   8.550
 7145POPC   C2B36536   3.700   2.938   8.250
 7145POPC   C3B36537   3.639   2.966   7.950
 7145POPC   C4B36538   3.644   3.009   7.650
 7146POPC   NC336539  37.675  43.103   9.450
 7146POPC   PO436540  37.722  43.148   9.150
 7146POPC   GL136541  37.656  43.124   8.850
 7146POPC   GL236542  37.802  43.140   8.850
 7146POPC   C1A36543  37.720  43.087   8.550
 7146POPC   D2A36544  37.676  43.078   8.250
 7146POPC   C3A36545  37.697  43.062   7.950
 7146POPC   C4A36546  37.710  43.080   7.650
 7146POPC   C1B36547  37.946  43.096   8.550
 7146POPC   C2B36548  37.932  43.101   8.250
 7146POPC   C3B36549  37.947  43.130   7.950
 7146POPC   C4B36550  37.902  43.045   7.650
 7147POPC   NC336551   8.939   6.680   9.450
 7147POPC   PO436552   8.988   6.680   9.150
 7147POPC   GL136553   8.938   6.621   8.850
 7147POPC   GL236554   8.896   6.765   8.850
 7147POPC   C1A36555   8.983   6.639   8.550
 7147POPC   D2A36556   9.013   6.657   8.250
 7147POPC   C3A36557   9.018   6.657   7.950
 7147POPC   C4A36558   9.017   6.631   7.650
 7147POPC   C1B36559   8.929   6.903   8.550
 7147POPC   C2B36560   8.892   6.911   8.250
 7147POPC   C3B36561   8.890   6.837   7.950
 7147POPC   C4B36562   8.919   6.857   7.650
 7148POPC   NC336563  12.898  44.654   9.450
 7148POPC   PO436564  12.870  44.670   9.150
 7148POPC   GL136565  12.865  44.625   8.850
 7148POPC   GL236566  12.726  44.607   8.850
 7148POPC   C1A36567  12.827  44.654   8.550
 7148POPC   D2A36568  12.848  44.625   8.250
 7148POPC   C3A36569  12.890  44.673   7.950
 7148POPC   C4A36570  12.891  44.674   7.650
 7148POPC   C1B36571  12.597  44.578   8.550
 7148POPC   C2B36572  12.660  44.584   8.250
 7148POPC   C3B36573  12.647  44.539   7.950
 7148POPC   C4B36574  12.648  44.557   7.650
 7149POPC   NC336575   2.765   5.077   9.450
 7149POPC   PO436576   2.720   5.106   9.150
 7149POPC   GL136577   2.723   5.110   8.850
 7149POPC   GL236578   2.704   5.232   8.850
 7149POPC   C1A36579   2.794   5.058   8.550
 7149POPC   D2A36580   2.725   5.055   8.250
 7149POPC   C3A36581   2.767   5.106   7.950
 7149POPC   C4A36582   2.720   5.078   7.650
 7149POPC   C1B36583   2.647   5.263   8.550
 7149POPC   C2B36584   2.643   5.295   8.250
 7149POPC   C3B36585   2.582   5.320   7.950
 7149POPC   C4B36586   2.635   5.287   7.650
 7150POPC   NC336587  13.612   6.626   9.450
 7150POPC   PO436588  13.659   6.615   9.150
 7150POPC   GL136589  13.638   6.682   8.850
 7150POPC   GL236590  13.611   6.759   8.850
 7150POPC   C1A36591  13.585   6.648   8.550
 7150POPC   D2A36592  13.618   6.618   8.250
 7150POPC   C3A36593  13.634   6.651   7.950
 7150POPC   C4A36594  13.645   6.695   7.650
 7150POPC   C1B36595  13.516   6.852   8.550
 7150POPC   C2B36596  13.565   6.871   8.250
 7150POPC   C3B36597  13.504   6.916   7.950
 7150POPC   C4B36598  13.519   6.860   7.650
 7151POPC   NC336599  22.184  36.079   9.450
 7151POPC   PO436600  22.134  36.078   9.150
 7151POPC   GL136601  22.164  36.157   8.850
 7151POPC   GL236602  22.164  35.960   8.850
 7151POPC   C1A36603  22.114  36.147   8.550
 7151POPC   D2A36604  22.158  36.127   8.250
 7151POPC   C3A36605  22.118  36.078   7.950
 7151POPC   C4A36606  22.169  36.101   7.650
 7151POPC   C1B36607  22.202  35.895   8.550
 7151POPC   C2B36608  22.238  35.888   8.250
 7151POPC   C3B36609  22.172  35.856   7.950
 7151POPC   C4B36610  22.243  35.875   7.650
 7152POPC   NC336611  29.154  41.527   9.450
 7152POPC   PO436612  29.191  41.521   9.150
 7152POPC   GL136613  29.123  41.523   8.850
 7152POPC   GL236614  29.252  41.574   8.850
 7152POPC   C1A36615  29.141  41.551   8.550
 7152POPC   D2A36616  29.169  41.509   8.250
 7152POPC   C3A36617  29.117  41.543   7.950
 7152POPC   C4A36618  29.143  41.554   7.650
 7152POPC   C1B36619  29.353  41.644   8.550
 7152POPC   C2B36620  29.390  41.629   8.250
 7152POPC   C3B36621  29.370  41.650   7.950
 7152POPC   C4B36622  29.381  41.598   7.650
 7153POPC   NC336623  17.555   3.548   9.450
 7153POPC   PO436624  17.495   3.547   9.150
 7153POPC   GL136625  17.556   3.541   8.850
 7153POPC   GL236626  17.451   3.390   8.850
 7153POPC   C1A36627  17.523   3.551   8.550
 7153POPC   D2A36628  17.552   3.497   8.250
 7153POPC   C3A36629  17.546   3.510   7.950
 7153POPC   C4A36630  17.549   3.553   7.650
 7153POPC   C1B36631  17.518   3.323   8.550
 7153POPC   C2B36632  17.451   3.264   8.250
 7153POPC   C3B36633  17.467   3.328   7.950
 7153POPC   C4B36634  17.512   3.338   7.650
 7154POPC   NC336635   1.241  17.485   9.450
 7154POPC   PO436636   1.260  17.529   9.150
 7154POPC   GL136637   1.249  17.504   8.850
 7154POPC   GL236638   1.308  17.441   8.850
 7154POPC   C1A36639   1.255  17.554   8.550
 7154POPC   D2A36640   1.213  17.547   8.250
 7154POPC   C3A36641   1.258  17.548   7.950
 7154POPC   C4A36642   1.260  17.478   7.650
 7154POPC   C1B36643   1.361  17.297   8.550
 7154POPC   C2B36644   1.383  17.346   8.250
 7154POPC   C3B36645   1.401  17.309   7.950
 7154POPC   C4B36646   1.349  17.315   7.650
 7155POPC   NC336647  20.627  40.741   9.450
 7155POPC   PO436648  20.627  40.795   9.150
 7155POPC   GL136649  20.655  40.821   8.850
 7155POPC   GL236650  20.564  40.853   8.850
 7155POPC   C1A36651  20.584  40.750   8.550
 7155POPC   D2A36652  20.597  40.744   8.250
 7155POPC   C3A36653  20.623  40.754   7.950
 7155POPC   C4A36654  20.615  40.737   7.650
 7155POPC   C1B36655  20.399  40.908   8.550
 7155POPC   C2B36656  20.465  40.905   8.250
 7155POPC   C3B36657  20.448  40.935   7.950
 7155POPC   C4B36658  20.410  40.922   7.650
 7156POPC   NC336659   1.949   0.390   9.450
 7156POPC   PO436660   1.990   0.461   9.150
 7156POPC   GL136661   1.973   0.396   8.850
 7156POPC   GL236662   2.034   0.350   8.850
 7156POPC   C1A36663   1.945   0.396   8.550
 7156POPC   D2A36664   1.968   0.389   8.250
 7156POPC   C3A36665   1.993   0.472   7.950
 7156POPC   C4A36666   1.984   0.430   7.650
 7156POPC   C1B36667   2.101   0.199   8.550
 7156POPC   C2B36668   2.160   0.255   8.250
 7156POPC   C3B36669   2.155   0.214   7.950
 7156POPC   C4B36670   2.115   0.218   7.650
 7157POPC   NC336671  15.999  29.877   9.450
 7157POPC   PO436672  16.002  29.879   9.150
 7157POPC   GL136673  15.966  29.945   8.850
 7157POPC   GL236674  15.877  29.877   8.850
 7157POPC   C1A36675  15.945  29.884   8.550
 7157POPC   D2A36676  15.921  29.940   8.250
 7157POPC   C3A36677  15.939  29.927   7.950
 7157POPC   C4A36678  15.997  29.910   7.650
 7157POPC   C1B36679  15.697  29.804   8.550
 7157POPC   C2B36680  15.743  29.833   8.250
 7157POPC   C3B36681  15.781  29.829   7.950
 7157POPC   C4B36682  15.750  29.832   7.650
 7158POPC   NC336683  42.379  36.945   9.450
 7158POPC   PO436684  42.325  36.930   9.150
 7158POPC   GL136685  42.352  36.863   8.850
 7158POPC   GL236686  42.401  36.853   8.850
 7158POPC   C1A36687  42.313  36.914   8.550
 7158POPC   D2A36688  42.375  36.902   8.250
 7158POPC   C3A36689  42.301  36.889   7.950
 7158POPC   C4A36690  42.308  36.912   7.650
 7158POPC   C1B36691  42.578  36.824   8.550
 7158POPC   C2B36692  42.609  36.773   8.250
 7158POPC   C3B36693  42.563  36.790   7.950
 7158POPC   C4B36694  42.522  36.795   7.650
 7159POPC   NC336695  37.656  39.237   9.450
 7159POPC   PO436696  37.679  39.258   9.150
 7159POPC   GL136697  37.707  39.244   8.850
 7159POPC   GL236698  37.734  39.343   8.850
 7159POPC   C1A36699  37.707  39.251   8.550
 7159POPC   D2A36700  37.716  39.275   8.250
 7159POPC   C3A36701  37.687  39.216   7.950
 7159POPC   C4A36702  37.708  39.248   7.650
 7159POPC   C1B36703  37.859  39.399   8.550
 7159POPC   C2B36704  37.855  39.361   8.250
 7159POPC   C3B36705  37.878  39.363   7.950
 7159POPC   C4B36706  37.932  39.406   7.650
 7160POPC   NC336707  44.657  32.291   9.450
 7160POPC   PO436708  44.702  32.229   9.150
 7160POPC   GL136709  44.688  32.283   8.850
 7160POPC   GL236710  44.771  32.238   8.850
 7160POPC   C1A36711  44.633  32.209   8.550
 7160POPC   D2A36712  44.613  32.245   8.250
 7160POPC   C3A36713  44.623  32.229   7.950
 7160POPC   C4A36714  44.636  32.284   7.650
 7160POPC   C1B36715  44.867  32.173   8.550
 7160POPC   C2B36716  44.945  32.144   8.250
 7160POPC   C3B36717  44.866  32.161   7.950
 7160POPC   C4B36718  44.920  32.178   7.650
 7161POPC   NC336719  22.966  43.849   9.450
 7161POPC   PO436720  22.987  43.848   9.150
 7161POPC   GL136721  22.953  43.842   8.850
 7161POPC   GL236722  22.850  43.930   8.850
 7161POPC   C1A36723  22.968  43.916   8.550
 7161POPC   D2A36724  22.925  43.858   8.250
 7161POPC   C3A36725  22.912  43.933   7.950
 7161POPC   C4A36726  22.893  43.897   7.650
 7161POPC   C1B36727  22.733  44.079   8.550
 7161POPC   C2B36728  22.762  44.053   8.250
 7161POPC   C3B36729  22.745  44.039   7.950
 7161POPC   C4B36730  22.741  44.089   7.650
 7162POPC   NC336731  26.778  29.095   9.450
 7162POPC   PO436732  26.808  29.143   9.150
 7162POPC   GL136733  26.806  29.185   8.850
 7162POPC   GL236734  26.925  29.136   8.850
 7162POPC   C1A36735  26.819  29.195   8.550
 7162POPC   D2A36736  26.846  29.118   8.250
 7162POPC   C3A36737  26.859  29.097   7.950
 7162POPC   C4A36738  26.798  29.119   7.650
 7162POPC   C1B36739  27.115  29.112   8.550
 7162POPC   C2B36740  27.072  29.106   8.250
 7162POPC   C3B36741  27.025  29.162   7.950
 7162POPC   C4B36742  27.100  29.088   7.650
 7163POPC   NC336743  13.589   5.049   9.450
 7163POPC   PO436744  13.605   5.099   9.150
 7163POPC   GL136745  13.617   5.076   8.850
 7163POPC   GL236746  13.457   5.043   8.850
 7163POPC   C1A36747  13.646   5.055   8.550
 7163POPC   D2A36748  13.595   5.077   8.250
 7163POPC   C3A36749  13.618   5.098   7.950
 7163POPC   C4A36750  13.595   5.096   7.650
 7163POPC   C1B36751  13.346   5.049   8.550
 7163POPC   C2B36752  13.369   5.100   8.250
 7163POPC   C3B36753  13.364   5.094   7.950
 7163POPC   C4B36754  13.333   5.064   7.650
 7164POPC   NC336755   8.187  12.816   9.450
 7164POPC   PO436756   8.209  12.832   9.150
 7164POPC   GL136757   8.183  12.845   8.850
 7164POPC   GL236758   8.091  12.737   8.850
 7164POPC   C1A36759   8.148  12.808   8.550
 7164POPC   D2A36760   8.178  12.875   8.250
 7164POPC   C3A36761   8.206  12.900   7.950
 7164POPC   C4A36762   8.180  12.834   7.650
 7164POPC   C1B36763   8.015  12.717   8.550
 7164POPC   C2B36764   8.031  12.735   8.250
 7164POPC   C3B36765   8.000  12.739   7.950
 7164POPC   C4B36766   8.041  12.683   7.650
 7165POPC   NC336767   1.166  19.068   9.450
 7165POPC   PO436768   1.212  19.016   9.150
 7165POPC   GL136769   1.251  19.069   8.850
 7165POPC   GL236770   1.140  19.052   8.850
 7165POPC   C1A36771   1.179  19.098   8.550
 7165POPC   D2A36772   1.197  19.106   8.250
 7165POPC   C3A36773   1.230  19.057   7.950
 7165POPC   C4A36774   1.244  19.046   7.650
 7165POPC   C1B36775   0.975  18.948   8.550
 7165POPC   C2B36776   0.954  19.027   8.250
 7165POPC   C3B36777   0.990  19.012   7.950
 7165POPC   C4B36778   1.016  18.979   7.650
 7166POPC   NC336779   8.939  29.111   9.450
 7166POPC   PO436780   8.974  29.159   9.150
 7166POPC   GL136781   8.951  29.102   8.850
 7166POPC   GL236782   8.831  29.151   8.850
 7166POPC   C1A36783   8.926  29.163   8.550
 7166POPC   D2A36784   8.974  29.106   8.250
 7166POPC   C3A36785   8.959  29.097   7.950
 7166POPC   C4A36786   8.978  29.131   7.650
 7166POPC   C1B36787   8.759  29.092   8.550
 7166POPC   C2B36788   8.684  29.145   8.250
 7166POPC   C3B36789   8.748  29.117   7.950
 7166POPC   C4B36790   8.682  29.083   7.650
 7167POPC   NC336791  19.032   2.006   9.450
 7167POPC   PO436792  19.024   1.968   9.150
 7167POPC   GL136793  19.106   1.946   8.850
 7167POPC   GL236794  19.025   2.064   8.850
 7167POPC   C1A36795  19.035   2.030   8.550
 7167POPC   D2A36796  19.061   1.984   8.250
 7167POPC   C3A36797  19.023   1.942   7.950
 7167POPC   C4A36798  19.042   1.957   7.650
 7167POPC   C1B36799  18.906   2.200   8.550
 7167POPC   C2B36800  18.980   2.221   8.250
 7167POPC   C3B36801  18.971   2.228   7.950
 7167POPC   C4B36802  18.934   2.238   7.650
 7168POPC   NC336803  19.056  11.335   9.450
 7168POPC   PO436804  19.010  11.345   9.150
 7168POPC   GL136805  19.076  11.271   8.850
 7168POPC   GL236806  18.977  11.442   8.850
 7168POPC   C1A36807  19.035  11.298   8.550
 7168POPC   D2A36808  19.023  11.284   8.250
 7168POPC   C3A36809  19.049  11.321   7.950
 7168POPC   C4A36810  19.029  11.327   7.650
 7168POPC   C1B36811  18.972  11.528   8.550
 7168POPC   C2B36812  18.949  11.533   8.250
 7168POPC   C3B36813  18.884  11.520   7.950
 7168POPC   C4B36814  18.971  11.528   7.650
 7169POPC   NC336815  25.238  43.097   9.450
 7169POPC   PO436816  25.258  43.131   9.150
 7169POPC   GL136817  25.272  43.065   8.850
 7169POPC   GL236818  25.312  43.034   8.850
 7169POPC   C1A36819  25.241  43.077   8.550
 7169POPC   D2A36820  25.230  43.100   8.250
 7169POPC   C3A36821  25.304  43.102   7.950
 7169POPC   C4A36822  25.306  43.159   7.650
 7169POPC   C1B36823  25.334  42.827   8.550
 7169POPC   C2B36824  25.301  42.910   8.250
 7169POPC   C3B36825  25.359  42.878   7.950
 7169POPC   C4B36826  25.374  42.916   7.650
 7170POPC   NC336827  26.819  38.461   9.450
 7170POPC   PO436828  26.783  38.427   9.150
 7170POPC   GL136829  26.849  38.476   8.850
 7170POPC   GL236830  26.923  38.366   8.850
 7170POPC   C1A36831  26.826  38.440   8.550
 7170POPC   D2A36832  26.856  38.411   8.250
 7170POPC   C3A36833  26.800  38.473   7.950
 7170POPC   C4A36834  26.845  38.421   7.650
 7170POPC   C1B36835  26.926  38.194   8.550
 7170POPC   C2B36836  26.950  38.236   8.250
 7170POPC   C3B36837  26.956  38.286   7.950
 7170POPC   C4B36838  26.964  38.219   7.650
 7171POPC   NC336839  12.108  25.237   9.450
 7171POPC   PO436840  12.034  25.225   9.150
 7171POPC   GL136841  12.034  25.293   8.850
 7171POPC   GL236842  11.997  25.309   8.850
 7171POPC   C1A36843  12.118  25.258   8.550
 7171POPC   D2A36844  12.108  25.272   8.250
 7171POPC   C3A36845  12.062  25.259   7.950
 7171POPC   C4A36846  12.086  25.253   7.650
 7171POPC   C1B36847  11.873  25.437   8.550
 7171POPC   C2B36848  11.874  25.428   8.250
 7171POPC   C3B36849  11.875  25.468   7.950
 7171POPC   C4B36850  11.879  25.434   7.650
 7172POPC   NC336851  35.323   3.584   9.450
 7172POPC   PO436852  35.376   3.539   9.150
 7172POPC   GL136853  35.355   3.585   8.850
 7172POPC   GL236854  35.360   3.697   8.850
 7172POPC   C1A36855  35.379   3.565   8.550
 7172POPC   D2A36856  35.347   3.554   8.250
 7172POPC   C3A36857  35.307   3.585   7.950
 7172POPC   C4A36858  35.379   3.527   7.650
 7172POPC   C1B36859  35.320   3.783   8.550
 7172POPC   C2B36860  35.263   3.780   8.250
 7172POPC   C3B36861  35.312   3.827   7.950
 7172POPC   C4B36862  35.266   3.805   7.650
 7173POPC   NC336863  39.226   0.417   9.450
 7173POPC   PO436864  39.268   0.429   9.150
 7173POPC   GL136865  39.224   0.410   8.850
 7173POPC   GL236866  39.201   0.306   8.850
 7173POPC   C1A36867  39.218   0.409   8.550
 7173POPC   D2A36868  39.194   0.443   8.250
 7173POPC   C3A36869  39.189   0.441   7.950
 7173POPC   C4A36870  39.192   0.413   7.650
 7173POPC   C1B36871  39.166   0.237   8.550
 7173POPC   C2B36872  39.110   0.157   8.250
 7173POPC   C3B36873  39.185   0.161   7.950
 7173POPC   C4B36874  39.170   0.175   7.650
 7174POPC   NC336875   6.623  25.253   9.450
 7174POPC   PO436876   6.601  25.300   9.150
 7174POPC   GL136877   6.675  25.289   8.850
 7174POPC   GL236878   6.600  25.125   8.850
 7174POPC   C1A36879   6.599  25.220   8.550
 7174POPC   D2A36880   6.649  25.238   8.250
 7174POPC   C3A36881   6.636  25.267   7.950
 7174POPC   C4A36882   6.690  25.227   7.650
 7174POPC   C1B36883   6.547  25.076   8.550
 7174POPC   C2B36884   6.474  25.060   8.250
 7174POPC   C3B36885   6.515  25.035   7.950
 7174POPC   C4B36886   6.537  25.061   7.650
 7175POPC   NC336887  43.069  26.030   9.450
 7175POPC   PO436888  43.157  26.019   9.150
 7175POPC   GL136889  43.111  26.024   8.850
 7175POPC   GL236890  43.210  26.080   8.850
 7175POPC   C1A36891  43.156  26.060   8.550
 7175POPC   D2A36892  43.094  26.045   8.250
 7175POPC   C3A36893  43.088  26.068   7.950
 7175POPC   C4A36894  43.093  26.018   7.650
 7175POPC   C1B36895  43.304  26.165   8.550
 7175POPC   C2B36896  43.358  26.188   8.250
 7175POPC   C3B36897  43.342  26.155   7.950
 7175POPC   C4B36898  43.362  26.222   7.650
 7176POPC   NC336899  42.356   9.727   9.450
 7176POPC   PO436900  42.371   9.788   9.150
 7176POPC   GL136901  42.315   9.707   8.850
 7176POPC   GL236902  42.448   9.805   8.850
 7176POPC   C1A36903  42.384   9.714   8.550
 7176POPC   D2A36904  42.348   9.794   8.250
 7176POPC   C3A36905  42.305   9.709   7.950
 7176POPC   C4A36906  42.372   9.733   7.650
 7176POPC   C1B36907  42.533   9.737   8.550
 7176POPC   C2B36908  42.592   9.792   8.250
 7176POPC   C3B36909  42.571   9.775   7.950
 7176POPC   C4B36910  42.582   9.793   7.650
 7177POPC   NC336911  23.701  44.686   9.450
 7177POPC   PO436912  23.677  44.616   9.150
 7177POPC   GL136913  23.696  44.691   8.850
 7177POPC   GL236914  23.777  44.548   8.850
 7177POPC   C1A36915  23.666  44.673   8.550
 7177POPC   D2A36916  23.732  44.614   8.250
 7177POPC   C3A36917  23.690  44.651   7.950
 7177POPC   C4A36918  23.685  44.665   7.650
 7177POPC   C1B36919  23.864  44.463   8.550
 7177POPC   C2B36920  23.889  44.475   8.250
 7177POPC   C3B36921  23.869  44.462   7.950
 7177POPC   C4B36922  23.897  44.465   7.650
 7178POPC   NC336923   3.572  13.591   9.450
 7178POPC   PO436924   3.526  13.639   9.150
 7178POPC   GL136925   3.577  13.637   8.850
 7178POPC   GL236926   3.497  13.729   8.850
 7178POPC   C1A36927   3.580  13.587   8.550
 7178POPC   D2A36928   3.565  13.649   8.250
 7178POPC   C3A36929   3.557  13.585   7.950
 7178POPC   C4A36930   3.569  13.604   7.650
 7178POPC   C1B36931   3.530  13.865   8.550
 7178POPC   C2B36932   3.537  13.885   8.250
 7178POPC   C3B36933   3.562  13.862   7.950
 7178POPC   C4B36934   3.545  13.836   7.650
 7179POPC   NC336935  29.136   5.912   9.450
 7179POPC   PO436936  29.126   5.918   9.150
 7179POPC   GL136937  29.112   5.897   8.850
 7179POPC   GL236938  29.226   5.895   8.850
 7179POPC   C1A36939  29.105   5.846   8.550
 7179POPC   D2A36940  29.179   5.881   8.250
 7179POPC   C3A36941  29.159   5.878   7.950
 7179POPC   C4A36942  29.112   5.915   7.650
 7179POPC   C1B36943  29.410   5.950   8.550
 7179POPC   C2B36944  29.367   5.873   8.250
 7179POPC   C3B36945  29.423   5.864   7.950
 7179POPC   C4B36946  29.427   5.901   7.650
 7180POPC   NC336947  28.412  37.678   9.450
 7180POPC   PO436948  28.361  37.681   9.150
 7180POPC   GL136949  28.322  37.676   8.850
 7180POPC   GL236950  28.214  37.607   8.850
 7180POPC   C1A36951  28.370  37.663   8.550
 7180POPC   D2A36952  28.365  37.670   8.250
 7180POPC   C3A36953  28.332  37.675   7.950
 7180POPC   C4A36954  28.381  37.709   7.650
 7180POPC   C1B36955  28.121  37.548   8.550
 7180POPC   C2B36956  28.178  37.560   8.250
 7180POPC   C3B36957  28.168  37.607   7.950
 7180POPC   C4B36958  28.198  37.604   7.650
 7181POPC   NC336959  28.379  29.097   9.450
 7181POPC   PO436960  28.409  29.115   9.150
 7181POPC   GL136961  28.328  29.112   8.850
 7181POPC   GL236962  28.427  29.035   8.850
 7181POPC   C1A36963  28.399  29.122   8.550
 7181POPC   D2A36964  28.418  29.142   8.250
 7181POPC   C3A36965  28.417  29.166   7.950
 7181POPC   C4A36966  28.378  29.142   7.650
 7181POPC   C1B36967  28.433  28.957   8.550
 7181POPC   C2B36968  28.486  28.923   8.250
 7181POPC   C3B36969  28.461  28.882   7.950
 7181POPC   C4B36970  28.512  28.918   7.650
 7182POPC   NC336971  13.634  37.694   9.450
 7182POPC   PO436972  13.604  37.657   9.150
 7182POPC   GL136973  13.592  37.677   8.850
 7182POPC   GL236974  13.694  37.714   8.850
 7182POPC   C1A36975  13.610  37.725   8.550
 7182POPC   D2A36976  13.656  37.673   8.250
 7182POPC   C3A36977  13.608  37.688   7.950
 7182POPC   C4A36978  13.632  37.705   7.650
 7182POPC   C1B36979  13.885  37.797   8.550
 7182POPC   C2B36980  13.856  37.792   8.250
 7182POPC   C3B36981  13.791  37.830   7.950
 7182POPC   C4B36982  13.859  37.848   7.650
 7183POPC   NC336983  21.373   6.618   9.450
 7183POPC   PO436984  21.345   6.600   9.150
 7183POPC   GL136985  21.395   6.681   8.850
 7183POPC   GL236986  21.294   6.643   8.850
 7183POPC   C1A36987  21.380   6.673   8.550
 7183POPC   D2A36988  21.406   6.619   8.250
 7183POPC   C3A36989  21.371   6.611   7.950
 7183POPC   C4A36990  21.387   6.649   7.650
 7183POPC   C1B36991  21.113   6.729   8.550
 7183POPC   C2B36992  21.155   6.706   8.250
 7183POPC   C3B36993  21.117   6.717   7.950
 7183POPC   C4B36994  21.108   6.747   7.650
 7184POPC   NC336995  34.599  21.354   9.450
 7184POPC   PO436996  34.600  21.351   9.150
 7184POPC   GL136997  34.540  21.427   8.850
 7184POPC   GL236998  34.524  21.281   8.850
 7184POPC   C1A36999  34.606  21.420   8.550
 7184POPC   D2A37000  34.582  21.400   8.250
 7184POPC   C3A37001  34.586  21.342   7.950
 7184POPC   C4A37002  34.568  21.348   7.650
 7184POPC   C1B37003  34.520  21.167   8.550
 7184POPC   C2B37004  34.518  21.171   8.250
 7184POPC   C3B37005  34.445  21.206   7.950
 7184POPC   C4B37006  34.445  21.177   7.650
 7185POPC   NC337007  43.875   4.300   9.450
 7185POPC   PO437008  43.849   4.330   9.150
 7185POPC   GL137009  43.932   4.280   8.850
 7185POPC   GL237010  43.772   4.248   8.850
 7185POPC   C1A37011  43.845   4.318   8.550
 7185POPC   D2A37012  43.844   4.326   8.250
 7185POPC   C3A37013  43.847   4.295   7.950
 7185POPC   C4A37014  43.925   4.333   7.650
 7185POPC   C1B37015  43.703   4.176   8.550
 7185POPC   C2B37016  43.728   4.135   8.250
 7185POPC   C3B37017  43.650   4.177   7.950
 7185POPC   C4B37018  43.711   4.137   7.650
 7186POPC   NC337019  44.710  12.080   9.450
 7186POPC   PO437020  44.679  12.046   9.150
 7186POPC   GL137021  44.679  12.061   8.850
 7186POPC   GL237022  44.546  12.138   8.850
 7186POPC   C1A37023  44.658  12.092   8.550
 7186POPC   D2A37024  44.637  12.065   8.250
 7186POPC   C3A37025  44.680  12.042   7.950
 7186POPC   C4A37026  44.628  12.059   7.650
 7186POPC   C1B37027  44.490  12.227   8.550
 7186POPC   C2B37028  44.469  12.185   8.250
 7186POPC   C3B37029  44.472  12.189   7.950
 7186POPC   C4B37030  44.453  12.185   7.650
 7187POPC   NC337031   2.808  26.839   9.450
 7187POPC   PO437032   2.780  26.862   9.150
 7187POPC   GL137033   2.717  26.810   8.850
 7187POPC   GL237034   2.717  26.900   8.850
 7187POPC   C1A37035   2.812  26.805   8.550
 7187POPC   D2A37036   2.792  26.792   8.250
 7187POPC   C3A37037   2.722  26.867   7.950
 7187POPC   C4A37038   2.803  26.848   7.650
 7187POPC   C1B37039   2.648  26.978   8.550
 7187POPC   C2B37040   2.569  27.045   8.250
 7187POPC   C3B37041   2.632  27.002   7.950
 7187POPC   C4B37042   2.570  26.961   7.650
 7188POPC   NC337043   4.285  43.154   9.450
 7188POPC   PO437044   4.352  43.081   9.150
 7188POPC   GL137045   4.361  43.075   8.850
 7188POPC   GL237046   4.242  43.092   8.850
 7188POPC   C1A37047   4.342  43.079   8.550
 7188POPC   D2A37048   4.353  43.097   8.250
 7188POPC   C3A37049   4.332  43.077   7.950
 7188POPC   C4A37050   4.328  43.112   7.650
 7188POPC   C1B37051   4.060  43.026   8.550
 7188POPC   C2B37052   4.096  42.997   8.250
 7188POPC   C3B37053   4.109  43.053   7.950
 7188POPC   C4B37054   4.125  43.009   7.650
 7189POPC   NC337055  33.832  39.239   9.450
 7189POPC   PO437056  33.765  39.185   9.150
 7189POPC   GL137057  33.761  39.279   8.850
 7189POPC   GL237058  33.898  39.298   8.850
 7189POPC   C1A37059  33.820  39.229   8.550
 7189POPC   D2A37060  33.754  39.193   8.250
 7189POPC   C3A37061  33.753  39.277   7.950
 7189POPC   C4A37062  33.803  39.185   7.650
 7189POPC   C1B37063  33.958  39.403   8.550
 7189POPC   C2B37064  34.045  39.353   8.250
 7189POPC   C3B37065  34.006  39.372   7.950
 7189POPC   C4B37066  34.054  39.323   7.650
 7190POPC   NC337067  19.854  43.890   9.450
 7190POPC   PO437068  19.811  43.890   9.150
 7190POPC   GL137069  19.866  43.897   8.850
 7190POPC   GL237070  19.789  43.924   8.850
 7190POPC   C1A37071  19.874  43.866   8.550
 7190POPC   D2A37072  19.859  43.929   8.250
 7190POPC   C3A37073  19.853  43.846   7.950
 7190POPC   C4A37074  19.817  43.916   7.650
 7190POPC   C1B37075  19.688  44.087   8.550
 7190POPC   C2B37076  19.666  44.041   8.250
 7190POPC   C3B37077  19.613  44.097   7.950
 7190POPC   C4B37078  19.690  44.094   7.650
 7191POPC   NC337079  31.484  22.156   9.450
 7191POPC   PO437080  31.456  22.116   9.150
 7191POPC   GL137081  31.491  22.139   8.850
 7191POPC   GL237082  31.401  22.154   8.850
 7191POPC   C1A37083  31.519  22.123   8.550
 7191POPC   D2A37084  31.465  22.121   8.250
 7191POPC   C3A37085  31.491  22.149   7.950
 7191POPC   C4A37086  31.490  22.161   7.650
 7191POPC   C1B37087  31.208  22.113   8.550
 7191POPC   C2B37088  31.232  22.112   8.250
 7191POPC   C3B37089  31.275  22.076   7.950
 7191POPC   C4B37090  31.214  22.096   7.650
 7192POPC   NC337091  26.858   8.968   9.450
 7192POPC   PO437092  26.864   8.973   9.150
 7192POPC   GL137093  26.813   8.984   8.850
 7192POPC   GL237094  26.714   9.010   8.850
 7192POPC   C1A37095  26.848   8.935   8.550
 7192POPC   D2A37096  26.849   8.972   8.250
 7192POPC   C3A37097  26.832   8.933   7.950
 7192POPC   C4A37098  26.815   8.948   7.650
 7192POPC   C1B37099  26.578   8.992   8.550
 7192POPC   C2B37100  26.528   8.966   8.250
 7192POPC   C3B37101  26.596   9.008   7.950
 7192POPC   C4B37102  26.599   9.049   7.650
 7193POPC   NC337103  19.817   5.870   9.450
 7193POPC   PO437104  19.874   5.893   9.150
 7193POPC   GL137105  19.854   5.894   8.850
 7193POPC   GL237106  19.712   5.930   8.850
 7193POPC   C1A37107  19.797   5.839   8.550
 7193POPC   D2A37108  19.791   5.866   8.250
 7193POPC   C3A37109  19.832   5.822   7.950
 7193POPC   C4A37110  19.795   5.905   7.650
 7193POPC   C1B37111  19.618   5.958   8.550
 7193POPC   C2B37112  19.582   5.952   8.250
 7193POPC   C3B37113  19.572   5.896   7.950
 7193POPC   C4B37114  19.575   5.962   7.650
 7194POPC   NC337115  40.056   7.419   9.450
 7194POPC   PO437116  39.971   7.459   9.150
 7194POPC   GL137117  39.980   7.399   8.850
 7194POPC   GL237118  39.914   7.512   8.850
 7194POPC   C1A37119  40.007   7.395   8.550
 7194POPC   D2A37120  39.967   7.412   8.250
 7194POPC   C3A37121  40.049   7.399   7.950
 7194POPC   C4A37122  40.004   7.373   7.650
 7194POPC   C1B37123  39.860   7.631   8.550
 7194POPC   C2B37124  39.919   7.697   8.250
 7194POPC   C3B37125  39.953   7.621   7.950
 7194POPC   C4B37126  39.860   7.631   7.650
 7195POPC   NC337127  33.754  41.511   9.450
 7195POPC   PO437128  33.839  41.513   9.150
 7195POPC   GL137129  33.848  41.515   8.850
 7195POPC   GL237130  33.703  41.423   8.850
 7195POPC   C1A37131  33.850  41.545   8.550
 7195POPC   D2A37132  33.782  41.564   8.250
 7195POPC   C3A37133  33.785  41.581   7.950
 7195POPC   C4A37134  33.846  41.545   7.650
 7195POPC   C1B37135  33.581  41.397   8.550
 7195POPC   C2B37136  33.637  41.417   8.250
 7195POPC   C3B37137  33.609  41.330   7.950
 7195POPC   C4B37138  33.600  41.342   7.650
 7196POPC   NC337139  18.238  27.563   9.450
 7196POPC   PO437140  18.271  27.602   9.150
 7196POPC   GL137141  18.248  27.596   8.850
 7196POPC   GL237142  18.449  27.557   8.850
 7196POPC   C1A37143  18.269  27.553   8.550
 7196POPC   D2A37144  18.278  27.621   8.250
 7196POPC   C3A37145  18.324  27.614   7.950
 7196POPC   C4A37146  18.307  27.562   7.650
 7196POPC   C1B37147  18.485  27.642   8.550
 7196POPC   C2B37148  18.492  27.635   8.250
 7196POPC   C3B37149  18.490  27.578   7.950
 7196POPC   C4B37150  18.505  27.642   7.650
 7197POPC   NC337151  33.843  26.838   9.450
 7197POPC   PO437152  33.824  26.792   9.150
 7197POPC   GL137153  33.832  26.809   8.850
 7197POPC   GL237154  33.662  26.736   8.850
 7197POPC   C1A37155  33.790  26.852   8.550
 7197POPC   D2A37156  33.800  26.771   8.250
 7197POPC   C3A37157  33.810  26.852   7.950
 7197POPC   C4A37158  33.775  26.795   7.650
 7197POPC   C1B37159  33.583  26.678   8.550
 7197POPC   C2B37160  33.579  26.668   8.250
 7197POPC   C3B37161  33.581  26.688   7.950
 7197POPC   C4B37162  33.598  26.707   7.650
 7198POPC   NC337163   9.734  39.255   9.450
 7198POPC   PO437164   9.792  39.183   9.150
 7198POPC   GL137165   9.724  39.251   8.850
 7198POPC   GL237166   9.805  39.385   8.850
 7198POPC   C1A37167   9.785  39.264   8.550
 7198POPC   D2A37168   9.789  39.183   8.250
 7198POPC   C3A37169   9.767  39.220   7.950
 7198POPC   C4A37170   9.771  39.192   7.650
 7198POPC   C1B37171   9.801  39.492   8.550
 7198POPC   C2B37172   9.826  39.429   8.250
 7198POPC   C3B37173   9.836  39.442   7.950
 7198POPC   C4B37174   9.762  39.445   7.650
 7199POPC   NC337175  12.101  36.170   9.450
 7199POPC   PO437176  12.058  36.169   9.150
 7199POPC   GL137177  12.077  36.116   8.850
 7199POPC   GL237178  12.228  36.098   8.850
 7199POPC   C1A37179  12.049  36.092   8.550
 7199POPC   D2A37180  12.033  36.118   8.250
 7199POPC   C3A37181  12.072  36.162   7.950
 7199POPC   C4A37182  12.124  36.175   7.650
 7199POPC   C1B37183  12.255  36.046   8.550
 7199POPC   C2B37184  12.309  35.976   8.250
 7199POPC   C3B37185  12.275  35.958   7.950
 7199POPC   C4B37186  12.314  35.976   7.650
 7200POPC   NC337187  11.332  26.794   9.450
 7200POPC   PO437188  11.308  26.839   9.150
 7200POPC   GL137189  11.254  26.852   8.850
 7200POPC   GL237190  11.161  26.861   8.850
 7200POPC   C1A37191  11.323  26.837   8.550
 7200POPC   D2A37192  11.256  26.782   8.250
 7200POPC   C3A37193  11.277  26.861   7.950
 7200POPC   C4A37194  11.316  26.803   7.650
 7200POPC   C1B37195  11.089  26.859   8.550
 7200POPC   C2B37196  11.075  26.864   8.250
 7200POPC   C3B37197  11.024  26.848   7.950
 7200POPC   C4B37198  11.044  26.924   7.650
 7201POPC   NC337199  36.174  40.032   9.450
 7201POPC   PO437200  36.133  40.016   9.150
 7201POPC   GL137201  36.088  39.970   8.850
 7201POPC   GL237202  36.052  40.048   8.850
 7201POPC   C1A37203  36.158  40.027   8.550
 7201POPC   D2A37204  36.155  40.000   8.250
 7201POPC   C3A37205  36.096  40.010   7.950
 7201POPC   C4A37206  36.098  40.021   7.650
 7201POPC   C1B37207  35.966  40.140   8.550
 7201POPC   C2B37208  35.975  40.169   8.250
 7201POPC   C3B37209  35.903  40.131   7.950
 7201POPC   C4B37210  35.960  40.185   7.650
 7202POPC   NC337211  43.061  36.953   9.450
 7202POPC   PO437212  43.096  36.905   9.150
 7202POPC   GL137213  43.146  36.885   8.850
 7202POPC   GL237214  43.176  37.001   8.850
 7202POPC   C1A37215  43.068  36.880   8.550
 7202POPC   D2A37216  43.154  36.871   8.250
 7202POPC   C3A37217  43.078  36.932   7.950
 7202POPC   C4A37218  43.077  36.945   7.650
 7202POPC   C1B37219  43.271  37.080   8.550
 7202POPC   C2B37220  43.326  37.119   8.250
 7202POPC   C3B37221  43.275  37.114   7.950
 7202POPC   C4B37222  43.309  37.045   7.650
 7203POPC   NC337223   5.876  23.688   9.450
 7203POPC   PO437224   5.898  23.707   9.150
 7203POPC   GL137225   5.845  23.675   8.850
 7203POPC   GL237226   5.790  23.763   8.850
 7203POPC   C1A37227   5.873  23.700   8.550
 7203POPC   D2A37228   5.831  23.695   8.250
 7203POPC   C3A37229   5.821  23.702   7.950
 7203POPC   C4A37230   5.842  23.676   7.650
 7203POPC   C1B37231   5.704  23.892   8.550
 7203POPC   C2B37232   5.650  23.918   8.250
 7203POPC   C3B37233   5.737  23.887   7.950
 7203POPC   C4B37234   5.698  23.926   7.650
 7204POPC   NC337235  43.095   1.994   9.450
 7204POPC   PO437236  43.077   1.975   9.150
 7204POPC   GL137237  43.076   2.005   8.850
 7204POPC   GL237238  42.950   1.981   8.850
 7204POPC   C1A37239  43.112   1.947   8.550
 7204POPC   D2A37240  43.152   1.962   8.250
 7204POPC   C3A37241  43.111   2.029   7.950
 7204POPC   C4A37242  43.101   2.025   7.650
 7204POPC   C1B37243  42.899   1.936   8.550
 7204POPC   C2B37244  42.841   1.872   8.250
 7204POPC   C3B37245  42.909   1.951   7.950
 7204POPC   C4B37246  42.887   1.899   7.650
 7205POPC   NC337247  32.987  34.563   9.450
 7205POPC   PO437248  33.063  34.620   9.150
 7205POPC   GL137249  33.030  34.531   8.850
 7205POPC   GL237250  32.946  34.569   8.850
 7205POPC   C1A37251  33.017  34.600   8.550
 7205POPC   D2A37252  32.994  34.614   8.250
 7205POPC   C3A37253  33.015  34.573   7.950
 7205POPC   C4A37254  33.029  34.592   7.650
 7205POPC   C1B37255  32.749  34.548   8.550
 7205POPC   C2B37256  32.817  34.565   8.250
 7205POPC   C3B37257  32.744  34.589   7.950
 7205POPC   C4B37258  32.818  34.601   7.650
 7206POPC   NC337259  13.634  21.358   9.450
 7206POPC   PO437260  13.613  21.373   9.150
 7206POPC   GL137261  13.579  21.375   8.850
 7206POPC   GL237262  13.733  21.414   8.850
 7206POPC   C1A37263  13.583  21.412   8.550
 7206POPC   D2A37264  13.581  21.382   8.250
 7206POPC   C3A37265  13.660  21.410   7.950
 7206POPC   C4A37266  13.675  21.414   7.650
 7206POPC   C1B37267  13.833  21.410   8.550
 7206POPC   C2B37268  13.848  21.409   8.250
 7206POPC   C3B37269  13.860  21.412   7.950
 7206POPC   C4B37270  13.878  21.405   7.650
 7207POPC   NC337271  37.670   2.758   9.450
 7207POPC   PO437272  37.651   2.781   9.150
 7207POPC   GL137273  37.691   2.723   8.850
 7207POPC   GL237274  37.593   2.896   8.850
 7207POPC   C1A37275  37.669   2.774   8.550
 7207POPC   D2A37276  37.678   2.763   8.250
 7207POPC   C3A37277  37.649   2.813   7.950
 7207POPC   C4A37278  37.667   2.799   7.650
 7207POPC   C1B37279  37.548   3.015   8.550
 7207POPC   C2B37280  37.623   2.977   8.250
 7207POPC   C3B37281  37.543   2.950   7.950
 7207POPC   C4B37282  37.636   2.965   7.650
 7208POPC   NC337283  21.433  39.999   9.450
 7208POPC   PO437284  21.413  39.958   9.150
 7208POPC   GL137285  21.423  39.958   8.850
 7208POPC   GL237286  21.232  40.058   8.850
 7208POPC   C1A37287  21.404  39.959   8.550
 7208POPC   D2A37288  21.422  40.048   8.250
 7208POPC   C3A37289  21.374  40.040   7.950
 7208POPC   C4A37290  21.397  40.034   7.650
 7208POPC   C1B37291  21.111  40.128   8.550
 7208POPC   C2B37292  21.160  40.126   8.250
 7208POPC   C3B37293  21.136  40.052   7.950
 7208POPC   C4B37294  21.174  40.090   7.650
 7209POPC   NC337295   1.259  43.839   9.450
 7209POPC   PO437296   1.213  43.905   9.150
 7209POPC   GL137297   1.252  43.926   8.850
 7209POPC   GL237298   1.220  43.721   8.850
 7209POPC   C1A37299   1.177  43.889   8.550
 7209POPC   D2A37300   1.211  43.864   8.250
 7209POPC   C3A37301   1.217  43.895   7.950
 7209POPC   C4A37302   1.215  43.850   7.650
 7209POPC   C1B37303   1.152  43.654   8.550
 7209POPC   C2B37304   1.229  43.678   8.250
 7209POPC   C3B37305   1.173  43.599   7.950
 7209POPC   C4B37306   1.216  43.620   7.650
 7210POPC   NC337307  11.297  42.312   9.450
 7210POPC   PO437308  11.284  42.313   9.150
 7210POPC   GL137309  11.290  42.357   8.850
 7210POPC   GL237310  11.390  42.383   8.850
 7210POPC   C1A37311  11.261  42.321   8.550
 7210POPC   D2A37312  11.277  42.361   8.250
 7210POPC   C3A37313  11.253  42.355   7.950
 7210POPC   C4A37314  11.299  42.314   7.650
 7210POPC   C1B37315  11.471  42.479   8.550
 7210POPC   C2B37316  11.483  42.507   8.250
 7210POPC   C3B37317  11.463  42.518   7.950
 7210POPC   C4B37318  11.471  42.490   7.650
 7211POPC   NC337319  43.846   8.981   9.450
 7211POPC   PO437320  43.929   8.985   9.150
 7211POPC   GL137321  43.841   8.993   8.850
 7211POPC   GL237322  43.985   9.052   8.850
 7211POPC   C1A37323  43.866   9.021   8.550
 7211POPC   D2A37324  43.866   8.998   8.250
 7211POPC   C3A37325  43.842   8.976   7.950
 7211POPC   C4A37326  43.846   8.953   7.650
 7211POPC   C1B37327  44.068   9.162   8.550
 7211POPC   C2B37328  44.065   9.171   8.250
 7211POPC   C3B37329  44.040   9.126   7.950
 7211POPC   C4B37330  44.028   9.174   7.650
 7212POPC   NC337331  42.311  26.801   9.450
 7212POPC   PO437332  42.334  26.854   9.150
 7212POPC   GL137333  42.337  26.835   8.850
 7212POPC   GL237334  42.241  26.849   8.850
 7212POPC   C1A37335  42.343  26.863   8.550
 7212POPC   D2A37336  42.353  26.805   8.250
 7212POPC   C3A37337  42.299  26.813   7.950
 7212POPC   C4A37338  42.339  26.788   7.650
 7212POPC   C1B37339  42.105  26.958   8.550
 7212POPC   C2B37340  42.150  26.976   8.250
 7212POPC   C3B37341  42.145  26.951   7.950
 7212POPC   C4B37342  42.153  26.957   7.650
 7213POPC   NC337343   8.201  28.346   9.450
 7213POPC   PO437344   8.227  28.333   9.150
 7213POPC   GL137345   8.240  28.395   8.850
 7213POPC   GL237346   8.250  28.272   8.850
 7213POPC   C1A37347   8.199  28.343   8.550
 7213POPC   D2A37348   8.167  28.343   8.250
 7213POPC   C3A37349   8.173  28.341   7.950
 7213POPC   C4A37350   8.230  28.406   7.650
 7213POPC   C1B37351   8.214  28.113   8.550
 7213POPC   C2B37352   8.259  28.168   8.250
 7213POPC   C3B37353   8.199  28.143   7.950
 7213POPC   C4B37354   8.227  28.111   7.650
 7214POPC   NC337355  44.686   8.951   9.450
 7214POPC   PO437356  44.706   8.994   9.150
 7214POPC   GL137357  44.703   8.928   8.850
 7214POPC   GL237358  44.563   8.865   8.850
 7214POPC   C1A37359  44.681   8.960   8.550
 7214POPC   D2A37360  44.697   9.015   8.250
 7214POPC   C3A37361  44.621   8.948   7.950
 7214POPC   C4A37362  44.667   9.021   7.650
 7214POPC   C1B37363  44.523   8.709   8.550
 7214POPC   C2B37364  44.544   8.737   8.250
 7214POPC   C3B37365  44.519   8.706   7.950
 7214POPC   C4B37366  44.592   8.719   7.650
 7215POPC   NC337367  34.534  43.070   9.450
 7215POPC   PO437368  34.576  43.061   9.150
 7215POPC   GL137369  34.589  43.110   8.850
 7215POPC   GL237370  34.704  42.990   8.850
 7215POPC   C1A37371  34.617  43.131   8.550
 7215POPC   D2A37372  34.625  43.144   8.250
 7215POPC   C3A37373  34.599  43.113   7.950
 7215POPC   C4A37374  34.582  43.108   7.650
 7215POPC   C1B37375  34.756  42.911   8.550
 7215POPC   C2B37376  34.766  42.899   8.250
 7215POPC   C3B37377  34.708  42.969   7.950
 7215POPC   C4B37378  34.743  42.982   7.650
 7216POPC   NC337379   0.403  43.075   9.450
 7216POPC   PO437380   0.413  43.091   9.150
 7216POPC   GL137381   0.433  43.069   8.850
 7216POPC   GL237382   0.321  43.087   8.850
 7216POPC   C1A37383   0.484  43.076   8.550
 7216POPC   D2A37384   0.416  43.076   8.250
 7216POPC   C3A37385   0.424  43.124   7.950
 7216POPC   C4A37386   0.435  43.068   7.650
 7216POPC   C1B37387   0.181  43.038   8.550
 7216POPC   C2B37388   0.209  43.020   8.250
 7216POPC   C3B37389   0.212  43.065   7.950
 7216POPC   C4B37390   0.175  43.052   7.650
 7217POPC   NC337391  29.918   9.755   9.450
 7217POPC   PO437392  29.874   9.749   9.150
 7217POPC   GL137393  29.940   9.722   8.850
 7217POPC   GL237394  29.809   9.791   8.850
 7217POPC   C1A37395  29.928   9.751   8.550
 7217POPC   D2A37396  29.907   9.704   8.250
 7217POPC   C3A37397  29.958   9.733   7.950
 7217POPC   C4A37398  29.930   9.718   7.650
 7217POPC   C1B37399  29.669   9.832   8.550
 7217POPC   C2B37400  29.671   9.883   8.250
 7217POPC   C3B37401  29.673   9.869   7.950
 7217POPC   C4B37402  29.661   9.805   7.650
 7218POPC   NC337403  22.149  23.674   9.450
 7218POPC   PO437404  22.145  23.758   9.150
 7218POPC   GL137405  22.151  23.686   8.850
 7218POPC   GL237406  22.190  23.852   8.850
 7218POPC   C1A37407  22.130  23.762   8.550
 7218POPC   D2A37408  22.159  23.728   8.250
 7218POPC   C3A37409  22.149  23.693   7.950
 7218POPC   C4A37410  22.165  23.747   7.650
 7218POPC   C1B37411  22.154  23.974   8.550
 7218POPC   C2B37412  22.225  23.989   8.250
 7218POPC   C3B37413  22.155  23.953   7.950
 7218POPC   C4B37414  22.155  23.947   7.650
 7219POPC   NC337415  43.083  24.477   9.450
 7219POPC   PO437416  43.116  24.490   9.150
 7219POPC   GL137417  43.148  24.523   8.850
 7219POPC   GL237418  43.099  24.562   8.850
 7219POPC   C1A37419  43.109  24.523   8.550
 7219POPC   D2A37420  43.115  24.502   8.250
 7219POPC   C3A37421  43.159  24.479   7.950
 7219POPC   C4A37422  43.140  24.535   7.650
 7219POPC   C1B37423  43.173  24.768   8.550
 7219POPC   C2B37424  43.137  24.705   8.250
 7219POPC   C3B37425  43.158  24.685   7.950
 7219POPC   C4B37426  43.143  24.696   7.650
 7220POPC   NC337427  15.163   3.565   9.450
 7220POPC   PO437428  15.134   3.523   9.150
 7220POPC   GL137429  15.182   3.520   8.850
 7220POPC   GL237430  15.233   3.658   8.850
 7220POPC   C1A37431  15.175   3.537   8.550
 7220POPC   D2A37432  15.191   3.533   8.250
 7220POPC   C3A37433  15.133   3.570   7.950
 7220POPC   C4A37434  15.164   3.572   7.650
 7220POPC   C1B37435  15.263   3.767   8.550
 7220POPC   C2B37436  15.263   3.718   8.250
 7220POPC   C3B37437  15.283   3.746   7.950
 7220POPC   C4B37438  15.279   3.759   7.650
 7221POPC   NC337439  30.656  44.708   9.450
 7221POPC   PO437440  30.681  44.693   9.150
 7221POPC   GL137441  30.728  44.677   8.850
 7221POPC   GL237442  30.604  44.585   8.850
 7221POPC   C1A37443  30.688  44.627   8.550
 7221POPC   D2A37444  30.742  44.706   8.250
 7221POPC   C3A37445  30.692  44.698   7.950
 7221POPC   C4A37446  30.715  44.674   7.650
 7221POPC   C1B37447  30.500  44.482   8.550
 7221POPC   C2B37448  30.501  44.518   8.250
 7221POPC   C3B37449  30.474  44.554   7.950
 7221POPC   C4B37450  30.520  44.460   7.650
 7222POPC   NC337451  35.343   0.449   9.450
 7222POPC   PO437452  35.398   0.479   9.150
 7222POPC   GL137453  35.341   0.403   8.850
 7222POPC   GL237454  35.218   0.361   8.850
 7222POPC   C1A37455  35.395   0.405   8.550
 7222POPC   D2A37456  35.305   0.423   8.250
 7222POPC   C3A37457  35.362   0.419   7.950
 7222POPC   C4A37458  35.343   0.461   7.650
 7222POPC   C1B37459  35.150   0.266   8.550
 7222POPC   C2B37460  35.125   0.292   8.250
 7222POPC   C3B37461  35.166   0.266   7.950
 7222POPC   C4B37462  35.159   0.245   7.650
 7223POPC   NC337463  12.855  33.812   9.450
 7223POPC   PO437464  12.843  33.839   9.150
 7223POPC   GL137465  12.812  33.769   8.850
 7223POPC   GL237466  12.944  33.773   8.850
 7223POPC   C1A37467  12.858  33.751   8.550
 7223POPC   D2A37468  12.840  33.810   8.250
 7223POPC   C3A37469  12.837  33.786   7.950
 7223POPC   C4A37470  12.899  33.847   7.650
 7223POPC   C1B37471  13.021  33.716   8.550
 7223POPC   C2B37472  13.105  33.644   8.250
 7223POPC   C3B37473  13.078  33.624   7.950
 7223POPC   C4B37474  13.043  33.687   7.650
 7224POPC   NC337475  24.517  19.047   9.450
 7224POPC   PO437476  24.522  19.051   9.150
 7224POPC   GL137477  24.483  19.097   8.850
 7224POPC   GL237478  24.351  19.091   8.850
 7224POPC   C1A37479  24.528  19.044   8.550
 7224POPC   D2A37480  24.514  19.065   8.250
 7224POPC   C3A37481  24.442  19.059   7.950
 7224POPC   C4A37482  24.529  19.047   7.650
 7224POPC   C1B37483  24.278  19.221   8.550
 7224POPC   C2B37484  24.274  19.241   8.250
 7224POPC   C3B37485  24.311  19.148   7.950
 7224POPC   C4B37486  24.302  19.218   7.650
 7225POPC   NC337487  43.075  29.109   9.450
 7225POPC   PO437488  43.118  29.127   9.150
 7225POPC   GL137489  43.117  29.121   8.850
 7225POPC   GL237490  43.203  29.002   8.850
 7225POPC   C1A37491  43.125  29.179   8.550
 7225POPC   D2A37492  43.089  29.193   8.250
 7225POPC   C3A37493  43.129  29.106   7.950
 7225POPC   C4A37494  43.119  29.135   7.650
 7225POPC   C1B37495  43.215  28.902   8.550
 7225POPC   C2B37496  43.240  28.925   8.250
 7225POPC   C3B37497  43.259  28.929   7.950
 7225POPC   C4B37498  43.188  28.886   7.650
 7226POPC   NC337499  36.160  26.064   9.450
 7226POPC   PO437500  36.093  26.032   9.150
 7226POPC   GL137501  36.127  26.028   8.850
 7226POPC   GL237502  36.291  26.013   8.850
 7226POPC   C1A37503  36.140  26.022   8.550
 7226POPC   D2A37504  36.128  26.048   8.250
 7226POPC   C3A37505  36.121  26.032   7.950
 7226POPC   C4A37506  36.140  26.041   7.650
 7226POPC   C1B37507  36.424  26.058   8.550
 7226POPC   C2B37508  36.351  26.011   8.250
 7226POPC   C3B37509  36.408  26.058   7.950
 7226POPC   C4B37510  36.328  26.047   7.650
 7227POPC   NC337511  15.209  14.356   9.450
 7227POPC   PO437512  15.146  14.391   9.150
 7227POPC   GL137513  15.222  14.445   8.850
 7227POPC   GL237514  15.153  14.518   8.850
 7227POPC   C1A37515  15.171  14.402   8.550
 7227POPC   D2A37516  15.206  14.385   8.250
 7227POPC   C3A37517  15.207  14.357   7.950
 7227POPC   C4A37518  15.209  14.411   7.650
 7227POPC   C1B37519  15.129  14.615   8.550
 7227POPC   C2B37520  15.091  14.621   8.250
 7227POPC   C3B37521  15.061  14.619   7.950
 7227POPC   C4B37522  15.058  14.688   7.650
 7228POPC   NC337523  32.282  39.999   9.450
 7228POPC   PO437524  32.233  40.032   9.150
 7228POPC   GL137525  32.225  40.018   8.850
 7228POPC   GL237526  32.353  39.952   8.850
 7228POPC   C1A37527  32.222  40.002   8.550
 7228POPC   D2A37528  32.256  39.996   8.250
 7228POPC   C3A37529  32.293  39.985   7.950
 7228POPC   C4A37530  32.219  40.026   7.650
 7228POPC   C1B37531  32.440  39.912   8.550
 7228POPC   C2B37532  32.461  39.922   8.250
 7228POPC   C3B37533  32.449  39.918   7.950
 7228POPC   C4B37534  32.486  39.862   7.650
 7229POPC   NC337535  40.005  36.144   9.450
 7229POPC   PO437536  40.001  36.149   9.150
 7229POPC   GL137537  40.038  36.087   8.850
 7229POPC   GL237538  39.877  36.131   8.850
 7229POPC   C1A37539  39.991  36.131   8.550
 7229POPC   D2A37540  40.006  36.090   8.250
 7229POPC   C3A37541  39.968  36.170   7.950
 7229POPC   C4A37542  40.001  36.083   7.650
 7229POPC   C1B37543  39.798  36.202   8.550
 7229POPC   C2B37544  39.732  36.223   8.250
 7229POPC   C3B37545  39.778  36.191   7.950
 7229POPC   C4B37546  39.794  36.183   7.650
 7230POPC   NC337547   5.843  22.147   9.450
 7230POPC   PO437548   5.848  22.164   9.150
 7230POPC   GL137549   5.897  22.168   8.850
 7230POPC   GL237550   5.920  22.264   8.850
 7230POPC   C1A37551   5.909  22.181   8.550
 7230POPC   D2A37552   5.831  22.151   8.250
 7230POPC   C3A37553   5.917  22.189   7.950
 7230POPC   C4A37554   5.906  22.165   7.650
 7230POPC   C1B37555   5.936  22.417   8.550
 7230POPC   C2B37556   5.923  22.439   8.250
 7230POPC   C3B37557   5.938  22.378   7.950
 7230POPC   C4B37558   5.983  22.412   7.650
 7231POPC   NC337559  40.021  13.615   9.450
 7231POPC   PO437560  40.043  13.601   9.150
 7231POPC   GL137561  39.993  13.602   8.850
 7231POPC   GL237562  40.103  13.541   8.850
 7231POPC   C1A37563  39.979  13.678   8.550
 7231POPC   D2A37564  40.026  13.674   8.250
 7231POPC   C3A37565  40.011  13.632   7.950
 7231POPC   C4A37566  39.960  13.597   7.650
 7231POPC   C1B37567  40.204  13.474   8.550
 7231POPC   C2B37568  40.181  13.388   8.250
 7231POPC   C3B37569  40.120  13.461   7.950
 7231POPC   C4B37570  40.178  13.420   7.650
 7232POPC   NC337571  36.896   0.420   9.450
 7232POPC   PO437572  36.895   0.473   9.150
 7232POPC   GL137573  36.888   0.404   8.850
 7232POPC   GL237574  36.911   0.330   8.850
 7232POPC   C1A37575  36.920   0.456   8.550
 7232POPC   D2A37576  36.899   0.421   8.250
 7232POPC   C3A37577  36.917   0.417   7.950
 7232POPC   C4A37578  36.912   0.438   7.650
 7232POPC   C1B37579  36.845   0.159   8.550
 7232POPC   C2B37580  36.889   0.169   8.250
 7232POPC   C3B37581  36.909   0.183   7.950
 7232POPC   C4B37582  36.904   0.147   7.650
 7233POPC   NC337583   9.782   5.828   9.450
 7233POPC   PO437584   9.784   5.889   9.150
 7233POPC   GL137585   9.726   5.909   8.850
 7233POPC   GL237586   9.901   5.813   8.850
 7233POPC   C1A37587   9.766   5.826   8.550
 7233POPC   D2A37588   9.765   5.866   8.250
 7233POPC   C3A37589   9.719   5.892   7.950
 7233POPC   C4A37590   9.740   5.862   7.650
 7233POPC   C1B37591  10.022   5.800   8.550
 7233POPC   C2B37592  10.036   5.861   8.250
 7233POPC   C3B37593   9.956   5.804   7.950
 7233POPC   C4B37594  10.015   5.867   7.650
 7234POPC   NC337595  26.085  27.584   9.450
 7234POPC   PO437596  26.069  27.608   9.150
 7234POPC   GL137597  26.059  27.545   8.850
 7234POPC   GL237598  26.098  27.527   8.850
 7234POPC   C1A37599  26.064  27.597   8.550
 7234POPC   D2A37600  25.997  27.554   8.250
 7234POPC   C3A37601  26.049  27.600   7.950
 7234POPC   C4A37602  26.070  27.545   7.650
 7234POPC   C1B37603  26.154  27.328   8.550
 7234POPC   C2B37604  26.218  27.373   8.250
 7234POPC   C3B37605  26.141  27.409   7.950
 7234POPC   C4B37606  26.209  27.368   7.650
 7235POPC   NC337607  24.457  17.505   9.450
 7235POPC   PO437608  24.443  17.536   9.150
 7235POPC   GL137609  24.458  17.484   8.850
 7235POPC   GL237610  24.389  17.491   8.850
 7235POPC   C1A37611  24.536  17.486   8.550
 7235POPC   D2A37612  24.440  17.493   8.250
 7235POPC   C3A37613  24.452  17.467   7.950
 7235POPC   C4A37614  24.460  17.541   7.650
 7235POPC   C1B37615  24.319  17.361   8.550
 7235POPC   C2B37616  24.282  17.375   8.250
 7235POPC   C3B37617  24.253  17.342   7.950
 7235POPC   C4B37618  24.247  17.384   7.650
 7236POPC   NC337619  43.879  40.767   9.450
 7236POPC   PO437620  43.883  40.757   9.150
 7236POPC   GL137621  43.921  40.749   8.850
 7236POPC   GL237622  43.907  40.609   8.850
 7236POPC   C1A37623  43.896  40.748   8.550
 7236POPC   D2A37624  43.922  40.795   8.250
 7236POPC   C3A37625  43.844  40.811   7.950
 7236POPC   C4A37626  43.908  40.767   7.650
 7236POPC   C1B37627  43.866  40.531   8.550
 7236POPC   C2B37628  43.901  40.573   8.250
 7236POPC   C3B37629  43.885  40.544   7.950
 7236POPC   C4B37630  43.922  40.560   7.650
 7237POPC   NC337631  25.241  21.370   9.450
 7237POPC   PO437632  25.282  21.414   9.150
 7237POPC   GL137633  25.289  21.369   8.850
 7237POPC   GL237634  25.325  21.268   8.850
 7237POPC   C1A37635  25.249  21.355   8.550
 7237POPC   D2A37636  25.300  21.354   8.250
 7237POPC   C3A37637  25.276  21.367   7.950
 7237POPC   C4A37638  25.218  21.354   7.650
 7237POPC   C1B37639  25.345  21.160   8.550
 7237POPC   C2B37640  25.280  21.101   8.250
 7237POPC   C3B37641  25.369  21.159   7.950
 7237POPC   C4B37642  25.292  21.146   7.650
 7238POPC   NC337643  15.916  42.344   9.450
 7238POPC   PO437644  15.985  42.307   9.150
 7238POPC   GL137645  15.921  42.366   8.850
 7238POPC   GL237646  15.897  42.458   8.850
 7238POPC   C1A37647  15.947  42.361   8.550
 7238POPC   D2A37648  15.972  42.375   8.250
 7238POPC   C3A37649  15.967  42.331   7.950
 7238POPC   C4A37650  15.979  42.371   7.650
 7238POPC   C1B37651  15.815  42.518   8.550
 7238POPC   C2B37652  15.787  42.523   8.250
 7238POPC   C3B37653  15.838  42.527   7.950
 7238POPC   C4B37654  15.749  42.538   7.650
 7239POPC   NC337655  42.384  30.738   9.450
 7239POPC   PO437656  42.332  30.656   9.150
 7239POPC   GL137657  42.346  30.745   8.850
 7239POPC   GL237658  42.408  30.729   8.850
 7239POPC   C1A37659  42.351  30.683   8.550
 7239POPC   D2A37660  42.293  30.739   8.250
 7239POPC   C3A37661  42.370  30.659   7.950
 7239POPC   C4A37662  42.369  30.689   7.650
 7239POPC   C1B37663  42.521  30.860   8.550
 7239POPC   C2B37664  42.494  30.880   8.250
 7239POPC   C3B37665  42.521  30.850   7.950
 7239POPC   C4B37666  42.556  30.872   7.650
 7240POPC   NC337667  17.467  35.342   9.450
 7240POPC   PO437668  17.476  35.305   9.150
 7240POPC   GL137669  17.536  35.316   8.850
 7240POPC   GL237670  17.558  35.428   8.850
 7240POPC   C1A37671  17.503  35.354   8.550
 7240POPC   D2A37672  17.522  35.334   8.250
 7240POPC   C3A37673  17.513  35.347   7.950
 7240POPC   C4A37674  17.530  35.389   7.650
 7240POPC   C1B37675  17.741  35.536   8.550
 7240POPC   C2B37676  17.665  35.527   8.250
 7240POPC   C3B37677  17.690  35.464   7.950
 7240POPC   C4B37678  17.717  35.533   7.650
 7241POPC   NC337679  30.675   6.660   9.450
 7241POPC   PO437680  30.709   6.602   9.150
 7241POPC   GL137681  30.703   6.658   8.850
 7241POPC   GL237682  30.843   6.525   8.850
 7241POPC   C1A37683  30.686   6.650   8.550
 7241POPC   D2A37684  30.698   6.633   8.250
 7241POPC   C3A37685  30.667   6.601   7.950
 7241POPC   C4A37686  30.731   6.645   7.650
 7241POPC   C1B37687  30.864   6.456   8.550
 7241POPC   C2B37688  30.882   6.476   8.250
 7241POPC   C3B37689  30.858   6.464   7.950
 7241POPC   C4B37690  30.921   6.534   7.650
 7242POPC   NC337691  23.724  26.070   9.450
 7242POPC   PO437692  23.748  26.025   9.150
 7242POPC   GL137693  23.726  26.063   8.850
 7242POPC   GL237694  23.786  25.990   8.850
 7242POPC   C1A37695  23.702  26.037   8.550
 7242POPC   D2A37696  23.665  26.026   8.250
 7242POPC   C3A37697  23.735  25.993   7.950
 7242POPC   C4A37698  23.686  26.090   7.650
 7242POPC   C1B37699  23.927  25.967   8.550
 7242POPC   C2B37700  23.930  25.897   8.250
 7242POPC   C3B37701  23.981  25.931   7.950
 7242POPC   C4B37702  23.914  25.924   7.650
 7243POPC   NC337703  43.879  26.789   9.450
 7243POPC   PO437704  43.851  26.858   9.150
 7243POPC   GL137705  43.888  26.785   8.850
 7243POPC   GL237706  43.949  26.721   8.850
 7243POPC   C1A37707  43.901  26.814   8.550
 7243POPC   D2A37708  43.878  26.804   8.250
 7243POPC   C3A37709  43.898  26.780   7.950
 7243POPC   C4A37710  43.883  26.769   7.650
 7243POPC   C1B37711  43.915  26.543   8.550
 7243POPC   C2B37712  43.939  26.555   8.250
 7243POPC   C3B37713  43.942  26.606   7.950
 7243POPC   C4B37714  43.956  26.558   7.650
 7244POPC   NC337715  41.580   8.186   9.450
 7244POPC   PO437716  41.548   8.187   9.150
 7244POPC   GL137717  41.604   8.231   8.850
 7244POPC   GL237718  41.665   8.195   8.850
 7244POPC   C1A37719  41.512   8.170   8.550
 7244POPC   D2A37720  41.575   8.209   8.250
 7244POPC   C3A37721  41.545   8.223   7.950
 7244POPC   C4A37722  41.567   8.150   7.650
 7244POPC   C1B37723  41.767   8.161   8.550
 7244POPC   C2B37724  41.829   8.116   8.250
 7244POPC   C3B37725  41.804   8.141   7.950
 7244POPC   C4B37726  41.757   8.128   7.650
 7245POPC   NC337727  19.827  16.748   9.450
 7245POPC   PO437728  19.818  16.740   9.150
 7245POPC   GL137729  19.877  16.722   8.850
 7245POPC   GL237730  19.967  16.707   8.850
 7245POPC   C1A37731  19.843  16.749   8.550
 7245POPC   D2A37732  19.788  16.723   8.250
 7245POPC   C3A37733  19.828  16.725   7.950
 7245POPC   C4A37734  19.847  16.774   7.650
 7245POPC   C1B37735  20.082  16.592   8.550
 7245POPC   C2B37736  20.051  16.597   8.250
 7245POPC   C3B37737  20.015  16.576   7.950
 7245POPC   C4B37738  20.052  16.621   7.650
 7246POPC   NC337739  18.330  38.447   9.450
 7246POPC   PO437740  18.305  38.428   9.150
 7246POPC   GL137741  18.315  38.459   8.850
 7246POPC   GL237742  18.308  38.302   8.850
 7246POPC   C1A37743  18.250  38.463   8.550
 7246POPC   D2A37744  18.249  38.421   8.250
 7246POPC   C3A37745  18.329  38.501   7.950
 7246POPC   C4A37746  18.238  38.438   7.650
 7246POPC   C1B37747  18.293  38.255   8.550
 7246POPC   C2B37748  18.353  38.177   8.250
 7246POPC   C3B37749  18.287  38.173   7.950
 7246POPC   C4B37750  18.297  38.211   7.650
 7247POPC   NC337751  20.572  15.189   9.450
 7247POPC   PO437752  20.653  15.193   9.150
 7247POPC   GL137753  20.654  15.196   8.850
 7247POPC   GL237754  20.590  15.331   8.850
 7247POPC   C1A37755  20.577  15.184   8.550
 7247POPC   D2A37756  20.641  15.174   8.250
 7247POPC   C3A37757  20.565  15.224   7.950
 7247POPC   C4A37758  20.612  15.208   7.650
 7247POPC   C1B37759  20.577  15.477   8.550
 7247POPC   C2B37760  20.556  15.401   8.250
 7247POPC   C3B37761  20.611  15.464   7.950
 7247POPC   C4B37762  20.580  15.419   7.650
 7248POPC   NC337763   8.988  39.201   9.450
 7248POPC   PO437764   8.958  39.234   9.150
 7248POPC   GL137765   8.997  39.266   8.850
 7248POPC   GL237766   8.954  39.310   8.850
 7248POPC   C1A37767   8.934  39.187   8.550
 7248POPC   D2A37768   8.989  39.256   8.250
 7248POPC   C3A37769   8.925  39.187   7.950
 7248POPC   C4A37770   8.993  39.249   7.650
 7248POPC   C1B37771   8.988  39.494   8.550
 7248POPC   C2B37772   8.998  39.471   8.250
 7248POPC   C3B37773   9.002  39.503   7.950
 7248POPC   C4B37774   8.980  39.460   7.650
 7249POPC   NC337775  28.329  15.956   9.450
 7249POPC   PO437776  28.333  15.989   9.150
 7249POPC   GL137777  28.390  15.944   8.850
 7249POPC   GL237778  28.515  15.999   8.850
 7249POPC   C1A37779  28.343  16.002   8.550
 7249POPC   D2A37780  28.410  15.925   8.250
 7249POPC   C3A37781  28.337  15.921   7.950
 7249POPC   C4A37782  28.374  15.918   7.650
 7249POPC   C1B37783  28.512  16.087   8.550
 7249POPC   C2B37784  28.610  16.096   8.250
 7249POPC   C3B37785  28.555  16.074   7.950
 7249POPC   C4B37786  28.604  16.108   7.650
 7250POPC   NC337787  18.263   7.381   9.450
 7250POPC   PO437788  18.277   7.442   9.150
 7250POPC   GL137789  18.249   7.469   8.850
 7250POPC   GL237790  18.361   7.363   8.850
 7250POPC   C1A37791  18.286   7.389   8.550
 7250POPC   D2A37792  18.327   7.377   8.250
 7250POPC   C3A37793  18.254   7.468   7.950
 7250POPC   C4A37794  18.310   7.385   7.650
 7250POPC   C1B37795  18.489   7.362   8.550
 7250POPC   C2B37796  18.540   7.330   8.250
 7250POPC   C3B37797  18.502   7.386   7.950
 7250POPC   C4B37798  18.569   7.358   7.650
 7251POPC   NC337799  32.257  41.601   9.450
 7251POPC   PO437800  32.248  41.561   9.150
 7251POPC   GL137801  32.271  41.608   8.850
 7251POPC   GL237802  32.110  41.465   8.850
 7251POPC   C1A37803  32.224  41.532   8.550
 7251POPC   D2A37804  32.233  41.565   8.250
 7251POPC   C3A37805  32.283  41.577   7.950
 7251POPC   C4A37806  32.256  41.571   7.650
 7251POPC   C1B37807  32.063  41.503   8.550
 7251POPC   C2B37808  32.051  41.475   8.250
 7251POPC   C3B37809  32.045  41.463   7.950
 7251POPC   C4B37810  32.010  41.458   7.650
 7252POPC   NC337811   8.191  16.001   9.450
 7252POPC   PO437812   8.172  15.974   9.150
 7252POPC   GL137813   8.216  15.983   8.850
 7252POPC   GL237814   8.292  15.879   8.850
 7252POPC   C1A37815   8.222  15.919   8.550
 7252POPC   D2A37816   8.165  15.958   8.250
 7252POPC   C3A37817   8.217  15.931   7.950
 7252POPC   C4A37818   8.171  15.986   7.650
 7252POPC   C1B37819   8.428  15.847   8.550
 7252POPC   C2B37820   8.383  15.818   8.250
 7252POPC   C3B37821   8.418  15.820   7.950
 7252POPC   C4B37822   8.396  15.852   7.650
 7253POPC   NC337823  21.372  22.975   9.450
 7253POPC   PO437824  21.398  22.933   9.150
 7253POPC   GL137825  21.337  22.950   8.850
 7253POPC   GL237826  21.277  22.828   8.850
 7253POPC   C1A37827  21.408  22.896   8.550
 7253POPC   D2A37828  21.378  22.939   8.250
 7253POPC   C3A37829  21.339  22.976   7.950
 7253POPC   C4A37830  21.392  22.938   7.650
 7253POPC   C1B37831  21.208  22.793   8.550
 7253POPC   C2B37832  21.194  22.758   8.250
 7253POPC   C3B37833  21.198  22.824   7.950
 7253POPC   C4B37834  21.157  22.828   7.650
 7254POPC   NC337835  22.929  15.920   9.450
 7254POPC   PO437836  22.963  15.967   9.150
 7254POPC   GL137837  22.983  15.987   8.850
 7254POPC   GL237838  22.955  15.801   8.850
 7254POPC   C1A37839  22.901  15.918   8.550
 7254POPC   D2A37840  22.960  15.942   8.250
 7254POPC   C3A37841  22.986  15.975   7.950
 7254POPC   C4A37842  22.988  15.958   7.650
 7254POPC   C1B37843  22.911  15.757   8.550
 7254POPC   C2B37844  22.851  15.700   8.250
 7254POPC   C3B37845  22.885  15.702   7.950
 7254POPC   C4B37846  22.891  15.753   7.650
 7255POPC   NC337847   1.979  27.578   9.450
 7255POPC   PO437848   2.039  27.629   9.150
 7255POPC   GL137849   2.032  27.555   8.850
 7255POPC   GL237850   2.071  27.521   8.850
 7255POPC   C1A37851   2.001  27.554   8.550
 7255POPC   D2A37852   2.008  27.617   8.250
 7255POPC   C3A37853   2.008  27.589   7.950
 7255POPC   C4A37854   1.970  27.630   7.650
 7255POPC   C1B37855   2.218  27.500   8.550
 7255POPC   C2B37856   2.194  27.475   8.250
 7255POPC   C3B37857   2.225  27.505   7.950
 7255POPC   C4B37858   2.213  27.490   7.650
 7256POPC   NC337859  30.697  40.032   9.450
 7256POPC   PO437860  30.669  40.046   9.150
 7256POPC   GL137861  30.702  40.036   8.850
 7256POPC   GL237862  30.788  40.101   8.850
 7256POPC   C1A37863  30.652  40.001   8.550
 7256POPC   D2A37864  30.655  39.981   8.250
 7256POPC   C3A37865  30.721  40.041   7.950
 7256POPC   C4A37866  30.647  40.027   7.650
 7256POPC   C1B37867  30.875  40.150   8.550
 7256POPC   C2B37868  30.938  40.143   8.250
 7256POPC   C3B37869  30.938  40.144   7.950
 7256POPC   C4B37870  30.907  40.075   7.650
 7257POPC   NC337871   4.269  19.840   9.450
 7257POPC   PO437872   4.281  19.854   9.150
 7257POPC   GL137873   4.344  19.881   8.850
 7257POPC   GL237874   4.434  19.823   8.850
 7257POPC   C1A37875   4.306  19.868   8.550
 7257POPC   D2A37876   4.295  19.809   8.250
 7257POPC   C3A37877   4.315  19.864   7.950
 7257POPC   C4A37878   4.288  19.846   7.650
 7257POPC   C1B37879   4.517  19.710   8.550
 7257POPC   C2B37880   4.540  19.709   8.250
 7257POPC   C3B37881   4.590  19.774   7.950
 7257POPC   C4B37882   4.520  19.743   7.650
 7258POPC   NC337883   0.453  32.979   9.450
 7258POPC   PO437884   0.465  32.977   9.150
 7258POPC   GL137885   0.474  32.981   8.850
 7258POPC   GL237886   0.315  33.089   8.850
 7258POPC   C1A37887   0.441  33.049   8.550
 7258POPC   D2A37888   0.474  32.990   8.250
 7258POPC   C3A37889   0.412  33.023   7.950
 7258POPC   C4A37890   0.479  33.048   7.650
 7258POPC   C1B37891   0.190  33.158   8.550
 7258POPC   C2B37892   0.232  33.190   8.250
 7258POPC   C3B37893   0.204  33.175   7.950
 7258POPC   C4B37894   0.231  33.212   7.650
 7259POPC   NC337895   3.522  22.144   9.450
 7259POPC   PO437896   3.554  22.114   9.150
 7259POPC   GL137897   3.566  22.208   8.850
 7259POPC   GL237898   3.462  22.041   8.850
 7259POPC   C1A37899   3.496  22.117   8.550
 7259POPC   D2A37900   3.544  22.114   8.250
 7259POPC   C3A37901   3.543  22.123   7.950
 7259POPC   C4A37902   3.495  22.141   7.650
 7259POPC   C1B37903   3.396  21.987   8.550
 7259POPC   C2B37904   3.350  21.982   8.250
 7259POPC   C3B37905   3.421  22.014   7.950
 7259POPC   C4B37906   3.409  22.009   7.650
 7260POPC   NC337907  19.840  36.137   9.450
 7260POPC   PO437908  19.808  36.115   9.150
 7260POPC   GL137909  19.851  36.104   8.850
 7260POPC   GL237910  19.784  36.240   8.850
 7260POPC   C1A37911  19.868  36.173   8.550
 7260POPC   D2A37912  19.866  36.151   8.250
 7260POPC   C3A37913  19.788  36.119   7.950
 7260POPC   C4A37914  19.792  36.175   7.650
 7260POPC   C1B37915  19.747  36.394   8.550
 7260POPC   C2B37916  19.759  36.380   8.250
 7260POPC   C3B37917  19.808  36.324   7.950
 7260POPC   C4B37918  19.794  36.372   7.650
 7261POPC   NC337919   5.836   2.802   9.450
 7261POPC   PO437920   5.866   2.723   9.150
 7261POPC   GL137921   5.856   2.801   8.850
 7261POPC   GL237922   5.827   2.859   8.850
 7261POPC   C1A37923   5.835   2.789   8.550
 7261POPC   D2A37924   5.822   2.725   8.250
 7261POPC   C3A37925   5.876   2.769   7.950
 7261POPC   C4A37926   5.855   2.741   7.650
 7261POPC   C1B37927   5.783   3.059   8.550
 7261POPC   C2B37928   5.826   3.004   8.250
 7261POPC   C3B37929   5.839   2.969   7.950
 7261POPC   C4B37930   5.851   3.034   7.650
 7262POPC   NC337931  24.498  31.504   9.450
 7262POPC   PO437932  24.485  31.460   9.150
 7262POPC   GL137933  24.472  31.494   8.850
 7262POPC   GL237934  24.383  31.494   8.850
 7262POPC   C1A37935  24.501  31.473   8.550
 7262POPC   D2A37936  24.482  31.520   8.250
 7262POPC   C3A37937  24.454  31.490   7.950
 7262POPC   C4A37938  24.506  31.477   7.650
 7262POPC   C1B37939  24.239  31.544   8.550
 7262POPC   C2B37940  24.236  31.576   8.250
 7262POPC   C3B37941  24.269  31.534   7.950
 7262POPC   C4B37942  24.203  31.542   7.650
 7263POPC   NC337943  43.079  14.402   9.450
 7263POPC   PO437944  43.114  14.372   9.150
 7263POPC   GL137945  43.066  14.401   8.850
 7263POPC   GL237946  43.115  14.529   8.850
 7263POPC   C1A37947  43.069  14.386   8.550
 7263POPC   D2A37948  43.096  14.391   8.250
 7263POPC   C3A37949  43.158  14.445   7.950
 7263POPC   C4A37950  43.069  14.422   7.650
 7263POPC   C1B37951  43.023  14.641   8.550
 7263POPC   C2B37952  43.099  14.617   8.250
 7263POPC   C3B37953  43.056  14.646   7.950
 7263POPC   C4B37954  43.047  14.627   7.650
 7264POPC   NC337955  40.781  20.582   9.450
 7264POPC   PO437956  40.825  20.604   9.150
 7264POPC   GL137957  40.733  20.627   8.850
 7264POPC   GL237958  40.827  20.662   8.850
 7264POPC   C1A37959  40.754  20.586   8.550
 7264POPC   D2A37960  40.765  20.625   8.250
 7264POPC   C3A37961  40.825  20.606   7.950
 7264POPC   C4A37962  40.832  20.615   7.650
 7264POPC   C1B37963  40.992  20.756   8.550
 7264POPC   C2B37964  40.971  20.828   8.250
 7264POPC   C3B37965  40.994  20.805   7.950
 7264POPC   C4B37966  40.931  20.793   7.650
 7265POPC   NC337967  19.867   8.950   9.450
 7265POPC   PO437968  19.852   8.998   9.150
 7265POPC   GL137969  19.834   9.008   8.850
 7265POPC   GL237970  19.927   9.044   8.850
 7265POPC   C1A37971  19.869   8.972   8.550
 7265POPC   D2A37972  19.871   9.008   8.250
 7265POPC   C3A37973  19.877   9.021   7.950
 7265POPC   C4A37974  19.800   9.021   7.650
 7265POPC   C1B37975  20.004   9.186   8.550
 7265POPC   C2B37976  20.031   9.168   8.250
 7265POPC   C3B37977  19.963   9.196   7.950
 7265POPC   C4B37978  19.984   9.176   7.650
 7266POPC   NC337979   7.419  12.037   9.450
 7266POPC   PO437980   7.436  12.065   9.150
 7266POPC   GL137981   7.375  12.083   8.850
 7266POPC   GL237982   7.477  11.965   8.850
 7266POPC   C1A37983   7.462  12.056   8.550
 7266POPC   D2A37984   7.375  12.046   8.250
 7266POPC   C3A37985   7.404  12.091   7.950
 7266POPC   C4A37986   7.437  12.117   7.650
 7266POPC   C1B37987   7.674  11.908   8.550
 7266POPC   C2B37988   7.667  11.909   8.250
 7266POPC   C3B37989   7.617  11.909   7.950
 7266POPC   C4B37990   7.653  11.932   7.650
 7267POPC   NC337991  30.730  36.861   9.450
 7267POPC   PO437992  30.717  36.919   9.150
 7267POPC   GL137993  30.717  36.874   8.850
 7267POPC   GL237994  30.792  36.996   8.850
 7267POPC   C1A37995  30.721  36.948   8.550
 7267POPC   D2A37996  30.742  36.905   8.250
 7267POPC   C3A37997  30.704  36.936   7.950
 7267POPC   C4A37998  30.698  36.909   7.650
 7267POPC   C1B37999  30.901  37.047   8.550
 7267POPC   C2B38000  30.865  37.011   8.250
 7267POPC   C3B38001  30.937  37.055   7.950
 7267POPC   C4B38002  30.952  37.057   7.650
 7268POPC   NC338003  13.664   0.437   9.450
 7268POPC   PO438004  13.661   0.413   9.150
 7268POPC   GL138005  13.656   0.426   8.850
 7268POPC   GL238006  13.560   0.507   8.850
 7268POPC   C1A38007  13.675   0.476   8.550
 7268POPC   D2A38008  13.652   0.450   8.250
 7268POPC   C3A38009  13.587   0.433   7.950
 7268POPC   C4A38010  13.659   0.477   7.650
 7268POPC   C1B38011  13.424   0.623   8.550
 7268POPC   C2B38012  13.441   0.587   8.250
 7268POPC   C3B38013  13.435   0.599   7.950
 7268POPC   C4B38014  13.402   0.601   7.650
 7269POPC   NC338015  25.261  29.177   9.450
 7269POPC   PO438016  25.218  29.146   9.150
 7269POPC   GL138017  25.279  29.116   8.850
 7269POPC   GL238018  25.372  29.089   8.850
 7269POPC   C1A38019  25.218  29.186   8.550
 7269POPC   D2A38020  25.292  29.166   8.250
 7269POPC   C3A38021  25.295  29.137   7.950
 7269POPC   C4A38022  25.225  29.118   7.650
 7269POPC   C1B38023  25.425  28.919   8.550
 7269POPC   C2B38024  25.428  28.912   8.250
 7269POPC   C3B38025  25.390  28.945   7.950
 7269POPC   C4B38026  25.434  28.944   7.650
 7270POPC   NC338027  33.790  14.354   9.450
 7270POPC   PO438028  33.790  14.419   9.150
 7270POPC   GL138029  33.831  14.426   8.850
 7270POPC   GL238030  33.774  14.486   8.850
 7270POPC   C1A38031  33.841  14.372   8.550
 7270POPC   D2A38032  33.831  14.437   8.250
 7270POPC   C3A38033  33.846  14.401   7.950
 7270POPC   C4A38034  33.782  14.433   7.650
 7270POPC   C1B38035  33.662  14.668   8.550
 7270POPC   C2B38036  33.628  14.619   8.250
 7270POPC   C3B38037  33.634  14.616   7.950
 7270POPC   C4B38038  33.696  14.604   7.650
 7271POPC   NC338039  12.843  34.587   9.450
 7271POPC   PO438040  12.868  34.532   9.150
 7271POPC   GL138041  12.837  34.545   8.850
 7271POPC   GL238042  12.773  34.563   8.850
 7271POPC   C1A38043  12.894  34.583   8.550
 7271POPC   D2A38044  12.817  34.617   8.250
 7271POPC   C3A38045  12.851  34.567   7.950
 7271POPC   C4A38046  12.884  34.592   7.650
 7271POPC   C1B38047  12.611  34.530   8.550
 7271POPC   C2B38048  12.633  34.463   8.250
 7271POPC   C3B38049  12.634  34.471   7.950
 7271POPC   C4B38050  12.597  34.520   7.650
 7272POPC   NC338051  35.319   5.125   9.450
 7272POPC   PO438052  35.392   5.143   9.150
 7272POPC   GL138053  35.356   5.132   8.850
 7272POPC   GL238054  35.259   5.022   8.850
 7272POPC   C1A38055  35.303   5.108   8.550
 7272POPC   D2A38056  35.388   5.127   8.250
 7272POPC   C3A38057  35.317   5.126   7.950
 7272POPC   C4A38058  35.351   5.125   7.650
 7272POPC   C1B38059  35.138   5.024   8.550
 7272POPC   C2B38060  35.146   4.993   8.250
 7272POPC   C3B38061  35.159   5.056   7.950
 7272POPC   C4B38062  35.157   4.978   7.650
 7273POPC   NC338063  20.617  21.425   9.450
 7273POPC   PO438064  20.660  21.393   9.150
 7273POPC   GL138065  20.590  21.406   8.850
 7273POPC   GL238066  20.521  21.490   8.850
 7273POPC   C1A38067  20.608  21.399   8.550
 7273POPC   D2A38068  20.616  21.364   8.250
 7273POPC   C3A38069  20.620  21.341   7.950
 7273POPC   C4A38070  20.595  21.386   7.650
 7273POPC   C1B38071  20.439  21.521   8.550
 7273POPC   C2B38072  20.416  21.508   8.250
 7273POPC   C3B38073  20.358  21.534   7.950
 7273POPC   C4B38074  20.389  21.509   7.650
 7274POPC   NC338075   5.090  22.156   9.450
 7274POPC   PO438076   5.046  22.177   9.150
 7274POPC   GL138077   5.123  22.164   8.850
 7274POPC   GL238078   5.063  22.051   8.850
 7274POPC   C1A38079   5.118  22.202   8.550
 7274POPC   D2A38080   5.077  22.185   8.250
 7274POPC   C3A38081   5.135  22.154   7.950
 7274POPC   C4A38082   5.052  22.197   7.650
 7274POPC   C1B38083   5.051  21.907   8.550
 7274POPC   C2B38084   5.012  21.889   8.250
 7274POPC   C3B38085   5.035  21.935   7.950
 7274POPC   C4B38086   5.044  21.959   7.650
 7275POPC   NC338087  11.325   7.441   9.450
 7275POPC   PO438088  11.257   7.427   9.150
 7275POPC   GL138089  11.274   7.424   8.850
 7275POPC   GL238090  11.229   7.338   8.850
 7275POPC   C1A38091  11.320   7.393   8.550
 7275POPC   D2A38092  11.298   7.422   8.250
 7275POPC   C3A38093  11.338   7.469   7.950
 7275POPC   C4A38094  11.319   7.439   7.650
 7275POPC   C1B38095  11.227   7.216   8.550
 7275POPC   C2B38096  11.194   7.138   8.250
 7275POPC   C3B38097  11.248   7.186   7.950
 7275POPC   C4B38098  11.229   7.208   7.650
 7276POPC   NC338099  22.189  31.453   9.450
 7276POPC   PO438100  22.153  31.487   9.150
 7276POPC   GL138101  22.134  31.453   8.850
 7276POPC   GL238102  22.306  31.484   8.850
 7276POPC   C1A38103  22.170  31.460   8.550
 7276POPC   D2A38104  22.116  31.429   8.250
 7276POPC   C3A38105  22.162  31.489   7.950
 7276POPC   C4A38106  22.194  31.454   7.650
 7276POPC   C1B38107  22.379  31.513   8.550
 7276POPC   C2B38108  22.364  31.449   8.250
 7276POPC   C3B38109  22.371  31.423   7.950
 7276POPC   C4B38110  22.387  31.418   7.650
 7277POPC   NC338111   3.530  26.785   9.450
 7277POPC   PO438112   3.547  26.847   9.150
 7277POPC   GL138113   3.579  26.828   8.850
 7277POPC   GL238114   3.647  26.830   8.850
 7277POPC   C1A38115   3.493  26.861   8.550
 7277POPC   D2A38116   3.546  26.794   8.250
 7277POPC   C3A38117   3.589  26.821   7.950
 7277POPC   C4A38118   3.529  26.786   7.650
 7277POPC   C1B38119   3.805  26.890   8.550
 7277POPC   C2B38120   3.742  26.913   8.250
 7277POPC   C3B38121   3.737  26.904   7.950
 7277POPC   C4B38122   3.747  26.839   7.650
 7278POPC   NC338123  18.253   3.522   9.450
 7278POPC   PO438124  18.259   3.499   9.150
 7278POPC   GL138125  18.302   3.523   8.850
 7278POPC   GL238126  18.359   3.571   8.850
 7278POPC   C1A38127  18.288   3.504   8.550
 7278POPC   D2A38128  18.235   3.526   8.250
 7278POPC   C3A38129  18.254   3.581   7.950
 7278POPC   C4A38130  18.247   3.541   7.650
 7278POPC   C1B38131  18.573   3.563   8.550
 7278POPC   C2B38132  18.569   3.542   8.250
 7278POPC   C3B38133  18.526   3.535   7.950
 7278POPC   C4B38134  18.573   3.525   7.650
 7279POPC   NC338135  36.165  33.055   9.450
 7279POPC   PO438136  36.090  33.073   9.150
 7279POPC   GL138137  36.125  33.069   8.850
 7279POPC   GL238138  36.068  33.157   8.850
 7279POPC   C1A38139  36.101  33.040   8.550
 7279POPC   D2A38140  36.109  33.051   8.250
 7279POPC   C3A38141  36.110  33.001   7.950
 7279POPC   C4A38142  36.131  33.065   7.650
 7279POPC   C1B38143  36.038  33.237   8.550
 7279POPC   C2B38144  36.068  33.246   8.250
 7279POPC   C3B38145  36.032  33.283   7.950
 7279POPC   C4B38146  36.022  33.301   7.650
 7280POPC   NC338147  16.731  12.890   9.450
 7280POPC   PO438148  16.699  12.820   9.150
 7280POPC   GL138149  16.764  12.874   8.850
 7280POPC   GL238150  16.579  12.926   8.850
 7280POPC   C1A38151  16.762  12.874   8.550
 7280POPC   D2A38152  16.696  12.878   8.250
 7280POPC   C3A38153  16.695  12.834   7.950
 7280POPC   C4A38154  16.772  12.891   7.650
 7280POPC   C1B38155  16.474  13.014   8.550
 7280POPC   C2B38156  16.494  12.961   8.250
 7280POPC   C3B38157  16.527  13.011   7.950
 7280POPC   C4B38158  16.519  12.935   7.650
 7281POPC   NC338159  14.383  29.109   9.450
 7281POPC   PO438160  14.436  29.097   9.150
 7281POPC   GL138161  14.453  29.154   8.850
 7281POPC   GL238162  14.516  29.197   8.850
 7281POPC   C1A38163  14.378  29.118   8.550
 7281POPC   D2A38164  14.354  29.165   8.250
 7281POPC   C3A38165  14.416  29.151   7.950
 7281POPC   C4A38166  14.399  29.143   7.650
 7281POPC   C1B38167  14.683  29.193   8.550
 7281POPC   C2B38168  14.630  29.131   8.250
 7281POPC   C3B38169  14.674  29.158   7.950
 7281POPC   C4B38170  14.626  29.159   7.650
 7282POPC   NC338171  29.924  25.275   9.450
 7282POPC   PO438172  29.909  25.263   9.150
 7282POPC   GL138173  29.958  25.295   8.850
 7282POPC   GL238174  29.983  25.110   8.850
 7282POPC   C1A38175  29.963  25.250   8.550
 7282POPC   D2A38176  29.911  25.292   8.250
 7282POPC   C3A38177  29.971  25.280   7.950
 7282POPC   C4A38178  29.919  25.297   7.650
 7282POPC   C1B38179  30.048  24.989   8.550
 7282POPC   C2B38180  30.008  25.015   8.250
 7282POPC   C3B38181  29.983  25.018   7.950
 7282POPC   C4B38182  30.043  25.012   7.650
 7283POPC   NC338183  36.154  11.300   9.450
 7283POPC   PO438184  36.100  11.290   9.150
 7283POPC   GL138185  36.160  11.337   8.850
 7283POPC   GL238186  36.095  11.219   8.850
 7283POPC   C1A38187  36.154  11.321   8.550
 7283POPC   D2A38188  36.154  11.273   8.250
 7283POPC   C3A38189  36.078  11.263   7.950
 7283POPC   C4A38190  36.136  11.319   7.650
 7283POPC   C1B38191  36.155  11.096   8.550
 7283POPC   C2B38192  36.135  11.100   8.250
 7283POPC   C3B38193  36.133  11.073   7.950
 7283POPC   C4B38194  36.116  11.093   7.650
 7284POPC   NC338195  21.435  26.830   9.450
 7284POPC   PO438196  21.429  26.768   9.150
 7284POPC   GL138197  21.434  26.792   8.850
 7284POPC   GL238198  21.306  26.925   8.850
 7284POPC   C1A38199  21.372  26.797   8.550
 7284POPC   D2A38200  21.388  26.784   8.250
 7284POPC   C3A38201  21.433  26.791   7.950
 7284POPC   C4A38202  21.373  26.808   7.650
 7284POPC   C1B38203  21.155  26.911   8.550
 7284POPC   C2B38204  21.144  26.940   8.250
 7284POPC   C3B38205  21.200  26.926   7.950
 7284POPC   C4B38206  21.127  26.937   7.650
 7285POPC   NC338207   5.132  22.981   9.450
 7285POPC   PO438208   5.048  22.952   9.150
 7285POPC   GL138209   5.111  22.988   8.850
 7285POPC   GL238210   4.985  22.888   8.850
 7285POPC   C1A38211   5.073  22.925   8.550
 7285POPC   D2A38212   5.061  22.973   8.250
 7285POPC   C3A38213   5.083  22.926   7.950
 7285POPC   C4A38214   5.124  22.923   7.650
 7285POPC   C1B38215   4.949  22.796   8.550
 7285POPC   C2B38216   4.972  22.794   8.250
 7285POPC   C3B38217   4.947  22.774   7.950
 7285POPC   C4B38218   4.908  22.748   7.650
 7286POPC   NC338219  16.738  43.934   9.450
 7286POPC   PO438220  16.694  43.867   9.150
 7286POPC   GL138221  16.731  43.908   8.850
 7286POPC   GL238222  16.779  43.726   8.850
 7286POPC   C1A38223  16.759  43.858   8.550
 7286POPC   D2A38224  16.711  43.907   8.250
 7286POPC   C3A38225  16.747  43.878   7.950
 7286POPC   C4A38226  16.731  43.865   7.650
 7286POPC   C1B38227  16.735  43.649   8.550
 7286POPC   C2B38228  16.824  43.592   8.250
 7286POPC   C3B38229  16.740  43.676   7.950
 7286POPC   C4B38230  16.731  43.607   7.650
 7287POPC   NC338231   4.288  33.059   9.450
 7287POPC   PO438232   4.347  33.052   9.150
 7287POPC   GL138233   4.287  33.047   8.850
 7287POPC   GL238234   4.337  33.152   8.850
 7287POPC   C1A38235   4.325  33.052   8.550
 7287POPC   D2A38236   4.337  32.988   8.250
 7287POPC   C3A38237   4.308  32.997   7.950
 7287POPC   C4A38238   4.350  33.004   7.650
 7287POPC   C1B38239   4.273  33.261   8.550
 7287POPC   C2B38240   4.339  33.267   8.250
 7287POPC   C3B38241   4.345  33.230   7.950
 7287POPC   C4B38242   4.284  33.313   7.650
 7288POPC   NC338243   7.419  32.266   9.450
 7288POPC   PO438244   7.453  32.284   9.150
 7288POPC   GL138245   7.403  32.226   8.850
 7288POPC   GL238246   7.362  32.128   8.850
 7288POPC   C1A38247   7.460  32.205   8.550
 7288POPC   D2A38248   7.415  32.259   8.250
 7288POPC   C3A38249   7.401  32.234   7.950
 7288POPC   C4A38250   7.378  32.291   7.650
 7288POPC   C1B38251   7.211  32.093   8.550
 7288POPC   C2B38252   7.292  32.044   8.250
 7288POPC   C3B38253   7.280  32.027   7.950
 7288POPC   C4B38254   7.240  32.058   7.650
 7289POPC   NC338255  21.424   2.779   9.450
 7289POPC   PO438256  21.358   2.771   9.150
 7289POPC   GL138257  21.381   2.778   8.850
 7289POPC   GL238258  21.282   2.768   8.850
 7289POPC   C1A38259  21.419   2.737   8.550
 7289POPC   D2A38260  21.338   2.807   8.250
 7289POPC   C3A38261  21.396   2.772   7.950
 7289POPC   C4A38262  21.371   2.721   7.650
 7289POPC   C1B38263  21.189   2.902   8.550
 7289POPC   C2B38264  21.181   2.842   8.250
 7289POPC   C3B38265  21.170   2.896   7.950
 7289POPC   C4B38266  21.136   2.865   7.650
 7290POPC   NC338267   9.772  12.034   9.450
 7290POPC   PO438268   9.760  12.068   9.150
 7290POPC   GL138269   9.757  12.068   8.850
 7290POPC   GL238270   9.898  12.104   8.850
 7290POPC   C1A38271   9.762  12.120   8.550
 7290POPC   D2A38272   9.712  12.030   8.250
 7290POPC   C3A38273   9.760  12.120   7.950
 7290POPC   C4A38274   9.703  12.049   7.650
 7290POPC   C1B38275   9.933  12.156   8.550
 7290POPC   C2B38276   9.962  12.242   8.250
 7290POPC   C3B38277   9.993  12.184   7.950
 7290POPC   C4B38278   9.938  12.210   7.650
 7291POPC   NC338279  44.710  41.539   9.450
 7291POPC   PO438280  44.661  41.582   9.150
 7291POPC   GL138281  44.711  41.527   8.850
 7291POPC   GL238282  44.511  41.668   8.850
 7291POPC   C1A38283  44.619  41.568   8.550
 7291POPC   D2A38284  44.693  41.530   8.250
 7291POPC   C3A38285  44.693  41.576   7.950
 7291POPC   C4A38286  44.668  41.524   7.650
 7291POPC   C1B38287  44.467  41.678   8.550
 7291POPC   C2B38288  44.493  41.672   8.250
 7291POPC   C3B38289  44.480  41.718   7.950
 7291POPC   C4B38290  44.470  41.698   7.650
 7292POPC   NC338291  29.945  33.788   9.450
 7292POPC   PO438292  29.885  33.802   9.150
 7292POPC   GL138293  29.909  33.754   8.850
 7292POPC   GL238294  29.934  33.630   8.850
 7292POPC   C1A38295  29.969  33.848   8.550
 7292POPC   D2A38296  29.882  33.840   8.250
 7292POPC   C3A38297  29.905  33.773   7.950
 7292POPC   C4A38298  29.917  33.821   7.650
 7292POPC   C1B38299  29.968  33.530   8.550
 7292POPC   C2B38300  29.971  33.579   8.250
 7292POPC   C3B38301  30.005  33.589   7.950
 7292POPC   C4B38302  29.936  33.572   7.650
 7293POPC   NC338303  15.136  12.090   9.450
 7293POPC   PO438304  15.152  12.101   9.150
 7293POPC   GL138305  15.168  12.055   8.850
 7293POPC   GL238306  15.202  12.223   8.850
 7293POPC   C1A38307  15.224  12.034   8.550
 7293POPC   D2A38308  15.194  12.037   8.250
 7293POPC   C3A38309  15.210  12.111   7.950
 7293POPC   C4A38310  15.224  12.111   7.650
 7293POPC   C1B38311  15.124  12.341   8.550
 7293POPC   C2B38312  15.140  12.321   8.250
 7293POPC   C3B38313  15.143  12.293   7.950
 7293POPC   C4B38314  15.169  12.314   7.650
 7294POPC   NC338315   5.073  42.338   9.450
 7294POPC   PO438316   5.114  42.367   9.150
 7294POPC   GL138317   5.120  42.373   8.850
 7294POPC   GL238318   5.226  42.291   8.850
 7294POPC   C1A38319   5.102  42.379   8.550
 7294POPC   D2A38320   5.122  42.373   8.250
 7294POPC   C3A38321   5.049  42.313   7.950
 7294POPC   C4A38322   5.055  42.296   7.650
 7294POPC   C1B38323   5.320  42.186   8.550
 7294POPC   C2B38324   5.353  42.168   8.250
 7294POPC   C3B38325   5.306  42.231   7.950
 7294POPC   C4B38326   5.335  42.200   7.650
 7295POPC   NC338327  10.536  25.277   9.450
 7295POPC   PO438328  10.569  25.239   9.150
 7295POPC   GL138329  10.477  25.261   8.850
 7295POPC   GL238330  10.595  25.354   8.850
 7295POPC   C1A38331  10.573  25.292   8.550
 7295POPC   D2A38332  10.564  25.266   8.250
 7295POPC   C3A38333  10.537  25.272   7.950
 7295POPC   C4A38334  10.493  25.307   7.650
 7295POPC   C1B38335  10.708  25.364   8.550
 7295POPC   C2B38336  10.708  25.441   8.250
 7295POPC   C3B38337  10.777  25.433   7.950
 7295POPC   C4B38338  10.734  25.460   7.650
 7296POPC   NC338339  35.315  39.210   9.450
 7296POPC   PO438340  35.347  39.245   9.150
 7296POPC   GL138341  35.391  39.217   8.850
 7296POPC   GL238342  35.480  39.130   8.850
 7296POPC   C1A38343  35.342  39.189   8.550
 7296POPC   D2A38344  35.388  39.218   8.250
 7296POPC   C3A38345  35.393  39.196   7.950
 7296POPC   C4A38346  35.391  39.260   7.650
 7296POPC   C1B38347  35.544  39.089   8.550
 7296POPC   C2B38348  35.579  39.115   8.250
 7296POPC   C3B38349  35.555  39.117   7.950
 7296POPC   C4B38350  35.559  39.040   7.650
 7297POPC   NC338351  39.981   3.515   9.450
 7297POPC   PO438352  39.995   3.531   9.150
 7297POPC   GL138353  39.975   3.548   8.850
 7297POPC   GL238354  40.126   3.426   8.850
 7297POPC   C1A38355  39.992   3.567   8.550
 7297POPC   D2A38356  39.992   3.522   8.250
 7297POPC   C3A38357  39.994   3.580   7.950
 7297POPC   C4A38358  39.998   3.556   7.650
 7297POPC   C1B38359  40.138   3.369   8.550
 7297POPC   C2B38360  40.157   3.307   8.250
 7297POPC   C3B38361  40.140   3.296   7.950
 7297POPC   C4B38362  40.195   3.333   7.650
 7298POPC   NC338363   1.189  31.450   9.450
 7298POPC   PO438364   1.228  31.425   9.150
 7298POPC   GL138365   1.220  31.494   8.850
 7298POPC   GL238366   1.312  31.499   8.850
 7298POPC   C1A38367   1.187  31.522   8.550
 7298POPC   D2A38368   1.199  31.506   8.250
 7298POPC   C3A38369   1.202  31.481   7.950
 7298POPC   C4A38370   1.179  31.486   7.650
 7298POPC   C1B38371   1.465  31.558   8.550
 7298POPC   C2B38372   1.385  31.592   8.250
 7298POPC   C3B38373   1.439  31.611   7.950
 7298POPC   C4B38374   1.443  31.595   7.650
 7299POPC   NC338375  30.740  22.113   9.450
 7299POPC   PO438376  30.726  22.137   9.150
 7299POPC   GL138377  30.647  22.127   8.850
 7299POPC   GL238378  30.582  22.142   8.850
 7299POPC   C1A38379  30.665  22.128   8.550
 7299POPC   D2A38380  30.706  22.183   8.250
 7299POPC   C3A38381  30.735  22.171   7.950
 7299POPC   C4A38382  30.709  22.118   7.650
 7299POPC   C1B38383  30.477  22.176   8.550
 7299POPC   C2B38384  30.417  22.187   8.250
 7299POPC   C3B38385  30.398  22.202   7.950
 7299POPC   C4B38386  30.403  22.123   7.650
 7300POPC   NC338387  29.170  35.388   9.450
 7300POPC   PO438388  29.106  35.391   9.150
 7300POPC   GL138389  29.112  35.399   8.850
 7300POPC   GL238390  29.207  35.481   8.850
 7300POPC   C1A38391  29.160  35.356   8.550
 7300POPC   D2A38392  29.141  35.363   8.250
 7300POPC   C3A38393  29.111  35.341   7.950
 7300POPC   C4A38394  29.162  35.393   7.650
 7300POPC   C1B38395  29.156  35.643   8.550
 7300POPC   C2B38396  29.150  35.619   8.250
 7300POPC   C3B38397  29.161  35.582   7.950
 7300POPC   C4B38398  29.212  35.555   7.650
 7301POPC   NC338399  28.403   0.456   9.450
 7301POPC   PO438400  28.332   0.481   9.150
 7301POPC   GL138401  28.355   0.470   8.850
 7301POPC   GL238402  28.288   0.428   8.850
 7301POPC   C1A38403  28.326   0.466   8.550
 7301POPC   D2A38404  28.383   0.415   8.250
 7301POPC   C3A38405  28.337   0.414   7.950
 7301POPC   C4A38406  28.379   0.479   7.650
 7301POPC   C1B38407  28.105   0.516   8.550
 7301POPC   C2B38408  28.094   0.465   8.250
 7301POPC   C3B38409  28.079   0.508   7.950
 7301POPC   C4B38410  28.101   0.499   7.650
 7302POPC   NC338411  12.041   5.100   9.450
 7302POPC   PO438412  12.077   5.130   9.150
 7302POPC   GL138413  12.062   5.083   8.850
 7302POPC   GL238414  12.141   5.002   8.850
 7302POPC   C1A38415  12.047   5.094   8.550
 7302POPC   D2A38416  12.119   5.045   8.250
 7302POPC   C3A38417  12.125   5.117   7.950
 7302POPC   C4A38418  12.070   5.097   7.650
 7302POPC   C1B38419  12.276   4.990   8.550
 7302POPC   C2B38420  12.271   5.000   8.250
 7302POPC   C3B38421  12.259   4.951   7.950
 7302POPC   C4B38422  12.247   4.964   7.650
 7303POPC   NC338423  39.255   2.736   9.450
 7303POPC   PO438424  39.193   2.716   9.150
 7303POPC   GL138425  39.188   2.775   8.850
 7303POPC   GL238426  39.378   2.714   8.850
 7303POPC   C1A38427  39.246   2.771   8.550
 7303POPC   D2A38428  39.202   2.814   8.250
 7303POPC   C3A38429  39.197   2.732   7.950
 7303POPC   C4A38430  39.199   2.723   7.650
 7303POPC   C1B38431  39.484   2.724   8.550
 7303POPC   C2B38432  39.521   2.743   8.250
 7303POPC   C3B38433  39.497   2.674   7.950
 7303POPC   C4B38434  39.464   2.715   7.650
 7304POPC   NC338435   9.720   9.723   9.450
 7304POPC   PO438436   9.745   9.705   9.150
 7304POPC   GL138437   9.731   9.797   8.850
 7304POPC   GL238438   9.709   9.622   8.850
 7304POPC   C1A38439   9.753   9.705   8.550
 7304POPC   D2A38440   9.734   9.789   8.250
 7304POPC   C3A38441   9.733   9.705   7.950
 7304POPC   C4A38442   9.788   9.757   7.650
 7304POPC   C1B38443   9.620   9.518   8.550
 7304POPC   C2B38444   9.667   9.492   8.250
 7304POPC   C3B38445   9.609   9.519   7.950
 7304POPC   C4B38446   9.672   9.533   7.650
 7305POPC   NC338447  12.082  30.687   9.450
 7305POPC   PO438448  12.042  30.720   9.150
 7305POPC   GL138449  12.063  30.684   8.850
 7305POPC   GL238450  12.114  30.837   8.850
 7305POPC   C1A38451  12.100  30.712   8.550
 7305POPC   D2A38452  12.089  30.724   8.250
 7305POPC   C3A38453  12.079  30.670   7.950
 7305POPC   C4A38454  12.039  30.728   7.650
 7305POPC   C1B38455  12.173  30.907   8.550
 7305POPC   C2B38456  12.230  30.875   8.250
 7305POPC   C3B38457  12.182  30.876   7.950
 7305POPC   C4B38458  12.222  30.912   7.650
 7306POPC   NC338459   4.279  15.175   9.450
 7306POPC   PO438460   4.360  15.214   9.150
 7306POPC   GL138461   4.339  15.141   8.850
 7306POPC   GL238462   4.473  15.229   8.850
 7306POPC   C1A38463   4.337  15.217   8.550
 7306POPC   D2A38464   4.342  15.139   8.250
 7306POPC   C3A38465   4.294  15.139   7.950
 7306POPC   C4A38466   4.268  15.131   7.650
 7306POPC   C1B38467   4.554  15.303   8.550
 7306POPC   C2B38468   4.535  15.258   8.250
 7306POPC   C3B38469   4.543  15.296   7.950
 7306POPC   C4B38470   4.541  15.258   7.650
 7307POPC   NC338471  26.849  44.651   9.450
 7307POPC   PO438472  26.790  44.664   9.150
 7307POPC   GL138473  26.828  44.628   8.850
 7307POPC   GL238474  26.684  44.565   8.850
 7307POPC   C1A38475  26.832  44.626   8.550
 7307POPC   D2A38476  26.805  44.644   8.250
 7307POPC   C3A38477  26.787  44.657   7.950
 7307POPC   C4A38478  26.789  44.706   7.650
 7307POPC   C1B38479  26.601  44.599   8.550
 7307POPC   C2B38480  26.608  44.552   8.250
 7307POPC   C3B38481  26.594  44.555   7.950
 7307POPC   C4B38482  26.573  44.596   7.650
 7308POPC   NC338483  31.465  37.670   9.450
 7308POPC   PO438484  31.426  37.646   9.150
 7308POPC   GL138485  31.426  37.634   8.850
 7308POPC   GL238486  31.366  37.631   8.850
 7308POPC   C1A38487  31.425  37.634   8.550
 7308POPC   D2A38488  31.469  37.680   8.250
 7308POPC   C3A38489  31.457  37.717   7.950
 7308POPC   C4A38490  31.426  37.699   7.650
 7308POPC   C1B38491  31.271  37.614   8.550
 7308POPC   C2B38492  31.186  37.691   8.250
 7308POPC   C3B38493  31.232  37.676   7.950
 7308POPC   C4B38494  31.240  37.697   7.650
 7309POPC   NC338495  31.453  32.222   9.450
 7309POPC   PO438496  31.521  32.219   9.150
 7309POPC   GL138497  31.503  32.264   8.850
 7309POPC   GL238498  31.478  32.079   8.850
 7309POPC   C1A38499  31.440  32.280   8.550
 7309POPC   D2A38500  31.483  32.256   8.250
 7309POPC   C3A38501  31.515  32.252   7.950
 7309POPC   C4A38502  31.488  32.296   7.650
 7309POPC   C1B38503  31.535  32.010   8.550
 7309POPC   C2B38504  31.515  31.971   8.250
 7309POPC   C3B38505  31.515  32.029   7.950
 7309POPC   C4B38506  31.526  32.015   7.650
 7310POPC   NC338507  37.649  11.309   9.450
 7310POPC   PO438508  37.711  11.278   9.150
 7310POPC   GL138509  37.717  11.329   8.850
 7310POPC   GL238510  37.819  11.234   8.850
 7310POPC   C1A38511  37.668  11.336   8.550
 7310POPC   D2A38512  37.641  11.297   8.250
 7310POPC   C3A38513  37.651  11.279   7.950
 7310POPC   C4A38514  37.696  11.317   7.650
 7310POPC   C1B38515  37.909  11.170   8.550
 7310POPC   C2B38516  37.872  11.103   8.250
 7310POPC   C3B38517  37.919  11.139   7.950
 7310POPC   C4B38518  37.903  11.182   7.650
 7311POPC   NC338519   8.213  31.521   9.450
 7311POPC   PO438520   8.167  31.427   9.150
 7311POPC   GL138521   8.198  31.515   8.850
 7311POPC   GL238522   8.099  31.443   8.850
 7311POPC   C1A38523   8.238  31.460   8.550
 7311POPC   D2A38524   8.171  31.518   8.250
 7311POPC   C3A38525   8.156  31.454   7.950
 7311POPC   C4A38526   8.185  31.499   7.650
 7311POPC   C1B38527   7.992  31.429   8.550
 7311POPC   C2B38528   7.925  31.458   8.250
 7311POPC   C3B38529   7.970  31.385   7.950
 7311POPC   C4B38530   7.981  31.474   7.650
 7312POPC   NC338531  19.030  43.063   9.450
 7312POPC   PO438532  19.016  43.136   9.150
 7312POPC   GL138533  19.098  43.158   8.850
 7312POPC   GL238534  18.994  43.167   8.850
 7312POPC   C1A38535  19.103  43.110   8.550
 7312POPC   D2A38536  19.080  43.135   8.250
 7312POPC   C3A38537  19.085  43.127   7.950
 7312POPC   C4A38538  19.092  43.078   7.650
 7312POPC   C1B38539  18.885  43.343   8.550
 7312POPC   C2B38540  18.875  43.349   8.250
 7312POPC   C3B38541  18.910  43.339   7.950
 7312POPC   C4B38542  18.945  43.303   7.650
 7313POPC   NC338543  21.420   9.728   9.450
 7313POPC   PO438544  21.388   9.773   9.150
 7313POPC   GL138545  21.345   9.713   8.850
 7313POPC   GL238546  21.325   9.628   8.850
 7313POPC   C1A38547  21.435   9.780   8.550
 7313POPC   D2A38548  21.399   9.767   8.250
 7313POPC   C3A38549  21.376   9.739   7.950
 7313POPC   C4A38550  21.364   9.733   7.650
 7313POPC   C1B38551  21.244   9.486   8.550
 7313POPC   C2B38552  21.269   9.509   8.250
 7313POPC   C3B38553  21.263   9.507   7.950
 7313POPC   C4B38554  21.214   9.533   7.650
 7314POPC   NC338555  26.011   2.807   9.450
 7314POPC   PO438556  26.039   2.792   9.150
 7314POPC   GL138557  26.050   2.738   8.850
 7314POPC   GL238558  25.973   2.814   8.850
 7314POPC   C1A38559  26.076   2.789   8.550
 7314POPC   D2A38560  26.075   2.722   8.250
 7314POPC   C3A38561  26.018   2.736   7.950
 7314POPC   C4A38562  26.012   2.771   7.650
 7314POPC   C1B38563  25.847   2.880   8.550
 7314POPC   C2B38564  25.813   2.863   8.250
 7314POPC   C3B38565  25.839   2.858   7.950
 7314POPC   C4B38566  25.839   2.849   7.650
 7315POPC   NC338567  34.586  15.195   9.450
 7315POPC   PO438568  34.622  15.215   9.150
 7315POPC   GL138569  34.626  15.183   8.850
 7315POPC   GL238570  34.737  15.138   8.850
 7315POPC   C1A38571  34.590  15.131   8.550
 7315POPC   D2A38572  34.563  15.160   8.250
 7315POPC   C3A38573  34.604  15.153   7.950
 7315POPC   C4A38574  34.612  15.157   7.650
 7315POPC   C1B38575  34.871  15.174   8.550
 7315POPC   C2B38576  34.777  15.138   8.250
 7315POPC   C3B38577  34.795  15.182   7.950
 7315POPC   C4B38578  34.825  15.158   7.650
 7316POPC   NC338579  41.601  36.924   9.450
 7316POPC   PO438580  41.539  36.916   9.150
 7316POPC   GL138581  41.560  36.878   8.850
 7316POPC   GL238582  41.586  36.974   8.850
 7316POPC   C1A38583  41.590  36.941   8.550
 7316POPC   D2A38584  41.513  36.881   8.250
 7316POPC   C3A38585  41.515  36.898   7.950
 7316POPC   C4A38586  41.555  36.854   7.650
 7316POPC   C1B38587  41.643  37.174   8.550
 7316POPC   C2B38588  41.661  37.098   8.250
 7316POPC   C3B38589  41.639  37.108   7.950
 7316POPC   C4B38590  41.704  37.099   7.650
 7317POPC   NC338591  33.002   3.545   9.450
 7317POPC   PO438592  33.003   3.566   9.150
 7317POPC   GL138593  33.040   3.533   8.850
 7317POPC   GL238594  33.092   3.603   8.850
 7317POPC   C1A38595  32.989   3.557   8.550
 7317POPC   D2A38596  33.021   3.555   8.250
 7317POPC   C3A38597  32.979   3.506   7.950
 7317POPC   C4A38598  33.028   3.574   7.650
 7317POPC   C1B38599  33.232   3.702   8.550
 7317POPC   C2B38600  33.172   3.717   8.250
 7317POPC   C3B38601  33.247   3.690   7.950
 7317POPC   C4B38602  33.251   3.691   7.650
 7318POPC   NC338603   5.057   3.579   9.450
 7318POPC   PO438604   5.136   3.585   9.150
 7318POPC   GL138605   5.072   3.499   8.850
 7318POPC   GL238606   5.078   3.709   8.850
 7318POPC   C1A38607   5.114   3.575   8.550
 7318POPC   D2A38608   5.110   3.584   8.250
 7318POPC   C3A38609   5.057   3.530   7.950
 7318POPC   C4A38610   5.096   3.540   7.650
 7318POPC   C1B38611   5.036   3.819   8.550
 7318POPC   C2B38612   5.025   3.816   8.250
 7318POPC   C3B38613   4.994   3.797   7.950
 7318POPC   C4B38614   5.036   3.822   7.650
 7319POPC   NC338615  17.556   5.066   9.450
 7319POPC   PO438616  17.504   5.067   9.150
 7319POPC   GL138617  17.536   5.043   8.850
 7319POPC   GL238618  17.570   4.991   8.850
 7319POPC   C1A38619  17.503   5.091   8.550
 7319POPC   D2A38620  17.478   5.086   8.250
 7319POPC   C3A38621  17.469   5.056   7.950
 7319POPC   C4A38622  17.479   5.051   7.650
 7319POPC   C1B38623  17.759   4.953   8.550
 7319POPC   C2B38624  17.702   4.948   8.250
 7319POPC   C3B38625  17.732   4.911   7.950
 7319POPC   C4B38626  17.677   4.911   7.650
 7320POPC   NC338627   2.006  11.324   9.450
 7320POPC   PO438628   2.039  11.340   9.150
 7320POPC   GL138629   2.037  11.262   8.850
 7320POPC   GL238630   1.950  11.182   8.850
 7320POPC   C1A38631   1.974  11.320   8.550
 7320POPC   D2A38632   2.018  11.321   8.250
 7320POPC   C3A38633   2.030  11.270   7.950
 7320POPC   C4A38634   2.008  11.319   7.650
 7320POPC   C1B38635   1.821  11.080   8.550
 7320POPC   C2B38636   1.873  11.042   8.250
 7320POPC   C3B38637   1.837  11.037   7.950
 7320POPC   C4B38638   1.883  11.052   7.650
 7321POPC   NC338639  29.957  11.293   9.450
 7321POPC   PO438640  29.929  11.275   9.150
 7321POPC   GL138641  29.907  11.289   8.850
 7321POPC   GL238642  29.826  11.252   8.850
 7321POPC   C1A38643  29.941  11.275   8.550
 7321POPC   D2A38644  29.899  11.305   8.250
 7321POPC   C3A38645  29.876  11.296   7.950
 7321POPC   C4A38646  29.932  11.271   7.650
 7321POPC   C1B38647  29.703  11.178   8.550
 7321POPC   C2B38648  29.750  11.113   8.250
 7321POPC   C3B38649  29.729  11.079   7.950
 7321POPC   C4B38650  29.780  11.109   7.650
 7322POPC   NC338651  14.401  36.874   9.450
 7322POPC   PO438652  14.377  36.907   9.150
 7322POPC   GL138653  14.373  36.922   8.850
 7322POPC   GL238654  14.520  36.800   8.850
 7322POPC   C1A38655  14.447  36.899   8.550
 7322POPC   D2A38656  14.423  36.884   8.250
 7322POPC   C3A38657  14.434  36.872   7.950
 7322POPC   C4A38658  14.381  36.858   7.650
 7322POPC   C1B38659  14.632  36.723   8.550
 7322POPC   C2B38660  14.558  36.730   8.250
 7322POPC   C3B38661  14.597  36.755   7.950
 7322POPC   C4B38662  14.573  36.698   7.650
 7323POPC   NC338663   9.705  36.137   9.450
 7323POPC   PO438664   9.771  36.137   9.150
 7323POPC   GL138665   9.719  36.138   8.850
 7323POPC   GL238666   9.760  36.228   8.850
 7323POPC   C1A38667   9.761  36.151   8.550
 7323POPC   D2A38668   9.736  36.114   8.250
 7323POPC   C3A38669   9.716  36.080   7.950
 7323POPC   C4A38670   9.709  36.121   7.650
 7323POPC   C1B38671   9.882  36.331   8.550
 7323POPC   C2B38672   9.877  36.380   8.250
 7323POPC   C3B38673   9.888  36.341   7.950
 7323POPC   C4B38674   9.881  36.316   7.650
 7324POPC   NC338675  36.128  37.657   9.450
 7324POPC   PO438676  36.146  37.712   9.150
 7324POPC   GL138677  36.095  37.712   8.850
 7324POPC   GL238678  35.968  37.678   8.850
 7324POPC   C1A38679  36.141  37.722   8.550
 7324POPC   D2A38680  36.170  37.670   8.250
 7324POPC   C3A38681  36.080  37.643   7.950
 7324POPC   C4A38682  36.088  37.642   7.650
 7324POPC   C1B38683  35.866  37.625   8.550
 7324POPC   C2B38684  35.875  37.591   8.250
 7324POPC   C3B38685  35.881  37.585   7.950
 7324POPC   C4B38686  35.908  37.583   7.650
 7325POPC   NC338687  36.911  44.613   9.450
 7325POPC   PO438688  36.859  44.694   9.150
 7325POPC   GL138689  36.863  44.633   8.850
 7325POPC   GL238690  36.850  44.793   8.850
 7325POPC   C1A38691  36.870  44.628   8.550
 7325POPC   D2A38692  36.908  44.705   8.250
 7325POPC   C3A38693  36.856  44.615   7.950
 7325POPC   C4A38694  36.864  44.669   7.650
 7325POPC   C1B38695  36.787  44.910   8.550
 7325POPC   C2B38696  36.748  44.853   8.250
 7325POPC   C3B38697  36.778  44.822   7.950
 7325POPC   C4B38698  36.789  44.864   7.650
 7326POPC   NC338699  35.401  24.512   9.450
 7326POPC   PO438700  35.303  24.456   9.150
 7326POPC   GL138701  35.399  24.481   8.850
 7326POPC   GL238702  35.219  24.493   8.850
 7326POPC   C1A38703  35.310  24.498   8.550
 7326POPC   D2A38704  35.358  24.513   8.250
 7326POPC   C3A38705  35.387  24.497   7.950
 7326POPC   C4A38706  35.388  24.538   7.650
 7326POPC   C1B38707  35.121  24.482   8.550
 7326POPC   C2B38708  35.064  24.488   8.250
 7326POPC   C3B38709  35.148  24.486   7.950
 7326POPC   C4B38710  35.074  24.511   7.650
 7327POPC   NC338711  40.747  35.360   9.450
 7327POPC   PO438712  40.824  35.355   9.150
 7327POPC   GL138713  40.829  35.340   8.850
 7327POPC   GL238714  40.868  35.280   8.850
 7327POPC   C1A38715  40.829  35.315   8.550
 7327POPC   D2A38716  40.746  35.379   8.250
 7327POPC   C3A38717  40.823  35.391   7.950
 7327POPC   C4A38718  40.756  35.346   7.650
 7327POPC   C1B38719  40.952  35.164   8.550
 7327POPC   C2B38720  40.925  35.183   8.250
 7327POPC   C3B38721  40.924  35.141   7.950
 7327POPC   C4B38722  40.982  35.174   7.650
 7328POPC   NC338723  32.255  29.119   9.450
 7328POPC   PO438724  32.204  29.101   9.150
 7328POPC   GL138725  32.259  29.117   8.850
 7328POPC   GL238726  32.243  28.986   8.850
 7328POPC   C1A38727  32.210  29.109   8.550
 7328POPC   D2A38728  32.294  29.128   8.250
 7328POPC   C3A38729  32.206  29.138   7.950
 7328POPC   C4A38730  32.224  29.149   7.650
 7328POPC   C1B38731  32.231  28.890   8.550
 7328POPC   C2B38732  32.167  28.872   8.250
 7328POPC   C3B38733  32.211  28.944   7.950
 7328POPC   C4B38734  32.205  28.904   7.650
 7329POPC   NC338735   3.509  15.152   9.450
 7329POPC   PO438736   3.510  15.171   9.150
 7329POPC   GL138737   3.531  15.143   8.850
 7329POPC   GL238738   3.665  15.315   8.850
 7329POPC   C1A38739   3.507  15.193   8.550
 7329POPC   D2A38740   3.570  15.227   8.250
 7329POPC   C3A38741   3.586  15.136   7.950
 7329POPC   C4A38742   3.492  15.222   7.650
 7329POPC   C1B38743   3.643  15.396   8.550
 7329POPC   C2B38744   3.734  15.368   8.250
 7329POPC   C3B38745   3.690  15.428   7.950
 7329POPC   C4B38746   3.730  15.412   7.650
 7330POPC   NC338747  12.858  31.478   9.450
 7330POPC   PO438748  12.818  31.519   9.150
 7330POPC   GL138749  12.830  31.460   8.850
 7330POPC   GL238750  12.731  31.430   8.850
 7330POPC   C1A38751  12.878  31.495   8.550
 7330POPC   D2A38752  12.838  31.510   8.250
 7330POPC   C3A38753  12.821  31.499   7.950
 7330POPC   C4A38754  12.868  31.470   7.650
 7330POPC   C1B38755  12.638  31.381   8.550
 7330POPC   C2B38756  12.574  31.412   8.250
 7330POPC   C3B38757  12.593  31.402   7.950
 7330POPC   C4B38758  12.613  31.406   7.650
 7331POPC   NC338759  19.056  37.650   9.450
 7331POPC   PO438760  19.091  37.658   9.150
 7331POPC   GL138761  19.020  37.665   8.850
 7331POPC   GL238762  19.142  37.661   8.850
 7331POPC   C1A38763  19.072  37.693   8.550
 7331POPC   D2A38764  19.047  37.679   8.250
 7331POPC   C3A38765  19.062  37.688   7.950
 7331POPC   C4A38766  19.016  37.685   7.650
 7331POPC   C1B38767  19.319  37.517   8.550
 7331POPC   C2B38768  19.319  37.576   8.250
 7331POPC   C3B38769  19.306  37.530   7.950
 7331POPC   C4B38770  19.282  37.600   7.650
 7332POPC   NC338771   8.952  12.087   9.450
 7332POPC   PO438772   9.009  12.067   9.150
 7332POPC   GL138773   8.991  12.123   8.850
 7332POPC   GL238774   9.024  12.149   8.850
 7332POPC   C1A38775   8.936  12.027   8.550
 7332POPC   D2A38776   8.923  12.067   8.250
 7332POPC   C3A38777   9.019  12.041   7.950
 7332POPC   C4A38778   9.006  12.033   7.650
 7332POPC   C1B38779   9.126  12.310   8.550
 7332POPC   C2B38780   9.136  12.281   8.250
 7332POPC   C3B38781   9.153  12.327   7.950
 7332POPC   C4B38782   9.070  12.310   7.650
 7333POPC   NC338783  17.475  29.169   9.450
 7333POPC   PO438784  17.532  29.176   9.150
 7333POPC   GL138785  17.542  29.134   8.850
 7333POPC   GL238786  17.587  29.164   8.850
 7333POPC   C1A38787  17.500  29.154   8.550
 7333POPC   D2A38788  17.475  29.141   8.250
 7333POPC   C3A38789  17.521  29.129   7.950
 7333POPC   C4A38790  17.466  29.149   7.650
 7333POPC   C1B38791  17.708  29.261   8.550
 7333POPC   C2B38792  17.768  29.257   8.250
 7333POPC   C3B38793  17.706  29.241   7.950
 7333POPC   C4B38794  17.690  29.271   7.650
 7334POPC   NC338795  43.113  31.448   9.450
 7334POPC   PO438796  43.133  31.465   9.150
 7334POPC   GL138797  43.151  31.428   8.850
 7334POPC   GL238798  43.249  31.411   8.850
 7334POPC   C1A38799  43.106  31.505   8.550
 7334POPC   D2A38800  43.138  31.481   8.250
 7334POPC   C3A38801  43.149  31.488   7.950
 7334POPC   C4A38802  43.102  31.444   7.650
 7334POPC   C1B38803  43.337  31.378   8.550
 7334POPC   C2B38804  43.401  31.390   8.250
 7334POPC   C3B38805  43.328  31.376   7.950
 7334POPC   C4B38806  43.384  31.389   7.650
 7335POPC   NC338807   1.993  23.762   9.450
 7335POPC   PO438808   1.944  23.701   9.150
 7335POPC   GL138809   2.038  23.734   8.850
 7335POPC   GL238810   2.071  23.621   8.850
 7335POPC   C1A38811   1.957  23.735   8.550
 7335POPC   D2A38812   1.968  23.671   8.250
 7335POPC   C3A38813   2.009  23.761   7.950
 7335POPC   C4A38814   1.965  23.764   7.650
 7335POPC   C1B38815   2.191  23.606   8.550
 7335POPC   C2B38816   2.248  23.559   8.250
 7335POPC   C3B38817   2.200  23.558   7.950
 7335POPC   C4B38818   2.236  23.570   7.650
 7336POPC   NC338819  34.598   3.517   9.450
 7336POPC   PO438820  34.547   3.563   9.150
 7336POPC   GL138821  34.585   3.534   8.850
 7336POPC   GL238822  34.697   3.627   8.850
 7336POPC   C1A38823  34.572   3.508   8.550
 7336POPC   D2A38824  34.605   3.555   8.250
 7336POPC   C3A38825  34.555   3.535   7.950
 7336POPC   C4A38826  34.582   3.525   7.650
 7336POPC   C1B38827  34.823   3.644   8.550
 7336POPC   C2B38828  34.816   3.675   8.250
 7336POPC   C3B38829  34.776   3.662   7.950
 7336POPC   C4B38830  34.806   3.662   7.650
 7337POPC   NC338831  30.692   9.777   9.450
 7337POPC   PO438832  30.720   9.796   9.150
 7337POPC   GL138833  30.721   9.746   8.850
 7337POPC   GL238834  30.622   9.881   8.850
 7337POPC   C1A38835  30.678   9.699   8.550
 7337POPC   D2A38836  30.740   9.719   8.250
 7337POPC   C3A38837  30.686   9.763   7.950
 7337POPC   C4A38838  30.675   9.792   7.650
 7337POPC   C1B38839  30.534   9.973   8.550
 7337POPC   C2B38840  30.561   9.978   8.250
 7337POPC   C3B38841  30.616   9.928   7.950
 7337POPC   C4B38842  30.572  10.016   7.650
 7338POPC   NC338843  20.622  29.898   9.450
 7338POPC   PO438844  20.607  29.963   9.150
 7338POPC   GL138845  20.582  29.877   8.850
 7338POPC   GL238846  20.550  30.030   8.850
 7338POPC   C1A38847  20.574  29.910   8.550
 7338POPC   D2A38848  20.563  29.909   8.250
 7338POPC   C3A38849  20.619  29.896   7.950
 7338POPC   C4A38850  20.579  29.967   7.650
 7338POPC   C1B38851  20.443  30.128   8.550
 7338POPC   C2B38852  20.382  30.087   8.250
 7338POPC   C3B38853  20.404  30.103   7.950
 7338POPC   C4B38854  20.440  30.069   7.650
 7339POPC   NC338855  43.888  33.825   9.450
 7339POPC   PO438856  43.927  33.839   9.150
 7339POPC   GL138857  43.889  33.759   8.850
 7339POPC   GL238858  44.041  33.862   8.850
 7339POPC   C1A38859  43.897  33.768   8.550
 7339POPC   D2A38860  43.898  33.807   8.250
 7339POPC   C3A38861  43.879  33.827   7.950
 7339POPC   C4A38862  43.871  33.845   7.650
 7339POPC   C1B38863  44.172  33.835   8.550
 7339POPC   C2B38864  44.143  33.854   8.250
 7339POPC   C3B38865  44.165  33.800   7.950
 7339POPC   C4B38866  44.130  33.880   7.650
 7340POPC   NC338867  32.231  21.380   9.450
 7340POPC   PO438868  32.259  21.436   9.150
 7340POPC   GL138869  32.288  21.339   8.850
 7340POPC   GL238870  32.182  21.284   8.850
 7340POPC   C1A38871  32.230  21.351   8.550
 7340POPC   D2A38872  32.252  21.377   8.250
 7340POPC   C3A38873  32.289  21.436   7.950
 7340POPC   C4A38874  32.297  21.436   7.650
 7340POPC   C1B38875  31.988  21.291   8.550
 7340POPC   C2B38876  32.023  21.264   8.250
 7340POPC   C3B38877  31.995  21.257   7.950
 7340POPC   C4B38878  32.019  21.247   7.650
 7341POPC   NC338879  34.549  36.938   9.450
 7341POPC   PO438880  34.538  36.892   9.150
 7341POPC   GL138881  34.543  36.871   8.850
 7341POPC   GL238882  34.660  37.054   8.850
 7341POPC   C1A38883  34.534  36.949   8.550
 7341POPC   D2A38884  34.573  36.890   8.250
 7341POPC   C3A38885  34.551  36.902   7.950
 7341POPC   C4A38886  34.573  36.883   7.650
 7341POPC   C1B38887  34.687  37.106   8.550
 7341POPC   C2B38888  34.670  37.121   8.250
 7341POPC   C3B38889  34.651  37.140   7.950
 7341POPC   C4B38890  34.653  37.093   7.650
 7342POPC   NC338891  33.754   9.723   9.450
 7342POPC   PO438892  33.835   9.753   9.150
 7342POPC   GL138893  33.838   9.718   8.850
 7342POPC   GL238894  33.631   9.779   8.850
 7342POPC   C1A38895  33.818   9.739   8.550
 7342POPC   D2A38896  33.847   9.776   8.250
 7342POPC   C3A38897  33.797   9.778   7.950
 7342POPC   C4A38898  33.809   9.762   7.650
 7342POPC   C1B38899  33.542   9.705   8.550
 7342POPC   C2B38900  33.538   9.741   8.250
 7342POPC   C3B38901  33.575   9.719   7.950
 7342POPC   C4B38902  33.564   9.717   7.650
 7343POPC   NC338903  18.301  40.756   9.450
 7343POPC   PO438904  18.270  40.831   9.150
 7343POPC   GL138905  18.319  40.818   8.850
 7343POPC   GL238906  18.327  40.674   8.850
 7343POPC   C1A38907  18.288  40.774   8.550
 7343POPC   D2A38908  18.326  40.833   8.250
 7343POPC   C3A38909  18.283  40.786   7.950
 7343POPC   C4A38910  18.312  40.796   7.650
 7343POPC   C1B38911  18.417  40.598   8.550
 7343POPC   C2B38912  18.463  40.624   8.250
 7343POPC   C3B38913  18.463  40.563   7.950
 7343POPC   C4B38914  18.453  40.564   7.650
 7344POPC   NC338915  41.555  26.083   9.450
 7344POPC   PO438916  41.602  26.066   9.150
 7344POPC   GL138917  41.527  26.047   8.850
 7344POPC   GL238918  41.579  26.192   8.850
 7344POPC   C1A38919  41.532  26.039   8.550
 7344POPC   D2A38920  41.535  26.052   8.250
 7344POPC   C3A38921  41.517  26.047   7.950
 7344POPC   C4A38922  41.574  26.026   7.650
 7344POPC   C1B38923  41.529  26.260   8.550
 7344POPC   C2B38924  41.526  26.320   8.250
 7344POPC   C3B38925  41.589  26.259   7.950
 7344POPC   C4B38926  41.570  26.284   7.650
 7345POPC   NC338927  17.526  15.164   9.450
 7345POPC   PO438928  17.469  15.165   9.150
 7345POPC   GL138929  17.513  15.168   8.850
 7345POPC   GL238930  17.603  15.251   8.850
 7345POPC   C1A38931  17.528  15.225   8.550
 7345POPC   D2A38932  17.478  15.165   8.250
 7345POPC   C3A38933  17.510  15.227   7.950
 7345POPC   C4A38934  17.483  15.155   7.650
 7345POPC   C1B38935  17.741  15.316   8.550
 7345POPC   C2B38936  17.771  15.312   8.250
 7345POPC   C3B38937  17.742  15.309   7.950
 7345POPC   C4B38938  17.687  15.273   7.650
 7346POPC   NC338939  39.962  41.543   9.450
 7346POPC   PO438940  40.003  41.517   9.150
 7346POPC   GL138941  40.052  41.588   8.850
 7346POPC   GL238942  39.885  41.469   8.850
 7346POPC   C1A38943  40.000  41.530   8.550
 7346POPC   D2A38944  39.985  41.516   8.250
 7346POPC   C3A38945  39.988  41.591   7.950
 7346POPC   C4A38946  39.968  41.570   7.650
 7346POPC   C1B38947  39.771  41.436   8.550
 7346POPC   C2B38948  39.819  41.450   8.250
 7346POPC   C3B38949  39.753  41.480   7.950
 7346POPC   C4B38950  39.767  41.494   7.650
 7347POPC   NC338951  29.928   8.978   9.450
 7347POPC   PO438952  29.909   8.961   9.150
 7347POPC   GL138953  29.944   8.926   8.850
 7347POPC   GL238954  29.988   8.889   8.850
 7347POPC   C1A38955  29.933   8.966   8.550
 7347POPC   D2A38956  29.929   8.940   8.250
 7347POPC   C3A38957  29.933   8.950   7.950
 7347POPC   C4A38958  29.889   8.986   7.650
 7347POPC   C1B38959  30.093   8.773   8.550
 7347POPC   C2B38960  30.030   8.770   8.250
 7347POPC   C3B38961  30.095   8.793   7.950
 7347POPC   C4B38962  30.053   8.735   7.650
 7348POPC   NC338963  31.423   0.446   9.450
 7348POPC   PO438964  31.449   0.447   9.150
 7348POPC   GL138965  31.520   0.479   8.850
 7348POPC   GL238966  31.412   0.588   8.850
 7348POPC   C1A38967  31.432   0.423   8.550
 7348POPC   D2A38968  31.511   0.474   8.250
 7348POPC   C3A38969  31.433   0.434   7.950
 7348POPC   C4A38970  31.492   0.426   7.650
 7348POPC   C1B38971  31.357   0.703   8.550
 7348POPC   C2B38972  31.321   0.633   8.250
 7348POPC   C3B38973  31.351   0.640   7.950
 7348POPC   C4B38974  31.365   0.669   7.650
 7349POPC   NC338975   4.362  21.396   9.450
 7349POPC   PO438976   4.340  21.436   9.150
 7349POPC   GL138977   4.274  21.382   8.850
 7349POPC   GL238978   4.198  21.369   8.850
 7349POPC   C1A38979   4.337  21.401   8.550
 7349POPC   D2A38980   4.334  21.435   8.250
 7349POPC   C3A38981   4.275  21.426   7.950
 7349POPC   C4A38982   4.268  21.388   7.650
 7349POPC   C1B38983   4.058  21.258   8.550
 7349POPC   C2B38984   4.133  21.306   8.250
 7349POPC   C3B38985   4.116  21.258   7.950
 7349POPC   C4B38986   4.064  21.268   7.650
 7350POPC   NC338987   1.970  16.712   9.450
 7350POPC   PO438988   2.018  16.699   9.150
 7350POPC   GL138989   1.990  16.701   8.850
 7350POPC   GL238990   2.027  16.598   8.850
 7350POPC   C1A38991   1.998  16.703   8.550
 7350POPC   D2A38992   1.978  16.689   8.250
 7350POPC   C3A38993   2.002  16.725   7.950
 7350POPC   C4A38994   1.992  16.688   7.650
 7350POPC   C1B38995   1.968  16.500   8.550
 7350POPC   C2B38996   2.016  16.471   8.250
 7350POPC   C3B38997   2.024  16.482   7.950
 7350POPC   C4B38998   1.997  16.452   7.650
 7351POPC   NC338999  36.889  37.678   9.450
 7351POPC   PO439000  36.889  37.643   9.150
 7351POPC   GL139001  36.918  37.695   8.850
 7351POPC   GL239002  36.753  37.750   8.850
 7351POPC   C1A39003  36.888  37.684   8.550
 7351POPC   D2A39004  36.942  37.652   8.250
 7351POPC   C3A39005  36.866  37.710   7.950
 7351POPC   C4A39006  36.900  37.683   7.650
 7351POPC   C1B39007  36.668  37.766   8.550
 7351POPC   C2B39008  36.665  37.759   8.250
 7351POPC   C3B39009  36.646  37.778   7.950
 7351POPC   C4B39010  36.713  37.808   7.650
 7352POPC   NC339011  39.236   3.518   9.450
 7352POPC   PO439012  39.198   3.528   9.150
 7352POPC   GL139013  39.259   3.573   8.850
 7352POPC   GL239014  39.271   3.621   8.850
 7352POPC   C1A39015  39.221   3.542   8.550
 7352POPC   D2A39016  39.197   3.552   8.250
 7352POPC   C3A39017  39.254   3.581   7.950
 7352POPC   C4A39018  39.267   3.513   7.650
 7352POPC   C1B39019  39.391   3.757   8.550
 7352POPC   C2B39020  39.425   3.700   8.250
 7352POPC   C3B39021  39.365   3.761   7.950
 7352POPC   C4B39022  39.384   3.705   7.650
 7353POPC   NC339023  24.474  23.672   9.450
 7353POPC   PO439024  24.449  23.757   9.150
 7353POPC   GL139025  24.516  23.734   8.850
 7353POPC   GL239026  24.619  23.722   8.850
 7353POPC   C1A39027  24.528  23.712   8.550
 7353POPC   D2A39028  24.454  23.762   8.250
 7353POPC   C3A39029  24.470  23.736   7.950
 7353POPC   C4A39030  24.518  23.701   7.650
 7353POPC   C1B39031  24.687  23.807   8.550
 7353POPC   C2B39032  24.740  23.788   8.250
 7353POPC   C3B39033  24.706  23.772   7.950
 7353POPC   C4B39034  24.772  23.795   7.650
 7354POPC   NC339035  16.759   2.788   9.450
 7354POPC   PO439036  16.731   2.734   9.150
 7354POPC   GL139037  16.741   2.730   8.850
 7354POPC   GL239038  16.643   2.913   8.850
 7354POPC   C1A39039  16.736   2.731   8.550
 7354POPC   D2A39040  16.717   2.790   8.250
 7354POPC   C3A39041  16.708   2.739   7.950
 7354POPC   C4A39042  16.743   2.759   7.650
 7354POPC   C1B39043  16.621   2.965   8.550
 7354POPC   C2B39044  16.586   2.964   8.250
 7354POPC   C3B39045  16.634   3.025   7.950
 7354POPC   C4B39046  16.634   2.976   7.650
 7355POPC   NC339047  38.498  23.700   9.450
 7355POPC   PO439048  38.447  23.723   9.150
 7355POPC   GL139049  38.406  23.665   8.850
 7355POPC   GL239050  38.531  23.630   8.850
 7355POPC   C1A39051  38.489  23.731   8.550
 7355POPC   D2A39052  38.490  23.673   8.250
 7355POPC   C3A39053  38.503  23.741   7.950
 7355POPC   C4A39054  38.424  23.759   7.650
 7355POPC   C1B39055  38.701  23.647   8.550
 7355POPC   C2B39056  38.683  23.667   8.250
 7355POPC   C3B39057  38.637  23.614   7.950
 7355POPC   C4B39058  38.663  23.571   7.650
 7356POPC   NC339059  44.625   0.475   9.450
 7356POPC   PO439060  44.615   0.395   9.150
 7356POPC   GL139061  44.709   0.411   8.850
 7356POPC   GL239062  44.717   0.338   8.850
 7356POPC   C1A39063  44.695   0.430   8.550
 7356POPC   D2A39064  44.635   0.398   8.250
 7356POPC   C3A39065  44.661   0.414   7.950
 7356POPC   C4A39066  44.659   0.395   7.650
 7356POPC   C1B39067  44.766   0.155   8.550
 7356POPC   C2B39068  44.763   0.220   8.250
 7356POPC   C3B39069  44.715   0.188   7.950
 7356POPC   C4B39070  44.767   0.232   7.650
 7357POPC   NC339071  12.831  42.303   9.450
 7357POPC   PO439072  12.839  42.307   9.150
 7357POPC   GL139073  12.875  42.298   8.850
 7357POPC   GL239074  12.794  42.208   8.850
 7357POPC   C1A39075  12.804  42.364   8.550
 7357POPC   D2A39076  12.848  42.286   8.250
 7357POPC   C3A39077  12.901  42.366   7.950
 7357POPC   C4A39078  12.860  42.337   7.650
 7357POPC   C1B39079  12.772  42.069   8.550
 7357POPC   C2B39080  12.774  42.065   8.250
 7357POPC   C3B39081  12.808  42.075   7.950
 7357POPC   C4B39082  12.745  42.135   7.650
 7358POPC   NC339083  21.393  27.636   5.550
 7358POPC   PO439084  21.352  27.564   5.850
 7358POPC   GL139085  21.346  27.575   6.150
 7358POPC   GL239086  21.370  27.513   6.150
 7358POPC   C1A39087  21.423  27.585   6.450
 7358POPC   D2A39088  21.401  27.558   6.750
 7358POPC   C3A39089  21.421  27.628   7.050
 7358POPC   C4A39090  21.411  27.631   7.350
 7358POPC   C1B39091  21.445  27.343   6.450
 7358POPC   C2B39092  21.446  27.305   6.750
 7358POPC   C3B39093  21.357  27.304   7.050
 7358POPC   C4B39094  21.376  27.323   7.350
 7359POPC   NC339095  34.624  43.861   5.550
 7359POPC   PO439096  34.576  43.914   5.850
 7359POPC   GL139097  34.596  43.848   6.150
 7359POPC   GL239098  34.662  43.831   6.150
 7359POPC   C1A39099  34.539  43.890   6.450
 7359POPC   D2A39100  34.552  43.866   6.750
 7359POPC   C3A39101  34.621  43.912   7.050
 7359POPC   C4A39102  34.604  43.924   7.350
 7359POPC   C1B39103  34.799  43.786   6.450
 7359POPC   C2B39104  34.862  43.833   6.750
 7359POPC   C3B39105  34.862  43.767   7.050
 7359POPC   C4B39106  34.846  43.801   7.350
 7360POPC   NC339107  23.717  16.749   5.550
 7360POPC   PO439108  23.731  16.777   5.850
 7360POPC   GL139109  23.682  16.711   6.150
 7360POPC   GL239110  23.630  16.702   6.150
 7360POPC   C1A39111  23.706  16.760   6.450
 7360POPC   D2A39112  23.710  16.745   6.750
 7360POPC   C3A39113  23.751  16.713   7.050
 7360POPC   C4A39114  23.689  16.732   7.350
 7360POPC   C1B39115  23.427  16.615   6.450
 7360POPC   C2B39116  23.432  16.646   6.750
 7360POPC   C3B39117  23.450  16.696   7.050
 7360POPC   C4B39118  23.440  16.647   7.350
 7361POPC   NC339119  35.348  23.762   5.550
 7361POPC   PO439120  35.371  23.721   5.850
 7361POPC   GL139121  35.345  23.731   6.150
 7361POPC   GL239122  35.350  23.822   6.150
 7361POPC   C1A39123  35.336  23.665   6.450
 7361POPC   D2A39124  35.324  23.676   6.750
 7361POPC   C3A39125  35.319  23.666   7.050
 7361POPC   C4A39126  35.386  23.727   7.350
 7361POPC   C1B39127  35.362  23.996   6.450
 7361POPC   C2B39128  35.356  23.950   6.750
 7361POPC   C3B39129  35.424  23.935   7.050
 7361POPC   C4B39130  35.383  23.994   7.350
 7362POPC   NC339131  41.539  39.194   5.550
 7362POPC   PO439132  41.525  39.210   5.850
 7362POPC   GL139133  41.571  39.265   6.150
 7362POPC   GL239134  41.436  39.119   6.150
 7362POPC   C1A39135  41.600  39.269   6.450
 7362POPC   D2A39136  41.597  39.208   6.750
 7362POPC   C3A39137  41.517  39.184   7.050
 7362POPC   C4A39138  41.576  39.205   7.350
 7362POPC   C1B39139  41.361  39.058   6.450
 7362POPC   C2B39140  41.333  39.033   6.750
 7362POPC   C3B39141  41.323  39.101   7.050
 7362POPC   C4B39142  41.322  39.097   7.350
 7363POPC   NC339143   2.002   8.979   5.550
 7363POPC   PO439144   1.997   8.939   5.850
 7363POPC   GL139145   2.023   8.991   6.150
 7363POPC   GL239146   2.087   8.957   6.150
 7363POPC   C1A39147   2.001   8.998   6.450
 7363POPC   D2A39148   1.954   8.991   6.750
 7363POPC   C3A39149   1.949   8.998   7.050
 7363POPC   C4A39150   1.978   8.987   7.350
 7363POPC   C1B39151   2.199   8.969   6.450
 7363POPC   C2B39152   2.277   8.975   6.750
 7363POPC   C3B39153   2.260   8.977   7.050
 7363POPC   C4B39154   2.209   9.017   7.350
 7364POPC   NC339155  41.526  42.323   5.550
 7364POPC   PO439156  41.562  42.325   5.850
 7364POPC   GL139157  41.513  42.332   6.150
 7364POPC   GL239158  41.680  42.310   6.150
 7364POPC   C1A39159  41.530  42.376   6.450
 7364POPC   D2A39160  41.600  42.334   6.750
 7364POPC   C3A39161  41.554  42.362   7.050
 7364POPC   C4A39162  41.603  42.342   7.350
 7364POPC   C1B39163  41.829  42.350   6.450
 7364POPC   C2B39164  41.856  42.297   6.750
 7364POPC   C3B39165  41.797  42.323   7.050
 7364POPC   C4B39166  41.770  42.274   7.350
 7365POPC   NC339167  40.051  11.267   5.550
 7365POPC   PO439168  39.957  11.334   5.850
 7365POPC   GL139169  40.034  11.332   6.150
 7365POPC   GL239170  40.098  11.312   6.150
 7365POPC   C1A39171  40.004  11.290   6.450
 7365POPC   D2A39172  40.017  11.290   6.750
 7365POPC   C3A39173  40.053  11.280   7.050
 7365POPC   C4A39174  40.029  11.333   7.350
 7365POPC   C1B39175  40.281  11.257   6.450
 7365POPC   C2B39176  40.258  11.240   6.750
 7365POPC   C3B39177  40.287  11.236   7.050
 7365POPC   C4B39178  40.282  11.249   7.350
 7366POPC   NC339179   9.704  22.209   5.550
 7366POPC   PO439180   9.713  22.187   5.850
 7366POPC   GL139181   9.705  22.134   6.150
 7366POPC   GL239182   9.822  22.144   6.150
 7366POPC   C1A39183   9.744  22.207   6.450
 7366POPC   D2A39184   9.744  22.132   6.750
 7366POPC   C3A39185   9.740  22.152   7.050
 7366POPC   C4A39186   9.751  22.178   7.350
 7366POPC   C1B39187  10.018  22.252   6.450
 7366POPC   C2B39188  10.001  22.205   6.750
 7366POPC   C3B39189   9.992  22.226   7.050
 7366POPC   C4B39190   9.946  22.165   7.350
 7367POPC   NC339191  28.372  40.806   5.550
 7367POPC   PO439192  28.370  40.752   5.850
 7367POPC   GL139193  28.324  40.763   6.150
 7367POPC   GL239194  28.247  40.719   6.150
 7367POPC   C1A39195  28.374  40.759   6.450
 7367POPC   D2A39196  28.398  40.808   6.750
 7367POPC   C3A39197  28.320  40.772   7.050
 7367POPC   C4A39198  28.380  40.777   7.350
 7367POPC   C1B39199  28.232  40.647   6.450
 7367POPC   C2B39200  28.221  40.625   6.750
 7367POPC   C3B39201  28.220  40.566   7.050
 7367POPC   C4B39202  28.186  40.566   7.350
 7368POPC   NC339203  19.821  26.018   5.550
 7368POPC   PO439204  19.846  25.994   5.850
 7368POPC   GL139205  19.841  26.023   6.150
 7368POPC   GL239206  19.747  25.979   6.150
 7368POPC   C1A39207  19.792  26.027   6.450
 7368POPC   D2A39208  19.882  26.004   6.750
 7368POPC   C3A39209  19.814  26.079   7.050
 7368POPC   C4A39210  19.843  26.027   7.350
 7368POPC   C1B39211  19.563  25.898   6.450
 7368POPC   C2B39212  19.578  25.939   6.750
 7368POPC   C3B39213  19.619  25.903   7.050
 7368POPC   C4B39214  19.629  25.976   7.350
 7369POPC   NC339215  34.568  25.246   5.550
 7369POPC   PO439216  34.613  25.269   5.850
 7369POPC   GL139217  34.619  25.315   6.150
 7369POPC   GL239218  34.491  25.149   6.150
 7369POPC   C1A39219  34.530  25.238   6.450
 7369POPC   D2A39220  34.568  25.226   6.750
 7369POPC   C3A39221  34.584  25.309   7.050
 7369POPC   C4A39222  34.610  25.307   7.350
 7369POPC   C1B39223  34.384  25.099   6.450
 7369POPC   C2B39224  34.373  25.063   6.750
 7369POPC   C3B39225  34.367  25.096   7.050
 7369POPC   C4B39226  34.442  25.053   7.350
 7370POPC   NC339227  40.768  24.527   5.550
 7370POPC   PO439228  40.787  24.470   5.850
 7370POPC   GL139229  40.733  24.525   6.150
 7370POPC   GL239230  40.744  24.645   6.150
 7370POPC   C1A39231  40.791  24.500   6.450
 7370POPC   D2A39232  40.784  24.459   6.750
 7370POPC   C3A39233  40.754  24.501   7.050
 7370POPC   C4A39234  40.822  24.525   7.350
 7370POPC   C1B39235  40.644  24.751   6.450
 7370POPC   C2B39236  40.641  24.737   6.750
 7370POPC   C3B39237  40.638  24.693   7.050
 7370POPC   C4B39238  40.702  24.667   7.350
 7371POPC   NC339239  13.671   9.008   5.550
 7371POPC   PO439240  13.647   8.955   5.850
 7371POPC   GL139241  13.633   8.968   6.150
 7371POPC   GL239242  13.704   9.057   6.150
 7371POPC   C1A39243  13.600   8.997   6.450
 7371POPC   D2A39244  13.614   8.962   6.750
 7371POPC   C3A39245  13.593   8.943   7.050
 7371POPC   C4A39246  13.643   8.992   7.350
 7371POPC   C1B39247  13.758   9.246   6.450
 7371POPC   C2B39248  13.754   9.224   6.750
 7371POPC   C3B39249  13.723   9.181   7.050
 7371POPC   C4B39250  13.768   9.230   7.350
 7372POPC   NC339251   8.953  20.595   5.550
 7372POPC   PO439252   8.941  20.599   5.850
 7372POPC   GL139253   8.945  20.565   6.150
 7372POPC   GL239254   9.030  20.712   6.150
 7372POPC   C1A39255   8.934  20.647   6.450
 7372POPC   D2A39256   8.970  20.643   6.750
 7372POPC   C3A39257   9.015  20.605   7.050
 7372POPC   C4A39258   8.950  20.603   7.350
 7372POPC   C1B39259   9.095  20.819   6.450
 7372POPC   C2B39260   9.117  20.840   6.750
 7372POPC   C3B39261   9.118  20.826   7.050
 7372POPC   C4B39262   9.148  20.827   7.350
 7373POPC   NC339263  31.457  22.977   5.550
 7373POPC   PO439264  31.501  22.902   5.850
 7373POPC   GL139265  31.459  22.939   6.150
 7373POPC   GL239266  31.625  22.928   6.150
 7373POPC   C1A39267  31.474  22.925   6.450
 7373POPC   D2A39268  31.488  22.904   6.750
 7373POPC   C3A39269  31.490  22.959   7.050
 7373POPC   C4A39270  31.512  22.889   7.350
 7373POPC   C1B39271  31.668  22.866   6.450
 7373POPC   C2B39272  31.696  22.872   6.750
 7373POPC   C3B39273  31.695  22.870   7.050
 7373POPC   C4B39274  31.681  22.845   7.350
 7374POPC   NC339275  25.299  25.231   5.550
 7374POPC   PO439276  25.304  25.261   5.850
 7374POPC   GL139277  25.290  25.249   6.150
 7374POPC   GL239278  25.205  25.351   6.150
 7374POPC   C1A39279  25.243  25.308   6.450
 7374POPC   D2A39280  25.271  25.226   6.750
 7374POPC   C3A39281  25.235  25.310   7.050
 7374POPC   C4A39282  25.217  25.277   7.350
 7374POPC   C1B39283  25.149  25.534   6.450
 7374POPC   C2B39284  25.198  25.490   6.750
 7374POPC   C3B39285  25.205  25.506   7.050
 7374POPC   C4B39286  25.185  25.477   7.350
 7375POPC   NC339287   8.226   9.733   5.550
 7375POPC   PO439288   8.238   9.745   5.850
 7375POPC   GL139289   8.238   9.751   6.150
 7375POPC   GL239290   8.159   9.654   6.150
 7375POPC   C1A39291   8.167   9.725   6.450
 7375POPC   D2A39292   8.243   9.775   6.750
 7375POPC   C3A39293   8.202   9.718   7.050
 7375POPC   C4A39294   8.178   9.779   7.350
 7375POPC   C1B39295   8.106   9.464   6.450
 7375POPC   C2B39296   8.132   9.519   6.750
 7375POPC   C3B39297   8.110   9.527   7.050
 7375POPC   C4B39298   8.115   9.535   7.350
 7376POPC   NC339299   2.743   3.523   5.550
 7376POPC   PO439300   2.804   3.535   5.850
 7376POPC   GL139301   2.743   3.536   6.150
 7376POPC   GL239302   2.897   3.568   6.150
 7376POPC   C1A39303   2.759   3.562   6.450
 7376POPC   D2A39304   2.814   3.545   6.750
 7376POPC   C3A39305   2.736   3.543   7.050
 7376POPC   C4A39306   2.776   3.532   7.350
 7376POPC   C1B39307   3.009   3.557   6.450
 7376POPC   C2B39308   3.002   3.571   6.750
 7376POPC   C3B39309   3.041   3.535   7.050
 7376POPC   C4B39310   3.060   3.502   7.350
 7377POPC   NC339311  42.362  32.245   5.550
 7377POPC   PO439312  42.289  32.210   5.850
 7377POPC   GL139313  42.295  32.282   6.150
 7377POPC   GL239314  42.393  32.353   6.150
 7377POPC   C1A39315  42.285  32.239   6.450
 7377POPC   D2A39316  42.335  32.226   6.750
 7377POPC   C3A39317  42.365  32.208   7.050
 7377POPC   C4A39318  42.288  32.235   7.350
 7377POPC   C1B39319  42.519  32.401   6.450
 7377POPC   C2B39320  42.520  32.401   6.750
 7377POPC   C3B39321  42.508  32.457   7.050
 7377POPC   C4B39322  42.451  32.415   7.350
 7378POPC   NC339323   0.469  15.142   5.550
 7378POPC   PO439324   0.391  15.158   5.850
 7378POPC   GL139325   0.455  15.164   6.150
 7378POPC   GL239326   0.565  15.184   6.150
 7378POPC   C1A39327   0.410  15.132   6.450
 7378POPC   D2A39328   0.432  15.133   6.750
 7378POPC   C3A39329   0.441  15.199   7.050
 7378POPC   C4A39330   0.474  15.166   7.350
 7378POPC   C1B39331   0.699  15.175   6.450
 7378POPC   C2B39332   0.673  15.193   6.750
 7378POPC   C3B39333   0.680  15.233   7.050
 7378POPC   C4B39334   0.722  15.204   7.350
 7379POPC   NC339335  19.801  43.078   5.550
 7379POPC   PO439336  19.809  43.124   5.850
 7379POPC   GL139337  19.876  43.083   6.150
 7379POPC   GL239338  19.872  43.009   6.150
 7379POPC   C1A39339  19.822  43.090   6.450
 7379POPC   D2A39340  19.866  43.154   6.750
 7379POPC   C3A39341  19.840  43.117   7.050
 7379POPC   C4A39342  19.796  43.089   7.350
 7379POPC   C1B39343  19.871  42.880   6.450
 7379POPC   C2B39344  19.922  42.859   6.750
 7379POPC   C3B39345  19.901  42.824   7.050
 7379POPC   C4B39346  19.853  42.892   7.350
 7380POPC   NC339347  22.145  29.190   5.550
 7380POPC   PO439348  22.191  29.134   5.850
 7380POPC   GL139349  22.128  29.160   6.150
 7380POPC   GL239350  22.190  29.277   6.150
 7380POPC   C1A39351  22.162  29.147   6.450
 7380POPC   D2A39352  22.194  29.177   6.750
 7380POPC   C3A39353  22.169  29.172   7.050
 7380POPC   C4A39354  22.143  29.192   7.350
 7380POPC   C1B39355  22.277  29.383   6.450
 7380POPC   C2B39356  22.244  29.409   6.750
 7380POPC   C3B39357  22.294  29.386   7.050
 7380POPC   C4B39358  22.243  29.331   7.350
 7381POPC   NC339359   8.984  32.237   5.550
 7381POPC   PO439360   8.977  32.291   5.850
 7381POPC   GL139361   8.924  32.209   6.150
 7381POPC   GL239362   9.057  32.195   6.150
 7381POPC   C1A39363   8.945  32.268   6.450
 7381POPC   D2A39364   9.005  32.230   6.750
 7381POPC   C3A39365   8.975  32.288   7.050
 7381POPC   C4A39366   8.941  32.274   7.350
 7381POPC   C1B39367   9.200  32.088   6.450
 7381POPC   C2B39368   9.132  32.069   6.750
 7381POPC   C3B39369   9.176  32.052   7.050
 7381POPC   C4B39370   9.206  32.103   7.350
 7382POPC   NC339371   6.624  40.054   5.550
 7382POPC   PO439372   6.637  39.984   5.850
 7382POPC   GL139373   6.659  40.054   6.150
 7382POPC   GL239374   6.554  40.155   6.150
 7382POPC   C1A39375   6.667  40.056   6.450
 7382POPC   D2A39376   6.616  39.987   6.750
 7382POPC   C3A39377   6.674  40.049   7.050
 7382POPC   C4A39378   6.610  40.036   7.350
 7382POPC   C1B39379   6.512  40.249   6.450
 7382POPC   C2B39380   6.569  40.215   6.750
 7382POPC   C3B39381   6.518  40.210   7.050
 7382POPC   C4B39382   6.592  40.231   7.350
 7383POPC   NC339383   0.399  12.061   5.550
 7383POPC   PO439384   0.397  12.050   5.850
 7383POPC   GL139385   0.444  12.086   6.150
 7383POPC   GL239386   0.444  12.245   6.150
 7383POPC   C1A39387   0.477  12.126   6.450
 7383POPC   D2A39388   0.473  12.095   6.750
 7383POPC   C3A39389   0.417  12.033   7.050
 7383POPC   C4A39390   0.412  12.077   7.350
 7383POPC   C1B39391   0.421  12.340   6.450
 7383POPC   C2B39392   0.446  12.327   6.750
 7383POPC   C3B39393   0.471  12.374   7.050
 7383POPC   C4B39394   0.437  12.320   7.350
 7384POPC   NC339395  37.689   3.575   5.550
 7384POPC   PO439396  37.686   3.565   5.850
 7384POPC   GL139397  37.679   3.545   6.150
 7384POPC   GL239398  37.796   3.524   6.150
 7384POPC   C1A39399  37.655   3.533   6.450
 7384POPC   D2A39400  37.661   3.568   6.750
 7384POPC   C3A39401  37.727   3.499   7.050
 7384POPC   C4A39402  37.649   3.550   7.350
 7384POPC   C1B39403  37.857   3.437   6.450
 7384POPC   C2B39404  37.851   3.411   6.750
 7384POPC   C3B39405  37.902   3.430   7.050
 7384POPC   C4B39406  37.908   3.398   7.350
 7385POPC   NC339407   9.750  27.582   5.550
 7385POPC   PO439408   9.777  27.580   5.850
 7385POPC   GL139409   9.751  27.608   6.150
 7385POPC   GL239410   9.721  27.489   6.150
 7385POPC   C1A39411   9.737  27.566   6.450
 7385POPC   D2A39412   9.769  27.586   6.750
 7385POPC   C3A39413   9.777  27.634   7.050
 7385POPC   C4A39414   9.763  27.549   7.350
 7385POPC   C1B39415   9.711  27.354   6.450
 7385POPC   C2B39416   9.699  27.388   6.750
 7385POPC   C3B39417   9.757  27.354   7.050
 7385POPC   C4B39418   9.688  27.357   7.350
 7386POPC   NC339419  42.384  36.921   5.550
 7386POPC   PO439420  42.308  36.942   5.850
 7386POPC   GL139421  42.328  36.949   6.150
 7386POPC   GL239422  42.357  36.991   6.150
 7386POPC   C1A39423  42.326  36.879   6.450
 7386POPC   D2A39424  42.291  36.883   6.750
 7386POPC   C3A39425  42.346  36.877   7.050
 7386POPC   C4A39426  42.382  36.945   7.350
 7386POPC   C1B39427  42.457  37.107   6.450
 7386POPC   C2B39428  42.424  37.098   6.750
 7386POPC   C3B39429  42.417  37.091   7.050
 7386POPC   C4B39430  42.462  37.113   7.350
 7387POPC   NC339431   3.571   5.856   5.550
 7387POPC   PO439432   3.495   5.845   5.850
 7387POPC   GL139433   3.575   5.838   6.150
 7387POPC   GL239434   3.649   5.818   6.150
 7387POPC   C1A39435   3.527   5.907   6.450
 7387POPC   D2A39436   3.506   5.839   6.750
 7387POPC   C3A39437   3.527   5.871   7.050
 7387POPC   C4A39438   3.546   5.903   7.350
 7387POPC   C1B39439   3.752   5.817   6.450
 7387POPC   C2B39440   3.806   5.746   6.750
 7387POPC   C3B39441   3.774   5.752   7.050
 7387POPC   C4B39442   3.748   5.745   7.350
 7388POPC   NC339443  17.469  22.151   5.550
 7388POPC   PO439444  17.481  22.164   5.850
 7388POPC   GL139445  17.509  22.198   6.150
 7388POPC   GL239446  17.605  22.231   6.150
 7388POPC   C1A39447  17.529  22.169   6.450
 7388POPC   D2A39448  17.522  22.126   6.750
 7388POPC   C3A39449  17.538  22.165   7.050
 7388POPC   C4A39450  17.490  22.168   7.350
 7388POPC   C1B39451  17.698  22.388   6.450
 7388POPC   C2B39452  17.665  22.378   6.750
 7388POPC   C3B39453  17.672  22.393   7.050
 7388POPC   C4B39454  17.694  22.319   7.350
 7389POPC   NC339455   6.599  40.760   5.550
 7389POPC   PO439456   6.633  40.744   5.850
 7389POPC   GL139457   6.613  40.792   6.150
 7389POPC   GL239458   6.493  40.672   6.150
 7389POPC   C1A39459   6.660  40.751   6.450
 7389POPC   D2A39460   6.652  40.827   6.750
 7389POPC   C3A39461   6.682  40.747   7.050
 7389POPC   C4A39462   6.599  40.791   7.350
 7389POPC   C1B39463   6.441  40.635   6.450
 7389POPC   C2B39464   6.403  40.669   6.750
 7389POPC   C3B39465   6.473  40.596   7.050
 7389POPC   C4B39466   6.436  40.683   7.350
 7390POPC   NC339467   7.415  42.356   5.550
 7390POPC   PO439468   7.381  42.340   5.850
 7390POPC   GL139469   7.382  42.292   6.150
 7390POPC   GL239470   7.509  42.278   6.150
 7390POPC   C1A39471   7.442  42.347   6.450
 7390POPC   D2A39472   7.429  42.336   6.750
 7390POPC   C3A39473   7.416  42.300   7.050
 7390POPC   C4A39474   7.374  42.307   7.350
 7390POPC   C1B39475   7.624  42.294   6.450
 7390POPC   C2B39476   7.679  42.250   6.750
 7390POPC   C3B39477   7.658  42.241   7.050
 7390POPC   C4B39478   7.651  42.288   7.350
 7391POPC   NC339479   2.011  14.359   5.550
 7391POPC   PO439480   1.950  14.383   5.850
 7391POPC   GL139481   2.026  14.440   6.150
 7391POPC   GL239482   2.139  14.374   6.150
 7391POPC   C1A39483   1.961  14.433   6.450
 7391POPC   D2A39484   1.995  14.441   6.750
 7391POPC   C3A39485   2.008  14.428   7.050
 7391POPC   C4A39486   1.950  14.367   7.350
 7391POPC   C1B39487   2.193  14.342   6.450
 7391POPC   C2B39488   2.201  14.265   6.750
 7391POPC   C3B39489   2.182  14.326   7.050
 7391POPC   C4B39490   2.181  14.304   7.350
 7392POPC   NC339491  11.278  20.611   5.550
 7392POPC   PO439492  11.289  20.647   5.850
 7392POPC   GL139493  11.335  20.615   6.150
 7392POPC   GL239494  11.245  20.677   6.150
 7392POPC   C1A39495  11.320  20.585   6.450
 7392POPC   D2A39496  11.349  20.657   6.750
 7392POPC   C3A39497  11.257  20.570   7.050
 7392POPC   C4A39498  11.299  20.597   7.350
 7392POPC   C1B39499  11.082  20.804   6.450
 7392POPC   C2B39500  11.109  20.724   6.750
 7392POPC   C3B39501  11.061  20.794   7.050
 7392POPC   C4B39502  11.077  20.787   7.350
 7393POPC   NC339503  14.369   8.178   5.550
 7393POPC   PO439504  14.428   8.232   5.850
 7393POPC   GL139505  14.448   8.241   6.150
 7393POPC   GL239506  14.432   8.336   6.150
 7393POPC   C1A39507  14.356   8.179   6.450
 7393POPC   D2A39508  14.453   8.172   6.750
 7393POPC   C3A39509  14.418   8.207   7.050
 7393POPC   C4A39510  14.394   8.245   7.350
 7393POPC   C1B39511  14.485   8.396   6.450
 7393POPC   C2B39512  14.451   8.390   6.750
 7393POPC   C3B39513  14.510   8.450   7.050
 7393POPC   C4B39514  14.477   8.467   7.350
 7394POPC   NC339515  33.752  40.819   5.550
 7394POPC   PO439516  33.802  40.759   5.850
 7394POPC   GL139517  33.827  40.747   6.150
 7394POPC   GL239518  33.750  40.895   6.150
 7394POPC   C1A39519  33.819  40.747   6.450
 7394POPC   D2A39520  33.771  40.812   6.750
 7394POPC   C3A39521  33.771  40.800   7.050
 7394POPC   C4A39522  33.754  40.817   7.350
 7394POPC   C1B39523  33.609  40.966   6.450
 7394POPC   C2B39524  33.617  40.942   6.750
 7394POPC   C3B39525  33.681  40.933   7.050
 7394POPC   C4B39526  33.656  41.011   7.350
 7395POPC   NC339527  40.753  11.319   5.550
 7395POPC   PO439528  40.740  11.291   5.850
 7395POPC   GL139529  40.788  11.263   6.150
 7395POPC   GL239530  40.708  11.213   6.150
 7395POPC   C1A39531  40.801  11.299   6.450
 7395POPC   D2A39532  40.771  11.292   6.750
 7395POPC   C3A39533  40.758  11.288   7.050
 7395POPC   C4A39534  40.733  11.253   7.350
 7395POPC   C1B39535  40.768  11.032   6.450
 7395POPC   C2B39536  40.729  11.099   6.750
 7395POPC   C3B39537  40.711  11.030   7.050
 7395POPC   C4B39538  40.709  11.032   7.350
 7396POPC   NC339539  36.152  21.424   5.550
 7396POPC   PO439540  36.131  21.381   5.850
 7396POPC   GL139541  36.091  21.436   6.150
 7396POPC   GL239542  36.143  21.262   6.150
 7396POPC   C1A39543  36.078  21.394   6.450
 7396POPC   D2A39544  36.130  21.399   6.750
 7396POPC   C3A39545  36.118  21.394   7.050
 7396POPC   C4A39546  36.079  21.367   7.350
 7396POPC   C1B39547  36.096  21.152   6.450
 7396POPC   C2B39548  36.073  21.102   6.750
 7396POPC   C3B39549  36.040  21.095   7.050
 7396POPC   C4B39550  36.093  21.139   7.350
 7397POPC   NC339551  43.107   0.455   5.550
 7397POPC   PO439552  43.092   0.463   5.850
 7397POPC   GL139553  43.113   0.424   6.150
 7397POPC   GL239554  43.191   0.387   6.150
 7397POPC   C1A39555  43.126   0.474   6.450
 7397POPC   D2A39556  43.077   0.468   6.750
 7397POPC   C3A39557  43.152   0.401   7.050
 7397POPC   C4A39558  43.079   0.441   7.350
 7397POPC   C1B39559  43.327   0.409   6.450
 7397POPC   C2B39560  43.336   0.324   6.750
 7397POPC   C3B39561  43.363   0.420   7.050
 7397POPC   C4B39562  43.316   0.379   7.350
 7398POPC   NC339563  19.078   8.189   5.550
 7398POPC   PO439564  19.012   8.228   5.850
 7398POPC   GL139565  19.079   8.148   6.150
 7398POPC   GL239566  19.131   8.330   6.150
 7398POPC   C1A39567  19.071   8.231   6.450
 7398POPC   D2A39568  19.032   8.152   6.750
 7398POPC   C3A39569  19.047   8.177   7.050
 7398POPC   C4A39570  19.088   8.237   7.350
 7398POPC   C1B39571  19.172   8.461   6.450
 7398POPC   C2B39572  19.190   8.447   6.750
 7398POPC   C3B39573  19.176   8.448   7.050
 7398POPC   C4B39574  19.125   8.439   7.350
 7399POPC   NC339575  21.387   5.044   5.550
 7399POPC   PO439576  21.341   5.110   5.850
 7399POPC   GL139577  21.385   5.128   6.150
 7399POPC   GL239578  21.227   5.098   6.150
 7399POPC   C1A39579  21.406   5.058   6.450
 7399POPC   D2A39580  21.361   5.110   6.750
 7399POPC   C3A39581  21.420   5.132   7.050
 7399POPC   C4A39582  21.390   5.091   7.350
 7399POPC   C1B39583  21.089   5.077   6.450
 7399POPC   C2B39584  21.186   5.143   6.750
 7399POPC   C3B39585  21.181   5.100   7.050
 7399POPC   C4B39586  21.184   5.137   7.350
 7400POPC   NC339587  14.371   5.858   5.550
 7400POPC   PO439588  14.415   5.884   5.850
 7400POPC   GL139589  14.395   5.885   6.150
 7400POPC   GL239590  14.254   5.979   6.150
 7400POPC   C1A39591  14.414   5.845   6.450
 7400POPC   D2A39592  14.452   5.917   6.750
 7400POPC   C3A39593  14.439   5.839   7.050
 7400POPC   C4A39594  14.383   5.905   7.350
 7400POPC   C1B39595  14.146   6.008   6.450
 7400POPC   C2B39596  14.165   6.042   6.750
 7400POPC   C3B39597  14.195   6.007   7.050
 7400POPC   C4B39598  14.197   6.015   7.350
 7401POPC   NC339599  33.006   4.311   5.550
 7401POPC   PO439600  33.049   4.309   5.850
 7401POPC   GL139601  33.015   4.302   6.150
 7401POPC   GL239602  32.866   4.405   6.150
 7401POPC   C1A39603  33.050   4.310   6.450
 7401POPC   D2A39604  33.070   4.320   6.750
 7401POPC   C3A39605  33.006   4.318   7.050
 7401POPC   C4A39606  32.996   4.340   7.350
 7401POPC   C1B39607  32.769   4.438   6.450
 7401POPC   C2B39608  32.799   4.435   6.750
 7401POPC   C3B39609  32.763   4.438   7.050
 7401POPC   C4B39610  32.803   4.409   7.350
 7402POPC   NC339611   0.452  31.517   5.550
 7402POPC   PO439612   0.445  31.425   5.850
 7402POPC   GL139613   0.395  31.425   6.150
 7402POPC   GL239614   0.421  31.632   6.150
 7402POPC   C1A39615   0.445  31.494   6.450
 7402POPC   D2A39616   0.438  31.441   6.750
 7402POPC   C3A39617   0.421  31.508   7.050
 7402POPC   C4A39618   0.446  31.459   7.350
 7402POPC   C1B39619   0.332  31.739   6.450
 7402POPC   C2B39620   0.381  31.674   6.750
 7402POPC   C3B39621   0.316  31.692   7.050
 7402POPC   C4B39622   0.355  31.758   7.350
 7403POPC   NC339623   1.177  41.538   5.550
 7403POPC   PO439624   1.169  41.526   5.850
 7403POPC   GL139625   1.214  41.545   6.150
 7403POPC   GL239626   1.331  41.659   6.150
 7403POPC   C1A39627   1.179  41.563   6.450
 7403POPC   D2A39628   1.170  41.561   6.750
 7403POPC   C3A39629   1.212  41.576   7.050
 7403POPC   C4A39630   1.212  41.514   7.350
 7403POPC   C1B39631   1.422  41.739   6.450
 7403POPC   C2B39632   1.342  41.735   6.750
 7403POPC   C3B39633   1.426  41.747   7.050
 7403POPC   C4B39634   1.360  41.767   7.350
 7404POPC   NC339635  21.412  40.764   5.550
 7404POPC   PO439636  21.355  40.790   5.850
 7404POPC   GL139637  21.337  40.741   6.150
 7404POPC   GL239638  21.249  40.834   6.150
 7404POPC   C1A39639  21.346  40.774   6.450
 7404POPC   D2A39640  21.431  40.798   6.750
 7404POPC   C3A39641  21.371  40.782   7.050
 7404POPC   C4A39642  21.426  40.741   7.350
 7404POPC   C1B39643  21.232  40.955   6.450
 7404POPC   C2B39644  21.175  40.915   6.750
 7404POPC   C3B39645  21.244  40.995   7.050
 7404POPC   C4B39646  21.215  40.907   7.350
 7405POPC   NC339647   4.284  37.668   5.550
 7405POPC   PO439648   4.350  37.657   5.850
 7405POPC   GL139649   4.314  37.688   6.150
 7405POPC   GL239650   4.255  37.582   6.150
 7405POPC   C1A39651   4.315  37.709   6.450
 7405POPC   D2A39652   4.320  37.709   6.750
 7405POPC   C3A39653   4.364  37.640   7.050
 7405POPC   C4A39654   4.269  37.683   7.350
 7405POPC   C1B39655   4.227  37.479   6.450
 7405POPC   C2B39656   4.152  37.469   6.750
 7405POPC   C3B39657   4.244  37.479   7.050
 7405POPC   C4B39658   4.221  37.445   7.350
 7406POPC   NC339659  20.595  40.807   5.550
 7406POPC   PO439660  20.620  40.788   5.850
 7406POPC   GL139661  20.659  40.832   6.150
 7406POPC   GL239662  20.625  40.895   6.150
 7406POPC   C1A39663  20.646  40.793   6.450
 7406POPC   D2A39664  20.582  40.785   6.750
 7406POPC   C3A39665  20.628  40.791   7.050
 7406POPC   C4A39666  20.562  40.831   7.350
 7406POPC   C1B39667  20.739  41.038   6.450
 7406POPC   C2B39668  20.724  40.994   6.750
 7406POPC   C3B39669  20.735  40.978   7.050
 7406POPC   C4B39670  20.768  40.963   7.350
 7407POPC   NC339671  10.525  25.227   5.550
 7407POPC   PO439672  10.497  25.301   5.850
 7407POPC   GL139673  10.487  25.288   6.150
 7407POPC   GL239674  10.370  25.242   6.150
 7407POPC   C1A39675  10.539  25.307   6.450
 7407POPC   D2A39676  10.556  25.266   6.750
 7407POPC   C3A39677  10.538  25.288   7.050
 7407POPC   C4A39678  10.499  25.310   7.350
 7407POPC   C1B39679  10.293  25.257   6.450
 7407POPC   C2B39680  10.235  25.299   6.750
 7407POPC   C3B39681  10.283  25.303   7.050
 7407POPC   C4B39682  10.305  25.246   7.350
 7408POPC   NC339683   1.249  17.470   5.550
 7408POPC   PO439684   1.200  17.517   5.850
 7408POPC   GL139685   1.213  17.496   6.150
 7408POPC   GL239686   1.150  17.455   6.150
 7408POPC   C1A39687   1.197  17.541   6.450
 7408POPC   D2A39688   1.215  17.507   6.750
 7408POPC   C3A39689   1.236  17.500   7.050
 7408POPC   C4A39690   1.172  17.461   7.350
 7408POPC   C1B39691   0.984  17.339   6.450
 7408POPC   C2B39692   1.055  17.344   6.750
 7408POPC   C3B39693   1.027  17.379   7.050
 7408POPC   C4B39694   0.965  17.352   7.350
 7409POPC   NC339695  29.168  39.257   5.550
 7409POPC   PO439696  29.151  39.192   5.850
 7409POPC   GL139697  29.150  39.198   6.150
 7409POPC   GL239698  29.191  39.364   6.150
 7409POPC   C1A39699  29.103  39.244   6.450
 7409POPC   D2A39700  29.124  39.265   6.750
 7409POPC   C3A39701  29.096  39.209   7.050
 7409POPC   C4A39702  29.191  39.206   7.350
 7409POPC   C1B39703  29.225  39.490   6.450
 7409POPC   C2B39704  29.219  39.401   6.750
 7409POPC   C3B39705  29.311  39.486   7.050
 7409POPC   C4B39706  29.269  39.410   7.350
 7410POPC   NC339707   3.571  12.105   5.550
 7410POPC   PO439708   3.548  12.064   5.850
 7410POPC   GL139709   3.523  12.047   6.150
 7410POPC   GL239710   3.587  11.950   6.150
 7410POPC   C1A39711   3.532  12.121   6.450
 7410POPC   D2A39712   3.537  12.042   6.750
 7410POPC   C3A39713   3.495  12.067   7.050
 7410POPC   C4A39714   3.546  12.105   7.350
 7410POPC   C1B39715   3.664  11.877   6.450
 7410POPC   C2B39716   3.724  11.895   6.750
 7410POPC   C3B39717   3.661  11.859   7.050
 7410POPC   C4B39718   3.707  11.919   7.350
 7411POPC   NC339719   6.611   8.197   5.550
 7411POPC   PO439720   6.682   8.233   5.850
 7411POPC   GL139721   6.682   8.194   6.150
 7411POPC   GL239722   6.515   8.297   6.150
 7411POPC   C1A39723   6.683   8.239   6.450
 7411POPC   D2A39724   6.681   8.228   6.750
 7411POPC   C3A39725   6.678   8.235   7.050
 7411POPC   C4A39726   6.673   8.156   7.350
 7411POPC   C1B39727   6.433   8.301   6.450
 7411POPC   C2B39728   6.384   8.349   6.750
 7411POPC   C3B39729   6.377   8.316   7.050
 7411POPC   C4B39730   6.421   8.335   7.350
 7412POPC   NC339731  42.315   5.909   5.550
 7412POPC   PO439732  42.287   5.831   5.850
 7412POPC   GL139733  42.289   5.905   6.150
 7412POPC   GL239734  42.238   5.915   6.150
 7412POPC   C1A39735  42.374   5.850   6.450
 7412POPC   D2A39736  42.382   5.844   6.750
 7412POPC   C3A39737  42.290   5.910   7.050
 7412POPC   C4A39738  42.291   5.841   7.350
 7412POPC   C1B39739  42.069   5.900   6.450
 7412POPC   C2B39740  42.115   5.875   6.750
 7412POPC   C3B39741  42.125   5.837   7.050
 7412POPC   C4B39742  42.130   5.879   7.350
 7413POPC   NC339743  12.053  19.829   5.550
 7413POPC   PO439744  12.126  19.883   5.850
 7413POPC   GL139745  12.061  19.823   6.150
 7413POPC   GL239746  12.147  19.756   6.150
 7413POPC   C1A39747  12.049  19.874   6.450
 7413POPC   D2A39748  12.099  19.880   6.750
 7413POPC   C3A39749  12.095  19.852   7.050
 7413POPC   C4A39750  12.027  19.831   7.350
 7413POPC   C1B39751  12.293  19.624   6.450
 7413POPC   C2B39752  12.307  19.711   6.750
 7413POPC   C3B39753  12.291  19.684   7.050
 7413POPC   C4B39754  12.262  19.673   7.350
 7414POPC   NC339755  37.634  11.330   5.550
 7414POPC   PO439756  37.651  11.284   5.850
 7414POPC   GL139757  37.721  11.261   6.150
 7414POPC   GL239758  37.557  11.263   6.150
 7414POPC   C1A39759  37.688  11.297   6.450
 7414POPC   D2A39760  37.706  11.255   6.750
 7414POPC   C3A39761  37.677  11.310   7.050
 7414POPC   C4A39762  37.648  11.314   7.350
 7414POPC   C1B39763  37.528  11.144   6.450
 7414POPC   C2B39764  37.517  11.157   6.750
 7414POPC   C3B39765  37.467  11.175   7.050
 7414POPC   C4B39766  37.483  11.118   7.350
 7415POPC   NC339767  43.870  39.279   5.550
 7415POPC   PO439768  43.891  39.225   5.850
 7415POPC   GL139769  43.918  39.278   6.150
 7415POPC   GL239770  43.959  39.296   6.150
 7415POPC   C1A39771  43.869  39.188   6.450
 7415POPC   D2A39772  43.904  39.268   6.750
 7415POPC   C3A39773  43.843  39.217   7.050
 7415POPC   C4A39774  43.894  39.234   7.350
 7415POPC   C1B39775  44.048  39.426   6.450
 7415POPC   C2B39776  43.971  39.426   6.750
 7415POPC   C3B39777  44.007  39.480   7.050
 7415POPC   C4B39778  43.992  39.415   7.350
 7416POPC   NC339779   2.721  19.054   5.550
 7416POPC   PO439780   2.780  19.070   5.850
 7416POPC   GL139781   2.801  19.087   6.150
 7416POPC   GL239782   2.849  19.211   6.150
 7416POPC   C1A39783   2.799  19.014   6.450
 7416POPC   D2A39784   2.723  19.037   6.750
 7416POPC   C3A39785   2.759  19.063   7.050
 7416POPC   C4A39786   2.777  19.062   7.350
 7416POPC   C1B39787   2.881  19.344   6.450
 7416POPC   C2B39788   2.854  19.291   6.750
 7416POPC   C3B39789   2.878  19.290   7.050
 7416POPC   C4B39790   2.823  19.295   7.350
 7417POPC   NC339791  28.344  32.238   5.550
 7417POPC   PO439792  28.333  32.286   5.850
 7417POPC   GL139793  28.364  32.294   6.150
 7417POPC   GL239794  28.249  32.287   6.150
 7417POPC   C1A39795  28.414  32.256   6.450
 7417POPC   D2A39796  28.356  32.283   6.750
 7417POPC   C3A39797  28.353  32.204   7.050
 7417POPC   C4A39798  28.398  32.225   7.350
 7417POPC   C1B39799  28.115  32.312   6.450
 7417POPC   C2B39800  28.148  32.339   6.750
 7417POPC   C3B39801  28.084  32.332   7.050
 7417POPC   C4B39802  28.174  32.352   7.350
 7418POPC   NC339803  23.673  23.713   5.550
 7418POPC   PO439804  23.668  23.744   5.850
 7418POPC   GL139805  23.745  23.681   6.150
 7418POPC   GL239806  23.692  23.857   6.150
 7418POPC   C1A39807  23.694  23.703   6.450
 7418POPC   D2A39808  23.731  23.722   6.750
 7418POPC   C3A39809  23.712  23.706   7.050
 7418POPC   C4A39810  23.742  23.747   7.350
 7418POPC   C1B39811  23.654  23.928   6.450
 7418POPC   C2B39812  23.606  23.920   6.750
 7418POPC   C3B39813  23.573  23.948   7.050
 7418POPC   C4B39814  23.619  23.923   7.350
 7419POPC   NC339815   7.384  21.377   5.550
 7419POPC   PO439816   7.405  21.402   5.850
 7419POPC   GL139817   7.437  21.383   6.150
 7419POPC   GL239818   7.436  21.501   6.150
 7419POPC   C1A39819   7.397  21.341   6.450
 7419POPC   D2A39820   7.397  21.344   6.750
 7419POPC   C3A39821   7.407  21.397   7.050
 7419POPC   C4A39822   7.428  21.374   7.350
 7419POPC   C1B39823   7.537  21.611   6.450
 7419POPC   C2B39824   7.568  21.617   6.750
 7419POPC   C3B39825   7.575  21.642   7.050
 7419POPC   C4B39826   7.526  21.632   7.350
 7420POPC   NC339827  36.144  23.740   5.550
 7420POPC   PO439828  36.086  23.754   5.850
 7420POPC   GL139829  36.160  23.727   6.150
 7420POPC   GL239830  36.124  23.596   6.150
 7420POPC   C1A39831  36.157  23.681   6.450
 7420POPC   D2A39832  36.079  23.678   6.750
 7420POPC   C3A39833  36.170  23.678   7.050
 7420POPC   C4A39834  36.175  23.704   7.350
 7420POPC   C1B39835  36.185  23.490   6.450
 7420POPC   C2B39836  36.187  23.433   6.750
 7420POPC   C3B39837  36.212  23.519   7.050
 7420POPC   C4B39838  36.180  23.479   7.350
 7421POPC   NC339839  26.846   9.794   5.550
 7421POPC   PO439840  26.860   9.720   5.850
 7421POPC   GL139841  26.770   9.757   6.150
 7421POPC   GL239842  26.770   9.885   6.150
 7421POPC   C1A39843  26.782   9.737   6.450
 7421POPC   D2A39844  26.849   9.700   6.750
 7421POPC   C3A39845  26.856   9.747   7.050
 7421POPC   C4A39846  26.847   9.760   7.350
 7421POPC   C1B39847  26.605   9.911   6.450
 7421POPC   C2B39848  26.604   9.970   6.750
 7421POPC   C3B39849  26.644   9.931   7.050
 7421POPC   C4B39850  26.630   9.937   7.350
 7422POPC   NC339851  27.614  41.528   5.550
 7422POPC   PO439852  27.592  41.599   5.850
 7422POPC   GL139853  27.616  41.547   6.150
 7422POPC   GL239854  27.449  41.480   6.150
 7422POPC   C1A39855  27.617  41.606   6.450
 7422POPC   D2A39856  27.600  41.587   6.750
 7422POPC   C3A39857  27.549  41.519   7.050
 7422POPC   C4A39858  27.637  41.597   7.350
 7422POPC   C1B39859  27.399  41.443   6.450
 7422POPC   C2B39860  27.383  41.441   6.750
 7422POPC   C3B39861  27.362  41.518   7.050
 7422POPC   C4B39862  27.395  41.459   7.350
 7423POPC   NC339863  24.534  21.381   5.550
 7423POPC   PO439864  24.481  21.361   5.850
 7423POPC   GL139865  24.443  21.396   6.150
 7423POPC   GL239866  24.469  21.527   6.150
 7423POPC   C1A39867  24.528  21.404   6.450
 7423POPC   D2A39868  24.442  21.414   6.750
 7423POPC   C3A39869  24.495  21.353   7.050
 7423POPC   C4A39870  24.497  21.347   7.350
 7423POPC   C1B39871  24.395  21.631   6.450
 7423POPC   C2B39872  24.441  21.631   6.750
 7423POPC   C3B39873  24.462  21.640   7.050
 7423POPC   C4B39874  24.454  21.619   7.350
 7424POPC   NC339875  39.249  19.830   5.550
 7424POPC   PO439876  39.234  19.829   5.850
 7424POPC   GL139877  39.264  19.839   6.150
 7424POPC   GL239878  39.326  19.848   6.150
 7424POPC   C1A39879  39.244  19.794   6.450
 7424POPC   D2A39880  39.186  19.812   6.750
 7424POPC   C3A39881  39.190  19.805   7.050
 7424POPC   C4A39882  39.237  19.884   7.350
 7424POPC   C1B39883  39.530  19.820   6.450
 7424POPC   C2B39884  39.507  19.874   6.750
 7424POPC   C3B39885  39.442  19.854   7.050
 7424POPC   C4B39886  39.441  19.904   7.350
 7425POPC   NC339887  40.792  44.696   5.550
 7425POPC   PO439888  40.779  44.692   5.850
 7425POPC   GL139889  40.734  44.658   6.150
 7425POPC   GL239890  40.743  44.813   6.150
 7425POPC   C1A39891  40.814  44.661   6.450
 7425POPC   D2A39892  40.738  44.688   6.750
 7425POPC   C3A39893  40.829  44.693   7.050
 7425POPC   C4A39894  40.754  44.698   7.350
 7425POPC   C1B39895  40.718  44.913   6.450
 7425POPC   C2B39896  40.726  44.940   6.750
 7425POPC   C3B39897  40.781  44.893   7.050
 7425POPC   C4B39898  40.784  44.895   7.350
 7426POPC   NC339899  29.887   8.987   5.550
 7426POPC   PO439900  29.935   8.988   5.850
 7426POPC   GL139901  29.917   8.958   6.150
 7426POPC   GL239902  29.830   8.963   6.150
 7426POPC   C1A39903  29.914   8.938   6.450
 7426POPC   D2A39904  29.953   8.945   6.750
 7426POPC   C3A39905  29.880   8.958   7.050
 7426POPC   C4A39906  29.959   8.987   7.350
 7426POPC   C1B39907  29.671   9.001   6.450
 7426POPC   C2B39908  29.686   9.046   6.750
 7426POPC   C3B39909  29.716   9.039   7.050
 7426POPC   C4B39910  29.686   9.059   7.350
 7427POPC   NC339911   7.440  40.037   5.550
 7427POPC   PO439912   7.382  40.008   5.850
 7427POPC   GL139913   7.388  40.005   6.150
 7427POPC   GL239914   7.454  39.920   6.150
 7427POPC   C1A39915   7.388  40.020   6.450
 7427POPC   D2A39916   7.374  40.053   6.750
 7427POPC   C3A39917   7.424  39.982   7.050
 7427POPC   C4A39918   7.452  40.032   7.350
 7427POPC   C1B39919   7.501  39.785   6.450
 7427POPC   C2B39920   7.429  39.729   6.750
 7427POPC   C3B39921   7.496  39.798   7.050
 7427POPC   C4B39922   7.438  39.756   7.350
 7428POPC   NC339923  25.245   3.515   5.550
 7428POPC   PO439924  25.304   3.562   5.850
 7428POPC   GL139925  25.289   3.584   6.150
 7428POPC   GL239926  25.343   3.490   6.150
 7428POPC   C1A39927  25.258   3.582   6.450
 7428POPC   D2A39928  25.230   3.556   6.750
 7428POPC   C3A39929  25.217   3.564   7.050
 7428POPC   C4A39930  25.312   3.513   7.350
 7428POPC   C1B39931  25.510   3.446   6.450
 7428POPC   C2B39932  25.454   3.416   6.750
 7428POPC   C3B39933  25.489   3.457   7.050
 7428POPC   C4B39934  25.548   3.488   7.350
 7429POPC   NC339935  43.858  29.097   5.550
 7429POPC   PO439936  43.929  29.173   5.850
 7429POPC   GL139937  43.838  29.149   6.150
 7429POPC   GL239938  44.019  29.082   6.150
 7429POPC   C1A39939  43.921  29.096   6.450
 7429POPC   D2A39940  43.912  29.117   6.750
 7429POPC   C3A39941  43.876  29.178   7.050
 7429POPC   C4A39942  43.895  29.127   7.350
 7429POPC   C1B39943  44.118  29.052   6.450
 7429POPC   C2B39944  44.071  29.017   6.750
 7429POPC   C3B39945  44.077  29.079   7.050
 7429POPC   C4B39946  44.128  29.038   7.350
 7430POPC   NC339947  12.052  40.814   5.550
 7430POPC   PO439948  12.083  40.794   5.850
 7430POPC   GL139949  12.030  40.782   6.150
 7430POPC   GL239950  12.222  40.830   6.150
 7430POPC   C1A39951  12.085  40.773   6.450
 7430POPC   D2A39952  12.118  40.762   6.750
 7430POPC   C3A39953  12.041  40.823   7.050
 7430POPC   C4A39954  12.106  40.769   7.350
 7430POPC   C1B39955  12.353  40.833   6.450
 7430POPC   C2B39956  12.313  40.845   6.750
 7430POPC   C3B39957  12.339  40.832   7.050
 7430POPC   C4B39958  12.346  40.865   7.350
 7431POPC   NC339959  37.707  17.501   5.550
 7431POPC   PO439960  37.687  17.505   5.850
 7431POPC   GL139961  37.664  17.491   6.150
 7431POPC   GL239962  37.546  17.562   6.150
 7431POPC   C1A39963  37.686  17.485   6.450
 7431POPC   D2A39964  37.708  17.554   6.750
 7431POPC   C3A39965  37.653  17.458   7.050
 7431POPC   C4A39966  37.722  17.515   7.350
 7431POPC   C1B39967  37.397  17.605   6.450
 7431POPC   C2B39968  37.440  17.587   6.750
 7431POPC   C3B39969  37.395  17.619   7.050
 7431POPC   C4B39970  37.447  17.571   7.350
 7432POPC   NC339971  12.058  27.636   5.550
 7432POPC   PO439972  12.090  27.643   5.850
 7432POPC   GL139973  12.092  27.618   6.150
 7432POPC   GL239974  12.030  27.721   6.150
 7432POPC   C1A39975  12.059  27.618   6.450
 7432POPC   D2A39976  12.051  27.557   6.750
 7432POPC   C3A39977  12.095  27.561   7.050
 7432POPC   C4A39978  12.032  27.611   7.350
 7432POPC   C1B39979  12.065  27.886   6.450
 7432POPC   C2B39980  12.056  27.804   6.750
 7432POPC   C3B39981  12.101  27.888   7.050
 7432POPC   C4B39982  12.087  27.893   7.350
 7433POPC   NC339983  36.147  39.187   5.550
 7433POPC   PO439984  36.131  39.216   5.850
 7433POPC   GL139985  36.135  39.205   6.150
 7433POPC   GL239986  36.232  39.181   6.150
 7433POPC   C1A39987  36.096  39.280   6.450
 7433POPC   D2A39988  36.131  39.261   6.750
 7433POPC   C3A39989  36.120  39.224   7.050
 7433POPC   C4A39990  36.149  39.195   7.350
 7433POPC   C1B39991  36.312  39.094   6.450
 7433POPC   C2B39992  36.279  39.097   6.750
 7433POPC   C3B39993  36.298  39.064   7.050
 7433POPC   C4B39994  36.301  39.019   7.350
 7434POPC   NC339995  34.589  22.945   5.550
 7434POPC   PO439996  34.599  22.895   5.850
 7434POPC   GL139997  34.607  22.983   6.150
 7434POPC   GL239998  34.675  22.863   6.150
 7434POPC   C1A39999  34.564  22.925   6.450
 7434POPC   D2A40000  34.547  22.971   6.750
 7434POPC   C3A40001  34.567  22.969   7.050
 7434POPC   C4A40002  34.554  22.971   7.350
 7434POPC   C1B40003  34.718  22.691   6.450
 7434POPC   C2B40004  34.664  22.669   6.750
 7434POPC   C3B40005  34.682  22.698   7.050
 7434POPC   C4B40006  34.706  22.712   7.350
 7435POPC   NC340007   7.411  27.555   5.550
 7435POPC   PO440008   7.431  27.620   5.850
 7435POPC   GL140009   7.404  27.614   6.150
 7435POPC   GL240010   7.508  27.454   6.150
 7435POPC   C1A40011   7.461  27.590   6.450
 7435POPC   D2A40012   7.470  27.600   6.750
 7435POPC   C3A40013   7.453  27.622   7.050
 7435POPC   C4A40014   7.416  27.601   7.350
 7435POPC   C1B40015   7.550  27.444   6.450
 7435POPC   C2B40016   7.610  27.398   6.750
 7435POPC   C3B40017   7.573  27.352   7.050
 7435POPC   C4B40018   7.610  27.388   7.350
 7436POPC   NC340019  11.331  37.647   5.550
 7436POPC   PO440020  11.318  37.710   5.850
 7436POPC   GL140021  11.301  37.664   6.150
 7436POPC   GL240022  11.207  37.695   6.150
 7436POPC   C1A40023  11.318  37.661   6.450
 7436POPC   D2A40024  11.295  37.644   6.750
 7436POPC   C3A40025  11.340  37.631   7.050
 7436POPC   C4A40026  11.332  37.653   7.350
 7436POPC   C1B40027  11.029  37.779   6.450
 7436POPC   C2B40028  11.059  37.747   6.750
 7436POPC   C3B40029  11.039  37.700   7.050
 7436POPC   C4B40030  11.049  37.778   7.350
 7437POPC   NC340031  29.132  11.253   5.550
 7437POPC   PO440032  29.135  11.259   5.850
 7437POPC   GL140033  29.119  11.310   6.150
 7437POPC   GL240034  29.211  11.318   6.150
 7437POPC   C1A40035  29.143  11.330   6.450
 7437POPC   D2A40036  29.182  11.263   6.750
 7437POPC   C3A40037  29.096  11.329   7.050
 7437POPC   C4A40038  29.099  11.264   7.350
 7437POPC   C1B40039  29.383  11.463   6.450
 7437POPC   C2B40040  29.347  11.421   6.750
 7437POPC   C3B40041  29.317  11.425   7.050
 7437POPC   C4B40042  29.308  11.485   7.350
 7438POPC   NC340043  23.712  34.597   5.550
 7438POPC   PO440044  23.731  34.570   5.850
 7438POPC   GL140045  23.759  34.550   6.150
 7438POPC   GL240046  23.796  34.703   6.150
 7438POPC   C1A40047  23.688  34.535   6.450
 7438POPC   D2A40048  23.720  34.623   6.750
 7438POPC   C3A40049  23.697  34.538   7.050
 7438POPC   C4A40050  23.668  34.596   7.350
 7438POPC   C1B40051  23.809  34.827   6.450
 7438POPC   C2B40052  23.824  34.776   6.750
 7438POPC   C3B40053  23.759  34.822   7.050
 7438POPC   C4B40054  23.789  34.827   7.350
 7439POPC   NC340055  31.492  27.566   5.550
 7439POPC   PO440056  31.489  27.548   5.850
 7439POPC   GL140057  31.499  27.605   6.150
 7439POPC   GL240058  31.454  27.421   6.150
 7439POPC   C1A40059  31.502  27.641   6.450
 7439POPC   D2A40060  31.487  27.609   6.750
 7439POPC   C3A40061  31.463  27.577   7.050
 7439POPC   C4A40062  31.491  27.618   7.350
 7439POPC   C1B40063  31.516  27.320   6.450
 7439POPC   C2B40064  31.470  27.343   6.750
 7439POPC   C3B40065  31.472  27.394   7.050
 7439POPC   C4B40066  31.493  27.392   7.350
 7440POPC   NC340067  34.534  30.725   5.550
 7440POPC   PO440068  34.553  30.687   5.850
 7440POPC   GL140069  34.619  30.723   6.150
 7440POPC   GL240070  34.670  30.776   6.150
 7440POPC   C1A40071  34.611  30.669   6.450
 7440POPC   D2A40072  34.556  30.741   6.750
 7440POPC   C3A40073  34.532  30.733   7.050
 7440POPC   C4A40074  34.613  30.676   7.350
 7440POPC   C1B40075  34.717  30.918   6.450
 7440POPC   C2B40076  34.694  30.898   6.750
 7440POPC   C3B40077  34.680  30.912   7.050
 7440POPC   C4B40078  34.654  30.891   7.350
 7441POPC   NC340079  20.583  10.544   5.550
 7441POPC   PO440080  20.642  10.549   5.850
 7441POPC   GL140081  20.646  10.522   6.150
 7441POPC   GL240082  20.747  10.495   6.150
 7441POPC   C1A40083  20.585  10.477   6.450
 7441POPC   D2A40084  20.622  10.493   6.750
 7441POPC   C3A40085  20.614  10.503   7.050
 7441POPC   C4A40086  20.582  10.500   7.350
 7441POPC   C1B40087  20.787  10.329   6.450
 7441POPC   C2B40088  20.844  10.408   6.750
 7441POPC   C3B40089  20.805  10.389   7.050
 7441POPC   C4B40090  20.821  10.404   7.350
 7442POPC   NC340091  18.240  40.754   5.550
 7442POPC   PO440092  18.261  40.740   5.850
 7442POPC   GL140093  18.263  40.740   6.150
 7442POPC   GL240094  18.335  40.893   6.150
 7442POPC   C1A40095  18.300  40.815   6.450
 7442POPC   D2A40096  18.282  40.819   6.750
 7442POPC   C3A40097  18.285  40.811   7.050
 7442POPC   C4A40098  18.233  40.800   7.350
 7442POPC   C1B40099  18.380  41.006   6.450
 7442POPC   C2B40100  18.439  41.027   6.750
 7442POPC   C3B40101  18.385  40.950   7.050
 7442POPC   C4B40102  18.387  41.001   7.350
 7443POPC   NC340103   6.606   3.515   5.550
 7443POPC   PO440104   6.604   3.584   5.850
 7443POPC   GL140105   6.653   3.511   6.150
 7443POPC   GL240106   6.804   3.522   6.150
 7443POPC   C1A40107   6.637   3.538   6.450
 7443POPC   D2A40108   6.632   3.539   6.750
 7443POPC   C3A40109   6.664   3.574   7.050
 7443POPC   C4A40110   6.602   3.509   7.350
 7443POPC   C1B40111   6.898   3.537   6.450
 7443POPC   C2B40112   6.940   3.515   6.750
 7443POPC   C3B40113   6.891   3.538   7.050
 7443POPC   C4B40114   6.937   3.485   7.350
 7444POPC   NC340115  12.896  44.703   5.550
 7444POPC   PO440116  12.861  44.629   5.850
 7444POPC   GL140117  12.828  44.670   6.150
 7444POPC   GL240118  12.724  44.549   6.150
 7444POPC   C1A40119  12.842  44.701   6.450
 7444POPC   D2A40120  12.840  44.651   6.750
 7444POPC   C3A40121  12.850  44.664   7.050
 7444POPC   C4A40122  12.880  44.699   7.350
 7444POPC   C1B40123  12.672  44.531   6.450
 7444POPC   C2B40124  12.622  44.562   6.750
 7444POPC   C3B40125  12.637  44.540   7.050
 7444POPC   C4B40126  12.658  44.518   7.350
 7445POPC   NC340127  11.253  22.160   5.550
 7445POPC   PO440128  11.325  22.131   5.850
 7445POPC   GL140129  11.349  22.159   6.150
 7445POPC   GL240130  11.219  22.179   6.150
 7445POPC   C1A40131  11.328  22.153   6.450
 7445POPC   D2A40132  11.319  22.209   6.750
 7445POPC   C3A40133  11.310  22.172   7.050
 7445POPC   C4A40134  11.298  22.196   7.350
 7445POPC   C1B40135  11.031  22.197   6.450
 7445POPC   C2B40136  11.014  22.229   6.750
 7445POPC   C3B40137  11.094  22.167   7.050
 7445POPC   C4B40138  11.051  22.248   7.350
 7446POPC   NC340139   8.938  22.209   5.550
 7446POPC   PO440140   8.983  22.148   5.850
 7446POPC   GL140141   8.956  22.138   6.150
 7446POPC   GL240142   8.991  22.056   6.150
 7446POPC   C1A40143   8.958  22.212   6.450
 7446POPC   D2A40144   8.981  22.182   6.750
 7446POPC   C3A40145   8.952  22.211   7.050
 7446POPC   C4A40146   8.937  22.167   7.350
 7446POPC   C1B40147   8.884  21.962   6.450
 7446POPC   C2B40148   8.930  21.903   6.750
 7446POPC   C3B40149   8.880  21.901   7.050
 7446POPC   C4B40150   8.891  21.938   7.350
 7447POPC   NC340151  22.182  37.703   5.550
 7447POPC   PO440152  22.114  37.634   5.850
 7447POPC   GL140153  22.200  37.630   6.150
 7447POPC   GL240154  22.245  37.586   6.150
 7447POPC   C1A40155  22.170  37.698   6.450
 7447POPC   D2A40156  22.112  37.680   6.750
 7447POPC   C3A40157  22.165  37.643   7.050
 7447POPC   C4A40158  22.145  37.665   7.350
 7447POPC   C1B40159  22.353  37.494   6.450
 7447POPC   C2B40160  22.344  37.544   6.750
 7447POPC   C3B40161  22.383  37.538   7.050
 7447POPC   C4B40162  22.390  37.537   7.350
 7448POPC   NC340163  19.080  44.693   5.550
 7448POPC   PO440164  19.026  44.627   5.850
 7448POPC   GL140165  19.048  44.616   6.150
 7448POPC   GL240166  19.052  44.832   6.150
 7448POPC   C1A40167  19.056  44.632   6.450
 7448POPC   D2A40168  19.058  44.643   6.750
 7448POPC   C3A40169  19.076  44.678   7.050
 7448POPC   C4A40170  19.097  44.678   7.350
 7448POPC   C1B40171  18.987  44.860   6.450
 7448POPC   C2B40172  19.032  44.933   6.750
 7448POPC   C3B40173  18.957  44.907   7.050
 7448POPC   C4B40174  18.981  44.926   7.350
 7449POPC   NC340175  40.823  10.537   5.550
 7449POPC   PO440176  40.790  10.505   5.850
 7449POPC   GL140177  40.748  10.483   6.150
 7449POPC   GL240178  40.882  10.466   6.150
 7449POPC   C1A40179  40.773  10.494   6.450
 7449POPC   D2A40180  40.824  10.496   6.750
 7449POPC   C3A40181  40.748  10.478   7.050
 7449POPC   C4A40182  40.740  10.482   7.350
 7449POPC   C1B40183  40.964  10.352   6.450
 7449POPC   C2B40184  40.961  10.379   6.750
 7449POPC   C3B40185  40.969  10.332   7.050
 7449POPC   C4B40186  41.007  10.381   7.350
 7450POPC   NC340187  24.469  29.190   5.550
 7450POPC   PO440188  24.532  29.190   5.850
 7450POPC   GL140189  24.484  29.175   6.150
 7450POPC   GL240190  24.428  29.038   6.150
 7450POPC   C1A40191  24.474  29.129   6.450
 7450POPC   D2A40192  24.444  29.104   6.750
 7450POPC   C3A40193  24.505  29.099   7.050
 7450POPC   C4A40194  24.539  29.107   7.350
 7450POPC   C1B40195  24.318  28.951   6.450
 7450POPC   C2B40196  24.400  28.977   6.750
 7450POPC   C3B40197  24.332  28.973   7.050
 7450POPC   C4B40198  24.336  28.979   7.350
 7451POPC   NC340199  34.596   8.220   5.550
 7451POPC   PO440200  34.593   8.166   5.850
 7451POPC   GL140201  34.529   8.223   6.150
 7451POPC   GL240202  34.646   8.159   6.150
 7451POPC   C1A40203  34.545   8.169   6.450
 7451POPC   D2A40204  34.536   8.243   6.750
 7451POPC   C3A40205  34.540   8.240   7.050
 7451POPC   C4A40206  34.624   8.161   7.350
 7451POPC   C1B40207  34.826   8.023   6.450
 7451POPC   C2B40208  34.771   8.109   6.750
 7451POPC   C3B40209  34.802   8.117   7.050
 7451POPC   C4B40210  34.748   8.105   7.350
 7452POPC   NC340211   4.335  13.605   5.550
 7452POPC   PO440212   4.346  13.646   5.850
 7452POPC   GL140213   4.306  13.657   6.150
 7452POPC   GL240214   4.296  13.565   6.150
 7452POPC   C1A40215   4.336  13.628   6.450
 7452POPC   D2A40216   4.340  13.613   6.750
 7452POPC   C3A40217   4.309  13.620   7.050
 7452POPC   C4A40218   4.366  13.652   7.350
 7452POPC   C1B40219   4.195  13.420   6.450
 7452POPC   C2B40220   4.163  13.360   6.750
 7452POPC   C3B40221   4.210  13.432   7.050
 7452POPC   C4B40222   4.244  13.405   7.350
 7453POPC   NC340223   5.066   1.259   5.550
 7453POPC   PO440224   5.128   1.183   5.850
 7453POPC   GL140225   5.143   1.167   6.150
 7453POPC   GL240226   5.106   1.091   6.150
 7453POPC   C1A40227   5.059   1.244   6.450
 7453POPC   D2A40228   5.107   1.260   6.750
 7453POPC   C3A40229   5.119   1.257   7.050
 7453POPC   C4A40230   5.076   1.209   7.350
 7453POPC   C1B40231   5.132   0.942   6.450
 7453POPC   C2B40232   5.111   0.945   6.750
 7453POPC   C3B40233   5.136   0.970   7.050
 7453POPC   C4B40234   5.075   0.923   7.350
 7454POPC   NC340235  22.962  44.634   5.550
 7454POPC   PO440236  22.940  44.694   5.850
 7454POPC   GL140237  22.891  44.682   6.150
 7454POPC   GL240238  23.021  44.739   6.150
 7454POPC   C1A40239  22.976  44.699   6.450
 7454POPC   D2A40240  22.971  44.704   6.750
 7454POPC   C3A40241  22.936  44.682   7.050
 7454POPC   C4A40242  22.969  44.688   7.350
 7454POPC   C1B40243  23.050  44.858   6.450
 7454POPC   C2B40244  23.047  44.944   6.750
 7454POPC   C3B40245  22.987  44.902   7.050
 7454POPC   C4B40246  23.023  44.865   7.350
 7455POPC   NC340247   5.130  22.893   5.550
 7455POPC   PO440248   5.045  22.951   5.850
 7455POPC   GL140249   5.120  22.960   6.150
 7455POPC   GL240250   5.154  23.001   6.150
 7455POPC   C1A40251   5.106  22.906   6.450
 7455POPC   D2A40252   5.142  22.940   6.750
 7455POPC   C3A40253   5.138  22.968   7.050
 7455POPC   C4A40254   5.062  22.980   7.350
 7455POPC   C1B40255   5.316  23.026   6.450
 7455POPC   C2B40256   5.269  23.092   6.750
 7455POPC   C3B40257   5.328  23.053   7.050
 7455POPC   C4B40258   5.329  23.085   7.350
 7456POPC   NC340259  29.172  42.303   5.550
 7456POPC   PO440260  29.152  42.375   5.850
 7456POPC   GL140261  29.126  42.361   6.150
 7456POPC   GL240262  29.086  42.218   6.150
 7456POPC   C1A40263  29.195  42.366   6.450
 7456POPC   D2A40264  29.134  42.381   6.750
 7456POPC   C3A40265  29.121  42.289   7.050
 7456POPC   C4A40266  29.114  42.293   7.350
 7456POPC   C1B40267  29.132  42.046   6.450
 7456POPC   C2B40268  29.149  42.100   6.750
 7456POPC   C3B40269  29.087  42.045   7.050
 7456POPC   C4B40270  29.090  42.072   7.350
 7457POPC   NC340271   8.942  19.026   5.550
 7457POPC   PO440272   8.960  19.069   5.850
 7457POPC   GL140273   8.954  19.059   6.150
 7457POPC   GL240274   8.837  19.080   6.150
 7457POPC   C1A40275   9.007  19.016   6.450
 7457POPC   D2A40276   8.935  19.091   6.750
 7457POPC   C3A40277   9.005  19.054   7.050
 7457POPC   C4A40278   8.969  19.072   7.350
 7457POPC   C1B40279   8.675  19.093   6.450
 7457POPC   C2B40280   8.698  19.040   6.750
 7457POPC   C3B40281   8.707  19.110   7.050
 7457POPC   C4B40282   8.740  19.029   7.350
 7458POPC   NC340283  36.087  19.089   5.550
 7458POPC   PO440284  36.122  19.041   5.850
 7458POPC   GL140285  36.080  19.014   6.150
 7458POPC   GL240286  36.072  19.142   6.150
 7458POPC   C1A40287  36.169  19.022   6.450
 7458POPC   D2A40288  36.175  19.095   6.750
 7458POPC   C3A40289  36.151  19.067   7.050
 7458POPC   C4A40290  36.118  19.075   7.350
 7458POPC   C1B40291  36.046  19.280   6.450
 7458POPC   C2B40292  36.055  19.330   6.750
 7458POPC   C3B40293  36.082  19.347   7.050
 7458POPC   C4B40294  36.139  19.325   7.350
 7459POPC   NC340295  36.146   4.325   5.550
 7459POPC   PO440296  36.081   4.277   5.850
 7459POPC   GL140297  36.129   4.367   6.150
 7459POPC   GL240298  36.092   4.474   6.150
 7459POPC   C1A40299  36.117   4.355   6.450
 7459POPC   D2A40300  36.151   4.310   6.750
 7459POPC   C3A40301  36.139   4.296   7.050
 7459POPC   C4A40302  36.153   4.310   7.350
 7459POPC   C1B40303  36.088   4.521   6.450
 7459POPC   C2B40304  36.123   4.584   6.750
 7459POPC   C3B40305  36.092   4.569   7.050
 7459POPC   C4B40306  36.126   4.595   7.350
 7460POPC   NC340307  43.853  23.760   5.550
 7460POPC   PO440308  43.876  23.703   5.850
 7460POPC   GL140309  43.870  23.668   6.150
 7460POPC   GL240310  44.038  23.748   6.150
 7460POPC   C1A40311  43.900  23.708   6.450
 7460POPC   D2A40312  43.853  23.695   6.750
 7460POPC   C3A40313  43.864  23.753   7.050
 7460POPC   C4A40314  43.869  23.729   7.350
 7460POPC   C1B40315  44.116  23.739   6.450
 7460POPC   C2B40316  44.149  23.752   6.750
 7460POPC   C3B40317  44.098  23.741   7.050
 7460POPC   C4B40318  44.147  23.786   7.350
 7461POPC   NC340319   1.243  19.009   5.550
 7461POPC   PO440320   1.227  19.077   5.850
 7461POPC   GL140321   1.245  19.027   6.150
 7461POPC   GL240322   1.056  19.036   6.150
 7461POPC   C1A40323   1.248  19.043   6.450
 7461POPC   D2A40324   1.191  19.065   6.750
 7461POPC   C3A40325   1.187  19.099   7.050
 7461POPC   C4A40326   1.245  19.096   7.350
 7461POPC   C1B40327   0.989  18.956   6.450
 7461POPC   C2B40328   0.942  18.983   6.750
 7461POPC   C3B40329   0.976  19.045   7.050
 7461POPC   C4B40330   0.949  18.948   7.350
 7462POPC   NC340331  29.131  26.839   5.550
 7462POPC   PO440332  29.159  26.794   5.850
 7462POPC   GL140333  29.147  26.786   6.150
 7462POPC   GL240334  29.008  26.828   6.150
 7462POPC   C1A40335  29.140  26.781   6.450
 7462POPC   D2A40336  29.116  26.847   6.750
 7462POPC   C3A40337  29.107  26.822   7.050
 7462POPC   C4A40338  29.175  26.861   7.350
 7462POPC   C1B40339  28.941  26.869   6.450
 7462POPC   C2B40340  28.911  26.817   6.750
 7462POPC   C3B40341  28.920  26.890   7.050
 7462POPC   C4B40342  28.877  26.875   7.350
 7463POPC   NC340343  13.659  28.320   5.550
 7463POPC   PO440344  13.594  28.402   5.850
 7463POPC   GL140345  13.672  28.340   6.150
 7463POPC   GL240346  13.543  28.419   6.150
 7463POPC   C1A40347  13.612  28.347   6.450
 7463POPC   D2A40348  13.594  28.356   6.750
 7463POPC   C3A40349  13.647  28.403   7.050
 7463POPC   C4A40350  13.650  28.393   7.350
 7463POPC   C1B40351  13.466  28.584   6.450
 7463POPC   C2B40352  13.500  28.513   6.750
 7463POPC   C3B40353  13.504  28.528   7.050
 7463POPC   C4B40354  13.497  28.523   7.350
 7464POPC   NC340355  32.977   8.956   5.550
 7464POPC   PO440356  32.995   8.985   5.850
 7464POPC   GL140357  33.044   8.941   6.150
 7464POPC   GL240358  33.167   8.905   6.150
 7464POPC   C1A40359  33.027   8.933   6.450
 7464POPC   D2A40360  33.018   8.953   6.750
 7464POPC   C3A40361  32.983   8.937   7.050
 7464POPC   C4A40362  33.050   8.936   7.350
 7464POPC   C1B40363  33.179   8.794   6.450
 7464POPC   C2B40364  33.181   8.857   6.750
 7464POPC   C3B40365  33.186   8.824   7.050
 7464POPC   C4B40366  33.205   8.830   7.350
 7465POPC   NC340367  28.402  41.581   5.550
 7465POPC   PO440368  28.415  41.524   5.850
 7465POPC   GL140369  28.327  41.539   6.150
 7465POPC   GL240370  28.445  41.655   6.150
 7465POPC   C1A40371  28.333  41.569   6.450
 7465POPC   D2A40372  28.353  41.584   6.750
 7465POPC   C3A40373  28.361  41.601   7.050
 7465POPC   C4A40374  28.377  41.533   7.350
 7465POPC   C1B40375  28.593  41.742   6.450
 7465POPC   C2B40376  28.565  41.740   6.750
 7465POPC   C3B40377  28.533  41.763   7.050
 7465POPC   C4B40378  28.521  41.760   7.350
 7466POPC   NC340379  37.700  43.907   5.550
 7466POPC   PO440380  37.697  43.880   5.850
 7466POPC   GL140381  37.682  43.926   6.150
 7466POPC   GL240382  37.669  43.787   6.150
 7466POPC   C1A40383  37.657  43.930   6.450
 7466POPC   D2A40384  37.720  43.912   6.750
 7466POPC   C3A40385  37.631  43.896   7.050
 7466POPC   C4A40386  37.656  43.854   7.350
 7466POPC   C1B40387  37.685  43.654   6.450
 7466POPC   C2B40388  37.712  43.667   6.750
 7466POPC   C3B40389  37.654  43.608   7.050
 7466POPC   C4B40390  37.683  43.641   7.350
 7467POPC   NC340391  33.066  14.414   5.550
 7467POPC   PO440392  33.028  14.445   5.850
 7467POPC   GL140393  33.064  14.427   6.150
 7467POPC   GL240394  33.142  14.382   6.150
 7467POPC   C1A40395  33.037  14.376   6.450
 7467POPC   D2A40396  33.051  14.378   6.750
 7467POPC   C3A40397  32.998  14.378   7.050
 7467POPC   C4A40398  33.027  14.387   7.350
 7467POPC   C1B40399  33.219  14.295   6.450
 7467POPC   C2B40400  33.304  14.321   6.750
 7467POPC   C3B40401  33.248  14.333   7.050
 7467POPC   C4B40402  33.275  14.296   7.350
 7468POPC   NC340403  31.424   6.631   5.550
 7468POPC   PO440404  31.487   6.683   5.850
 7468POPC   GL140405  31.513   6.615   6.150
 7468POPC   GL240406  31.425   6.681   6.150
 7468POPC   C1A40407  31.503   6.674   6.450
 7468POPC   D2A40408  31.458   6.678   6.750
 7468POPC   C3A40409  31.473   6.660   7.050
 7468POPC   C4A40410  31.481   6.602   7.350
 7468POPC   C1B40411  31.237   6.832   6.450
 7468POPC   C2B40412  31.272   6.797   6.750
 7468POPC   C3B40413  31.234   6.853   7.050
 7468POPC   C4B40414  31.291   6.771   7.350
 7469POPC   NC340415   9.756  21.413   5.550
 7469POPC   PO440416   9.766  21.411   5.850
 7469POPC   GL140417   9.739  21.425   6.150
 7469POPC   GL240418   9.722  21.236   6.150
 7469POPC   C1A40419   9.779  21.371   6.450
 7469POPC   D2A40420   9.750  21.374   6.750
 7469POPC   C3A40421   9.716  21.417   7.050
 7469POPC   C4A40422   9.716  21.354   7.350
 7469POPC   C1B40423   9.745  21.168   6.450
 7469POPC   C2B40424   9.778  21.116   6.750
 7469POPC   C3B40425   9.711  21.173   7.050
 7469POPC   C4B40426   9.732  21.091   7.350
 7470POPC   NC340427  20.624  13.615   5.550
 7470POPC   PO440428  20.567  13.614   5.850
 7470POPC   GL140429  20.654  13.608   6.150
 7470POPC   GL240430  20.487  13.571   6.150
 7470POPC   C1A40431  20.561  13.651   6.450
 7470POPC   D2A40432  20.650  13.589   6.750
 7470POPC   C3A40433  20.564  13.625   7.050
 7470POPC   C4A40434  20.622  13.674   7.350
 7470POPC   C1B40435  20.389  13.527   6.450
 7470POPC   C2B40436  20.449  13.513   6.750
 7470POPC   C3B40437  20.390  13.475   7.050
 7470POPC   C4B40438  20.448  13.467   7.350
 7471POPC   NC340439  36.890  39.189   5.550
 7471POPC   PO440440  36.860  39.185   5.850
 7471POPC   GL140441  36.873  39.198   6.150
 7471POPC   GL240442  36.876  39.090   6.150
 7471POPC   C1A40443  36.940  39.235   6.450
 7471POPC   D2A40444  36.881  39.268   6.750
 7471POPC   C3A40445  36.895  39.223   7.050
 7471POPC   C4A40446  36.872  39.265   7.350
 7471POPC   C1B40447  36.843  39.039   6.450
 7471POPC   C2B40448  36.816  38.989   6.750
 7471POPC   C3B40449  36.808  39.020   7.050
 7471POPC   C4B40450  36.852  39.006   7.350
 7472POPC   NC340451  40.049  42.371   5.550
 7472POPC   PO440452  40.051  42.335   5.850
 7472POPC   GL140453  40.032  42.286   6.150
 7472POPC   GL240454  40.174  42.318   6.150
 7472POPC   C1A40455  40.017  42.331   6.450
 7472POPC   D2A40456  39.968  42.380   6.750
 7472POPC   C3A40457  39.984  42.339   7.050
 7472POPC   C4A40458  40.020  42.291   7.350
 7472POPC   C1B40459  40.220  42.256   6.450
 7472POPC   C2B40460  40.238  42.344   6.750
 7472POPC   C3B40461  40.230  42.283   7.050
 7472POPC   C4B40462  40.297  42.282   7.350
 7473POPC   NC340463  16.778   2.802   5.550
 7473POPC   PO440464  16.763   2.738   5.850
 7473POPC   GL140465  16.682   2.722   6.150
 7473POPC   GL240466  16.675   2.866   6.150
 7473POPC   C1A40467  16.724   2.759   6.450
 7473POPC   D2A40468  16.769   2.775   6.750
 7473POPC   C3A40469  16.710   2.797   7.050
 7473POPC   C4A40470  16.774   2.742   7.350
 7473POPC   C1B40471  16.594   2.962   6.450
 7473POPC   C2B40472  16.606   2.953   6.750
 7473POPC   C3B40473  16.641   2.944   7.050
 7473POPC   C4B40474  16.587   3.005   7.350
 7474POPC   NC340475  15.935  12.840   5.550
 7474POPC   PO440476  15.906  12.872   5.850
 7474POPC   GL140477  15.998  12.876   6.150
 7474POPC   GL240478  15.954  12.985   6.150
 7474POPC   C1A40479  15.985  12.861   6.450
 7474POPC   D2A40480  15.908  12.890   6.750
 7474POPC   C3A40481  15.977  12.855   7.050
 7474POPC   C4A40482  15.951  12.889   7.350
 7474POPC   C1B40483  16.003  13.090   6.450
 7474POPC   C2B40484  16.033  13.081   6.750
 7474POPC   C3B40485  16.072  13.087   7.050
 7474POPC   C4B40486  16.045  13.043   7.350
 7475POPC   NC340487  22.943  26.779   5.550
 7475POPC   PO440488  22.967  26.771   5.850
 7475POPC   GL140489  22.912  26.860   6.150
 7475POPC   GL240490  22.797  26.759   6.150
 7475POPC   C1A40491  22.903  26.837   6.450
 7475POPC   D2A40492  22.929  26.861   6.750
 7475POPC   C3A40493  22.941  26.773   7.050
 7475POPC   C4A40494  22.982  26.837   7.350
 7475POPC   C1B40495  22.704  26.706   6.450
 7475POPC   C2B40496  22.665  26.701   6.750
 7475POPC   C3B40497  22.742  26.779   7.050
 7475POPC   C4B40498  22.660  26.712   7.350
 7476POPC   NC340499  12.806  35.340   5.550
 7476POPC   PO440500  12.836  35.402   5.850
 7476POPC   GL140501  12.837  35.381   6.150
 7476POPC   GL240502  12.779  35.251   6.150
 7476POPC   C1A40503  12.873  35.360   6.450
 7476POPC   D2A40504  12.867  35.390   6.750
 7476POPC   C3A40505  12.877  35.378   7.050
 7476POPC   C4A40506  12.831  35.342   7.350
 7476POPC   C1B40507  12.602  35.217   6.450
 7476POPC   C2B40508  12.610  35.177   6.750
 7476POPC   C3B40509  12.618  35.225   7.050
 7476POPC   C4B40510  12.678  35.228   7.350
 7477POPC   NC340511  12.065   3.591   5.550
 7477POPC   PO440512  12.054   3.508   5.850
 7477POPC   GL140513  12.034   3.503   6.150
 7477POPC   GL240514  12.129   3.425   6.150
 7477POPC   C1A40515  12.106   3.507   6.450
 7477POPC   D2A40516  12.104   3.539   6.750
 7477POPC   C3A40517  12.112   3.560   7.050
 7477POPC   C4A40518  12.031   3.509   7.350
 7477POPC   C1B40519  12.166   3.288   6.450
 7477POPC   C2B40520  12.198   3.346   6.750
 7477POPC   C3B40521  12.120   3.296   7.050
 7477POPC   C4B40522  12.162   3.337   7.350
 7478POPC   NC340523  40.741  27.554   5.550
 7478POPC   PO440524  40.787  27.544   5.850
 7478POPC   GL140525  40.821  27.586   6.150
 7478POPC   GL240526  40.936  27.695   6.150
 7478POPC   C1A40527  40.811  27.641   6.450
 7478POPC   D2A40528  40.796  27.632   6.750
 7478POPC   C3A40529  40.809  27.561   7.050
 7478POPC   C4A40530  40.753  27.601   7.350
 7478POPC   C1B40531  41.029  27.701   6.450
 7478POPC   C2B40532  40.996  27.723   6.750
 7478POPC   C3B40533  41.015  27.727   7.050
 7478POPC   C4B40534  40.958  27.776   7.350
 7479POPC   NC340535  43.094  29.933   5.550
 7479POPC   PO440536  43.091  29.960   5.850
 7479POPC   GL140537  43.112  29.899   6.150
 7479POPC   GL240538  43.094  30.046   6.150
 7479POPC   C1A40539  43.072  29.920   6.450
 7479POPC   D2A40540  43.128  29.883   6.750
 7479POPC   C3A40541  43.103  29.934   7.050
 7479POPC   C4A40542  43.100  29.966   7.350
 7479POPC   C1B40543  43.049  30.117   6.450
 7479POPC   C2B40544  42.979  30.144   6.750
 7479POPC   C3B40545  43.030  30.107   7.050
 7479POPC   C4B40546  43.041  30.136   7.350
 7480POPC   NC340547  36.924  42.355   5.550
 7480POPC   PO440548  36.910  42.379   5.850
 7480POPC   GL140549  36.873  42.346   6.150
 7480POPC   GL240550  36.756  42.379   6.150
 7480POPC   C1A40551  36.869  42.350   6.450
 7480POPC   D2A40552  36.865  42.319   6.750
 7480POPC   C3A40553  36.898  42.320   7.050
 7480POPC   C4A40554  36.916  42.345   7.350
 7480POPC   C1B40555  36.697  42.414   6.450
 7480POPC   C2B40556  36.642  42.447   6.750
 7480POPC   C3B40557  36.651  42.479   7.050
 7480POPC   C4B40558  36.702  42.471   7.350
 7481POPC   NC340559  15.936  38.410   5.550
 7481POPC   PO440560  15.961  38.502   5.850
 7481POPC   GL140561  15.991  38.435   6.150
 7481POPC   GL240562  15.920  38.512   6.150
 7481POPC   C1A40563  15.989  38.487   6.450
 7481POPC   D2A40564  15.909  38.425   6.750
 7481POPC   C3A40565  15.968  38.427   7.050
 7481POPC   C4A40566  15.993  38.491   7.350
 7481POPC   C1B40567  15.841  38.631   6.450
 7481POPC   C2B40568  15.782  38.678   6.750
 7481POPC   C3B40569  15.779  38.651   7.050
 7481POPC   C4B40570  15.851  38.682   7.350
 7482POPC   NC340571  33.035   7.393   5.550
 7482POPC   PO440572  33.068   7.412   5.850
 7482POPC   GL140573  33.045   7.407   6.150
 7482POPC   GL240574  33.192   7.387   6.150
 7482POPC   C1A40575  33.030   7.467   6.450
 7482POPC   D2A40576  33.032   7.465   6.750
 7482POPC   C3A40577  33.013   7.456   7.050
 7482POPC   C4A40578  33.018   7.435   7.350
 7482POPC   C1B40579  33.285   7.396   6.450
 7482POPC   C2B40580  33.321   7.459   6.750
 7482POPC   C3B40581  33.290   7.404   7.050
 7482POPC   C4B40582  33.288   7.434   7.350
 7483POPC   NC340583  40.812  13.606   5.550
 7483POPC   PO440584  40.764  13.578   5.850
 7483POPC   GL140585  40.804  13.584   6.150
 7483POPC   GL240586  40.882  13.645   6.150
 7483POPC   C1A40587  40.772  13.670   6.450
 7483POPC   D2A40588  40.779  13.603   6.750
 7483POPC   C3A40589  40.784  13.614   7.050
 7483POPC   C4A40590  40.766  13.599   7.350
 7483POPC   C1B40591  41.003  13.622   6.450
 7483POPC   C2B40592  41.063  13.571   6.750
 7483POPC   C3B40593  41.047  13.620   7.050
 7483POPC   C4B40594  41.033  13.539   7.350
 7484POPC   NC340595  26.054  27.583   5.550
 7484POPC   PO440596  26.085  27.615   5.850
 7484POPC   GL140597  26.003  27.545   6.150
 7484POPC   GL240598  26.150  27.658   6.150
 7484POPC   C1A40599  26.019  27.611   6.450
 7484POPC   D2A40600  26.003  27.548   6.750
 7484POPC   C3A40601  26.037  27.577   7.050
 7484POPC   C4A40602  25.996  27.602   7.350
 7484POPC   C1B40603  26.206  27.742   6.450
 7484POPC   C2B40604  26.265  27.766   6.750
 7484POPC   C3B40605  26.285  27.741   7.050
 7484POPC   C4B40606  26.230  27.784   7.350
 7485POPC   NC340607  32.234  10.487   5.550
 7485POPC   PO440608  32.223  10.524   5.850
 7485POPC   GL140609  32.271  10.531   6.150
 7485POPC   GL240610  32.166  10.628   6.150
 7485POPC   C1A40611  32.244  10.493   6.450
 7485POPC   D2A40612  32.249  10.534   6.750
 7485POPC   C3A40613  32.259  10.488   7.050
 7485POPC   C4A40614  32.212  10.491   7.350
 7485POPC   C1B40615  32.127  10.764   6.450
 7485POPC   C2B40616  32.087  10.743   6.750
 7485POPC   C3B40617  32.109  10.737   7.050
 7485POPC   C4B40618  32.062  10.689   7.350
 7486POPC   NC340619  29.925  19.108   5.550
 7486POPC   PO440620  29.898  19.026   5.850
 7486POPC   GL140621  29.953  19.069   6.150
 7486POPC   GL240622  29.974  18.972   6.150
 7486POPC   C1A40623  29.905  19.024   6.450
 7486POPC   D2A40624  29.950  19.100   6.750
 7486POPC   C3A40625  29.966  19.071   7.050
 7486POPC   C4A40626  29.919  19.075   7.350
 7486POPC   C1B40627  30.082  18.861   6.450
 7486POPC   C2B40628  30.109  18.859   6.750
 7486POPC   C3B40629  30.090  18.841   7.050
 7486POPC   C4B40630  30.118  18.819   7.350
 7487POPC   NC340631  11.332   8.233   5.550
 7487POPC   PO440632  11.334   8.155   5.850
 7487POPC   GL140633  11.309   8.206   6.150
 7487POPC   GL240634  11.282   8.270   6.150
 7487POPC   C1A40635  11.296   8.229   6.450
 7487POPC   D2A40636  11.286   8.177   6.750
 7487POPC   C3A40637  11.313   8.185   7.050
 7487POPC   C4A40638  11.299   8.218   7.350
 7487POPC   C1B40639  11.177   8.443   6.450
 7487POPC   C2B40640  11.212   8.410   6.750
 7487POPC   C3B40641  11.174   8.480   7.050
 7487POPC   C4B40642  11.256   8.385   7.350
 7488POPC   NC340643  31.447   9.770   5.550
 7488POPC   PO440644  31.458   9.752   5.850
 7488POPC   GL140645  31.502   9.792   6.150
 7488POPC   GL240646  31.464   9.904   6.150
 7488POPC   C1A40647  31.507   9.732   6.450
 7488POPC   D2A40648  31.503   9.752   6.750
 7488POPC   C3A40649  31.490   9.790   7.050
 7488POPC   C4A40650  31.483   9.790   7.350
 7488POPC   C1B40651  31.550  10.033   6.450
 7488POPC   C2B40652  31.514  10.020   6.750
 7488POPC   C3B40653  31.519   9.954   7.050
 7488POPC   C4B40654  31.546   9.999   7.350
 7489POPC   NC340655  42.319  18.312   5.550
 7489POPC   PO440656  42.345  18.266   5.850
 7489POPC   GL140657  42.379  18.236   6.150
 7489POPC   GL240658  42.288  18.343   6.150
 7489POPC   C1A40659  42.287  18.236   6.450
 7489POPC   D2A40660  42.294  18.256   6.750
 7489POPC   C3A40661  42.376  18.287   7.050
 7489POPC   C4A40662  42.336  18.239   7.350
 7489POPC   C1B40663  42.208  18.442   6.450
 7489POPC   C2B40664  42.218  18.522   6.750
 7489POPC   C3B40665  42.194  18.440   7.050
 7489POPC   C4B40666  42.159  18.510   7.350
 7490POPC   NC340667  28.407  25.269   5.550
 7490POPC   PO440668  28.358  25.249   5.850
 7490POPC   GL140669  28.337  25.304   6.150
 7490POPC   GL240670  28.467  25.224   6.150
 7490POPC   C1A40671  28.325  25.222   6.450
 7490POPC   D2A40672  28.390  25.276   6.750
 7490POPC   C3A40673  28.388  25.250   7.050
 7490POPC   C4A40674  28.342  25.313   7.350
 7490POPC   C1B40675  28.658  25.283   6.450
 7490POPC   C2B40676  28.586  25.226   6.750
 7490POPC   C3B40677  28.586  25.254   7.050
 7490POPC   C4B40678  28.585  25.268   7.350
 7491POPC   NC340679  12.118  43.107   5.550
 7491POPC   PO440680  12.031  43.109   5.850
 7491POPC   GL140681  12.040  43.072   6.150
 7491POPC   GL240682  11.998  42.989   6.150
 7491POPC   C1A40683  12.090  43.070   6.450
 7491POPC   D2A40684  12.107  43.075   6.750
 7491POPC   C3A40685  12.059  43.139   7.050
 7491POPC   C4A40686  12.094  43.066   7.350
 7491POPC   C1B40687  11.909  42.914   6.450
 7491POPC   C2B40688  11.908  42.881   6.750
 7491POPC   C3B40689  11.863  42.878   7.050
 7491POPC   C4B40690  11.928  42.952   7.350
 7492POPC   NC340691  16.757  29.187   5.550
 7492POPC   PO440692  16.719  29.101   5.850
 7492POPC   GL140693  16.718  29.124   6.150
 7492POPC   GL240694  16.749  29.313   6.150
 7492POPC   C1A40695  16.744  29.143   6.450
 7492POPC   D2A40696  16.755  29.111   6.750
 7492POPC   C3A40697  16.767  29.177   7.050
 7492POPC   C4A40698  16.713  29.136   7.350
 7492POPC   C1B40699  16.696  29.433   6.450
 7492POPC   C2B40700  16.765  29.420   6.750
 7492POPC   C3B40701  16.749  29.362   7.050
 7492POPC   C4B40702  16.755  29.440   7.350
 7493POPC   NC340703  15.179   6.632   5.550
 7493POPC   PO440704  15.170   6.636   5.850
 7493POPC   GL140705  15.226   6.695   6.150
 7493POPC   GL240706  15.204   6.539   6.150
 7493POPC   C1A40707  15.168   6.655   6.450
 7493POPC   D2A40708  15.213   6.603   6.750
 7493POPC   C3A40709  15.207   6.619   7.050
 7493POPC   C4A40710  15.202   6.671   7.350
 7493POPC   C1B40711  15.191   6.423   6.450
 7493POPC   C2B40712  15.146   6.348   6.750
 7493POPC   C3B40713  15.159   6.356   7.050
 7493POPC   C4B40714  15.150   6.426   7.350
 7494POPC   NC340715   1.982  12.864   5.550
 7494POPC   PO440716   1.993  12.833   5.850
 7494POPC   GL140717   1.956  12.879   6.150
 7494POPC   GL240718   1.999  12.985   6.150
 7494POPC   C1A40719   2.024  12.861   6.450
 7494POPC   D2A40720   1.988  12.813   6.750
 7494POPC   C3A40721   1.981  12.883   7.050
 7494POPC   C4A40722   2.019  12.899   7.350
 7494POPC   C1B40723   2.000  13.107   6.450
 7494POPC   C2B40724   1.985  13.128   6.750
 7494POPC   C3B40725   2.022  13.055   7.050
 7494POPC   C4B40726   1.985  13.084   7.350
 7495POPC   NC340727   5.852  14.385   5.550
 7495POPC   PO440728   5.853  14.361   5.850
 7495POPC   GL140729   5.896  14.451   6.150
 7495POPC   GL240730   5.794  14.357   6.150
 7495POPC   C1A40731   5.840  14.414   6.450
 7495POPC   D2A40732   5.868  14.366   6.750
 7495POPC   C3A40733   5.831  14.372   7.050
 7495POPC   C4A40734   5.891  14.414   7.350
 7495POPC   C1B40735   5.738  14.192   6.450
 7495POPC   C2B40736   5.703  14.258   6.750
 7495POPC   C3B40737   5.730  14.163   7.050
 7495POPC   C4B40738   5.675  14.241   7.350
 7496POPC   NC340739  23.681  26.007   5.550
 7496POPC   PO440740  23.725  26.055   5.850
 7496POPC   GL140741  23.674  26.064   6.150
 7496POPC   GL240742  23.628  26.091   6.150
 7496POPC   C1A40743  23.735  26.059   6.450
 7496POPC   D2A40744  23.752  25.996   6.750
 7496POPC   C3A40745  23.702  26.029   7.050
 7496POPC   C4A40746  23.669  26.017   7.350
 7496POPC   C1B40747  23.473  26.149   6.450
 7496POPC   C2B40748  23.454  26.153   6.750
 7496POPC   C3B40749  23.438  26.134   7.050
 7496POPC   C4B40750  23.481  26.086   7.350
 7497POPC   NC340751  36.942  20.600   5.550
 7497POPC   PO440752  36.898  20.660   5.850
 7497POPC   GL140753  36.944  20.562   6.150
 7497POPC   GL240754  36.756  20.689   6.150
 7497POPC   C1A40755  36.886  20.620   6.450
 7497POPC   D2A40756  36.930  20.599   6.750
 7497POPC   C3A40757  36.945  20.634   7.050
 7497POPC   C4A40758  36.923  20.660   7.350
 7497POPC   C1B40759  36.686  20.693   6.450
 7497POPC   C2B40760  36.641  20.700   6.750
 7497POPC   C3B40761  36.642  20.753   7.050
 7497POPC   C4B40762  36.643  20.705   7.350
 7498POPC   NC340763  29.147  38.479   5.550
 7498POPC   PO440764  29.115  38.454   5.850
 7498POPC   GL140765  29.135  38.462   6.150
 7498POPC   GL240766  28.980  38.413   6.150
 7498POPC   C1A40767  29.112  38.432   6.450
 7498POPC   D2A40768  29.121  38.483   6.750
 7498POPC   C3A40769  29.179  38.409   7.050
 7498POPC   C4A40770  29.096  38.498   7.350
 7498POPC   C1B40771  28.939  38.349   6.450
 7498POPC   C2B40772  28.879  38.397   6.750
 7498POPC   C3B40773  28.917  38.384   7.050
 7498POPC   C4B40774  28.888  38.334   7.350
 7499POPC   NC340775  36.932  32.259   5.550
 7499POPC   PO440776  36.856  32.240   5.850
 7499POPC   GL140777  36.952  32.281   6.150
 7499POPC   GL240778  36.794  32.264   6.150
 7499POPC   C1A40779  36.943  32.260   6.450
 7499POPC   D2A40780  36.906  32.273   6.750
 7499POPC   C3A40781  36.870  32.216   7.050
 7499POPC   C4A40782  36.919  32.285   7.350
 7499POPC   C1B40783  36.610  32.324   6.450
 7499POPC   C2B40784  36.660  32.244   6.750
 7499POPC   C3B40785  36.694  32.264   7.050
 7499POPC   C4B40786  36.621  32.319   7.350
 7500POPC   NC340787  30.705  24.501   5.550
 7500POPC   PO440788  30.726  24.478   5.850
 7500POPC   GL140789  30.697  24.467   6.150
 7500POPC   GL240790  30.613  24.562   6.150
 7500POPC   C1A40791  30.710  24.531   6.450
 7500POPC   D2A40792  30.693  24.455   6.750
 7500POPC   C3A40793  30.703  24.526   7.050
 7500POPC   C4A40794  30.660  24.521   7.350
 7500POPC   C1B40795  30.506  24.562   6.450
 7500POPC   C2B40796  30.515  24.608   6.750
 7500POPC   C3B40797  30.507  24.592   7.050
 7500POPC   C4B40798  30.513  24.618   7.350
 7501POPC   NC340799  18.282  37.636   5.550
 7501POPC   PO440800  18.330  37.668   5.850
 7501POPC   GL140801  18.306  37.689   6.150
 7501POPC   GL240802  18.423  37.746   6.150
 7501POPC   C1A40803  18.324  37.687   6.450
 7501POPC   D2A40804  18.249  37.651   6.750
 7501POPC   C3A40805  18.274  37.649   7.050
 7501POPC   C4A40806  18.241  37.636   7.350
 7501POPC   C1B40807  18.510  37.675   6.450
 7501POPC   C2B40808  18.535  37.695   6.750
 7501POPC   C3B40809  18.503  37.746   7.050
 7501POPC   C4B40810  18.517  37.724   7.350
 7502POPC   NC340811   4.282   1.962   5.550
 7502POPC   PO440812   4.349   1.985   5.850
 7502POPC   GL140813   4.276   1.946   6.150
 7502POPC   GL240814   4.382   2.027   6.150
 7502POPC   C1A40815   4.289   2.011   6.450
 7502POPC   D2A40816   4.350   2.033   6.750
 7502POPC   C3A40817   4.305   1.973   7.050
 7502POPC   C4A40818   4.270   2.032   7.350
 7502POPC   C1B40819   4.509   2.173   6.450
 7502POPC   C2B40820   4.521   2.124   6.750
 7502POPC   C3B40821   4.482   2.158   7.050
 7502POPC   C4B40822   4.546   2.169   7.350
 7503POPC   NC340823   8.990  23.751   5.550
 7503POPC   PO440824   8.991  23.729   5.850
 7503POPC   GL140825   9.018  23.680   6.150
 7503POPC   GL240826   8.804  23.750   6.150
 7503POPC   C1A40827   8.994  23.755   6.450
 7503POPC   D2A40828   8.987  23.742   6.750
 7503POPC   C3A40829   8.995  23.761   7.050
 7503POPC   C4A40830   8.992  23.667   7.350
 7503POPC   C1B40831   8.692  23.737   6.450
 7503POPC   C2B40832   8.727  23.741   6.750
 7503POPC   C3B40833   8.696  23.763   7.050
 7503POPC   C4B40834   8.737  23.731   7.350
 7504POPC   NC340835  36.124  35.376   5.550
 7504POPC   PO440836  36.126  35.344   5.850
 7504POPC   GL140837  36.144  35.331   6.150
 7504POPC   GL240838  36.076  35.233   6.150
 7504POPC   C1A40839  36.100  35.333   6.450
 7504POPC   D2A40840  36.095  35.355   6.750
 7504POPC   C3A40841  36.090  35.303   7.050
 7504POPC   C4A40842  36.152  35.377   7.350
 7504POPC   C1B40843  35.920  35.184   6.450
 7504POPC   C2B40844  35.946  35.189   6.750
 7504POPC   C3B40845  35.963  35.190   7.050
 7504POPC   C4B40846  35.970  35.134   7.350
 7505POPC   NC340847  32.240   7.435   5.550
 7505POPC   PO440848  32.225   7.399   5.850
 7505POPC   GL140849  32.289   7.449   6.150
 7505POPC   GL240850  32.177   7.369   6.150
 7505POPC   C1A40851  32.229   7.434   6.450
 7505POPC   D2A40852  32.295   7.378   6.750
 7505POPC   C3A40853  32.283   7.376   7.050
 7505POPC   C4A40854  32.263   7.381   7.350
 7505POPC   C1B40855  32.035   7.235   6.450
 7505POPC   C2B40856  32.079   7.241   6.750
 7505POPC   C3B40857  32.025   7.244   7.050
 7505POPC   C4B40858  32.096   7.238   7.350
 7506POPC   NC340859   7.401  19.104   5.550
 7506POPC   PO440860   7.419  19.105   5.850
 7506POPC   GL140861   7.455  19.057   6.150
 7506POPC   GL240862   7.451  19.216   6.150
 7506POPC   C1A40863   7.448  19.046   6.450
 7506POPC   D2A40864   7.394  19.077   6.750
 7506POPC   C3A40865   7.452  19.057   7.050
 7506POPC   C4A40866   7.447  19.085   7.350
 7506POPC   C1B40867   7.482  19.320   6.450
 7506POPC   C2B40868   7.388  19.324   6.750
 7506POPC   C3B40869   7.458  19.306   7.050
 7506POPC   C4B40870   7.479  19.272   7.350
 7507POPC   NC340871  15.186  43.063   5.550
 7507POPC   PO440872  15.217  43.101   5.850
 7507POPC   GL140873  15.167  43.140   6.150
 7507POPC   GL240874  15.283  43.002   6.150
 7507POPC   C1A40875  15.151  43.118   6.450
 7507POPC   D2A40876  15.133  43.085   6.750
 7507POPC   C3A40877  15.220  43.076   7.050
 7507POPC   C4A40878  15.150  43.124   7.350
 7507POPC   C1B40879  15.275  42.854   6.450
 7507POPC   C2B40880  15.332  42.926   6.750
 7507POPC   C3B40881  15.330  42.853   7.050
 7507POPC   C4B40882  15.265  42.933   7.350
 7508POPC   NC340883  22.190  31.491   5.550
 7508POPC   PO440884  22.190  31.490   5.850
 7508POPC   GL140885  22.186  31.471   6.150
 7508POPC   GL240886  22.154  31.304   6.150
 7508POPC   C1A40887  22.188  31.485   6.450
 7508POPC   D2A40888  22.143  31.512   6.750
 7508POPC   C3A40889  22.151  31.454   7.050
 7508POPC   C4A40890  22.211  31.465   7.350
 7508POPC   C1B40891  22.144  31.222   6.450
 7508POPC   C2B40892  22.162  31.243   6.750
 7508POPC   C3B40893  22.167  31.208   7.050
 7508POPC   C4B40894  22.120  31.241   7.350
 7509POPC   NC340895   9.010  12.880   5.550
 7509POPC   PO440896   8.993  12.841   5.850
 7509POPC   GL140897   8.966  12.854   6.150
 7509POPC   GL240898   8.828  12.778   6.150
 7509POPC   C1A40899   9.016  12.882   6.450
 7509POPC   D2A40900   8.929  12.814   6.750
 7509POPC   C3A40901   9.017  12.864   7.050
 7509POPC   C4A40902   8.988  12.868   7.350
 7509POPC   C1B40903   8.762  12.732   6.450
 7509POPC   C2B40904   8.824  12.686   6.750
 7509POPC   C3B40905   8.827  12.667   7.050
 7509POPC   C4B40906   8.777  12.649   7.350
 7510POPC   NC340907  11.335  19.062   5.550
 7510POPC   PO440908  11.287  19.038   5.850
 7510POPC   GL140909  11.320  19.036   6.150
 7510POPC   GL240910  11.404  18.998   6.150
 7510POPC   C1A40911  11.285  19.056   6.450
 7510POPC   D2A40912  11.346  19.033   6.750
 7510POPC   C3A40913  11.264  19.036   7.050
 7510POPC   C4A40914  11.315  19.011   7.350
 7510POPC   C1B40915  11.559  18.930   6.450
 7510POPC   C2B40916  11.522  18.984   6.750
 7510POPC   C3B40917  11.521  18.959   7.050
 7510POPC   C4B40918  11.503  18.950   7.350
 7511POPC   NC340919   6.656  29.167   5.550
 7511POPC   PO440920   6.611  29.117   5.850
 7511POPC   GL140921   6.689  29.189   6.150
 7511POPC   GL240922   6.633  29.309   6.150
 7511POPC   C1A40923   6.654  29.187   6.450
 7511POPC   D2A40924   6.693  29.160   6.750
 7511POPC   C3A40925   6.634  29.147   7.050
 7511POPC   C4A40926   6.682  29.101   7.350
 7511POPC   C1B40927   6.590  29.442   6.450
 7511POPC   C2B40928   6.622  29.376   6.750
 7511POPC   C3B40929   6.641  29.355   7.050
 7511POPC   C4B40930   6.653  29.387   7.350
 7512POPC   NC340931   5.090  24.440   5.550
 7512POPC   PO440932   5.132  24.526   5.850
 7512POPC   GL140933   5.050  24.461   6.150
 7512POPC   GL240934   5.173  24.613   6.150
 7512POPC   C1A40935   5.101  24.469   6.450
 7512POPC   D2A40936   5.049  24.524   6.750
 7512POPC   C3A40937   5.063  24.491   7.050
 7512POPC   C4A40938   5.043  24.496   7.350
 7512POPC   C1B40939   5.248  24.653   6.450
 7512POPC   C2B40940   5.299  24.646   6.750
 7512POPC   C3B40941   5.295  24.613   7.050
 7512POPC   C4B40942   5.244  24.687   7.350
 7513POPC   NC340943  29.960  28.403   5.550
 7513POPC   PO440944  29.957  28.377   5.850
 7513POPC   GL140945  29.872  28.372   6.150
 7513POPC   GL240946  30.020  28.462   6.150
 7513POPC   C1A40947  29.960  28.411   6.450
 7513POPC   D2A40948  29.928  28.412   6.750
 7513POPC   C3A40949  29.968  28.396   7.050
 7513POPC   C4A40950  29.966  28.329   7.350
 7513POPC   C1B40951  30.021  28.545   6.450
 7513POPC   C2B40952  30.010  28.595   6.750
 7513POPC   C3B40953  30.074  28.620   7.050
 7513POPC   C4B40954  30.073  28.540   7.350
 7514POPC   NC340955  25.224  43.062   5.550
 7514POPC   PO440956  25.285  43.095   5.850
 7514POPC   GL140957  25.219  43.098   6.150
 7514POPC   GL240958  25.165  43.195   6.150
 7514POPC   C1A40959  25.218  43.151   6.450
 7514POPC   D2A40960  25.290  43.108   6.750
 7514POPC   C3A40961  25.219  43.160   7.050
 7514POPC   C4A40962  25.252  43.124   7.350
 7514POPC   C1B40963  25.035  43.271   6.450
 7514POPC   C2B40964  25.046  43.221   6.750
 7514POPC   C3B40965  25.048  43.279   7.050
 7514POPC   C4B40966  25.117  43.229   7.350
 7515POPC   NC340967  29.142   1.239   5.550
 7515POPC   PO440968  29.142   1.182   5.850
 7515POPC   GL140969  29.114   1.165   6.150
 7515POPC   GL240970  29.257   1.143   6.150
 7515POPC   C1A40971  29.178   1.254   6.450
 7515POPC   D2A40972  29.139   1.263   6.750
 7515POPC   C3A40973  29.191   1.214   7.050
 7515POPC   C4A40974  29.138   1.203   7.350
 7515POPC   C1B40975  29.343   1.016   6.450
 7515POPC   C2B40976  29.310   1.088   6.750
 7515POPC   C3B40977  29.335   1.057   7.050
 7515POPC   C4B40978  29.298   1.095   7.350
 7516POPC   NC340979  33.836   1.950   5.550
 7516POPC   PO440980  33.791   1.971   5.850
 7516POPC   GL140981  33.850   1.990   6.150
 7516POPC   GL240982  33.639   1.932   6.150
 7516POPC   C1A40983  33.808   2.036   6.450
 7516POPC   D2A40984  33.827   1.944   6.750
 7516POPC   C3A40985  33.849   2.000   7.050
 7516POPC   C4A40986  33.770   1.955   7.350
 7516POPC   C1B40987  33.512   1.941   6.450
 7516POPC   C2B40988  33.569   1.961   6.750
 7516POPC   C3B40989  33.565   1.944   7.050
 7516POPC   C4B40990  33.516   1.956   7.350
 7517POPC   NC340991  25.234   4.323   5.550
 7517POPC   PO440992  25.257   4.310   5.850
 7517POPC   GL140993  25.240   4.284   6.150
 7517POPC   GL240994  25.416   4.359   6.150
 7517POPC   C1A40995  25.295   4.326   6.450
 7517POPC   D2A40996  25.242   4.318   6.750
 7517POPC   C3A40997  25.303   4.307   7.050
 7517POPC   C4A40998  25.220   4.271   7.350
 7517POPC   C1B40999  25.477   4.427   6.450
 7517POPC   C2B41000  25.521   4.413   6.750
 7517POPC   C3B41001  25.526   4.421   7.050
 7517POPC   C4B41002  25.468   4.466   7.350
 7518POPC   NC341003   1.187  10.495   5.550
 7518POPC   PO441004   1.236  10.541   5.850
 7518POPC   GL141005   1.208  10.481   6.150
 7518POPC   GL241006   1.154  10.600   6.150
 7518POPC   C1A41007   1.230  10.561   6.450
 7518POPC   D2A41008   1.262  10.495   6.750
 7518POPC   C3A41009   1.184  10.533   7.050
 7518POPC   C4A41010   1.182  10.486   7.350
 7518POPC   C1B41011   1.012  10.691   6.450
 7518POPC   C2B41012   1.001  10.638   6.750
 7518POPC   C3B41013   0.983  10.652   7.050
 7518POPC   C4B41014   1.018  10.692   7.350
 7519POPC   NC341015  42.365  19.852   5.550
 7519POPC   PO441016  42.303  19.793   5.850
 7519POPC   GL141017  42.376  19.802   6.150
 7519POPC   GL241018  42.461  19.771   6.150
 7519POPC   C1A41019  42.306  19.864   6.450
 7519POPC   D2A41020  42.352  19.842   6.750
 7519POPC   C3A41021  42.297  19.785   7.050
 7519POPC   C4A41022  42.342  19.810   7.350
 7519POPC   C1B41023  42.534  19.712   6.450
 7519POPC   C2B41024  42.553  19.686   6.750
 7519POPC   C3B41025  42.589  19.752   7.050
 7519POPC   C4B41026  42.544  19.718   7.350
 7520POPC   NC341027  39.991  21.364   5.550
 7520POPC   PO441028  39.960  21.385   5.850
 7520POPC   GL141029  40.046  21.401   6.150
 7520POPC   GL241030  39.946  21.512   6.150
 7520POPC   C1A41031  40.054  21.378   6.450
 7520POPC   D2A41032  40.007  21.338   6.750
 7520POPC   C3A41033  40.003  21.356   7.050
 7520POPC   C4A41034  40.006  21.395   7.350
 7520POPC   C1B41035  39.930  21.651   6.450
 7520POPC   C2B41036  39.938  21.679   6.750
 7520POPC   C3B41037  40.000  21.631   7.050
 7520POPC   C4B41038  40.023  21.622   7.350
 7521POPC   NC341039  13.597  17.458   5.550
 7521POPC   PO441040  13.586  17.546   5.850
 7521POPC   GL141041  13.664  17.529   6.150
 7521POPC   GL241042  13.687  17.637   6.150
 7521POPC   C1A41043  13.627  17.552   6.450
 7521POPC   D2A41044  13.664  17.466   6.750
 7521POPC   C3A41045  13.652  17.552   7.050
 7521POPC   C4A41046  13.621  17.513   7.350
 7521POPC   C1B41047  13.724  17.697   6.450
 7521POPC   C2B41048  13.757  17.712   6.750
 7521POPC   C3B41049  13.699  17.695   7.050
 7521POPC   C4B41050  13.689  17.702   7.350
 7522POPC   NC341051  21.378   8.154   5.550
 7522POPC   PO441052  21.340   8.236   5.850
 7522POPC   GL141053  21.342   8.195   6.150
 7522POPC   GL241054  21.257   8.102   6.150
 7522POPC   C1A41055  21.392   8.230   6.450
 7522POPC   D2A41056  21.382   8.156   6.750
 7522POPC   C3A41057  21.423   8.148   7.050
 7522POPC   C4A41058  21.404   8.198   7.350
 7522POPC   C1B41059  21.156   8.074   6.450
 7522POPC   C2B41060  21.186   8.012   6.750
 7522POPC   C3B41061  21.193   8.076   7.050
 7522POPC   C4B41062  21.142   8.047   7.350
 7523POPC   NC341063  26.048  30.690   5.550
 7523POPC   PO441064  26.025  30.676   5.850
 7523POPC   GL141065  25.998  30.662   6.150
 7523POPC   GL241066  26.042  30.773   6.150
 7523POPC   C1A41067  26.000  30.661   6.450
 7523POPC   D2A41068  26.014  30.707   6.750
 7523POPC   C3A41069  26.042  30.740   7.050
 7523POPC   C4A41070  26.090  30.722   7.350
 7523POPC   C1B41071  25.972  30.901   6.450
 7523POPC   C2B41072  25.978  30.965   6.750
 7523POPC   C3B41073  25.930  30.930   7.050
 7523POPC   C4B41074  25.963  30.965   7.350
 7524POPC   NC341075  35.332  33.040   5.550
 7524POPC   PO441076  35.310  33.060   5.850
 7524POPC   GL141077  35.320  33.041   6.150
 7524POPC   GL241078  35.209  33.090   6.150
 7524POPC   C1A41079  35.398  32.998   6.450
 7524POPC   D2A41080  35.313  33.059   6.750
 7524POPC   C3A41081  35.388  32.975   7.050
 7524POPC   C4A41082  35.351  32.979   7.350
 7524POPC   C1B41083  35.155  33.212   6.450
 7524POPC   C2B41084  35.191  33.212   6.750
 7524POPC   C3B41085  35.174  33.198   7.050
 7524POPC   C4B41086  35.201  33.209   7.350
 7525POPC   NC341087  27.562  39.207   5.550
 7525POPC   PO441088  27.628  39.213   5.850
 7525POPC   GL141089  27.573  39.279   6.150
 7525POPC   GL241090  27.487  39.250   6.150
 7525POPC   C1A41091  27.639  39.236   6.450
 7525POPC   D2A41092  27.570  39.235   6.750
 7525POPC   C3A41093  27.593  39.191   7.050
 7525POPC   C4A41094  27.631  39.200   7.350
 7525POPC   C1B41095  27.391  39.339   6.450
 7525POPC   C2B41096  27.406  39.330   6.750
 7525POPC   C3B41097  27.398  39.319   7.050
 7525POPC   C4B41098  27.352  39.344   7.350
 7526POPC   NC341099   0.414  43.913   5.550
 7526POPC   PO441100   0.435  43.935   5.850
 7526POPC   GL141101   0.418  43.900   6.150
 7526POPC   GL241102   0.407  43.770   6.150
 7526POPC   C1A41103   0.455  43.920   6.450
 7526POPC   D2A41104   0.440  43.903   6.750
 7526POPC   C3A41105   0.432  43.880   7.050
 7526POPC   C4A41106   0.431  43.871   7.350
 7526POPC   C1B41107   0.284  43.692   6.450
 7526POPC   C2B41108   0.343  43.675   6.750
 7526POPC   C3B41109   0.260  43.659   7.050
 7526POPC   C4B41110   0.260  43.686   7.350
 7527POPC   NC341111   8.237  26.029   5.550
 7527POPC   PO441112   8.193  26.081   5.850
 7527POPC   GL141113   8.200  26.049   6.150
 7527POPC   GL241114   8.134  26.153   6.150
 7527POPC   C1A41115   8.235  26.022   6.450
 7527POPC   D2A41116   8.195  26.073   6.750
 7527POPC   C3A41117   8.240  25.995   7.050
 7527POPC   C4A41118   8.189  26.089   7.350
 7527POPC   C1B41119   8.056  26.238   6.450
 7527POPC   C2B41120   8.010  26.176   6.750
 7527POPC   C3B41121   8.047  26.248   7.050
 7527POPC   C4B41122   8.049  26.251   7.350
 7528POPC   NC341123   8.966  27.608   5.550
 7528POPC   PO441124   9.009  27.610   5.850
 7528POPC   GL141125   9.015  27.603   6.150
 7528POPC   GL241126   9.047  27.715   6.150
 7528POPC   C1A41127   8.937  27.573   6.450
 7528POPC   D2A41128   8.942  27.610   6.750
 7528POPC   C3A41129   9.005  27.551   7.050
 7528POPC   C4A41130   8.928  27.630   7.350
 7528POPC   C1B41131   9.105  27.836   6.450
 7528POPC   C2B41132   9.078  27.818   6.750
 7528POPC   C3B41133   9.100  27.756   7.050
 7528POPC   C4B41134   9.119  27.776   7.350
 7529POPC   NC341135  25.303  23.742   5.550
 7529POPC   PO441136  25.243  23.737   5.850
 7529POPC   GL141137  25.250  23.749   6.150
 7529POPC   GL241138  25.166  23.744   6.150
 7529POPC   C1A41139  25.290  23.683   6.450
 7529POPC   D2A41140  25.314  23.697   6.750
 7529POPC   C3A41141  25.315  23.733   7.050
 7529POPC   C4A41142  25.269  23.701   7.350
 7529POPC   C1B41143  24.987  23.757   6.450
 7529POPC   C2B41144  25.058  23.769   6.750
 7529POPC   C3B41145  25.052  23.774   7.050
 7529POPC   C4B41146  24.993  23.732   7.350
 7530POPC   NC341147  32.242  37.674   5.550
 7530POPC   PO441148  32.245  37.699   5.850
 7530POPC   GL141149  32.198  37.704   6.150
 7530POPC   GL241150  32.214  37.821   6.150
 7530POPC   C1A41151  32.287  37.654   6.450
 7530POPC   D2A41152  32.221  37.652   6.750
 7530POPC   C3A41153  32.254  37.684   7.050
 7530POPC   C4A41154  32.297  37.642   7.350
 7530POPC   C1B41155  32.179  37.888   6.450
 7530POPC   C2B41156  32.174  37.908   6.750
 7530POPC   C3B41157  32.102  37.893   7.050
 7530POPC   C4B41158  32.198  37.939   7.350
 7531POPC   NC341159  30.735  26.035   5.550
 7531POPC   PO441160  30.657  26.087   5.850
 7531POPC   GL141161  30.743  26.020   6.150
 7531POPC   GL241162  30.675  25.987   6.150
 7531POPC   C1A41163  30.677  26.001   6.450
 7531POPC   D2A41164  30.733  26.045   6.750
 7531POPC   C3A41165  30.718  26.009   7.050
 7531POPC   C4A41166  30.717  26.083   7.350
 7531POPC   C1B41167  30.552  25.842   6.450
 7531POPC   C2B41168  30.579  25.811   6.750
 7531POPC   C3B41169  30.583  25.838   7.050
 7531POPC   C4B41170  30.522  25.802   7.350
 7532POPC   NC341171  21.384  39.999   5.550
 7532POPC   PO441172  21.354  40.038   5.850
 7532POPC   GL141173  21.395  40.015   6.150
 7532POPC   GL241174  21.284  39.906   6.150
 7532POPC   C1A41175  21.359  40.009   6.450
 7532POPC   D2A41176  21.399  40.046   6.750
 7532POPC   C3A41177  21.394  39.994   7.050
 7532POPC   C4A41178  21.338  39.996   7.350
 7532POPC   C1B41179  21.307  39.795   6.450
 7532POPC   C2B41180  21.326  39.733   6.750
 7532POPC   C3B41181  21.300  39.765   7.050
 7532POPC   C4B41182  21.257  39.816   7.350
 7533POPC   NC341183  19.024  28.393   5.550
 7533POPC   PO441184  19.052  28.397   5.850
 7533POPC   GL141185  19.072  28.418   6.150
 7533POPC   GL241186  18.969  28.443   6.150
 7533POPC   C1A41187  19.019  28.353   6.450
 7533POPC   D2A41188  19.023  28.330   6.750
 7533POPC   C3A41189  19.082  28.362   7.050
 7533POPC   C4A41190  19.065  28.398   7.350
 7533POPC   C1B41191  18.777  28.459   6.450
 7533POPC   C2B41192  18.797  28.494   6.750
 7533POPC   C3B41193  18.805  28.436   7.050
 7533POPC   C4B41194  18.815  28.398   7.350
 7534POPC   NC341195  31.473  44.634   5.550
 7534POPC   PO441196  31.462  44.687   5.850
 7534POPC   GL141197  31.486  44.669   6.150
 7534POPC   GL241198  31.592  44.694   6.150
 7534POPC   C1A41199  31.505  44.658   6.450
 7534POPC   D2A41200  31.423  44.704   6.750
 7534POPC   C3A41201  31.488  44.669   7.050
 7534POPC   C4A41202  31.435  44.692   7.350
 7534POPC   C1B41203  31.633  44.864   6.450
 7534POPC   C2B41204  31.672  44.847   6.750
 7534POPC   C3B41205  31.644  44.785   7.050
 7534POPC   C4B41206  31.620  44.789   7.350
 7535POPC   NC341207   3.579  39.236   5.550
 7535POPC   PO441208   3.553  39.264   5.850
 7535POPC   GL141209   3.581  39.198   6.150
 7535POPC   GL241210   3.516  39.374   6.150
 7535POPC   C1A41211   3.586  39.190   6.450
 7535POPC   D2A41212   3.537  39.254   6.750
 7535POPC   C3A41213   3.590  39.195   7.050
 7535POPC   C4A41214   3.579  39.237   7.350
 7535POPC   C1B41215   3.474  39.411   6.450
 7535POPC   C2B41216   3.468  39.474   6.750
 7535POPC   C3B41217   3.386  39.407   7.050
 7535POPC   C4B41218   3.449  39.446   7.350
 7536POPC   NC341219  14.361   0.397   5.550
 7536POPC   PO441220  14.383   0.463   5.850
 7536POPC   GL141221  14.374   0.404   6.150
 7536POPC   GL241222  14.562   0.356   6.150
 7536POPC   C1A41223  14.389   0.440   6.450
 7536POPC   D2A41224  14.355   0.423   6.750
 7536POPC   C3A41225  14.447   0.420   7.050
 7536POPC   C4A41226  14.418   0.455   7.350
 7536POPC   C1B41227  14.603   0.305   6.450
 7536POPC   C2B41228  14.615   0.314   6.750
 7536POPC   C3B41229  14.595   0.380   7.050
 7536POPC   C4B41230  14.628   0.381   7.350
 7537POPC   NC341231  14.416  21.363   5.550
 7537POPC   PO441232  14.416  21.379   5.850
 7537POPC   GL141233  14.398  21.364   6.150
 7537POPC   GL241234  14.449  21.225   6.150
 7537POPC   C1A41235  14.392  21.352   6.450
 7537POPC   D2A41236  14.410  21.424   6.750
 7537POPC   C3A41237  14.408  21.352   7.050
 7537POPC   C4A41238  14.451  21.351   7.350
 7537POPC   C1B41239  14.447  21.121   6.450
 7537POPC   C2B41240  14.448  21.131   6.750
 7537POPC   C3B41241  14.402  21.109   7.050
 7537POPC   C4B41242  14.435  21.094   7.350
 7538POPC   NC341243  23.740  20.620   5.550
 7538POPC   PO441244  23.674  20.568   5.850
 7538POPC   GL141245  23.665  20.635   6.150
 7538POPC   GL241246  23.814  20.521   6.150
 7538POPC   C1A41247  23.758  20.625   6.450
 7538POPC   D2A41248  23.692  20.632   6.750
 7538POPC   C3A41249  23.757  20.614   7.050
 7538POPC   C4A41250  23.668  20.607   7.350
 7538POPC   C1B41251  23.982  20.548   6.450
 7538POPC   C2B41252  23.934  20.498   6.750
 7538POPC   C3B41253  23.987  20.534   7.050
 7538POPC   C4B41254  23.903  20.479   7.350
 7539POPC   NC341255  10.513   2.750   5.550
 7539POPC   PO441256  10.492   2.750   5.850
 7539POPC   GL141257  10.561   2.759   6.150
 7539POPC   GL241258  10.617   2.915   6.150
 7539POPC   C1A41259  10.536   2.805   6.450
 7539POPC   D2A41260  10.570   2.763   6.750
 7539POPC   C3A41261  10.563   2.735   7.050
 7539POPC   C4A41262  10.532   2.726   7.350
 7539POPC   C1B41263  10.678   2.945   6.450
 7539POPC   C2B41264  10.633   2.983   6.750
 7539POPC   C3B41265  10.693   2.944   7.050
 7539POPC   C4B41266  10.629   2.943   7.350
 7540POPC   NC341267  41.564  16.761   5.550
 7540POPC   PO441268  41.593  16.719   5.850
 7540POPC   GL141269  41.578  16.721   6.150
 7540POPC   GL241270  41.545  16.846   6.150
 7540POPC   C1A41271  41.521  16.683   6.450
 7540POPC   D2A41272  41.581  16.699   6.750
 7540POPC   C3A41273  41.594  16.684   7.050
 7540POPC   C4A41274  41.552  16.713   7.350
 7540POPC   C1B41275  41.581  17.020   6.450
 7540POPC   C2B41276  41.631  16.978   6.750
 7540POPC   C3B41277  41.658  16.959   7.050
 7540POPC   C4B41278  41.616  17.016   7.350
 7541POPC   NC341279  29.131  28.324   5.550
 7541POPC   PO441280  29.121  28.341   5.850
 7541POPC   GL141281  29.143  28.381   6.150
 7541POPC   GL241282  29.050  28.272   6.150
 7541POPC   C1A41283  29.152  28.419   6.450
 7541POPC   D2A41284  29.121  28.379   6.750
 7541POPC   C3A41285  29.143  28.346   7.050
 7541POPC   C4A41286  29.105  28.394   7.350
 7541POPC   C1B41287  29.014  28.115   6.450
 7541POPC   C2B41288  28.997  28.115   6.750
 7541POPC   C3B41289  29.006  28.132   7.050
 7541POPC   C4B41290  29.031  28.107   7.350
 7542POPC   NC341291  41.564  44.662   5.550
 7542POPC   PO441292  41.565  44.623   5.850
 7542POPC   GL141293  41.607  44.653   6.150
 7542POPC   GL241294  41.684  44.612   6.150
 7542POPC   C1A41295  41.533  44.639   6.450
 7542POPC   D2A41296  41.594  44.633   6.750
 7542POPC   C3A41297  41.534  44.688   7.050
 7542POPC   C4A41298  41.603  44.682   7.350
 7542POPC   C1B41299  41.788  44.532   6.450
 7542POPC   C2B41300  41.785  44.514   6.750
 7542POPC   C3B41301  41.775  44.482   7.050
 7542POPC   C4B41302  41.760  44.534   7.350
 7543POPC   NC341303   1.944  43.136   5.550
 7543POPC   PO441304   1.985  43.087   5.850
 7543POPC   GL141305   2.038  43.069   6.150
 7543POPC   GL241306   1.912  43.141   6.150
 7543POPC   C1A41307   1.973  43.107   6.450
 7543POPC   D2A41308   2.022  43.148   6.750
 7543POPC   C3A41309   1.980  43.110   7.050
 7543POPC   C4A41310   2.034  43.147   7.350
 7543POPC   C1B41311   1.798  43.209   6.450
 7543POPC   C2B41312   1.818  43.233   6.750
 7543POPC   C3B41313   1.797  43.225   7.050
 7543POPC   C4B41314   1.820  43.211   7.350
 7544POPC   NC341315  16.714  10.550   5.550
 7544POPC   PO441316  16.687  10.561   5.850
 7544POPC   GL141317  16.739  10.568   6.150
 7544POPC   GL241318  16.791  10.383   6.150
 7544POPC   C1A41319  16.716  10.510   6.450
 7544POPC   D2A41320  16.695  10.563   6.750
 7544POPC   C3A41321  16.749  10.529   7.050
 7544POPC   C4A41322  16.751  10.490   7.350
 7544POPC   C1B41323  16.777  10.297   6.450
 7544POPC   C2B41324  16.837  10.293   6.750
 7544POPC   C3B41325  16.778  10.264   7.050
 7544POPC   C4B41326  16.807  10.323   7.350
 7545POPC   NC341327  11.263  24.447   5.550
 7545POPC   PO441328  11.259  24.460   5.850
 7545POPC   GL141329  11.252  24.537   6.150
 7545POPC   GL241330  11.312  24.356   6.150
 7545POPC   C1A41331  11.322  24.468   6.450
 7545POPC   D2A41332  11.264  24.505   6.750
 7545POPC   C3A41333  11.269  24.535   7.050
 7545POPC   C4A41334  11.318  24.454   7.350
 7545POPC   C1B41335  11.391  24.221   6.450
 7545POPC   C2B41336  11.422  24.254   6.750
 7545POPC   C3B41337  11.419  24.282   7.050
 7545POPC   C4B41338  11.449  24.232   7.350
 7546POPC   NC341339  15.927   6.653   5.550
 7546POPC   PO441340  15.976   6.674   5.850
 7546POPC   GL141341  15.995   6.612   6.150
 7546POPC   GL241342  15.878   6.496   6.150
 7546POPC   C1A41343  15.952   6.686   6.450
 7546POPC   D2A41344  15.959   6.600   6.750
 7546POPC   C3A41345  15.973   6.652   7.050
 7546POPC   C4A41346  15.909   6.677   7.350
 7546POPC   C1B41347  15.817   6.416   6.450
 7546POPC   C2B41348  15.867   6.450   6.750
 7546POPC   C3B41349  15.850   6.426   7.050
 7546POPC   C4B41350  15.810   6.444   7.350
 7547POPC   NC341351   8.930   0.429   5.550
 7547POPC   PO441352   8.943   0.414   5.850
 7547POPC   GL141353   8.923   0.450   6.150
 7547POPC   GL241354   8.819   0.407   6.150
 7547POPC   C1A41355   8.935   0.406   6.450
 7547POPC   D2A41356   8.998   0.392   6.750
 7547POPC   C3A41357   8.934   0.403   7.050
 7547POPC   C4A41358   8.938   0.411   7.350
 7547POPC   C1B41359   8.737   0.369   6.450
 7547POPC   C2B41360   8.723   0.403   6.750
 7547POPC   C3B41361   8.694   0.460   7.050
 7547POPC   C4B41362   8.766   0.419   7.350
 7548POPC   NC341363   8.165  33.820   5.550
 7548POPC   PO441364   8.221  33.847   5.850
 7548POPC   GL141365   8.186  33.839   6.150
 7548POPC   GL241366   8.176  33.694   6.150
 7548POPC   C1A41367   8.178  33.786   6.450
 7548POPC   D2A41368   8.224  33.802   6.750
 7548POPC   C3A41369   8.233  33.783   7.050
 7548POPC   C4A41370   8.151  33.824   7.350
 7548POPC   C1B41371   8.106  33.593   6.450
 7548POPC   C2B41372   8.123  33.531   6.750
 7548POPC   C3B41373   8.054  33.572   7.050
 7548POPC   C4B41374   8.124  33.542   7.350
 7549POPC   NC341375   7.403   6.612   5.550
 7549POPC   PO441376   7.445   6.655   5.850
 7549POPC   GL141377   7.451   6.673   6.150
 7549POPC   GL241378   7.494   6.503   6.150
 7549POPC   C1A41379   7.468   6.667   6.450
 7549POPC   D2A41380   7.415   6.671   6.750
 7549POPC   C3A41381   7.450   6.648   7.050
 7549POPC   C4A41382   7.390   6.622   7.350
 7549POPC   C1B41383   7.507   6.467   6.450
 7549POPC   C2B41384   7.573   6.456   6.750
 7549POPC   C3B41385   7.565   6.447   7.050
 7549POPC   C4B41386   7.531   6.394   7.350
 7550POPC   NC341387  43.934  11.311   5.550
 7550POPC   PO441388  43.846  11.283   5.850
 7550POPC   GL141389  43.896  11.277   6.150
 7550POPC   GL241390  43.810  11.314   6.150
 7550POPC   C1A41391  43.923  11.283   6.450
 7550POPC   D2A41392  43.877  11.322   6.750
 7550POPC   C3A41393  43.844  11.321   7.050
 7550POPC   C4A41394  43.840  11.268   7.350
 7550POPC   C1B41395  43.684  11.386   6.450
 7550POPC   C2B41396  43.632  11.355   6.750
 7550POPC   C3B41397  43.643  11.412   7.050
 7550POPC   C4B41398  43.651  11.416   7.350
 7551POPC   NC341399  29.948  34.551   5.550
 7551POPC   PO441400  29.938  34.556   5.850
 7551POPC   GL141401  29.900  34.611   6.150
 7551POPC   GL241402  29.787  34.681   6.150
 7551POPC   C1A41403  29.895  34.598   6.450
 7551POPC   D2A41404  29.956  34.608   6.750
 7551POPC   C3A41405  29.968  34.613   7.050
 7551POPC   C4A41406  29.891  34.586   7.350
 7551POPC   C1B41407  29.714  34.723   6.450
 7551POPC   C2B41408  29.783  34.779   6.750
 7551POPC   C3B41409  29.731  34.734   7.050
 7551POPC   C4B41410  29.778  34.759   7.350
 7552POPC   NC341411   6.655  22.982   5.550
 7552POPC   PO441412   6.666  22.918   5.850
 7552POPC   GL141413   6.606  22.911   6.150
 7552POPC   GL241414   6.745  22.841   6.150
 7552POPC   C1A41415   6.649  22.913   6.450
 7552POPC   D2A41416   6.623  22.961   6.750
 7552POPC   C3A41417   6.598  22.935   7.050
 7552POPC   C4A41418   6.612  22.911   7.350
 7552POPC   C1B41419   6.833  22.735   6.450
 7552POPC   C2B41420   6.845  22.779   6.750
 7552POPC   C3B41421   6.855  22.740   7.050
 7552POPC   C4B41422   6.823  22.740   7.350
 7553POPC   NC341423  37.702  42.355   5.550
 7553POPC   PO441424  37.682  42.345   5.850
 7553POPC   GL141425  37.726  42.296   6.150
 7553POPC   GL241426  37.508  42.352   6.150
 7553POPC   C1A41427  37.666  42.367   6.450
 7553POPC   D2A41428  37.688  42.363   6.750
 7553POPC   C3A41429  37.710  42.337   7.050
 7553POPC   C4A41430  37.658  42.354   7.350
 7553POPC   C1B41431  37.465  42.333   6.450
 7553POPC   C2B41432  37.440  42.364   6.750
 7553POPC   C3B41433  37.422  42.324   7.050
 7553POPC   C4B41434  37.409  42.416   7.350
 7554POPC   NC341435  17.504  44.630   5.550
 7554POPC   PO441436  17.461  44.635   5.850
 7554POPC   GL141437  17.476  44.655   6.150
 7554POPC   GL241438  17.596  44.762   6.150
 7554POPC   C1A41439  17.479  44.643   6.450
 7554POPC   D2A41440  17.528  44.702   6.750
 7554POPC   C3A41441  17.543  44.625   7.050
 7554POPC   C4A41442  17.457  44.687   7.350
 7554POPC   C1B41443  17.670  44.904   6.450
 7554POPC   C2B41444  17.615  44.921   6.750
 7554POPC   C3B41445  17.623  44.889   7.050
 7554POPC   C4B41446  17.668  44.855   7.350
 7555POPC   NC341447  35.342  15.220   5.550
 7555POPC   PO441448  35.363  15.217   5.850
 7555POPC   GL141449  35.352  15.188   6.150
 7555POPC   GL241450  35.350  15.018   6.150
 7555POPC   C1A41451  35.322  15.185   6.450
 7555POPC   D2A41452  35.344  15.131   6.750
 7555POPC   C3A41453  35.315  15.171   7.050
 7555POPC   C4A41454  35.316  15.130   7.350
 7555POPC   C1B41455  35.466  14.954   6.450
 7555POPC   C2B41456  35.453  14.906   6.750
 7555POPC   C3B41457  35.471  14.904   7.050
 7555POPC   C4B41458  35.449  14.924   7.350
 7556POPC   NC341459  34.551  13.635   5.550
 7556POPC   PO441460  34.620  13.637   5.850
 7556POPC   GL141461  34.610  13.602   6.150
 7556POPC   GL241462  34.720  13.643   6.150
 7556POPC   C1A41463  34.571  13.588   6.450
 7556POPC   D2A41464  34.577  13.599   6.750
 7556POPC   C3A41465  34.567  13.647   7.050
 7556POPC   C4A41466  34.545  13.625   7.350
 7556POPC   C1B41467  34.831  13.630   6.450
 7556POPC   C2B41468  34.783  13.564   6.750
 7556POPC   C3B41469  34.796  13.579   7.050
 7556POPC   C4B41470  34.848  13.626   7.350
 7557POPC   NC341471  30.684  37.716   5.550
 7557POPC   PO441472  30.691  37.664   5.850
 7557POPC   GL141473  30.663  37.701   6.150
 7557POPC   GL241474  30.813  37.665   6.150
 7557POPC   C1A41475  30.654  37.701   6.450
 7557POPC   D2A41476  30.664  37.646   6.750
 7557POPC   C3A41477  30.741  37.652   7.050
 7557POPC   C4A41478  30.717  37.709   7.350
 7557POPC   C1B41479  30.914  37.680   6.450
 7557POPC   C2B41480  30.984  37.675   6.750
 7557POPC   C3B41481  30.990  37.623   7.050
 7557POPC   C4B41482  30.981  37.708   7.350
 7558POPC   NC341483  30.712  14.367   5.550
 7558POPC   PO441484  30.700  14.393   5.850
 7558POPC   GL141485  30.679  14.376   6.150
 7558POPC   GL241486  30.747  14.463   6.150
 7558POPC   C1A41487  30.678  14.377   6.450
 7558POPC   D2A41488  30.684  14.403   6.750
 7558POPC   C3A41489  30.661  14.378   7.050
 7558POPC   C4A41490  30.671  14.436   7.350
 7558POPC   C1B41491  30.843  14.600   6.450
 7558POPC   C2B41492  30.918  14.614   6.750
 7558POPC   C3B41493  30.874  14.537   7.050
 7558POPC   C4B41494  30.890  14.616   7.350
 7559POPC   NC341495   4.313  10.531   5.550
 7559POPC   PO441496   4.273  10.524   5.850
 7559POPC   GL141497   4.283  10.489   6.150
 7559POPC   GL241498   4.328  10.683   6.150
 7559POPC   C1A41499   4.356  10.561   6.450
 7559POPC   D2A41500   4.312  10.542   6.750
 7559POPC   C3A41501   4.360  10.531   7.050
 7559POPC   C4A41502   4.333  10.523   7.350
 7559POPC   C1B41503   4.339  10.773   6.450
 7559POPC   C2B41504   4.368  10.752   6.750
 7559POPC   C3B41505   4.332  10.764   7.050
 7559POPC   C4B41506   4.322  10.802   7.350
 7560POPC   NC341507  19.863  43.851   5.550
 7560POPC   PO441508  19.820  43.839   5.850
 7560POPC   GL141509  19.871  43.872   6.150
 7560POPC   GL241510  19.947  43.848   6.150
 7560POPC   C1A41511  19.832  43.888   6.450
 7560POPC   D2A41512  19.795  43.931   6.750
 7560POPC   C3A41513  19.820  43.913   7.050
 7560POPC   C4A41514  19.852  43.857   7.350
 7560POPC   C1B41515  20.046  43.846   6.450
 7560POPC   C2B41516  20.107  43.857   6.750
 7560POPC   C3B41517  20.112  43.840   7.050
 7560POPC   C4B41518  20.066  43.876   7.350
 7561POPC   NC341519  43.075  28.401   5.550
 7561POPC   PO441520  43.065  28.347   5.850
 7561POPC   GL141521  43.110  28.330   6.150
 7561POPC   GL241522  42.998  28.414   6.150
 7561POPC   C1A41523  43.111  28.338   6.450
 7561POPC   D2A41524  43.136  28.403   6.750
 7561POPC   C3A41525  43.155  28.392   7.050
 7561POPC   C4A41526  43.133  28.369   7.350
 7561POPC   C1B41527  42.925  28.436   6.450
 7561POPC   C2B41528  42.879  28.418   6.750
 7561POPC   C3B41529  42.901  28.439   7.050
 7561POPC   C4B41530  42.915  28.489   7.350
 7562POPC   NC341531  39.225   2.749   5.550
 7562POPC   PO441532  39.235   2.778   5.850
 7562POPC   GL141533  39.210   2.789   6.150
 7562POPC   GL241534  39.078   2.721   6.150
 7562POPC   C1A41535  39.190   2.718   6.450
 7562POPC   D2A41536  39.249   2.799   6.750
 7562POPC   C3A41537  39.264   2.769   7.050
 7562POPC   C4A41538  39.270   2.720   7.350
 7562POPC   C1B41539  38.975   2.744   6.450
 7562POPC   C2B41540  39.020   2.787   6.750
 7562POPC   C3B41541  39.031   2.767   7.050
 7562POPC   C4B41542  38.950   2.800   7.350
 7563POPC   NC341543  44.646  18.272   5.550
 7563POPC   PO441544  44.646  18.324   5.850
 7563POPC   GL141545  44.629  18.305   6.150
 7563POPC   GL241546  44.669  18.151   6.150
 7563POPC   C1A41547  44.649  18.312   6.450
 7563POPC   D2A41548  44.615  18.329   6.750
 7563POPC   C3A41549  44.694  18.311   7.050
 7563POPC   C4A41550  44.624  18.326   7.350
 7563POPC   C1B41551  44.692  18.075   6.450
 7563POPC   C2B41552  44.718  18.079   6.750
 7563POPC   C3B41553  44.732  18.058   7.050
 7563POPC   C4B41554  44.667  18.076   7.350
 7564POPC   NC341555  19.848  22.937   5.550
 7564POPC   PO441556  19.881  22.987   5.850
 7564POPC   GL141557  19.852  22.971   6.150
 7564POPC   GL241558  19.712  22.881   6.150
 7564POPC   C1A41559  19.834  22.979   6.450
 7564POPC   D2A41560  19.825  22.966   6.750
 7564POPC   C3A41561  19.860  22.903   7.050
 7564POPC   C4A41562  19.838  22.988   7.350
 7564POPC   C1B41563  19.637  22.854   6.450
 7564POPC   C2B41564  19.639  22.857   6.750
 7564POPC   C3B41565  19.651  22.829   7.050
 7564POPC   C4B41566  19.642  22.801   7.350
 7565POPC   NC341567   4.292   1.186   5.550
 7565POPC   PO441568   4.323   1.247   5.850
 7565POPC   GL141569   4.320   1.175   6.150
 7565POPC   GL241570   4.193   1.148   6.150
 7565POPC   C1A41571   4.326   1.196   6.450
 7565POPC   D2A41572   4.364   1.172   6.750
 7565POPC   C3A41573   4.302   1.232   7.050
 7565POPC   C4A41574   4.344   1.181   7.350
 7565POPC   C1B41575   4.118   1.086   6.450
 7565POPC   C2B41576   4.085   1.079   6.750
 7565POPC   C3B41577   4.113   1.032   7.050
 7565POPC   C4B41578   4.166   1.072   7.350
 7566POPC   NC341579  18.312   1.209   5.550
 7566POPC   PO441580  18.252   1.217   5.850
 7566POPC   GL141581  18.322   1.229   6.150
 7566POPC   GL241582  18.253   1.328   6.150
 7566POPC   C1A41583  18.238   1.198   6.450
 7566POPC   D2A41584  18.332   1.241   6.750
 7566POPC   C3A41585  18.315   1.239   7.050
 7566POPC   C4A41586  18.329   1.227   7.350
 7566POPC   C1B41587  18.270   1.430   6.450
 7566POPC   C2B41588  18.243   1.512   6.750
 7566POPC   C3B41589  18.219   1.471   7.050
 7566POPC   C4B41590  18.246   1.502   7.350
 7567POPC   NC341591   3.528  42.305   5.550
 7567POPC   PO441592   3.591  42.374   5.850
 7567POPC   GL141593   3.510  42.376   6.150
 7567POPC   GL241594   3.615  42.490   6.150
 7567POPC   C1A41595   3.560  42.318   6.450
 7567POPC   D2A41596   3.545  42.353   6.750
 7567POPC   C3A41597   3.516  42.287   7.050
 7567POPC   C4A41598   3.581  42.330   7.350
 7567POPC   C1B41599   3.665  42.541   6.450
 7567POPC   C2B41600   3.606  42.595   6.750
 7567POPC   C3B41601   3.574  42.567   7.050
 7567POPC   C4B41602   3.661  42.559   7.350
 7568POPC   NC341603  40.043  22.966   5.550
 7568POPC   PO441604  39.983  22.949   5.850
 7568POPC   GL141605  40.024  22.980   6.150
 7568POPC   GL241606  39.887  22.872   6.150
 7568POPC   C1A41607  39.992  22.933   6.450
 7568POPC   D2A41608  40.036  22.931   6.750
 7568POPC   C3A41609  39.982  22.981   7.050
 7568POPC   C4A41610  39.967  22.930   7.350
 7568POPC   C1B41611  39.816  22.793   6.450
 7568POPC   C2B41612  39.861  22.746   6.750
 7568POPC   C3B41613  39.896  22.751   7.050
 7568POPC   C4B41614  39.804  22.762   7.350
 7569POPC   NC341615   6.622  12.082   5.550
 7569POPC   PO441616   6.632  12.029   5.850
 7569POPC   GL141617   6.650  12.056   6.150
 7569POPC   GL241618   6.600  12.245   6.150
 7569POPC   C1A41619   6.642  12.092   6.450
 7569POPC   D2A41620   6.688  12.088   6.750
 7569POPC   C3A41621   6.667  12.115   7.050
 7569POPC   C4A41622   6.614  12.068   7.350
 7569POPC   C1B41623   6.672  12.334   6.450
 7569POPC   C2B41624   6.588  12.321   6.750
 7569POPC   C3B41625   6.632  12.284   7.050
 7569POPC   C4B41626   6.598  12.314   7.350
 7570POPC   NC341627   2.797   5.918   5.550
 7570POPC   PO441628   2.771   5.847   5.850
 7570POPC   GL141629   2.739   5.834   6.150
 7570POPC   GL241630   2.827   6.007   6.150
 7570POPC   C1A41631   2.737   5.886   6.450
 7570POPC   D2A41632   2.809   5.908   6.750
 7570POPC   C3A41633   2.749   5.890   7.050
 7570POPC   C4A41634   2.799   5.839   7.350
 7570POPC   C1B41635   2.855   6.114   6.450
 7570POPC   C2B41636   2.868   6.076   6.750
 7570POPC   C3B41637   2.892   6.088   7.050
 7570POPC   C4B41638   2.894   6.126   7.350
 7571POPC   NC341639   9.746   7.444   5.550
 7571POPC   PO441640   9.751   7.413   5.850
 7571POPC   GL141641   9.773   7.378   6.150
 7571POPC   GL241642   9.832   7.319   6.150
 7571POPC   C1A41643   9.788   7.463   6.450
 7571POPC   D2A41644   9.778   7.422   6.750
 7571POPC   C3A41645   9.786   7.396   7.050
 7571POPC   C4A41646   9.760   7.449   7.350
 7571POPC   C1B41647   9.922   7.323   6.450
 7571POPC   C2B41648   9.907   7.241   6.750
 7571POPC   C3B41649   9.927   7.296   7.050
 7571POPC   C4B41650  10.001   7.256   7.350
 7572POPC   NC341651  41.591  23.740   5.550
 7572POPC   PO441652  41.581  23.686   5.850
 7572POPC   GL141653  41.510  23.684   6.150
 7572POPC   GL241654  41.629  23.734   6.150
 7572POPC   C1A41655  41.509  23.699   6.450
 7572POPC   D2A41656  41.605  23.758   6.750
 7572POPC   C3A41657  41.512  23.667   7.050
 7572POPC   C4A41658  41.551  23.710   7.350
 7572POPC   C1B41659  41.832  23.860   6.450
 7572POPC   C2B41660  41.817  23.863   6.750
 7572POPC   C3B41661  41.736  23.806   7.050
 7572POPC   C4B41662  41.803  23.822   7.350
 7573POPC   NC341663  33.769   5.091   5.550
 7573POPC   PO441664  33.798   5.057   5.850
 7573POPC   GL141665  33.780   5.131   6.150
 7573POPC   GL241666  33.970   5.136   6.150
 7573POPC   C1A41667  33.821   5.054   6.450
 7573POPC   D2A41668  33.775   5.071   6.750
 7573POPC   C3A41669  33.770   5.045   7.050
 7573POPC   C4A41670  33.752   5.064   7.350
 7573POPC   C1B41671  34.010   5.140   6.450
 7573POPC   C2B41672  34.071   5.199   6.750
 7573POPC   C3B41673  34.034   5.157   7.050
 7573POPC   C4B41674  34.027   5.112   7.350
 7574POPC   NC341675  42.355   6.662   5.550
 7574POPC   PO441676  42.362   6.658   5.850
 7574POPC   GL141677  42.285   6.675   6.150
 7574POPC   GL241678  42.298   6.794   6.150
 7574POPC   C1A41679  42.334   6.639   6.450
 7574POPC   D2A41680  42.321   6.611   6.750
 7574POPC   C3A41681  42.347   6.620   7.050
 7574POPC   C4A41682  42.366   6.618   7.350
 7574POPC   C1B41683  42.277   6.917   6.450
 7574POPC   C2B41684  42.264   6.924   6.750
 7574POPC   C3B41685  42.246   6.849   7.050
 7574POPC   C4B41686  42.292   6.897   7.350
 7575POPC   NC341687  25.306  40.016   5.550
 7575POPC   PO441688  25.302  40.034   5.850
 7575POPC   GL141689  25.301  40.033   6.150
 7575POPC   GL241690  25.222  39.859   6.150
 7575POPC   C1A41691  25.224  39.984   6.450
 7575POPC   D2A41692  25.311  40.015   6.750
 7575POPC   C3A41693  25.286  40.037   7.050
 7575POPC   C4A41694  25.277  40.042   7.350
 7575POPC   C1B41695  25.184  39.772   6.450
 7575POPC   C2B41696  25.222  39.751   6.750
 7575POPC   C3B41697  25.240  39.796   7.050
 7575POPC   C4B41698  25.242  39.753   7.350
 7576POPC   NC341699  15.217   0.435   5.550
 7576POPC   PO441700  15.171   0.486   5.850
 7576POPC   GL141701  15.224   0.456   6.150
 7576POPC   GL241702  15.333   0.355   6.150
 7576POPC   C1A41703  15.172   0.424   6.450
 7576POPC   D2A41704  15.219   0.425   6.750
 7576POPC   C3A41705  15.190   0.415   7.050
 7576POPC   C4A41706  15.144   0.437   7.350
 7576POPC   C1B41707  15.395   0.352   6.450
 7576POPC   C2B41708  15.442   0.370   6.750
 7576POPC   C3B41709  15.381   0.330   7.050
 7576POPC   C4B41710  15.410   0.327   7.350
 7577POPC   NC341711  11.251  44.665   5.550
 7577POPC   PO441712  11.276  44.642   5.850
 7577POPC   GL141713  11.306  44.660   6.150
 7577POPC   GL241714  11.380  44.645   6.150
 7577POPC   C1A41715  11.290  44.622   6.450
 7577POPC   D2A41716  11.287  44.654   6.750
 7577POPC   C3A41717  11.321  44.636   7.050
 7577POPC   C4A41718  11.294  44.671   7.350
 7577POPC   C1B41719  11.475  44.501   6.450
 7577POPC   C2B41720  11.544  44.490   6.750
 7577POPC   C3B41721  11.552  44.511   7.050
 7577POPC   C4B41722  11.560  44.578   7.350
 7578POPC   NC341723  27.602  22.888   5.550
 7578POPC   PO441724  27.568  22.896   5.850
 7578POPC   GL141725  27.603  22.907   6.150
 7578POPC   GL241726  27.433  22.950   6.150
 7578POPC   C1A41727  27.567  22.921   6.450
 7578POPC   D2A41728  27.643  22.958   6.750
 7578POPC   C3A41729  27.626  22.897   7.050
 7578POPC   C4A41730  27.633  22.935   7.350
 7578POPC   C1B41731  27.349  22.851   6.450
 7578POPC   C2B41732  27.304  22.836   6.750
 7578POPC   C3B41733  27.347  22.931   7.050
 7578POPC   C4B41734  27.397  22.862   7.350
 7579POPC   NC341735   4.359   3.518   5.550
 7579POPC   PO441736   4.341   3.510   5.850
 7579POPC   GL141737   4.313   3.549   6.150
 7579POPC   GL241738   4.254   3.675   6.150
 7579POPC   C1A41739   4.294   3.546   6.450
 7579POPC   D2A41740   4.288   3.576   6.750
 7579POPC   C3A41741   4.357   3.502   7.050
 7579POPC   C4A41742   4.310   3.547   7.350
 7579POPC   C1B41743   4.239   3.734   6.450
 7579POPC   C2B41744   4.174   3.753   6.750
 7579POPC   C3B41745   4.268   3.782   7.050
 7579POPC   C4B41746   4.190   3.727   7.350
 7580POPC   NC341747  10.552   8.195   5.550
 7580POPC   PO441748  10.503   8.166   5.850
 7580POPC   GL141749  10.510   8.245   6.150
 7580POPC   GL241750  10.564   8.131   6.150
 7580POPC   C1A41751  10.497   8.216   6.450
 7580POPC   D2A41752  10.569   8.177   6.750
 7580POPC   C3A41753  10.528   8.225   7.050
 7580POPC   C4A41754  10.535   8.243   7.350
 7580POPC   C1B41755  10.647   7.938   6.450
 7580POPC   C2B41756  10.650   8.011   6.750
 7580POPC   C3B41757  10.631   7.987   7.050
 7580POPC   C4B41758  10.709   8.029   7.350
 7581POPC   NC341759  44.624  40.772   5.550
 7581POPC   PO441760  44.653  40.762   5.850
 7581POPC   GL141761  44.614  40.749   6.150
 7581POPC   GL241762  44.800  40.813   6.150
 7581POPC   C1A41763  44.630  40.799   6.450
 7581POPC   D2A41764  44.709  40.821   6.750
 7581POPC   C3A41765  44.645  40.756   7.050
 7581POPC   C4A41766  44.692  40.791   7.350
 7581POPC   C1B41767  44.906  40.807   6.450
 7581POPC   C2B41768  44.882  40.867   6.750
 7581POPC   C3B41769  44.888  40.800   7.050
 7581POPC   C4B41770  44.900  40.844   7.350
 7582POPC   NC341771  33.071  33.846   5.550
 7582POPC   PO441772  33.032  33.761   5.850
 7582POPC   GL141773  32.996  33.765   6.150
 7582POPC   GL241774  33.109  33.656   6.150
 7582POPC   C1A41775  33.006  33.800   6.450
 7582POPC   D2A41776  32.988  33.798   6.750
 7582POPC   C3A41777  33.040  33.847   7.050
 7582POPC   C4A41778  33.004  33.829   7.350
 7582POPC   C1B41779  33.115  33.575   6.450
 7582POPC   C2B41780  33.152  33.551   6.750
 7582POPC   C3B41781  33.165  33.551   7.050
 7582POPC   C4B41782  33.129  33.561   7.350
 7583POPC   NC341783   5.057  26.852   5.550
 7583POPC   PO441784   5.046  26.806   5.850
 7583POPC   GL141785   5.072  26.827   6.150
 7583POPC   GL241786   5.186  26.891   6.150
 7583POPC   C1A41787   5.082  26.791   6.450
 7583POPC   D2A41788   5.141  26.845   6.750
 7583POPC   C3A41789   5.048  26.768   7.050
 7583POPC   C4A41790   5.098  26.781   7.350
 7583POPC   C1B41791   5.257  27.038   6.450
 7583POPC   C2B41792   5.245  27.039   6.750
 7583POPC   C3B41793   5.231  27.038   7.050
 7583POPC   C4B41794   5.270  27.024   7.350
 7584POPC   NC341795  34.608  11.311   5.550
 7584POPC   PO441796  34.573  11.293   5.850
 7584POPC   GL141797  34.619  11.278   6.150
 7584POPC   GL241798  34.653  11.349   6.150
 7584POPC   C1A41799  34.619  11.309   6.450
 7584POPC   D2A41800  34.624  11.283   6.750
 7584POPC   C3A41801  34.543  11.283   7.050
 7584POPC   C4A41802  34.610  11.271   7.350
 7584POPC   C1B41803  34.783  11.373   6.450
 7584POPC   C2B41804  34.787  11.358   6.750
 7584POPC   C3B41805  34.829  11.319   7.050
 7584POPC   C4B41806  34.846  11.395   7.350
 7585POPC   NC341807  26.822   1.261   5.550
 7585POPC   PO441808  26.804   1.205   5.850
 7585POPC   GL141809  26.776   1.180   6.150
 7585POPC   GL241810  26.956   1.153   6.150
 7585POPC   C1A41811  26.856   1.260   6.450
 7585POPC   D2A41812  26.866   1.212   6.750
 7585POPC   C3A41813  26.796   1.169   7.050
 7585POPC   C4A41814  26.792   1.205   7.350
 7585POPC   C1B41815  26.977   1.065   6.450
 7585POPC   C2B41816  26.999   1.098   6.750
 7585POPC   C3B41817  27.051   1.097   7.050
 7585POPC   C4B41818  27.021   1.099   7.350
 7586POPC   NC341819  27.556  29.115   5.550
 7586POPC   PO441820  27.596  29.110   5.850
 7586POPC   GL141821  27.621  29.144   6.150
 7586POPC   GL241822  27.511  29.065   6.150
 7586POPC   C1A41823  27.592  29.149   6.450
 7586POPC   D2A41824  27.581  29.164   6.750
 7586POPC   C3A41825  27.629  29.132   7.050
 7586POPC   C4A41826  27.551  29.169   7.350
 7586POPC   C1B41827  27.428  29.015   6.450
 7586POPC   C2B41828  27.346  28.985   6.750
 7586POPC   C3B41829  27.425  28.993   7.050
 7586POPC   C4B41830  27.392  28.972   7.350
 7587POPC   NC341831  43.898  33.821   5.550
 7587POPC   PO441832  43.837  33.782   5.850
 7587POPC   GL141833  43.857  33.769   6.150
 7587POPC   GL241834  43.968  33.785   6.150
 7587POPC   C1A41835  43.886  33.755   6.450
 7587POPC   D2A41836  43.910  33.803   6.750
 7587POPC   C3A41837  43.862  33.781   7.050
 7587POPC   C4A41838  43.857  33.848   7.350
 7587POPC   C1B41839  44.145  33.820   6.450
 7587POPC   C2B41840  44.178  33.799   6.750
 7587POPC   C3B41841  44.122  33.828   7.050
 7587POPC   C4B41842  44.107  33.750   7.350
 7588POPC   NC341843   3.573  16.754   5.550
 7588POPC   PO441844   3.521  16.728   5.850
 7588POPC   GL141845   3.568  16.736   6.150
 7588POPC   GL241846   3.574  16.615   6.150
 7588POPC   C1A41847   3.513  16.737   6.450
 7588POPC   D2A41848   3.534  16.729   6.750
 7588POPC   C3A41849   3.526  16.731   7.050
 7588POPC   C4A41850   3.548  16.768   7.350
 7588POPC   C1B41851   3.678  16.504   6.450
 7588POPC   C2B41852   3.631  16.477   6.750
 7588POPC   C3B41853   3.668  16.498   7.050
 7588POPC   C4B41854   3.673  16.555   7.350
 7589POPC   NC341855  30.683   6.627   5.550
 7589POPC   PO441856  30.706   6.672   5.850
 7589POPC   GL141857  30.657   6.630   6.150
 7589POPC   GL241858  30.535   6.567   6.150
 7589POPC   C1A41859  30.733   6.661   6.450
 7589POPC   D2A41860  30.694   6.636   6.750
 7589POPC   C3A41861  30.702   6.636   7.050
 7589POPC   C4A41862  30.736   6.628   7.350
 7589POPC   C1B41863  30.468   6.549   6.450
 7589POPC   C2B41864  30.496   6.568   6.750
 7589POPC   C3B41865  30.428   6.585   7.050
 7589POPC   C4B41866  30.479   6.587   7.350
 7590POPC   NC341867  34.598  24.511   5.550
 7590POPC   PO441868  34.573  24.537   5.850
 7590POPC   GL141869  34.599  24.525   6.150
 7590POPC   GL241870  34.669  24.366   6.150
 7590POPC   C1A41871  34.530  24.527   6.450
 7590POPC   D2A41872  34.548  24.476   6.750
 7590POPC   C3A41873  34.607  24.538   7.050
 7590POPC   C4A41874  34.573  24.473   7.350
 7590POPC   C1B41875  34.712  24.258   6.450
 7590POPC   C2B41876  34.757  24.335   6.750
 7590POPC   C3B41877  34.722  24.342   7.050
 7590POPC   C4B41878  34.754  24.273   7.350
 7591POPC   NC341879  32.260  34.596   5.550
 7591POPC   PO441880  32.218  34.598   5.850
 7591POPC   GL141881  32.236  34.587   6.150
 7591POPC   GL241882  32.112  34.549   6.150
 7591POPC   C1A41883  32.280  34.563   6.450
 7591POPC   D2A41884  32.255  34.584   6.750
 7591POPC   C3A41885  32.237  34.544   7.050
 7591POPC   C4A41886  32.222  34.619   7.350
 7591POPC   C1B41887  32.025  34.582   6.450
 7591POPC   C2B41888  32.044  34.620   6.750
 7591POPC   C3B41889  32.005  34.617   7.050
 7591POPC   C4B41890  32.004  34.536   7.350
 7592POPC   NC341891  33.816  35.307   5.550
 7592POPC   PO441892  33.799  35.361   5.850
 7592POPC   GL141893  33.765  35.316   6.150
 7592POPC   GL241894  33.795  35.233   6.150
 7592POPC   C1A41895  33.764  35.397   6.450
 7592POPC   D2A41896  33.766  35.348   6.750
 7592POPC   C3A41897  33.817  35.304   7.050
 7592POPC   C4A41898  33.803  35.337   7.350
 7592POPC   C1B41899  33.906  35.127   6.450
 7592POPC   C2B41900  33.832  35.132   6.750
 7592POPC   C3B41901  33.901  35.108   7.050
 7592POPC   C4B41902  33.885  35.150   7.350
 7593POPC   NC341903   4.336  30.675   5.550
 7593POPC   PO441904   4.313  30.667   5.850
 7593POPC   GL141905   4.358  30.725   6.150
 7593POPC   GL241906   4.430  30.604   6.150
 7593POPC   C1A41907   4.307  30.689   6.450
 7593POPC   D2A41908   4.313  30.703   6.750
 7593POPC   C3A41909   4.321  30.680   7.050
 7593POPC   C4A41910   4.338  30.728   7.350
 7593POPC   C1B41911   4.495  30.433   6.450
 7593POPC   C2B41912   4.484  30.452   6.750
 7593POPC   C3B41913   4.399  30.520   7.050
 7593POPC   C4B41914   4.452  30.475   7.350
 7594POPC   NC341915  32.235   4.321   5.550
 7594POPC   PO441916  32.248   4.276   5.850
 7594POPC   GL141917  32.229   4.360   6.150
 7594POPC   GL241918  32.218   4.445   6.150
 7594POPC   C1A41919  32.234   4.356   6.450
 7594POPC   D2A41920  32.292   4.294   6.750
 7594POPC   C3A41921  32.245   4.310   7.050
 7594POPC   C4A41922  32.261   4.358   7.350
 7594POPC   C1B41923  32.056   4.545   6.450
 7594POPC   C2B41924  32.083   4.543   6.750
 7594POPC   C3B41925  32.088   4.522   7.050
 7594POPC   C4B41926  32.071   4.501   7.350
 7595POPC   NC341927  22.893  21.432   5.550
 7595POPC   PO441928  22.934  21.355   5.850
 7595POPC   GL141929  22.979  21.383   6.150
 7595POPC   GL241930  23.036  21.522   6.150
 7595POPC   C1A41931  22.977  21.388   6.450
 7595POPC   D2A41932  22.917  21.338   6.750
 7595POPC   C3A41933  22.906  21.365   7.050
 7595POPC   C4A41934  22.893  21.433   7.350
 7595POPC   C1B41935  23.106  21.536   6.450
 7595POPC   C2B41936  23.072  21.632   6.750
 7595POPC   C3B41937  23.112  21.600   7.050
 7595POPC   C4B41938  23.068  21.549   7.350
 7596POPC   NC341939   1.199  24.470   5.550
 7596POPC   PO441940   1.260  24.521   5.850
 7596POPC   GL141941   1.164  24.534   6.150
 7596POPC   GL241942   1.178  24.433   6.150
 7596POPC   C1A41943   1.199  24.491   6.450
 7596POPC   D2A41944   1.222  24.518   6.750
 7596POPC   C3A41945   1.191  24.510   7.050
 7596POPC   C4A41946   1.181  24.522   7.350
 7596POPC   C1B41947   1.022  24.266   6.450
 7596POPC   C2B41948   1.084  24.302   6.750
 7596POPC   C3B41949   1.100  24.307   7.050
 7596POPC   C4B41950   1.072  24.312   7.350
 7597POPC   NC341951   3.516  21.379   5.550
 7597POPC   PO441952   3.514  21.420   5.850
 7597POPC   GL141953   3.524  21.343   6.150
 7597POPC   GL241954   3.412  21.443   6.150
 7597POPC   C1A41955   3.535  21.352   6.450
 7597POPC   D2A41956   3.521  21.338   6.750
 7597POPC   C3A41957   3.531  21.367   7.050
 7597POPC   C4A41958   3.515  21.374   7.350
 7597POPC   C1B41959   3.354  21.575   6.450
 7597POPC   C2B41960   3.390  21.531   6.750
 7597POPC   C3B41961   3.388  21.556   7.050
 7597POPC   C4B41962   3.368  21.613   7.350
 7598POPC   NC341963  35.336  12.048   5.550
 7598POPC   PO441964  35.372  12.037   5.850
 7598POPC   GL141965  35.388  12.060   6.150
 7598POPC   GL241966  35.432  12.131   6.150
 7598POPC   C1A41967  35.395  12.085   6.450
 7598POPC   D2A41968  35.348  12.076   6.750
 7598POPC   C3A41969  35.306  12.039   7.050
 7598POPC   C4A41970  35.349  12.058   7.350
 7598POPC   C1B41971  35.613  12.156   6.450
 7598POPC   C2B41972  35.598  12.234   6.750
 7598POPC   C3B41973  35.597  12.167   7.050
 7598POPC   C4B41974  35.531  12.202   7.350
 7599POPC   NC341975   9.765   2.019   5.550
 7599POPC   PO441976   9.716   1.944   5.850
 7599POPC   GL141977   9.777   2.006   6.150
 7599POPC   GL241978   9.799   1.897   6.150
 7599POPC   C1A41979   9.711   2.007   6.450
 7599POPC   D2A41980   9.788   1.945   6.750
 7599POPC   C3A41981   9.715   2.029   7.050
 7599POPC   C4A41982   9.714   2.026   7.350
 7599POPC   C1B41983   9.782   1.738   6.450
 7599POPC   C2B41984   9.719   1.700   6.750
 7599POPC   C3B41985   9.780   1.713   7.050
 7599POPC   C4B41986   9.725   1.788   7.350
 7600POPC   NC341987   8.223  41.589   5.550
 7600POPC   PO441988   8.162  41.580   5.850
 7600POPC   GL141989   8.177  41.532   6.150
 7600POPC   GL241990   8.282  41.490   6.150
 7600POPC   C1A41991   8.149  41.513   6.450
 7600POPC   D2A41992   8.244  41.524   6.750
 7600POPC   C3A41993   8.246  41.582   7.050
 7600POPC   C4A41994   8.164  41.606   7.350
 7600POPC   C1B41995   8.359  41.363   6.450
 7600POPC   C2B41996   8.325  41.393   6.750
 7600POPC   C3B41997   8.337  41.362   7.050
 7600POPC   C4B41998   8.308  41.388   7.350
 7601POPC   NC341999  19.036  20.576   5.550
 7601POPC   PO442000  19.089  20.641   5.850
 7601POPC   GL142001  19.052  20.600   6.150
 7601POPC   GL242002  18.926  20.523   6.150
 7601POPC   C1A42003  19.084  20.641   6.450
 7601POPC   D2A42004  19.079  20.644   6.750
 7601POPC   C3A42005  19.095  20.656   7.050
 7601POPC   C4A42006  19.093  20.581   7.350
 7601POPC   C1B42007  18.856  20.533   6.450
 7601POPC   C2B42008  18.833  20.530   6.750
 7601POPC   C3B42009  18.824  20.483   7.050
 7601POPC   C4B42010  18.799  20.454   7.350
 7602POPC   NC342011  30.696  12.825   5.550
 7602POPC   PO442012  30.647  12.839   5.850
 7602POPC   GL142013  30.711  12.808   6.150
 7602POPC   GL242014  30.746  12.730   6.150
 7602POPC   C1A42015  30.675  12.848   6.450
 7602POPC   D2A42016  30.746  12.848   6.750
 7602POPC   C3A42017  30.716  12.861   7.050
 7602POPC   C4A42018  30.705  12.891   7.350
 7602POPC   C1B42019  30.786  12.650   6.450
 7602POPC   C2B42020  30.770  12.599   6.750
 7602POPC   C3B42021  30.788  12.595   7.050
 7602POPC   C4B42022  30.744  12.627   7.350
 7603POPC   NC342023  18.323   2.038   5.550
 7603POPC   PO442024  18.251   2.014   5.850
 7603POPC   GL142025  18.264   2.033   6.150
 7603POPC   GL242026  18.293   1.835   6.150
 7603POPC   C1A42027  18.306   1.990   6.450
 7603POPC   D2A42028  18.276   2.027   6.750
 7603POPC   C3A42029  18.277   2.001   7.050
 7603POPC   C4A42030  18.244   1.993   7.350
 7603POPC   C1B42031  18.404   1.755   6.450
 7603POPC   C2B42032  18.386   1.776   6.750
 7603POPC   C3B42033  18.335   1.780   7.050
 7603POPC   C4B42034  18.404   1.778   7.350
 7604POPC   NC342035  13.634  26.828   5.550
 7604POPC   PO442036  13.656  26.805   5.850
 7604POPC   GL142037  13.649  26.849   6.150
 7604POPC   GL242038  13.691  26.757   6.150
 7604POPC   C1A42039  13.645  26.822   6.450
 7604POPC   D2A42040  13.673  26.801   6.750
 7604POPC   C3A42041  13.596  26.796   7.050
 7604POPC   C4A42042  13.631  26.785   7.350
 7604POPC   C1B42043  13.755  26.626   6.450
 7604POPC   C2B42044  13.770  26.610   6.750
 7604POPC   C3B42045  13.824  26.651   7.050
 7604POPC   C4B42046  13.742  26.592   7.350
 7605POPC   NC342047  43.133   9.736   5.550
 7605POPC   PO442048  43.158   9.761   5.850
 7605POPC   GL142049  43.119   9.762   6.150
 7605POPC   GL242050  43.180   9.630   6.150
 7605POPC   C1A42051  43.131   9.733   6.450
 7605POPC   D2A42052  43.104   9.776   6.750
 7605POPC   C3A42053  43.146   9.724   7.050
 7605POPC   C4A42054  43.100   9.732   7.350
 7605POPC   C1B42055  43.238   9.588   6.450
 7605POPC   C2B42056  43.269   9.595   6.750
 7605POPC   C3B42057  43.272   9.521   7.050
 7605POPC   C4B42058  43.306   9.585   7.350
 7606POPC   NC342059  22.120   5.064   5.550
 7606POPC   PO442060  22.157   5.097   5.850
 7606POPC   GL142061  22.204   5.061   6.150
 7606POPC   GL242062  22.058   5.014   6.150
 7606POPC   C1A42063  22.195   5.131   6.450
 7606POPC   D2A42064  22.145   5.131   6.750
 7606POPC   C3A42065  22.192   5.070   7.050
 7606POPC   C4A42066  22.191   5.071   7.350
 7606POPC   C1B42067  22.045   4.863   6.450
 7606POPC   C2B42068  22.024   4.853   6.750
 7606POPC   C3B42069  22.020   4.828   7.050
 7606POPC   C4B42070  22.020   4.889   7.350
 7607POPC   NC342071  25.308  39.182   5.550
 7607POPC   PO442072  25.253  39.198   5.850
 7607POPC   GL142073  25.245  39.199   6.150
 7607POPC   GL242074  25.188  39.099   6.150
 7607POPC   C1A42075  25.291  39.240   6.450
 7607POPC   D2A42076  25.285  39.248   6.750
 7607POPC   C3A42077  25.275  39.242   7.050
 7607POPC   C4A42078  25.313  39.227   7.350
 7607POPC   C1B42079  25.106  39.073   6.450
 7607POPC   C2B42080  25.120  38.997   6.750
 7607POPC   C3B42081  25.143  39.061   7.050
 7607POPC   C4B42082  25.095  39.066   7.350
 7608POPC   NC342083   8.162  22.911   5.550
 7608POPC   PO442084   8.199  22.946   5.850
 7608POPC   GL142085   8.166  22.938   6.150
 7608POPC   GL242086   8.263  22.984   6.150
 7608POPC   C1A42087   8.154  22.971   6.450
 7608POPC   D2A42088   8.171  22.892   6.750
 7608POPC   C3A42089   8.160  22.928   7.050
 7608POPC   C4A42090   8.148  22.964   7.350
 7608POPC   C1B42091   8.416  23.070   6.450
 7608POPC   C2B42092   8.415  23.074   6.750
 7608POPC   C3B42093   8.414  23.158   7.050
 7608POPC   C4B42094   8.392  23.154   7.350
 7609POPC   NC342095   2.752  43.087   5.550
 7609POPC   PO442096   2.766  43.061   5.850
 7609POPC   GL142097   2.743  43.118   6.150
 7609POPC   GL242098   2.891  43.108   6.150
 7609POPC   C1A42099   2.779  43.157   6.450
 7609POPC   D2A42100   2.759  43.147   6.750
 7609POPC   C3A42101   2.720  43.071   7.050
 7609POPC   C4A42102   2.747  43.128   7.350
 7609POPC   C1B42103   2.978  43.232   6.450
 7609POPC   C2B42104   3.002  43.201   6.750
 7609POPC   C3B42105   3.004  43.225   7.050
 7609POPC   C4B42106   2.963  43.233   7.350
 7610POPC   NC342107  28.334  26.071   5.550
 7610POPC   PO442108  28.341  25.993   5.850
 7610POPC   GL142109  28.392  26.011   6.150
 7610POPC   GL242110  28.252  25.941   6.150
 7610POPC   C1A42111  28.383  25.999   6.450
 7610POPC   D2A42112  28.338  26.028   6.750
 7610POPC   C3A42113  28.352  26.047   7.050
 7610POPC   C4A42114  28.407  26.012   7.350
 7610POPC   C1B42115  28.254  25.884   6.450
 7610POPC   C2B42116  28.203  25.862   6.750
 7610POPC   C3B42117  28.267  25.880   7.050
 7610POPC   C4B42118  28.229  25.864   7.350
 7611POPC   NC342119  29.946   5.055   5.550
 7611POPC   PO442120  29.932   5.126   5.850
 7611POPC   GL142121  29.958   5.092   6.150
 7611POPC   GL242122  29.853   5.036   6.150
 7611POPC   C1A42123  29.910   5.085   6.450
 7611POPC   D2A42124  29.945   5.117   6.750
 7611POPC   C3A42125  29.933   5.131   7.050
 7611POPC   C4A42126  29.918   5.059   7.350
 7611POPC   C1B42127  29.773   4.914   6.450
 7611POPC   C2B42128  29.692   4.934   6.750
 7611POPC   C3B42129  29.728   4.920   7.050
 7611POPC   C4B42130  29.688   4.980   7.350
 7612POPC   NC342131  22.210  40.048   5.550
 7612POPC   PO442132  22.209  40.045   5.850
 7612POPC   GL142133  22.136  39.963   6.150
 7612POPC   GL242134  22.102  39.911   6.150
 7612POPC   C1A42135  22.168  40.005   6.450
 7612POPC   D2A42136  22.211  40.001   6.750
 7612POPC   C3A42137  22.182  39.984   7.050
 7612POPC   C4A42138  22.200  40.001   7.350
 7612POPC   C1B42139  22.085  39.740   6.450
 7612POPC   C2B42140  22.124  39.750   6.750
 7612POPC   C3B42141  22.101  39.782   7.050
 7612POPC   C4B42142  22.151  39.775   7.350
 7613POPC   NC342143  19.027   9.706   5.550
 7613POPC   PO442144  19.046   9.708   5.850
 7613POPC   GL142145  19.051   9.751   6.150
 7613POPC   GL242146  19.045   9.616   6.150
 7613POPC   C1A42147  19.053   9.786   6.450
 7613POPC   D2A42148  19.039   9.742   6.750
 7613POPC   C3A42149  19.077   9.740   7.050
 7613POPC   C4A42150  19.013   9.702   7.350
 7613POPC   C1B42151  19.098   9.539   6.450
 7613POPC   C2B42152  19.151   9.498   6.750
 7613POPC   C3B42153  19.070   9.547   7.050
 7613POPC   C4B42154  19.076   9.524   7.350
 7614POPC   NC342155  41.547  40.803   5.550
 7614POPC   PO442156  41.549  40.752   5.850
 7614POPC   GL142157  41.581  40.758   6.150
 7614POPC   GL242158  41.607  40.850   6.150
 7614POPC   C1A42159  41.541  40.753   6.450
 7614POPC   D2A42160  41.590  40.780   6.750
 7614POPC   C3A42161  41.554  40.746   7.050
 7614POPC   C4A42162  41.549  40.819   7.350
 7614POPC   C1B42163  41.670  41.034   6.450
 7614POPC   C2B42164  41.673  41.062   6.750
 7614POPC   C3B42165  41.608  41.016   7.050
 7614POPC   C4B42166  41.678  41.058   7.350
 7615POPC   NC342167  42.357  26.774   5.550
 7615POPC   PO442168  42.369  26.848   5.850
 7615POPC   GL142169  42.327  26.859   6.150
 7615POPC   GL242170  42.404  26.648   6.150
 7615POPC   C1A42171  42.341  26.789   6.450
 7615POPC   D2A42172  42.333  26.775   6.750
 7615POPC   C3A42173  42.356  26.795   7.050
 7615POPC   C4A42174  42.330  26.815   7.350
 7615POPC   C1B42175  42.442  26.609   6.450
 7615POPC   C2B42176  42.449  26.573   6.750
 7615POPC   C3B42177  42.418  26.540   7.050
 7615POPC   C4B42178  42.358  26.578   7.350
 7616POPC   NC342179  36.128  24.468   5.550
 7616POPC   PO442180  36.122  24.459   5.850
 7616POPC   GL142181  36.141  24.462   6.150
 7616POPC   GL242182  36.034  24.449   6.150
 7616POPC   C1A42183  36.158  24.494   6.450
 7616POPC   D2A42184  36.168  24.532   6.750
 7616POPC   C3A42185  36.101  24.527   7.050
 7616POPC   C4A42186  36.108  24.466   7.350
 7616POPC   C1B42187  35.877  24.501   6.450
 7616POPC   C2B42188  35.881  24.441   6.750
 7616POPC   C3B42189  35.910  24.506   7.050
 7616POPC   C4B42190  35.917  24.430   7.350
 7617POPC   NC342191   6.679  41.569   5.550
 7617POPC   PO442192   6.694  41.601   5.850
 7617POPC   GL142193   6.604  41.548   6.150
 7617POPC   GL242194   6.692  41.692   6.150
 7617POPC   C1A42195   6.636  41.600   6.450
 7617POPC   D2A42196   6.640  41.587   6.750
 7617POPC   C3A42197   6.694  41.552   7.050
 7617POPC   C4A42198   6.607  41.527   7.350
 7617POPC   C1B42199   6.725  41.794   6.450
 7617POPC   C2B42200   6.687  41.769   6.750
 7617POPC   C3B42201   6.692  41.788   7.050
 7617POPC   C4B42202   6.671  41.826   7.350
 7618POPC   NC342203  36.906   2.754   5.550
 7618POPC   PO442204  36.937   2.760   5.850
 7618POPC   GL142205  36.950   2.802   6.150
 7618POPC   GL242206  37.039   2.709   6.150
 7618POPC   C1A42207  36.937   2.774   6.450
 7618POPC   D2A42208  36.927   2.806   6.750
 7618POPC   C3A42209  36.891   2.739   7.050
 7618POPC   C4A42210  36.861   2.727   7.350
 7618POPC   C1B42211  37.132   2.669   6.450
 7618POPC   C2B42212  37.138   2.666   6.750
 7618POPC   C3B42213  37.162   2.625   7.050
 7618POPC   C4B42214  37.093   2.637   7.350
 7619POPC   NC342215  29.187  14.452   5.550
 7619POPC   PO442216  29.152  14.437   5.850
 7619POPC   GL142217  29.181  14.389   6.150
 7619POPC   GL242218  29.001  14.355   6.150
 7619POPC   C1A42219  29.185  14.401   6.450
 7619POPC   D2A42220  29.109  14.417   6.750
 7619POPC   C3A42221  29.125  14.356   7.050
 7619POPC   C4A42222  29.140  14.390   7.350
 7619POPC   C1B42223  28.887  14.285   6.450
 7619POPC   C2B42224  28.942  14.312   6.750
 7619POPC   C3B42225  28.958  14.293   7.050
 7619POPC   C4B42226  28.965  14.258   7.350
 7620POPC   NC342227   9.706  16.760   5.550
 7620POPC   PO442228   9.718  16.742   5.850
 7620POPC   GL142229   9.765  16.716   6.150
 7620POPC   GL242230   9.838  16.618   6.150
 7620POPC   C1A42231   9.725  16.713   6.450
 7620POPC   D2A42232   9.713  16.736   6.750
 7620POPC   C3A42233   9.777  16.694   7.050
 7620POPC   C4A42234   9.748  16.744   7.350
 7620POPC   C1B42235   9.965  16.547   6.450
 7620POPC   C2B42236   9.916  16.620   6.750
 7620POPC   C3B42237   9.975  16.642   7.050
 7620POPC   C4B42238   9.920  16.615   7.350
 7621POPC   NC342239  16.748   6.645   5.550
 7621POPC   PO442240  16.713   6.665   5.850
 7621POPC   GL142241  16.768   6.643   6.150
 7621POPC   GL242242  16.637   6.713   6.150
 7621POPC   C1A42243  16.688   6.623   6.450
 7621POPC   D2A42244  16.776   6.682   6.750
 7621POPC   C3A42245  16.780   6.641   7.050
 7621POPC   C4A42246  16.759   6.674   7.350
 7621POPC   C1B42247  16.471   6.705   6.450
 7621POPC   C2B42248  16.524   6.742   6.750
 7621POPC   C3B42249  16.504   6.701   7.050
 7621POPC   C4B42250  16.447   6.733   7.350
 7622POPC   NC342251  43.934  19.044   5.550
 7622POPC   PO442252  43.900  19.077   5.850
 7622POPC   GL142253  43.841  19.049   6.150
 7622POPC   GL242254  43.823  19.139   6.150
 7622POPC   C1A42255  43.925  19.026   6.450
 7622POPC   D2A42256  43.862  19.052   6.750
 7622POPC   C3A42257  43.866  19.075   7.050
 7622POPC   C4A42258  43.880  19.032   7.350
 7622POPC   C1B42259  43.904  19.351   6.450
 7622POPC   C2B42260  43.859  19.330   6.750
 7622POPC   C3B42261  43.848  19.294   7.050
 7622POPC   C4B42262  43.811  19.263   7.350
 7623POPC   NC342263  14.396   9.770   5.550
 7623POPC   PO442264  14.364   9.753   5.850
 7623POPC   GL142265  14.396   9.725   6.150
 7623POPC   GL242266  14.488   9.731   6.150
 7623POPC   C1A42267  14.366   9.795   6.450
 7623POPC   D2A42268  14.354   9.700   6.750
 7623POPC   C3A42269  14.369   9.716   7.050
 7623POPC   C4A42270  14.378   9.702   7.350
 7623POPC   C1B42271  14.697   9.800   6.450
 7623POPC   C2B42272  14.696   9.817   6.750
 7623POPC   C3B42273  14.678   9.810   7.050
 7623POPC   C4B42274  14.625   9.807   7.350
 7624POPC   NC342275   9.007  41.533   5.550
 7624POPC   PO442276   8.932  41.594   5.850
 7624POPC   GL142277   8.950  41.569   6.150
 7624POPC   GL242278   8.986  41.490   6.150
 7624POPC   C1A42279   8.972  41.522   6.450
 7624POPC   D2A42280   9.006  41.525   6.750
 7624POPC   C3A42281   8.927  41.523   7.050
 7624POPC   C4A42282   8.982  41.535   7.350
 7624POPC   C1B42283   9.071  41.359   6.450
 7624POPC   C2B42284   9.088  41.315   6.750
 7624POPC   C3B42285   9.085  41.333   7.050
 7624POPC   C4B42286   9.062  41.362   7.350
 7625POPC   NC342287  17.500   5.820   5.550
 7625POPC   PO442288  17.529   5.873   5.850
 7625POPC   GL142289  17.468   5.901   6.150
 7625POPC   GL242290  17.573   5.796   6.150
 7625POPC   C1A42291  17.459   5.852   6.450
 7625POPC   D2A42292  17.484   5.888   6.750
 7625POPC   C3A42293  17.472   5.890   7.050
 7625POPC   C4A42294  17.511   5.855   7.350
 7625POPC   C1B42295  17.551   5.654   6.450
 7625POPC   C2B42296  17.566   5.638   6.750
 7625POPC   C3B42297  17.577   5.680   7.050
 7625POPC   C4B42298  17.553   5.619   7.350
 7626POPC   NC342299  14.358  44.711   5.550
 7626POPC   PO442300  14.385  44.636   5.850
 7626POPC   GL142301  14.400  44.659   6.150
 7626POPC   GL242302  14.562  44.647   6.150
 7626POPC   C1A42303  14.425  44.702   6.450
 7626POPC   D2A42304  14.445  44.672   6.750
 7626POPC   C3A42305  14.367  44.634   7.050
 7626POPC   C4A42306  14.391  44.682   7.350
 7626POPC   C1B42307  14.670  44.571   6.450
 7626POPC   C2B42308  14.633  44.631   6.750
 7626POPC   C3B42309  14.671  44.647   7.050
 7626POPC   C4B42310  14.688  44.602   7.350
 7627POPC   NC342311  10.540  24.517   5.550
 7627POPC   PO442312  10.490  24.482   5.850
 7627POPC   GL142313  10.555  24.489   6.150
 7627POPC   GL242314  10.444  24.633   6.150
 7627POPC   C1A42315  10.513  24.512   6.450
 7627POPC   D2A42316  10.520  24.460   6.750
 7627POPC   C3A42317  10.555  24.509   7.050
 7627POPC   C4A42318  10.488  24.471   7.350
 7627POPC   C1B42319  10.465  24.772   6.450
 7627POPC   C2B42320  10.471  24.683   6.750
 7627POPC   C3B42321  10.460  24.747   7.050
 7627POPC   C4B42322  10.416  24.771   7.350
 7628POPC   NC342323  40.004   9.781   5.550
 7628POPC   PO442324  39.968   9.699   5.850
 7628POPC   GL142325  39.979   9.797   6.150
 7628POPC   GL242326  39.998   9.919   6.150
 7628POPC   C1A42327  39.996   9.717   6.450
 7628POPC   D2A42328  40.010   9.731   6.750
 7628POPC   C3A42329  40.008   9.724   7.050
 7628POPC   C4A42330  39.996   9.780   7.350
 7628POPC   C1B42331  39.918   9.958   6.450
 7628POPC   C2B42332  39.919   9.957   6.750
 7628POPC   C3B42333  39.940   9.998   7.050
 7628POPC   C4B42334  39.980  10.011   7.350
 7629POPC   NC342335   1.237   7.439   5.550
 7629POPC   PO442336   1.224   7.426   5.850
 7629POPC   GL142337   1.233   7.382   6.150
 7629POPC   GL242338   1.215   7.502   6.150
 7629POPC   C1A42339   1.251   7.377   6.450
 7629POPC   D2A42340   1.250   7.438   6.750
 7629POPC   C3A42341   1.208   7.400   7.050
 7629POPC   C4A42342   1.196   7.382   7.350
 7629POPC   C1B42343   1.161   7.613   6.450
 7629POPC   C2B42344   1.165   7.701   6.750
 7629POPC   C3B42345   1.158   7.649   7.050
 7629POPC   C4B42346   1.117   7.643   7.350
 7630POPC   NC342347   5.882  11.274   5.550
 7630POPC   PO442348   5.901  11.307   5.850
 7630POPC   GL142349   5.878  11.263   6.150
 7630POPC   GL242350   5.937  11.446   6.150
 7630POPC   C1A42351   5.826  11.298   6.450
 7630POPC   D2A42352   5.899  11.287   6.750
 7630POPC   C3A42353   5.872  11.307   7.050
 7630POPC   C4A42354   5.841  11.255   7.350
 7630POPC   C1B42355   5.966  11.531   6.450
 7630POPC   C2B42356   5.988  11.468   6.750
 7630POPC   C3B42357   6.014  11.561   7.050
 7630POPC   C4B42358   5.968  11.529   7.350
 7631POPC   NC342359  43.897   2.796   5.550
 7631POPC   PO442360  43.893   2.805   5.850
 7631POPC   GL142361  43.871   2.731   6.150
 7631POPC   GL242362  43.987   2.843   6.150
 7631POPC   C1A42363  43.878   2.814   6.450
 7631POPC   D2A42364  43.845   2.800   6.750
 7631POPC   C3A42365  43.885   2.722   7.050
 7631POPC   C4A42366  43.887   2.778   7.350
 7631POPC   C1B42367  44.059   2.906   6.450
 7631POPC   C2B42368  44.099   2.928   6.750
 7631POPC   C3B42369  44.091   2.936   7.050
 7631POPC   C4B42370  44.137   2.915   7.350
 7632POPC   NC342371  36.117  22.890   5.550
 7632POPC   PO442372  36.103  22.896   5.850
 7632POPC   GL142373  36.169  22.968   6.150
 7632POPC   GL242374  36.020  22.942   6.150
 7632POPC   C1A42375  36.147  22.942   6.450
 7632POPC   D2A42376  36.150  22.921   6.750
 7632POPC   C3A42377  36.139  22.970   7.050
 7632POPC   C4A42378  36.165  22.904   7.350
 7632POPC   C1B42379  35.922  22.924   6.450
 7632POPC   C2B42380  35.920  22.989   6.750
 7632POPC   C3B42381  35.872  22.943   7.050
 7632POPC   C4B42382  35.837  22.980   7.350
 7633POPC   NC342383  26.785   6.687   5.550
 7633POPC   PO442384  26.860   6.597   5.850
 7633POPC   GL142385  26.772   6.684   6.150
 7633POPC   GL242386  26.750   6.581   6.150
 7633POPC   C1A42387  26.858   6.632   6.450
 7633POPC   D2A42388  26.834   6.598   6.750
 7633POPC   C3A42389  26.849   6.631   7.050
 7633POPC   C4A42390  26.825   6.676   7.350
 7633POPC   C1B42391  26.623   6.577   6.450
 7633POPC   C2B42392  26.591   6.524   6.750
 7633POPC   C3B42393  26.572   6.499   7.050
 7633POPC   C4B42394  26.622   6.591   7.350
 7634POPC   NC342395  20.611  19.865   5.550
 7634POPC   PO442396  20.600  19.845   5.850
 7634POPC   GL142397  20.634  19.829   6.150
 7634POPC   GL242398  20.487  19.863   6.150
 7634POPC   C1A42399  20.592  19.805   6.450
 7634POPC   D2A42400  20.617  19.828   6.750
 7634POPC   C3A42401  20.600  19.802   7.050
 7634POPC   C4A42402  20.620  19.808   7.350
 7634POPC   C1B42403  20.405  19.922   6.450
 7634POPC   C2B42404  20.363  19.911   6.750
 7634POPC   C3B42405  20.353  19.937   7.050
 7634POPC   C4B42406  20.367  19.946   7.350
 7635POPC   NC342407  30.683  10.544   5.550
 7635POPC   PO442408  30.713  10.552   5.850
 7635POPC   GL142409  30.723  10.566   6.150
 7635POPC   GL242410  30.628  10.380   6.150
 7635POPC   C1A42411  30.716  10.525   6.450
 7635POPC   D2A42412  30.732  10.514   6.750
 7635POPC   C3A42413  30.670  10.476   7.050
 7635POPC   C4A42414  30.694  10.550   7.350
 7635POPC   C1B42415  30.590  10.324   6.450
 7635POPC   C2B42416  30.566  10.276   6.750
 7635POPC   C3B42417  30.571  10.339   7.050
 7635POPC   C4B42418  30.559  10.279   7.350
 7636POPC   NC342419   3.497  20.576   5.550
 7636POPC   PO442420   3.551  20.651   5.850
 7636POPC   GL142421   3.509  20.612   6.150
 7636POPC   GL242422   3.397  20.557   6.150
 7636POPC   C1A42423   3.520  20.591   6.450
 7636POPC   D2A42424   3.498  20.650   6.750
 7636POPC   C3A42425   3.525  20.657   7.050
 7636POPC   C4A42426   3.521  20.615   7.350
 7636POPC   C1B42427   3.318  20.502   6.450
 7636POPC   C2B42428   3.311  20.484   6.750
 7636POPC   C3B42429   3.369  20.445   7.050
 7636POPC   C4B42430   3.309  20.436   7.350
 7637POPC   NC342431  32.223  24.456   5.550
 7637POPC   PO442432  32.294  24.513   5.850
 7637POPC   GL142433  32.230  24.488   6.150
 7637POPC   GL242434  32.124  24.407   6.150
 7637POPC   C1A42435  32.288  24.479   6.450
 7637POPC   D2A42436  32.244  24.481   6.750
 7637POPC   C3A42437  32.200  24.477   7.050
 7637POPC   C4A42438  32.269  24.459   7.350
 7637POPC   C1B42439  32.105  24.317   6.450
 7637POPC   C2B42440  32.056  24.275   6.750
 7637POPC   C3B42441  32.099  24.288   7.050
 7637POPC   C4B42442  32.122  24.356   7.350
 7638POPC   NC342443  10.475  23.696   5.550
 7638POPC   PO442444  10.539  23.726   5.850
 7638POPC   GL142445  10.489  23.741   6.150
 7638POPC   GL242446  10.402  23.790   6.150
 7638POPC   C1A42447  10.536  23.748   6.450
 7638POPC   D2A42448  10.525  23.698   6.750
 7638POPC   C3A42449  10.477  23.725   7.050
 7638POPC   C4A42450  10.566  23.666   7.350
 7638POPC   C1B42451  10.240  23.761   6.450
 7638POPC   C2B42452  10.245  23.773   6.750
 7638POPC   C3B42453  10.290  23.820   7.050
 7638POPC   C4B42454  10.307  23.797   7.350
 7639POPC   NC342455  25.313  22.199   5.550
 7639POPC   PO442456  25.291  22.209   5.850
 7639POPC   GL142457  25.271  22.192   6.150
 7639POPC   GL242458  25.334  22.249   6.150
 7639POPC   C1A42459  25.294  22.208   6.450
 7639POPC   D2A42460  25.268  22.197   6.750
 7639POPC   C3A42461  25.277  22.198   7.050
 7639POPC   C4A42462  25.283  22.202   7.350
 7639POPC   C1B42463  25.499  22.290   6.450
 7639POPC   C2B42464  25.445  22.310   6.750
 7639POPC   C3B42465  25.421  22.345   7.050
 7639POPC   C4B42466  25.469  22.346   7.350
 7640POPC   NC342467   5.095   3.542   5.550
 7640POPC   PO442468   5.128   3.541   5.850
 7640POPC   GL142469   5.095   3.525   6.150
 7640POPC   GL242470   5.110   3.445   6.150
 7640POPC   C1A42471   5.084   3.492   6.450
 7640POPC   D2A42472   5.052   3.536   6.750
 7640POPC   C3A42473   5.068   3.532   7.050
 7640POPC   C4A42474   5.067   3.502   7.350
 7640POPC   C1B42475   5.081   3.260   6.450
 7640POPC   C2B42476   5.093   3.275   6.750
 7640POPC   C3B42477   5.068   3.271   7.050
 7640POPC   C4B42478   5.089   3.303   7.350
 7641POPC   NC342479  17.546  35.382   5.550
 7641POPC   PO442480  17.477  35.391   5.850
 7641POPC   GL142481  17.498  35.389   6.150
 7641POPC   GL242482  17.501  35.201   6.150
 7641POPC   C1A42483  17.545  35.303   6.450
 7641POPC   D2A42484  17.547  35.348   6.750
 7641POPC   C3A42485  17.538  35.306   7.050
 7641POPC   C4A42486  17.506  35.355   7.350
 7641POPC   C1B42487  17.457  35.150   6.450
 7641POPC   C2B42488  17.388  35.161   6.750
 7641POPC   C3B42489  17.411  35.139   7.050
 7641POPC   C4B42490  17.382  35.107   7.350
 7642POPC   NC342491   2.811  41.579   5.550
 7642POPC   PO442492   2.778  41.547   5.850
 7642POPC   GL142493   2.777  41.537   6.150
 7642POPC   GL242494   2.674  41.711   6.150
 7642POPC   C1A42495   2.728  41.566   6.450
 7642POPC   D2A42496   2.761  41.531   6.750
 7642POPC   C3A42497   2.766  41.587   7.050
 7642POPC   C4A42498   2.729  41.598   7.350
 7642POPC   C1B42499   2.611  41.763   6.450
 7642POPC   C2B42500   2.627  41.764   6.750
 7642POPC   C3B42501   2.680  41.768   7.050
 7642POPC   C4B42502   2.613  41.763   7.350
 7643POPC   NC342503  19.066   1.167   5.550
 7643POPC   PO442504  19.013   1.203   5.850
 7643POPC   GL142505  19.029   1.236   6.150
 7643POPC   GL242506  19.141   1.133   6.150
 7643POPC   C1A42507  19.076   1.172   6.450
 7643POPC   D2A42508  19.049   1.182   6.750
 7643POPC   C3A42509  19.098   1.205   7.050
 7643POPC   C4A42510  19.042   1.203   7.350
 7643POPC   C1B42511  19.254   1.145   6.450
 7643POPC   C2B42512  19.259   1.085   6.750
 7643POPC   C3B42513  19.332   1.141   7.050
 7643POPC   C4B42514  19.291   1.130   7.350
 7644POPC   NC342515  20.575  17.518   5.550
 7644POPC   PO442516  20.563  17.542   5.850
 7644POPC   GL142517  20.609  17.481   6.150
 7644POPC   GL242518  20.551  17.458   6.150
 7644POPC   C1A42519  20.651  17.462   6.450
 7644POPC   D2A42520  20.589  17.534   6.750
 7644POPC   C3A42521  20.572  17.464   7.050
 7644POPC   C4A42522  20.654  17.523   7.350
 7644POPC   C1B42523  20.456  17.321   6.450
 7644POPC   C2B42524  20.438  17.343   6.750
 7644POPC   C3B42525  20.481  17.265   7.050
 7644POPC   C4B42526  20.447  17.300   7.350
 7645POPC   NC342527  36.167  40.798   5.550
 7645POPC   PO442528  36.151  40.825   5.850
 7645POPC   GL142529  36.173  40.825   6.150
 7645POPC   GL242530  35.966  40.800   6.150
 7645POPC   C1A42531  36.126  40.803   6.450
 7645POPC   D2A42532  36.127  40.734   6.750
 7645POPC   C3A42533  36.091  40.738   7.050
 7645POPC   C4A42534  36.127  40.826   7.350
 7645POPC   C1B42535  35.861  40.762   6.450
 7645POPC   C2B42536  35.906  40.759   6.750
 7645POPC   C3B42537  35.922  40.786   7.050
 7645POPC   C4B42538  35.904  40.794   7.350
 7646POPC   NC342539   8.961  17.556   5.550
 7646POPC   PO442540   8.931  17.490   5.850
 7646POPC   GL142541   8.967  17.529   6.150
 7646POPC   GL242542   9.045  17.630   6.150
 7646POPC   C1A42543   9.005  17.477   6.450
 7646POPC   D2A42544   8.924  17.490   6.750
 7646POPC   C3A42545   8.950  17.512   7.050
 7646POPC   C4A42546   9.002  17.554   7.350
 7646POPC   C1B42547   9.064  17.742   6.450
 7646POPC   C2B42548   9.111  17.758   6.750
 7646POPC   C3B42549   9.111  17.746   7.050
 7646POPC   C4B42550   9.100  17.752   7.350
 7647POPC   NC342551  15.137  42.291   5.550
 7647POPC   PO442552  15.145  42.300   5.850
 7647POPC   GL142553  15.148  42.335   6.150
 7647POPC   GL242554  15.242  42.459   6.150
 7647POPC   C1A42555  15.170  42.384   6.450
 7647POPC   D2A42556  15.209  42.291   6.750
 7647POPC   C3A42557  15.132  42.296   7.050
 7647POPC   C4A42558  15.181  42.331   7.350
 7647POPC   C1B42559  15.399  42.532   6.450
 7647POPC   C2B42560  15.335  42.525   6.750
 7647POPC   C3B42561  15.353  42.520   7.050
 7647POPC   C4B42562  15.362  42.562   7.350
 7648POPC   NC342563  21.366  24.465   5.550
 7648POPC   PO442564  21.414  24.521   5.850
 7648POPC   GL142565  21.370  24.456   6.150
 7648POPC   GL242566  21.269  24.547   6.150
 7648POPC   C1A42567  21.341  24.529   6.450
 7648POPC   D2A42568  21.406  24.530   6.750
 7648POPC   C3A42569  21.432  24.481   7.050
 7648POPC   C4A42570  21.354  24.522   7.350
 7648POPC   C1B42571  21.147  24.601   6.450
 7648POPC   C2B42572  21.115  24.616   6.750
 7648POPC   C3B42573  21.117  24.606   7.050
 7648POPC   C4B42574  21.194  24.603   7.350
 7649POPC   NC342575  43.109  19.852   5.550
 7649POPC   PO442576  43.104  19.865   5.850
 7649POPC   GL142577  43.117  19.803   6.150
 7649POPC   GL242578  43.013  19.910   6.150
 7649POPC   C1A42579  43.124  19.858   6.450
 7649POPC   D2A42580  43.061  19.862   6.750
 7649POPC   C3A42581  43.118  19.872   7.050
 7649POPC   C4A42582  43.075  19.812   7.350
 7649POPC   C1B42583  42.843  19.935   6.450
 7649POPC   C2B42584  42.831  19.949   6.750
 7649POPC   C3B42585  42.858  19.901   7.050
 7649POPC   C4B42586  42.835  19.873   7.350
 7650POPC   NC342587   2.720  20.600   5.550
 7650POPC   PO442588   2.807  20.597   5.850
 7650POPC   GL142589   2.787  20.564   6.150
 7650POPC   GL242590   2.673  20.556   6.150
 7650POPC   C1A42591   2.768  20.652   6.450
 7650POPC   D2A42592   2.764  20.614   6.750
 7650POPC   C3A42593   2.767  20.598   7.050
 7650POPC   C4A42594   2.721  20.610   7.350
 7650POPC   C1B42595   2.581  20.507   6.450
 7650POPC   C2B42596   2.565  20.543   6.750
 7650POPC   C3B42597   2.528  20.450   7.050
 7650POPC   C4B42598   2.519  20.457   7.350
 7651POPC   NC342599  22.121   8.195   5.550
 7651POPC   PO442600  22.145   8.239   5.850
 7651POPC   GL142601  22.128   8.224   6.150
 7651POPC   GL242602  22.212   8.328   6.150
 7651POPC   C1A42603  22.180   8.215   6.450
 7651POPC   D2A42604  22.142   8.174   6.750
 7651POPC   C3A42605  22.145   8.173   7.050
 7651POPC   C4A42606  22.152   8.222   7.350
 7651POPC   C1B42607  22.320   8.430   6.450
 7651POPC   C2B42608  22.330   8.417   6.750
 7651POPC   C3B42609  22.274   8.436   7.050
 7651POPC   C4B42610  22.296   8.408   7.350
 7652POPC   NC342611  22.211  18.255   5.550
 7652POPC   PO442612  22.118  18.274   5.850
 7652POPC   GL142613  22.163  18.250   6.150
 7652POPC   GL242614  22.285  18.417   6.150
 7652POPC   C1A42615  22.180  18.261   6.450
 7652POPC   D2A42616  22.138  18.297   6.750
 7652POPC   C3A42617  22.145  18.245   7.050
 7652POPC   C4A42618  22.172  18.247   7.350
 7652POPC   C1B42619  22.363  18.482   6.450
 7652POPC   C2B42620  22.366  18.426   6.750
 7652POPC   C3B42621  22.277  18.426   7.050
 7652POPC   C4B42622  22.338  18.469   7.350
 7653POPC   NC342623   7.442  43.917   5.550
 7653POPC   PO442624   7.433  43.914   5.850
 7653POPC   GL142625   7.382  43.927   6.150
 7653POPC   GL242626   7.337  43.815   6.150
 7653POPC   C1A42627   7.466  43.919   6.450
 7653POPC   D2A42628   7.441  43.837   6.750
 7653POPC   C3A42629   7.463  43.901   7.050
 7653POPC   C4A42630   7.463  43.897   7.350
 7653POPC   C1B42631   7.198  43.727   6.450
 7653POPC   C2B42632   7.179  43.706   6.750
 7653POPC   C3B42633   7.183  43.753   7.050
 7653POPC   C4B42634   7.189  43.769   7.350
 7654POPC   NC342635   5.912  25.997   5.550
 7654POPC   PO442636   5.890  26.016   5.850
 7654POPC   GL142637   5.853  26.074   6.150
 7654POPC   GL242638   5.762  26.058   6.150
 7654POPC   C1A42639   5.892  26.008   6.450
 7654POPC   D2A42640   5.901  26.020   6.750
 7654POPC   C3A42641   5.918  26.034   7.050
 7654POPC   C4A42642   5.917  26.082   7.350
 7654POPC   C1B42643   5.632  26.057   6.450
 7654POPC   C2B42644   5.618  26.093   6.750
 7654POPC   C3B42645   5.653  26.142   7.050
 7654POPC   C4B42646   5.586  26.109   7.350
 7655POPC   NC342647  42.377   4.326   5.550
 7655POPC   PO442648  42.295   4.315   5.850
 7655POPC   GL142649  42.332   4.314   6.150
 7655POPC   GL242650  42.289   4.478   6.150
 7655POPC   C1A42651  42.349   4.272   6.450
 7655POPC   D2A42652  42.370   4.327   6.750
 7655POPC   C3A42653  42.308   4.274   7.050
 7655POPC   C4A42654  42.294   4.345   7.350
 7655POPC   C1B42655  42.284   4.577   6.450
 7655POPC   C2B42656  42.238   4.527   6.750
 7655POPC   C3B42657  42.290   4.550   7.050
 7655POPC   C4B42658  42.306   4.565   7.350
 7656POPC   NC342659  40.813   6.635   5.550
 7656POPC   PO442660  40.797   6.645   5.850
 7656POPC   GL142661  40.795   6.653   6.150
 7656POPC   GL242662  40.785   6.730   6.150
 7656POPC   C1A42663  40.792   6.694   6.450
 7656POPC   D2A42664  40.778   6.659   6.750
 7656POPC   C3A42665  40.791   6.652   7.050
 7656POPC   C4A42666  40.760   6.620   7.350
 7656POPC   C1B42667  40.775   6.888   6.450
 7656POPC   C2B42668  40.696   6.861   6.750
 7656POPC   C3B42669  40.735   6.881   7.050
 7656POPC   C4B42670  40.678   6.869   7.350
 7657POPC   NC342671  26.833  19.015   5.550
 7657POPC   PO442672  26.794  19.058   5.850
 7657POPC   GL142673  26.830  19.013   6.150
 7657POPC   GL242674  26.864  19.117   6.150
 7657POPC   C1A42675  26.780  19.065   6.450
 7657POPC   D2A42676  26.849  19.090   6.750
 7657POPC   C3A42677  26.844  19.049   7.050
 7657POPC   C4A42678  26.802  19.095   7.350
 7657POPC   C1B42679  26.925  19.256   6.450
 7657POPC   C2B42680  26.998  19.285   6.750
 7657POPC   C3B42681  26.910  19.223   7.050
 7657POPC   C4B42682  26.915  19.245   7.350
 7658POPC   NC342683  30.697   1.973   5.550
 7658POPC   PO442684  30.741   1.998   5.850
 7658POPC   GL142685  30.709   1.977   6.150
 7658POPC   GL242686  30.763   2.082   6.150
 7658POPC   C1A42687  30.706   1.985   6.450
 7658POPC   D2A42688  30.649   2.028   6.750
 7658POPC   C3A42689  30.676   1.958   7.050
 7658POPC   C4A42690  30.746   1.963   7.350
 7658POPC   C1B42691  30.899   2.069   6.450
 7658POPC   C2B42692  30.956   2.101   6.750
 7658POPC   C3B42693  30.929   2.130   7.050
 7658POPC   C4B42694  30.974   2.103   7.350
 7659POPC   NC342695   5.846  12.116   5.550
 7659POPC   PO442696   5.907  12.090   5.850
 7659POPC   GL142697   5.866  12.035   6.150
 7659POPC   GL242698   5.896  11.993   6.150
 7659POPC   C1A42699   5.897  12.052   6.450
 7659POPC   D2A42700   5.899  12.068   6.750
 7659POPC   C3A42701   5.881  12.074   7.050
 7659POPC   C4A42702   5.879  12.039   7.350
 7659POPC   C1B42703   5.883  11.863   6.450
 7659POPC   C2B42704   5.844  11.821   6.750
 7659POPC   C3B42705   5.894  11.830   7.050
 7659POPC   C4B42706   5.845  11.854   7.350
 7660POPC   NC342707  29.889  11.320   5.550
 7660POPC   PO442708  29.962  11.325   5.850
 7660POPC   GL142709  29.940  11.288   6.150
 7660POPC   GL242710  29.828  11.214   6.150
 7660POPC   C1A42711  29.935  11.345   6.450
 7660POPC   D2A42712  29.949  11.312   6.750
 7660POPC   C3A42713  29.942  11.321   7.050
 7660POPC   C4A42714  29.872  11.321   7.350
 7660POPC   C1B42715  29.822  11.066   6.450
 7660POPC   C2B42716  29.767  11.082   6.750
 7660POPC   C3B42717  29.799  11.127   7.050
 7660POPC   C4B42718  29.830  11.049   7.350
 7661POPC   NC342719   8.981  30.743   5.550
 7661POPC   PO442720   9.012  30.693   5.850
 7661POPC   GL142721   8.957  30.721   6.150
 7661POPC   GL242722   8.868  30.683   6.150
 7661POPC   C1A42723   8.976  30.685   6.450
 7661POPC   D2A42724   8.949  30.657   6.750
 7661POPC   C3A42725   8.991  30.725   7.050
 7661POPC   C4A42726   8.925  30.713   7.350
 7661POPC   C1B42727   8.740  30.725   6.450
 7661POPC   C2B42728   8.691  30.757   6.750
 7661POPC   C3B42729   8.698  30.714   7.050
 7661POPC   C4B42730   8.677  30.744   7.350
 7662POPC   NC342731  36.135  17.514   5.550
 7662POPC   PO442732  36.126  17.507   5.850
 7662POPC   GL142733  36.141  17.549   6.150
 7662POPC   GL242734  36.119  17.364   6.150
 7662POPC   C1A42735  36.086  17.530   6.450
 7662POPC   D2A42736  36.132  17.458   6.750
 7662POPC   C3A42737  36.082  17.551   7.050
 7662POPC   C4A42738  36.160  17.516   7.350
 7662POPC   C1B42739  36.128  17.237   6.450
 7662POPC   C2B42740  36.124  17.213   6.750
 7662POPC   C3B42741  36.178  17.298   7.050
 7662POPC   C4B42742  36.147  17.245   7.350
 7663POPC   NC342743  29.958  36.857   5.550
 7663POPC   PO442744  29.965  36.939   5.850
 7663POPC   GL142745  29.934  36.859   6.150
 7663POPC   GL242746  29.889  36.975   6.150
 7663POPC   C1A42747  29.959  36.900   6.450
 7663POPC   D2A42748  29.910  36.946   6.750
 7663POPC   C3A42749  29.906  36.949   7.050
 7663POPC   C4A42750  29.930  36.876   7.350
 7663POPC   C1B42751  29.871  37.147   6.450
 7663POPC   C2B42752  29.820  37.162   6.750
 7663POPC   C3B42753  29.842  37.165   7.050
 7663POPC   C4B42754  29.789  37.164   7.350
 7664POPC   NC342755   8.183  19.831   5.550
 7664POPC   PO442756   8.226  19.818   5.850
 7664POPC   GL142757   8.224  19.816   6.150
 7664POPC   GL242758   8.043  19.876   6.150
 7664POPC   C1A42759   8.210  19.831   6.450
 7664POPC   D2A42760   8.193  19.852   6.750
 7664POPC   C3A42761   8.158  19.874   7.050
 7664POPC   C4A42762   8.165  19.852   7.350
 7664POPC   C1B42763   8.022  19.992   6.450
 7664POPC   C2B42764   7.961  19.991   6.750
 7664POPC   C3B42765   7.970  20.013   7.050
 7664POPC   C4B42766   7.958  19.943   7.350
 7665POPC   NC342767  36.081   0.388   5.550
 7665POPC   PO442768  36.112   0.459   5.850
 7665POPC   GL142769  36.153   0.401   6.150
 7665POPC   GL242770  36.266   0.397   6.150
 7665POPC   C1A42771  36.110   0.422   6.450
 7665POPC   D2A42772  36.133   0.418   6.750
 7665POPC   C3A42773  36.080   0.443   7.050
 7665POPC   C4A42774  36.079   0.452   7.350
 7665POPC   C1B42775  36.294   0.265   6.450
 7665POPC   C2B42776  36.321   0.326   6.750
 7665POPC   C3B42777  36.299   0.273   7.050
 7665POPC   C4B42778  36.320   0.287   7.350
 7666POPC   NC342779  43.930  35.329   5.550
 7666POPC   PO442780  43.883  35.329   5.850
 7666POPC   GL142781  43.881  35.317   6.150
 7666POPC   GL242782  43.753  35.337   6.150
 7666POPC   C1A42783  43.885  35.400   6.450
 7666POPC   D2A42784  43.918  35.391   6.750
 7666POPC   C3A42785  43.874  35.351   7.050
 7666POPC   C4A42786  43.907  35.305   7.350
 7666POPC   C1B42787  43.629  35.290   6.450
 7666POPC   C2B42788  43.600  35.307   6.750
 7666POPC   C3B42789  43.679  35.289   7.050
 7666POPC   C4B42790  43.666  35.225   7.350
 7667POPC   NC342791  38.498  21.354   5.550
 7667POPC   PO442792  38.469  21.337   5.850
 7667POPC   GL142793  38.424  21.401   6.150
 7667POPC   GL242794  38.382  21.259   6.150
 7667POPC   C1A42795  38.480  21.418   6.450
 7667POPC   D2A42796  38.498  21.379   6.750
 7667POPC   C3A42797  38.417  21.342   7.050
 7667POPC   C4A42798  38.415  21.376   7.350
 7667POPC   C1B42799  38.370  21.119   6.450
 7667POPC   C2B42800  38.396  21.169   6.750
 7667POPC   C3B42801  38.342  21.146   7.050
 7667POPC   C4B42802  38.374  21.195   7.350
 7668POPC   NC342803  12.031  18.327   5.550
 7668POPC   PO442804  12.108  18.266   5.850
 7668POPC   GL142805  12.114  18.313   6.150
 7668POPC   GL242806  12.144  18.181   6.150
 7668POPC   C1A42807  12.056  18.327   6.450
 7668POPC   D2A42808  12.108  18.271   6.750
 7668POPC   C3A42809  12.078  18.292   7.050
 7668POPC   C4A42810  12.039  18.325   7.350
 7668POPC   C1B42811  12.252  18.119   6.450
 7668POPC   C2B42812  12.202  18.046   6.750
 7668POPC   C3B42813  12.212  18.072   7.050
 7668POPC   C4B42814  12.279  18.066   7.350
 7669POPC   NC342815  33.069  29.150   5.550
 7669POPC   PO442816  33.016  29.114   5.850
 7669POPC   GL142817  33.018  29.112   6.150
 7669POPC   GL242818  33.129  29.048   6.150
 7669POPC   C1A42819  32.997  29.130   6.450
 7669POPC   D2A42820  32.986  29.100   6.750
 7669POPC   C3A42821  33.047  29.182   7.050
 7669POPC   C4A42822  33.031  29.116   7.350
 7669POPC   C1B42823  33.227  29.025   6.450
 7669POPC   C2B42824  33.272  29.025   6.750
 7669POPC   C3B42825  33.208  29.005   7.050
 7669POPC   C4B42826  33.269  29.010   7.350
 7670POPC   NC342827  12.102  26.780   5.550
 7670POPC   PO442828  12.080  26.822   5.850
 7670POPC   GL142829  12.074  26.855   6.150
 7670POPC   GL242830  12.113  26.948   6.150
 7670POPC   C1A42831  12.067  26.806   6.450
 7670POPC   D2A42832  12.063  26.812   6.750
 7670POPC   C3A42833  12.055  26.771   7.050
 7670POPC   C4A42834  12.050  26.818   7.350
 7670POPC   C1B42835  12.063  27.105   6.450
 7670POPC   C2B42836  12.060  27.040   6.750
 7670POPC   C3B42837  12.014  27.030   7.050
 7670POPC   C4B42838  12.109  27.076   7.350
 7671POPC   NC342839  40.806  39.270   5.550
 7671POPC   PO442840  40.808  39.232   5.850
 7671POPC   GL142841  40.810  39.190   6.150
 7671POPC   GL242842  40.850  39.296   6.150
 7671POPC   C1A42843  40.832  39.237   6.450
 7671POPC   D2A42844  40.813  39.185   6.750
 7671POPC   C3A42845  40.760  39.221   7.050
 7671POPC   C4A42846  40.818  39.276   7.350
 7671POPC   C1B42847  40.999  39.395   6.450
 7671POPC   C2B42848  40.992  39.394   6.750
 7671POPC   C3B42849  40.991  39.377   7.050
 7671POPC   C4B42850  41.022  39.416   7.350
 7672POPC   NC342851  38.502  16.710   5.550
 7672POPC   PO442852  38.481  16.719   5.850
 7672POPC   GL142853  38.494  16.750   6.150
 7672POPC   GL242854  38.470  16.602   6.150
 7672POPC   C1A42855  38.472  16.713   6.450
 7672POPC   D2A42856  38.463  16.765   6.750
 7672POPC   C3A42857  38.442  16.744   7.050
 7672POPC   C4A42858  38.450  16.764   7.350
 7672POPC   C1B42859  38.563  16.535   6.450
 7672POPC   C2B42860  38.608  16.483   6.750
 7672POPC   C3B42861  38.618  16.535   7.050
 7672POPC   C4B42862  38.553  16.527   7.350
 7673POPC   NC342863  38.414  12.830   5.550
 7673POPC   PO442864  38.439  12.815   5.850
 7673POPC   GL142865  38.412  12.895   6.150
 7673POPC   GL242866  38.379  12.710   6.150
 7673POPC   C1A42867  38.456  12.873   6.450
 7673POPC   D2A42868  38.469  12.816   6.750
 7673POPC   C3A42869  38.483  12.802   7.050
 7673POPC   C4A42870  38.432  12.864   7.350
 7673POPC   C1B42871  38.275  12.609   6.450
 7673POPC   C2B42872  38.294  12.693   6.750
 7673POPC   C3B42873  38.359  12.624   7.050
 7673POPC   C4B42874  38.302  12.680   7.350
 7674POPC   NC342875   1.231  29.140   5.550
 7674POPC   PO442876   1.204  29.127   5.850
 7674POPC   GL142877   1.251  29.134   6.150
 7674POPC   GL242878   1.113  29.115   6.150
 7674POPC   C1A42879   1.180  29.176   6.450
 7674POPC   D2A42880   1.240  29.104   6.750
 7674POPC   C3A42881   1.229  29.109   7.050
 7674POPC   C4A42882   1.244  29.146   7.350
 7674POPC   C1B42883   0.978  29.164   6.450
 7674POPC   C2B42884   0.963  29.121   6.750
 7674POPC   C3B42885   0.968  29.123   7.050
 7674POPC   C4B42886   0.920  29.174   7.350
 7675POPC   NC342887  32.266   1.234   5.550
 7675POPC   PO442888  32.291   1.165   5.850
 7675POPC   GL142889  32.238   1.224   6.150
 7675POPC   GL242890  32.170   1.068   6.150
 7675POPC   C1A42891  32.298   1.207   6.450
 7675POPC   D2A42892  32.295   1.195   6.750
 7675POPC   C3A42893  32.206   1.229   7.050
 7675POPC   C4A42894  32.268   1.209   7.350
 7675POPC   C1B42895  32.148   1.038   6.450
 7675POPC   C2B42896  32.159   0.954   6.750
 7675POPC   C3B42897  32.083   0.961   7.050
 7675POPC   C4B42898  32.154   1.027   7.350
 7676POPC   NC342899  26.773  17.481   5.550
 7676POPC   PO442900  26.789  17.533   5.850
 7676POPC   GL142901  26.834  17.473   6.150
 7676POPC   GL242902  26.761  17.400   6.150
 7676POPC   C1A42903  26.796  17.519   6.450
 7676POPC   D2A42904  26.817  17.544   6.750
 7676POPC   C3A42905  26.774  17.535   7.050
 7676POPC   C4A42906  26.859  17.533   7.350
 7676POPC   C1B42907  26.709  17.281   6.450
 7676POPC   C2B42908  26.676  17.345   6.750
 7676POPC   C3B42909  26.669  17.306   7.050
 7676POPC   C4B42910  26.620  17.309   7.350
 7677POPC   NC342911  43.926  29.901   5.550
 7677POPC   PO442912  43.908  29.875   5.850
 7677POPC   GL142913  43.885  29.872   6.150
 7677POPC   GL242914  43.967  29.822   6.150
 7677POPC   C1A42915  43.880  29.939   6.450
 7677POPC   D2A42916  43.925  29.913   6.750
 7677POPC   C3A42917  43.861  29.913   7.050
 7677POPC   C4A42918  43.928  29.887   7.350
 7677POPC   C1B42919  44.093  29.741   6.450
 7677POPC   C2B42920  44.057  29.766   6.750
 7677POPC   C3B42921  44.076  29.776   7.050
 7677POPC   C4B42922  44.088  29.786   7.350
 7678POPC   NC342923   4.291   0.433   5.550
 7678POPC   PO442924   4.295   0.412   5.850
 7678POPC   GL142925   4.268   0.424   6.150
 7678POPC   GL242926   4.407   0.325   6.150
 7678POPC   C1A42927   4.365   0.485   6.450
 7678POPC   D2A42928   4.316   0.400   6.750
 7678POPC   C3A42929   4.311   0.479   7.050
 7678POPC   C4A42930   4.308   0.429   7.350
 7678POPC   C1B42931   4.385   0.181   6.450
 7678POPC   C2B42932   4.447   0.212   6.750
 7678POPC   C3B42933   4.432   0.184   7.050
 7678POPC   C4B42934   4.434   0.204   7.350
 7679POPC   NC342935  31.451  34.549   5.550
 7679POPC   PO442936  31.432  34.572   5.850
 7679POPC   GL142937  31.459  34.569   6.150
 7679POPC   GL242938  31.445  34.679   6.150
 7679POPC   C1A42939  31.450  34.578   6.450
 7679POPC   D2A42940  31.476  34.562   6.750
 7679POPC   C3A42941  31.440  34.583   7.050
 7679POPC   C4A42942  31.467  34.568   7.350
 7679POPC   C1B42943  31.460  34.857   6.450
 7679POPC   C2B42944  31.478  34.868   6.750
 7679POPC   C3B42945  31.426  34.845   7.050
 7679POPC   C4B42946  31.481  34.786   7.350
 7680POPC   NC342947   4.269  29.955   5.550
 7680POPC   PO442948   4.285  29.942   5.850
 7680POPC   GL142949   4.288  29.910   6.150
 7680POPC   GL242950   4.435  29.980   6.150
 7680POPC   C1A42951   4.348  29.959   6.450
 7680POPC   D2A42952   4.321  29.923   6.750
 7680POPC   C3A42953   4.300  29.907   7.050
 7680POPC   C4A42954   4.334  29.886   7.350
 7680POPC   C1B42955   4.411  30.167   6.450
 7680POPC   C2B42956   4.451  30.124   6.750
 7680POPC   C3B42957   4.445  30.133   7.050
 7680POPC   C4B42958   4.471  30.162   7.350
 7681POPC   NC342959   6.629   6.619   5.550
 7681POPC   PO442960   6.640   6.673   5.850
 7681POPC   GL142961   6.595   6.606   6.150
 7681POPC   GL242962   6.730   6.782   6.150
 7681POPC   C1A42963   6.686   6.634   6.450
 7681POPC   D2A42964   6.656   6.619   6.750
 7681POPC   C3A42965   6.657   6.599   7.050
 7681POPC   C4A42966   6.624   6.625   7.350
 7681POPC   C1B42967   6.800   6.882   6.450
 7681POPC   C2B42968   6.766   6.887   6.750
 7681POPC   C3B42969   6.759   6.891   7.050
 7681POPC   C4B42970   6.764   6.888   7.350
 7682POPC   NC342971   7.386  24.480   5.550
 7682POPC   PO442972   7.462  24.525   5.850
 7682POPC   GL142973   7.457  24.481   6.150
 7682POPC   GL242974   7.425  24.357   6.150
 7682POPC   C1A42975   7.438  24.499   6.450
 7682POPC   D2A42976   7.432  24.446   6.750
 7682POPC   C3A42977   7.468  24.467   7.050
 7682POPC   C4A42978   7.440  24.441   7.350
 7682POPC   C1B42979   7.462  24.255   6.450
 7682POPC   C2B42980   7.452  24.261   6.750
 7682POPC   C3B42981   7.446  24.266   7.050
 7682POPC   C4B42982   7.401  24.240   7.350
 7683POPC   NC342983  38.482  34.616   5.550
 7683POPC   PO442984  38.463  34.585   5.850
 7683POPC   GL142985  38.437  34.531   6.150
 7683POPC   GL242986  38.481  34.495   6.150
 7683POPC   C1A42987  38.409  34.586   6.450
 7683POPC   D2A42988  38.478  34.538   6.750
 7683POPC   C3A42989  38.419  34.601   7.050
 7683POPC   C4A42990  38.456  34.570   7.350
 7683POPC   C1B42991  38.610  34.326   6.450
 7683POPC   C2B42992  38.588  34.355   6.750
 7683POPC   C3B42993  38.587  34.398   7.050
 7683POPC   C4B42994  38.541  34.310   7.350
 7684POPC   NC342995   9.783  13.603   5.550
 7684POPC   PO442996   9.765  13.606   5.850
 7684POPC   GL142997   9.797  13.609   6.150
 7684POPC   GL242998   9.742  13.484   6.150
 7684POPC   C1A42999   9.734  13.600   6.450
 7684POPC   D2A43000   9.774  13.658   6.750
 7684POPC   C3A43001   9.720  13.645   7.050
 7684POPC   C4A43002   9.771  13.625   7.350
 7684POPC   C1B43003   9.737  13.425   6.450
 7684POPC   C2B43004   9.674  13.344   6.750
 7684POPC   C3B43005   9.672  13.379   7.050
 7684POPC   C4B43006   9.721  13.335   7.350
 7685POPC   NC343007  22.118   5.890   5.550
 7685POPC   PO443008  22.190   5.907   5.850
 7685POPC   GL143009  22.155   5.909   6.150
 7685POPC   GL243010  22.105   5.839   6.150
 7685POPC   C1A43011  22.148   5.872   6.450
 7685POPC   D2A43012  22.130   5.843   6.750
 7685POPC   C3A43013  22.147   5.905   7.050
 7685POPC   C4A43014  22.145   5.898   7.350
 7685POPC   C1B43015  21.907   5.784   6.450
 7685POPC   C2B43016  21.968   5.757   6.750
 7685POPC   C3B43017  21.985   5.707   7.050
 7685POPC   C4B43018  21.922   5.734   7.350
 7686POPC   NC343019   8.963   7.414   5.550
 7686POPC   PO443020   9.006   7.395   5.850
 7686POPC   GL143021   9.006   7.437   6.150
 7686POPC   GL243022   8.988   7.537   6.150
 7686POPC   C1A43023   8.986   7.438   6.450
 7686POPC   D2A43024   8.961   7.443   6.750
 7686POPC   C3A43025   8.967   7.427   7.050
 7686POPC   C4A43026   8.987   7.390   7.350
 7686POPC   C1B43027   9.053   7.644   6.450
 7686POPC   C2B43028   9.061   7.650   6.750
 7686POPC   C3B43029   9.093   7.654   7.050
 7686POPC   C4B43030   9.053   7.639   7.350
 7687POPC   NC343031   9.723  22.916   5.550
 7687POPC   PO443032   9.784  22.975   5.850
 7687POPC   GL143033   9.717  22.951   6.150
 7687POPC   GL243034   9.798  22.981   6.150
 7687POPC   C1A43035   9.775  22.939   6.450
 7687POPC   D2A43036   9.794  22.957   6.750
 7687POPC   C3A43037   9.755  22.905   7.050
 7687POPC   C4A43038   9.742  22.968   7.350
 7687POPC   C1B43039   9.912  23.123   6.450
 7687POPC   C2B43040   9.889  23.126   6.750
 7687POPC   C3B43041   9.913  23.075   7.050
 7687POPC   C4B43042   9.922  23.167   7.350
 7688POPC   NC343043  38.442   2.038   5.550
 7688POPC   PO443044  38.441   1.969   5.850
 7688POPC   GL143045  38.476   2.014   6.150
 7688POPC   GL243046  38.520   1.904   6.150
 7688POPC   C1A43047  38.477   2.013   6.450
 7688POPC   D2A43048  38.455   1.963   6.750
 7688POPC   C3A43049  38.434   1.950   7.050
 7688POPC   C4A43050  38.486   2.039   7.350
 7688POPC   C1B43051  38.611   1.738   6.450
 7688POPC   C2B43052  38.543   1.742   6.750
 7688POPC   C3B43053  38.527   1.767   7.050
 7688POPC   C4B43054  38.521   1.770   7.350
 7689POPC   NC343055  20.603  27.611   5.550
 7689POPC   PO443056  20.575  27.597   5.850
 7689POPC   GL143057  20.604  27.556   6.150
 7689POPC   GL243058  20.757  27.546   6.150
 7689POPC   C1A43059  20.601  27.586   6.450
 7689POPC   D2A43060  20.652  27.599   6.750
 7689POPC   C3A43061  20.624  27.586   7.050
 7689POPC   C4A43062  20.618  27.588   7.350
 7689POPC   C1B43063  20.854  27.431   6.450
 7689POPC   C2B43064  20.856  27.475   6.750
 7689POPC   C3B43065  20.818  27.415   7.050
 7689POPC   C4B43066  20.842  27.491   7.350
 7690POPC   NC343067   5.880   4.317   5.550
 7690POPC   PO443068   5.832   4.343   5.850
 7690POPC   GL143069   5.887   4.309   6.150
 7690POPC   GL243070   5.911   4.181   6.150
 7690POPC   C1A43071   5.852   4.281   6.450
 7690POPC   D2A43072   5.859   4.322   6.750
 7690POPC   C3A43073   5.895   4.282   7.050
 7690POPC   C4A43074   5.864   4.342   7.350
 7690POPC   C1B43075   5.945   4.068   6.450
 7690POPC   C2B43076   5.950   4.075   6.750
 7690POPC   C3B43077   5.976   4.056   7.050
 7690POPC   C4B43078   5.989   4.073   7.350
 7691POPC   NC343079  40.789  36.874   5.550
 7691POPC   PO443080  40.817  36.933   5.850
 7691POPC   GL143081  40.824  36.916   6.150
 7691POPC   GL243082  40.639  36.938   6.150
 7691POPC   C1A43083  40.756  36.878   6.450
 7691POPC   D2A43084  40.746  36.864   6.750
 7691POPC   C3A43085  40.737  36.877   7.050
 7691POPC   C4A43086  40.773  36.947   7.350
 7691POPC   C1B43087  40.559  36.933   6.450
 7691POPC   C2B43088  40.487  36.936   6.750
 7691POPC   C3B43089  40.555  36.964   7.050
 7691POPC   C4B43090  40.507  36.948   7.350
 7692POPC   NC343091  29.190  10.476   5.550
 7692POPC   PO443092  29.193  10.539   5.850
 7692POPC   GL143093  29.158  10.498   6.150
 7692POPC   GL243094  28.997  10.551   6.150
 7692POPC   C1A43095  29.143  10.515   6.450
 7692POPC   D2A43096  29.126  10.552   6.750
 7692POPC   C3A43097  29.183  10.555   7.050
 7692POPC   C4A43098  29.152  10.518   7.350
 7692POPC   C1B43099  28.928  10.682   6.450
 7692POPC   C2B43100  28.941  10.628   6.750
 7692POPC   C3B43101  28.972  10.711   7.050
 7692POPC   C4B43102  28.950  10.668   7.350
 7693POPC   NC343103  37.699  14.396   5.550
 7693POPC   PO443104  37.676  14.369   5.850
 7693POPC   GL143105  37.680  14.419   6.150
 7693POPC   GL243106  37.817  14.326   6.150
 7693POPC   C1A43107  37.639  14.398   6.450
 7693POPC   D2A43108  37.646  14.390   6.750
 7693POPC   C3A43109  37.710  14.373   7.050
 7693POPC   C4A43110  37.696  14.438   7.350
 7693POPC   C1B43111  37.949  14.287   6.450
 7693POPC   C2B43112  37.860  14.302   6.750
 7693POPC   C3B43113  37.864  14.313   7.050
 7693POPC   C4B43114  37.900  14.345   7.350
 7694POPC   NC343115  40.757   1.994   5.550
 7694POPC   PO443116  40.780   1.987   5.850
 7694POPC   GL143117  40.794   1.948   6.150
 7694POPC   GL243118  40.827   1.835   6.150
 7694POPC   C1A43119  40.755   2.017   6.450
 7694POPC   D2A43120  40.814   1.942   6.750
 7694POPC   C3A43121  40.811   1.944   7.050
 7694POPC   C4A43122  40.763   2.023   7.350
 7694POPC   C1B43123  40.776   1.760   6.450
 7694POPC   C2B43124  40.752   1.697   6.750
 7694POPC   C3B43125  40.739   1.780   7.050
 7694POPC   C4B43126  40.816   1.768   7.350
 7695POPC   NC343127   6.620  36.145   5.550
 7695POPC   PO443128   6.649  36.109   5.850
 7695POPC   GL143129   6.599  36.155   6.150
 7695POPC   GL243130   6.609  36.033   6.150
 7695POPC   C1A43131   6.609  36.155   6.450
 7695POPC   D2A43132   6.615  36.161   6.750
 7695POPC   C3A43133   6.634  36.143   7.050
 7695POPC   C4A43134   6.683  36.085   7.350
 7695POPC   C1B43135   6.476  35.902   6.450
 7695POPC   C2B43136   6.498  35.925   6.750
 7695POPC   C3B43137   6.518  35.898   7.050
 7695POPC   C4B43138   6.520  35.963   7.350
 7696POPC   NC343139  31.470   0.484   5.550
 7696POPC   PO443140  31.498   0.389   5.850
 7696POPC   GL143141  31.494   0.416   6.150
 7696POPC   GL243142  31.362   0.446   6.150
 7696POPC   C1A43143  31.483   0.485   6.450
 7696POPC   D2A43144  31.514   0.447   6.750
 7696POPC   C3A43145  31.434   0.465   7.050
 7696POPC   C4A43146  31.447   0.433   7.350
 7696POPC   C1B43147  31.195   0.475   6.450
 7696POPC   C2B43148  31.199   0.531   6.750
 7696POPC   C3B43149  31.277   0.494   7.050
 7696POPC   C4B43150  31.232   0.558   7.350
 7697POPC   NC343151  25.216  19.801   5.550
 7697POPC   PO443152  25.230  19.863   5.850
 7697POPC   GL143153  25.222  19.820   6.150
 7697POPC   GL243154  25.383  19.755   6.150
 7697POPC   C1A43155  25.266  19.881   6.450
 7697POPC   D2A43156  25.218  19.822   6.750
 7697POPC   C3A43157  25.239  19.810   7.050
 7697POPC   C4A43158  25.285  19.798   7.350
 7697POPC   C1B43159  25.474  19.788   6.450
 7697POPC   C2B43160  25.524  19.747   6.750
 7697POPC   C3B43161  25.460  19.719   7.050
 7697POPC   C4B43162  25.526  19.789   7.350
 7698POPC   NC343163   2.736  33.810   5.550
 7698POPC   PO443164   2.740  33.839   5.850
 7698POPC   GL143165   2.813  33.794   6.150
 7698POPC   GL243166   2.732  33.969   6.150
 7698POPC   C1A43167   2.759  33.761   6.450
 7698POPC   D2A43168   2.722  33.846   6.750
 7698POPC   C3A43169   2.803  33.808   7.050
 7698POPC   C4A43170   2.804  33.826   7.350
 7698POPC   C1B43171   2.718  34.019   6.450
 7698POPC   C2B43172   2.768  34.040   6.750
 7698POPC   C3B43173   2.785  34.098   7.050
 7698POPC   C4B43174   2.767  34.013   7.350
 7699POPC   NC343175  17.457   4.345   5.550
 7699POPC   PO443176  17.531   4.361   5.850
 7699POPC   GL143177  17.484   4.353   6.150
 7699POPC   GL243178  17.578   4.258   6.150
 7699POPC   C1A43179  17.545   4.367   6.450
 7699POPC   D2A43180  17.467   4.325   6.750
 7699POPC   C3A43181  17.502   4.308   7.050
 7699POPC   C4A43182  17.480   4.326   7.350
 7699POPC   C1B43183  17.705   4.211   6.450
 7699POPC   C2B43184  17.776   4.211   6.750
 7699POPC   C3B43185  17.688   4.162   7.050
 7699POPC   C4B43186  17.685   4.227   7.350
 7700POPC   NC343187  26.054   4.325   5.550
 7700POPC   PO443188  26.068   4.288   5.850
 7700POPC   GL143189  26.023   4.338   6.150
 7700POPC   GL243190  25.967   4.349   6.150
 7700POPC   C1A43191  26.075   4.271   6.450
 7700POPC   D2A43192  26.090   4.331   6.750
 7700POPC   C3A43193  26.031   4.342   7.050
 7700POPC   C4A43194  26.043   4.287   7.350
 7700POPC   C1B43195  25.806   4.377   6.450
 7700POPC   C2B43196  25.822   4.428   6.750
 7700POPC   C3B43197  25.795   4.394   7.050
 7700POPC   C4B43198  25.780   4.392   7.350
 7701POPC   NC343199   5.862  22.951   5.550
 7701POPC   PO443200   5.902  22.973   5.850
 7701POPC   GL143201   5.853  22.975   6.150
 7701POPC   GL243202   5.786  23.049   6.150
 7701POPC   C1A43203   5.825  22.933   6.450
 7701POPC   D2A43204   5.845  22.897   6.750
 7701POPC   C3A43205   5.874  22.983   7.050
 7701POPC   C4A43206   5.872  22.987   7.350
 7701POPC   C1B43207   5.730  23.174   6.450
 7701POPC   C2B43208   5.720  23.132   6.750
 7701POPC   C3B43209   5.775  23.194   7.050
 7701POPC   C4B43210   5.720  23.123   7.350
 7702POPC   NC343211  35.331  44.658   5.550
 7702POPC   PO443212  35.359  44.703   5.850
 7702POPC   GL143213  35.302  44.619   6.150
 7702POPC   GL243214  35.245  44.591   6.150
 7702POPC   C1A43215  35.329  44.700   6.450
 7702POPC   D2A43216  35.372  44.626   6.750
 7702POPC   C3A43217  35.348  44.678   7.050
 7702POPC   C4A43218  35.323  44.687   7.350
 7702POPC   C1B43219  35.167  44.571   6.450
 7702POPC   C2B43220  35.168  44.484   6.750
 7702POPC   C3B43221  35.148  44.532   7.050
 7702POPC   C4B43222  35.091  44.511   7.350
 7703POPC   NC343223  28.346   5.065   5.550
 7703POPC   PO443224  28.387   5.057   5.850
 7703POPC   GL143225  28.348   5.070   6.150
 7703POPC   GL243226  28.371   5.226   6.150
 7703POPC   C1A43227  28.402   5.140   6.450
 7703POPC   D2A43228  28.344   5.109   6.750
 7703POPC   C3A43229  28.330   5.127   7.050
 7703POPC   C4A43230  28.373   5.072   7.350
 7703POPC   C1B43231  28.246   5.356   6.450
 7703POPC   C2B43232  28.302   5.285   6.750
 7703POPC   C3B43233  28.296   5.348   7.050
 7703POPC   C4B43234  28.244   5.298   7.350
 7704POPC   NC343235  15.142  27.588   5.550
 7704POPC   PO443236  15.132  27.604   5.850
 7704POPC   GL143237  15.213  27.623   6.150
 7704POPC   GL243238  15.057  27.471   6.150
 7704POPC   C1A43239  15.190  27.616   6.450
 7704POPC   D2A43240  15.222  27.584   6.750
 7704POPC   C3A43241  15.208  27.576   7.050
 7704POPC   C4A43242  15.144  27.628   7.350
 7704POPC   C1B43243  14.980  27.418   6.450
 7704POPC   C2B43244  15.000  27.461   6.750
 7704POPC   C3B43245  14.993  27.407   7.050
 7704POPC   C4B43246  15.026  27.424   7.350
 7705POPC   NC343247  12.880   8.174   5.550
 7705POPC   PO443248  12.896   8.216   5.850
 7705POPC   GL143249  12.836   8.149   6.150
 7705POPC   GL243250  12.827   8.276   6.150
 7705POPC   C1A43251  12.831   8.173   6.450
 7705POPC   D2A43252  12.900   8.220   6.750
 7705POPC   C3A43253  12.886   8.175   7.050
 7705POPC   C4A43254  12.853   8.169   7.350
 7705POPC   C1B43255  12.829   8.483   6.450
 7705POPC   C2B43256  12.819   8.399   6.750
 7705POPC   C3B43257  12.849   8.414   7.050
 7705POPC   C4B43258  12.810   8.409   7.350
 7706POPC   NC343259  12.804  26.829   5.550
 7706POPC   PO443260  12.835  26.811   5.850
 7706POPC   GL143261  12.828  26.771   6.150
 7706POPC   GL243262  12.921  26.663   6.150
 7706POPC   C1A43263  12.809  26.823   6.450
 7706POPC   D2A43264  12.802  26.795   6.750
 7706POPC   C3A43265  12.897  26.861   7.050
 7706POPC   C4A43266  12.832  26.797   7.350
 7706POPC   C1B43267  12.907  26.527   6.450
 7706POPC   C2B43268  12.893  26.607   6.750
 7706POPC   C3B43269  12.958  26.569   7.050
 7706POPC   C4B43270  12.894  26.532   7.350
 7707POPC   NC343271  33.810   8.242   5.550
 7707POPC   PO443272  33.755   8.200   5.850
 7707POPC   GL143273  33.831   8.233   6.150
 7707POPC   GL243274  33.943   8.151   6.150
 7707POPC   C1A43275  33.816   8.154   6.450
 7707POPC   D2A43276  33.792   8.222   6.750
 7707POPC   C3A43277  33.776   8.236   7.050
 7707POPC   C4A43278  33.808   8.240   7.350
 7707POPC   C1B43279  33.997   8.043   6.450
 7707POPC   C2B43280  33.997   8.086   6.750
 7707POPC   C3B43281  33.993   8.028   7.050
 7707POPC   C4B43282  33.994   8.009   7.350
 7708POPC   NC343283  20.586   2.768   5.550
 7708POPC   PO443284  20.567   2.717   5.850
 7708POPC   GL143285  20.649   2.732   6.150
 7708POPC   GL243286  20.671   2.690   6.150
 7708POPC   C1A43287  20.628   2.748   6.450
 7708POPC   D2A43288  20.623   2.738   6.750
 7708POPC   C3A43289  20.606   2.801   7.050
 7708POPC   C4A43290  20.642   2.801   7.350
 7708POPC   C1B43291  20.860   2.634   6.450
 7708POPC   C2B43292  20.839   2.607   6.750
 7708POPC   C3B43293  20.826   2.660   7.050
 7708POPC   C4B43294  20.820   2.622   7.350
 7709POPC   NC343295  29.179   8.960   5.550
 7709POPC   PO443296  29.160   8.936   5.850
 7709POPC   GL143297  29.189   8.967   6.150
 7709POPC   GL243298  29.282   8.879   6.150
 7709POPC   C1A43299  29.178   8.949   6.450
 7709POPC   D2A43300  29.145   8.980   6.750
 7709POPC   C3A43301  29.133   8.926   7.050
 7709POPC   C4A43302  29.100   8.985   7.350
 7709POPC   C1B43303  29.339   8.798   6.450
 7709POPC   C2B43304  29.294   8.754   6.750
 7709POPC   C3B43305  29.284   8.811   7.050
 7709POPC   C4B43306  29.376   8.796   7.350
 7710POPC   NC343307   6.670  22.125   5.550
 7710POPC   PO443308   6.639  22.144   5.850
 7710POPC   GL143309   6.651  22.201   6.150
 7710POPC   GL243310   6.480  22.113   6.150
 7710POPC   C1A43311   6.610  22.208   6.450
 7710POPC   D2A43312   6.673  22.126   6.750
 7710POPC   C3A43313   6.685  22.200   7.050
 7710POPC   C4A43314   6.637  22.193   7.350
 7710POPC   C1B43315   6.417  22.088   6.450
 7710POPC   C2B43316   6.387  22.064   6.750
 7710POPC   C3B43317   6.401  22.110   7.050
 7710POPC   C4B43318   6.423  22.106   7.350
 7711POPC   NC343319   2.754  14.380   5.550
 7711POPC   PO443320   2.720  14.438   5.850
 7711POPC   GL143321   2.794  14.441   6.150
 7711POPC   GL243322   2.836  14.537   6.150
 7711POPC   C1A43323   2.784  14.426   6.450
 7711POPC   D2A43324   2.772  14.370   6.750
 7711POPC   C3A43325   2.740  14.372   7.050
 7711POPC   C4A43326   2.783  14.442   7.350
 7711POPC   C1B43327   2.847  14.650   6.450
 7711POPC   C2B43328   2.880  14.662   6.750
 7711POPC   C3B43329   2.838  14.624   7.050
 7711POPC   C4B43330   2.853  14.598   7.350
 7712POPC   NC343331  36.136  37.693   5.550
 7712POPC   PO443332  36.122  37.650   5.850
 7712POPC   GL143333  36.139  37.650   6.150
 7712POPC   GL243334  36.254  37.666   6.150
 7712POPC   C1A43335  36.170  37.693   6.450
 7712POPC   D2A43336  36.089  37.681   6.750
 7712POPC   C3A43337  36.087  37.704   7.050
 7712POPC   C4A43338  36.115  37.635   7.350
 7712POPC   C1B43339  36.418  37.688   6.450
 7712POPC   C2B43340  36.413  37.699   6.750
 7712POPC   C3B43341  36.350  37.737   7.050
 7712POPC   C4B43342  36.397  37.724   7.350
 7713POPC   NC343343   1.980   1.954   5.550
 7713POPC   PO443344   2.025   2.029   5.850
 7713POPC   GL143345   1.950   2.032   6.150
 7713POPC   GL243346   2.000   1.885   6.150
 7713POPC   C1A43347   1.966   1.992   6.450
 7713POPC   D2A43348   2.038   1.994   6.750
 7713POPC   C3A43349   1.986   1.980   7.050
 7713POPC   C4A43350   1.990   1.979   7.350
 7713POPC   C1B43351   2.045   1.745   6.450
 7713POPC   C2B43352   2.001   1.763   6.750
 7713POPC   C3B43353   1.988   1.749   7.050
 7713POPC   C4B43354   1.978   1.697   7.350
 7714POPC   NC343355  27.543  30.738   5.550
 7714POPC   PO443356  27.596  30.656   5.850
 7714POPC   GL143357  27.543  30.657   6.150
 7714POPC   GL243358  27.675  30.803   6.150
 7714POPC   C1A43359  27.589  30.657   6.450
 7714POPC   D2A43360  27.590  30.651   6.750
 7714POPC   C3A43361  27.567  30.708   7.050
 7714POPC   C4A43362  27.604  30.695   7.350
 7714POPC   C1B43363  27.826  30.856   6.450
 7714POPC   C2B43364  27.802  30.770   6.750
 7714POPC   C3B43365  27.864  30.814   7.050
 7714POPC   C4B43366  27.807  30.821   7.350
 7715POPC   NC343367  41.514  15.970   5.550
 7715POPC   PO443368  41.517  15.987   5.850
 7715POPC   GL143369  41.606  15.991   6.150
 7715POPC   GL243370  41.587  16.117   6.150
 7715POPC   C1A43371  41.587  15.923   6.450
 7715POPC   D2A43372  41.551  15.956   6.750
 7715POPC   C3A43373  41.546  15.946   7.050
 7715POPC   C4A43374  41.538  15.987   7.350
 7715POPC   C1B43375  41.568  16.170   6.450
 7715POPC   C2B43376  41.580  16.161   6.750
 7715POPC   C3B43377  41.566  16.205   7.050
 7715POPC   C4B43378  41.559  16.219   7.350
 7716POPC   NC343379   7.423  43.147   5.550
 7716POPC   PO443380   7.460  43.063   5.850
 7716POPC   GL143381   7.381  43.122   6.150
 7716POPC   GL243382   7.527  43.187   6.150
 7716POPC   C1A43383   7.434  43.114   6.450
 7716POPC   D2A43384   7.391  43.139   6.750
 7716POPC   C3A43385   7.412  43.121   7.050
 7716POPC   C4A43386   7.375  43.159   7.350
 7716POPC   C1B43387   7.588  43.269   6.450
 7716POPC   C2B43388   7.642  43.301   6.750
 7716POPC   C3B43389   7.624  43.221   7.050
 7716POPC   C4B43390   7.575  43.277   7.350
 7717POPC   NC343391  21.404  36.109   5.550
 7717POPC   PO443392  21.420  36.168   5.850
 7717POPC   GL143393  21.343  36.109   6.150
 7717POPC   GL243394  21.349  36.265   6.150
 7717POPC   C1A43395  21.349  36.145   6.450
 7717POPC   D2A43396  21.341  36.104   6.750
 7717POPC   C3A43397  21.436  36.154   7.050
 7717POPC   C4A43398  21.397  36.090   7.350
 7717POPC   C1B43399  21.332  36.366   6.450
 7717POPC   C2B43400  21.377  36.389   6.750
 7717POPC   C3B43401  21.396  36.392   7.050
 7717POPC   C4B43402  21.303  36.336   7.350
 7718POPC   NC343403   3.581  10.489   5.550
 7718POPC   PO443404   3.545  10.558   5.850
 7718POPC   GL143405   3.512  10.525   6.150
 7718POPC   GL243406   3.435  10.668   6.150
 7718POPC   C1A43407   3.563  10.501   6.450
 7718POPC   D2A43408   3.582  10.564   6.750
 7718POPC   C3A43409   3.537  10.543   7.050
 7718POPC   C4A43410   3.564  10.522   7.350
 7718POPC   C1B43411   3.468  10.787   6.450
 7718POPC   C2B43412   3.399  10.740   6.750
 7718POPC   C3B43413   3.381  10.697   7.050
 7718POPC   C4B43414   3.458  10.767   7.350
 7719POPC   NC343415  24.515  22.211   5.550
 7719POPC   PO443416  24.523  22.155   5.850
 7719POPC   GL143417  24.504  22.127   6.150
 7719POPC   GL243418  24.503  22.270   6.150
 7719POPC   C1A43419  24.476  22.176   6.450
 7719POPC   D2A43420  24.536  22.120   6.750
 7719POPC   C3A43421  24.463  22.170   7.050
 7719POPC   C4A43422  24.508  22.125   7.350
 7719POPC   C1B43423  24.603  22.387   6.450
 7719POPC   C2B43424  24.618  22.442   6.750
 7719POPC   C3B43425  24.584  22.390   7.050
 7719POPC   C4B43426  24.598  22.410   7.350
 7720POPC   NC343427  24.506  18.313   5.550
 7720POPC   PO443428  24.530  18.312   5.850
 7720POPC   GL143429  24.475  18.265   6.150
 7720POPC   GL243430  24.569  18.300   6.150
 7720POPC   C1A43431  24.519  18.253   6.450
 7720POPC   D2A43432  24.478  18.286   6.750
 7720POPC   C3A43433  24.506  18.281   7.050
 7720POPC   C4A43434  24.539  18.271   7.350
 7720POPC   C1B43435  24.676  18.432   6.450
 7720POPC   C2B43436  24.757  18.440   6.750
 7720POPC   C3B43437  24.675  18.436   7.050
 7720POPC   C4B43438  24.727  18.440   7.350
 7721POPC   NC343439  16.684   5.063   5.550
 7721POPC   PO443440  16.778   5.084   5.850
 7721POPC   GL143441  16.761   5.057   6.150
 7721POPC   GL243442  16.702   5.013   6.150
 7721POPC   C1A43443  16.771   5.056   6.450
 7721POPC   D2A43444  16.755   5.092   6.750
 7721POPC   C3A43445  16.745   5.061   7.050
 7721POPC   C4A43446  16.725   5.118   7.350
 7721POPC   C1B43447  16.592   4.866   6.450
 7721POPC   C2B43448  16.592   4.880   6.750
 7721POPC   C3B43449  16.581   4.859   7.050
 7721POPC   C4B43450  16.553   4.866   7.350
 7722POPC   NC343451  15.137  44.637   5.550
 7722POPC   PO443452  15.156  44.684   5.850
 7722POPC   GL143453  15.228  44.664   6.150
 7722POPC   GL243454  15.010  44.656   6.150
 7722POPC   C1A43455  15.145  44.652   6.450
 7722POPC   D2A43456  15.192  44.692   6.750
 7722POPC   C3A43457  15.149  44.636   7.050
 7722POPC   C4A43458  15.172  44.642   7.350
 7722POPC   C1B43459  14.919  44.673   6.450
 7722POPC   C2B43460  14.887  44.673   6.750
 7722POPC   C3B43461  14.929  44.593   7.050
 7722POPC   C4B43462  14.892  44.610   7.350
 7723POPC   NC343463  40.019   4.287   5.550
 7723POPC   PO443464  39.971   4.301   5.850
 7723POPC   GL143465  39.987   4.292   6.150
 7723POPC   GL243466  39.929   4.221   6.150
 7723POPC   C1A43467  39.958   4.338   6.450
 7723POPC   D2A43468  40.022   4.321   6.750
 7723POPC   C3A43469  40.042   4.314   7.050
 7723POPC   C4A43470  40.018   4.360   7.350
 7723POPC   C1B43471  39.866   4.180   6.450
 7723POPC   C2B43472  39.866   4.155   6.750
 7723POPC   C3B43473  39.832   4.103   7.050
 7723POPC   C4B43474  39.861   4.118   7.350
 7724POPC   NC343475   9.757  24.532   5.550
 7724POPC   PO443476   9.757  24.471   5.850
 7724POPC   GL143477   9.780  24.517   6.150
 7724POPC   GL243478   9.860  24.625   6.150
 7724POPC   C1A43479   9.763  24.463   6.450
 7724POPC   D2A43480   9.774  24.523   6.750
 7724POPC   C3A43481   9.727  24.455   7.050
 7724POPC   C4A43482   9.765  24.513   7.350
 7724POPC   C1B43483   9.870  24.668   6.450
 7724POPC   C2B43484   9.867  24.673   6.750
 7724POPC   C3B43485   9.933  24.724   7.050
 7724POPC   C4B43486   9.901  24.701   7.350
 7725POPC   NC343487  30.712  19.789   5.550
 7725POPC   PO443488  30.713  19.837   5.850
 7725POPC   GL143489  30.731  19.858   6.150
 7725POPC   GL243490  30.550  19.861   6.150
 7725POPC   C1A43491  30.707  19.785   6.450
 7725POPC   D2A43492  30.672  19.844   6.750
 7725POPC   C3A43493  30.695  19.791   7.050
 7725POPC   C4A43494  30.655  19.792   7.350
 7725POPC   C1B43495  30.454  19.940   6.450
 7725POPC   C2B43496  30.477  19.930   6.750
 7725POPC   C3B43497  30.447  19.967   7.050
 7725POPC   C4B43498  30.418  19.973   7.350
 7726POPC   NC343499  11.309  42.325   5.550
 7726POPC   PO443500  11.336  42.285   5.850
 7726POPC   GL143501  11.338  42.363   6.150
 7726POPC   GL243502  11.369  42.238   6.150
 7726POPC   C1A43503  11.336  42.339   6.450
 7726POPC   D2A43504  11.255  42.359   6.750
 7726POPC   C3A43505  11.298  42.378   7.050
 7726POPC   C4A43506  11.297  42.351   7.350
 7726POPC   C1B43507  11.425  42.098   6.450
 7726POPC   C2B43508  11.454  42.066   6.750
 7726POPC   C3B43509  11.364  42.060   7.050
 7726POPC   C4B43510  11.434  42.074   7.350
 7727POPC   NC343511   0.425  28.400   5.550
 7727POPC   PO443512   0.484  28.377   5.850
 7727POPC   GL143513   0.463  28.418   6.150
 7727POPC   GL243514   0.410  28.479   6.150
 7727POPC   C1A43515   0.412  28.361   6.450
 7727POPC   D2A43516   0.463  28.320   6.750
 7727POPC   C3A43517   0.416  28.363   7.050
 7727POPC   C4A43518   0.424  28.334   7.350
 7727POPC   C1B43519   0.432  28.598   6.450
 7727POPC   C2B43520   0.441  28.662   6.750
 7727POPC   C3B43521   0.465  28.626   7.050
 7727POPC   C4B43522   0.386  28.665   7.350
 7728POPC   NC343523   8.201  30.659   5.550
 7728POPC   PO443524   8.165  30.649   5.850
 7728POPC   GL143525   8.231  30.656   6.150
 7728POPC   GL243526   8.056  30.662   6.150
 7728POPC   C1A43527   8.161  30.677   6.450
 7728POPC   D2A43528   8.221  30.711   6.750
 7728POPC   C3A43529   8.179  30.655   7.050
 7728POPC   C4A43530   8.198  30.735   7.350
 7728POPC   C1B43531   7.963  30.488   6.450
 7728POPC   C2B43532   7.987  30.578   6.750
 7728POPC   C3B43533   7.976  30.507   7.050
 7728POPC   C4B43534   7.967  30.567   7.350
 7729POPC   NC343535   4.283   7.416   5.550
 7729POPC   PO443536   4.333   7.440   5.850
 7729POPC   GL143537   4.309   7.418   6.150
 7729POPC   GL243538   4.456   7.469   6.150
 7729POPC   C1A43539   4.276   7.441   6.450
 7729POPC   D2A43540   4.330   7.447   6.750
 7729POPC   C3A43541   4.339   7.397   7.050
 7729POPC   C4A43542   4.312   7.405   7.350
 7729POPC   C1B43543   4.505   7.571   6.450
 7729POPC   C2B43544   4.512   7.574   6.750
 7729POPC   C3B43545   4.510   7.591   7.050
 7729POPC   C4B43546   4.553   7.518   7.350
 7730POPC   NC343547  35.325  36.929   5.550
 7730POPC   PO443548  35.308  36.872   5.850
 7730POPC   GL143549  35.377  36.943   6.150
 7730POPC   GL243550  35.512  36.956   6.150
 7730POPC   C1A43551  35.360  36.918   6.450
 7730POPC   D2A43552  35.401  36.882   6.750
 7730POPC   C3A43553  35.399  36.887   7.050
 7730POPC   C4A43554  35.393  36.927   7.350
 7730POPC   C1B43555  35.579  36.997   6.450
 7730POPC   C2B43556  35.630  36.981   6.750
 7730POPC   C3B43557  35.590  36.976   7.050
 7730POPC   C4B43558  35.576  36.974   7.350
 7731POPC   NC343559  19.844  39.187   5.550
 7731POPC   PO443560  19.817  39.270   5.850
 7731POPC   GL143561  19.882  39.262   6.150
 7731POPC   GL243562  19.865  39.133   6.150
 7731POPC   C1A43563  19.794  39.281   6.450
 7731POPC   D2A43564  19.872  39.228   6.750
 7731POPC   C3A43565  19.799  39.215   7.050
 7731POPC   C4A43566  19.841  39.263   7.350
 7731POPC   C1B43567  19.954  39.059   6.450
 7731POPC   C2B43568  19.935  39.042   6.750
 7731POPC   C3B43569  19.964  39.062   7.050
 7731POPC   C4B43570  19.958  39.059   7.350
 7732POPC   NC343571   1.187  28.405   5.550
 7732POPC   PO443572   1.189  28.407   5.850
 7732POPC   GL143573   1.187  28.336   6.150
 7732POPC   GL243574   1.363  28.359   6.150
 7732POPC   C1A43575   1.240  28.352   6.450
 7732POPC   D2A43576   1.177  28.368   6.750
 7732POPC   C3A43577   1.238  28.416   7.050
 7732POPC   C4A43578   1.223  28.327   7.350
 7732POPC   C1B43579   1.423  28.377   6.450
 7732POPC   C2B43580   1.426  28.323   6.750
 7732POPC   C3B43581   1.461  28.417   7.050
 7732POPC   C4B43582   1.463  28.346   7.350
 7733POPC   NC343583   5.093  12.821   5.550
 7733POPC   PO443584   5.049  12.842   5.850
 7733POPC   GL143585   5.138  12.852   6.150
 7733POPC   GL243586   4.925  12.814   6.150
 7733POPC   C1A43587   5.136  12.835   6.450
 7733POPC   D2A43588   5.110  12.812   6.750
 7733POPC   C3A43589   5.121  12.863   7.050
 7733POPC   C4A43590   5.115  12.870   7.350
 7733POPC   C1B43591   4.834  12.842   6.450
 7733POPC   C2B43592   4.865  12.836   6.750
 7733POPC   C3B43593   4.804  12.818   7.050
 7733POPC   C4B43594   4.868  12.828   7.350
 7734POPC   NC343595  33.751  30.648   5.550
 7734POPC   PO443596  33.760  30.738   5.850
 7734POPC   GL143597  33.782  30.705   6.150
 7734POPC   GL243598  33.833  30.543   6.150
 7734POPC   C1A43599  33.831  30.723   6.450
 7734POPC   D2A43600  33.840  30.669   6.750
 7734POPC   C3A43601  33.784  30.704   7.050
 7734POPC   C4A43602  33.825  30.722   7.350
 7734POPC   C1B43603  33.899  30.481   6.450
 7734POPC   C2B43604  33.919  30.421   6.750
 7734POPC   C3B43605  33.900  30.495   7.050
 7734POPC   C4B43606  33.937  30.486   7.350
 7735POPC   NC343607   2.814  29.960   5.550
 7735POPC   PO443608   2.798  29.968   5.850
 7735POPC   GL143609   2.783  29.968   6.150
 7735POPC   GL243610   2.716  29.808   6.150
 7735POPC   C1A43611   2.793  29.905   6.450
 7735POPC   D2A43612   2.735  29.932   6.750
 7735POPC   C3A43613   2.788  29.885   7.050
 7735POPC   C4A43614   2.749  29.928   7.350
 7735POPC   C1B43615   2.701  29.643   6.450
 7735POPC   C2B43616   2.677  29.676   6.750
 7735POPC   C3B43617   2.767  29.697   7.050
 7735POPC   C4B43618   2.728  29.636   7.350
 7736POPC   NC343619  19.097  21.375   5.550
 7736POPC   PO443620  19.081  21.420   5.850
 7736POPC   GL143621  19.033  21.370   6.150
 7736POPC   GL243622  19.155  21.362   6.150
 7736POPC   C1A43623  19.055  21.409   6.450
 7736POPC   D2A43624  19.076  21.421   6.750
 7736POPC   C3A43625  19.051  21.417   7.050
 7736POPC   C4A43626  19.012  21.378   7.350
 7736POPC   C1B43627  19.321  21.356   6.450
 7736POPC   C2B43628  19.353  21.401   6.750
 7736POPC   C3B43629  19.286  21.381   7.050
 7736POPC   C4B43630  19.320  21.410   7.350
 7737POPC   NC343631  22.948  27.610   5.550
 7737POPC   PO443632  22.963  27.583   5.850
 7737POPC   GL143633  22.987  27.621   6.150
 7737POPC   GL243634  23.075  27.566   6.150
 7737POPC   C1A43635  22.953  27.557   6.450
 7737POPC   D2A43636  22.949  27.549   6.750
 7737POPC   C3A43637  22.912  27.616   7.050
 7737POPC   C4A43638  22.958  27.559   7.350
 7737POPC   C1B43639  23.136  27.533   6.450
 7737POPC   C2B43640  23.139  27.480   6.750
 7737POPC   C3B43641  23.162  27.535   7.050
 7737POPC   C4B43642  23.201  27.515   7.350
 7738POPC   NC343643  29.893  38.410   5.550
 7738POPC   PO443644  29.920  38.471   5.850
 7738POPC   GL143645  29.919  38.406   6.150
 7738POPC   GL243646  30.088  38.483   6.150
 7738POPC   C1A43647  29.965  38.451   6.450
 7738POPC   D2A43648  29.966  38.489   6.750
 7738POPC   C3A43649  29.886  38.496   7.050
 7738POPC   C4A43650  29.951  38.431   7.350
 7738POPC   C1B43651  30.123  38.526   6.450
 7738POPC   C2B43652  30.202  38.482   6.750
 7738POPC   C3B43653  30.191  38.513   7.050
 7738POPC   C4B43654  30.117  38.528   7.350
 7739POPC   NC343655   6.666  26.035   5.550
 7739POPC   PO443656   6.603  26.033   5.850
 7739POPC   GL143657   6.643  26.046   6.150
 7739POPC   GL243658   6.705  25.997   6.150
 7739POPC   C1A43659   6.663  26.083   6.450
 7739POPC   D2A43660   6.665  25.993   6.750
 7739POPC   C3A43661   6.624  26.050   7.050
 7739POPC   C4A43662   6.611  26.004   7.350
 7739POPC   C1B43663   6.810  25.851   6.450
 7739POPC   C2B43664   6.887  25.920   6.750
 7739POPC   C3B43665   6.858  25.919   7.050
 7739POPC   C4B43666   6.847  25.926   7.350
 7740POPC   NC343667  29.884   7.378   5.550
 7740POPC   PO443668  29.958   7.404   5.850
 7740POPC   GL143669  29.888   7.385   6.150
 7740POPC   GL243670  29.929   7.331   6.150
 7740POPC   C1A43671  29.930   7.446   6.450
 7740POPC   D2A43672  29.913   7.457   6.750
 7740POPC   C3A43673  29.969   7.389   7.050
 7740POPC   C4A43674  29.944   7.413   7.350
 7740POPC   C1B43675  29.871   7.216   6.450
 7740POPC   C2B43676  29.935   7.215   6.750
 7740POPC   C3B43677  29.953   7.186   7.050
 7740POPC   C4B43678  29.929   7.197   7.350
 7741POPC   NC343679  33.824  26.788   5.550
 7741POPC   PO443680  33.779  26.796   5.850
 7741POPC   GL143681  33.809  26.846   6.150
 7741POPC   GL243682  33.935  26.832   6.150
 7741POPC   C1A43683  33.819  26.786   6.450
 7741POPC   D2A43684  33.801  26.838   6.750
 7741POPC   C3A43685  33.811  26.808   7.050
 7741POPC   C4A43686  33.770  26.864   7.350
 7741POPC   C1B43687  34.009  26.768   6.450
 7741POPC   C2B43688  34.028  26.774   6.750
 7741POPC   C3B43689  34.044  26.794   7.050
 7741POPC   C4B43690  34.033  26.805   7.350
 7742POPC   NC343691  39.998  15.922   5.550
 7742POPC   PO443692  39.982  15.995   5.850
 7742POPC   GL143693  39.962  15.967   6.150
 7742POPC   GL243694  39.973  16.097   6.150
 7742POPC   C1A43695  39.997  15.960   6.450
 7742POPC   D2A43696  39.958  15.988   6.750
 7742POPC   C3A43697  39.975  15.976   7.050
 7742POPC   C4A43698  40.026  15.970   7.350
 7742POPC   C1B43699  39.886  16.200   6.450
 7742POPC   C2B43700  39.891  16.219   6.750
 7742POPC   C3B43701  39.923  16.168   7.050
 7742POPC   C4B43702  39.859  16.168   7.350
 7743POPC   NC343703  19.108  14.364   5.550
 7743POPC   PO443704  19.042  14.417   5.850
 7743POPC   GL143705  19.010  14.412   6.150
 7743POPC   GL243706  19.096  14.539   6.150
 7743POPC   C1A43707  19.082  14.423   6.450
 7743POPC   D2A43708  19.097  14.443   6.750
 7743POPC   C3A43709  19.108  14.420   7.050
 7743POPC   C4A43710  19.065  14.405   7.350
 7743POPC   C1B43711  19.135  14.650   6.450
 7743POPC   C2B43712  19.067  14.625   6.750
 7743POPC   C3B43713  19.152  14.676   7.050
 7743POPC   C4B43714  19.145  14.650   7.350
 7744POPC   NC343715  42.381  11.285   5.550
 7744POPC   PO443716  42.350  11.336   5.850
 7744POPC   GL143717  42.348  11.258   6.150
 7744POPC   GL243718  42.184  11.313   6.150
 7744POPC   C1A43719  42.301  11.283   6.450
 7744POPC   D2A43720  42.361  11.341   6.750
 7744POPC   C3A43721  42.334  11.289   7.050
 7744POPC   C4A43722  42.303  11.271   7.350
 7744POPC   C1B43723  42.065  11.285   6.450
 7744POPC   C2B43724  42.077  11.233   6.750
 7744POPC   C3B43725  42.090  11.267   7.050
 7744POPC   C4B43726  42.058  11.294   7.350
 7745POPC   NC343727  11.278  29.117   5.550
 7745POPC   PO443728  11.282  29.170   5.850
 7745POPC   GL143729  11.268  29.164   6.150
 7745POPC   GL243730  11.387  29.226   6.150
 7745POPC   C1A43731  11.340  29.111   6.450
 7745POPC   D2A43732  11.298  29.152   6.750
 7745POPC   C3A43733  11.279  29.096   7.050
 7745POPC   C4A43734  11.341  29.158   7.350
 7745POPC   C1B43735  11.498  29.204   6.450
 7745POPC   C2B43736  11.493  29.247   6.750
 7745POPC   C3B43737  11.507  29.184   7.050
 7745POPC   C4B43738  11.534  29.240   7.350
 7746POPC   NC343739  30.709   4.361   5.550
 7746POPC   PO443740  30.670   4.281   5.850
 7746POPC   GL143741  30.737   4.306   6.150
 7746POPC   GL243742  30.792   4.406   6.150
 7746POPC   C1A43743  30.654   4.269   6.450
 7746POPC   D2A43744  30.697   4.294   6.750
 7746POPC   C3A43745  30.727   4.307   7.050
 7746POPC   C4A43746  30.736   4.282   7.350
 7746POPC   C1B43747  30.891   4.502   6.450
 7746POPC   C2B43748  30.856   4.493   6.750
 7746POPC   C3B43749  30.817   4.471   7.050
 7746POPC   C4B43750  30.842   4.536   7.350
 7747POPC   NC343751  43.873  22.919   5.550
 7747POPC   PO443752  43.867  22.940   5.850
 7747POPC   GL143753  43.854  22.934   6.150
 7747POPC   GL243754  43.803  23.086   6.150
 7747POPC   C1A43755  43.874  22.933   6.450
 7747POPC   D2A43756  43.885  22.974   6.750
 7747POPC   C3A43757  43.903  22.940   7.050
 7747POPC   C4A43758  43.836  22.939   7.350
 7747POPC   C1B43759  43.809  23.156   6.450
 7747POPC   C2B43760  43.804  23.185   6.750
 7747POPC   C3B43761  43.746  23.189   7.050
 7747POPC   C4B43762  43.768  23.144   7.350
 7748POPC   NC343763  41.599  19.841   5.550
 7748POPC   PO443764  41.572  19.871   5.850
 7748POPC   GL143765  41.530  19.818   6.150
 7748POPC   GL243766  41.499  19.679   6.150
 7748POPC   C1A43767  41.549  19.837   6.450
 7748POPC   D2A43768  41.560  19.846   6.750
 7748POPC   C3A43769  41.580  19.880   7.050
 7748POPC   C4A43770  41.518  19.803   7.350
 7748POPC   C1B43771  41.461  19.562   6.450
 7748POPC   C2B43772  41.464  19.570   6.750
 7748POPC   C3B43773  41.494  19.630   7.050
 7748POPC   C4B43774  41.466  19.572   7.350
 7749POPC   NC343775   2.799   6.658   5.550
 7749POPC   PO443776   2.745   6.658   5.850
 7749POPC   GL143777   2.719   6.658   6.150
 7749POPC   GL243778   2.845   6.643   6.150
 7749POPC   C1A43779   2.807   6.619   6.450
 7749POPC   D2A43780   2.794   6.608   6.750
 7749POPC   C3A43781   2.762   6.684   7.050
 7749POPC   C4A43782   2.754   6.677   7.350
 7749POPC   C1B43783   3.028   6.743   6.450
 7749POPC   C2B43784   2.997   6.688   6.750
 7749POPC   C3B43785   2.964   6.749   7.050
 7749POPC   C4B43786   3.015   6.682   7.350
 7750POPC   NC343787   5.883  39.246   5.550
 7750POPC   PO443788   5.820  39.254   5.850
 7750POPC   GL143789   5.896  39.198   6.150
 7750POPC   GL243790   5.830  39.376   6.150
 7750POPC   C1A43791   5.877  39.247   6.450
 7750POPC   D2A43792   5.848  39.227   6.750
 7750POPC   C3A43793   5.843  39.192   7.050
 7750POPC   C4A43794   5.846  39.235   7.350
 7750POPC   C1B43795   5.804  39.502   6.450
 7750POPC   C2B43796   5.717  39.420   6.750
 7750POPC   C3B43797   5.738  39.503   7.050
 7750POPC   C4B43798   5.714  39.433   7.350
 7751POPC   NC343799  19.041   3.552   5.550
 7751POPC   PO443800  19.070   3.493   5.850
 7751POPC   GL143801  19.062   3.510   6.150
 7751POPC   GL243802  18.903   3.450   6.150
 7751POPC   C1A43803  19.044   3.506   6.450
 7751POPC   D2A43804  19.033   3.493   6.750
 7751POPC   C3A43805  19.105   3.562   7.050
 7751POPC   C4A43806  19.052   3.518   7.350
 7751POPC   C1B43807  18.815   3.416   6.450
 7751POPC   C2B43808  18.830   3.404   6.750
 7751POPC   C3B43809  18.829   3.404   7.050
 7751POPC   C4B43810  18.825   3.400   7.350
 7752POPC   NC343811  31.451  26.002   5.550
 7752POPC   PO443812  31.507  26.055   5.850
 7752POPC   GL143813  31.451  26.030   6.150
 7752POPC   GL243814  31.557  26.082   6.150
 7752POPC   C1A43815  31.509  26.062   6.450
 7752POPC   D2A43816  31.442  26.011   6.750
 7752POPC   C3A43817  31.450  26.037   7.050
 7752POPC   C4A43818  31.431  26.033   7.350
 7752POPC   C1B43819  31.693  26.045   6.450
 7752POPC   C2B43820  31.692  26.010   6.750
 7752POPC   C3B43821  31.679  26.013   7.050
 7752POPC   C4B43822  31.747  26.056   7.350
 7753POPC   NC343823  13.629  37.647   5.550
 7753POPC   PO443824  13.666  37.664   5.850
 7753POPC   GL143825  13.616  37.704   6.150
 7753POPC   GL243826  13.575  37.747   6.150
 7753POPC   C1A43827  13.660  37.699   6.450
 7753POPC   D2A43828  13.638  37.679   6.750
 7753POPC   C3A43829  13.649  37.677   7.050
 7753POPC   C4A43830  13.640  37.644   7.350
 7753POPC   C1B43831  13.550  37.902   6.450
 7753POPC   C2B43832  13.510  37.948   6.750
 7753POPC   C3B43833  13.572  37.863   7.050
 7753POPC   C4B43834  13.526  37.892   7.350
 7754POPC   NC343835  33.036   3.502   5.550
 7754POPC   PO443836  33.057   3.560   5.850
 7754POPC   GL143837  32.998   3.571   6.150
 7754POPC   GL243838  33.194   3.539   6.150
 7754POPC   C1A43839  32.999   3.526   6.450
 7754POPC   D2A43840  32.987   3.535   6.750
 7754POPC   C3A43841  33.043   3.518   7.050
 7754POPC   C4A43842  33.015   3.498   7.350
 7754POPC   C1B43843  33.246   3.556   6.450
 7754POPC   C2B43844  33.296   3.576   6.750
 7754POPC   C3B43845  33.269   3.642   7.050
 7754POPC   C4B43846  33.305   3.649   7.350
 7755POPC   NC343847  25.225   5.852   5.550
 7755POPC   PO443848  25.266   5.889   5.850
 7755POPC   GL143849  25.294   5.886   6.150
 7755POPC   GL243850  25.427   5.865   6.150
 7755POPC   C1A43851  25.231   5.894   6.450
 7755POPC   D2A43852  25.225   5.837   6.750
 7755POPC   C3A43853  25.277   5.820   7.050
 7755POPC   C4A43854  25.245   5.901   7.350
 7755POPC   C1B43855  25.479   5.877   6.450
 7755POPC   C2B43856  25.553   5.869   6.750
 7755POPC   C3B43857  25.483   5.814   7.050
 7755POPC   C4B43858  25.533   5.784   7.350
 7756POPC   NC343859  38.450  24.459   5.550
 7756POPC   PO443860  38.488  24.454   5.850
 7756POPC   GL143861  38.486  24.505   6.150
 7756POPC   GL243862  38.492  24.378   6.150
 7756POPC   C1A43863  38.503  24.483   6.450
 7756POPC   D2A43864  38.483  24.453   6.750
 7756POPC   C3A43865  38.419  24.505   7.050
 7756POPC   C4A43866  38.466  24.496   7.350
 7756POPC   C1B43867  38.625  24.342   6.450
 7756POPC   C2B43868  38.578  24.271   6.750
 7756POPC   C3B43869  38.608  24.273   7.050
 7756POPC   C4B43870  38.658  24.274   7.350
 7757POPC   NC343871  18.247  27.632   5.550
 7757POPC   PO443872  18.314  27.579   5.850
 7757POPC   GL143873  18.284  27.602   6.150
 7757POPC   GL243874  18.376  27.531   6.150
 7757POPC   C1A43875  18.271  27.566   6.450
 7757POPC   D2A43876  18.282  27.555   6.750
 7757POPC   C3A43877  18.325  27.581   7.050
 7757POPC   C4A43878  18.289  27.605   7.350
 7757POPC   C1B43879  18.444  27.342   6.450
 7757POPC   C2B43880  18.360  27.326   6.750
 7757POPC   C3B43881  18.413  27.327   7.050
 7757POPC   C4B43882  18.406  27.359   7.350
 7758POPC   NC343883   5.065  39.240   5.550
 7758POPC   PO443884   5.086  39.225   5.850
 7758POPC   GL143885   5.119  39.250   6.150
 7758POPC   GL243886   5.135  39.311   6.150
 7758POPC   C1A43887   5.106  39.281   6.450
 7758POPC   D2A43888   5.136  39.220   6.750
 7758POPC   C3A43889   5.126  39.228   7.050
 7758POPC   C4A43890   5.090  39.196   7.350
 7758POPC   C1B43891   5.130  39.442   6.450
 7758POPC   C2B43892   5.116  39.516   6.750
 7758POPC   C3B43893   5.101  39.450   7.050
 7758POPC   C4B43894   5.091  39.469   7.350
 7759POPC   NC343895  19.024  30.734   5.550
 7759POPC   PO443896  19.091  30.726   5.850
 7759POPC   GL143897  19.074  30.735   6.150
 7759POPC   GL243898  19.217  30.698   6.150
 7759POPC   C1A43899  19.050  30.685   6.450
 7759POPC   D2A43900  19.046  30.708   6.750
 7759POPC   C3A43901  19.077  30.691   7.050
 7759POPC   C4A43902  19.076  30.702   7.350
 7759POPC   C1B43903  19.323  30.801   6.450
 7759POPC   C2B43904  19.307  30.752   6.750
 7759POPC   C3B43905  19.296  30.750   7.050
 7759POPC   C4B43906  19.332  30.787   7.350
 7760POPC   NC343907  16.733  43.134   5.550
 7760POPC   PO443908  16.684  43.114   5.850
 7760POPC   GL143909  16.771  43.062   6.150
 7760POPC   GL243910  16.692  43.235   6.150
 7760POPC   C1A43911  16.697  43.138   6.450
 7760POPC   D2A43912  16.682  43.132   6.750
 7760POPC   C3A43913  16.698  43.126   7.050
 7760POPC   C4A43914  16.711  43.142   7.350
 7760POPC   C1B43915  16.639  43.346   6.450
 7760POPC   C2B43916  16.596  43.319   6.750
 7760POPC   C3B43917  16.648  43.303   7.050
 7760POPC   C4B43918  16.619  43.383   7.350
 7761POPC   NC343919  10.519  16.698   5.550
 7761POPC   PO443920  10.527  16.727   5.850
 7761POPC   GL143921  10.572  16.734   6.150
 7761POPC   GL243922  10.371  16.673   6.150
 7761POPC   C1A43923  10.524  16.752   6.450
 7761POPC   D2A43924  10.525  16.763   6.750
 7761POPC   C3A43925  10.481  16.691   7.050
 7761POPC   C4A43926  10.489  16.734   7.350
 7761POPC   C1B43927  10.308  16.600   6.450
 7761POPC   C2B43928  10.309  16.668   6.750
 7761POPC   C3B43929  10.304  16.580   7.050
 7761POPC   C4B43930  10.314  16.621   7.350
 7762POPC   NC343931  36.876  26.848   5.550
 7762POPC   PO443932  36.902  26.772   5.850
 7762POPC   GL143933  36.884  26.866   6.150
 7762POPC   GL243934  36.992  26.950   6.150
 7762POPC   C1A43935  36.944  26.779   6.450
 7762POPC   D2A43936  36.911  26.796   6.750
 7762POPC   C3A43937  36.888  26.783   7.050
 7762POPC   C4A43938  36.915  26.809   7.350
 7762POPC   C1B43939  36.997  27.084   6.450
 7762POPC   C2B43940  37.015  27.000   6.750
 7762POPC   C3B43941  37.035  27.003   7.050
 7762POPC   C4B43942  37.006  27.063   7.350
 7763POPC   NC343943  24.537  24.509   5.550
 7763POPC   PO443944  24.523  24.516   5.850
 7763POPC   GL143945  24.539  24.458   6.150
 7763POPC   GL243946  24.575  24.576   6.150
 7763POPC   C1A43947  24.479  24.448   6.450
 7763POPC   D2A43948  24.505  24.494   6.750
 7763POPC   C3A43949  24.440  24.536   7.050
 7763POPC   C4A43950  24.457  24.462   7.350
 7763POPC   C1B43951  24.562  24.748   6.450
 7763POPC   C2B43952  24.538  24.753   6.750
 7763POPC   C3B43953  24.579  24.728   7.050
 7763POPC   C4B43954  24.541  24.703   7.350
 7764POPC   NC343955  34.541  39.979   5.550
 7764POPC   PO443956  34.535  39.977   5.850
 7764POPC   GL143957  34.618  39.960   6.150
 7764POPC   GL243958  34.730  39.974   6.150
 7764POPC   C1A43959  34.553  40.018   6.450
 7764POPC   D2A43960  34.563  39.970   6.750
 7764POPC   C3A43961  34.613  40.015   7.050
 7764POPC   C4A43962  34.623  39.963   7.350
 7764POPC   C1B43963  34.798  40.068   6.450
 7764POPC   C2B43964  34.828  39.989   6.750
 7764POPC   C3B43965  34.777  40.071   7.050
 7764POPC   C4B43966  34.806  40.012   7.350
 7765POPC   NC343967  13.632  20.621   5.550
 7765POPC   PO443968  13.615  20.644   5.850
 7765POPC   GL143969  13.656  20.580   6.150
 7765POPC   GL243970  13.546  20.513   6.150
 7765POPC   C1A43971  13.653  20.603   6.450
 7765POPC   D2A43972  13.581  20.586   6.750
 7765POPC   C3A43973  13.594  20.621   7.050
 7765POPC   C4A43974  13.584  20.655   7.350
 7765POPC   C1B43975  13.439  20.382   6.450
 7765POPC   C2B43976  13.494  20.444   6.750
 7765POPC   C3B43977  13.500  20.411   7.050
 7765POPC   C4B43978  13.492  20.418   7.350
 7766POPC   NC343979  32.248  25.230   5.550
 7766POPC   PO443980  32.249  25.239   5.850
 7766POPC   GL143981  32.284  25.241   6.150
 7766POPC   GL243982  32.317  25.426   6.150
 7766POPC   C1A43983  32.278  25.280   6.450
 7766POPC   D2A43984  32.295  25.311   6.750
 7766POPC   C3A43985  32.257  25.236   7.050
 7766POPC   C4A43986  32.259  25.304   7.350
 7766POPC   C1B43987  32.318  25.492   6.450
 7766POPC   C2B43988  32.356  25.520   6.750
 7766POPC   C3B43989  32.319  25.457   7.050
 7766POPC   C4B43990  32.355  25.539   7.350
 7767POPC   NC343991  37.717  16.742   5.550
 7767POPC   PO443992  37.642  16.702   5.850
 7767POPC   GL143993  37.657  16.748   6.150
 7767POPC   GL243994  37.775  16.821   6.150
 7767POPC   C1A43995  37.668  16.755   6.450
 7767POPC   D2A43996  37.691  16.776   6.750
 7767POPC   C3A43997  37.704  16.745   7.050
 7767POPC   C4A43998  37.689  16.717   7.350
 7767POPC   C1B43999  37.822  16.910   6.450
 7767POPC   C2B44000  37.883  16.937   6.750
 7767POPC   C3B44001  37.846  16.944   7.050
 7767POPC   C4B44002  37.818  16.867   7.350
 7768POPC   NC344003  31.461  38.503   5.550
 7768POPC   PO444004  31.519  38.476   5.850
 7768POPC   GL144005  31.426  38.432   6.150
 7768POPC   GL244006  31.528  38.533   6.150
 7768POPC   C1A44007  31.496  38.442   6.450
 7768POPC   D2A44008  31.480  38.437   6.750
 7768POPC   C3A44009  31.428  38.479   7.050
 7768POPC   C4A44010  31.440  38.464   7.350
 7768POPC   C1B44011  31.531  38.723   6.450
 7768POPC   C2B44012  31.547  38.670   6.750
 7768POPC   C3B44013  31.603  38.660   7.050
 7768POPC   C4B44014  31.598  38.721   7.350
 7769POPC   NC344015   6.620   4.283   5.550
 7769POPC   PO444016   6.646   4.301   5.850
 7769POPC   GL144017   6.637   4.357   6.150
 7769POPC   GL244018   6.785   4.346   6.150
 7769POPC   C1A44019   6.666   4.331   6.450
 7769POPC   D2A44020   6.604   4.282   6.750
 7769POPC   C3A44021   6.626   4.338   7.050
 7769POPC   C4A44022   6.597   4.355   7.350
 7769POPC   C1B44023   6.846   4.448   6.450
 7769POPC   C2B44024   6.797   4.476   6.750
 7769POPC   C3B44025   6.845   4.434   7.050
 7769POPC   C4B44026   6.894   4.486   7.350
 7770POPC   NC344027   3.503   2.751   5.550
 7770POPC   PO444028   3.559   2.737   5.850
 7770POPC   GL144029   3.587   2.755   6.150
 7770POPC   GL244030   3.581   2.878   6.150
 7770POPC   C1A44031   3.579   2.728   6.450
 7770POPC   D2A44032   3.549   2.753   6.750
 7770POPC   C3A44033   3.492   2.778   7.050
 7770POPC   C4A44034   3.513   2.744   7.350
 7770POPC   C1B44035   3.696   2.970   6.450
 7770POPC   C2B44036   3.649   2.999   6.750
 7770POPC   C3B44037   3.661   2.941   7.050
 7770POPC   C4B44038   3.614   3.015   7.350
 7771POPC   NC344039  32.982  28.387   5.550
 7771POPC   PO444040  33.063  28.413   5.850
 7771POPC   GL144041  32.992  28.401   6.150
 7771POPC   GL244042  32.953  28.303   6.150
 7771POPC   C1A44043  33.039  28.344   6.450
 7771POPC   D2A44044  32.980  28.395   6.750
 7771POPC   C3A44045  33.005  28.381   7.050
 7771POPC   C4A44046  32.996  28.367   7.350
 7771POPC   C1B44047  32.848  28.189   6.450
 7771POPC   C2B44048  32.867  28.213   6.750
 7771POPC   C3B44049  32.785  28.264   7.050
 7771POPC   C4B44050  32.783  28.250   7.350
 7772POPC   NC344051  29.960  40.783   5.550
 7772POPC   PO444052  29.935  40.829   5.850
 7772POPC   GL144053  29.911  40.812   6.150
 7772POPC   GL244054  29.853  40.924   6.150
 7772POPC   C1A44055  29.913  40.803   6.450
 7772POPC   D2A44056  29.888  40.739   6.750
 7772POPC   C3A44057  29.935  40.814   7.050
 7772POPC   C4A44058  29.878  40.794   7.350
 7772POPC   C1B44059  29.797  41.038   6.450
 7772POPC   C2B44060  29.771  41.014   6.750
 7772POPC   C3B44061  29.745  41.039   7.050
 7772POPC   C4B44062  29.778  40.970   7.350
 7773POPC   NC344063  29.188   2.774   5.550
 7773POPC   PO444064  29.118   2.761   5.850
 7773POPC   GL144065  29.189   2.746   6.150
 7773POPC   GL244066  29.087   2.791   6.150
 7773POPC   C1A44067  29.162   2.772   6.450
 7773POPC   D2A44068  29.105   2.731   6.750
 7773POPC   C3A44069  29.113   2.776   7.050
 7773POPC   C4A44070  29.147   2.783   7.350
 7773POPC   C1B44071  28.961   2.884   6.450
 7773POPC   C2B44072  28.937   2.885   6.750
 7773POPC   C3B44073  28.960   2.906   7.050
 7773POPC   C4B44074  28.980   2.875   7.350
 7774POPC   NC344075  28.347  29.114   5.550
 7774POPC   PO444076  28.411  29.119   5.850
 7774POPC   GL144077  28.334  29.118   6.150
 7774POPC   GL244078  28.298  29.313   6.150
 7774POPC   C1A44079  28.363  29.150   6.450
 7774POPC   D2A44080  28.388  29.095   6.750
 7774POPC   C3A44081  28.410  29.156   7.050
 7774POPC   C4A44082  28.375  29.134   7.350
 7774POPC   C1B44083  28.321  29.367   6.450
 7774POPC   C2B44084  28.319  29.366   6.750
 7774POPC   C3B44085  28.276  29.383   7.050
 7774POPC   C4B44086  28.354  29.395   7.350
 7775POPC   NC344087  28.351   6.651   5.550
 7775POPC   PO444088  28.351   6.606   5.850
 7775POPC   GL144089  28.346   6.624   6.150
 7775POPC   GL244090  28.214   6.604   6.150
 7775POPC   C1A44091  28.354   6.655   6.450
 7775POPC   D2A44092  28.375   6.647   6.750
 7775POPC   C3A44093  28.319   6.695   7.050
 7775POPC   C4A44094  28.348   6.688   7.350
 7775POPC   C1B44095  28.115   6.543   6.450
 7775POPC   C2B44096  28.117   6.526   6.750
 7775POPC   C3B44097  28.154   6.563   7.050
 7775POPC   C4B44098  28.135   6.550   7.350
 7776POPC   NC344099  13.643   5.103   5.550
 7776POPC   PO444100  13.676   5.132   5.850
 7776POPC   GL144101  13.634   5.108   6.150
 7776POPC   GL244102  13.576   5.178   6.150
 7776POPC   C1A44103  13.597   5.130   6.450
 7776POPC   D2A44104  13.589   5.086   6.750
 7776POPC   C3A44105  13.640   5.102   7.050
 7776POPC   C4A44106  13.626   5.047   7.350
 7776POPC   C1B44107  13.664   5.302   6.450
 7776POPC   C2B44108  13.596   5.380   6.750
 7776POPC   C3B44109  13.611   5.300   7.050
 7776POPC   C4B44110  13.639   5.317   7.350
 7777POPC   NC344111  23.741  18.275   5.550
 7777POPC   PO444112  23.665  18.252   5.850
 7777POPC   GL144113  23.682  18.297   6.150
 7777POPC   GL244114  23.635  18.168   6.150
 7777POPC   C1A44115  23.686  18.322   6.450
 7777POPC   D2A44116  23.676  18.258   6.750
 7777POPC   C3A44117  23.747  18.245   7.050
 7777POPC   C4A44118  23.689  18.233   7.350
 7777POPC   C1B44119  23.596  18.095   6.450
 7777POPC   C2B44120  23.585  18.096   6.750
 7777POPC   C3B44121  23.600  18.106   7.050
 7777POPC   C4B44122  23.564  18.042   7.350
 7778POPC   NC344123   5.106  17.543   5.550
 7778POPC   PO444124   5.051  17.530   5.850
 7778POPC   GL144125   5.104  17.553   6.150
 7778POPC   GL244126   5.144  17.365   6.150
 7778POPC   C1A44127   5.069  17.493   6.450
 7778POPC   D2A44128   5.135  17.466   6.750
 7778POPC   C3A44129   5.112  17.481   7.050
 7778POPC   C4A44130   5.086  17.477   7.350
 7778POPC   C1B44131   5.155  17.276   6.450
 7778POPC   C2B44132   5.158  17.234   6.750
 7778POPC   C3B44133   5.083  17.216   7.050
 7778POPC   C4B44134   5.140  17.248   7.350
 7779POPC   NC344135  36.157   3.525   5.550
 7779POPC   PO444136  36.164   3.510   5.850
 7779POPC   GL144137  36.120   3.562   6.150
 7779POPC   GL244138  36.040   3.435   6.150
 7779POPC   C1A44139  36.105   3.525   6.450
 7779POPC   D2A44140  36.135   3.575   6.750
 7779POPC   C3A44141  36.161   3.508   7.050
 7779POPC   C4A44142  36.168   3.545   7.350
 7779POPC   C1B44143  35.978   3.300   6.450
 7779POPC   C2B44144  35.998   3.295   6.750
 7779POPC   C3B44145  35.964   3.289   7.050
 7779POPC   C4B44146  35.979   3.366   7.350
 7780POPC   NC344147  22.925   1.240   5.550
 7780POPC   PO444148  22.972   1.185   5.850
 7780POPC   GL144149  22.956   1.262   6.150
 7780POPC   GL244150  23.070   1.283   6.150
 7780POPC   C1A44151  22.922   1.170   6.450
 7780POPC   D2A44152  22.894   1.258   6.750
 7780POPC   C3A44153  22.979   1.208   7.050
 7780POPC   C4A44154  22.942   1.217   7.350
 7780POPC   C1B44155  23.131   1.381   6.450
 7780POPC   C2B44156  23.163   1.368   6.750
 7780POPC   C3B44157  23.171   1.406   7.050
 7780POPC   C4B44158  23.163   1.340   7.350
 7781POPC   NC344159  15.950  36.156   5.550
 7781POPC   PO444160  15.971  36.119   5.850
 7781POPC   GL144161  15.952  36.125   6.150
 7781POPC   GL244162  16.032  36.093   6.150
 7781POPC   C1A44163  15.915  36.140   6.450
 7781POPC   D2A44164  15.919  36.119   6.750
 7781POPC   C3A44165  15.937  36.085   7.050
 7781POPC   C4A44166  15.914  36.120   7.350
 7781POPC   C1B44167  16.232  36.032   6.450
 7781POPC   C2B44168  16.144  36.058   6.750
 7781POPC   C3B44169  16.202  36.051   7.050
 7781POPC   C4B44170  16.144  36.058   7.350
 7782POPC   NC344171   8.245  14.403   5.550
 7782POPC   PO444172   8.199  14.377   5.850
 7782POPC   GL144173   8.233  14.362   6.150
 7782POPC   GL244174   8.061  14.386   6.150
 7782POPC   C1A44175   8.170  14.424   6.450
 7782POPC   D2A44176   8.204  14.385   6.750
 7782POPC   C3A44177   8.244  14.448   7.050
 7782POPC   C4A44178   8.230  14.356   7.350
 7782POPC   C1B44179   7.958  14.460   6.450
 7782POPC   C2B44180   7.940  14.406   6.750
 7782POPC   C3B44181   7.900  14.405   7.050
 7782POPC   C4B44182   7.935  14.426   7.350
 7783POPC   NC344183  22.914  29.905   5.550
 7783POPC   PO444184  22.968  29.900   5.850
 7783POPC   GL144185  22.935  29.945   6.150
 7783POPC   GL244186  22.821  29.835   6.150
 7783POPC   C1A44187  22.921  29.901   6.450
 7783POPC   D2A44188  22.966  29.966   6.750
 7783POPC   C3A44189  22.919  29.959   7.050
 7783POPC   C4A44190  22.907  29.879   7.350
 7783POPC   C1B44191  22.692  29.759   6.450
 7783POPC   C2B44192  22.679  29.834   6.750
 7783POPC   C3B44193  22.692  29.785   7.050
 7783POPC   C4B44194  22.690  29.782   7.350
 7784POPC   NC344195  35.379  19.033   5.550
 7784POPC   PO444196  35.327  19.010   5.850
 7784POPC   GL144197  35.321  19.067   6.150
 7784POPC   GL244198  35.480  19.069   6.150
 7784POPC   C1A44199  35.365  19.017   6.450
 7784POPC   D2A44200  35.357  19.079   6.750
 7784POPC   C3A44201  35.325  19.070   7.050
 7784POPC   C4A44202  35.352  19.024   7.350
 7784POPC   C1B44203  35.615  18.984   6.450
 7784POPC   C2B44204  35.568  18.950   6.750
 7784POPC   C3B44205  35.608  18.967   7.050
 7784POPC   C4B44206  35.557  18.959   7.350
 7785POPC   NC344207  33.797   3.515   5.550
 7785POPC   PO444208  33.846   3.542   5.850
 7785POPC   GL144209  33.844   3.567   6.150
 7785POPC   GL244210  33.852   3.392   6.150
 7785POPC   C1A44211  33.798   3.589   6.450
 7785POPC   D2A44212  33.791   3.562   6.750
 7785POPC   C3A44213  33.801   3.521   7.050
 7785POPC   C4A44214  33.770   3.580   7.350
 7785POPC   C1B44215  33.850   3.269   6.450
 7785POPC   C2B44216  33.887   3.329   6.750
 7785POPC   C3B44217  33.874   3.337   7.050
 7785POPC   C4B44218  33.845   3.307   7.350
 7786POPC   NC344219  39.239  43.894   5.550
 7786POPC   PO444220  39.224  43.915   5.850
 7786POPC   GL144221  39.277  43.933   6.150
 7786POPC   GL244222  39.327  43.886   6.150
 7786POPC   C1A44223  39.187  43.922   6.450
 7786POPC   D2A44224  39.264  43.863   6.750
 7786POPC   C3A44225  39.274  43.911   7.050
 7786POPC   C4A44226  39.217  43.922   7.350
 7786POPC   C1B44227  39.446  43.843   6.450
 7786POPC   C2B44228  39.449  43.830   6.750
 7786POPC   C3B44229  39.498  43.869   7.050
 7786POPC   C4B44230  39.455  43.875   7.350
 7787POPC   NC344231  19.046  29.180   5.550
 7787POPC   PO444232  19.053  29.148   5.850
 7787POPC   GL144233  19.071  29.178   6.150
 7787POPC   GL244234  19.154  29.063   6.150
 7787POPC   C1A44235  19.040  29.165   6.450
 7787POPC   D2A44236  19.036  29.182   6.750
 7787POPC   C3A44237  19.028  29.133   7.050
 7787POPC   C4A44238  19.070  29.155   7.350
 7787POPC   C1B44239  19.164  28.919   6.450
 7787POPC   C2B44240  19.256  28.971   6.750
 7787POPC   C3B44241  19.189  28.985   7.050
 7787POPC   C4B44242  19.172  28.949   7.350
 7788POPC   NC344243  35.343  37.685   5.550
 7788POPC   PO444244  35.369  37.645   5.850
 7788POPC   GL144245  35.307  37.676   6.150
 7788POPC   GL244246  35.286  37.610   6.150
 7788POPC   C1A44247  35.383  37.650   6.450
 7788POPC   D2A44248  35.303  37.689   6.750
 7788POPC   C3A44249  35.344  37.696   7.050
 7788POPC   C4A44250  35.389  37.638   7.350
 7788POPC   C1B44251  35.158  37.581   6.450
 7788POPC   C2B44252  35.166  37.611   6.750
 7788POPC   C3B44253  35.145  37.526   7.050
 7788POPC   C4B44254  35.113  37.579   7.350
 7789POPC   NC344255   8.245  20.641   5.550
 7789POPC   PO444256   8.187  20.618   5.850
 7789POPC   GL144257   8.204  20.636   6.150
 7789POPC   GL244258   8.310  20.583   6.150
 7789POPC   C1A44259   8.183  20.597   6.450
 7789POPC   D2A44260   8.175  20.598   6.750
 7789POPC   C3A44261   8.242  20.562   7.050
 7789POPC   C4A44262   8.154  20.614   7.350
 7789POPC   C1B44263   8.452  20.641   6.450
 7789POPC   C2B44264   8.447  20.607   6.750
 7789POPC   C3B44265   8.488  20.667   7.050
 7789POPC   C4B44266   8.397  20.652   7.350
 7790POPC   NC344267  14.383  31.442   5.550
 7790POPC   PO444268  14.399  31.464   5.850
 7790POPC   GL144269  14.376  31.448   6.150
 7790POPC   GL244270  14.315  31.526   6.150
 7790POPC   C1A44271  14.384  31.491   6.450
 7790POPC   D2A44272  14.354  31.464   6.750
 7790POPC   C3A44273  14.369  31.517   7.050
 7790POPC   C4A44274  14.430  31.429   7.350
 7790POPC   C1B44275  14.172  31.525   6.450
 7790POPC   C2B44276  14.149  31.562   6.750
 7790POPC   C3B44277  14.192  31.554   7.050
 7790POPC   C4B44278  14.143  31.623   7.350
 7791POPC   NC344279  37.719  37.682   5.550
 7791POPC   PO444280  37.715  37.659   5.850
 7791POPC   GL144281  37.673  37.674   6.150
 7791POPC   GL244282  37.536  37.678   6.150
 7791POPC   C1A44283  37.630  37.642   6.450
 7791POPC   D2A44284  37.695  37.681   6.750
 7791POPC   C3A44285  37.650  37.667   7.050
 7791POPC   C4A44286  37.660  37.671   7.350
 7791POPC   C1B44287  37.418  37.797   6.450
 7791POPC   C2B44288  37.479  37.786   6.750
 7791POPC   C3B44289  37.459  37.788   7.050
 7791POPC   C4B44290  37.421  37.755   7.350
 7792POPC   NC344291  33.771  13.657   5.550
 7792POPC   PO444292  33.805  13.607   5.850
 7792POPC   GL144293  33.769  13.643   6.150
 7792POPC   GL244294  33.653  13.653   6.150
 7792POPC   C1A44295  33.777  13.586   6.450
 7792POPC   D2A44296  33.850  13.649   6.750
 7792POPC   C3A44297  33.844  13.670   7.050
 7792POPC   C4A44298  33.809  13.660   7.350
 7792POPC   C1B44299  33.599  13.693   6.450
 7792POPC   C2B44300  33.521  13.679   6.750
 7792POPC   C3B44301  33.552  13.729   7.050
 7792POPC   C4B44302  33.584  13.714   7.350
 7793POPC   NC344303   7.429   5.915   5.550
 7793POPC   PO444304   7.397   5.885   5.850
 7793POPC   GL144305   7.379   5.842   6.150
 7793POPC   GL244306   7.487   5.724   6.150
 7793POPC   C1A44307   7.433   5.829   6.450
 7793POPC   D2A44308   7.371   5.912   6.750
 7793POPC   C3A44309   7.452   5.872   7.050
 7793POPC   C4A44310   7.412   5.889   7.350
 7793POPC   C1B44311   7.554   5.650   6.450
 7793POPC   C2B44312   7.531   5.607   6.750
 7793POPC   C3B44313   7.488   5.672   7.050
 7793POPC   C4B44314   7.536   5.671   7.350
 7794POPC   NC344315  31.486  12.839   5.550
 7794POPC   PO444316  31.449  12.875   5.850
 7794POPC   GL144317  31.509  12.859   6.150
 7794POPC   GL244318  31.366  12.712   6.150
 7794POPC   C1A44319  31.469  12.876   6.450
 7794POPC   D2A44320  31.455  12.887   6.750
 7794POPC   C3A44321  31.500  12.888   7.050
 7794POPC   C4A44322  31.497  12.876   7.350
 7794POPC   C1B44323  31.335  12.653   6.450
 7794POPC   C2B44324  31.397  12.640   6.750
 7794POPC   C3B44325  31.358  12.635   7.050
 7794POPC   C4B44326  31.347  12.629   7.350
 7795POPC   NC344327  36.930  25.306   5.550
 7795POPC   PO444328  36.933  25.248   5.850
 7795POPC   GL144329  36.894  25.248   6.150
 7795POPC   GL244330  37.006  25.322   6.150
 7795POPC   C1A44331  36.889  25.247   6.450
 7795POPC   D2A44332  36.933  25.308   6.750
 7795POPC   C3A44333  36.922  25.239   7.050
 7795POPC   C4A44334  36.951  25.239   7.350
 7795POPC   C1B44335  37.056  25.499   6.450
 7795POPC   C2B44336  37.034  25.507   6.750
 7795POPC   C3B44337  37.030  25.429   7.050
 7795POPC   C4B44338  37.059  25.512   7.350
 7796POPC   NC344339  31.468   7.413   5.550
 7796POPC   PO444340  31.423   7.424   5.850
 7796POPC   GL144341  31.438   7.435   6.150
 7796POPC   GL244342  31.612   7.352   6.150
 7796POPC   C1A44343  31.427   7.455   6.450
 7796POPC   D2A44344  31.472   7.427   6.750
 7796POPC   C3A44345  31.504   7.405   7.050
 7796POPC   C4A44346  31.473   7.372   7.350
 7796POPC   C1B44347  31.690   7.370   6.450
 7796POPC   C2B44348  31.670   7.332   6.750
 7796POPC   C3B44349  31.746   7.352   7.050
 7796POPC   C4B44350  31.762   7.364   7.350
 7797POPC   NC344351   5.054  29.135   5.550
 7797POPC   PO444352   5.071  29.170   5.850
 7797POPC   GL144353   5.048  29.100   6.150
 7797POPC   GL244354   5.118  28.992   6.150
 7797POPC   C1A44355   5.132  29.130   6.450
 7797POPC   D2A44356   5.064  29.182   6.750
 7797POPC   C3A44357   5.100  29.187   7.050
 7797POPC   C4A44358   5.084  29.133   7.350
 7797POPC   C1B44359   5.076  28.916   6.450
 7797POPC   C2B44360   5.098  28.855   6.750
 7797POPC   C3B44361   5.124  28.922   7.050
 7797POPC   C4B44362   5.147  28.888   7.350
 7798POPC   NC344363  26.838  31.474   5.550
 7798POPC   PO444364  26.855  31.434   5.850
 7798POPC   GL144365  26.807  31.507   6.150
 7798POPC   GL244366  26.907  31.346   6.150
 7798POPC   C1A44367  26.782  31.477   6.450
 7798POPC   D2A44368  26.820  31.495   6.750
 7798POPC   C3A44369  26.829  31.465   7.050
 7798POPC   C4A44370  26.852  31.438   7.350
 7798POPC   C1B44371  26.869  31.198   6.450
 7798POPC   C2B44372  26.856  31.245   6.750
 7798POPC   C3B44373  26.859  31.239   7.050
 7798POPC   C4B44374  26.905  31.215   7.350
 7799POPC   NC344375  15.967  13.667   5.550
 7799POPC   PO444376  15.917  13.626   5.850
 7799POPC   GL144377  15.979  13.644   6.150
 7799POPC   GL244378  16.100  13.556   6.150
 7799POPC   C1A44379  15.913  13.603   6.450
 7799POPC   D2A44380  15.998  13.675   6.750
 7799POPC   C3A44381  15.982  13.651   7.050
 7799POPC   C4A44382  15.920  13.603   7.350
 7799POPC   C1B44383  16.212  13.568   6.450
 7799POPC   C2B44384  16.165  13.580   6.750
 7799POPC   C3B44385  16.157  13.564   7.050
 7799POPC   C4B44386  16.145  13.506   7.350
 7800POPC   NC344387  12.026   1.981   5.550
 7800POPC   PO444388  12.057   2.012   5.850
 7800POPC   GL144389  12.073   1.961   6.150
 7800POPC   GL244390  12.173   2.106   6.150
 7800POPC   C1A44391  12.063   1.961   6.450
 7800POPC   D2A44392  12.084   2.039   6.750
 7800POPC   C3A44393  12.045   2.031   7.050
 7800POPC   C4A44394  12.040   1.969   7.350
 7800POPC   C1B44395  12.229   2.200   6.450
 7800POPC   C2B44396  12.217   2.160   6.750
 7800POPC   C3B44397  12.284   2.183   7.050
 7800POPC   C4B44398  12.269   2.180   7.350
 7801POPC   NC344399   5.128  32.212   5.550
 7801POPC   PO444400   5.051  32.277   5.850
 7801POPC   GL144401   5.057  32.238   6.150
 7801POPC   GL244402   5.024  32.145   6.150
 7801POPC   C1A44403   5.057  32.256   6.450
 7801POPC   D2A44404   5.123  32.270   6.750
 7801POPC   C3A44405   5.070  32.284   7.050
 7801POPC   C4A44406   5.132  32.297   7.350
 7801POPC   C1B44407   4.986  31.967   6.450
 7801POPC   C2B44408   5.015  32.040   6.750
 7801POPC   C3B44409   4.996  31.990   7.050
 7801POPC   C4B44410   4.988  32.033   7.350
 7802POPC   NC344411  27.576  31.447   5.550
 7802POPC   PO444412  27.593  31.425   5.850
 7802POPC   GL144413  27.570  31.442   6.150
 7802POPC   GL244414  27.654  31.630   6.150
 7802POPC   C1A44415  27.627  31.470   6.450
 7802POPC   D2A44416  27.552  31.453   6.750
 7802POPC   C3A44417  27.549  31.453   7.050
 7802POPC   C4A44418  27.547  31.482   7.350
 7802POPC   C1B44419  27.659  31.739   6.450
 7802POPC   C2B44420  27.643  31.700   6.750
 7802POPC   C3B44421  27.622  31.718   7.050
 7802POPC   C4B44422  27.623  31.684   7.350
 7803POPC   NC344423  43.096  43.097   5.550
 7803POPC   PO444424  43.083  43.070   5.850
 7803POPC   GL144425  43.084  43.151   6.150
 7803POPC   GL244426  42.962  43.150   6.150
 7803POPC   C1A44427  43.150  43.100   6.450
 7803POPC   D2A44428  43.079  43.102   6.750
 7803POPC   C3A44429  43.107  43.076   7.050
 7803POPC   C4A44430  43.069  43.099   7.350
 7803POPC   C1B44431  42.867  43.098   6.450
 7803POPC   C2B44432  42.886  43.096   6.750
 7803POPC   C3B44433  42.904  43.078   7.050
 7803POPC   C4B44434  42.837  43.062   7.350
 7804POPC   NC344435  26.832  25.304   5.550
 7804POPC   PO444436  26.814  25.311   5.850
 7804POPC   GL144437  26.776  25.310   6.150
 7804POPC   GL244438  26.656  25.247   6.150
 7804POPC   C1A44439  26.770  25.313   6.450
 7804POPC   D2A44440  26.817  25.262   6.750
 7804POPC   C3A44441  26.847  25.236   7.050
 7804POPC   C4A44442  26.814  25.266   7.350
 7804POPC   C1B44443  26.545  25.165   6.450
 7804POPC   C2B44444  26.588  25.163   6.750
 7804POPC   C3B44445  26.610  25.170   7.050
 7804POPC   C4B44446  26.579  25.141   7.350
 7805POPC   NC344447  40.740  34.557   5.550
 7805POPC   PO444448  40.809  34.532   5.850
 7805POPC   GL144449  40.811  34.606   6.150
 7805POPC   GL244450  40.746  34.477   6.150
 7805POPC   C1A44451  40.810  34.594   6.450
 7805POPC   D2A44452  40.795  34.548   6.750
 7805POPC   C3A44453  40.787  34.551   7.050
 7805POPC   C4A44454  40.810  34.611   7.350
 7805POPC   C1B44455  40.733  34.286   6.450
 7805POPC   C2B44456  40.722  34.372   6.750
 7805POPC   C3B44457  40.717  34.369   7.050
 7805POPC   C4B44458  40.788  34.307   7.350
 7806POPC   NC344459  17.488  42.328   5.550
 7806POPC   PO444460  17.469  42.294   5.850
 7806POPC   GL144461  17.555  42.308   6.150
 7806POPC   GL244462  17.638  42.370   6.150
 7806POPC   C1A44463  17.530  42.293   6.450
 7806POPC   D2A44464  17.473  42.326   6.750
 7806POPC   C3A44465  17.478  42.369   7.050
 7806POPC   C4A44466  17.526  42.339   7.350
 7806POPC   C1B44467  17.739  42.358   6.450
 7806POPC   C2B44468  17.767  42.403   6.750
 7806POPC   C3B44469  17.742  42.336   7.050
 7806POPC   C4B44470  17.749  42.368   7.350
 7807POPC   NC344471   0.484  22.201   5.550
 7807POPC   PO444472   0.438  22.192   5.850
 7807POPC   GL144473   0.480  22.143   6.150
 7807POPC   GL244474   0.568  22.278   6.150
 7807POPC   C1A44475   0.480  22.128   6.450
 7807POPC   D2A44476   0.415  22.118   6.750
 7807POPC   C3A44477   0.392  22.172   7.050
 7807POPC   C4A44478   0.425  22.175   7.350
 7807POPC   C1B44479   0.654  22.275   6.450
 7807POPC   C2B44480   0.649  22.353   6.750
 7807POPC   C3B44481   0.669  22.335   7.050
 7807POPC   C4B44482   0.643  22.321   7.350
 7808POPC   NC344483  26.820  24.534   5.550
 7808POPC   PO444484  26.781  24.464   5.850
 7808POPC   GL144485  26.833  24.442   6.150
 7808POPC   GL244486  26.772  24.386   6.150
 7808POPC   C1A44487  26.815  24.508   6.450
 7808POPC   D2A44488  26.855  24.468   6.750
 7808POPC   C3A44489  26.778  24.467   7.050
 7808POPC   C4A44490  26.783  24.537   7.350
 7808POPC   C1B44491  26.782  24.229   6.450
 7808POPC   C2B44492  26.782  24.274   6.750
 7808POPC   C3B44493  26.801  24.272   7.050
 7808POPC   C4B44494  26.860  24.262   7.350
 7809POPC   NC344495  22.129  26.787   5.550
 7809POPC   PO444496  22.169  26.772   5.850
 7809POPC   GL144497  22.144  26.768   6.150
 7809POPC   GL244498  22.115  26.852   6.150
 7809POPC   C1A44499  22.210  26.810   6.450
 7809POPC   D2A44500  22.152  26.774   6.750
 7809POPC   C3A44501  22.209  26.780   7.050
 7809POPC   C4A44502  22.132  26.838   7.350
 7809POPC   C1B44503  21.957  27.021   6.450
 7809POPC   C2B44504  21.948  27.015   6.750
 7809POPC   C3B44505  21.929  26.943   7.050
 7809POPC   C4B44506  21.988  27.023   7.350
 7810POPC   NC344507  40.036  33.050   5.550
 7810POPC   PO444508  39.980  33.043   5.850
 7810POPC   GL144509  39.980  32.987   6.150
 7810POPC   GL244510  39.903  33.092   6.150
 7810POPC   C1A44511  39.960  33.031   6.450
 7810POPC   D2A44512  40.014  33.069   6.750
 7810POPC   C3A44513  40.009  32.998   7.050
 7810POPC   C4A44514  40.023  33.071   7.350
 7810POPC   C1B44515  39.889  33.277   6.450
 7810POPC   C2B44516  39.942  33.221   6.750
 7810POPC   C3B44517  39.940  33.283   7.050
 7810POPC   C4B44518  39.889  33.282   7.350
 7811POPC   NC344519  41.581  20.611   5.550
 7811POPC   PO444520  41.576  20.563   5.850
 7811POPC   GL144521  41.586  20.643   6.150
 7811POPC   GL244522  41.517  20.730   6.150
 7811POPC   C1A44523  41.551  20.610   6.450
 7811POPC   D2A44524  41.592  20.596   6.750
 7811POPC   C3A44525  41.566  20.587   7.050
 7811POPC   C4A44526  41.538  20.616   7.350
 7811POPC   C1B44527  41.546  20.843   6.450
 7811POPC   C2B44528  41.546  20.865   6.750
 7811POPC   C3B44529  41.565  20.857   7.050
 7811POPC   C4B44530  41.577  20.847   7.350
 7812POPC   NC344531  37.702  35.390   5.550
 7812POPC   PO444532  37.693  35.376   5.850
 7812POPC   GL144533  37.629  35.336   6.150
 7812POPC   GL244534  37.743  35.279   6.150
 7812POPC   C1A44535  37.655  35.346   6.450
 7812POPC   D2A44536  37.644  35.304   6.750
 7812POPC   C3A44537  37.702  35.352   7.050
 7812POPC   C4A44538  37.729  35.360   7.350
 7812POPC   C1B44539  37.858  35.207   6.450
 7812POPC   C2B44540  37.901  35.175   6.750
 7812POPC   C3B44541  37.912  35.200   7.050
 7812POPC   C4B44542  37.836  35.229   7.350
 7813POPC   NC344543   5.830  39.987   5.550
 7813POPC   PO444544   5.842  39.999   5.850
 7813POPC   GL144545   5.819  40.004   6.150
 7813POPC   GL244546   6.007  40.034   6.150
 7813POPC   C1A44547   5.904  40.028   6.450
 7813POPC   D2A44548   5.829  39.998   6.750
 7813POPC   C3A44549   5.859  39.979   7.050
 7813POPC   C4A44550   5.857  40.052   7.350
 7813POPC   C1B44551   6.165  40.057   6.450
 7813POPC   C2B44552   6.115  40.054   6.750
 7813POPC   C3B44553   6.162  40.076   7.050
 7813POPC   C4B44554   6.151  40.012   7.350
 7814POPC   NC344555  33.761  26.045   5.550
 7814POPC   PO444556  33.827  26.066   5.850
 7814POPC   GL144557  33.814  26.089   6.150
 7814POPC   GL244558  33.825  25.966   6.150
 7814POPC   C1A44559  33.820  26.052   6.450
 7814POPC   D2A44560  33.809  26.066   6.750
 7814POPC   C3A44561  33.849  26.041   7.050
 7814POPC   C4A44562  33.847  25.992   7.350
 7814POPC   C1B44563  33.865  25.790   6.450
 7814POPC   C2B44564  33.833  25.848   6.750
 7814POPC   C3B44565  33.912  25.818   7.050
 7814POPC   C4B44566  33.822  25.796   7.350
 7815POPC   NC344567  16.740  40.792   5.550
 7815POPC   PO444568  16.748  40.738   5.850
 7815POPC   GL144569  16.714  40.768   6.150
 7815POPC   GL244570  16.664  40.871   6.150
 7815POPC   C1A44571  16.725  40.830   6.450
 7815POPC   D2A44572  16.694  40.741   6.750
 7815POPC   C3A44573  16.743  40.782   7.050
 7815POPC   C4A44574  16.694  40.803   7.350
 7815POPC   C1B44575  16.552  40.966   6.450
 7815POPC   C2B44576  16.495  40.898   6.750
 7815POPC   C3B44577  16.559  40.914   7.050
 7815POPC   C4B44578  16.486  40.911   7.350
 7816POPC   NC344579  29.891  43.928   5.550
 7816POPC   PO444580  29.955  43.843   5.850
 7816POPC   GL144581  29.920  43.896   6.150
 7816POPC   GL244582  29.986  44.039   6.150
 7816POPC   C1A44583  29.926  43.875   6.450
 7816POPC   D2A44584  29.944  43.932   6.750
 7816POPC   C3A44585  29.958  43.847   7.050
 7816POPC   C4A44586  29.924  43.912   7.350
 7816POPC   C1B44587  29.957  44.167   6.450
 7816POPC   C2B44588  29.964  44.154   6.750
 7816POPC   C3B44589  29.977  44.160   7.050
 7816POPC   C4B44590  30.006  44.094   7.350
 7817POPC   NC344591   9.766  32.219   5.550
 7817POPC   PO444592   9.741  32.264   5.850
 7817POPC   GL144593   9.727  32.297   6.150
 7817POPC   GL244594   9.841  32.352   6.150
 7817POPC   C1A44595   9.709  32.291   6.450
 7817POPC   D2A44596   9.796  32.278   6.750
 7817POPC   C3A44597   9.704  32.221   7.050
 7817POPC   C4A44598   9.734  32.241   7.350
 7817POPC   C1B44599   9.984  32.386   6.450
 7817POPC   C2B44600   9.990  32.387   6.750
 7817POPC   C3B44601   9.914  32.371   7.050
 7817POPC   C4B44602   9.930  32.437   7.350
 7818POPC   NC344603   8.998   2.814   5.550
 7818POPC   PO444604   8.962   2.761   5.850
 7818POPC   GL144605   8.993   2.769   6.150
 7818POPC   GL244606   9.094   2.670   6.150
 7818POPC   C1A44607   8.977   2.771   6.450
 7818POPC   D2A44608   8.971   2.786   6.750
 7818POPC   C3A44609   8.984   2.744   7.050
 7818POPC   C4A44610   8.975   2.814   7.350
 7818POPC   C1B44611   9.153   2.678   6.450
 7818POPC   C2B44612   9.205   2.663   6.750
 7818POPC   C3B44613   9.167   2.669   7.050
 7818POPC   C4B44614   9.179   2.669   7.350
 7819POPC   NC344615  12.107  31.447   5.550
 7819POPC   PO444616  12.110  31.512   5.850
 7819POPC   GL144617  12.072  31.454   6.150
 7819POPC   GL244618  11.981  31.437   6.150
 7819POPC   C1A44619  12.084  31.504   6.450
 7819POPC   D2A44620  12.082  31.494   6.750
 7819POPC   C3A44621  12.093  31.452   7.050
 7819POPC   C4A44622  12.036  31.478   7.350
 7819POPC   C1B44623  11.843  31.383   6.450
 7819POPC   C2B44624  11.823  31.330   6.750
 7819POPC   C3B44625  11.863  31.359   7.050
 7819POPC   C4B44626  11.839  31.331   7.350
 7820POPC   NC344627  26.038  43.149   5.550
 7820POPC   PO444628  26.000  43.133   5.850
 7820POPC   GL144629  26.016  43.140   6.150
 7820POPC   GL244630  25.945  43.030   6.150
 7820POPC   C1A44631  26.034  43.149   6.450
 7820POPC   D2A44632  26.065  43.116   6.750
 7820POPC   C3A44633  26.072  43.128   7.050
 7820POPC   C4A44634  26.016  43.136   7.350
 7820POPC   C1B44635  25.765  43.006   6.450
 7820POPC   C2B44636  25.834  43.002   6.750
 7820POPC   C3B44637  25.771  43.037   7.050
 7820POPC   C4B44638  25.807  43.005   7.350
 7821POPC   NC344639  11.348   5.054   5.550
 7821POPC   PO444640  11.293   5.105   5.850
 7821POPC   GL144641  11.255   5.064   6.150
 7821POPC   GL244642  11.429   5.161   6.150
 7821POPC   C1A44643  11.255   5.097   6.450
 7821POPC   D2A44644  11.340   5.058   6.750
 7821POPC   C3A44645  11.336   5.140   7.050
 7821POPC   C4A44646  11.330   5.080   7.350
 7821POPC   C1B44647  11.499   5.140   6.450
 7821POPC   C2B44648  11.587   5.144   6.750
 7821POPC   C3B44649  11.524   5.115   7.050
 7821POPC   C4B44650  11.557   5.132   7.350
 7822POPC   NC344651  23.747   5.139   5.550
 7822POPC   PO444652  23.707   5.102   5.850
 7822POPC   GL144653  23.710   5.075   6.150
 7822POPC   GL244654  23.745   4.954   6.150
 7822POPC   C1A44655  23.677   5.119   6.450
 7822POPC   D2A44656  23.699   5.137   6.750
 7822POPC   C3A44657  23.704   5.082   7.050
 7822POPC   C4A44658  23.763   5.116   7.350
 7822POPC   C1B44659  23.679   4.802   6.450
 7822POPC   C2B44660  23.696   4.878   6.750
 7822POPC   C3B44661  23.742   4.807   7.050
 7822POPC   C4B44662  23.719   4.817   7.350
 7823POPC   NC344663  30.745   1.192   5.550
 7823POPC   PO444664  30.737   1.242   5.850
 7823POPC   GL144665  30.699   1.207   6.150
 7823POPC   GL244666  30.655   1.327   6.150
 7823POPC   C1A44667  30.709   1.228   6.450
 7823POPC   D2A44668  30.743   1.232   6.750
 7823POPC   C3A44669  30.670   1.176   7.050
 7823POPC   C4A44670  30.666   1.224   7.350
 7823POPC   C1B44671  30.602   1.397   6.450
 7823POPC   C2B44672  30.555   1.476   6.750
 7823POPC   C3B44673  30.526   1.412   7.050
 7823POPC   C4B44674  30.608   1.415   7.350
 7824POPC   NC344675  17.495  37.669   5.550
 7824POPC   PO444676  17.506  37.721   5.850
 7824POPC   GL144677  17.534  37.680   6.150
 7824POPC   GL244678  17.415  37.753   6.150
 7824POPC   C1A44679  17.521  37.703   6.450
 7824POPC   D2A44680  17.482  37.690   6.750
 7824POPC   C3A44681  17.541  37.688   7.050
 7824POPC   C4A44682  17.552  37.689   7.350
 7824POPC   C1B44683  17.368  37.907   6.450
 7824POPC   C2B44684  17.362  37.875   6.750
 7824POPC   C3B44685  17.305  37.918   7.050
 7824POPC   C4B44686  17.308  37.870   7.350
 7825POPC   NC344687  32.995  36.132   5.550
 7825POPC   PO444688  32.990  36.124   5.850
 7825POPC   GL144689  33.030  36.091   6.150
 7825POPC   GL244690  32.986  36.275   6.150
 7825POPC   C1A44691  33.046  36.131   6.450
 7825POPC   D2A44692  33.036  36.177   6.750
 7825POPC   C3A44693  33.066  36.132   7.050
 7825POPC   C4A44694  32.995  36.150   7.350
 7825POPC   C1B44695  32.937  36.323   6.450
 7825POPC   C2B44696  32.858  36.388   6.750
 7825POPC   C3B44697  32.928  36.372   7.050
 7825POPC   C4B44698  32.853  36.308   7.350
 7826POPC   NC344699  36.891  19.811   5.550
 7826POPC   PO444700  36.904  19.804   5.850
 7826POPC   GL144701  36.949  19.840   6.150
 7826POPC   GL244702  36.825  19.674   6.150
 7826POPC   C1A44703  36.911  19.850   6.450
 7826POPC   D2A44704  36.866  19.804   6.750
 7826POPC   C3A44705  36.874  19.806   7.050
 7826POPC   C4A44706  36.886  19.844   7.350
 7826POPC   C1B44707  36.846  19.607   6.450
 7826POPC   C2B44708  36.828  19.625   6.750
 7826POPC   C3B44709  36.842  19.620   7.050
 7826POPC   C4B44710  36.818  19.603   7.350
 7827POPC   NC344711   1.979   8.241   5.550
 7827POPC   PO444712   1.951   8.165   5.850
 7827POPC   GL144713   2.029   8.168   6.150
 7827POPC   GL244714   2.088   8.339   6.150
 7827POPC   C1A44715   1.984   8.228   6.450
 7827POPC   D2A44716   2.019   8.178   6.750
 7827POPC   C3A44717   1.971   8.160   7.050
 7827POPC   C4A44718   2.016   8.242   7.350
 7827POPC   C1B44719   2.092   8.417   6.450
 7827POPC   C2B44720   2.084   8.420   6.750
 7827POPC   C3B44721   2.137   8.425   7.050
 7827POPC   C4B44722   2.164   8.400   7.350
 7828POPC   NC344723   0.411   9.772   5.550
 7828POPC   PO444724   0.487   9.784   5.850
 7828POPC   GL144725   0.449   9.771   6.150
 7828POPC   GL244726   0.591   9.696   6.150
 7828POPC   C1A44727   0.436   9.737   6.450
 7828POPC   D2A44728   0.398   9.739   6.750
 7828POPC   C3A44729   0.444   9.775   7.050
 7828POPC   C4A44730   0.445   9.778   7.350
 7828POPC   C1B44731   0.649   9.631   6.450
 7828POPC   C2B44732   0.614   9.632   6.750
 7828POPC   C3B44733   0.638   9.652   7.050
 7828POPC   C4B44734   0.687   9.600   7.350
 7829POPC   NC344735  22.180  41.587   5.550
 7829POPC   PO444736  22.171  41.555   5.850
 7829POPC   GL144737  22.196  41.563   6.150
 7829POPC   GL244738  22.195  41.420   6.150
 7829POPC   C1A44739  22.127  41.573   6.450
 7829POPC   D2A44740  22.208  41.587   6.750
 7829POPC   C3A44741  22.170  41.589   7.050
 7829POPC   C4A44742  22.207  41.530   7.350
 7829POPC   C1B44743  22.127  41.272   6.450
 7829POPC   C2B44744  22.169  41.325   6.750
 7829POPC   C3B44745  22.150  41.265   7.050
 7829POPC   C4B44746  22.192  41.309   7.350
 7830POPC   NC344747  15.970   0.417   5.550
 7830POPC   PO444748  15.959   0.470   5.850
 7830POPC   GL144749  15.970   0.428   6.150
 7830POPC   GL244750  16.049   0.374   6.150
 7830POPC   C1A44751  15.985   0.395   6.450
 7830POPC   D2A44752  15.985   0.441   6.750
 7830POPC   C3A44753  15.963   0.405   7.050
 7830POPC   C4A44754  15.952   0.461   7.350
 7830POPC   C1B44755  16.159   0.349   6.450
 7830POPC   C2B44756  16.249   0.420   6.750
 7830POPC   C3B44757  16.243   0.348   7.050
 7830POPC   C4B44758  16.208   0.361   7.350
 7831POPC   NC344759  23.687  17.499   5.550
 7831POPC   PO444760  23.705  17.477   5.850
 7831POPC   GL144761  23.749  17.507   6.150
 7831POPC   GL244762  23.800  17.405   6.150
 7831POPC   C1A44763  23.674  17.507   6.450
 7831POPC   D2A44764  23.691  17.515   6.750
 7831POPC   C3A44765  23.712  17.541   7.050
 7831POPC   C4A44766  23.674  17.494   7.350
 7831POPC   C1B44767  23.783  17.290   6.450
 7831POPC   C2B44768  23.788  17.265   6.750
 7831POPC   C3B44769  23.854  17.278   7.050
 7831POPC   C4B44770  23.863  17.252   7.350
 7832POPC   NC344771  36.929  30.697   5.550
 7832POPC   PO444772  36.898  30.723   5.850
 7832POPC   GL144773  36.917  30.715   6.150
 7832POPC   GL244774  36.893  30.825   6.150
 7832POPC   C1A44775  36.940  30.673   6.450
 7832POPC   D2A44776  36.913  30.653   6.750
 7832POPC   C3A44777  36.895  30.655   7.050
 7832POPC   C4A44778  36.856  30.673   7.350
 7832POPC   C1B44779  36.838  30.987   6.450
 7832POPC   C2B44780  36.866  30.904   6.750
 7832POPC   C3B44781  36.857  30.940   7.050
 7832POPC   C4B44782  36.835  30.992   7.350
 7833POPC   NC344783  12.880  15.963   5.550
 7833POPC   PO444784  12.826  15.910   5.850
 7833POPC   GL144785  12.848  15.918   6.150
 7833POPC   GL244786  12.719  16.024   6.150
 7833POPC   C1A44787  12.845  15.967   6.450
 7833POPC   D2A44788  12.848  15.954   6.750
 7833POPC   C3A44789  12.891  15.914   7.050
 7833POPC   C4A44790  12.896  15.909   7.350
 7833POPC   C1B44791  12.642  16.086   6.450
 7833POPC   C2B44792  12.667  16.094   6.750
 7833POPC   C3B44793  12.656  16.078   7.050
 7833POPC   C4B44794  12.651  16.128   7.350
 7834POPC   NC344795   1.184  16.726   5.550
 7834POPC   PO444796   1.194  16.778   5.850
 7834POPC   GL144797   1.167  16.689   6.150
 7834POPC   GL244798   1.126  16.691   6.150
 7834POPC   C1A44799   1.191  16.743   6.450
 7834POPC   D2A44800   1.218  16.734   6.750
 7834POPC   C3A44801   1.178  16.709   7.050
 7834POPC   C4A44802   1.192  16.771   7.350
 7834POPC   C1B44803   1.037  16.604   6.450
 7834POPC   C2B44804   1.062  16.538   6.750
 7834POPC   C3B44805   1.021  16.558   7.050
 7834POPC   C4B44806   1.018  16.578   7.350
 7835POPC   NC344807  35.307  12.880   5.550
 7835POPC   PO444808  35.344  12.868   5.850
 7835POPC   GL144809  35.398  12.854   6.150
 7835POPC   GL244810  35.217  12.787   6.150
 7835POPC   C1A44811  35.360  12.828   6.450
 7835POPC   D2A44812  35.399  12.842   6.750
 7835POPC   C3A44813  35.320  12.833   7.050
 7835POPC   C4A44814  35.307  12.888   7.350
 7835POPC   C1B44815  35.067  12.818   6.450
 7835POPC   C2B44816  35.060  12.810   6.750
 7835POPC   C3B44817  35.074  12.834   7.050
 7835POPC   C4B44818  35.141  12.858   7.350
 7836POPC   NC344819   6.637  34.536   5.550
 7836POPC   PO444820   6.675  34.565   5.850
 7836POPC   GL144821   6.633  34.615   6.150
 7836POPC   GL244822   6.765  34.571   6.150
 7836POPC   C1A44823   6.671  34.586   6.450
 7836POPC   D2A44824   6.599  34.570   6.750
 7836POPC   C3A44825   6.691  34.534   7.050
 7836POPC   C4A44826   6.649  34.552   7.350
 7836POPC   C1B44827   6.932  34.635   6.450
 7836POPC   C2B44828   6.870  34.623   6.750
 7836POPC   C3B44829   6.922  34.682   7.050
 7836POPC   C4B44830   6.875  34.663   7.350
 7837POPC   NC344831  32.208  12.069   5.550
 7837POPC   PO444832  32.278  12.074   5.850
 7837POPC   GL144833  32.298  12.029   6.150
 7837POPC   GL244834  32.236  11.913   6.150
 7837POPC   C1A44835  32.210  12.110   6.450
 7837POPC   D2A44836  32.240  12.119   6.750
 7837POPC   C3A44837  32.242  12.028   7.050
 7837POPC   C4A44838  32.223  12.070   7.350
 7837POPC   C1B44839  32.184  11.849   6.450
 7837POPC   C2B44840  32.210  11.814   6.750
 7837POPC   C3B44841  32.183  11.843   7.050
 7837POPC   C4B44842  32.218  11.835   7.350
 7838POPC   NC344843  34.623  14.425   5.550
 7838POPC   PO444844  34.572  14.362   5.850
 7838POPC   GL144845  34.542  14.364   6.150
 7838POPC   GL244846  34.451  14.467   6.150
 7838POPC   C1A44847  34.592  14.357   6.450
 7838POPC   D2A44848  34.573  14.443   6.750
 7838POPC   C3A44849  34.556  14.391   7.050
 7838POPC   C4A44850  34.538  14.447   7.350
 7838POPC   C1B44851  34.391  14.595   6.450
 7838POPC   C2B44852  34.405  14.569   6.750
 7838POPC   C3B44853  34.377  14.567   7.050
 7838POPC   C4B44854  34.350  14.604   7.350
 7839POPC   NC344855  12.816  29.135   5.550
 7839POPC   PO444856  12.833  29.103   5.850
 7839POPC   GL144857  12.879  29.138   6.150
 7839POPC   GL244858  12.770  29.279   6.150
 7839POPC   C1A44859  12.802  29.105   6.450
 7839POPC   D2A44860  12.886  29.128   6.750
 7839POPC   C3A44861  12.823  29.172   7.050
 7839POPC   C4A44862  12.900  29.143   7.350
 7839POPC   C1B44863  12.771  29.374   6.450
 7839POPC   C2B44864  12.682  29.376   6.750
 7839POPC   C3B44865  12.718  29.341   7.050
 7839POPC   C4B44866  12.698  29.362   7.350
 7840POPC   NC344867  38.487  26.010   5.550
 7840POPC   PO444868  38.422  26.087   5.850
 7840POPC   GL144869  38.406  26.042   6.150
 7840POPC   GL244870  38.385  26.195   6.150
 7840POPC   C1A44871  38.451  26.050   6.450
 7840POPC   D2A44872  38.442  26.036   6.750
 7840POPC   C3A44873  38.411  26.056   7.050
 7840POPC   C4A44874  38.445  26.087   7.350
 7840POPC   C1B44875  38.383  26.253   6.450
 7840POPC   C2B44876  38.353  26.297   6.750
 7840POPC   C3B44877  38.376  26.288   7.050
 7840POPC   C4B44878  38.342  26.268   7.350
 7841POPC   NC344879   3.579  43.123   5.550
 7841POPC   PO444880   3.586  43.112   5.850
 7841POPC   GL144881   3.532  43.109   6.150
 7841POPC   GL244882   3.569  43.215   6.150
 7841POPC   C1A44883   3.574  43.112   6.450
 7841POPC   D2A44884   3.581  43.091   6.750
 7841POPC   C3A44885   3.568  43.141   7.050
 7841POPC   C4A44886   3.522  43.083   7.350
 7841POPC   C1B44887   3.734  43.324   6.450
 7841POPC   C2B44888   3.715  43.299   6.750
 7841POPC   C3B44889   3.725  43.350   7.050
 7841POPC   C4B44890   3.730  43.280   7.350
 7842POPC   NC344891   6.637   5.882   5.550
 7842POPC   PO444892   6.637   5.871   5.850
 7842POPC   GL144893   6.690   5.871   6.150
 7842POPC   GL244894   6.549   5.848   6.150
 7842POPC   C1A44895   6.682   5.826   6.450
 7842POPC   D2A44896   6.675   5.852   6.750
 7842POPC   C3A44897   6.633   5.858   7.050
 7842POPC   C4A44898   6.670   5.904   7.350
 7842POPC   C1B44899   6.441   5.785   6.450
 7842POPC   C2B44900   6.375   5.762   6.750
 7842POPC   C3B44901   6.420   5.799   7.050
 7842POPC   C4B44902   6.407   5.814   7.350
 7843POPC   NC344903  23.753   6.617   5.550
 7843POPC   PO444904  23.729   6.692   5.850
 7843POPC   GL144905  23.669   6.634   6.150
 7843POPC   GL244906  23.610   6.582   6.150
 7843POPC   C1A44907  23.756   6.608   6.450
 7843POPC   D2A44908  23.709   6.636   6.750
 7843POPC   C3A44909  23.708   6.669   7.050
 7843POPC   C4A44910  23.668   6.656   7.350
 7843POPC   C1B44911  23.440   6.604   6.450
 7843POPC   C2B44912  23.442   6.519   6.750
 7843POPC   C3B44913  23.460   6.517   7.050
 7843POPC   C4B44914  23.519   6.592   7.350
 7844POPC   NC344915  13.644  35.308   5.550
 7844POPC   PO444916  13.654  35.341   5.850
 7844POPC   GL144917  13.587  35.349   6.150
 7844POPC   GL244918  13.696  35.262   6.150
 7844POPC   C1A44919  13.642  35.362   6.450
 7844POPC   D2A44920  13.644  35.333   6.750
 7844POPC   C3A44921  13.584  35.341   7.050
 7844POPC   C4A44922  13.672  35.320   7.350
 7844POPC   C1B44923  13.815  35.167   6.450
 7844POPC   C2B44924  13.817  35.156   6.750
 7844POPC   C3B44925  13.803  35.179   7.050
 7844POPC   C4B44926  13.728  35.180   7.350
 7845POPC   NC344927  16.747   9.729   5.550
 7845POPC   PO444928  16.759   9.788   5.850
 7845POPC   GL144929  16.754   9.757   6.150
 7845POPC   GL244930  16.638   9.826   6.150
 7845POPC   C1A44931  16.713   9.759   6.450
 7845POPC   D2A44932  16.733   9.771   6.750
 7845POPC   C3A44933  16.754   9.720   7.050
 7845POPC   C4A44934  16.774   9.747   7.350
 7845POPC   C1B44935  16.468   9.861   6.450
 7845POPC   C2B44936  16.504   9.774   6.750
 7845POPC   C3B44937  16.512   9.821   7.050
 7845POPC   C4B44938  16.461   9.794   7.350
 7846POPC   NC344939  33.014  32.204   5.550
 7846POPC   PO444940  33.008  32.230   5.850
 7846POPC   GL144941  33.022  32.228   6.150
 7846POPC   GL244942  33.122  32.280   6.150
 7846POPC   C1A44943  33.067  32.241   6.450
 7846POPC   D2A44944  32.997  32.205   6.750
 7846POPC   C3A44945  32.976  32.270   7.050
 7846POPC   C4A44946  33.053  32.206   7.350
 7846POPC   C1B44947  33.276  32.400   6.450
 7846POPC   C2B44948  33.248  32.400   6.750
 7846POPC   C3B44949  33.279  32.402   7.050
 7846POPC   C4B44950  33.278  32.333   7.350
 7847POPC   NC344951  27.633   9.707   5.550
 7847POPC   PO444952  27.623   9.727   5.850
 7847POPC   GL144953  27.626   9.798   6.150
 7847POPC   GL244954  27.482   9.866   6.150
 7847POPC   C1A44955  27.582   9.740   6.450
 7847POPC   D2A44956  27.569   9.776   6.750
 7847POPC   C3A44957  27.639   9.709   7.050
 7847POPC   C4A44958  27.579   9.730   7.350
 7847POPC   C1B44959  27.404   9.909   6.450
 7847POPC   C2B44960  27.403   9.984   6.750
 7847POPC   C3B44961  27.478   9.901   7.050
 7847POPC   C4B44962  27.420   9.962   7.350
 7848POPC   NC344963  19.044   7.402   5.550
 7848POPC   PO444964  19.030   7.446   5.850
 7848POPC   GL144965  19.107   7.371   6.150
 7848POPC   GL244966  19.121   7.318   6.150
 7848POPC   C1A44967  19.100   7.392   6.450
 7848POPC   D2A44968  19.046   7.383   6.750
 7848POPC   C3A44969  19.028   7.392   7.050
 7848POPC   C4A44970  19.054   7.427   7.350
 7848POPC   C1B44971  19.244   7.182   6.450
 7848POPC   C2B44972  19.181   7.225   6.750
 7848POPC   C3B44973  19.264   7.190   7.050
 7848POPC   C4B44974  19.197   7.215   7.350
 7849POPC   NC344975  42.294  37.631   5.550
 7849POPC   PO444976  42.312  37.712   5.850
 7849POPC   GL144977  42.301  37.703   6.150
 7849POPC   GL244978  42.399  37.593   6.150
 7849POPC   C1A44979  42.363  37.645   6.450
 7849POPC   D2A44980  42.333  37.639   6.750
 7849POPC   C3A44981  42.308  37.640   7.050
 7849POPC   C4A44982  42.360  37.648   7.350
 7849POPC   C1B44983  42.548  37.480   6.450
 7849POPC   C2B44984  42.539  37.504   6.750
 7849POPC   C3B44985  42.540  37.473   7.050
 7849POPC   C4B44986  42.536  37.467   7.350
 7850POPC   NC344987  11.255   0.444   5.550
 7850POPC   PO444988  11.282   0.449   5.850
 7850POPC   GL144989  11.300   0.475   6.150
 7850POPC   GL244990  11.282   0.556   6.150
 7850POPC   C1A44991  11.253   0.478   6.450
 7850POPC   D2A44992  11.321   0.476   6.750
 7850POPC   C3A44993  11.318   0.479   7.050
 7850POPC   C4A44994  11.292   0.481   7.350
 7850POPC   C1B44995  11.236   0.645   6.450
 7850POPC   C2B44996  11.244   0.705   6.750
 7850POPC   C3B44997  11.232   0.712   7.050
 7850POPC   C4B44998  11.276   0.631   7.350
 7851POPC   NC344999  12.820  40.047   5.550
 7851POPC   PO445000  12.898  40.005   5.850
 7851POPC   GL145001  12.827  40.056   6.150
 7851POPC   GL245002  12.927  39.880   6.150
 7851POPC   C1A45003  12.898  40.010   6.450
 7851POPC   D2A45004  12.879  40.032   6.750
 7851POPC   C3A45005  12.855  39.980   7.050
 7851POPC   C4A45006  12.899  39.979   7.350
 7851POPC   C1B45007  12.989  39.808   6.450
 7851POPC   C2B45008  13.002  39.752   6.750
 7851POPC   C3B45009  12.942  39.778   7.050
 7851POPC   C4B45010  12.988  39.833   7.350
 7852POPC   NC345011  18.282  28.367   5.550
 7852POPC   PO445012  18.308  28.394   5.850
 7852POPC   GL145013  18.260  28.372   6.150
 7852POPC   GL245014  18.163  28.388   6.150
 7852POPC   C1A45015  18.235  28.360   6.450
 7852POPC   D2A45016  18.240  28.382   6.750
 7852POPC   C3A45017  18.235  28.336   7.050
 7852POPC   C4A45018  18.259  28.385   7.350
 7852POPC   C1B45019  18.066  28.377   6.450
 7852POPC   C2B45020  18.078  28.363   6.750
 7852POPC   C3B45021  18.050  28.362   7.050
 7852POPC   C4B45022  18.050  28.382   7.350
 7853POPC   NC345023  17.458  13.676   5.550
 7853POPC   PO445024  17.458  13.639   5.850
 7853POPC   GL145025  17.555  13.582   6.150
 7853POPC   GL245026  17.395  13.675   6.150
 7853POPC   C1A45027  17.550  13.615   6.450
 7853POPC   D2A45028  17.527  13.608   6.750
 7853POPC   C3A45029  17.462  13.632   7.050
 7853POPC   C4A45030  17.533  13.592   7.350
 7853POPC   C1B45031  17.281  13.772   6.450
 7853POPC   C2B45032  17.280  13.792   6.750
 7853POPC   C3B45033  17.292  13.742   7.050
 7853POPC   C4B45034  17.313  13.740   7.350
 7854POPC   NC345035  43.857  32.289   5.550
 7854POPC   PO445036  43.869  32.232   5.850
 7854POPC   GL145037  43.910  32.268   6.150
 7854POPC   GL245038  44.022  32.221   6.150
 7854POPC   C1A45039  43.912  32.281   6.450
 7854POPC   D2A45040  43.875  32.201   6.750
 7854POPC   C3A45041  43.868  32.275   7.050
 7854POPC   C4A45042  43.886  32.295   7.350
 7854POPC   C1B45043  44.089  32.259   6.450
 7854POPC   C2B45044  44.140  32.256   6.750
 7854POPC   C3B45045  44.113  32.279   7.050
 7854POPC   C4B45046  44.092  32.287   7.350
 7855POPC   NC345047  18.296  40.013   5.550
 7855POPC   PO445048  18.282  39.997   5.850
 7855POPC   GL145049  18.302  39.972   6.150
 7855POPC   GL245050  18.298  40.137   6.150
 7855POPC   C1A45051  18.285  40.052   6.450
 7855POPC   D2A45052  18.236  39.982   6.750
 7855POPC   C3A45053  18.245  40.004   7.050
 7855POPC   C4A45054  18.272  39.997   7.350
 7855POPC   C1B45055  18.410  40.230   6.450
 7855POPC   C2B45056  18.390  40.237   6.750
 7855POPC   C3B45057  18.416  40.184   7.050
 7855POPC   C4B45058  18.371  40.251   7.350
 7856POPC   NC345059   0.479   3.578   5.550
 7856POPC   PO445060   0.447   3.503   5.850
 7856POPC   GL145061   0.408   3.513   6.150
 7856POPC   GL245062   0.506   3.460   6.150
 7856POPC   C1A45063   0.457   3.531   6.450
 7856POPC   D2A45064   0.462   3.559   6.750
 7856POPC   C3A45065   0.456   3.501   7.050
 7856POPC   C4A45066   0.485   3.577   7.350
 7856POPC   C1B45067   0.490   3.311   6.450
 7856POPC   C2B45068   0.586   3.298   6.750
 7856POPC   C3B45069   0.496   3.325   7.050
 7856POPC   C4B45070   0.533   3.309   7.350
 7857POPC   NC345071   4.319  23.763   5.550
 7857POPC   PO445072   4.352  23.711   5.850
 7857POPC   GL145073   4.288  23.758   6.150
 7857POPC   GL245074   4.191  23.623   6.150
 7857POPC   C1A45075   4.350  23.745   6.450
 7857POPC   D2A45076   4.326  23.733   6.750
 7857POPC   C3A45077   4.366  23.752   7.050
 7857POPC   C4A45078   4.334  23.755   7.350
 7857POPC   C1B45079   4.145  23.579   6.450
 7857POPC   C2B45080   4.125  23.489   6.750
 7857POPC   C3B45081   4.179  23.523   7.050
 7857POPC   C4B45082   4.177  23.486   7.350
 7858POPC   NC345083  33.048  10.543   5.550
 7858POPC   PO445084  33.045  10.489   5.850
 7858POPC   GL145085  33.037  10.546   6.150
 7858POPC   GL245086  33.120  10.382   6.150
 7858POPC   C1A45087  33.033  10.568   6.450
 7858POPC   D2A45088  33.030  10.493   6.750
 7858POPC   C3A45089  33.001  10.479   7.050
 7858POPC   C4A45090  32.978  10.482   7.350
 7858POPC   C1B45091  33.150  10.278   6.450
 7858POPC   C2B45092  33.074  10.296   6.750
 7858POPC   C3B45093  33.146  10.290   7.050
 7858POPC   C4B45094  33.137  10.254   7.350
 7859POPC   NC345095  30.741  33.073   5.550
 7859POPC   PO445096  30.667  32.995   5.850
 7859POPC   GL145097  30.722  33.027   6.150
 7859POPC   GL245098  30.740  32.943   6.150
 7859POPC   C1A45099  30.669  33.060   6.450
 7859POPC   D2A45100  30.705  33.054   6.750
 7859POPC   C3A45101  30.742  33.009   7.050
 7859POPC   C4A45102  30.721  32.979   7.350
 7859POPC   C1B45103  30.815  32.826   6.450
 7859POPC   C2B45104  30.786  32.825   6.750
 7859POPC   C3B45105  30.839  32.826   7.050
 7859POPC   C4B45106  30.819  32.781   7.350
 7860POPC   NC345107  26.829  29.188   5.550
 7860POPC   PO445108  26.803  29.149   5.850
 7860POPC   GL145109  26.849  29.154   6.150
 7860POPC   GL245110  26.772  29.292   6.150
 7860POPC   C1A45111  26.855  29.105   6.450
 7860POPC   D2A45112  26.790  29.096   6.750
 7860POPC   C3A45113  26.853  29.113   7.050
 7860POPC   C4A45114  26.852  29.141   7.350
 7860POPC   C1B45115  26.625  29.370   6.450
 7860POPC   C2B45116  26.652  29.372   6.750
 7860POPC   C3B45117  26.672  29.376   7.050
 7860POPC   C4B45118  26.643  29.309   7.350
 7861POPC   NC345119  12.110  19.042   5.550
 7861POPC   PO445120  12.126  19.098   5.850
 7861POPC   GL145121  12.028  19.106   6.150
 7861POPC   GL245122  12.018  19.219   6.150
 7861POPC   C1A45123  12.106  19.017   6.450
 7861POPC   D2A45124  12.103  19.045   6.750
 7861POPC   C3A45125  12.114  19.080   7.050
 7861POPC   C4A45126  12.108  19.013   7.350
 7861POPC   C1B45127  12.024  19.303   6.450
 7861POPC   C2B45128  11.949  19.259   6.750
 7861POPC   C3B45129  11.980  19.327   7.050
 7861POPC   C4B45130  11.951  19.280   7.350
 7862POPC   NC345131  12.057  29.107   5.550
 7862POPC   PO445132  12.028  29.180   5.850
 7862POPC   GL145133  12.059  29.124   6.150
 7862POPC   GL245134  12.031  29.012   6.150
 7862POPC   C1A45135  12.074  29.194   6.450
 7862POPC   D2A45136  12.075  29.109   6.750
 7862POPC   C3A45137  12.056  29.134   7.050
 7862POPC   C4A45138  12.058  29.154   7.350
 7862POPC   C1B45139  11.934  28.917   6.450
 7862POPC   C2B45140  11.931  28.939   6.750
 7862POPC   C3B45141  11.954  28.945   7.050
 7862POPC   C4B45142  11.987  28.965   7.350
 7863POPC   NC345143  37.647   4.365   5.550
 7863POPC   PO445144  37.654   4.268   5.850
 7863POPC   GL145145  37.633   4.285   6.150
 7863POPC   GL245146  37.581   4.378   6.150
 7863POPC   C1A45147  37.655   4.295   6.450
 7863POPC   D2A45148  37.716   4.332   6.750
 7863POPC   C3A45149  37.654   4.286   7.050
 7863POPC   C4A45150  37.691   4.367   7.350
 7863POPC   C1B45151  37.469   4.404   6.450
 7863POPC   C2B45152  37.472   4.410   6.750
 7863POPC   C3B45153  37.387   4.404   7.050
 7863POPC   C4B45154  37.444   4.362   7.350
 7864POPC   NC345155  19.810  40.816   5.550
 7864POPC   PO445156  19.854  40.742   5.850
 7864POPC   GL145157  19.836  40.737   6.150
 7864POPC   GL245158  19.972  40.733   6.150
 7864POPC   C1A45159  19.807  40.747   6.450
 7864POPC   D2A45160  19.844  40.828   6.750
 7864POPC   C3A45161  19.848  40.784   7.050
 7864POPC   C4A45162  19.833  40.792   7.350
 7864POPC   C1B45163  20.088  40.757   6.450
 7864POPC   C2B45164  20.111  40.712   6.750
 7864POPC   C3B45165  20.072  40.696   7.050
 7864POPC   C4B45166  20.066  40.755   7.350
 7865POPC   NC345167   0.471  21.355   5.550
 7865POPC   PO445168   0.474  21.371   5.850
 7865POPC   GL145169   0.411  21.369   6.150
 7865POPC   GL245170   0.440  21.508   6.150
 7865POPC   C1A45171   0.415  21.340   6.450
 7865POPC   D2A45172   0.417  21.427   6.750
 7865POPC   C3A45173   0.397  21.402   7.050
 7865POPC   C4A45174   0.471  21.414   7.350
 7865POPC   C1B45175   0.361  21.587   6.450
 7865POPC   C2B45176   0.398  21.590   6.750
 7865POPC   C3B45177   0.316  21.573   7.050
 7865POPC   C4B45178   0.349  21.621   7.350
 7866POPC   NC345179  25.221  16.730   5.550
 7866POPC   PO445180  25.270  16.763   5.850
 7866POPC   GL145181  25.295  16.719   6.150
 7866POPC   GL245182  25.180  16.710   6.150
 7866POPC   C1A45183  25.221  16.765   6.450
 7866POPC   D2A45184  25.311  16.703   6.750
 7866POPC   C3A45185  25.229  16.740   7.050
 7866POPC   C4A45186  25.314  16.755   7.350
 7866POPC   C1B45187  25.032  16.793   6.450
 7866POPC   C2B45188  25.061  16.734   6.750
 7866POPC   C3B45189  24.979  16.732   7.050
 7866POPC   C4B45190  24.984  16.769   7.350
 7867POPC   NC345191  17.548  36.919   5.550
 7867POPC   PO445192  17.477  36.859   5.850
 7867POPC   GL145193  17.540  36.892   6.150
 7867POPC   GL245194  17.654  36.833   6.150
 7867POPC   C1A45195  17.467  36.867   6.450
 7867POPC   D2A45196  17.525  36.859   6.750
 7867POPC   C3A45197  17.467  36.866   7.050
 7867POPC   C4A45198  17.523  36.936   7.350
 7867POPC   C1B45199  17.755  36.903   6.450
 7867POPC   C2B45200  17.798  36.859   6.750
 7867POPC   C3B45201  17.756  36.808   7.050
 7867POPC   C4B45202  17.802  36.893   7.350
 7868POPC   NC345203  22.121  40.829   5.550
 7868POPC   PO445204  22.169  40.832   5.850
 7868POPC   GL145205  22.129  40.807   6.150
 7868POPC   GL245206  22.236  40.689   6.150
 7868POPC   C1A45207  22.164  40.791   6.450
 7868POPC   D2A45208  22.164  40.830   6.750
 7868POPC   C3A45209  22.147  40.832   7.050
 7868POPC   C4A45210  22.168  40.774   7.350
 7868POPC   C1B45211  22.330  40.610   6.450
 7868POPC   C2B45212  22.409  40.608   6.750
 7868POPC   C3B45213  22.412  40.674   7.050
 7868POPC   C4B45214  22.377  40.626   7.350
 7869POPC   NC345215   7.387   2.804   5.550
 7869POPC   PO445216   7.428   2.788   5.850
 7869POPC   GL145217   7.395   2.777   6.150
 7869POPC   GL245218   7.360   2.878   6.150
 7869POPC   C1A45219   7.384   2.728   6.450
 7869POPC   D2A45220   7.412   2.734   6.750
 7869POPC   C3A45221   7.434   2.788   7.050
 7869POPC   C4A45222   7.405   2.726   7.350
 7869POPC   C1B45223   7.188   2.957   6.450
 7869POPC   C2B45224   7.218   2.966   6.750
 7869POPC   C3B45225   7.234   2.908   7.050
 7869POPC   C4B45226   7.235   2.971   7.350
 7870POPC   NC345227  30.689  28.384   5.550
 7870POPC   PO445228  30.693  28.362   5.850
 7870POPC   GL145229  30.665  28.330   6.150
 7870POPC   GL245230  30.589  28.464   6.150
 7870POPC   C1A45231  30.696  28.406   6.450
 7870POPC   D2A45232  30.658  28.393   6.750
 7870POPC   C3A45233  30.679  28.403   7.050
 7870POPC   C4A45234  30.686  28.388   7.350
 7870POPC   C1B45235  30.492  28.506   6.450
 7870POPC   C2B45236  30.545  28.554   6.750
 7870POPC   C3B45237  30.548  28.504   7.050
 7870POPC   C4B45238  30.475  28.513   7.350
 7871POPC   NC345239  11.312  30.703   5.550
 7871POPC   PO445240  11.279  30.676   5.850
 7871POPC   GL145241  11.338  30.657   6.150
 7871POPC   GL245242  11.213  30.649   6.150
 7871POPC   C1A45243  11.290  30.685   6.450
 7871POPC   D2A45244  11.285  30.680   6.750
 7871POPC   C3A45245  11.253  30.683   7.050
 7871POPC   C4A45246  11.291  30.720   7.350
 7871POPC   C1B45247  11.118  30.569   6.450
 7871POPC   C2B45248  11.089  30.544   6.750
 7871POPC   C3B45249  11.118  30.571   7.050
 7871POPC   C4B45250  11.074  30.556   7.350
 7872POPC   NC345251  36.114  18.311   5.550
 7872POPC   PO445252  36.122  18.279   5.850
 7872POPC   GL145253  36.090  18.268   6.150
 7872POPC   GL245254  36.132  18.440   6.150
 7872POPC   C1A45255  36.114  18.293   6.450
 7872POPC   D2A45256  36.176  18.317   6.750
 7872POPC   C3A45257  36.158  18.272   7.050
 7872POPC   C4A45258  36.159  18.236   7.350
 7872POPC   C1B45259  36.242  18.493   6.450
 7872POPC   C2B45260  36.201  18.473   6.750
 7872POPC   C3B45261  36.211  18.556   7.050
 7872POPC   C4B45262  36.219  18.546   7.350
 7873POPC   NC345263   3.553  44.616   5.550
 7873POPC   PO445264   3.562  44.627   5.850
 7873POPC   GL145265   3.504  44.623   6.150
 7873POPC   GL245266   3.583  44.530   6.150
 7873POPC   C1A45267   3.591  44.646   6.450
 7873POPC   D2A45268   3.503  44.676   6.750
 7873POPC   C3A45269   3.498  44.702   7.050
 7873POPC   C4A45270   3.572  44.711   7.350
 7873POPC   C1B45271   3.521  44.421   6.450
 7873POPC   C2B45272   3.523  44.383   6.750
 7873POPC   C3B45273   3.520  44.430   7.050
 7873POPC   C4B45274   3.512  44.452   7.350
 7874POPC   NC345275  15.129   5.135   5.550
 7874POPC   PO445276  15.221   5.097   5.850
 7874POPC   GL145277  15.212   5.112   6.150
 7874POPC   GL245278  15.220   5.221   6.150
 7874POPC   C1A45279  15.153   5.138   6.450
 7874POPC   D2A45280  15.201   5.085   6.750
 7874POPC   C3A45281  15.137   5.052   7.050
 7874POPC   C4A45282  15.140   5.057   7.350
 7874POPC   C1B45283  15.274   5.321   6.450
 7874POPC   C2B45284  15.269   5.344   6.750
 7874POPC   C3B45285  15.271   5.349   7.050
 7874POPC   C4B45286  15.286   5.300   7.350
 7875POPC   NC345287  32.238   8.188   5.550
 7875POPC   PO445288  32.233   8.162   5.850
 7875POPC   GL145289  32.276   8.232   6.150
 7875POPC   GL245290  32.292   8.329   6.150
 7875POPC   C1A45291  32.259   8.174   6.450
 7875POPC   D2A45292  32.287   8.237   6.750
 7875POPC   C3A45293  32.215   8.244   7.050
 7875POPC   C4A45294  32.241   8.160   7.350
 7875POPC   C1B45295  32.359   8.359   6.450
 7875POPC   C2B45296  32.374   8.404   6.750
 7875POPC   C3B45297  32.376   8.353   7.050
 7875POPC   C4B45298  32.427   8.433   7.350
 7876POPC   NC345299  43.924  27.604   5.550
 7876POPC   PO445300  43.860  27.604   5.850
 7876POPC   GL145301  43.933  27.618   6.150
 7876POPC   GL245302  43.939  27.713   6.150
 7876POPC   C1A45303  43.896  27.620   6.450
 7876POPC   D2A45304  43.888  27.586   6.750
 7876POPC   C3A45305  43.921  27.615   7.050
 7876POPC   C4A45306  43.866  27.569   7.350
 7876POPC   C1B45307  44.026  27.847   6.450
 7876POPC   C2B45308  43.958  27.852   6.750
 7876POPC   C3B45309  43.980  27.783   7.050
 7876POPC   C4B45310  44.045  27.765   7.350
 7877POPC   NC345311  39.978   5.123   5.550
 7877POPC   PO445312  39.959   5.088   5.850
 7877POPC   GL145313  40.016   5.119   6.150
 7877POPC   GL245314  39.945   4.927   6.150
 7877POPC   C1A45315  40.012   5.052   6.450
 7877POPC   D2A45316  40.009   5.053   6.750
 7877POPC   C3A45317  40.038   5.053   7.050
 7877POPC   C4A45318  40.021   5.103   7.350
 7877POPC   C1B45319  39.962   4.843   6.450
 7877POPC   C2B45320  39.933   4.806   6.750
 7877POPC   C3B45321  39.979   4.871   7.050
 7877POPC   C4B45322  39.945   4.861   7.350
 7878POPC   NC345323   6.613  21.392   5.550
 7878POPC   PO445324   6.680  21.431   5.850
 7878POPC   GL145325   6.659  21.399   6.150
 7878POPC   GL245326   6.494  21.370   6.150
 7878POPC   C1A45327   6.653  21.356   6.450
 7878POPC   D2A45328   6.651  21.358   6.750
 7878POPC   C3A45329   6.664  21.348   7.050
 7878POPC   C4A45330   6.671  21.416   7.350
 7878POPC   C1B45331   6.424  21.337   6.450
 7878POPC   C2B45332   6.384  21.380   6.750
 7878POPC   C3B45333   6.366  21.339   7.050
 7878POPC   C4B45334   6.445  21.336   7.350
 7879POPC   NC345335  44.668  28.373   5.550
 7879POPC   PO445336  44.709  28.345   5.850
 7879POPC   GL145337  44.686  28.363   6.150
 7879POPC   GL245338  44.769  28.340   6.150
 7879POPC   C1A45339  44.622  28.343   6.450
 7879POPC   D2A45340  44.686  28.328   6.750
 7879POPC   C3A45341  44.700  28.332   7.050
 7879POPC   C4A45342  44.699  28.368   7.350
 7879POPC   C1B45343  44.886  28.268   6.450
 7879POPC   C2B45344  44.836  28.271   6.750
 7879POPC   C3B45345  44.896  28.258   7.050
 7879POPC   C4B45346  44.836  28.264   7.350
 7880POPC   NC345347   5.062  37.697   5.550
 7880POPC   PO445348   5.141  37.699   5.850
 7880POPC   GL145349   5.091  37.663   6.150
 7880POPC   GL245350   5.149  37.549   6.150
 7880POPC   C1A45351   5.113  37.639   6.450
 7880POPC   D2A45352   5.098  37.662   6.750
 7880POPC   C3A45353   5.117  37.656   7.050
 7880POPC   C4A45354   5.057  37.657   7.350
 7880POPC   C1B45355   5.160  37.403   6.450
 7880POPC   C2B45356   5.117  37.475   6.750
 7880POPC   C3B45357   5.085  37.474   7.050
 7880POPC   C4B45358   5.108  37.470   7.350
 7881POPC   NC345359  35.359  25.306   5.550
 7881POPC   PO445360  35.338  25.293   5.850
 7881POPC   GL145361  35.307  25.264   6.150
 7881POPC   GL245362  35.374  25.194   6.150
 7881POPC   C1A45363  35.302  25.267   6.450
 7881POPC   D2A45364  35.357  25.290   6.750
 7881POPC   C3A45365  35.313  25.256   7.050
 7881POPC   C4A45366  35.371  25.302   7.350
 7881POPC   C1B45367  35.452  25.064   6.450
 7881POPC   C2B45368  35.492  25.013   6.750
 7881POPC   C3B45369  35.470  25.019   7.050
 7881POPC   C4B45370  35.403  25.021   7.350
 7882POPC   NC345371  31.447  37.717   5.550
 7882POPC   PO445372  31.507  37.655   5.850
 7882POPC   GL145373  31.498  37.654   6.150
 7882POPC   GL245374  31.526  37.561   6.150
 7882POPC   C1A45375  31.458  37.693   6.450
 7882POPC   D2A45376  31.507  37.702   6.750
 7882POPC   C3A45377  31.449  37.663   7.050
 7882POPC   C4A45378  31.434  37.720   7.350
 7882POPC   C1B45379  31.483  37.439   6.450
 7882POPC   C2B45380  31.558  37.442   6.750
 7882POPC   C3B45381  31.494  37.411   7.050
 7882POPC   C4B45382  31.560  37.440   7.350
 7883POPC   NC345383  14.434   1.201   5.550
 7883POPC   PO445384  14.435   1.251   5.850
 7883POPC   GL145385  14.399   1.253   6.150
 7883POPC   GL245386  14.324   1.287   6.150
 7883POPC   C1A45387  14.397   1.212   6.450
 7883POPC   D2A45388  14.430   1.212   6.750
 7883POPC   C3A45389  14.389   1.167   7.050
 7883POPC   C4A45390  14.387   1.255   7.350
 7883POPC   C1B45391  14.178   1.245   6.450
 7883POPC   C2B45392  14.176   1.270   6.750
 7883POPC   C3B45393  14.140   1.298   7.050
 7883POPC   C4B45394  14.131   1.252   7.350
 7884POPC   NC345395  33.800   4.296   5.550
 7884POPC   PO445396  33.785   4.270   5.850
 7884POPC   GL145397  33.820   4.272   6.150
 7884POPC   GL245398  33.819   4.404   6.150
 7884POPC   C1A45399  33.778   4.292   6.450
 7884POPC   D2A45400  33.804   4.329   6.750
 7884POPC   C3A45401  33.798   4.277   7.050
 7884POPC   C4A45402  33.755   4.322   7.350
 7884POPC   C1B45403  33.792   4.578   6.450
 7884POPC   C2B45404  33.753   4.531   6.750
 7884POPC   C3B45405  33.732   4.604   7.050
 7884POPC   C4B45406  33.786   4.610   7.350
 7885POPC   NC345407   1.170  11.317   5.550
 7885POPC   PO445408   1.167  11.258   5.850
 7885POPC   GL145409   1.251  11.342   6.150
 7885POPC   GL245410   1.094  11.325   6.150
 7885POPC   C1A45411   1.259  11.301   6.450
 7885POPC   D2A45412   1.250  11.298   6.750
 7885POPC   C3A45413   1.166  11.265   7.050
 7885POPC   C4A45414   1.223  11.322   7.350
 7885POPC   C1B45415   1.024  11.438   6.450
 7885POPC   C2B45416   1.020  11.435   6.750
 7885POPC   C3B45417   0.941  11.352   7.050
 7885POPC   C4B45418   0.976  11.400   7.350
 7886POPC   NC345419   0.412  26.779   5.550
 7886POPC   PO445420   0.416  26.775   5.850
 7886POPC   GL145421   0.458  26.855   6.150
 7886POPC   GL245422   0.603  26.785   6.150
 7886POPC   C1A45423   0.472  26.854   6.450
 7886POPC   D2A45424   0.414  26.863   6.750
 7886POPC   C3A45425   0.457  26.791   7.050
 7886POPC   C4A45426   0.472  26.792   7.350
 7886POPC   C1B45427   0.695  26.781   6.450
 7886POPC   C2B45428   0.658  26.783   6.750
 7886POPC   C3B45429   0.674  26.812   7.050
 7886POPC   C4B45430   0.734  26.765   7.350
 7887POPC   NC345431  39.978  36.894   5.550
 7887POPC   PO445432  39.973  36.932   5.850
 7887POPC   GL145433  39.988  36.944   6.150
 7887POPC   GL245434  39.955  36.961   6.150
 7887POPC   C1A45435  39.973  36.934   6.450
 7887POPC   D2A45436  40.001  36.910   6.750
 7887POPC   C3A45437  39.984  36.856   7.050
 7887POPC   C4A45438  39.969  36.936   7.350
 7887POPC   C1B45439  39.839  37.111   6.450
 7887POPC   C2B45440  39.804  37.105   6.750
 7887POPC   C3B45441  39.834  37.060   7.050
 7887POPC   C4B45442  39.810  37.074   7.350
 7888POPC   NC345443  12.874  42.329   5.550
 7888POPC   PO445444  12.820  42.306   5.850
 7888POPC   GL145445  12.809  42.336   6.150
 7888POPC   GL245446  12.919  42.196   6.150
 7888POPC   C1A45447  12.824  42.314   6.450
 7888POPC   D2A45448  12.849  42.377   6.750
 7888POPC   C3A45449  12.842  42.343   7.050
 7888POPC   C4A45450  12.862  42.329   7.350
 7888POPC   C1B45451  12.919  42.078   6.450
 7888POPC   C2B45452  12.971  42.099   6.750
 7888POPC   C3B45453  12.941  42.064   7.050
 7888POPC   C4B45454  12.985  42.064   7.350
 7889POPC   NC345455  30.680  29.184   5.550
 7889POPC   PO445456  30.735  29.175   5.850
 7889POPC   GL145457  30.664  29.111   6.150
 7889POPC   GL245458  30.644  29.043   6.150
 7889POPC   C1A45459  30.668  29.153   6.450
 7889POPC   D2A45460  30.713  29.096   6.750
 7889POPC   C3A45461  30.736  29.125   7.050
 7889POPC   C4A45462  30.697  29.131   7.350
 7889POPC   C1B45463  30.509  29.001   6.450
 7889POPC   C2B45464  30.510  28.954   6.750
 7889POPC   C3B45465  30.543  29.001   7.050
 7889POPC   C4B45466  30.536  28.915   7.350
 7890POPC   NC345467  33.763  32.227   5.550
 7890POPC   PO445468  33.788  32.248   5.850
 7890POPC   GL145469  33.758  32.271   6.150
 7890POPC   GL245470  33.681  32.331   6.150
 7890POPC   C1A45471  33.768  32.213   6.450
 7890POPC   D2A45472  33.795  32.202   6.750
 7890POPC   C3A45473  33.758  32.220   7.050
 7890POPC   C4A45474  33.847  32.281   7.350
 7890POPC   C1B45475  33.594  32.319   6.450
 7890POPC   C2B45476  33.540  32.376   6.750
 7890POPC   C3B45477  33.520  32.352   7.050
 7890POPC   C4B45478  33.539  32.314   7.350
 7891POPC   NC345479  12.061  24.442   5.550
 7891POPC   PO445480  12.033  24.489   5.850
 7891POPC   GL145481  12.082  24.490   6.150
 7891POPC   GL245482  11.924  24.515   6.150
 7891POPC   C1A45483  12.029  24.503   6.450
 7891POPC   D2A45484  12.035  24.521   6.750
 7891POPC   C3A45485  12.031  24.494   7.050
 7891POPC   C4A45486  12.089  24.466   7.350
 7891POPC   C1B45487  11.890  24.544   6.450
 7891POPC   C2B45488  11.798  24.623   6.750
 7891POPC   C3B45489  11.861  24.555   7.050
 7891POPC   C4B45490  11.798  24.615   7.350
 7892POPC   NC345491  12.113   8.929   5.550
 7892POPC   PO445492  12.110   8.980   5.850
 7892POPC   GL145493  12.073   8.974   6.150
 7892POPC   GL245494  12.175   8.853   6.150
 7892POPC   C1A45495  12.110   9.009   6.450
 7892POPC   D2A45496  12.064   8.924   6.750
 7892POPC   C3A45497  12.045   8.977   7.050
 7892POPC   C4A45498  12.080   8.971   7.350
 7892POPC   C1B45499  12.177   8.749   6.450
 7892POPC   C2B45500  12.145   8.795   6.750
 7892POPC   C3B45501  12.180   8.771   7.050
 7892POPC   C4B45502  12.170   8.695   7.350
 7893POPC   NC345503  21.351   9.779   5.550
 7893POPC   PO445504  21.345   9.792   5.850
 7893POPC   GL145505  21.338   9.776   6.150
 7893POPC   GL245506  21.473   9.787   6.150
 7893POPC   C1A45507  21.362   9.762   6.450
 7893POPC   D2A45508  21.424   9.733   6.750
 7893POPC   C3A45509  21.426   9.748   7.050
 7893POPC   C4A45510  21.395   9.703   7.350
 7893POPC   C1B45511  21.614   9.858   6.450
 7893POPC   C2B45512  21.613   9.867   6.750
 7893POPC   C3B45513  21.618   9.955   7.050
 7893POPC   C4B45514  21.592   9.894   7.350
 7894POPC   NC345515   5.109  40.001   5.550
 7894POPC   PO445516   5.045  40.050   5.850
 7894POPC   GL145517   5.142  40.021   6.150
 7894POPC   GL245518   5.171  40.049   6.150
 7894POPC   C1A45519   5.064  39.977   6.450
 7894POPC   D2A45520   5.045  40.008   6.750
 7894POPC   C3A45521   5.108  40.004   7.050
 7894POPC   C4A45522   5.134  39.965   7.350
 7894POPC   C1B45523   5.269  40.209   6.450
 7894POPC   C2B45524   5.237  40.154   6.750
 7894POPC   C3B45525   5.297  40.157   7.050
 7894POPC   C4B45526   5.330  40.192   7.350
 7895POPC   NC345527  31.486   2.037   5.550
 7895POPC   PO445528  31.480   2.015   5.850
 7895POPC   GL145529  31.437   1.987   6.150
 7895POPC   GL245530  31.312   1.968   6.150
 7895POPC   C1A45531  31.461   2.034   6.450
 7895POPC   D2A45532  31.424   1.999   6.750
 7895POPC   C3A45533  31.465   2.039   7.050
 7895POPC   C4A45534  31.441   1.959   7.350
 7895POPC   C1B45535  31.213   1.946   6.450
 7895POPC   C2B45536  31.228   1.870   6.750
 7895POPC   C3B45537  31.255   1.913   7.050
 7895POPC   C4B45538  31.289   1.881   7.350
 7896POPC   NC345539  36.125  32.258   5.550
 7896POPC   PO445540  36.157  32.248   5.850
 7896POPC   GL145541  36.104  32.287   6.150
 7896POPC   GL245542  36.047  32.099   6.150
 7896POPC   C1A45543  36.139  32.283   6.450
 7896POPC   D2A45544  36.160  32.240   6.750
 7896POPC   C3A45545  36.175  32.281   7.050
 7896POPC   C4A45546  36.139  32.288   7.350
 7896POPC   C1B45547  36.003  32.001   6.450
 7896POPC   C2B45548  36.074  32.022   6.750
 7896POPC   C3B45549  36.087  32.043   7.050
 7896POPC   C4B45550  36.093  31.962   7.350
 7897POPC   NC345551  26.059   5.888   5.550
 7897POPC   PO445552  26.009   5.856   5.850
 7897POPC   GL145553  26.091   5.859   6.150
 7897POPC   GL245554  26.110   5.713   6.150
 7897POPC   C1A45555  26.061   5.885   6.450
 7897POPC   D2A45556  26.048   5.916   6.750
 7897POPC   C3A45557  26.059   5.893   7.050
 7897POPC   C4A45558  26.031   5.850   7.350
 7897POPC   C1B45559  26.128   5.593   6.450
 7897POPC   C2B45560  26.099   5.618   6.750
 7897POPC   C3B45561  26.102   5.598   7.050
 7897POPC   C4B45562  26.107   5.590   7.350
 7898POPC   NC345563   5.072   4.271   5.550
 7898POPC   PO445564   5.137   4.300   5.850
 7898POPC   GL145565   5.094   4.281   6.150
 7898POPC   GL245566   4.987   4.353   6.150
 7898POPC   C1A45567   5.123   4.302   6.450
 7898POPC   D2A45568   5.112   4.356   6.750
 7898POPC   C3A45569   5.048   4.325   7.050
 7898POPC   C4A45570   5.106   4.297   7.350
 7898POPC   C1B45571   4.892   4.349   6.450
 7898POPC   C2B45572   4.870   4.354   6.750
 7898POPC   C3B45573   4.887   4.345   7.050
 7898POPC   C4B45574   4.894   4.362   7.350
 7899POPC   NC345575   4.346  21.403   5.550
 7899POPC   PO445576   4.359  21.346   5.850
 7899POPC   GL145577   4.285  21.423   6.150
 7899POPC   GL245578   4.436  21.377   6.150
 7899POPC   C1A45579   4.357  21.348   6.450
 7899POPC   D2A45580   4.283  21.381   6.750
 7899POPC   C3A45581   4.309  21.414   7.050
 7899POPC   C4A45582   4.291  21.432   7.350
 7899POPC   C1B45583   4.590  21.353   6.450
 7899POPC   C2B45584   4.543  21.363   6.750
 7899POPC   C3B45585   4.584  21.344   7.050
 7899POPC   C4B45586   4.616  21.428   7.350
 7900POPC   NC345587  30.651  33.751   5.550
 7900POPC   PO445588  30.690  33.811   5.850
 7900POPC   GL145589  30.697  33.818   6.150
 7900POPC   GL245590  30.684  33.702   6.150
 7900POPC   C1A45591  30.656  33.799   6.450
 7900POPC   D2A45592  30.704  33.773   6.750
 7900POPC   C3A45593  30.676  33.835   7.050
 7900POPC   C4A45594  30.738  33.826   7.350
 7900POPC   C1B45595  30.682  33.540   6.450
 7900POPC   C2B45596  30.691  33.557   6.750
 7900POPC   C3B45597  30.684  33.582   7.050
 7900POPC   C4B45598  30.676  33.509   7.350
 7901POPC   NC345599   3.572  22.908   5.550
 7901POPC   PO445600   3.567  22.902   5.850
 7901POPC   GL145601   3.511  22.924   6.150
 7901POPC   GL245602   3.618  22.877   6.150
 7901POPC   C1A45603   3.578  22.913   6.450
 7901POPC   D2A45604   3.570  22.947   6.750
 7901POPC   C3A45605   3.561  22.927   7.050
 7901POPC   C4A45606   3.511  22.928   7.350
 7901POPC   C1B45607   3.795  22.855   6.450
 7901POPC   C2B45608   3.821  22.867   6.750
 7901POPC   C3B45609   3.757  22.930   7.050
 7901POPC   C4B45610   3.827  22.924   7.350
 7902POPC   NC345611  44.618  15.937   5.550
 7902POPC   PO445612  44.659  15.945   5.850
 7902POPC   GL145613  44.645  16.003   6.150
 7902POPC   GL245614  44.725  15.901   6.150
 7902POPC   C1A45615  44.698  15.987   6.450
 7902POPC   D2A45616  44.706  15.993   6.750
 7902POPC   C3A45617  44.685  15.932   7.050
 7902POPC   C4A45618  44.697  15.913   7.350
 7902POPC   C1B45619  44.879  15.761   6.450
 7902POPC   C2B45620  44.808  15.778   6.750
 7902POPC   C3B45621  44.890  15.796   7.050
 7902POPC   C4B45622  44.872  15.833   7.350
 7903POPC   NC345623  31.456  12.115   5.550
 7903POPC   PO445624  31.464  12.106   5.850
 7903POPC   GL145625  31.452  12.103   6.150
 7903POPC   GL245626  31.589  12.028   6.150
 7903POPC   C1A45627  31.440  12.121   6.450
 7903POPC   D2A45628  31.443  12.118   6.750
 7903POPC   C3A45629  31.469  12.124   7.050
 7903POPC   C4A45630  31.480  12.078   7.350
 7903POPC   C1B45631  31.709  12.035   6.450
 7903POPC   C2B45632  31.740  12.004   6.750
 7903POPC   C3B45633  31.715  12.046   7.050
 7903POPC   C4B45634  31.716  11.972   7.350
 7904POPC   NC345635   3.553  31.478   5.550
 7904POPC   PO445636   3.579  31.513   5.850
 7904POPC   GL145637   3.588  31.483   6.150
 7904POPC   GL245638   3.497  31.349   6.150
 7904POPC   C1A45639   3.546  31.496   6.450
 7904POPC   D2A45640   3.586  31.500   6.750
 7904POPC   C3A45641   3.538  31.450   7.050
 7904POPC   C4A45642   3.520  31.439   7.350
 7904POPC   C1B45643   3.432  31.207   6.450
 7904POPC   C2B45644   3.517  31.191   6.750
 7904POPC   C3B45645   3.466  31.213   7.050
 7904POPC   C4B45646   3.496  31.217   7.350
 7905POPC   NC345647  42.342  44.617   5.550
 7905POPC   PO445648  42.374  44.616   5.850
 7905POPC   GL145649  42.311  44.674   6.150
 7905POPC   GL245650  42.165  44.711   6.150
 7905POPC   C1A45651  42.320  44.630   6.450
 7905POPC   D2A45652  42.360  44.633   6.750
 7905POPC   C3A45653  42.350  44.640   7.050
 7905POPC   C4A45654  42.322  44.675   7.350
 7905POPC   C1B45655  42.049  44.700   6.450
 7905POPC   C2B45656  42.089  44.646   6.750
 7905POPC   C3B45657  42.070  44.661   7.050
 7905POPC   C4B45658  42.043  44.683   7.350
 7906POPC   NC345659  36.124  33.806   5.550
 7906POPC   PO445660  36.159  33.810   5.850
 7906POPC   GL145661  36.113  33.848   6.150
 7906POPC   GL245662  36.221  33.636   6.150
 7906POPC   C1A45663  36.175  33.763   6.450
 7906POPC   D2A45664  36.084  33.836   6.750
 7906POPC   C3A45665  36.130  33.761   7.050
 7906POPC   C4A45666  36.140  33.835   7.350
 7906POPC   C1B45667  36.223  33.615   6.450
 7906POPC   C2B45668  36.185  33.554   6.750
 7906POPC   C3B45669  36.240  33.610   7.050
 7906POPC   C4B45670  36.263  33.568   7.350
 7907POPC   NC345671   3.521  40.002   5.550
 7907POPC   PO445672   3.508  40.011   5.850
 7907POPC   GL145673   3.582  40.044   6.150
 7907POPC   GL245674   3.664  39.949   6.150
 7907POPC   C1A45675   3.508  39.983   6.450
 7907POPC   D2A45676   3.556  39.977   6.750
 7907POPC   C3A45677   3.500  40.022   7.050
 7907POPC   C4A45678   3.559  39.980   7.350
 7907POPC   C1B45679   3.777  39.959   6.450
 7907POPC   C2B45680   3.810  39.975   6.750
 7907POPC   C3B45681   3.761  39.945   7.050
 7907POPC   C4B45682   3.780  39.945   7.350
 7908POPC   NC345683  20.568  44.692   5.550
 7908POPC   PO445684  20.652  44.620   5.850
 7908POPC   GL145685  20.620  44.690   6.150
 7908POPC   GL245686  20.610  44.524   6.150
 7908POPC   C1A45687  20.596  44.660   6.450
 7908POPC   D2A45688  20.635  44.671   6.750
 7908POPC   C3A45689  20.638  44.677   7.050
 7908POPC   C4A45690  20.576  44.643   7.350
 7908POPC   C1B45691  20.559  44.460   6.450
 7908POPC   C2B45692  20.555  44.425   6.750
 7908POPC   C3B45693  20.523  44.379   7.050
 7908POPC   C4B45694  20.508  44.430   7.350
 7909POPC   NC345695  37.665  41.577   5.550
 7909POPC   PO445696  37.682  41.588   5.850
 7909POPC   GL145697  37.658  41.540   6.150
 7909POPC   GL245698  37.543  41.476   6.150
 7909POPC   C1A45699  37.708  41.599   6.450
 7909POPC   D2A45700  37.647  41.604   6.750
 7909POPC   C3A45701  37.671  41.522   7.050
 7909POPC   C4A45702  37.727  41.569   7.350
 7909POPC   C1B45703  37.459  41.432   6.450
 7909POPC   C2B45704  37.487  41.428   6.750
 7909POPC   C3B45705  37.427  41.386   7.050
 7909POPC   C4B45706  37.489  41.416   7.350
 7910POPC   NC345707   5.820  16.724   5.550
 7910POPC   PO445708   5.842  16.684   5.850
 7910POPC   GL145709   5.899  16.746   6.150
 7910POPC   GL245710   5.899  16.799   6.150
 7910POPC   C1A45711   5.902  16.768   6.450
 7910POPC   D2A45712   5.871  16.697   6.750
 7910POPC   C3A45713   5.828  16.739   7.050
 7910POPC   C4A45714   5.910  16.714   7.350
 7910POPC   C1B45715   6.007  16.984   6.450
 7910POPC   C2B45716   5.997  16.925   6.750
 7910POPC   C3B45717   6.004  16.997   7.050
 7910POPC   C4B45718   5.945  16.979   7.350
 7911POPC   NC345719  24.490  43.931   5.550
 7911POPC   PO445720  24.447  43.854   5.850
 7911POPC   GL145721  24.464  43.837   6.150
 7911POPC   GL245722  24.341  43.920   6.150
 7911POPC   C1A45723  24.527  43.913   6.450
 7911POPC   D2A45724  24.447  43.848   6.750
 7911POPC   C3A45725  24.524  43.906   7.050
 7911POPC   C4A45726  24.448  43.890   7.350
 7911POPC   C1B45727  24.249  43.972   6.450
 7911POPC   C2B45728  24.255  43.991   6.750
 7911POPC   C3B45729  24.222  43.930   7.050
 7911POPC   C4B45730  24.237  43.966   7.350
 7912POPC   NC345731  29.898   9.748   5.550
 7912POPC   PO445732  29.938   9.791   5.850
 7912POPC   GL145733  29.901   9.743   6.150
 7912POPC   GL245734  29.866   9.674   6.150
 7912POPC   C1A45735  29.887   9.731   6.450
 7912POPC   D2A45736  29.938   9.767   6.750
 7912POPC   C3A45737  29.948   9.793   7.050
 7912POPC   C4A45738  29.896   9.783   7.350
 7912POPC   C1B45739  29.846   9.507   6.450
 7912POPC   C2B45740  29.912   9.476   6.750
 7912POPC   C3B45741  29.887   9.527   7.050
 7912POPC   C4B45742  29.843   9.547   7.350
 7913POPC   NC345743  15.188  32.237   5.550
 7913POPC   PO445744  15.168  32.291   5.850
 7913POPC   GL145745  15.196  32.266   6.150
 7913POPC   GL245746  15.303  32.275   6.150
 7913POPC   C1A45747  15.134  32.202   6.450
 7913POPC   D2A45748  15.165  32.200   6.750
 7913POPC   C3A45749  15.205  32.263   7.050
 7913POPC   C4A45750  15.162  32.201   7.350
 7913POPC   C1B45751  15.446  32.349   6.450
 7913POPC   C2B45752  15.421  32.298   6.750
 7913POPC   C3B45753  15.405  32.348   7.050
 7913POPC   C4B45754  15.380  32.318   7.350
 7914POPC   NC345755  25.306   5.133   5.550
 7914POPC   PO445756  25.303   5.054   5.850
 7914POPC   GL145757  25.264   5.139   6.150
 7914POPC   GL245758  25.194   4.962   6.150
 7914POPC   C1A45759  25.246   5.113   6.450
 7914POPC   D2A45760  25.247   5.121   6.750
 7914POPC   C3A45761  25.281   5.106   7.050
 7914POPC   C4A45762  25.247   5.045   7.350
 7914POPC   C1B45763  25.077   4.852   6.450
 7914POPC   C2B45764  25.118   4.932   6.750
 7914POPC   C3B45765  25.138   4.922   7.050
 7914POPC   C4B45766  25.127   4.908   7.350
 7915POPC   NC345767   6.626  24.482   5.550
 7915POPC   PO445768   6.687  24.526   5.850
 7915POPC   GL145769   6.692  24.514   6.150
 7915POPC   GL245770   6.819  24.517   6.150
 7915POPC   C1A45771   6.667  24.539   6.450
 7915POPC   D2A45772   6.694  24.448   6.750
 7915POPC   C3A45773   6.610  24.513   7.050
 7915POPC   C4A45774   6.680  24.446   7.350
 7915POPC   C1B45775   6.854  24.512   6.450
 7915POPC   C2B45776   6.891  24.473   6.750
 7915POPC   C3B45777   6.869  24.495   7.050
 7915POPC   C4B45778   6.893  24.435   7.350
 7916POPC   NC345779  40.806  33.003   5.550
 7916POPC   PO445780  40.778  32.985   5.850
 7916POPC   GL145781  40.787  33.054   6.150
 7916POPC   GL245782  40.682  33.111   6.150
 7916POPC   C1A45783  40.736  33.050   6.450
 7916POPC   D2A45784  40.785  32.982   6.750
 7916POPC   C3A45785  40.832  33.061   7.050
 7916POPC   C4A45786  40.786  33.044   7.350
 7916POPC   C1B45787  40.608  33.211   6.450
 7916POPC   C2B45788  40.607  33.175   6.750
 7916POPC   C3B45789  40.581  33.187   7.050
 7916POPC   C4B45790  40.552  33.218   7.350
 7917POPC   NC345791  19.874  36.149   5.550
 7917POPC   PO445792  19.867  36.090   5.850
 7917POPC   GL145793  19.845  36.134   6.150
 7917POPC   GL245794  19.709  36.155   6.150
 7917POPC   C1A45795  19.820  36.095   6.450
 7917POPC   D2A45796  19.796  36.119   6.750
 7917POPC   C3A45797  19.878  36.164   7.050
 7917POPC   C4A45798  19.791  36.151   7.350
 7917POPC   C1B45799  19.588  36.142   6.450
 7917POPC   C2B45800  19.604  36.152   6.750
 7917POPC   C3B45801  19.591  36.091   7.050
 7917POPC   C4B45802  19.547  36.134   7.350
 7918POPC   NC345803  14.364  29.157   5.550
 7918POPC   PO445804  14.426  29.192   5.850
 7918POPC   GL145805  14.385  29.156   6.150
 7918POPC   GL245806  14.472  29.278   6.150
 7918POPC   C1A45807  14.373  29.162   6.450
 7918POPC   D2A45808  14.431  29.152   6.750
 7918POPC   C3A45809  14.402  29.177   7.050
 7918POPC   C4A45810  14.401  29.132   7.350
 7918POPC   C1B45811  14.493  29.379   6.450
 7918POPC   C2B45812  14.510  29.337   6.750
 7918POPC   C3B45813  14.477  29.373   7.050
 7918POPC   C4B45814  14.477  29.319   7.350
 7919POPC   NC345815  17.508  20.596   5.550
 7919POPC   PO445816  17.472  20.656   5.850
 7919POPC   GL145817  17.545  20.625   6.150
 7919POPC   GL245818  17.439  20.756   6.150
 7919POPC   C1A45819  17.540  20.584   6.450
 7919POPC   D2A45820  17.459  20.612   6.750
 7919POPC   C3A45821  17.492  20.637   7.050
 7919POPC   C4A45822  17.537  20.619   7.350
 7919POPC   C1B45823  17.379  20.837   6.450
 7919POPC   C2B45824  17.305  20.814   6.750
 7919POPC   C3B45825  17.401  20.780   7.050
 7919POPC   C4B45826  17.379  20.786   7.350
 7920POPC   NC345827  30.692  36.906   5.550
 7920POPC   PO445828  30.746  36.926   5.850
 7920POPC   GL145829  30.737  36.859   6.150
 7920POPC   GL245830  30.723  36.796   6.150
 7920POPC   C1A45831  30.654  36.923   6.450
 7920POPC   D2A45832  30.670  36.912   6.750
 7920POPC   C3A45833  30.670  36.921   7.050
 7920POPC   C4A45834  30.655  36.925   7.350
 7920POPC   C1B45835  30.837  36.701   6.450
 7920POPC   C2B45836  30.784  36.647   6.750
 7920POPC   C3B45837  30.818  36.658   7.050
 7920POPC   C4B45838  30.777  36.723   7.350
 7921POPC   NC345839   5.087  30.694   5.550
 7921POPC   PO445840   5.117  30.718   5.850
 7921POPC   GL145841   5.073  30.694   6.150
 7921POPC   GL245842   4.977  30.810   6.150
 7921POPC   C1A45843   5.087  30.717   6.450
 7921POPC   D2A45844   5.079  30.665   6.750
 7921POPC   C3A45845   5.055  30.689   7.050
 7921POPC   C4A45846   5.133  30.689   7.350
 7921POPC   C1B45847   4.912  30.893   6.450
 7921POPC   C2B45848   4.906  30.904   6.750
 7921POPC   C3B45849   4.996  30.880   7.050
 7921POPC   C4B45850   4.978  30.860   7.350
 7922POPC   NC345851   0.476  16.684   5.550
 7922POPC   PO445852   0.401  16.704   5.850
 7922POPC   GL145853   0.427  16.777   6.150
 7922POPC   GL245854   0.407  16.870   6.150
 7922POPC   C1A45855   0.453  16.735   6.450
 7922POPC   D2A45856   0.390  16.697   6.750
 7922POPC   C3A45857   0.450  16.708   7.050
 7922POPC   C4A45858   0.465  16.688   7.350
 7922POPC   C1B45859   0.415  16.945   6.450
 7922POPC   C2B45860   0.338  16.959   6.750
 7922POPC   C3B45861   0.336  16.979   7.050
 7922POPC   C4B45862   0.354  16.926   7.350
 7923POPC   NC345863  23.674  37.695   5.550
 7923POPC   PO445864  23.732  37.692   5.850
 7923POPC   GL145865  23.708  37.687   6.150
 7923POPC   GL245866  23.563  37.780   6.150
 7923POPC   C1A45867  23.744  37.689   6.450
 7923POPC   D2A45868  23.681  37.642   6.750
 7923POPC   C3A45869  23.693  37.678   7.050
 7923POPC   C4A45870  23.684  37.728   7.350
 7923POPC   C1B45871  23.517  37.779   6.450
 7923POPC   C2B45872  23.500  37.772   6.750
 7923POPC   C3B45873  23.543  37.807   7.050
 7923POPC   C4B45874  23.478  37.776   7.350
 7924POPC   NC345875  43.845  40.774   5.550
 7924POPC   PO445876  43.932  40.813   5.850
 7924POPC   GL145877  43.928  40.761   6.150
 7924POPC   GL245878  43.819  40.740   6.150
 7924POPC   C1A45879  43.889  40.786   6.450
 7924POPC   D2A45880  43.927  40.810   6.750
 7924POPC   C3A45881  43.885  40.803   7.050
 7924POPC   C4A45882  43.847  40.804   7.350
 7924POPC   C1B45883  43.634  40.682   6.450
 7924POPC   C2B45884  43.672  40.682   6.750
 7924POPC   C3B45885  43.640  40.673   7.050
 7924POPC   C4B45886  43.645  40.614   7.350
 7925POPC   NC345887  29.177   5.844   5.550
 7925POPC   PO445888  29.182   5.854   5.850
 7925POPC   GL145889  29.103   5.883   6.150
 7925POPC   GL245890  29.076   5.783   6.150
 7925POPC   C1A45891  29.164   5.900   6.450
 7925POPC   D2A45892  29.149   5.839   6.750
 7925POPC   C3A45893  29.119   5.825   7.050
 7925POPC   C4A45894  29.097   5.839   7.350
 7925POPC   C1B45895  28.996   5.636   6.450
 7925POPC   C2B45896  29.024   5.635   6.750
 7925POPC   C3B45897  29.027   5.651   7.050
 7925POPC   C4B45898  29.008   5.631   7.350
 7926POPC   NC345899  33.024  33.050   5.550
 7926POPC   PO445900  33.051  33.030   5.850
 7926POPC   GL145901  32.981  32.994   6.150
 7926POPC   GL245902  33.149  33.149   6.150
 7926POPC   C1A45903  33.074  33.051   6.450
 7926POPC   D2A45904  32.992  33.064   6.750
 7926POPC   C3A45905  33.040  33.062   7.050
 7926POPC   C4A45906  33.015  32.990   7.350
 7926POPC   C1B45907  33.220  33.180   6.450
 7926POPC   C2B45908  33.198  33.240   6.750
 7926POPC   C3B45909  33.157  33.186   7.050
 7926POPC   C4B45910  33.233  33.248   7.350
 7927POPC   NC345911  19.794  17.500   5.550
 7927POPC   PO445912  19.810  17.535   5.850
 7927POPC   GL145913  19.870  17.522   6.150
 7927POPC   GL245914  19.948  17.456   6.150
 7927POPC   C1A45915  19.812  17.515   6.450
 7927POPC   D2A45916  19.850  17.468   6.750
 7927POPC   C3A45917  19.875  17.547   7.050
 7927POPC   C4A45918  19.845  17.462   7.350
 7927POPC   C1B45919  20.039  17.401   6.450
 7927POPC   C2B45920  20.040  17.486   6.750
 7927POPC   C3B45921  20.074  17.412   7.050
 7927POPC   C4B45922  20.101  17.438   7.350
 7928POPC   NC345923  10.482  33.052   5.550
 7928POPC   PO445924  10.523  33.024   5.850
 7928POPC   GL145925  10.538  32.977   6.150
 7928POPC   GL245926  10.624  32.960   6.150
 7928POPC   C1A45927  10.488  33.007   6.450
 7928POPC   D2A45928  10.572  33.057   6.750
 7928POPC   C3A45929  10.481  32.986   7.050
 7928POPC   C4A45930  10.562  33.040   7.350
 7928POPC   C1B45931  10.631  32.836   6.450
 7928POPC   C2B45932  10.646  32.771   6.750
 7928POPC   C3B45933  10.677  32.777   7.050
 7928POPC   C4B45934  10.662  32.832   7.350
 7929POPC   NC345935  36.158  26.057   5.550
 7929POPC   PO445936  36.167  26.040   5.850
 7929POPC   GL145937  36.155  26.011   6.150
 7929POPC   GL245938  36.065  25.926   6.150
 7929POPC   C1A45939  36.121  26.056   6.450
 7929POPC   D2A45940  36.082  26.000   6.750
 7929POPC   C3A45941  36.138  26.075   7.050
 7929POPC   C4A45942  36.102  26.025   7.350
 7929POPC   C1B45943  36.124  25.759   6.450
 7929POPC   C2B45944  36.100  25.752   6.750
 7929POPC   C3B45945  36.111  25.767   7.050
 7929POPC   C4B45946  36.109  25.807   7.350
 7930POPC   NC345947  14.374  29.932   5.550
 7930POPC   PO445948  14.385  29.877   5.850
 7930POPC   GL145949  14.380  29.939   6.150
 7930POPC   GL245950  14.354  29.810   6.150
 7930POPC   C1A45951  14.375  29.887   6.450
 7930POPC   D2A45952  14.452  29.934   6.750
 7930POPC   C3A45953  14.355  29.900   7.050
 7930POPC   C4A45954  14.374  29.936   7.350
 7930POPC   C1B45955  14.256  29.773   6.450
 7930POPC   C2B45956  14.232  29.727   6.750
 7930POPC   C3B45957  14.239  29.797   7.050
 7930POPC   C4B45958  14.263  29.729   7.350
 7931POPC   NC345959  16.765  12.096   5.550
 7931POPC   PO445960  16.753  12.081   5.850
 7931POPC   GL145961  16.774  12.060   6.150
 7931POPC   GL245962  16.807  12.086   6.150
 7931POPC   C1A45963  16.742  12.076   6.450
 7931POPC   D2A45964  16.754  12.059   6.750
 7931POPC   C3A45965  16.740  12.101   7.050
 7931POPC   C4A45966  16.734  12.066   7.350
 7931POPC   C1B45967  16.994  12.133   6.450
 7931POPC   C2B45968  16.966  12.132   6.750
 7931POPC   C3B45969  17.025  12.132   7.050
 7931POPC   C4B45970  16.968  12.073   7.350
 7932POPC   NC345971  22.167  29.915   5.550
 7932POPC   PO445972  22.142  29.902   5.850
 7932POPC   GL145973  22.206  29.903   6.150
 7932POPC   GL245974  22.067  29.883   6.150
 7932POPC   C1A45975  22.212  29.939   6.450
 7932POPC   D2A45976  22.202  29.916   6.750
 7932POPC   C3A45977  22.156  29.876   7.050
 7932POPC   C4A45978  22.133  29.910   7.350
 7932POPC   C1B45979  21.944  29.897   6.450
 7932POPC   C2B45980  21.930  29.916   6.750
 7932POPC   C3B45981  21.942  29.932   7.050
 7932POPC   C4B45982  21.950  29.967   7.350
 7933POPC   NC345983  29.923  29.126   5.550
 7933POPC   PO445984  29.929  29.126   5.850
 7933POPC   GL145985  29.963  29.114   6.150
 7933POPC   GL245986  30.022  29.233   6.150
 7933POPC   C1A45987  29.938  29.191   6.450
 7933POPC   D2A45988  29.949  29.160   6.750
 7933POPC   C3A45989  29.959  29.096   7.050
 7933POPC   C4A45990  29.954  29.102   7.350
 7933POPC   C1B45991  30.109  29.284   6.450
 7933POPC   C2B45992  30.155  29.280   6.750
 7933POPC   C3B45993  30.105  29.267   7.050
 7933POPC   C4B45994  30.107  29.259   7.350
 7934POPC   NC345995  42.381  25.251   5.550
 7934POPC   PO445996  42.298  25.310   5.850
 7934POPC   GL145997  42.360  25.221   6.150
 7934POPC   GL245998  42.257  25.359   6.150
 7934POPC   C1A45999  42.344  25.282   6.450
 7934POPC   D2A46000  42.359  25.312   6.750
 7934POPC   C3A46001  42.288  25.282   7.050
 7934POPC   C4A46002  42.348  25.299   7.350
 7934POPC   C1B46003  42.218  25.456   6.450
 7934POPC   C2B46004  42.126  25.409   6.750
 7934POPC   C3B46005  42.181  25.423   7.050
 7934POPC   C4B46006  42.173  25.439   7.350
 7935POPC   NC346007   0.427  39.202   5.550
 7935POPC   PO446008   0.390  39.253   5.850
 7935POPC   GL146009   0.429  39.247   6.150
 7935POPC   GL246010   0.305  39.207   6.150
 7935POPC   C1A46011   0.462  39.232   6.450
 7935POPC   D2A46012   0.434  39.187   6.750
 7935POPC   C3A46013   0.462  39.200   7.050
 7935POPC   C4A46014   0.476  39.273   7.350
 7935POPC   C1B46015   0.236  39.251   6.450
 7935POPC   C2B46016   0.173  39.165   6.750
 7935POPC   C3B46017   0.197  39.196   7.050
 7935POPC   C4B46018   0.141  39.260   7.350
 7936POPC   NC346019  26.803  44.655   5.550
 7936POPC   PO446020  26.770  44.657   5.850
 7936POPC   GL146021  26.857  44.696   6.150
 7936POPC   GL246022  26.890  44.788   6.150
 7936POPC   C1A46023  26.855  44.634   6.450
 7936POPC   D2A46024  26.814  44.627   6.750
 7936POPC   C3A46025  26.787  44.627   7.050
 7936POPC   C4A46026  26.788  44.630   7.350
 7936POPC   C1B46027  27.007  44.825   6.450
 7936POPC   C2B46028  27.001  44.835   6.750
 7936POPC   C3B46029  26.941  44.876   7.050
 7936POPC   C4B46030  26.923  44.883   7.350
 7937POPC   NC346031  30.684  22.212   5.550
 7937POPC   PO446032  30.745  22.120   5.850
 7937POPC   GL146033  30.686  22.168   6.150
 7937POPC   GL246034  30.585  22.072   6.150
 7937POPC   C1A46035  30.726  22.151   6.450
 7937POPC   D2A46036  30.725  22.168   6.750
 7937POPC   C3A46037  30.677  22.120   7.050
 7937POPC   C4A46038  30.706  22.153   7.350
 7937POPC   C1B46039  30.443  22.004   6.450
 7937POPC   C2B46040  30.503  22.038   6.750
 7937POPC   C3B46041  30.441  22.038   7.050
 7937POPC   C4B46042  30.526  22.054   7.350
 7938POPC   NC346043  15.962   7.449   5.550
 7938POPC   PO446044  15.974   7.448   5.850
 7938POPC   GL146045  15.930   7.422   6.150
 7938POPC   GL246046  16.029   7.440   6.150
 7938POPC   C1A46047  15.927   7.396   6.450
 7938POPC   D2A46048  15.994   7.393   6.750
 7938POPC   C3A46049  15.907   7.391   7.050
 7938POPC   C4A46050  15.997   7.454   7.350
 7938POPC   C1B46051  16.193   7.415   6.450
 7938POPC   C2B46052  16.229   7.336   6.750
 7938POPC   C3B46053  16.158   7.347   7.050
 7938POPC   C4B46054  16.167   7.389   7.350
 7939POPC   NC346055  42.366  40.026   5.550
 7939POPC   PO446056  42.342  40.026   5.850
 7939POPC   GL146057  42.371  39.966   6.150
 7939POPC   GL246058  42.172  40.014   6.150
 7939POPC   C1A46059  42.353  40.007   6.450
 7939POPC   D2A46060  42.372  40.016   6.750
 7939POPC   C3A46061  42.383  39.998   7.050
 7939POPC   C4A46062  42.322  40.024   7.350
 7939POPC   C1B46063  42.117  39.928   6.450
 7939POPC   C2B46064  42.043  39.956   6.750
 7939POPC   C3B46065  42.046  39.954   7.050
 7939POPC   C4B46066  42.064  39.943   7.350
 7940POPC   NC346067   2.026  42.297   5.550
 7940POPC   PO446068   1.951  42.361   5.850
 7940POPC   GL146069   1.965  42.318   6.150
 7940POPC   GL246070   1.997  42.227   6.150
 7940POPC   C1A46071   1.980  42.309   6.450
 7940POPC   D2A46072   1.955  42.381   6.750
 7940POPC   C3A46073   1.972  42.355   7.050
 7940POPC   C4A46074   2.009  42.339   7.350
 7940POPC   C1B46075   1.919  42.102   6.450
 7940POPC   C2B46076   2.010  42.135   6.750
 7940POPC   C3B46077   1.912  42.054   7.050
 7940POPC   C4B46078   1.913  42.059   7.350
 7941POPC   NC346079  16.720  39.245   5.550
 7941POPC   PO446080  16.735  39.257   5.850
 7941POPC   GL146081  16.714  39.241   6.150
 7941POPC   GL246082  16.764  39.072   6.150
 7941POPC   C1A46083  16.718  39.258   6.450
 7941POPC   D2A46084  16.738  39.250   6.750
 7941POPC   C3A46085  16.712  39.278   7.050
 7941POPC   C4A46086  16.691  39.260   7.350
 7941POPC   C1B46087  16.763  38.980   6.450
 7941POPC   C2B46088  16.702  38.939   6.750
 7941POPC   C3B46089  16.753  39.010   7.050
 7941POPC   C4B46090  16.712  39.027   7.350
 7942POPC   NC346091  32.221  20.575   5.550
 7942POPC   PO446092  32.292  20.592   5.850
 7942POPC   GL146093  32.296  20.625   6.150
 7942POPC   GL246094  32.323  20.577   6.150
 7942POPC   C1A46095  32.211  20.621   6.450
 7942POPC   D2A46096  32.207  20.625   6.750
 7942POPC   C3A46097  32.257  20.639   7.050
 7942POPC   C4A46098  32.234  20.600   7.350
 7942POPC   C1B46099  32.498  20.584   6.450
 7942POPC   C2B46100  32.474  20.561   6.750
 7942POPC   C3B46101  32.494  20.561   7.050
 7942POPC   C4B46102  32.496  20.594   7.350
 7943POPC   NC346103   3.591  40.820   5.550
 7943POPC   PO446104   3.577  40.761   5.850
 7943POPC   GL146105   3.582  40.785   6.150
 7943POPC   GL246106   3.672  40.845   6.150
 7943POPC   C1A46107   3.584  40.815   6.450
 7943POPC   D2A46108   3.493  40.823   6.750
 7943POPC   C3A46109   3.512  40.775   7.050
 7943POPC   C4A46110   3.515  40.833   7.350
 7943POPC   C1B46111   3.807  40.847   6.450
 7943POPC   C2B46112   3.753  40.870   6.750
 7943POPC   C3B46113   3.752  40.818   7.050
 7943POPC   C4B46114   3.772  40.878   7.350
 7944POPC   NC346115   0.411   8.204   5.550
 7944POPC   PO446116   0.445   8.182   5.850
 7944POPC   GL146117   0.409   8.147   6.150
 7944POPC   GL246118   0.375   8.243   6.150
 7944POPC   C1A46119   0.453   8.206   6.450
 7944POPC   D2A46120   0.459   8.179   6.750
 7944POPC   C3A46121   0.417   8.224   7.050
 7944POPC   C4A46122   0.409   8.228   7.350
 7944POPC   C1B46123   0.210   8.400   6.450
 7944POPC   C2B46124   0.253   8.324   6.750
 7944POPC   C3B46125   0.299   8.415   7.050
 7944POPC   C4B46126   0.276   8.398   7.350
 7945POPC   NC346127  35.397   0.396   5.550
 7945POPC   PO446128  35.338   0.421   5.850
 7945POPC   GL146129  35.347   0.470   6.150
 7945POPC   GL246130  35.347   0.311   6.150
 7945POPC   C1A46131  35.349   0.393   6.450
 7945POPC   D2A46132  35.342   0.467   6.750
 7945POPC   C3A46133  35.343   0.466   7.050
 7945POPC   C4A46134  35.364   0.389   7.350
 7945POPC   C1B46135  35.421   0.208   6.450
 7945POPC   C2B46136  35.452   0.164   6.750
 7945POPC   C3B46137  35.386   0.187   7.050
 7945POPC   C4B46138  35.453   0.169   7.350
 7946POPC   NC346139   1.202  23.716   5.550
 7946POPC   PO446140   1.188  23.667   5.850
 7946POPC   GL146141   1.251  23.758   6.150
 7946POPC   GL246142   1.128  23.625   6.150
 7946POPC   C1A46143   1.242  23.704   6.450
 7946POPC   D2A46144   1.246  23.672   6.750
 7946POPC   C3A46145   1.247  23.713   7.050
 7946POPC   C4A46146   1.199  23.688   7.350
 7946POPC   C1B46147   1.039  23.547   6.450
 7946POPC   C2B46148   0.994  23.511   6.750
 7946POPC   C3B46149   1.054  23.550   7.050
 7946POPC   C4B46150   0.986  23.543   7.350
 7947POPC   NC346151  10.494  22.205   5.550
 7947POPC   PO446152  10.512  22.123   5.850
 7947POPC   GL146153  10.512  22.179   6.150
 7947POPC   GL246154  10.478  22.022   6.150
 7947POPC   C1A46155  10.519  22.167   6.450
 7947POPC   D2A46156  10.567  22.130   6.750
 7947POPC   C3A46157  10.549  22.122   7.050
 7947POPC   C4A46158  10.520  22.195   7.350
 7947POPC   C1B46159  10.366  21.971   6.450
 7947POPC   C2B46160  10.360  22.020   6.750
 7947POPC   C3B46161  10.324  21.960   7.050
 7947POPC   C4B46162  10.351  22.005   7.350
 7948POPC   NC346163  29.129  13.651   5.550
 7948POPC   PO446164  29.119  13.580   5.850
 7948POPC   GL146165  29.165  13.658   6.150
 7948POPC   GL246166  29.199  13.509   6.150
 7948POPC   C1A46167  29.156  13.596   6.450
 7948POPC   D2A46168  29.176  13.655   6.750
 7948POPC   C3A46169  29.124  13.658   7.050
 7948POPC   C4A46170  29.142  13.639   7.350
 7948POPC   C1B46171  29.129  13.424   6.450
 7948POPC   C2B46172  29.177  13.353   6.750
 7948POPC   C3B46173  29.187  13.360   7.050
 7948POPC   C4B46174  29.131  13.348   7.350
 7949POPC   NC346175  18.242  26.829   5.550
 7949POPC   PO446176  18.288  26.801   5.850
 7949POPC   GL146177  18.254  26.810   6.150
 7949POPC   GL246178  18.203  26.859   6.150
 7949POPC   C1A46179  18.303  26.841   6.450
 7949POPC   D2A46180  18.275  26.828   6.750
 7949POPC   C3A46181  18.327  26.856   7.050
 7949POPC   C4A46182  18.240  26.773   7.350
 7949POPC   C1B46183  18.036  26.874   6.450
 7949POPC   C2B46184  18.001  26.899   6.750
 7949POPC   C3B46185  18.048  26.846   7.050
 7949POPC   C4B46186  18.041  26.846   7.350
 7950POPC   NC346187  13.650  27.581   5.550
 7950POPC   PO446188  13.603  27.547   5.850
 7950POPC   GL146189  13.590  27.570   6.150
 7950POPC   GL246190  13.725  27.636   6.150
 7950POPC   C1A46191  13.602  27.615   6.450
 7950POPC   D2A46192  13.583  27.554   6.750
 7950POPC   C3A46193  13.606  27.639   7.050
 7950POPC   C4A46194  13.626  27.572   7.350
 7950POPC   C1B46195  13.856  27.722   6.450
 7950POPC   C2B46196  13.861  27.666   6.750
 7950POPC   C3B46197  13.823  27.688   7.050
 7950POPC   C4B46198  13.894  27.657   7.350
 7951POPC   NC346199  43.927  43.885   5.550
 7951POPC   PO446200  43.898  43.913   5.850
 7951POPC   GL146201  43.907  43.868   6.150
 7951POPC   GL246202  44.012  43.801   6.150
 7951POPC   C1A46203  43.883  43.923   6.450
 7951POPC   D2A46204  43.883  43.912   6.750
 7951POPC   C3A46205  43.875  43.910   7.050
 7951POPC   C4A46206  43.851  43.847   7.350
 7951POPC   C1B46207  44.124  43.711   6.450
 7951POPC   C2B46208  44.129  43.712   6.750
 7951POPC   C3B46209  44.122  43.730   7.050
 7951POPC   C4B46210  44.058  43.736   7.350
 7952POPC   NC346211  12.833   5.855   5.550
 7952POPC   PO446212  12.898   5.870   5.850
 7952POPC   GL146213  12.848   5.822   6.150
 7952POPC   GL246214  12.801   5.983   6.150
 7952POPC   C1A46215  12.870   5.909   6.450
 7952POPC   D2A46216  12.819   5.851   6.750
 7952POPC   C3A46217  12.822   5.842   7.050
 7952POPC   C4A46218  12.871   5.869   7.350
 7952POPC   C1B46219  12.688   6.058   6.450
 7952POPC   C2B46220  12.717   6.041   6.750
 7952POPC   C3B46221  12.667   6.075   7.050
 7952POPC   C4B46222  12.652   6.054   7.350
 7953POPC   NC346223   2.779   7.376   5.550
 7953POPC   PO446224   2.779   7.440   5.850
 7953POPC   GL146225   2.790   7.414   6.150
 7953POPC   GL246226   2.869   7.409   6.150
 7953POPC   C1A46227   2.741   7.385   6.450
 7953POPC   D2A46228   2.811   7.410   6.750
 7953POPC   C3A46229   2.742   7.383   7.050
 7953POPC   C4A46230   2.747   7.466   7.350
 7953POPC   C1B46231   3.053   7.341   6.450
 7953POPC   C2B46232   3.004   7.386   6.750
 7953POPC   C3B46233   3.035   7.401   7.050
 7953POPC   C4B46234   3.028   7.342   7.350
 7954POPC   NC346235  44.621  21.385   5.550
 7954POPC   PO446236  44.677  21.352   5.850
 7954POPC   GL146237  44.646  21.394   6.150
 7954POPC   GL246238  44.687  21.316   6.150
 7954POPC   C1A46239  44.695  21.427   6.450
 7954POPC   D2A46240  44.623  21.340   6.750
 7954POPC   C3A46241  44.645  21.351   7.050
 7954POPC   C4A46242  44.691  21.365   7.350
 7954POPC   C1B46243  44.739  21.122   6.450
 7954POPC   C2B46244  44.695  21.180   6.750
 7954POPC   C3B46245  44.769  21.101   7.050
 7954POPC   C4B46246  44.771  21.134   7.350
 7955POPC   NC346247  43.848  31.453   5.550
 7955POPC   PO446248  43.859  31.457   5.850
 7955POPC   GL146249  43.881  31.513   6.150
 7955POPC   GL246250  43.988  31.545   6.150
 7955POPC   C1A46251  43.904  31.477   6.450
 7955POPC   D2A46252  43.924  31.505   6.750
 7955POPC   C3A46253  43.853  31.486   7.050
 7955POPC   C4A46254  43.850  31.446   7.350
 7955POPC   C1B46255  44.091  31.651   6.450
 7955POPC   C2B46256  44.082  31.615   6.750
 7955POPC   C3B46257  44.052  31.585   7.050
 7955POPC   C4B46258  44.068  31.590   7.350
 7956POPC   NC346259  32.265  29.942   5.550
 7956POPC   PO446260  32.217  29.947   5.850
 7956POPC   GL146261  32.233  29.970   6.150
 7956POPC   GL246262  32.325  29.849   6.150
 7956POPC   C1A46263  32.256  29.930   6.450
 7956POPC   D2A46264  32.270  29.880   6.750
 7956POPC   C3A46265  32.293  29.948   7.050
 7956POPC   C4A46266  32.287  29.876   7.350
 7956POPC   C1B46267  32.392  29.729   6.450
 7956POPC   C2B46268  32.427  29.716   6.750
 7956POPC   C3B46269  32.421  29.775   7.050
 7956POPC   C4B46270  32.437  29.742   7.350
 7957POPC   NC346271   5.048  19.013   5.550
 7957POPC   PO446272   5.093  19.047   5.850
 7957POPC   GL146273   5.137  19.046   6.150
 7957POPC   GL246274   4.989  19.094   6.150
 7957POPC   C1A46275   5.142  19.083   6.450
 7957POPC   D2A46276   5.052  19.075   6.750
 7957POPC   C3A46277   5.132  19.077   7.050
 7957POPC   C4A46278   5.137  19.030   7.350
 7957POPC   C1B46279   4.871  19.193   6.450
 7957POPC   C2B46280   4.907  19.244   6.750
 7957POPC   C3B46281   4.891  19.249   7.050
 7957POPC   C4B46282   4.865  19.194   7.350
 7958POPC   NC346283   4.285  24.499   5.550
 7958POPC   PO446284   4.312  24.515   5.850
 7958POPC   GL146285   4.288  24.532   6.150
 7958POPC   GL246286   4.367  24.625   6.150
 7958POPC   C1A46287   4.331  24.454   6.450
 7958POPC   D2A46288   4.283  24.507   6.750
 7958POPC   C3A46289   4.300  24.475   7.050
 7958POPC   C4A46290   4.296  24.522   7.350
 7958POPC   C1B46291   4.333  24.696   6.450
 7958POPC   C2B46292   4.327  24.710   6.750
 7958POPC   C3B46293   4.365  24.771   7.050
 7958POPC   C4B46294   4.397  24.771   7.350
 7959POPC   NC346295  12.829  22.206   5.550
 7959POPC   PO446296  12.868  22.160   5.850
 7959POPC   GL146297  12.892  22.181   6.150
 7959POPC   GL246298  12.940  22.167   6.150
 7959POPC   C1A46299  12.824  22.198   6.450
 7959POPC   D2A46300  12.805  22.117   6.750
 7959POPC   C3A46301  12.803  22.158   7.050
 7959POPC   C4A46302  12.875  22.140   7.350
 7959POPC   C1B46303  13.068  22.048   6.450
 7959POPC   C2B46304  13.109  22.077   6.750
 7959POPC   C3B46305  13.120  22.065   7.050
 7959POPC   C4B46306  13.055  22.090   7.350
 7960POPC   NC346307  21.347  18.320   5.550
 7960POPC   PO446308  21.370  18.291   5.850
 7960POPC   GL146309  21.436  18.302   6.150
 7960POPC   GL246310  21.474  18.128   6.150
 7960POPC   C1A46311  21.369  18.297   6.450
 7960POPC   D2A46312  21.396  18.279   6.750
 7960POPC   C3A46313  21.426  18.304   7.050
 7960POPC   C4A46314  21.345  18.332   7.350
 7960POPC   C1B46315  21.478  18.038   6.450
 7960POPC   C2B46316  21.556  18.106   6.750
 7960POPC   C3B46317  21.563  18.088   7.050
 7960POPC   C4B46318  21.506  18.021   7.350
 7961POPC   NC346319  16.740   7.451   5.550
 7961POPC   PO446320  16.697   7.422   5.850
 7961POPC   GL146321  16.697   7.444   6.150
 7961POPC   GL246322  16.811   7.326   6.150
 7961POPC   C1A46323  16.707   7.408   6.450
 7961POPC   D2A46324  16.703   7.423   6.750
 7961POPC   C3A46325  16.776   7.424   7.050
 7961POPC   C4A46326  16.777   7.420   7.350
 7961POPC   C1B46327  16.917   7.278   6.450
 7961POPC   C2B46328  16.970   7.208   6.750
 7961POPC   C3B46329  16.938   7.286   7.050
 7961POPC   C4B46330  16.891   7.230   7.350
 7962POPC   NC346331  27.624  16.768   5.550
 7962POPC   PO446332  27.566  16.747   5.850
 7962POPC   GL146333  27.611  16.780   6.150
 7962POPC   GL246334  27.735  16.755   6.150
 7962POPC   C1A46335  27.628  16.728   6.450
 7962POPC   D2A46336  27.585  16.725   6.750
 7962POPC   C3A46337  27.619  16.692   7.050
 7962POPC   C4A46338  27.562  16.742   7.350
 7962POPC   C1B46339  27.829  16.875   6.450
 7962POPC   C2B46340  27.834  16.872   6.750
 7962POPC   C3B46341  27.852  16.830   7.050
 7962POPC   C4B46342  27.852  16.829   7.350
 7963POPC   NC346343   5.047  10.498   5.550
 7963POPC   PO446344   5.066  10.498   5.850
 7963POPC   GL146345   5.139  10.484   6.150
 7963POPC   GL246346   5.121  10.692   6.150
 7963POPC   C1A46347   5.067  10.532   6.450
 7963POPC   D2A46348   5.063  10.566   6.750
 7963POPC   C3A46349   5.131  10.552   7.050
 7963POPC   C4A46350   5.113  10.475   7.350
 7963POPC   C1B46351   5.123  10.777   6.450
 7963POPC   C2B46352   5.125  10.737   6.750
 7963POPC   C3B46353   5.044  10.779   7.050
 7963POPC   C4B46354   5.116  10.734   7.350
 7964POPC   NC346355  10.476  21.426   5.550
 7964POPC   PO446356  10.511  21.355   5.850
 7964POPC   GL146357  10.489  21.420   6.150
 7964POPC   GL246358  10.563  21.546   6.150
 7964POPC   C1A46359  10.487  21.434   6.450
 7964POPC   D2A46360  10.482  21.415   6.750
 7964POPC   C3A46361  10.568  21.398   7.050
 7964POPC   C4A46362  10.492  21.343   7.350
 7964POPC   C1B46363  10.601  21.583   6.450
 7964POPC   C2B46364  10.589  21.656   6.750
 7964POPC   C3B46365  10.527  21.610   7.050
 7964POPC   C4B46366  10.621  21.589   7.350
 7965POPC   NC346367  29.178   9.783   5.550
 7965POPC   PO446368  29.151   9.736   5.850
 7965POPC   GL146369  29.110   9.742   6.150
 7965POPC   GL246370  29.245   9.778   6.150
 7965POPC   C1A46371  29.144   9.771   6.450
 7965POPC   D2A46372  29.151   9.713   6.750
 7965POPC   C3A46373  29.115   9.776   7.050
 7965POPC   C4A46374  29.160   9.753   7.350
 7965POPC   C1B46375  29.427   9.728   6.450
 7965POPC   C2B46376  29.408   9.728   6.750
 7965POPC   C3B46377  29.353   9.680   7.050
 7965POPC   C4B46378  29.373   9.768   7.350
 7966POPC   NC346379  12.835  43.888   5.550
 7966POPC   PO446380  12.874  43.924   5.850
 7966POPC   GL146381  12.831  43.920   6.150
 7966POPC   GL246382  12.691  43.895   6.150
 7966POPC   C1A46383  12.900  43.927   6.450
 7966POPC   D2A46384  12.822  43.872   6.750
 7966POPC   C3A46385  12.809  43.861   7.050
 7966POPC   C4A46386  12.822  43.837   7.350
 7966POPC   C1B46387  12.583  43.922   6.450
 7966POPC   C2B46388  12.598  43.856   6.750
 7966POPC   C3B46389  12.552  43.889   7.050
 7966POPC   C4B46390  12.620  43.878   7.350
 7967POPC   NC346391   4.361  42.343   5.550
 7967POPC   PO446392   4.279  42.347   5.850
 7967POPC   GL146393   4.311  42.358   6.150
 7967POPC   GL246394   4.450  42.296   6.150
 7967POPC   C1A46395   4.323  42.323   6.450
 7967POPC   D2A46396   4.309  42.363   6.750
 7967POPC   C3A46397   4.313  42.366   7.050
 7967POPC   C4A46398   4.358  42.327   7.350
 7967POPC   C1B46399   4.564  42.287   6.450
 7967POPC   C2B46400   4.573  42.283   6.750
 7967POPC   C3B46401   4.551  42.330   7.050
 7967POPC   C4B46402   4.529  42.255   7.350
 7968POPC   NC346403   8.194  43.895   5.550
 7968POPC   PO446404   8.208  43.914   5.850
 7968POPC   GL146405   8.161  43.852   6.150
 7968POPC   GL246406   8.062  43.841   6.150
 7968POPC   C1A46407   8.187  43.855   6.450
 7968POPC   D2A46408   8.170  43.913   6.750
 7968POPC   C3A46409   8.177  43.889   7.050
 7968POPC   C4A46410   8.223  43.929   7.350
 7968POPC   C1B46411   7.957  43.709   6.450
 7968POPC   C2B46412   7.956  43.786   6.750
 7968POPC   C3B46413   7.986  43.716   7.050
 7968POPC   C4B46414   8.024  43.786   7.350
 7969POPC   NC346415  18.296  43.098   5.550
 7969POPC   PO446416  18.243  43.090   5.850
 7969POPC   GL146417  18.332  43.087   6.150
 7969POPC   GL246418  18.379  43.176   6.150
 7969POPC   C1A46419  18.284  43.153   6.450
 7969POPC   D2A46420  18.301  43.151   6.750
 7969POPC   C3A46421  18.322  43.090   7.050
 7969POPC   C4A46422  18.235  43.148   7.350
 7969POPC   C1B46423  18.458  43.275   6.450
 7969POPC   C2B46424  18.377  43.317   6.750
 7969POPC   C3B46425  18.434  43.300   7.050
 7969POPC   C4B46426  18.375  43.289   7.350
 7970POPC   NC346427  22.128   6.679   5.550
 7970POPC   PO446428  22.186   6.691   5.850
 7970POPC   GL146429  22.210   6.613   6.150
 7970POPC   GL246430  22.235   6.574   6.150
 7970POPC   C1A46431  22.135   6.628   6.450
 7970POPC   D2A46432  22.199   6.625   6.750
 7970POPC   C3A46433  22.155   6.649   7.050
 7970POPC   C4A46434  22.172   6.662   7.350
 7970POPC   C1B46435  22.388   6.486   6.450
 7970POPC   C2B46436  22.427   6.491   6.750
 7970POPC   C3B46437  22.381   6.576   7.050
 7970POPC   C4B46438  22.385   6.555   7.350
 7971POPC   NC346439  43.070  34.582   5.550
 7971POPC   PO446440  43.118  34.624   5.850
 7971POPC   GL146441  43.129  34.593   6.150
 7971POPC   GL246442  43.228  34.611   6.150
 7971POPC   C1A46443  43.085  34.594   6.450
 7971POPC   D2A46444  43.115  34.599   6.750
 7971POPC   C3A46445  43.134  34.539   7.050
 7971POPC   C4A46446  43.085  34.541   7.350
 7971POPC   C1B46447  43.337  34.621   6.450
 7971POPC   C2B46448  43.404  34.601   6.750
 7971POPC   C3B46449  43.404  34.644   7.050
 7971POPC   C4B46450  43.306  34.648   7.350
 7972POPC   NC346451  20.649  14.391   5.550
 7972POPC   PO446452  20.627  14.444   5.850
 7972POPC   GL146453  20.594  14.440   6.150
 7972POPC   GL246454  20.480  14.511   6.150
 7972POPC   C1A46455  20.616  14.378   6.450
 7972POPC   D2A46456  20.597  14.409   6.750
 7972POPC   C3A46457  20.590  14.440   7.050
 7972POPC   C4A46458  20.628  14.406   7.350
 7972POPC   C1B46459  20.367  14.545   6.450
 7972POPC   C2B46460  20.384  14.541   6.750
 7972POPC   C3B46461  20.356  14.503   7.050
 7972POPC   C4B46462  20.423  14.515   7.350
 7973POPC   NC346463  43.140  22.134   5.550
 7973POPC   PO446464  43.136  22.159   5.850
 7973POPC   GL146465  43.154  22.124   6.150
 7973POPC   GL246466  43.141  22.074   6.150
 7973POPC   C1A46467  43.075  22.168   6.450
 7973POPC   D2A46468  43.097  22.134   6.750
 7973POPC   C3A46469  43.097  22.174   7.050
 7973POPC   C4A46470  43.076  22.130   7.350
 7973POPC   C1B46471  43.106  21.867   6.450
 7973POPC   C2B46472  43.052  21.961   6.750
 7973POPC   C3B46473  43.059  21.948   7.050
 7973POPC   C4B46474  43.065  21.947   7.350
 7974POPC   NC346475  21.360  25.245   5.550
 7974POPC   PO446476  21.359  25.239   5.850
 7974POPC   GL146477  21.356  25.253   6.150
 7974POPC   GL246478  21.516  25.313   6.150
 7974POPC   C1A46479  21.436  25.297   6.450
 7974POPC   D2A46480  21.416  25.271   6.750
 7974POPC   C3A46481  21.379  25.308   7.050
 7974POPC   C4A46482  21.409  25.226   7.350
 7974POPC   C1B46483  21.594  25.407   6.450
 7974POPC   C2B46484  21.524  25.391   6.750
 7974POPC   C3B46485  21.529  25.394   7.050
 7974POPC   C4B46486  21.579  25.484   7.350
 7975POPC   NC346487   3.515   8.957   5.550
 7975POPC   PO446488   3.519   8.935   5.850
 7975POPC   GL146489   3.591   8.972   6.150
 7975POPC   GL246490   3.511   8.881   6.150
 7975POPC   C1A46491   3.567   9.010   6.450
 7975POPC   D2A46492   3.493   8.964   6.750
 7975POPC   C3A46493   3.543   8.952   7.050
 7975POPC   C4A46494   3.524   8.966   7.350
 7975POPC   C1B46495   3.433   8.727   6.450
 7975POPC   C2B46496   3.523   8.779   6.750
 7975POPC   C3B46497   3.518   8.777   7.050
 7975POPC   C4B46498   3.525   8.691   7.350
 7976POPC   NC346499  39.259  15.167   5.550
 7976POPC   PO446500  39.256  15.193   5.850
 7976POPC   GL146501  39.277  15.166   6.150
 7976POPC   GL246502  39.135  15.280   6.150
 7976POPC   C1A46503  39.277  15.195   6.450
 7976POPC   D2A46504  39.275  15.182   6.750
 7976POPC   C3A46505  39.240  15.203   7.050
 7976POPC   C4A46506  39.266  15.148   7.350
 7976POPC   C1B46507  39.042  15.399   6.450
 7976POPC   C2B46508  39.032  15.333   6.750
 7976POPC   C3B46509  39.088  15.344   7.050
 7976POPC   C4B46510  39.048  15.392   7.350
 7977POPC   NC346511   0.483   2.775   5.550
 7977POPC   PO446512   0.434   2.770   5.850
 7977POPC   GL146513   0.466   2.780   6.150
 7977POPC   GL246514   0.605   2.733   6.150
 7977POPC   C1A46515   0.441   2.749   6.450
 7977POPC   D2A46516   0.454   2.725   6.750
 7977POPC   C3A46517   0.478   2.745   7.050
 7977POPC   C4A46518   0.433   2.752   7.350
 7977POPC   C1B46519   0.655   2.763   6.450
 7977POPC   C2B46520   0.725   2.796   6.750
 7977POPC   C3B46521   0.715   2.778   7.050
 7977POPC   C4B46522   0.692   2.802   7.350
 7978POPC   NC346523  23.692  15.991   5.550
 7978POPC   PO446524  23.711  15.969   5.850
 7978POPC   GL146525  23.715  15.997   6.150
 7978POPC   GL246526  23.629  15.942   6.150
 7978POPC   C1A46527  23.687  15.950   6.450
 7978POPC   D2A46528  23.755  15.984   6.750
 7978POPC   C3A46529  23.760  15.978   7.050
 7978POPC   C4A46530  23.669  16.001   7.350
 7978POPC   C1B46531  23.492  15.932   6.450
 7978POPC   C2B46532  23.451  15.919   6.750
 7978POPC   C3B46533  23.458  15.882   7.050
 7978POPC   C4B46534  23.516  15.903   7.350
 7979POPC   NC346535  39.225  22.905   5.550
 7979POPC   PO446536  39.272  22.932   5.850
 7979POPC   GL146537  39.229  22.920   6.150
 7979POPC   GL246538  39.278  23.016   6.150
 7979POPC   C1A46539  39.196  22.936   6.450
 7979POPC   D2A46540  39.275  22.983   6.750
 7979POPC   C3A46541  39.268  22.983   7.050
 7979POPC   C4A46542  39.197  22.980   7.350
 7979POPC   C1B46543  39.301  23.213   6.450
 7979POPC   C2B46544  39.332  23.212   6.750
 7979POPC   C3B46545  39.317  23.142   7.050
 7979POPC   C4B46546  39.288  23.230   7.350
 7980POPC   NC346547  33.798  44.653   5.550
 7980POPC   PO446548  33.779  44.681   5.850
 7980POPC   GL146549  33.825  44.686   6.150
 7980POPC   GL246550  33.766  44.794   6.150
 7980POPC   C1A46551  33.819  44.623   6.450
 7980POPC   D2A46552  33.773  44.623   6.750
 7980POPC   C3A46553  33.783  44.656   7.050
 7980POPC   C4A46554  33.761  44.693   7.350
 7980POPC   C1B46555  33.650  44.900   6.450
 7980POPC   C2B46556  33.706  44.846   6.750
 7980POPC   C3B46557  33.689  44.836   7.050
 7980POPC   C4B46558  33.641  44.879   7.350
 7981POPC   NC346559  28.339   8.967   5.550
 7981POPC   PO446560  28.371   8.995   5.850
 7981POPC   GL146561  28.387   8.988   6.150
 7981POPC   GL246562  28.520   8.949   6.150
 7981POPC   C1A46563  28.343   8.971   6.450
 7981POPC   D2A46564  28.390   8.965   6.750
 7981POPC   C3A46565  28.347   8.971   7.050
 7981POPC   C4A46566  28.357   8.990   7.350
 7981POPC   C1B46567  28.603   8.979   6.450
 7981POPC   C2B46568  28.580   8.948   6.750
 7981POPC   C3B46569  28.627   8.937   7.050
 7981POPC   C4B46570  28.650   8.895   7.350
 7982POPC   NC346571  15.133  34.591   5.550
 7982POPC   PO446572  15.215  34.544   5.850
 7982POPC   GL146573  15.157  34.533   6.150
 7982POPC   GL246574  15.090  34.622   6.150
 7982POPC   C1A46575  15.221  34.573   6.450
 7982POPC   D2A46576  15.220  34.566   6.750
 7982POPC   C3A46577  15.176  34.555   7.050
 7982POPC   C4A46578  15.187  34.589   7.350
 7982POPC   C1B46579  14.903  34.607   6.450
 7982POPC   C2B46580  14.925  34.643   6.750
 7982POPC   C3B46581  14.964  34.612   7.050
 7982POPC   C4B46582  14.951  34.574   7.350
 7983POPC   NC346583   7.430  20.645   5.550
 7983POPC   PO446584   7.467  20.630   5.850
 7983POPC   GL146585   7.463  20.583   6.150
 7983POPC   GL246586   7.531  20.665   6.150
 7983POPC   C1A46587   7.438  20.574   6.450
 7983POPC   D2A46588   7.431  20.565   6.750
 7983POPC   C3A46589   7.463  20.629   7.050
 7983POPC   C4A46590   7.418  20.617   7.350
 7983POPC   C1B46591   7.714  20.589   6.450
 7983POPC   C2B46592   7.699  20.633   6.750
 7983POPC   C3B46593   7.693  20.600   7.050
 7983POPC   C4B46594   7.711  20.636   7.350
 7984POPC   NC346595  36.079  34.625   5.550
 7984POPC   PO446596  36.106  34.589   5.850
 7984POPC   GL146597  36.112  34.623   6.150
 7984POPC   GL246598  36.237  34.448   6.150
 7984POPC   C1A46599  36.116  34.549   6.450
 7984POPC   D2A46600  36.139  34.556   6.750
 7984POPC   C3A46601  36.114  34.598   7.050
 7984POPC   C4A46602  36.104  34.611   7.350
 7984POPC   C1B46603  36.307  34.388   6.450
 7984POPC   C2B46604  36.362  34.367   6.750
 7984POPC   C3B46605  36.284  34.457   7.050
 7984POPC   C4B46606  36.274  34.412   7.350
 7985POPC   NC346607  18.318  36.909   5.550
 7985POPC   PO446608  18.301  36.897   5.850
 7985POPC   GL146609  18.321  36.857   6.150
 7985POPC   GL246610  18.424  36.855   6.150
 7985POPC   C1A46611  18.236  36.919   6.450
 7985POPC   D2A46612  18.284  36.917   6.750
 7985POPC   C3A46613  18.297  36.915   7.050
 7985POPC   C4A46614  18.267  36.919   7.350
 7985POPC   C1B46615  18.506  36.859   6.450
 7985POPC   C2B46616  18.550  36.839   6.750
 7985POPC   C3B46617  18.506  36.817   7.050
 7985POPC   C4B46618  18.540  36.853   7.350
 7986POPC   NC346619  41.561   4.323   5.550
 7986POPC   PO446620  41.598   4.323   5.850
 7986POPC   GL146621  41.587   4.338   6.150
 7986POPC   GL246622  41.512   4.431   6.150
 7986POPC   C1A46623  41.582   4.302   6.450
 7986POPC   D2A46624  41.533   4.329   6.750
 7986POPC   C3A46625  41.595   4.322   7.050
 7986POPC   C4A46626  41.569   4.280   7.350
 7986POPC   C1B46627  41.376   4.553   6.450
 7986POPC   C2B46628  41.378   4.493   6.750
 7986POPC   C3B46629  41.415   4.483   7.050
 7986POPC   C4B46630  41.425   4.513   7.350
 7987POPC   NC346631   8.232  13.607   5.550
 7987POPC   PO446632   8.166  13.670   5.850
 7987POPC   GL146633   8.158  13.612   6.150
 7987POPC   GL246634   8.211  13.770   6.150
 7987POPC   C1A46635   8.162  13.652   6.450
 7987POPC   D2A46636   8.148  13.584   6.750
 7987POPC   C3A46637   8.170  13.579   7.050
 7987POPC   C4A46638   8.241  13.660   7.350
 7987POPC   C1B46639   8.298  13.895   6.450
 7987POPC   C2B46640   8.317  13.865   6.750
 7987POPC   C3B46641   8.225  13.817   7.050
 7987POPC   C4B46642   8.276  13.835   7.350
 7988POPC   NC346643   5.913  23.679   5.550
 7988POPC   PO446644   5.873  23.665   5.850
 7988POPC   GL146645   5.889  23.680   6.150
 7988POPC   GL246646   5.999  23.624   6.150
 7988POPC   C1A46647   5.917  23.742   6.450
 7988POPC   D2A46648   5.902  23.729   6.750
 7988POPC   C3A46649   5.867  23.673   7.050
 7988POPC   C4A46650   5.819  23.737   7.350
 7988POPC   C1B46651   6.068  23.670   6.450
 7988POPC   C2B46652   6.120  23.674   6.750
 7988POPC   C3B46653   6.071  23.593   7.050
 7988POPC   C4B46654   6.070  23.590   7.350
 7989POPC   NC346655   6.639  32.216   5.550
 7989POPC   PO446656   6.670  32.278   5.850
 7989POPC   GL146657   6.663  32.232   6.150
 7989POPC   GL246658   6.768  32.192   6.150
 7989POPC   C1A46659   6.600  32.229   6.450
 7989POPC   D2A46660   6.665  32.252   6.750
 7989POPC   C3A46661   6.687  32.255   7.050
 7989POPC   C4A46662   6.684  32.280   7.350
 7989POPC   C1B46663   6.856  32.090   6.450
 7989POPC   C2B46664   6.833  32.041   6.750
 7989POPC   C3B46665   6.784  32.033   7.050
 7989POPC   C4B46666   6.795  32.110   7.350
 7990POPC   NC346667  32.213  40.020   5.550
 7990POPC   PO446668  32.298  40.044   5.850
 7990POPC   GL146669  32.271  39.982   6.150
 7990POPC   GL246670  32.224  39.836   6.150
 7990POPC   C1A46671  32.217  40.032   6.450
 7990POPC   D2A46672  32.269  40.022   6.750
 7990POPC   C3A46673  32.291  39.993   7.050
 7990POPC   C4A46674  32.242  40.048   7.350
 7990POPC   C1B46675  32.246  39.715   6.450
 7990POPC   C2B46676  32.235  39.799   6.750
 7990POPC   C3B46677  32.245  39.779   7.050
 7990POPC   C4B46678  32.256  39.757   7.350
 7991POPC   NC346679  33.786  22.208   5.550
 7991POPC   PO446680  33.828  22.112   5.850
 7991POPC   GL146681  33.825  22.182   6.150
 7991POPC   GL246682  33.911  22.247   6.150
 7991POPC   C1A46683  33.792  22.159   6.450
 7991POPC   D2A46684  33.804  22.178   6.750
 7991POPC   C3A46685  33.766  22.152   7.050
 7991POPC   C4A46686  33.830  22.177   7.350
 7991POPC   C1B46687  33.958  22.319   6.450
 7991POPC   C2B46688  33.991  22.391   6.750
 7991POPC   C3B46689  33.953  22.364   7.050
 7991POPC   C4B46690  34.000  22.355   7.350
 7992POPC   NC346691  19.061   2.029   5.550
 7992POPC   PO446692  19.100   2.000   5.850
 7992POPC   GL146693  19.094   1.995   6.150
 7992POPC   GL246694  18.969   2.032   6.150
 7992POPC   C1A46695  19.021   2.010   6.450
 7992POPC   D2A46696  19.024   1.959   6.750
 7992POPC   C3A46697  19.013   1.984   7.050
 7992POPC   C4A46698  19.030   1.979   7.350
 7992POPC   C1B46699  18.887   2.173   6.450
 7992POPC   C2B46700  18.862   2.219   6.750
 7992POPC   C3B46701  18.842   2.166   7.050
 7992POPC   C4B46702  18.846   2.169   7.350
 7993POPC   NC346703  11.311  36.154   5.550
 7993POPC   PO446704  11.264  36.173   5.850
 7993POPC   GL146705  11.298  36.126   6.150
 7993POPC   GL246706  11.374  36.073   6.150
 7993POPC   C1A46707  11.339  36.143   6.450
 7993POPC   D2A46708  11.292  36.168   6.750
 7993POPC   C3A46709  11.275  36.139   7.050
 7993POPC   C4A46710  11.343  36.153   7.350
 7993POPC   C1B46711  11.450  35.954   6.450
 7993POPC   C2B46712  11.483  35.926   6.750
 7993POPC   C3B46713  11.477  35.932   7.050
 7993POPC   C4B46714  11.393  35.931   7.350
 7994POPC   NC346715  26.022  15.966   5.550
 7994POPC   PO446716  26.058  15.907   5.850
 7994POPC   GL146717  26.083  15.915   6.150
 7994POPC   GL246718  25.963  15.997   6.150
 7994POPC   C1A46719  26.028  15.989   6.450
 7994POPC   D2A46720  26.067  15.924   6.750
 7994POPC   C3A46721  26.011  15.927   7.050
 7994POPC   C4A46722  26.054  15.917   7.350
 7994POPC   C1B46723  25.747  15.951   6.450
 7994POPC   C2B46724  25.840  15.929   6.750
 7994POPC   C3B46725  25.796  15.945   7.050
 7994POPC   C4B46726  25.779  15.956   7.350
 7995POPC   NC346727  36.902  16.720   5.550
 7995POPC   PO446728  36.943  16.683   5.850
 7995POPC   GL146729  36.893  16.721   6.150
 7995POPC   GL246730  36.992  16.657   6.150
 7995POPC   C1A46731  36.882  16.746   6.450
 7995POPC   D2A46732  36.945  16.741   6.750
 7995POPC   C3A46733  36.887  16.704   7.050
 7995POPC   C4A46734  36.929  16.690   7.350
 7995POPC   C1B46735  37.113  16.719   6.450
 7995POPC   C2B46736  37.171  16.700   6.750
 7995POPC   C3B46737  37.195  16.624   7.050
 7995POPC   C4B46738  37.133  16.709   7.350
 7996POPC   NC346739  25.276  26.015   5.550
 7996POPC   PO446740  25.262  26.086   5.850
 7996POPC   GL146741  25.281  26.017   6.150
 7996POPC   GL246742  25.357  25.926   6.150
 7996POPC   C1A46743  25.283  26.018   6.450
 7996POPC   D2A46744  25.255  26.000   6.750
 7996POPC   C3A46745  25.276  26.000   7.050
 7996POPC   C4A46746  25.297  26.030   7.350
 7996POPC   C1B46747  25.461  25.921   6.450
 7996POPC   C2B46748  25.446  25.940   6.750
 7996POPC   C3B46749  25.456  25.921   7.050
 7996POPC   C4B46750  25.453  25.899   7.350
 7997POPC   NC346751  22.114  26.064   5.550
 7997POPC   PO446752  22.145  26.085   5.850
 7997POPC   GL146753  22.127  26.024   6.150
 7997POPC   GL246754  22.016  26.086   6.150
 7997POPC   C1A46755  22.137  26.018   6.450
 7997POPC   D2A46756  22.155  26.062   6.750
 7997POPC   C3A46757  22.130  26.069   7.050
 7997POPC   C4A46758  22.124  26.065   7.350
 7997POPC   C1B46759  21.874  26.063   6.450
 7997POPC   C2B46760  21.908  26.038   6.750
 7997POPC   C3B46761  21.883  26.041   7.050
 7997POPC   C4B46762  21.930  26.037   7.350
 7998POPC   NC346763  28.367   2.019   5.550
 7998POPC   PO446764  28.397   1.958   5.850
 7998POPC   GL146765  28.417   1.988   6.150
 7998POPC   GL246766  28.521   2.051   6.150
 7998POPC   C1A46767  28.388   1.992   6.450
 7998POPC   D2A46768  28.405   1.941   6.750
 7998POPC   C3A46769  28.399   1.999   7.050
 7998POPC   C4A46770  28.375   1.974   7.350
 7998POPC   C1B46771  28.591   1.996   6.450
 7998POPC   C2B46772  28.645   2.009   6.750
 7998POPC   C3B46773  28.621   2.055   7.050
 7998POPC   C4B46774  28.637   2.001   7.350
 7999POPC   NC346775  18.285   2.743   5.550
 7999POPC   PO446776  18.294   2.716   5.850
 7999POPC   GL146777  18.258   2.809   6.150
 7999POPC   GL246778  18.327   2.692   6.150
 7999POPC   C1A46779  18.332   2.738   6.450
 7999POPC   D2A46780  18.310   2.784   6.750
 7999POPC   C3A46781  18.256   2.799   7.050
 7999POPC   C4A46782  18.308   2.735   7.350
 7999POPC   C1B46783  18.430   2.594   6.450
 7999POPC   C2B46784  18.418   2.535   6.750
 7999POPC   C3B46785  18.418   2.577   7.050
 7999POPC   C4B46786  18.393   2.519   7.350
 8000POPC   NC346787  18.299  43.890   5.550
 8000POPC   PO446788  18.294  43.912   5.850
 8000POPC   GL146789  18.303  43.880   6.150
 8000POPC   GL246790  18.146  43.862   6.150
 8000POPC   C1A46791  18.274  43.862   6.450
 8000POPC   D2A46792  18.260  43.856   6.750
 8000POPC   C3A46793  18.252  43.879   7.050
 8000POPC   C4A46794  18.256  43.853   7.350
 8000POPC   C1B46795  18.028  43.879   6.450
 8000POPC   C2B46796  18.070  43.907   6.750
 8000POPC   C3B46797  18.074  43.932   7.050
 8000POPC   C4B46798  18.035  43.899   7.350
 8001POPC   NC346799  26.823  37.719   5.550
 8001POPC   PO446800  26.859  37.651   5.850
 8001POPC   GL146801  26.830  37.703   6.150
 8001POPC   GL246802  26.790  37.777   6.150
 8001POPC   C1A46803  26.865  37.702   6.450
 8001POPC   D2A46804  26.782  37.630   6.750
 8001POPC   C3A46805  26.845  37.696   7.050
 8001POPC   C4A46806  26.820  37.657   7.350
 8001POPC   C1B46807  26.817  37.925   6.450
 8001POPC   C2B46808  26.755  37.894   6.750
 8001POPC   C3B46809  26.833  37.933   7.050
 8001POPC   C4B46810  26.756  37.907   7.350
 8002POPC   NC346811  27.550  25.290   5.550
 8002POPC   PO446812  27.569  25.228   5.850
 8002POPC   GL146813  27.551  25.304   6.150
 8002POPC   GL246814  27.661  25.291   6.150
 8002POPC   C1A46815  27.594  25.243   6.450
 8002POPC   D2A46816  27.631  25.264   6.750
 8002POPC   C3A46817  27.609  25.219   7.050
 8002POPC   C4A46818  27.599  25.264   7.350
 8002POPC   C1B46819  27.779  25.311   6.450
 8002POPC   C2B46820  27.840  25.375   6.750
 8002POPC   C3B46821  27.855  25.368   7.050
 8002POPC   C4B46822  27.860  25.403   7.350
 8003POPC   NC346823  43.895   5.085   5.550
 8003POPC   PO446824  43.936   5.048   5.850
 8003POPC   GL146825  43.931   5.078   6.150
 8003POPC   GL246826  43.766   5.057   6.150
 8003POPC   C1A46827  43.843   5.095   6.450
 8003POPC   D2A46828  43.841   5.087   6.750
 8003POPC   C3A46829  43.881   5.052   7.050
 8003POPC   C4A46830  43.872   5.057   7.350
 8003POPC   C1B46831  43.663   5.070   6.450
 8003POPC   C2B46832  43.671   5.111   6.750
 8003POPC   C3B46833  43.670   5.086   7.050
 8003POPC   C4B46834  43.673   5.083   7.350
 8004POPC   NC346835  10.570  26.045   5.550
 8004POPC   PO446836  10.556  26.021   5.850
 8004POPC   GL146837  10.488  26.003   6.150
 8004POPC   GL246838  10.567  25.951   6.150
 8004POPC   C1A46839  10.556  26.066   6.450
 8004POPC   D2A46840  10.517  26.064   6.750
 8004POPC   C3A46841  10.505  26.050   7.050
 8004POPC   C4A46842  10.511  25.994   7.350
 8004POPC   C1B46843  10.648  25.841   6.450
 8004POPC   C2B46844  10.682  25.815   6.750
 8004POPC   C3B46845  10.705  25.901   7.050
 8004POPC   C4B46846  10.669  25.843   7.350
 8005POPC   NC346847  33.796  36.902   5.550
 8005POPC   PO446848  33.819  36.931   5.850
 8005POPC   GL146849  33.753  36.943   6.150
 8005POPC   GL246850  33.669  36.886   6.150
 8005POPC   C1A46851  33.835  36.897   6.450
 8005POPC   D2A46852  33.821  36.912   6.750
 8005POPC   C3A46853  33.824  36.863   7.050
 8005POPC   C4A46854  33.821  36.914   7.350
 8005POPC   C1B46855  33.586  36.817   6.450
 8005POPC   C2B46856  33.521  36.855   6.750
 8005POPC   C3B46857  33.548  36.893   7.050
 8005POPC   C4B46858  33.508  36.842   7.350
 8006POPC   NC346859  27.641  10.477   5.550
 8006POPC   PO446860  27.576  10.542   5.850
 8006POPC   GL146861  27.580  10.523   6.150
 8006POPC   GL246862  27.752  10.484   6.150
 8006POPC   C1A46863  27.628  10.499   6.450
 8006POPC   D2A46864  27.586  10.546   6.750
 8006POPC   C3A46865  27.561  10.546   7.050
 8006POPC   C4A46866  27.579  10.567   7.350
 8006POPC   C1B46867  27.807  10.516   6.450
 8006POPC   C2B46868  27.875  10.510   6.750
 8006POPC   C3B46869  27.852  10.495   7.050
 8006POPC   C4B46870  27.856  10.473   7.350
 8007POPC   NC346871  42.290  29.907   5.550
 8007POPC   PO446872  42.384  29.903   5.850
 8007POPC   GL146873  42.327  29.956   6.150
 8007POPC   GL246874  42.361  30.054   6.150
 8007POPC   C1A46875  42.343  29.922   6.450
 8007POPC   D2A46876  42.348  29.943   6.750
 8007POPC   C3A46877  42.350  29.899   7.050
 8007POPC   C4A46878  42.356  29.908   7.350
 8007POPC   C1B46879  42.410  30.140   6.450
 8007POPC   C2B46880  42.412  30.106   6.750
 8007POPC   C3B46881  42.474  30.149   7.050
 8007POPC   C4B46882  42.418  30.123   7.350
 8008POPC   NC346883  43.067   7.404   5.550
 8008POPC   PO446884  43.153   7.431   5.850
 8008POPC   GL146885  43.121   7.378   6.150
 8008POPC   GL246886  43.176   7.277   6.150
 8008POPC   C1A46887  43.157   7.455   6.450
 8008POPC   D2A46888  43.080   7.388   6.750
 8008POPC   C3A46889  43.122   7.457   7.050
 8008POPC   C4A46890  43.129   7.432   7.350
 8008POPC   C1B46891  43.116   7.157   6.450
 8008POPC   C2B46892  43.128   7.199   6.750
 8008POPC   C3B46893  43.177   7.199   7.050
 8008POPC   C4B46894  43.166   7.218   7.350
 8009POPC   NC346895  41.510  18.287   5.550
 8009POPC   PO446896  41.564  18.295   5.850
 8009POPC   GL146897  41.601  18.281   6.150
 8009POPC   GL246898  41.513  18.350   6.150
 8009POPC   C1A46899  41.525  18.277   6.450
 8009POPC   D2A46900  41.595  18.286   6.750
 8009POPC   C3A46901  41.547  18.282   7.050
 8009POPC   C4A46902  41.608  18.318   7.350
 8009POPC   C1B46903  41.482  18.475   6.450
 8009POPC   C2B46904  41.439  18.451   6.750
 8009POPC   C3B46905  41.481  18.507   7.050
 8009POPC   C4B46906  41.424  18.487   7.350
 8010POPC   NC346907  11.322  26.795   5.550
 8010POPC   PO446908  11.275  26.779   5.850
 8010POPC   GL146909  11.253  26.808   6.150
 8010POPC   GL246910  11.395  26.880   6.150
 8010POPC   C1A46911  11.302  26.796   6.450
 8010POPC   D2A46912  11.272  26.812   6.750
 8010POPC   C3A46913  11.300  26.794   7.050
 8010POPC   C4A46914  11.348  26.835   7.350
 8010POPC   C1B46915  11.484  26.925   6.450
 8010POPC   C2B46916  11.540  26.968   6.750
 8010POPC   C3B46917  11.536  26.929   7.050
 8010POPC   C4B46918  11.534  26.925   7.350
 8011POPC   NC346919  21.337  12.836   5.550
 8011POPC   PO446920  21.355  12.832   5.850
 8011POPC   GL146921  21.372  12.858   6.150
 8011POPC   GL246922  21.245  12.960   6.150
 8011POPC   C1A46923  21.361  12.871   6.450
 8011POPC   D2A46924  21.392  12.813   6.750
 8011POPC   C3A46925  21.420  12.867   7.050
 8011POPC   C4A46926  21.430  12.808   7.350
 8011POPC   C1B46927  21.171  12.963   6.450
 8011POPC   C2B46928  21.198  12.953   6.750
 8011POPC   C3B46929  21.139  13.001   7.050
 8011POPC   C4B46930  21.190  12.996   7.350
 8012POPC   NC346931  30.746   7.426   5.550
 8012POPC   PO446932  30.703   7.404   5.850
 8012POPC   GL146933  30.675   7.468   6.150
 8012POPC   GL246934  30.602   7.433   6.150
 8012POPC   C1A46935  30.712   7.462   6.450
 8012POPC   D2A46936  30.709   7.426   6.750
 8012POPC   C3A46937  30.697   7.415   7.050
 8012POPC   C4A46938  30.717   7.466   7.350
 8012POPC   C1B46939  30.417   7.522   6.450
 8012POPC   C2B46940  30.452   7.545   6.750
 8012POPC   C3B46941  30.473   7.559   7.050
 8012POPC   C4B46942  30.418   7.568   7.350
 8013POPC   NC346943  29.955  14.359   5.550
 8013POPC   PO446944  29.885  14.395   5.850
 8013POPC   GL146945  29.903  14.397   6.150
 8013POPC   GL246946  30.063  14.397   6.150
 8013POPC   C1A46947  29.912  14.369   6.450
 8013POPC   D2A46948  29.917  14.442   6.750
 8013POPC   C3A46949  29.953  14.375   7.050
 8013POPC   C4A46950  29.957  14.354   7.350
 8013POPC   C1B46951  30.214  14.393   6.450
 8013POPC   C2B46952  30.128  14.343   6.750
 8013POPC   C3B46953  30.145  14.303   7.050
 8013POPC   C4B46954  30.194  14.368   7.350
 8014POPC   NC346955  43.121  27.564   5.550
 8014POPC   PO446956  43.134  27.591   5.850
 8014POPC   GL146957  43.108  27.571   6.150
 8014POPC   GL246958  43.020  27.482   6.150
 8014POPC   C1A46959  43.077  27.597   6.450
 8014POPC   D2A46960  43.134  27.606   6.750
 8014POPC   C3A46961  43.147  27.568   7.050
 8014POPC   C4A46962  43.103  27.603   7.350
 8014POPC   C1B46963  42.938  27.359   6.450
 8014POPC   C2B46964  42.929  27.371   6.750
 8014POPC   C3B46965  43.016  27.351   7.050
 8014POPC   C4B46966  42.957  27.370   7.350
 8015POPC   NC346967  23.745   1.968   5.550
 8015POPC   PO446968  23.678   1.943   5.850
 8015POPC   GL146969  23.759   1.981   6.150
 8015POPC   GL246970  23.693   1.907   6.150
 8015POPC   C1A46971  23.758   2.032   6.450
 8015POPC   D2A46972  23.670   1.956   6.750
 8015POPC   C3A46973  23.707   2.015   7.050
 8015POPC   C4A46974  23.749   2.014   7.350
 8015POPC   C1B46975  23.742   1.732   6.450
 8015POPC   C2B46976  23.734   1.726   6.750
 8015POPC   C3B46977  23.706   1.751   7.050
 8015POPC   C4B46978  23.750   1.731   7.350
 8016POPC   NC346979  24.461   3.553   5.550
 8016POPC   PO446980  24.452   3.557   5.850
 8016POPC   GL146981  24.478   3.520   6.150
 8016POPC   GL246982  24.466   3.377   6.150
 8016POPC   C1A46983  24.486   3.550   6.450
 8016POPC   D2A46984  24.523   3.494   6.750
 8016POPC   C3A46985  24.492   3.529   7.050
 8016POPC   C4A46986  24.453   3.524   7.350
 8016POPC   C1B46987  24.385   3.303   6.450
 8016POPC   C2B46988  24.465   3.298   6.750
 8016POPC   C3B46989  24.369   3.269   7.050
 8016POPC   C4B46990  24.443   3.264   7.350
 8017POPC   NC346991  15.981  29.148   5.550
 8017POPC   PO446992  15.956  29.165   5.850
 8017POPC   GL146993  15.991  29.107   6.150
 8017POPC   GL246994  15.859  29.170   6.150
 8017POPC   C1A46995  16.004  29.161   6.450
 8017POPC   D2A46996  15.937  29.133   6.750
 8017POPC   C3A46997  15.995  29.120   7.050
 8017POPC   C4A46998  15.972  29.176   7.350
 8017POPC   C1B46999  15.681  29.067   6.450
 8017POPC   C2B47000  15.753  29.105   6.750
 8017POPC   C3B47001  15.751  29.102   7.050
 8017POPC   C4B47002  15.709  29.070   7.350
 8018POPC   NC347003   0.440  24.510   5.550
 8018POPC   PO447004   0.488  24.501   5.850
 8018POPC   GL147005   0.435  24.531   6.150
 8018POPC   GL247006   0.464  24.563   6.150
 8018POPC   C1A47007   0.455  24.444   6.450
 8018POPC   D2A47008   0.394  24.491   6.750
 8018POPC   C3A47009   0.443  24.442   7.050
 8018POPC   C4A47010   0.465  24.473   7.350
 8018POPC   C1B47011   0.543  24.671   6.450
 8018POPC   C2B47012   0.582  24.679   6.750
 8018POPC   C3B47013   0.563  24.729   7.050
 8018POPC   C4B47014   0.570  24.745   7.350
 8019POPC   NC347015  42.308  17.498   5.550
 8019POPC   PO447016  42.299  17.501   5.850
 8019POPC   GL147017  42.322  17.509   6.150
 8019POPC   GL247018  42.424  17.512   6.150
 8019POPC   C1A47019  42.311  17.509   6.450
 8019POPC   D2A47020  42.321  17.462   6.750
 8019POPC   C3A47021  42.325  17.478   7.050
 8019POPC   C4A47022  42.307  17.458   7.350
 8019POPC   C1B47023  42.529  17.467   6.450
 8019POPC   C2B47024  42.562  17.460   6.750
 8019POPC   C3B47025  42.597  17.407   7.050
 8019POPC   C4B47026  42.579  17.458   7.350
 8020POPC   NC347027   5.840  32.289   5.550
 8020POPC   PO447028   5.879  32.241   5.850
 8020POPC   GL147029   5.906  32.281   6.150
 8020POPC   GL247030   5.915  32.084   6.150
 8020POPC   C1A47031   5.842  32.221   6.450
 8020POPC   D2A47032   5.824  32.294   6.750
 8020POPC   C3A47033   5.822  32.289   7.050
 8020POPC   C4A47034   5.851  32.216   7.350
 8020POPC   C1B47035   5.873  31.962   6.450
 8020POPC   C2B47036   5.891  31.965   6.750
 8020POPC   C3B47037   5.957  31.955   7.050
 8020POPC   C4B47038   5.898  31.969   7.350
 8021POPC   NC347039  30.742   5.143   5.550
 8021POPC   PO447040  30.718   5.135   5.850
 8021POPC   GL147041  30.739   5.067   6.150
 8021POPC   GL247042  30.812   5.047   6.150
 8021POPC   C1A47043  30.689   5.044   6.450
 8021POPC   D2A47044  30.664   5.083   6.750
 8021POPC   C3A47045  30.693   5.075   7.050
 8021POPC   C4A47046  30.744   5.122   7.350
 8021POPC   C1B47047  30.946   5.053   6.450
 8021POPC   C2B47048  30.978   5.018   6.750
 8021POPC   C3B47049  30.973   5.069   7.050
 8021POPC   C4B47050  30.986   5.060   7.350
 8022POPC   NC347051  44.679  38.432   5.550
 8022POPC   PO447052  44.620  38.411   5.850
 8022POPC   GL147053  44.697  38.472   6.150
 8022POPC   GL247054  44.708  38.555   6.150
 8022POPC   C1A47055  44.691  38.422   6.450
 8022POPC   D2A47056  44.644  38.435   6.750
 8022POPC   C3A47057  44.666  38.466   7.050
 8022POPC   C4A47058  44.704  38.447   7.350
 8022POPC   C1B47059  44.827  38.623   6.450
 8022POPC   C2B47060  44.845  38.581   6.750
 8022POPC   C3B47061  44.872  38.629   7.050
 8022POPC   C4B47062  44.810  38.619   7.350
 8023POPC   NC347063   9.730  43.089   5.550
 8023POPC   PO447064   9.731  43.080   5.850
 8023POPC   GL147065   9.743  43.071   6.150
 8023POPC   GL247066   9.717  42.944   6.150
 8023POPC   C1A47067   9.700  43.105   6.450
 8023POPC   D2A47068   9.714  43.139   6.750
 8023POPC   C3A47069   9.712  43.124   7.050
 8023POPC   C4A47070   9.746  43.095   7.350
 8023POPC   C1B47071   9.807  42.867   6.450
 8023POPC   C2B47072   9.765  42.892   6.750
 8023POPC   C3B47073   9.755  42.829   7.050
 8023POPC   C4B47074   9.799  42.871   7.350
 8024POPC   NC347075  21.365  21.389   5.550
 8024POPC   PO447076  21.426  21.380   5.850
 8024POPC   GL147077  21.356  21.342   6.150
 8024POPC   GL247078  21.317  21.250   6.150
 8024POPC   C1A47079  21.375  21.353   6.450
 8024POPC   D2A47080  21.411  21.412   6.750
 8024POPC   C3A47081  21.394  21.370   7.050
 8024POPC   C4A47082  21.412  21.385   7.350
 8024POPC   C1B47083  21.366  21.125   6.450
 8024POPC   C2B47084  21.277  21.172   6.750
 8024POPC   C3B47085  21.329  21.118   7.050
 8024POPC   C4B47086  21.345  21.140   7.350
 8025POPC   NC347087  36.950  36.170   5.550
 8025POPC   PO447088  36.914  36.122   5.850
 8025POPC   GL147089  36.879  36.156   6.150
 8025POPC   GL247090  36.825  36.142   6.150
 8025POPC   C1A47091  36.913  36.160   6.450
 8025POPC   D2A47092  36.937  36.087   6.750
 8025POPC   C3A47093  36.936  36.123   7.050
 8025POPC   C4A47094  36.869  36.142   7.350
 8025POPC   C1B47095  36.615  36.130   6.450
 8025POPC   C2B47096  36.635  36.152   6.750
 8025POPC   C3B47097  36.685  36.193   7.050
 8025POPC   C4B47098  36.676  36.135   7.350
 8026POPC   NC347099  33.778  39.275   5.550
 8026POPC   PO447100  33.771  39.189   5.850
 8026POPC   GL147101  33.795  39.250   6.150
 8026POPC   GL247102  33.685  39.341   6.150
 8026POPC   C1A47103  33.834  39.187   6.450
 8026POPC   D2A47104  33.850  39.219   6.750
 8026POPC   C3A47105  33.769  39.229   7.050
 8026POPC   C4A47106  33.775  39.216   7.350
 8026POPC   C1B47107  33.621  39.434   6.450
 8026POPC   C2B47108  33.592  39.437   6.750
 8026POPC   C3B47109  33.652  39.445   7.050
 8026POPC   C4B47110  33.614  39.356   7.350
 8027POPC   NC347111  39.990   5.826   5.550
 8027POPC   PO447112  40.008   5.914   5.850
 8027POPC   GL147113  39.975   5.894   6.150
 8027POPC   GL247114  39.977   5.956   6.150
 8027POPC   C1A47115  40.039   5.830   6.450
 8027POPC   D2A47116  39.979   5.901   6.750
 8027POPC   C3A47117  40.009   5.880   7.050
 8027POPC   C4A47118  40.052   5.869   7.350
 8027POPC   C1B47119  39.928   6.110   6.450
 8027POPC   C2B47120  39.957   6.113   6.750
 8027POPC   C3B47121  39.996   6.138   7.050
 8027POPC   C4B47122  40.006   6.164   7.350
 8028POPC   NC347123  33.072  39.225   5.550
 8028POPC   PO447124  33.035  39.242   5.850
 8028POPC   GL147125  32.998  39.279   6.150
 8028POPC   GL247126  33.066  39.309   6.150
 8028POPC   C1A47127  32.989  39.184   6.450
 8028POPC   D2A47128  33.000  39.233   6.750
 8028POPC   C3A47129  33.047  39.251   7.050
 8028POPC   C4A47130  33.002  39.245   7.350
 8028POPC   C1B47131  33.191  39.424   6.450
 8028POPC   C2B47132  33.151  39.457   6.750
 8028POPC   C3B47133  33.121  39.441   7.050
 8028POPC   C4B47134  33.213  39.428   7.350
 8029POPC   NC347135  17.494   9.705   5.550
 8029POPC   PO447136  17.516   9.737   5.850
 8029POPC   GL147137  17.550   9.797   6.150
 8029POPC   GL247138  17.537   9.638   6.150
 8029POPC   C1A47139  17.502   9.739   6.450
 8029POPC   D2A47140  17.519   9.755   6.750
 8029POPC   C3A47141  17.516   9.791   7.050
 8029POPC   C4A47142  17.472   9.795   7.350
 8029POPC   C1B47143  17.449   9.525   6.450
 8029POPC   C2B47144  17.435   9.464   6.750
 8029POPC   C3B47145  17.501   9.523   7.050
 8029POPC   C4B47146  17.437   9.493   7.350
 8030POPC   NC347147  12.030  16.699   5.550
 8030POPC   PO447148  12.065  16.718   5.850
 8030POPC   GL147149  12.106  16.732   6.150
 8030POPC   GL247150  11.991  16.848   6.150
 8030POPC   C1A47151  12.072  16.726   6.450
 8030POPC   D2A47152  12.032  16.729   6.750
 8030POPC   C3A47153  12.091  16.742   7.050
 8030POPC   C4A47154  12.080  16.688   7.350
 8030POPC   C1B47155  11.911  16.992   6.450
 8030POPC   C2B47156  11.943  16.961   6.750
 8030POPC   C3B47157  11.990  16.903   7.050
 8030POPC   C4B47158  11.925  16.933   7.350
 8031POPC   NC347159  32.998  44.633   5.550
 8031POPC   PO447160  33.064  44.624   5.850
 8031POPC   GL147161  33.031  44.629   6.150
 8031POPC   GL247162  33.153  44.632   6.150
 8031POPC   C1A47163  33.001  44.635   6.450
 8031POPC   D2A47164  33.069  44.617   6.750
 8031POPC   C3A47165  33.062  44.670   7.050
 8031POPC   C4A47166  33.068  44.614   7.350
 8031POPC   C1B47167  33.265  44.496   6.450
 8031POPC   C2B47168  33.226  44.531   6.750
 8031POPC   C3B47169  33.197  44.510   7.050
 8031POPC   C4B47170  33.223  44.496   7.350
 8032POPC   NC347171  26.769   2.727   5.550
 8032POPC   PO447172  26.848   2.731   5.850
 8032POPC   GL147173  26.793   2.722   6.150
 8032POPC   GL247174  26.771   2.930   6.150
 8032POPC   C1A47175  26.834   2.772   6.450
 8032POPC   D2A47176  26.841   2.785   6.750
 8032POPC   C3A47177  26.853   2.802   7.050
 8032POPC   C4A47178  26.772   2.762   7.350
 8032POPC   C1B47179  26.772   2.979   6.450
 8032POPC   C2B47180  26.776   2.963   6.750
 8032POPC   C3B47181  26.708   3.045   7.050
 8032POPC   C4B47182  26.761   3.034   7.350
 8033POPC   NC347183  15.175  12.094   5.550
 8033POPC   PO447184  15.132  12.115   5.850
 8033POPC   GL147185  15.155  12.029   6.150
 8033POPC   GL247186  15.250  12.126   6.150
 8033POPC   C1A47187  15.222  12.106   6.450
 8033POPC   D2A47188  15.191  12.113   6.750
 8033POPC   C3A47189  15.194  12.102   7.050
 8033POPC   C4A47190  15.226  12.036   7.350
 8033POPC   C1B47191  15.398  12.270   6.450
 8033POPC   C2B47192  15.358  12.291   6.750
 8033POPC   C3B47193  15.318  12.222   7.050
 8033POPC   C4B47194  15.386  12.307   7.350
 8034POPC   NC347195  29.145   5.080   5.550
 8034POPC   PO447196  29.181   5.142   5.850
 8034POPC   GL147197  29.160   5.127   6.150
 8034POPC   GL247198  28.990   5.050   6.150
 8034POPC   C1A47199  29.149   5.133   6.450
 8034POPC   D2A47200  29.192   5.103   6.750
 8034POPC   C3A47201  29.100   5.118   7.050
 8034POPC   C4A47202  29.119   5.073   7.350
 8034POPC   C1B47203  28.938   5.033   6.450
 8034POPC   C2B47204  28.874   5.041   6.750
 8034POPC   C3B47205  28.903   5.044   7.050
 8034POPC   C4B47206  28.937   5.015   7.350
 8035POPC   NC347207  26.032  17.557   5.550
 8035POPC   PO447208  26.059  17.535   5.850
 8035POPC   GL147209  26.058  17.543   6.150
 8035POPC   GL247210  26.101  17.451   6.150
 8035POPC   C1A47211  25.997  17.511   6.450
 8035POPC   D2A47212  26.085  17.480   6.750
 8035POPC   C3A47213  26.003  17.544   7.050
 8035POPC   C4A47214  25.993  17.459   7.350
 8035POPC   C1B47215  26.259  17.330   6.450
 8035POPC   C2B47216  26.185  17.379   6.750
 8035POPC   C3B47217  26.240  17.306   7.050
 8035POPC   C4B47218  26.195  17.376   7.350
 8036POPC   NC347219  34.595  10.521   5.550
 8036POPC   PO447220  34.572  10.549   5.850
 8036POPC   GL147221  34.579  10.491   6.150
 8036POPC   GL247222  34.654  10.476   6.150
 8036POPC   C1A47223  34.547  10.572   6.450
 8036POPC   D2A47224  34.569  10.567   6.750
 8036POPC   C3A47225  34.551  10.568   7.050
 8036POPC   C4A47226  34.613  10.532   7.350
 8036POPC   C1B47227  34.752  10.388   6.450
 8036POPC   C2B47228  34.792  10.407   6.750
 8036POPC   C3B47229  34.764  10.407   7.050
 8036POPC   C4B47230  34.742  10.362   7.350
 8037POPC   NC347231   3.558  33.013   5.550
 8037POPC   PO447232   3.527  33.063   5.850
 8037POPC   GL147233   3.551  33.029   6.150
 8037POPC   GL247234   3.584  33.116   6.150
 8037POPC   C1A47235   3.570  33.014   6.450
 8037POPC   D2A47236   3.517  32.991   6.750
 8037POPC   C3A47237   3.590  32.989   7.050
 8037POPC   C4A47238   3.531  33.026   7.350
 8037POPC   C1B47239   3.627  33.283   6.450
 8037POPC   C2B47240   3.596  33.208   6.750
 8037POPC   C3B47241   3.666  33.274   7.050
 8037POPC   C4B47242   3.611  33.226   7.350
 8038POPC   NC347243  29.149   1.945   5.550
 8038POPC   PO447244  29.122   1.953   5.850
 8038POPC   GL147245  29.183   1.940   6.150
 8038POPC   GL247246  29.138   1.822   6.150
 8038POPC   C1A47247  29.177   2.021   6.450
 8038POPC   D2A47248  29.165   2.001   6.750
 8038POPC   C3A47249  29.183   1.944   7.050
 8038POPC   C4A47250  29.120   2.027   7.350
 8038POPC   C1B47251  29.225   1.759   6.450
 8038POPC   C2B47252  29.207   1.735   6.750
 8038POPC   C3B47253  29.194   1.788   7.050
 8038POPC   C4B47254  29.179   1.736   7.350
 8039POPC   NC347255   5.051  12.026   5.550
 8039POPC   PO447256   5.070  12.071   5.850
 8039POPC   GL147257   5.079  12.072   6.150
 8039POPC   GL247258   4.947  12.169   6.150
 8039POPC   C1A47259   5.100  12.117   6.450
 8039POPC   D2A47260   5.137  12.116   6.750
 8039POPC   C3A47261   5.137  12.054   7.050
 8039POPC   C4A47262   5.085  12.100   7.350
 8039POPC   C1B47263   4.837  12.206   6.450
 8039POPC   C2B47264   4.908  12.175   6.750
 8039POPC   C3B47265   4.832  12.171   7.050
 8039POPC   C4B47266   4.853  12.208   7.350
 8040POPC   NC347267  43.870  37.699   5.550
 8040POPC   PO447268  43.927  37.706   5.850
 8040POPC   GL147269  43.927  37.690   6.150
 8040POPC   GL247270  43.795  37.781   6.150
 8040POPC   C1A47271  43.916  37.687   6.450
 8040POPC   D2A47272  43.862  37.655   6.750
 8040POPC   C3A47273  43.932  37.696   7.050
 8040POPC   C4A47274  43.885  37.651   7.350
 8040POPC   C1B47275  43.711  37.823   6.450
 8040POPC   C2B47276  43.719  37.829   6.750
 8040POPC   C3B47277  43.687  37.793   7.050
 8040POPC   C4B47278  43.702  37.831   7.350
 8041POPC   NC347279  43.139  18.285   5.550
 8041POPC   PO447280  43.064  18.298   5.850
 8041POPC   GL147281  43.107  18.302   6.150
 8041POPC   GL247282  42.971  18.368   6.150
 8041POPC   C1A47283  43.073  18.251   6.450
 8041POPC   D2A47284  43.115  18.284   6.750
 8041POPC   C3A47285  43.062  18.268   7.050
 8041POPC   C4A47286  43.101  18.331   7.350
 8041POPC   C1B47287  42.908  18.475   6.450
 8041POPC   C2B47288  42.891  18.444   6.750
 8041POPC   C3B47289  42.931  18.473   7.050
 8041POPC   C4B47290  42.866  18.436   7.350
 8042POPC   NC347291   8.927  44.689   5.550
 8042POPC   PO447292   9.000  44.622   5.850
 8042POPC   GL147293   8.936  44.656   6.150
 8042POPC   GL247294   9.073  44.639   6.150
 8042POPC   C1A47295   8.950  44.615   6.450
 8042POPC   D2A47296   8.926  44.641   6.750
 8042POPC   C3A47297   9.012  44.641   7.050
 8042POPC   C4A47298   8.995  44.625   7.350
 8042POPC   C1B47299   9.217  44.549   6.450
 8042POPC   C2B47300   9.179  44.550   6.750
 8042POPC   C3B47301   9.178  44.629   7.050
 8042POPC   C4B47302   9.221  44.624   7.350
 8043POPC   NC347303  36.171  41.568   5.550
 8043POPC   PO447304  36.135  41.594   5.850
 8043POPC   GL147305  36.102  41.590   6.150
 8043POPC   GL247306  36.239  41.483   6.150
 8043POPC   C1A47307  36.088  41.527   6.450
 8043POPC   D2A47308  36.136  41.546   6.750
 8043POPC   C3A47309  36.135  41.604   7.050
 8043POPC   C4A47310  36.170  41.565   7.350
 8043POPC   C1B47311  36.295  41.379   6.450
 8043POPC   C2B47312  36.253  41.377   6.750
 8043POPC   C3B47313  36.216  41.307   7.050
 8043POPC   C4B47314  36.239  41.356   7.350
 8044POPC   NC347315  43.148  32.996   5.550
 8044POPC   PO447316  43.071  33.002   5.850
 8044POPC   GL147317  43.083  32.985   6.150
 8044POPC   GL247318  43.001  32.947   6.150
 8044POPC   C1A47319  43.097  33.031   6.450
 8044POPC   D2A47320  43.118  33.005   6.750
 8044POPC   C3A47321  43.097  33.028   7.050
 8044POPC   C4A47322  43.157  33.044   7.350
 8044POPC   C1B47323  42.933  32.835   6.450
 8044POPC   C2B47324  43.009  32.768   6.750
 8044POPC   C3B47325  43.019  32.856   7.050
 8044POPC   C4B47326  42.935  32.836   7.350
 8045POPC   NC347327  19.027  17.515   5.550
 8045POPC   PO447328  19.088  17.482   5.850
 8045POPC   GL147329  19.062  17.476   6.150
 8045POPC   GL247330  19.041  17.604   6.150
 8045POPC   C1A47331  19.044  17.525   6.450
 8045POPC   D2A47332  19.070  17.516   6.750
 8045POPC   C3A47333  19.092  17.491   7.050
 8045POPC   C4A47334  19.081  17.501   7.350
 8045POPC   C1B47335  18.939  17.744   6.450
 8045POPC   C2B47336  18.949  17.732   6.750
 8045POPC   C3B47337  18.936  17.757   7.050
 8045POPC   C4B47338  18.980  17.692   7.350
 8046POPC   NC347339   1.985  22.170   5.550
 8046POPC   PO447340   1.985  22.126   5.850
 8046POPC   GL147341   2.013  22.150   6.150
 8046POPC   GL247342   1.921  22.045   6.150
 8046POPC   C1A47343   1.977  22.114   6.450
 8046POPC   D2A47344   1.965  22.162   6.750
 8046POPC   C3A47345   2.007  22.155   7.050
 8046POPC   C4A47346   1.944  22.210   7.350
 8046POPC   C1B47347   1.843  21.938   6.450
 8046POPC   C2B47348   1.838  21.940   6.750
 8046POPC   C3B47349   1.897  21.945   7.050
 8046POPC   C4B47350   1.904  21.911   7.350
 8047POPC   NC347351  36.897  12.078   5.550
 8047POPC   PO447352  36.897  12.027   5.850
 8047POPC   GL147353  36.864  12.040   6.150
 8047POPC   GL247354  36.988  12.010   6.150
 8047POPC   C1A47355  36.894  12.114   6.450
 8047POPC   D2A47356  36.947  12.026   6.750
 8047POPC   C3A47357  36.898  12.042   7.050
 8047POPC   C4A47358  36.907  12.039   7.350
 8047POPC   C1B47359  37.057  11.908   6.450
 8047POPC   C2B47360  37.088  11.888   6.750
 8047POPC   C3B47361  37.134  11.893   7.050
 8047POPC   C4B47362  37.074  11.937   7.350
 8048POPC   NC347363  32.230  23.746   5.550
 8048POPC   PO447364  32.215  23.672   5.850
 8048POPC   GL147365  32.201  23.667   6.150
 8048POPC   GL247366  32.087  23.710   6.150
 8048POPC   C1A47367  32.272  23.735   6.450
 8048POPC   D2A47368  32.286  23.700   6.750
 8048POPC   C3A47369  32.222  23.751   7.050
 8048POPC   C4A47370  32.274  23.724   7.350
 8048POPC   C1B47371  31.990  23.585   6.450
 8048POPC   C2B47372  31.996  23.620   6.750
 8048POPC   C3B47373  31.983  23.588   7.050
 8048POPC   C4B47374  32.049  23.623   7.350
 8049POPC   NC347375  19.804   2.810   5.550
 8049POPC   PO447376  19.859   2.761   5.850
 8049POPC   GL147377  19.794   2.716   6.150
 8049POPC   GL247378  19.795   2.658   6.150
 8049POPC   C1A47379  19.811   2.804   6.450
 8049POPC   D2A47380  19.851   2.775   6.750
 8049POPC   C3A47381  19.823   2.723   7.050
 8049POPC   C4A47382  19.870   2.765   7.350
 8049POPC   C1B47383  19.760   2.503   6.450
 8049POPC   C2B47384  19.822   2.475   6.750
 8049POPC   C3B47385  19.810   2.550   7.050
 8049POPC   C4B47386  19.746   2.561   7.350
 8050POPC   NC347387   1.217   2.012   5.550
 8050POPC   PO447388   1.212   1.984   5.850
 8050POPC   GL147389   1.218   1.964   6.150
 8050POPC   GL247390   1.155   2.141   6.150
 8050POPC   C1A47391   1.219   2.021   6.450
 8050POPC   D2A47392   1.172   2.011   6.750
 8050POPC   C3A47393   1.262   2.011   7.050
 8050POPC   C4A47394   1.196   1.945   7.350
 8050POPC   C1B47395   1.151   2.194   6.450
 8050POPC   C2B47396   1.176   2.272   6.750
 8050POPC   C3B47397   1.128   2.244   7.050
 8050POPC   C4B47398   1.142   2.253   7.350
 8051POPC   NC347399  20.589  20.563   5.550
 8051POPC   PO447400  20.587  20.609   5.850
 8051POPC   GL147401  20.643  20.612   6.150
 8051POPC   GL247402  20.473  20.638   6.150
 8051POPC   C1A47403  20.628  20.625   6.450
 8051POPC   D2A47404  20.607  20.616   6.750
 8051POPC   C3A47405  20.562  20.644   7.050
 8051POPC   C4A47406  20.620  20.626   7.350
 8051POPC   C1B47407  20.365  20.638   6.450
 8051POPC   C2B47408  20.379  20.604   6.750
 8051POPC   C3B47409  20.335  20.658   7.050
 8051POPC   C4B47410  20.326  20.599   7.350
 8052POPC   NC347411  10.567  35.371   5.550
 8052POPC   PO447412  10.509  35.349   5.850
 8052POPC   GL147413  10.523  35.309   6.150
 8052POPC   GL247414  10.391  35.283   6.150
 8052POPC   C1A47415  10.510  35.337   6.450
 8052POPC   D2A47416  10.511  35.335   6.750
 8052POPC   C3A47417  10.497  35.370   7.050
 8052POPC   C4A47418  10.561  35.310   7.350
 8052POPC   C1B47419  10.304  35.199   6.450
 8052POPC   C2B47420  10.290  35.200   6.750
 8052POPC   C3B47421  10.274  35.201   7.050
 8052POPC   C4B47422  10.323  35.224   7.350
 8053POPC   NC347423  14.363  19.812   5.550
 8053POPC   PO447424  14.445  19.859   5.850
 8053POPC   GL147425  14.369  19.803   6.150
 8053POPC   GL247426  14.522  19.737   6.150
 8053POPC   C1A47427  14.426  19.797   6.450
 8053POPC   D2A47428  14.390  19.818   6.750
 8053POPC   C3A47429  14.369  19.864   7.050
 8053POPC   C4A47430  14.431  19.842   7.350
 8053POPC   C1B47431  14.540  19.710   6.450
 8053POPC   C2B47432  14.568  19.716   6.750
 8053POPC   C3B47433  14.621  19.716   7.050
 8053POPC   C4B47434  14.607  19.712   7.350
 8054POPC   NC347435  40.765  26.791   5.550
 8054POPC   PO447436  40.758  26.832   5.850
 8054POPC   GL147437  40.765  26.822   6.150
 8054POPC   GL247438  40.899  26.883   6.150
 8054POPC   C1A47439  40.778  26.840   6.450
 8054POPC   D2A47440  40.765  26.828   6.750
 8054POPC   C3A47441  40.776  26.854   7.050
 8054POPC   C4A47442  40.828  26.782   7.350
 8054POPC   C1B47443  41.021  26.953   6.450
 8054POPC   C2B47444  41.008  26.888   6.750
 8054POPC   C3B47445  41.037  26.906   7.050
 8054POPC   C4B47446  41.015  26.936   7.350
 8055POPC   NC347447  43.146  39.197   5.550
 8055POPC   PO447448  43.067  39.235   5.850
 8055POPC   GL147449  43.156  39.212   6.150
 8055POPC   GL247450  43.201  39.251   6.150
 8055POPC   C1A47451  43.137  39.250   6.450
 8055POPC   D2A47452  43.118  39.268   6.750
 8055POPC   C3A47453  43.087  39.239   7.050
 8055POPC   C4A47454  43.111  39.182   7.350
 8055POPC   C1B47455  43.358  39.232   6.450
 8055POPC   C2B47456  43.310  39.284   6.750
 8055POPC   C3B47457  43.356  39.244   7.050
 8055POPC   C4B47458  43.334  39.268   7.350
 8056POPC   NC347459   9.715  36.859   5.550
 8056POPC   PO447460   9.719  36.885   5.850
 8056POPC   GL147461   9.775  36.914   6.150
 8056POPC   GL247462   9.703  36.747   6.150
 8056POPC   C1A47463   9.789  36.918   6.450
 8056POPC   D2A47464   9.775  36.933   6.750
 8056POPC   C3A47465   9.718  36.920   7.050
 8056POPC   C4A47466   9.744  36.910   7.350
 8056POPC   C1B47467   9.672  36.695   6.450
 8056POPC   C2B47468   9.642  36.707   6.750
 8056POPC   C3B47469   9.636  36.659   7.050
 8056POPC   C4B47470   9.662  36.683   7.350
 8057POPC   NC347471  33.068   2.756   5.550
 8057POPC   PO447472  33.015   2.780   5.850
 8057POPC   GL147473  32.976   2.806   6.150
 8057POPC   GL247474  33.144   2.716   6.150
 8057POPC   C1A47475  33.073   2.786   6.450
 8057POPC   D2A47476  33.058   2.797   6.750
 8057POPC   C3A47477  33.033   2.791   7.050
 8057POPC   C4A47478  33.045   2.738   7.350
 8057POPC   C1B47479  33.283   2.727   6.450
 8057POPC   C2B47480  33.226   2.761   6.750
 8057POPC   C3B47481  33.231   2.699   7.050
 8057POPC   C4B47482  33.232   2.721   7.350
 8058POPC   NC347483  10.567  30.699   5.550
 8058POPC   PO447484  10.508  30.681   5.850
 8058POPC   GL147485  10.501  30.665   6.150
 8058POPC   GL247486  10.587  30.584   6.150
 8058POPC   C1A47487  10.494  30.652   6.450
 8058POPC   D2A47488  10.565  30.678   6.750
 8058POPC   C3A47489  10.572  30.739   7.050
 8058POPC   C4A47490  10.494  30.723   7.350
 8058POPC   C1B47491  10.623  30.529   6.450
 8058POPC   C2B47492  10.657  30.439   6.750
 8058POPC   C3B47493  10.630  30.455   7.050
 8058POPC   C4B47494  10.700  30.519   7.350
 8059POPC   NC347495  37.646  19.087   5.550
 8059POPC   PO447496  37.707  19.043   5.850
 8059POPC   GL147497  37.716  19.108   6.150
 8059POPC   GL247498  37.623  19.114   6.150
 8059POPC   C1A47499  37.655  19.012   6.450
 8059POPC   D2A47500  37.650  19.028   6.750
 8059POPC   C3A47501  37.638  19.045   7.050
 8059POPC   C4A47502  37.666  19.066   7.350
 8059POPC   C1B47503  37.527  19.222   6.450
 8059POPC   C2B47504  37.550  19.249   6.750
 8059POPC   C3B47505  37.509  19.227   7.050
 8059POPC   C4B47506  37.505  19.247   7.350
 8060POPC   NC347507  37.705  36.087   5.550
 8060POPC   PO447508  37.709  36.115   5.850
 8060POPC   GL147509  37.647  36.112   6.150
 8060POPC   GL247510  37.770  36.022   6.150
 8060POPC   C1A47511  37.662  36.170   6.450
 8060POPC   D2A47512  37.710  36.125   6.750
 8060POPC   C3A47513  37.689  36.127   7.050
 8060POPC   C4A47514  37.660  36.124   7.350
 8060POPC   C1B47515  37.931  36.061   6.450
 8060POPC   C2B47516  37.917  36.003   6.750
 8060POPC   C3B47517  37.940  35.994   7.050
 8060POPC   C4B47518  37.948  35.976   7.350
 8061POPC   NC347519  23.665   0.479   5.550
 8061POPC   PO447520  23.704   0.408   5.850
 8061POPC   GL147521  23.748   0.481   6.150
 8061POPC   GL247522  23.686   0.307   6.150
 8061POPC   C1A47523  23.762   0.465   6.450
 8061POPC   D2A47524  23.696   0.418   6.750
 8061POPC   C3A47525  23.710   0.474   7.050
 8061POPC   C4A47526  23.702   0.434   7.350
 8061POPC   C1B47527  23.660   0.174   6.450
 8061POPC   C2B47528  23.664   0.197   6.750
 8061POPC   C3B47529  23.708   0.218   7.050
 8061POPC   C4B47530  23.613   0.189   7.350
 8062POPC   NC347531   8.158  43.064   5.550
 8062POPC   PO447532   8.184  43.074   5.850
 8062POPC   GL147533   8.219  43.066   6.150
 8062POPC   GL247534   8.139  43.236   6.150
 8062POPC   C1A47535   8.196  43.131   6.450
 8062POPC   D2A47536   8.235  43.093   6.750
 8062POPC   C3A47537   8.236  43.090   7.050
 8062POPC   C4A47538   8.210  43.145   7.350
 8062POPC   C1B47539   8.109  43.346   6.450
 8062POPC   C2B47540   8.193  43.398   6.750
 8062POPC   C3B47541   8.138  43.355   7.050
 8062POPC   C4B47542   8.189  43.386   7.350
 8063POPC   NC347543  19.080  19.055   5.550
 8063POPC   PO447544  19.067  19.084   5.850
 8063POPC   GL147545  19.071  19.023   6.150
 8063POPC   GL247546  19.047  18.954   6.150
 8063POPC   C1A47547  19.073  19.063   6.450
 8063POPC   D2A47548  19.079  19.070   6.750
 8063POPC   C3A47549  19.089  19.045   7.050
 8063POPC   C4A47550  19.107  19.077   7.350
 8063POPC   C1B47551  18.984  18.852   6.450
 8063POPC   C2B47552  18.956  18.883   6.750
 8063POPC   C3B47553  18.912  18.790   7.050
 8063POPC   C4B47554  18.908  18.802   7.350
 8064POPC   NC347555  28.405  15.156   5.550
 8064POPC   PO447556  28.404  15.176   5.850
 8064POPC   GL147557  28.409  15.150   6.150
 8064POPC   GL247558  28.436  15.084   6.150
 8064POPC   C1A47559  28.328  15.144   6.450
 8064POPC   D2A47560  28.362  15.153   6.750
 8064POPC   C3A47561  28.362  15.186   7.050
 8064POPC   C4A47562  28.379  15.197   7.350
 8064POPC   C1B47563  28.585  15.034   6.450
 8064POPC   C2B47564  28.602  14.999   6.750
 8064POPC   C3B47565  28.550  15.018   7.050
 8064POPC   C4B47566  28.563  15.003   7.350
 8065POPC   NC347567  43.889   8.206   5.550
 8065POPC   PO447568  43.871   8.242   5.850
 8065POPC   GL147569  43.872   8.175   6.150
 8065POPC   GL247570  43.937   8.074   6.150
 8065POPC   C1A47571  43.935   8.221   6.450
 8065POPC   D2A47572  43.936   8.238   6.750
 8065POPC   C3A47573  43.898   8.183   7.050
 8065POPC   C4A47574  43.900   8.159   7.350
 8065POPC   C1B47575  43.986   7.944   6.450
 8065POPC   C2B47576  44.039   7.933   6.750
 8065POPC   C3B47577  44.026   7.939   7.050
 8065POPC   C4B47578  43.962   8.006   7.350
 8066POPC   NC347579  22.134  15.219   5.550
 8066POPC   PO447580  22.113  15.205   5.850
 8066POPC   GL147581  22.210  15.195   6.150
 8066POPC   GL247582  22.027  15.229   6.150
 8066POPC   C1A47583  22.174  15.187   6.450
 8066POPC   D2A47584  22.176  15.132   6.750
 8066POPC   C3A47585  22.184  15.179   7.050
 8066POPC   C4A47586  22.117  15.208   7.350
 8066POPC   C1B47587  21.960  15.276   6.450
 8066POPC   C2B47588  21.902  15.227   6.750
 8066POPC   C3B47589  21.955  15.274   7.050
 8066POPC   C4B47590  21.897  15.267   7.350
 8067POPC   NC347591  28.397  10.527   5.550
 8067POPC   PO447592  28.324  10.488   5.850
 8067POPC   GL147593  28.385  10.531   6.150
 8067POPC   GL247594  28.384  10.600   6.150
 8067POPC   C1A47595  28.381  10.522   6.450
 8067POPC   D2A47596  28.358  10.539   6.750
 8067POPC   C3A47597  28.369  10.544   7.050
 8067POPC   C4A47598  28.329  10.530   7.350
 8067POPC   C1B47599  28.489  10.737   6.450
 8067POPC   C2B47600  28.451  10.755   6.750
 8067POPC   C3B47601  28.426  10.787   7.050
 8067POPC   C4B47602  28.448  10.714   7.350
 8068POPC   NC347603  42.328   1.190   5.550
 8068POPC   PO447604  42.313   1.168   5.850
 8068POPC   GL147605  42.354   1.192   6.150
 8068POPC   GL247606  42.164   1.248   6.150
 8068POPC   C1A47607  42.311   1.181   6.450
 8068POPC   D2A47608  42.293   1.215   6.750
 8068POPC   C3A47609  42.288   1.242   7.050
 8068POPC   C4A47610  42.314   1.227   7.350
 8068POPC   C1B47611  42.068   1.273   6.450
 8068POPC   C2B47612  42.068   1.310   6.750
 8068POPC   C3B47613  42.110   1.234   7.050
 8068POPC   C4B47614  42.055   1.292   7.350
 8069POPC   NC347615  43.934  13.641   5.550
 8069POPC   PO447616  43.933  13.638   5.850
 8069POPC   GL147617  43.838  13.648   6.150
 8069POPC   GL247618  43.824  13.455   6.150
 8069POPC   C1A47619  43.930  13.657   6.450
 8069POPC   D2A47620  43.923  13.627   6.750
 8069POPC   C3A47621  43.868  13.673   7.050
 8069POPC   C4A47622  43.842  13.635   7.350
 8069POPC   C1B47623  43.845  13.373   6.450
 8069POPC   C2B47624  43.837  13.408   6.750
 8069POPC   C3B47625  43.824  13.410   7.050
 8069POPC   C4B47626  43.821  13.419   7.350
 8070POPC   NC347627  15.208  41.590   5.550
 8070POPC   PO447628  15.153  41.607   5.850
 8070POPC   GL147629  15.137  41.561   6.150
 8070POPC   GL247630  15.317  41.562   6.150
 8070POPC   C1A47631  15.220  41.555   6.450
 8070POPC   D2A47632  15.223  41.563   6.750
 8070POPC   C3A47633  15.140  41.592   7.050
 8070POPC   C4A47634  15.196  41.523   7.350
 8070POPC   C1B47635  15.409  41.630   6.450
 8070POPC   C2B47636  15.387  41.594   6.750
 8070POPC   C3B47637  15.402  41.639   7.050
 8070POPC   C4B47638  15.456  41.593   7.350
 8071POPC   NC347639  26.050   0.423   5.550
 8071POPC   PO447640  26.020   0.413   5.850
 8071POPC   GL147641  25.999   0.486   6.150
 8071POPC   GL247642  26.193   0.446   6.150
 8071POPC   C1A47643  26.018   0.446   6.450
 8071POPC   D2A47644  26.072   0.429   6.750
 8071POPC   C3A47645  26.027   0.419   7.050
 8071POPC   C4A47646  26.003   0.403   7.350
 8071POPC   C1B47647  26.248   0.499   6.450
 8071POPC   C2B47648  26.267   0.512   6.750
 8071POPC   C3B47649  26.330   0.480   7.050
 8071POPC   C4B47650  26.253   0.447   7.350
 8072POPC   NC347651  11.336  31.434   5.550
 8072POPC   PO447652  11.263  31.493   5.850
 8072POPC   GL147653  11.288  31.462   6.150
 8072POPC   GL247654  11.303  31.629   6.150
 8072POPC   C1A47655  11.289  31.501   6.450
 8072POPC   D2A47656  11.297  31.509   6.750
 8072POPC   C3A47657  11.266  31.444   7.050
 8072POPC   C4A47658  11.318  31.472   7.350
 8072POPC   C1B47659  11.256  31.682   6.450
 8072POPC   C2B47660  11.295  31.701   6.750
 8072POPC   C3B47661  11.295  31.757   7.050
 8072POPC   C4B47662  11.324  31.762   7.350
 8073POPC   NC347663  20.636  12.858   5.550
 8073POPC   PO447664  20.635  12.862   5.850
 8073POPC   GL147665  20.645  12.876   6.150
 8073POPC   GL247666  20.659  12.708   6.150
 8073POPC   C1A47667  20.590  12.843   6.450
 8073POPC   D2A47668  20.645  12.883   6.750
 8073POPC   C3A47669  20.572  12.831   7.050
 8073POPC   C4A47670  20.646  12.807   7.350
 8073POPC   C1B47671  20.665  12.576   6.450
 8073POPC   C2B47672  20.588  12.641   6.750
 8073POPC   C3B47673  20.603  12.604   7.050
 8073POPC   C4B47674  20.595  12.610   7.350
 8074POPC   NC347675  37.639  40.028   5.550
 8074POPC   PO447676  37.728  40.004   5.850
 8074POPC   GL147677  37.642  39.975   6.150
 8074POPC   GL247678  37.702  40.119   6.150
 8074POPC   C1A47679  37.675  39.993   6.450
 8074POPC   D2A47680  37.639  40.031   6.750
 8074POPC   C3A47681  37.721  40.001   7.050
 8074POPC   C4A47682  37.655  39.966   7.350
 8074POPC   C1B47683  37.752  40.288   6.450
 8074POPC   C2B47684  37.761  40.207   6.750
 8074POPC   C3B47685  37.731  40.276   7.050
 8074POPC   C4B47686  37.718  40.251   7.350
 8075POPC   NC347687  43.863  28.416   5.550
 8075POPC   PO447688  43.933  28.363   5.850
 8075POPC   GL147689  43.840  28.366   6.150
 8075POPC   GL247690  43.947  28.509   6.150
 8075POPC   C1A47691  43.883  28.363   6.450
 8075POPC   D2A47692  43.847  28.382   6.750
 8075POPC   C3A47693  43.866  28.356   7.050
 8075POPC   C4A47694  43.921  28.338   7.350
 8075POPC   C1B47695  44.072  28.550   6.450
 8075POPC   C2B47696  43.987  28.524   6.750
 8075POPC   C3B47697  44.019  28.522   7.050
 8075POPC   C4B47698  44.015  28.550   7.350
 8076POPC   NC347699  27.547  44.636   5.550
 8076POPC   PO447700  27.585  44.635   5.850
 8076POPC   GL147701  27.595  44.689   6.150
 8076POPC   GL247702  27.741  44.694   6.150
 8076POPC   C1A47703  27.610  44.694   6.450
 8076POPC   D2A47704  27.594  44.617   6.750
 8076POPC   C3A47705  27.608  44.650   7.050
 8076POPC   C4A47706  27.568  44.666   7.350
 8076POPC   C1B47707  27.856  44.661   6.450
 8076POPC   C2B47708  27.823  44.679   6.750
 8076POPC   C3B47709  27.852  44.660   7.050
 8076POPC   C4B47710  27.807  44.610   7.350
 8077POPC   NC347711  33.818  43.887   5.550
 8077POPC   PO447712  33.754  43.869   5.850
 8077POPC   GL147713  33.845  43.934   6.150
 8077POPC   GL247714  33.691  43.870   6.150
 8077POPC   C1A47715  33.763  43.892   6.450
 8077POPC   D2A47716  33.837  43.892   6.750
 8077POPC   C3A47717  33.784  43.898   7.050
 8077POPC   C4A47718  33.830  43.904   7.350
 8077POPC   C1B47719  33.577  43.771   6.450
 8077POPC   C2B47720  33.530  43.771   6.750
 8077POPC   C3B47721  33.514  43.860   7.050
 8077POPC   C4B47722  33.551  43.771   7.350
 8078POPC   NC347723  17.526   2.029   5.550
 8078POPC   PO447724  17.492   1.940   5.850
 8078POPC   GL147725  17.545   1.947   6.150
 8078POPC   GL247726  17.402   1.978   6.150
 8078POPC   C1A47727  17.554   2.001   6.450
 8078POPC   D2A47728  17.485   1.972   6.750
 8078POPC   C3A47729  17.540   2.006   7.050
 8078POPC   C4A47730  17.515   1.942   7.350
 8078POPC   C1B47731  17.278   2.018   6.450
 8078POPC   C2B47732  17.304   1.979   6.750
 8078POPC   C3B47733  17.235   1.990   7.050
 8078POPC   C4B47734  17.245   2.000   7.350
 8079POPC   NC347735  34.561  28.376   5.550
 8079POPC   PO447736  34.559  28.364   5.850
 8079POPC   GL147737  34.611  28.373   6.150
 8079POPC   GL247738  34.722  28.399   6.150
 8079POPC   C1A47739  34.603  28.347   6.450
 8079POPC   D2A47740  34.614  28.336   6.750
 8079POPC   C3A47741  34.599  28.355   7.050
 8079POPC   C4A47742  34.528  28.398   7.350
 8079POPC   C1B47743  34.774  28.524   6.450
 8079POPC   C2B47744  34.832  28.477   6.750
 8079POPC   C3B47745  34.750  28.508   7.050
 8079POPC   C4B47746  34.749  28.523   7.350
 8080POPC   NC347747  14.414  42.307   5.550
 8080POPC   PO447748  14.370  42.348   5.850
 8080POPC   GL147749  14.371  42.365   6.150
 8080POPC   GL247750  14.312  42.364   6.150
 8080POPC   C1A47751  14.392  42.373   6.450
 8080POPC   D2A47752  14.384  42.291   6.750
 8080POPC   C3A47753  14.415  42.331   7.050
 8080POPC   C4A47754  14.417  42.357   7.350
 8080POPC   C1B47755  14.205  42.391   6.450
 8080POPC   C2B47756  14.132  42.321   6.750
 8080POPC   C3B47757  14.184  42.330   7.050
 8080POPC   C4B47758  14.149  42.353   7.350
 8081POPC   NC347759  22.958   0.455   5.550
 8081POPC   PO447760  22.967   0.437   5.850
 8081POPC   GL147761  22.928   0.439   6.150
 8081POPC   GL247762  23.030   0.415   6.150
 8081POPC   C1A47763  22.970   0.431   6.450
 8081POPC   D2A47764  22.900   0.397   6.750
 8081POPC   C3A47765  22.955   0.466   7.050
 8081POPC   C4A47766  22.965   0.443   7.350
 8081POPC   C1B47767  23.223   0.399   6.450
 8081POPC   C2B47768  23.131   0.389   6.750
 8081POPC   C3B47769  23.166   0.401   7.050
 8081POPC   C4B47770  23.151   0.407   7.350
 8082POPC   NC347771  15.914  29.909   5.550
 8082POPC   PO447772  15.980  29.885   5.850
 8082POPC   GL147773  15.977  29.952   6.150
 8082POPC   GL247774  16.087  29.782   6.150
 8082POPC   C1A47775  15.935  29.901   6.450
 8082POPC   D2A47776  15.998  29.950   6.750
 8082POPC   C3A47777  15.936  29.880   7.050
 8082POPC   C4A47778  15.980  29.880   7.350
 8082POPC   C1B47779  16.131  29.754   6.450
 8082POPC   C2B47780  16.099  29.747   6.750
 8082POPC   C3B47781  16.087  29.783   7.050
 8082POPC   C4B47782  16.162  29.704   7.350
 8083POPC   NC347783  33.023  34.586   5.550
 8083POPC   PO447784  33.017  34.549   5.850
 8083POPC   GL147785  33.052  34.579   6.150
 8083POPC   GL247786  33.096  34.513   6.150
 8083POPC   C1A47787  32.997  34.591   6.450
 8083POPC   D2A47788  32.984  34.560   6.750
 8083POPC   C3A47789  33.072  34.568   7.050
 8083POPC   C4A47790  33.004  34.625   7.350
 8083POPC   C1B47791  33.154  34.336   6.450
 8083POPC   C2B47792  33.144  34.385   6.750
 8083POPC   C3B47793  33.195  34.340   7.050
 8083POPC   C4B47794  33.159  34.357   7.350
 8084POPC   NC347795  18.248  15.175   5.550
 8084POPC   PO447796  18.327  15.156   5.850
 8084POPC   GL147797  18.246  15.216   6.150
 8084POPC   GL247798  18.158  15.232   6.150
 8084POPC   C1A47799  18.306  15.195   6.450
 8084POPC   D2A47800  18.239  15.159   6.750
 8084POPC   C3A47801  18.327  15.156   7.050
 8084POPC   C4A47802  18.284  15.187   7.350
 8084POPC   C1B47803  18.057  15.144   6.450
 8084POPC   C2B47804  18.027  15.211   6.750
 8084POPC   C3B47805  18.042  15.149   7.050
 8084POPC   C4B47806  18.019  15.163   7.350
 8085POPC   NC347807  40.008  10.555   5.550
 8085POPC   PO447808  39.971  10.486   5.850
 8085POPC   GL147809  39.976  10.567   6.150
 8085POPC   GL247810  40.087  10.442   6.150
 8085POPC   C1A47811  39.982  10.568   6.450
 8085POPC   D2A47812  39.976  10.558   6.750
 8085POPC   C3A47813  39.987  10.564   7.050
 8085POPC   C4A47814  39.962  10.485   7.350
 8085POPC   C1B47815  40.075  10.292   6.450
 8085POPC   C2B47816  40.171  10.267   6.750
 8085POPC   C3B47817  40.151  10.329   7.050
 8085POPC   C4B47818  40.106  10.305   7.350
 8086POPC   NC347819  32.207  44.700   5.550
 8086POPC   PO447820  32.201  44.682   5.850
 8086POPC   GL147821  32.268  44.631   6.150
 8086POPC   GL247822  32.113  44.635   6.150
 8086POPC   C1A47823  32.240  44.627   6.450
 8086POPC   D2A47824  32.213  44.640   6.750
 8086POPC   C3A47825  32.235  44.669   7.050
 8086POPC   C4A47826  32.204  44.672   7.350
 8086POPC   C1B47827  32.062  44.582   6.450
 8086POPC   C2B47828  31.983  44.524   6.750
 8086POPC   C3B47829  32.029  44.569   7.050
 8086POPC   C4B47830  32.068  44.564   7.350
 8087POPC   NC347831   5.110   5.137   5.550
 8087POPC   PO447832   5.108   5.060   5.850
 8087POPC   GL147833   5.095   5.102   6.150
 8087POPC   GL247834   5.225   5.130   6.150
 8087POPC   C1A47835   5.092   5.127   6.450
 8087POPC   D2A47836   5.112   5.099   6.750
 8087POPC   C3A47837   5.069   5.073   7.050
 8087POPC   C4A47838   5.101   5.088   7.350
 8087POPC   C1B47839   5.343   5.204   6.450
 8087POPC   C2B47840   5.357   5.168   6.750
 8087POPC   C3B47841   5.361   5.190   7.050
 8087POPC   C4B47842   5.350   5.162   7.350
 8088POPC   NC347843  26.821  26.027   5.550
 8088POPC   PO447844  26.774  26.075   5.850
 8088POPC   GL147845  26.817  26.005   6.150
 8088POPC   GL247846  26.714  25.933   6.150
 8088POPC   C1A47847  26.798  26.048   6.450
 8088POPC   D2A47848  26.826  26.022   6.750
 8088POPC   C3A47849  26.773  26.059   7.050
 8088POPC   C4A47850  26.842  26.054   7.350
 8088POPC   C1B47851  26.588  25.895   6.450
 8088POPC   C2B47852  26.569  25.872   6.750
 8088POPC   C3B47853  26.606  25.911   7.050
 8088POPC   C4B47854  26.611  25.904   7.350
 8089POPC   NC347855  19.881  36.872   5.550
 8089POPC   PO447856  19.803  36.888   5.850
 8089POPC   GL147857  19.876  36.892   6.150
 8089POPC   GL247858  19.880  36.820   6.150
 8089POPC   C1A47859  19.882  36.885   6.450
 8089POPC   D2A47860  19.803  36.906   6.750
 8089POPC   C3A47861  19.847  36.945   7.050
 8089POPC   C4A47862  19.829  36.944   7.350
 8089POPC   C1B47863  19.962  36.738   6.450
 8089POPC   C2B47864  19.986  36.654   6.750
 8089POPC   C3B47865  19.952  36.675   7.050
 8089POPC   C4B47866  19.934  36.671   7.350
 8090POPC   NC347867  16.755  42.339   5.550
 8090POPC   PO447868  16.689  42.314   5.850
 8090POPC   GL147869  16.715  42.296   6.150
 8090POPC   GL247870  16.802  42.261   6.150
 8090POPC   C1A47871  16.706  42.349   6.450
 8090POPC   D2A47872  16.747  42.358   6.750
 8090POPC   C3A47873  16.747  42.356   7.050
 8090POPC   C4A47874  16.754  42.304   7.350
 8090POPC   C1B47875  16.832  42.103   6.450
 8090POPC   C2B47876  16.818  42.113   6.750
 8090POPC   C3B47877  16.856  42.139   7.050
 8090POPC   C4B47878  16.824  42.108   7.350
 8091POPC   NC347879  28.364  14.355   5.550
 8091POPC   PO447880  28.405  14.446   5.850
 8091POPC   GL147881  28.323  14.395   6.150
 8091POPC   GL247882  28.412  14.264   6.150
 8091POPC   C1A47883  28.412  14.379   6.450
 8091POPC   D2A47884  28.323  14.369   6.750
 8091POPC   C3A47885  28.383  14.432   7.050
 8091POPC   C4A47886  28.362  14.411   7.350
 8091POPC   C1B47887  28.488  14.215   6.450
 8091POPC   C2B47888  28.556  14.197   6.750
 8091POPC   C3B47889  28.535  14.212   7.050
 8091POPC   C4B47890  28.558  14.216   7.350
 8092POPC   NC347891   8.929  39.262   5.550
 8092POPC   PO447892   8.986  39.255   5.850
 8092POPC   GL147893   8.974  39.204   6.150
 8092POPC   GL247894   8.934  39.396   6.150
 8092POPC   C1A47895   8.955  39.243   6.450
 8092POPC   D2A47896   9.000  39.277   6.750
 8092POPC   C3A47897   9.006  39.207   7.050
 8092POPC   C4A47898   9.021  39.265   7.350
 8092POPC   C1B47899   8.845  39.514   6.450
 8092POPC   C2B47900   8.867  39.429   6.750
 8092POPC   C3B47901   8.851  39.424   7.050
 8092POPC   C4B47902   8.890  39.463   7.350
 8093POPC   NC347903  40.742  40.043   5.550
 8093POPC   PO447904  40.790  39.998   5.850
 8093POPC   GL147905  40.804  40.050   6.150
 8093POPC   GL247906  40.900  39.908   6.150
 8093POPC   C1A47907  40.768  39.961   6.450
 8093POPC   D2A47908  40.774  39.968   6.750
 8093POPC   C3A47909  40.760  40.018   7.050
 8093POPC   C4A47910  40.781  39.966   7.350
 8093POPC   C1B47911  40.963  39.843   6.450
 8093POPC   C2B47912  40.983  39.833   6.750
 8093POPC   C3B47913  40.992  39.847   7.050
 8093POPC   C4B47914  40.965  39.872   7.350
 8094POPC   NC347915   3.515   0.467   5.550
 8094POPC   PO447916   3.517   0.482   5.850
 8094POPC   GL147917   3.504   0.478   6.150
 8094POPC   GL247918   3.537   0.329   6.150
 8094POPC   C1A47919   3.522   0.451   6.450
 8094POPC   D2A47920   3.499   0.434   6.750
 8094POPC   C3A47921   3.560   0.448   7.050
 8094POPC   C4A47922   3.559   0.470   7.350
 8094POPC   C1B47923   3.464   0.210   6.450
 8094POPC   C2B47924   3.461   0.204   6.750
 8094POPC   C3B47925   3.420   0.202   7.050
 8094POPC   C4B47926   3.425   0.184   7.350
 8095POPC   NC347927  21.417  15.195   5.550
 8095POPC   PO447928  21.363  15.225   5.850
 8095POPC   GL147929  21.382  15.200   6.150
 8095POPC   GL247930  21.324  15.103   6.150
 8095POPC   C1A47931  21.355  15.175   6.450
 8095POPC   D2A47932  21.433  15.138   6.750
 8095POPC   C3A47933  21.420  15.145   7.050
 8095POPC   C4A47934  21.347  15.156   7.350
 8095POPC   C1B47935  21.291  14.969   6.450
 8095POPC   C2B47936  21.266  14.918   6.750
 8095POPC   C3B47937  21.229  14.927   7.050
 8095POPC   C4B47938  21.277  15.001   7.350
 8096POPC   NC347939  17.499  12.106   5.550
 8096POPC   PO447940  17.556  12.045   5.850
 8096POPC   GL147941  17.533  12.117   6.150
 8096POPC   GL247942  17.353  12.134   6.150
 8096POPC   C1A47943  17.516  12.115   6.450
 8096POPC   D2A47944  17.482  12.104   6.750
 8096POPC   C3A47945  17.461  12.043   7.050
 8096POPC   C4A47946  17.542  12.028   7.350
 8096POPC   C1B47947  17.273  12.130   6.450
 8096POPC   C2B47948  17.293  12.125   6.750
 8096POPC   C3B47949  17.275  12.151   7.050
 8096POPC   C4B47950  17.289  12.089   7.350
 8097POPC   NC347951  27.554  42.346   5.550
 8097POPC   PO447952  27.624  42.330   5.850
 8097POPC   GL147953  27.642  42.306   6.150
 8097POPC   GL247954  27.648  42.407   6.150
 8097POPC   C1A47955  27.580  42.333   6.450
 8097POPC   D2A47956  27.631  42.315   6.750
 8097POPC   C3A47957  27.576  42.294   7.050
 8097POPC   C4A47958  27.583  42.351   7.350
 8097POPC   C1B47959  27.785  42.544   6.450
 8097POPC   C2B47960  27.774  42.524   6.750
 8097POPC   C3B47961  27.819  42.484   7.050
 8097POPC   C4B47962  27.803  42.527   7.350
 8098POPC   NC347963  32.229  31.516   5.550
 8098POPC   PO447964  32.253  31.514   5.850
 8098POPC   GL147965  32.241  31.478   6.150
 8098POPC   GL247966  32.242  31.572   6.150
 8098POPC   C1A47967  32.246  31.476   6.450
 8098POPC   D2A47968  32.272  31.469   6.750
 8098POPC   C3A47969  32.269  31.431   7.050
 8098POPC   C4A47970  32.258  31.486   7.350
 8098POPC   C1B47971  32.316  31.733   6.450
 8098POPC   C2B47972  32.278  31.706   6.750
 8098POPC   C3B47973  32.295  31.687   7.050
 8098POPC   C4B47974  32.303  31.758   7.350
 8099POPC   NC347975  42.301  43.080   5.550
 8099POPC   PO447976  42.292  43.123   5.850
 8099POPC   GL147977  42.343  43.125   6.150
 8099POPC   GL247978  42.301  43.029   6.150
 8099POPC   C1A47979  42.337  43.141   6.450
 8099POPC   D2A47980  42.323  43.095   6.750
 8099POPC   C3A47981  42.371  43.064   7.050
 8099POPC   C4A47982  42.355  43.122   7.350
 8099POPC   C1B47983  42.254  42.920   6.450
 8099POPC   C2B47984  42.224  42.855   6.750
 8099POPC   C3B47985  42.280  42.868   7.050
 8099POPC   C4B47986  42.196  42.862   7.350
 8100POPC   NC347987  29.950  41.565   5.550
 8100POPC   PO447988  29.946  41.591   5.850
 8100POPC   GL147989  29.925  41.545   6.150
 8100POPC   GL247990  29.878  41.457   6.150
 8100POPC   C1A47991  29.906  41.536   6.450
 8100POPC   D2A47992  29.879  41.528   6.750
 8100POPC   C3A47993  29.949  41.531   7.050
 8100POPC   C4A47994  29.900  41.518   7.350
 8100POPC   C1B47995  29.878  41.361   6.450
 8100POPC   C2B47996  29.870  41.333   6.750
 8100POPC   C3B47997  29.885  41.303   7.050
 8100POPC   C4B47998  29.883  41.288   7.350
 8101POPC   NC347999  12.051   0.474   5.550
 8101POPC   PO448000  12.036   0.454   5.850
 8101POPC   GL148001  12.113   0.447   6.150
 8101POPC   GL248002  12.080   0.577   6.150
 8101POPC   C1A48003  12.060   0.405   6.450
 8101POPC   D2A48004  12.101   0.444   6.750
 8101POPC   C3A48005  12.040   0.463   7.050
 8101POPC   C4A48006  12.082   0.436   7.350
 8101POPC   C1B48007  12.116   0.705   6.450
 8101POPC   C2B48008  12.132   0.673   6.750
 8101POPC   C3B48009  12.179   0.662   7.050
 8101POPC   C4B48010  12.174   0.679   7.350
 8102POPC   NC348011  32.289   6.672   5.550
 8102POPC   PO448012  32.262   6.640   5.850
 8102POPC   GL148013  32.228   6.622   6.150
 8102POPC   GL248014  32.186   6.689   6.150
 8102POPC   C1A48015  32.218   6.617   6.450
 8102POPC   D2A48016  32.219   6.629   6.750
 8102POPC   C3A48017  32.288   6.644   7.050
 8102POPC   C4A48018  32.211   6.693   7.350
 8102POPC   C1B48019  32.028   6.773   6.450
 8102POPC   C2B48020  32.016   6.795   6.750
 8102POPC   C3B48021  32.087   6.782   7.050
 8102POPC   C4B48022  32.101   6.763   7.350
 8103POPC   NC348023  18.249   0.395   5.550
 8103POPC   PO448024  18.316   0.440   5.850
 8103POPC   GL148025  18.273   0.423   6.150
 8103POPC   GL248026  18.250   0.318   6.150
 8103POPC   C1A48027  18.325   0.455   6.450
 8103POPC   D2A48028  18.266   0.439   6.750
 8103POPC   C3A48029  18.239   0.419   7.050
 8103POPC   C4A48030  18.276   0.481   7.350
 8103POPC   C1B48031  18.318   0.183   6.450
 8103POPC   C2B48032  18.338   0.222   6.750
 8103POPC   C3B48033  18.267   0.163   7.050
 8103POPC   C4B48034  18.246   0.182   7.350
 8104POPC   NC348035  30.720  32.239   5.550
 8104POPC   PO448036  30.715  32.298   5.850
 8104POPC   GL148037  30.694  32.221   6.150
 8104POPC   GL248038  30.606  32.297   6.150
 8104POPC   C1A48039  30.661  32.246   6.450
 8104POPC   D2A48040  30.704  32.245   6.750
 8104POPC   C3A48041  30.676  32.256   7.050
 8104POPC   C4A48042  30.702  32.234   7.350
 8104POPC   C1B48043  30.482  32.401   6.450
 8104POPC   C2B48044  30.536  32.459   6.750
 8104POPC   C3B48045  30.553  32.438   7.050
 8104POPC   C4B48046  30.552  32.426   7.350
 8105POPC   NC348047  26.791  41.583   5.550
 8105POPC   PO448048  26.807  41.600   5.850
 8105POPC   GL148049  26.821  41.599   6.150
 8105POPC   GL248050  26.900  41.592   6.150
 8105POPC   C1A48051  26.793  41.602   6.450
 8105POPC   D2A48052  26.847  41.520   6.750
 8105POPC   C3A48053  26.781  41.514   7.050
 8105POPC   C4A48054  26.768  41.602   7.350
 8105POPC   C1B48055  27.042  41.567   6.450
 8105POPC   C2B48056  27.053  41.570   6.750
 8105POPC   C3B48057  27.031  41.576   7.050
 8105POPC   C4B48058  27.040  41.542   7.350
 8106POPC   NC348059  16.715  40.042   5.550
 8106POPC   PO448060  16.701  40.044   5.850
 8106POPC   GL148061  16.712  40.009   6.150
 8106POPC   GL248062  16.741  40.084   6.150
 8106POPC   C1A48063  16.731  40.017   6.450
 8106POPC   D2A48064  16.755  40.000   6.750
 8106POPC   C3A48065  16.730  39.964   7.050
 8106POPC   C4A48066  16.682  39.978   7.350
 8106POPC   C1B48067  16.799  40.266   6.450
 8106POPC   C2B48068  16.787  40.295   6.750
 8106POPC   C3B48069  16.792  40.256   7.050
 8106POPC   C4B48070  16.808  40.212   7.350
 8107POPC   NC348071   9.754   1.238   5.550
 8107POPC   PO448072   9.761   1.196   5.850
 8107POPC   GL148073   9.700   1.203   6.150
 8107POPC   GL248074   9.618   1.271   6.150
 8107POPC   C1A48075   9.738   1.212   6.450
 8107POPC   D2A48076   9.782   1.177   6.750
 8107POPC   C3A48077   9.746   1.247   7.050
 8107POPC   C4A48078   9.797   1.216   7.350
 8107POPC   C1B48079   9.509   1.350   6.450
 8107POPC   C2B48080   9.546   1.396   6.750
 8107POPC   C3B48081   9.520   1.330   7.050
 8107POPC   C4B48082   9.548   1.390   7.350
 8108POPC   NC348083  44.634  29.961   5.550
 8108POPC   PO448084  44.665  29.897   5.850
 8108POPC   GL148085  44.633  29.909   6.150
 8108POPC   GL248086  44.730  30.035   6.150
 8108POPC   C1A48087  44.695  29.947   6.450
 8108POPC   D2A48088  44.687  29.946   6.750
 8108POPC   C3A48089  44.661  29.891   7.050
 8108POPC   C4A48090  44.701  29.914   7.350
 8108POPC   C1B48091  44.776  30.166   6.450
 8108POPC   C2B48092  44.825  30.083   6.750
 8108POPC   C3B48093  44.825  30.156   7.050
 8108POPC   C4B48094  44.807  30.122   7.350
 8109POPC   NC348095  19.864   7.468   5.550
 8109POPC   PO448096  19.785   7.469   5.850
 8109POPC   GL148097  19.785   7.441   6.150
 8109POPC   GL248098  19.715   7.340   6.150
 8109POPC   C1A48099  19.819   7.385   6.450
 8109POPC   D2A48100  19.813   7.435   6.750
 8109POPC   C3A48101  19.835   7.421   7.050
 8109POPC   C4A48102  19.855   7.403   7.350
 8109POPC   C1B48103  19.637   7.196   6.450
 8109POPC   C2B48104  19.671   7.265   6.750
 8109POPC   C3B48105  19.626   7.215   7.050
 8109POPC   C4B48106  19.666   7.277   7.350
 8110POPC   NC348107  17.503  43.844   5.550
 8110POPC   PO448108  17.556  43.903   5.850
 8110POPC   GL148109  17.541  43.852   6.150
 8110POPC   GL248110  17.485  43.966   6.150
 8110POPC   C1A48111  17.497  43.865   6.450
 8110POPC   D2A48112  17.478  43.900   6.750
 8110POPC   C3A48113  17.493  43.914   7.050
 8110POPC   C4A48114  17.539  43.923   7.350
 8110POPC   C1B48115  17.444  44.083   6.450
 8110POPC   C2B48116  17.401  44.132   6.750
 8110POPC   C3B48117  17.476  44.097   7.050
 8110POPC   C4B48118  17.451  44.081   7.350
 8111POPC   NC348119  16.770  36.938   5.550
 8111POPC   PO448120  16.732  36.860   5.850
 8111POPC   GL148121  16.738  36.860   6.150
 8111POPC   GL248122  16.662  36.864   6.150
 8111POPC   C1A48123  16.734  36.860   6.450
 8111POPC   D2A48124  16.717  36.917   6.750
 8111POPC   C3A48125  16.703  36.947   7.050
 8111POPC   C4A48126  16.764  36.898   7.350
 8111POPC   C1B48127  16.482  36.779   6.450
 8111POPC   C2B48128  16.533  36.786   6.750
 8111POPC   C3B48129  16.527  36.758   7.050
 8111POPC   C4B48130  16.516  36.820   7.350
 8112POPC   NC348131  22.208  28.392   5.550
 8112POPC   PO448132  22.193  28.330   5.850
 8112POPC   GL148133  22.162  28.330   6.150
 8112POPC   GL248134  22.163  28.541   6.150
 8112POPC   C1A48135  22.205  28.378   6.450
 8112POPC   D2A48136  22.145  28.371   6.750
 8112POPC   C3A48137  22.114  28.367   7.050
 8112POPC   C4A48138  22.184  28.351   7.350
 8112POPC   C1B48139  22.179  28.624   6.450
 8112POPC   C2B48140  22.188  28.623   6.750
 8112POPC   C3B48141  22.185  28.595   7.050
 8112POPC   C4B48142  22.209  28.623   7.350
 8113POPC   NC348143  37.713  44.654   5.550
 8113POPC   PO448144  37.718  44.648   5.850
 8113POPC   GL148145  37.718  44.617   6.150
 8113POPC   GL248146  37.568  44.738   6.150
 8113POPC   C1A48147  37.695  44.636   6.450
 8113POPC   D2A48148  37.652  44.633   6.750
 8113POPC   C3A48149  37.642  44.623   7.050
 8113POPC   C4A48150  37.700  44.678   7.350
 8113POPC   C1B48151  37.519  44.787   6.450
 8113POPC   C2B48152  37.514  44.805   6.750
 8113POPC   C3B48153  37.524  44.797   7.050
 8113POPC   C4B48154  37.502  44.777   7.350
 8114POPC   NC348155  17.503   6.675   5.550
 8114POPC   PO448156  17.519   6.666   5.850
 8114POPC   GL148157  17.541   6.680   6.150
 8114POPC   GL248158  17.581   6.497   6.150
 8114POPC   C1A48159  17.513   6.641   6.450
 8114POPC   D2A48160  17.504   6.612   6.750
 8114POPC   C3A48161  17.462   6.614   7.050
 8114POPC   C4A48162  17.480   6.605   7.350
 8114POPC   C1B48163  17.572   6.362   6.450
 8114POPC   C2B48164  17.547   6.369   6.750
 8114POPC   C3B48165  17.612   6.449   7.050
 8114POPC   C4B48166  17.544   6.359   7.350
 8115POPC   NC348167  22.959  19.078   5.550
 8115POPC   PO448168  22.952  19.081   5.850
 8115POPC   GL148169  22.923  19.027   6.150
 8115POPC   GL248170  22.785  19.048   6.150
 8115POPC   C1A48171  22.982  19.059   6.450
 8115POPC   D2A48172  22.915  19.014   6.750
 8115POPC   C3A48173  22.967  19.039   7.050
 8115POPC   C4A48174  22.949  19.094   7.350
 8115POPC   C1B48175  22.672  19.031   6.450
 8115POPC   C2B48176  22.663  19.054   6.750
 8115POPC   C3B48177  22.693  19.038   7.050
 8115POPC   C4B48178  22.719  19.041   7.350
 8116POPC   NC348179  26.836  38.406   5.550
 8116POPC   PO448180  26.769  38.406   5.850
 8116POPC   GL148181  26.849  38.421   6.150
 8116POPC   GL248182  26.671  38.411   6.150
 8116POPC   C1A48183  26.816  38.495   6.450
 8116POPC   D2A48184  26.810  38.426   6.750
 8116POPC   C3A48185  26.866  38.480   7.050
 8116POPC   C4A48186  26.839  38.421   7.350
 8116POPC   C1B48187  26.572  38.309   6.450
 8116POPC   C2B48188  26.652  38.319   6.750
 8116POPC   C3B48189  26.660  38.268   7.050
 8116POPC   C4B48190  26.645  38.256   7.350
 8117POPC   NC348191  21.375  20.641   5.550
 8117POPC   PO448192  21.365  20.585   5.850
 8117POPC   GL148193  21.361  20.613   6.150
 8117POPC   GL248194  21.340  20.669   6.150
 8117POPC   C1A48195  21.415  20.626   6.450
 8117POPC   D2A48196  21.374  20.638   6.750
 8117POPC   C3A48197  21.355  20.629   7.050
 8117POPC   C4A48198  21.431  20.581   7.350
 8117POPC   C1B48199  21.282  20.827   6.450
 8117POPC   C2B48200  21.268  20.869   6.750
 8117POPC   C3B48201  21.233  20.876   7.050
 8117POPC   C4B48202  21.234  20.813   7.350
 8118POPC   NC348203  42.330  13.629   5.550
 8118POPC   PO448204  42.314  13.587   5.850
 8118POPC   GL148205  42.348  13.667   6.150
 8118POPC   GL248206  42.240  13.684   6.150
 8118POPC   C1A48207  42.308  13.627   6.450
 8118POPC   D2A48208  42.289  13.582   6.750
 8118POPC   C3A48209  42.335  13.605   7.050
 8118POPC   C4A48210  42.295  13.666   7.350
 8118POPC   C1B48211  42.152  13.735   6.450
 8118POPC   C2B48212  42.154  13.720   6.750
 8118POPC   C3B48213  42.135  13.753   7.050
 8118POPC   C4B48214  42.162  13.735   7.350
 8119POPC   NC348215  41.511  15.202   5.550
 8119POPC   PO448216  41.540  15.191   5.850
 8119POPC   GL148217  41.544  15.197   6.150
 8119POPC   GL248218  41.444  15.231   6.150
 8119POPC   C1A48219  41.556  15.148   6.450
 8119POPC   D2A48220  41.562  15.226   6.750
 8119POPC   C3A48221  41.537  15.211   7.050
 8119POPC   C4A48222  41.542  15.209   7.350
 8119POPC   C1B48223  41.336  15.393   6.450
 8119POPC   C2B48224  41.381  15.324   6.750
 8119POPC   C3B48225  41.404  15.376   7.050
 8119POPC   C4B48226  41.386  15.297   7.350
 8120POPC   NC348227  33.030   2.002   5.550
 8120POPC   PO448228  32.983   1.988   5.850
 8120POPC   GL148229  32.986   1.964   6.150
 8120POPC   GL248230  33.146   1.951   6.150
 8120POPC   C1A48231  33.053   2.037   6.450
 8120POPC   D2A48232  33.028   2.008   6.750
 8120POPC   C3A48233  33.070   1.981   7.050
 8120POPC   C4A48234  32.993   2.008   7.350
 8120POPC   C1B48235  33.225   1.854   6.450
 8120POPC   C2B48236  33.184   1.800   6.750
 8120POPC   C3B48237  33.197   1.847   7.050
 8120POPC   C4B48238  33.221   1.869   7.350
 8121POPC   NC348239   8.951  40.037   5.550
 8121POPC   PO448240   8.954  40.023   5.850
 8121POPC   GL148241   8.932  40.010   6.150
 8121POPC   GL248242   9.078  40.113   6.150
 8121POPC   C1A48243   8.983  40.030   6.450
 8121POPC   D2A48244   8.944  39.993   6.750
 8121POPC   C3A48245   9.011  40.000   7.050
 8121POPC   C4A48246   8.998  40.046   7.350
 8121POPC   C1B48247   9.124  40.182   6.450
 8121POPC   C2B48248   9.142  40.185   6.750
 8121POPC   C3B48249   9.184  40.190   7.050
 8121POPC   C4B48250   9.185  40.122   7.350
 8122POPC   NC348251  39.223  13.621   5.550
 8122POPC   PO448252  39.244  13.650   5.850
 8122POPC   GL148253  39.192  13.674   6.150
 8122POPC   GL248254  39.343  13.615   6.150
 8122POPC   C1A48255  39.269  13.647   6.450
 8122POPC   D2A48256  39.263  13.613   6.750
 8122POPC   C3A48257  39.260  13.599   7.050
 8122POPC   C4A48258  39.271  13.594   7.350
 8122POPC   C1B48259  39.457  13.630   6.450
 8122POPC   C2B48260  39.507  13.579   6.750
 8122POPC   C3B48261  39.445  13.659   7.050
 8122POPC   C4B48262  39.491  13.624   7.350
 8123POPC   NC348263  12.844  23.677   5.550
 8123POPC   PO448264  12.876  23.710   5.850
 8123POPC   GL148265  12.876  23.744   6.150
 8123POPC   GL248266  12.761  23.625   6.150
 8123POPC   C1A48267  12.844  23.751   6.450
 8123POPC   D2A48268  12.878  23.708   6.750
 8123POPC   C3A48269  12.826  23.671   7.050
 8123POPC   C4A48270  12.898  23.731   7.350
 8123POPC   C1B48271  12.585  23.628   6.450
 8123POPC   C2B48272  12.660  23.572   6.750
 8123POPC   C3B48273  12.592  23.626   7.050
 8123POPC   C4B48274  12.613  23.585   7.350
 8124POPC   NC348275  11.345   3.547   5.550
 8124POPC   PO448276  11.300   3.508   5.850
 8124POPC   GL148277  11.305   3.587   6.150
 8124POPC   GL248278  11.308   3.650   6.150
 8124POPC   C1A48279  11.254   3.583   6.450
 8124POPC   D2A48280  11.276   3.549   6.750
 8124POPC   C3A48281  11.333   3.528   7.050
 8124POPC   C4A48282  11.298   3.578   7.350
 8124POPC   C1B48283  11.292   3.776   6.450
 8124POPC   C2B48284  11.303   3.754   6.750
 8124POPC   C3B48285  11.357   3.773   7.050
 8124POPC   C4B48286  11.313   3.821   7.350
 8125POPC   NC348287  40.022  43.861   5.550
 8125POPC   PO448288  39.986  43.904   5.850
 8125POPC   GL148289  40.045  43.842   6.150
 8125POPC   GL248290  40.087  44.031   6.150
 8125POPC   C1A48291  40.015  43.878   6.450
 8125POPC   D2A48292  40.032  43.901   6.750
 8125POPC   C3A48293  39.975  43.863   7.050
 8125POPC   C4A48294  40.048  43.904   7.350
 8125POPC   C1B48295  40.139  44.136   6.450
 8125POPC   C2B48296  40.092  44.122   6.750
 8125POPC   C3B48297  40.112  44.090   7.050
 8125POPC   C4B48298  40.061  44.073   7.350
 8126POPC   NC348299  11.331  33.776   5.550
 8126POPC   PO448300  11.262  33.767   5.850
 8126POPC   GL148301  11.259  33.842   6.150
 8126POPC   GL248302  11.165  33.825   6.150
 8126POPC   C1A48303  11.301  33.817   6.450
 8126POPC   D2A48304  11.296  33.808   6.750
 8126POPC   C3A48305  11.259  33.840   7.050
 8126POPC   C4A48306  11.336  33.768   7.350
 8126POPC   C1B48307  11.037  33.785   6.450
 8126POPC   C2B48308  11.015  33.761   6.750
 8126POPC   C3B48309  11.056  33.772   7.050
 8126POPC   C4B48310  11.009  33.738   7.350
 8127POPC   NC348311  11.267  14.388   5.550
 8127POPC   PO448312  11.294  14.448   5.850
 8127POPC   GL148313  11.273  14.429   6.150
 8127POPC   GL248314  11.406  14.313   6.150
 8127POPC   C1A48315  11.320  14.396   6.450
 8127POPC   D2A48316  11.347  14.446   6.750
 8127POPC   C3A48317  11.265  14.408   7.050
 8127POPC   C4A48318  11.323  14.397   7.350
 8127POPC   C1B48319  11.477  14.240   6.450
 8127POPC   C2B48320  11.465  14.234   6.750
 8127POPC   C3B48321  11.523  14.310   7.050
 8127POPC   C4B48322  11.467  14.256   7.350
 8128POPC   NC348323  15.171   8.978   5.550
 8128POPC   PO448324  15.155   8.973   5.850
 8128POPC   GL148325  15.179   9.004   6.150
 8128POPC   GL248326  15.177   8.839   6.150
 8128POPC   C1A48327  15.222   8.938   6.450
 8128POPC   D2A48328  15.176   9.021   6.750
 8128POPC   C3A48329  15.148   9.019   7.050
 8128POPC   C4A48330  15.168   8.974   7.350
 8128POPC   C1B48331  15.194   8.731   6.450
 8128POPC   C2B48332  15.196   8.766   6.750
 8128POPC   C3B48333  15.246   8.725   7.050
 8128POPC   C4B48334  15.239   8.706   7.350
 8129POPC   NC348335  40.006  19.090   5.550
 8129POPC   PO448336  39.983  19.054   5.850
 8129POPC   GL148337  40.001  19.047   6.150
 8129POPC   GL248338  40.151  18.981   6.150
 8129POPC   C1A48339  40.004  19.012   6.450
 8129POPC   D2A48340  40.036  19.079   6.750
 8129POPC   C3A48341  39.984  19.025   7.050
 8129POPC   C4A48342  40.035  19.027   7.350
 8129POPC   C1B48343  40.184  18.872   6.450
 8129POPC   C2B48344  40.229  18.935   6.750
 8129POPC   C3B48345  40.225  18.911   7.050
 8129POPC   C4B48346  40.193  18.863   7.350
 8130POPC   NC348347  36.913  11.259   5.550
 8130POPC   PO448348  36.935  11.297   5.850
 8130POPC   GL148349  36.865  11.279   6.150
 8130POPC   GL248350  36.838  11.171   6.150
 8130POPC   C1A48351  36.951  11.315   6.450
 8130POPC   D2A48352  36.883  11.290   6.750
 8130POPC   C3A48353  36.941  11.332   7.050
 8130POPC   C4A48354  36.928  11.276   7.350
 8130POPC   C1B48355  36.879  11.064   6.450
 8130POPC   C2B48356  36.863  11.029   6.750
 8130POPC   C3B48357  36.881  11.100   7.050
 8130POPC   C4B48358  36.833  11.100   7.350
 8131POPC   NC348359  24.513  37.699   5.550
 8131POPC   PO448360  24.524  37.630   5.850
 8131POPC   GL148361  24.479  37.662   6.150
 8131POPC   GL248362  24.559  37.746   6.150
 8131POPC   C1A48363  24.481  37.634   6.450
 8131POPC   D2A48364  24.519  37.687   6.750
 8131POPC   C3A48365  24.530  37.683   7.050
 8131POPC   C4A48366  24.447  37.648   7.350
 8131POPC   C1B48367  24.730  37.793   6.450
 8131POPC   C2B48368  24.764  37.809   6.750
 8131POPC   C3B48369  24.750  37.802   7.050
 8131POPC   C4B48370  24.705  37.777   7.350
 8132POPC   NC348371  43.925  25.295   5.550
 8132POPC   PO448372  43.910  25.246   5.850
 8132POPC   GL148373  43.839  25.303   6.150
 8132POPC   GL248374  43.914  25.341   6.150
 8132POPC   C1A48375  43.933  25.300   6.450
 8132POPC   D2A48376  43.876  25.276   6.750
 8132POPC   C3A48377  43.913  25.253   7.050
 8132POPC   C4A48378  43.929  25.239   7.350
 8132POPC   C1B48379  44.026  25.479   6.450
 8132POPC   C2B48380  43.984  25.485   6.750
 8132POPC   C3B48381  44.041  25.429   7.050
 8132POPC   C4B48382  44.034  25.433   7.350
 8133POPC   NC348383   9.738  33.769   5.550
 8133POPC   PO448384   9.769  33.801   5.850
 8133POPC   GL148385   9.727  33.844   6.150
 8133POPC   GL248386   9.612  33.732   6.150
 8133POPC   C1A48387   9.742  33.835   6.450
 8133POPC   D2A48388   9.750  33.829   6.750
 8133POPC   C3A48389   9.737  33.786   7.050
 8133POPC   C4A48390   9.743  33.779   7.350
 8133POPC   C1B48391   9.527  33.633   6.450
 8133POPC   C2B48392   9.579  33.616   6.750
 8133POPC   C3B48393   9.539  33.611   7.050
 8133POPC   C4B48394   9.587  33.635   7.350
 8134POPC   NC348395  20.614   2.020   5.550
 8134POPC   PO448396  20.609   1.992   5.850
 8134POPC   GL148397  20.568   2.036   6.150
 8134POPC   GL248398  20.704   2.018   6.150
 8134POPC   C1A48399  20.646   1.949   6.450
 8134POPC   D2A48400  20.593   1.946   6.750
 8134POPC   C3A48401  20.602   1.956   7.050
 8134POPC   C4A48402  20.654   1.967   7.350
 8134POPC   C1B48403  20.840   2.118   6.450
 8134POPC   C2B48404  20.812   2.104   6.750
 8134POPC   C3B48405  20.838   2.071   7.050
 8134POPC   C4B48406  20.815   2.091   7.350
 8135POPC   NC348407  17.515  15.211   5.550
 8135POPC   PO448408  17.512  15.229   5.850
 8135POPC   GL148409  17.555  15.162   6.150
 8135POPC   GL248410  17.661  15.214   6.150
 8135POPC   C1A48411  17.543  15.216   6.450
 8135POPC   D2A48412  17.530  15.149   6.750
 8135POPC   C3A48413  17.552  15.130   7.050
 8135POPC   C4A48414  17.529  15.225   7.350
 8135POPC   C1B48415  17.701  15.282   6.450
 8135POPC   C2B48416  17.753  15.294   6.750
 8135POPC   C3B48417  17.714  15.296   7.050
 8135POPC   C4B48418  17.751  15.311   7.350
 8136POPC   NC348419  32.979  41.552   5.550
 8136POPC   PO448420  33.036  41.582   5.850
 8136POPC   GL148421  32.996  41.518   6.150
 8136POPC   GL248422  32.945  41.608   6.150
 8136POPC   C1A48423  33.055  41.515   6.450
 8136POPC   D2A48424  32.992  41.563   6.750
 8136POPC   C3A48425  32.982  41.529   7.050
 8136POPC   C4A48426  33.001  41.602   7.350
 8136POPC   C1B48427  32.895  41.735   6.450
 8136POPC   C2B48428  32.831  41.743   6.750
 8136POPC   C3B48429  32.872  41.794   7.050
 8136POPC   C4B48430  32.821  41.708   7.350
 8137POPC   NC348431  38.475   3.547   5.550
 8137POPC   PO448432  38.475   3.584   5.850
 8137POPC   GL148433  38.469   3.564   6.150
 8137POPC   GL248434  38.536   3.481   6.150
 8137POPC   C1A48435  38.434   3.561   6.450
 8137POPC   D2A48436  38.426   3.572   6.750
 8137POPC   C3A48437  38.419   3.583   7.050
 8137POPC   C4A48438  38.443   3.569   7.350
 8137POPC   C1B48439  38.594   3.311   6.450
 8137POPC   C2B48440  38.641   3.322   6.750
 8137POPC   C3B48441  38.582   3.309   7.050
 8137POPC   C4B48442  38.628   3.307   7.350
 8138POPC   NC348443  36.114  26.832   5.550
 8138POPC   PO448444  36.086  26.768   5.850
 8138POPC   GL148445  36.139  26.861   6.150
 8138POPC   GL248446  36.253  26.750   6.150
 8138POPC   C1A48447  36.135  26.819   6.450
 8138POPC   D2A48448  36.121  26.784   6.750
 8138POPC   C3A48449  36.086  26.771   7.050
 8138POPC   C4A48450  36.085  26.821   7.350
 8138POPC   C1B48451  36.360  26.780   6.450
 8138POPC   C2B48452  36.344  26.821   6.750
 8138POPC   C3B48453  36.371  26.785   7.050
 8138POPC   C4B48454  36.402  26.761   7.350
 8139POPC   NC348455  26.786  30.727   5.550
 8139POPC   PO448456  26.821  30.664   5.850
 8139POPC   GL148457  26.803  30.692   6.150
 8139POPC   GL248458  26.846  30.597   6.150
 8139POPC   C1A48459  26.794  30.706   6.450
 8139POPC   D2A48460  26.821  30.666   6.750
 8139POPC   C3A48461  26.794  30.704   7.050
 8139POPC   C4A48462  26.823  30.721   7.350
 8139POPC   C1B48463  26.930  30.518   6.450
 8139POPC   C2B48464  26.906  30.441   6.750
 8139POPC   C3B48465  26.901  30.445   7.050
 8139POPC   C4B48466  26.964  30.451   7.350
 8140POPC   NC348467  21.345   1.252   5.550
 8140POPC   PO448468  21.377   1.164   5.850
 8140POPC   GL148469  21.345   1.166   6.150
 8140POPC   GL248470  21.508   1.289   6.150
 8140POPC   C1A48471  21.345   1.214   6.450
 8140POPC   D2A48472  21.422   1.198   6.750
 8140POPC   C3A48473  21.434   1.176   7.050
 8140POPC   C4A48474  21.341   1.240   7.350
 8140POPC   C1B48475  21.655   1.274   6.450
 8140POPC   C2B48476  21.611   1.327   6.750
 8140POPC   C3B48477  21.640   1.275   7.050
 8140POPC   C4B48478  21.617   1.264   7.350
 8141POPC   NC348479  42.316   8.165   5.550
 8141POPC   PO448480  42.358   8.199   5.850
 8141POPC   GL148481  42.307   8.191   6.150
 8141POPC   GL248482  42.387   8.326   6.150
 8141POPC   C1A48483  42.378   8.242   6.450
 8141POPC   D2A48484  42.320   8.230   6.750
 8141POPC   C3A48485  42.376   8.153   7.050
 8141POPC   C4A48486  42.297   8.159   7.350
 8141POPC   C1B48487  42.505   8.348   6.450
 8141POPC   C2B48488  42.527   8.379   6.750
 8141POPC   C3B48489  42.505   8.366   7.050
 8141POPC   C4B48490  42.496   8.382   7.350
 8142POPC   NC348491  17.488   8.165   5.550
 8142POPC   PO448492  17.474   8.167   5.850
 8142POPC   GL148493  17.524   8.162   6.150
 8142POPC   GL248494  17.609   8.105   6.150
 8142POPC   C1A48495  17.476   8.192   6.450
 8142POPC   D2A48496  17.505   8.184   6.750
 8142POPC   C3A48497  17.522   8.236   7.050
 8142POPC   C4A48498  17.547   8.174   7.350
 8142POPC   C1B48499  17.734   8.067   6.450
 8142POPC   C2B48500  17.702   8.103   6.750
 8142POPC   C3B48501  17.723   8.038   7.050
 8142POPC   C4B48502  17.761   8.040   7.350
 8143POPC   NC348503  11.259  17.512   5.550
 8143POPC   PO448504  11.310  17.516   5.850
 8143POPC   GL148505  11.290  17.527   6.150
 8143POPC   GL248506  11.439  17.536   6.150
 8143POPC   C1A48507  11.331  17.466   6.450
 8143POPC   D2A48508  11.330  17.480   6.750
 8143POPC   C3A48509  11.330  17.468   7.050
 8143POPC   C4A48510  11.350  17.471   7.350
 8143POPC   C1B48511  11.524  17.544   6.450
 8143POPC   C2B48512  11.535  17.518   6.750
 8143POPC   C3B48513  11.529  17.537   7.050
 8143POPC   C4B48514  11.549  17.562   7.350
 8144POPC   NC348515  26.781  36.932   5.550
 8144POPC   PO448516  26.782  36.898   5.850
 8144POPC   GL148517  26.805  36.867   6.150
 8144POPC   GL248518  26.747  36.967   6.150
 8144POPC   C1A48519  26.801  36.907   6.450
 8144POPC   D2A48520  26.791  36.858   6.750
 8144POPC   C3A48521  26.861  36.917   7.050
 8144POPC   C4A48522  26.796  36.912   7.350
 8144POPC   C1B48523  26.679  37.069   6.450
 8144POPC   C2B48524  26.651  37.061   6.750
 8144POPC   C3B48525  26.644  37.035   7.050
 8144POPC   C4B48526  26.649  37.115   7.350
 8145POPC   NC348527  41.521  28.398   5.550
 8145POPC   PO448528  41.556  28.403   5.850
 8145POPC   GL148529  41.549  28.341   6.150
 8145POPC   GL248530  41.501  28.435   6.150
 8145POPC   C1A48531  41.521  28.373   6.450
 8145POPC   D2A48532  41.528  28.385   6.750
 8145POPC   C3A48533  41.535  28.343   7.050
 8145POPC   C4A48534  41.546  28.384   7.350
 8145POPC   C1B48535  41.417  28.544   6.450
 8145POPC   C2B48536  41.378  28.537   6.750
 8145POPC   C3B48537  41.412  28.581   7.050
 8145POPC   C4B48538  41.452  28.550   7.350
 8146POPC   NC348539  24.528   0.420   5.550
 8146POPC   PO448540  24.539   0.473   5.850
 8146POPC   GL148541  24.517   0.399   6.150
 8146POPC   GL248542  24.328   0.524   6.150
 8146POPC   C1A48543  24.455   0.398   6.450
 8146POPC   D2A48544  24.456   0.436   6.750
 8146POPC   C3A48545  24.467   0.416   7.050
 8146POPC   C4A48546  24.454   0.401   7.350
 8146POPC   C1B48547  24.287   0.574   6.450
 8146POPC   C2B48548  24.252   0.524   6.750
 8146POPC   C3B48549  24.212   0.514   7.050
 8146POPC   C4B48550  24.256   0.531   7.350
 8147POPC   NC348551   6.688  35.304   5.550
 8147POPC   PO448552   6.612  35.336   5.850
 8147POPC   GL148553   6.652  35.373   6.150
 8147POPC   GL248554   6.540  35.219   6.150
 8147POPC   C1A48555   6.671  35.344   6.450
 8147POPC   D2A48556   6.628  35.345   6.750
 8147POPC   C3A48557   6.629  35.390   7.050
 8147POPC   C4A48558   6.673  35.352   7.350
 8147POPC   C1B48559   6.507  35.114   6.450
 8147POPC   C2B48560   6.543  35.179   6.750
 8147POPC   C3B48561   6.556  35.098   7.050
 8147POPC   C4B48562   6.502  35.135   7.350
 8148POPC   NC348563  10.559  41.531   5.550
 8148POPC   PO448564  10.520  41.560   5.850
 8148POPC   GL148565  10.514  41.583   6.150
 8148POPC   GL248566  10.572  41.657   6.150
 8148POPC   C1A48567  10.552  41.551   6.450
 8148POPC   D2A48568  10.504  41.515   6.750
 8148POPC   C3A48569  10.501  41.584   7.050
 8148POPC   C4A48570  10.513  41.563   7.350
 8148POPC   C1B48571  10.546  41.804   6.450
 8148POPC   C2B48572  10.535  41.851   6.750
 8148POPC   C3B48573  10.572  41.810   7.050
 8148POPC   C4B48574  10.608  41.803   7.350
 8149POPC   NC348575   5.117  13.581   5.550
 8149POPC   PO448576   5.125  13.641   5.850
 8149POPC   GL148577   5.076  13.641   6.150
 8149POPC   GL248578   4.994  13.646   6.150
 8149POPC   C1A48579   5.113  13.608   6.450
 8149POPC   D2A48580   5.077  13.587   6.750
 8149POPC   C3A48581   5.069  13.611   7.050
 8149POPC   C4A48582   5.128  13.641   7.350
 8149POPC   C1B48583   4.840  13.559   6.450
 8149POPC   C2B48584   4.813  13.563   6.750
 8149POPC   C3B48585   4.827  13.574   7.050
 8149POPC   C4B48586   4.839  13.596   7.350
 8150POPC   NC348587   7.412   2.038   5.550
 8150POPC   PO448588   7.433   2.014   5.850
 8150POPC   GL148589   7.386   1.980   6.150
 8150POPC   GL248590   7.549   1.891   6.150
 8150POPC   C1A48591   7.392   1.974   6.450
 8150POPC   D2A48592   7.440   1.989   6.750
 8150POPC   C3A48593   7.394   2.039   7.050
 8150POPC   C4A48594   7.464   2.028   7.350
 8150POPC   C1B48595   7.593   1.806   6.450
 8150POPC   C2B48596   7.647   1.856   6.750
 8150POPC   C3B48597   7.606   1.847   7.050
 8150POPC   C4B48598   7.567   1.774   7.350
 8151POPC   NC348599  14.394  36.898   5.550
 8151POPC   PO448600  14.397  36.875   5.850
 8151POPC   GL148601  14.434  36.905   6.150
 8151POPC   GL248602  14.300  36.925   6.150
 8151POPC   C1A48603  14.433  36.864   6.450
 8151POPC   D2A48604  14.403  36.905   6.750
 8151POPC   C3A48605  14.438  36.884   7.050
 8151POPC   C4A48606  14.381  36.948   7.350
 8151POPC   C1B48607  14.204  37.027   6.450
 8151POPC   C2B48608  14.144  36.989   6.750
 8151POPC   C3B48609  14.218  37.072   7.050
 8151POPC   C4B48610  14.215  37.028   7.350
 8152POPC   NC348611  32.248  36.875   5.550
 8152POPC   PO448612  32.231  36.854   5.850
 8152POPC   GL148613  32.248  36.888   6.150
 8152POPC   GL248614  32.170  36.793   6.150
 8152POPC   C1A48615  32.227  36.901   6.450
 8152POPC   D2A48616  32.233  36.899   6.750
 8152POPC   C3A48617  32.210  36.947   7.050
 8152POPC   C4A48618  32.207  36.946   7.350
 8152POPC   C1B48619  32.037  36.755   6.450
 8152POPC   C2B48620  32.041  36.711   6.750
 8152POPC   C3B48621  32.096  36.735   7.050
 8152POPC   C4B48622  32.098  36.726   7.350
 8153POPC   NC348623  11.282  29.967   5.550
 8153POPC   PO448624  11.335  29.956   5.850
 8153POPC   GL148625  11.345  29.939   6.150
 8153POPC   GL248626  11.319  30.004   6.150
 8153POPC   C1A48627  11.288  29.879   6.450
 8153POPC   D2A48628  11.323  29.889   6.750
 8153POPC   C3A48629  11.251  29.955   7.050
 8153POPC   C4A48630  11.296  29.949   7.350
 8153POPC   C1B48631  11.413  30.131   6.450
 8153POPC   C2B48632  11.394  30.110   6.750
 8153POPC   C3B48633  11.372  30.130   7.050
 8153POPC   C4B48634  11.433  30.144   7.350
 8154POPC   NC348635  26.853   5.075   5.550
 8154POPC   PO448636  26.855   5.063   5.850
 8154POPC   GL148637  26.809   5.047   6.150
 8154POPC   GL248638  26.771   5.228   6.150
 8154POPC   C1A48639  26.832   5.135   6.450
 8154POPC   D2A48640  26.865   5.081   6.750
 8154POPC   C3A48641  26.814   5.058   7.050
 8154POPC   C4A48642  26.861   5.111   7.350
 8154POPC   C1B48643  26.658   5.281   6.450
 8154POPC   C2B48644  26.665   5.345   6.750
 8154POPC   C3B48645  26.653   5.340   7.050
 8154POPC   C4B48646  26.735   5.297   7.350
 8155POPC   NC348647   8.970   4.327   5.550
 8155POPC   PO448648   8.945   4.301   5.850
 8155POPC   GL148649   9.007   4.282   6.150
 8155POPC   GL248650   8.863   4.370   6.150
 8155POPC   C1A48651   9.018   4.301   6.450
 8155POPC   D2A48652   8.963   4.310   6.750
 8155POPC   C3A48653   8.973   4.317   7.050
 8155POPC   C4A48654   8.945   4.289   7.350
 8155POPC   C1B48655   8.773   4.366   6.450
 8155POPC   C2B48656   8.772   4.419   6.750
 8155POPC   C3B48657   8.764   4.416   7.050
 8155POPC   C4B48658   8.704   4.380   7.350
 8156POPC   NC348659   3.500  18.304   5.550
 8156POPC   PO448660   3.495  18.269   5.850
 8156POPC   GL148661   3.566  18.300   6.150
 8156POPC   GL248662   3.519  18.383   6.150
 8156POPC   C1A48663   3.559  18.302   6.450
 8156POPC   D2A48664   3.551  18.235   6.750
 8156POPC   C3A48665   3.563  18.295   7.050
 8156POPC   C4A48666   3.498  18.246   7.350
 8156POPC   C1B48667   3.594  18.510   6.450
 8156POPC   C2B48668   3.507  18.484   6.750
 8156POPC   C3B48669   3.523  18.502   7.050
 8156POPC   C4B48670   3.514  18.509   7.350
 8157POPC   NC348671   7.457  18.241   5.550
 8157POPC   PO448672   7.450  18.275   5.850
 8157POPC   GL148673   7.391  18.257   6.150
 8157POPC   GL248674   7.341  18.234   6.150
 8157POPC   C1A48675   7.421  18.268   6.450
 8157POPC   D2A48676   7.450  18.233   6.750
 8157POPC   C3A48677   7.400  18.238   7.050
 8157POPC   C4A48678   7.458  18.315   7.350
 8157POPC   C1B48679   7.227  18.142   6.450
 8157POPC   C2B48680   7.222  18.175   6.750
 8157POPC   C3B48681   7.222  18.178   7.050
 8157POPC   C4B48682   7.250  18.128   7.350
 8158POPC   NC348683   3.554  30.682   5.550
 8158POPC   PO448684   3.562  30.688   5.850
 8158POPC   GL148685   3.559  30.702   6.150
 8158POPC   GL248686   3.618  30.683   6.150
 8158POPC   C1A48687   3.586  30.676   6.450
 8158POPC   D2A48688   3.498  30.717   6.750
 8158POPC   C3A48689   3.569  30.686   7.050
 8158POPC   C4A48690   3.557  30.710   7.350
 8158POPC   C1B48691   3.828  30.573   6.450
 8158POPC   C2B48692   3.733  30.589   6.750
 8158POPC   C3B48693   3.741  30.659   7.050
 8158POPC   C4B48694   3.805  30.648   7.350
 8159POPC   NC348695  19.807  16.777   5.550
 8159POPC   PO448696  19.796  16.717   5.850
 8159POPC   GL148697  19.823  16.767   6.150
 8159POPC   GL248698  19.798  16.872   6.150
 8159POPC   C1A48699  19.861  16.738   6.450
 8159POPC   D2A48700  19.822  16.762   6.750
 8159POPC   C3A48701  19.800  16.733   7.050
 8159POPC   C4A48702  19.786  16.704   7.350
 8159POPC   C1B48703  19.729  17.010   6.450
 8159POPC   C2B48704  19.774  16.933   6.750
 8159POPC   C3B48705  19.690  16.959   7.050
 8159POPC   C4B48706  19.737  17.004   7.350
 8160POPC   NC348707   2.031  40.824   5.550
 8160POPC   PO448708   1.947  40.734   5.850
 8160POPC   GL148709   2.026  40.829   6.150
 8160POPC   GL248710   2.072  40.859   6.150
 8160POPC   C1A48711   1.963  40.809   6.450
 8160POPC   D2A48712   2.020  40.741   6.750
 8160POPC   C3A48713   2.031  40.769   7.050
 8160POPC   C4A48714   1.943  40.774   7.350
 8160POPC   C1B48715   2.266  40.887   6.450
 8160POPC   C2B48716   2.248  40.812   6.750
 8160POPC   C3B48717   2.248  40.890   7.050
 8160POPC   C4B48718   2.235  40.834   7.350
 8161POPC   NC348719  29.128  17.492   5.550
 8161POPC   PO448720  29.148  17.486   5.850
 8161POPC   GL148721  29.115  17.510   6.150
 8161POPC   GL248722  29.290  17.564   6.150
 8161POPC   C1A48723  29.189  17.547   6.450
 8161POPC   D2A48724  29.145  17.549   6.750
 8161POPC   C3A48725  29.175  17.544   7.050
 8161POPC   C4A48726  29.185  17.473   7.350
 8161POPC   C1B48727  29.376  17.708   6.450
 8161POPC   C2B48728  29.367  17.698   6.750
 8161POPC   C3B48729  29.306  17.695   7.050
 8161POPC   C4B48730  29.307  17.652   7.350
 8162POPC   NC348731  44.703  42.285   5.550
 8162POPC   PO448732  44.692  42.285   5.850
 8162POPC   GL148733  44.625  42.373   6.150
 8162POPC   GL248734  44.555  42.289   6.150
 8162POPC   C1A48735  44.620  42.345   6.450
 8162POPC   D2A48736  44.613  42.299   6.750
 8162POPC   C3A48737  44.677  42.382   7.050
 8162POPC   C4A48738  44.692  42.360   7.350
 8162POPC   C1B48739  44.449  42.192   6.450
 8162POPC   C2B48740  44.503  42.172   6.750
 8162POPC   C3B48741  44.460  42.150   7.050
 8162POPC   C4B48742  44.476  42.182   7.350
 8163POPC   NC348743   5.896  33.773   5.550
 8163POPC   PO448744   5.905  33.837   5.850
 8163POPC   GL148745   5.856  33.831   6.150
 8163POPC   GL248746   5.753  33.740   6.150
 8163POPC   C1A48747   5.898  33.775   6.450
 8163POPC   D2A48748   5.881  33.822   6.750
 8163POPC   C3A48749   5.863  33.778   7.050
 8163POPC   C4A48750   5.864  33.796   7.350
 8163POPC   C1B48751   5.636  33.678   6.450
 8163POPC   C2B48752   5.650  33.725   6.750
 8163POPC   C3B48753   5.605  33.683   7.050
 8163POPC   C4B48754   5.608  33.692   7.350
 8164POPC   NC348755   0.429  13.652   5.550
 8164POPC   PO448756   0.447  13.625   5.850
 8164POPC   GL148757   0.464  13.586   6.150
 8164POPC   GL248758   0.566  13.564   6.150
 8164POPC   C1A48759   0.466  13.673   6.450
 8164POPC   D2A48760   0.446  13.606   6.750
 8164POPC   C3A48761   0.444  13.650   7.050
 8164POPC   C4A48762   0.397  13.663   7.350
 8164POPC   C1B48763   0.645  13.570   6.450
 8164POPC   C2B48764   0.664  13.541   6.750
 8164POPC   C3B48765   0.648  13.529   7.050
 8164POPC   C4B48766   0.692  13.533   7.350
 8165POPC   NC348767  34.577  36.918   5.550
 8165POPC   PO448768  34.562  36.856   5.850
 8165POPC   GL148769  34.531  36.896   6.150
 8165POPC   GL248770  34.516  36.933   6.150
 8165POPC   C1A48771  34.612  36.881   6.450
 8165POPC   D2A48772  34.595  36.928   6.750
 8165POPC   C3A48773  34.584  36.868   7.050
 8165POPC   C4A48774  34.583  36.863   7.350
 8165POPC   C1B48775  34.322  37.020   6.450
 8165POPC   C2B48776  34.364  37.064   6.750
 8165POPC   C3B48777  34.335  37.086   7.050
 8165POPC   C4B48778  34.325  37.045   7.350
 8166POPC   NC348779  13.670  22.201   5.550
 8166POPC   PO448780  13.598  22.148   5.850
 8166POPC   GL148781  13.659  22.202   6.150
 8166POPC   GL248782  13.567  22.185   6.150
 8166POPC   C1A48783  13.658  22.209   6.450
 8166POPC   D2A48784  13.635  22.147   6.750
 8166POPC   C3A48785  13.659  22.162   7.050
 8166POPC   C4A48786  13.617  22.117   7.350
 8166POPC   C1B48787  13.377  22.271   6.450
 8166POPC   C2B48788  13.454  22.269   6.750
 8166POPC   C3B48789  13.394  22.263   7.050
 8166POPC   C4B48790  13.400  22.258   7.350
 8167POPC   NC348791  21.375  36.911   5.550
 8167POPC   PO448792  21.367  36.931   5.850
 8167POPC   GL148793  21.411  36.924   6.150
 8167POPC   GL248794  21.269  36.783   6.150
 8167POPC   C1A48795  21.426  36.873   6.450
 8167POPC   D2A48796  21.354  36.950   6.750
 8167POPC   C3A48797  21.416  36.910   7.050
 8167POPC   C4A48798  21.373  36.868   7.350
 8167POPC   C1B48799  21.200  36.729   6.450
 8167POPC   C2B48800  21.188  36.737   6.750
 8167POPC   C3B48801  21.249  36.747   7.050
 8167POPC   C4B48802  21.224  36.730   7.350
 8168POPC   NC348803   2.791  28.352   5.550
 8168POPC   PO448804   2.732  28.412   5.850
 8168POPC   GL148805   2.789  28.320   6.150
 8168POPC   GL248806   2.689  28.363   6.150
 8168POPC   C1A48807   2.782  28.411   6.450
 8168POPC   D2A48808   2.774  28.405   6.750
 8168POPC   C3A48809   2.753  28.354   7.050
 8168POPC   C4A48810   2.808  28.389   7.350
 8168POPC   C1B48811   2.470  28.372   6.450
 8168POPC   C2B48812   2.477  28.387   6.750
 8168POPC   C3B48813   2.486  28.357   7.050
 8168POPC   C4B48814   2.564  28.365   7.350
 8169POPC   NC348815  34.566   3.492   5.550
 8169POPC   PO448816  34.555   3.580   5.850
 8169POPC   GL148817  34.614   3.577   6.150
 8169POPC   GL248818  34.508   3.466   6.150
 8169POPC   C1A48819  34.583   3.569   6.450
 8169POPC   D2A48820  34.594   3.587   6.750
 8169POPC   C3A48821  34.604   3.509   7.050
 8169POPC   C4A48822  34.609   3.493   7.350
 8169POPC   C1B48823  34.472   3.310   6.450
 8169POPC   C2B48824  34.530   3.301   6.750
 8169POPC   C3B48825  34.472   3.341   7.050
 8169POPC   C4B48826  34.478   3.308   7.350
 8170POPC   NC348827  12.855   3.558   5.550
 8170POPC   PO448828  12.806   3.520   5.850
 8170POPC   GL148829  12.843   3.548   6.150
 8170POPC   GL248830  12.838   3.691   6.150
 8170POPC   C1A48831  12.892   3.575   6.450
 8170POPC   D2A48832  12.869   3.514   6.750
 8170POPC   C3A48833  12.898   3.584   7.050
 8170POPC   C4A48834  12.880   3.552   7.350
 8170POPC   C1B48835  12.894   3.822   6.450
 8170POPC   C2B48836  12.942   3.806   6.750
 8170POPC   C3B48837  12.884   3.744   7.050
 8170POPC   C4B48838  12.955   3.789   7.350
 8171POPC   NC348839   6.605   1.203   5.550
 8171POPC   PO448840   6.659   1.181   5.850
 8171POPC   GL148841   6.624   1.177   6.150
 8171POPC   GL248842   6.496   1.232   6.150
 8171POPC   C1A48843   6.680   1.206   6.450
 8171POPC   D2A48844   6.637   1.240   6.750
 8171POPC   C3A48845   6.656   1.191   7.050
 8171POPC   C4A48846   6.610   1.248   7.350
 8171POPC   C1B48847   6.354   1.244   6.450
 8171POPC   C2B48848   6.352   1.185   6.750
 8171POPC   C3B48849   6.394   1.227   7.050
 8171POPC   C4B48850   6.417   1.219   7.350
 8172POPC   NC348851  21.418  17.481   5.550
 8172POPC   PO448852  21.364  17.493   5.850
 8172POPC   GL148853  21.381  17.471   6.150
 8172POPC   GL248854  21.443  17.443   6.150
 8172POPC   C1A48855  21.422  17.490   6.450
 8172POPC   D2A48856  21.399  17.468   6.750
 8172POPC   C3A48857  21.367  17.541   7.050
 8172POPC   C4A48858  21.363  17.544   7.350
 8172POPC   C1B48859  21.486  17.285   6.450
 8172POPC   C2B48860  21.487  17.330   6.750
 8172POPC   C3B48861  21.499  17.326   7.050
 8172POPC   C4B48862  21.526  17.258   7.350
 8173POPC   NC348863  42.355  19.015   5.550
 8173POPC   PO448864  42.300  19.020   5.850
 8173POPC   GL148865  42.355  19.053   6.150
 8173POPC   GL248866  42.339  18.930   6.150
 8173POPC   C1A48867  42.337  19.082   6.450
 8173POPC   D2A48868  42.368  19.108   6.750
 8173POPC   C3A48869  42.335  19.056   7.050
 8173POPC   C4A48870  42.340  19.077   7.350
 8173POPC   C1B48871  42.440  18.784   6.450
 8173POPC   C2B48872  42.412  18.813   6.750
 8173POPC   C3B48873  42.424  18.846   7.050
 8173POPC   C4B48874  42.368  18.856   7.350
 8174POPC   NC348875  29.193  19.817   5.550
 8174POPC   PO448876  29.098  19.843   5.850
 8174POPC   GL148877  29.135  19.858   6.150
 8174POPC   GL248878  29.248  19.943   6.150
 8174POPC   C1A48879  29.119  19.804   6.450
 8174POPC   D2A48880  29.126  19.804   6.750
 8174POPC   C3A48881  29.158  19.806   7.050
 8174POPC   C4A48882  29.116  19.859   7.350
 8174POPC   C1B48883  29.353  19.928   6.450
 8174POPC   C2B48884  29.313  19.936   6.750
 8174POPC   C3B48885  29.391  19.988   7.050
 8174POPC   C4B48886  29.366  19.988   7.350
 8175POPC   NC348887  11.274  28.346   5.550
 8175POPC   PO448888  11.253  28.355   5.850
 8175POPC   GL148889  11.322  28.380   6.150
 8175POPC   GL248890  11.421  28.439   6.150
 8175POPC   C1A48891  11.334  28.400   6.450
 8175POPC   D2A48892  11.286  28.319   6.750
 8175POPC   C3A48893  11.311  28.395   7.050
 8175POPC   C4A48894  11.338  28.385   7.350
 8175POPC   C1B48895  11.480  28.521   6.450
 8175POPC   C2B48896  11.478  28.554   6.750
 8175POPC   C3B48897  11.475  28.554   7.050
 8175POPC   C4B48898  11.537  28.505   7.350
 8176POPC   NC348899  26.031  39.231   5.550
 8176POPC   PO448900  26.016  39.264   5.850
 8176POPC   GL148901  26.010  39.278   6.150
 8176POPC   GL248902  25.982  39.135   6.150
 8176POPC   C1A48903  26.038  39.238   6.450
 8176POPC   D2A48904  26.026  39.222   6.750
 8176POPC   C3A48905  26.002  39.207   7.050
 8176POPC   C4A48906  26.014  39.216   7.350
 8176POPC   C1B48907  26.027  39.030   6.450
 8176POPC   C2B48908  25.994  39.033   6.750
 8176POPC   C3B48909  26.016  38.976   7.050
 8176POPC   C4B48910  25.991  39.018   7.350
 8177POPC   NC348911   5.826  35.348   5.550
 8177POPC   PO448912   5.903  35.340   5.850
 8177POPC   GL148913   5.873  35.401   6.150
 8177POPC   GL248914   5.951  35.311   6.150
 8177POPC   C1A48915   5.834  35.309   6.450
 8177POPC   D2A48916   5.845  35.311   6.750
 8177POPC   C3A48917   5.870  35.329   7.050
 8177POPC   C4A48918   5.846  35.349   7.350
 8177POPC   C1B48919   6.140  35.328   6.450
 8177POPC   C2B48920   6.145  35.346   6.750
 8177POPC   C3B48921   6.126  35.368   7.050
 8177POPC   C4B48922   6.166  35.329   7.350
 8178POPC   NC348923  43.889  17.533   5.550
 8178POPC   PO448924  43.899  17.486   5.850
 8178POPC   GL148925  43.931  17.533   6.150
 8178POPC   GL248926  43.758  17.449   6.150
 8178POPC   C1A48927  43.878  17.494   6.450
 8178POPC   D2A48928  43.889  17.479   6.750
 8178POPC   C3A48929  43.856  17.521   7.050
 8178POPC   C4A48930  43.896  17.515   7.350
 8178POPC   C1B48931  43.647  17.449   6.450
 8178POPC   C2B48932  43.701  17.413   6.750
 8178POPC   C3B48933  43.627  17.407   7.050
 8178POPC   C4B48934  43.702  17.366   7.350
 8179POPC   NC348935  42.344  39.277   5.550
 8179POPC   PO448936  42.314  39.188   5.850
 8179POPC   GL148937  42.308  39.261   6.150
 8179POPC   GL248938  42.454  39.222   6.150
 8179POPC   C1A48939  42.370  39.231   6.450
 8179POPC   D2A48940  42.298  39.263   6.750
 8179POPC   C3A48941  42.353  39.213   7.050
 8179POPC   C4A48942  42.342  39.268   7.350
 8179POPC   C1B48943  42.614  39.282   6.450
 8179POPC   C2B48944  42.588  39.268   6.750
 8179POPC   C3B48945  42.613  39.271   7.050
 8179POPC   C4B48946  42.556  39.233   7.350
 8180POPC   NC348947  26.057   1.986   5.550
 8180POPC   PO448948  26.028   1.955   5.850
 8180POPC   GL148949  25.993   1.968   6.150
 8180POPC   GL248950  26.045   2.118   6.150
 8180POPC   C1A48951  26.071   2.038   6.450
 8180POPC   D2A48952  26.080   2.036   6.750
 8180POPC   C3A48953  26.032   2.021   7.050
 8180POPC   C4A48954  26.047   1.945   7.350
 8180POPC   C1B48955  25.979   2.204   6.450
 8180POPC   C2B48956  25.963   2.195   6.750
 8180POPC   C3B48957  26.007   2.241   7.050
 8180POPC   C4B48958  25.991   2.242   7.350
 8181POPC   NC348959  22.143  25.307   5.550
 8181POPC   PO448960  22.160  25.251   5.850
 8181POPC   GL148961  22.203  25.227   6.150
 8181POPC   GL248962  22.172  25.369   6.150
 8181POPC   C1A48963  22.206  25.296   6.450
 8181POPC   D2A48964  22.121  25.241   6.750
 8181POPC   C3A48965  22.136  25.224   7.050
 8181POPC   C4A48966  22.207  25.274   7.350
 8181POPC   C1B48967  22.107  25.506   6.450
 8181POPC   C2B48968  22.174  25.536   6.750
 8181POPC   C3B48969  22.122  25.494   7.050
 8181POPC   C4B48970  22.204  25.530   7.350
 8182POPC   NC348971   9.741   3.560   5.550
 8182POPC   PO448972   9.769   3.573   5.850
 8182POPC   GL148973   9.791   3.511   6.150
 8182POPC   GL248974   9.646   3.399   6.150
 8182POPC   C1A48975   9.730   3.499   6.450
 8182POPC   D2A48976   9.756   3.514   6.750
 8182POPC   C3A48977   9.722   3.553   7.050
 8182POPC   C4A48978   9.724   3.516   7.350
 8182POPC   C1B48979   9.648   3.357   6.450
 8182POPC   C2B48980   9.651   3.289   6.750
 8182POPC   C3B48981   9.593   3.272   7.050
 8182POPC   C4B48982   9.665   3.269   7.350
 8183POPC   NC348983  29.133  33.023   5.550
 8183POPC   PO448984  29.139  33.051   5.850
 8183POPC   GL148985  29.146  33.044   6.150
 8183POPC   GL248986  29.059  32.916   6.150
 8183POPC   C1A48987  29.151  32.986   6.450
 8183POPC   D2A48988  29.189  33.040   6.750
 8183POPC   C3A48989  29.108  33.060   7.050
 8183POPC   C4A48990  29.134  33.044   7.350
 8183POPC   C1B48991  29.046  32.791   6.450
 8183POPC   C2B48992  29.055  32.795   6.750
 8183POPC   C3B48993  29.046  32.741   7.050
 8183POPC   C4B48994  29.020  32.799   7.350
 8184POPC   NC348995   3.563  19.088   5.550
 8184POPC   PO448996   3.579  19.022   5.850
 8184POPC   GL148997   3.565  19.053   6.150
 8184POPC   GL248998   3.697  19.063   6.150
 8184POPC   C1A48999   3.564  19.108   6.450
 8184POPC   D2A49000   3.577  19.042   6.750
 8184POPC   C3A49001   3.517  19.090   7.050
 8184POPC   C4A49002   3.516  19.088   7.350
 8184POPC   C1B49003   3.767  19.023   6.450
 8184POPC   C2B49004   3.817  19.030   6.750
 8184POPC   C3B49005   3.834  19.072   7.050
 8184POPC   C4B49006   3.825  19.025   7.350
 8185POPC   NC349007  22.129  33.795   5.550
 8185POPC   PO449008  22.162  33.815   5.850
 8185POPC   GL149009  22.142  33.797   6.150
 8185POPC   GL249010  22.107  33.928   6.150
 8185POPC   C1A49011  22.182  33.766   6.450
 8185POPC   D2A49012  22.171  33.802   6.750
 8185POPC   C3A49013  22.189  33.828   7.050
 8185POPC   C4A49014  22.177  33.837   7.350
 8185POPC   C1B49015  22.090  33.989   6.450
 8185POPC   C2B49016  22.031  34.069   6.750
 8185POPC   C3B49017  22.063  34.049   7.050
 8185POPC   C4B49018  22.028  34.011   7.350
 8186POPC   NC349019  40.830  15.143   5.550
 8186POPC   PO449020  40.808  15.144   5.850
 8186POPC   GL149021  40.788  15.172   6.150
 8186POPC   GL249022  40.840  15.271   6.150
 8186POPC   C1A49023  40.766  15.164   6.450
 8186POPC   D2A49024  40.818  15.140   6.750
 8186POPC   C3A49025  40.746  15.204   7.050
 8186POPC   C4A49026  40.821  15.170   7.350
 8186POPC   C1B49027  40.907  15.448   6.450
 8186POPC   C2B49028  40.818  15.442   6.750
 8186POPC   C3B49029  40.886  15.407   7.050
 8186POPC   C4B49030  40.839  15.432   7.350
 8187POPC   NC349031  31.497  32.236   5.550
 8187POPC   PO449032  31.464  32.276   5.850
 8187POPC   GL149033  31.478  32.243   6.150
 8187POPC   GL249034  31.409  32.357   6.150
 8187POPC   C1A49035  31.431  32.237   6.450
 8187POPC   D2A49036  31.466  32.286   6.750
 8187POPC   C3A49037  31.513  32.201   7.050
 8187POPC   C4A49038  31.488  32.243   7.350
 8187POPC   C1B49039  31.341  32.459   6.450
 8187POPC   C2B49040  31.346  32.435   6.750
 8187POPC   C3B49041  31.379  32.428   7.050
 8187POPC   C4B49042  31.297  32.514   7.350
 8188POPC   NC349043   7.440   5.135   5.550
 8188POPC   PO449044   7.459   5.069   5.850
 8188POPC   GL149045   7.394   5.105   6.150
 8188POPC   GL249046   7.343   5.196   6.150
 8188POPC   C1A49047   7.462   5.055   6.450
 8188POPC   D2A49048   7.398   5.049   6.750
 8188POPC   C3A49049   7.408   5.074   7.050
 8188POPC   C4A49050   7.417   5.063   7.350
 8188POPC   C1B49051   7.314   5.315   6.450
 8188POPC   C2B49052   7.259   5.312   6.750
 8188POPC   C3B49053   7.331   5.263   7.050
 8188POPC   C4B49054   7.328   5.357   7.350
 8189POPC   NC349055   8.218  15.210   5.550
 8189POPC   PO449056   8.188  15.175   5.850
 8189POPC   GL149057   8.227  15.223   6.150
 8189POPC   GL249058   8.185  15.252   6.150
 8189POPC   C1A49059   8.148  15.180   6.450
 8189POPC   D2A49060   8.237  15.132   6.750
 8189POPC   C3A49061   8.237  15.193   7.050
 8189POPC   C4A49062   8.163  15.139   7.350
 8189POPC   C1B49063   8.240  15.407   6.450
 8189POPC   C2B49064   8.253  15.451   6.750
 8189POPC   C3B49065   8.273  15.410   7.050
 8189POPC   C4B49066   8.318  15.396   7.350
 8190POPC   NC349067  35.384  27.591   5.550
 8190POPC   PO449068  35.346  27.550   5.850
 8190POPC   GL149069  35.389  27.568   6.150
 8190POPC   GL249070  35.241  27.542   6.150
 8190POPC   C1A49071  35.328  27.629   6.450
 8190POPC   D2A49072  35.393  27.592   6.750
 8190POPC   C3A49073  35.399  27.584   7.050
 8190POPC   C4A49074  35.310  27.577   7.350
 8190POPC   C1B49075  35.148  27.447   6.450
 8190POPC   C2B49076  35.180  27.370   6.750
 8190POPC   C3B49077  35.183  27.368   7.050
 8190POPC   C4B49078  35.223  27.445   7.350
 8191POPC   NC349079   8.214  27.624   5.550
 8191POPC   PO449080   8.234  27.637   5.850
 8191POPC   GL149081   8.176  27.568   6.150
 8191POPC   GL249082   8.306  27.633   6.150
 8191POPC   C1A49083   8.168  27.599   6.450
 8191POPC   D2A49084   8.227  27.550   6.750
 8191POPC   C3A49085   8.161  27.574   7.050
 8191POPC   C4A49086   8.154  27.549   7.350
 8191POPC   C1B49087   8.415  27.613   6.450
 8191POPC   C2B49088   8.492  27.655   6.750
 8191POPC   C3B49089   8.407  27.657   7.050
 8191POPC   C4B49090   8.426  27.647   7.350
 8192POPC   NC349091  37.634  12.837   5.550
 8192POPC   PO449092  37.701  12.853   5.850
 8192POPC   GL149093  37.692  12.843   6.150
 8192POPC   GL249094  37.809  12.809   6.150
 8192POPC   C1A49095  37.672  12.841   6.450
 8192POPC   D2A49096  37.629  12.826   6.750
 8192POPC   C3A49097  37.672  12.818   7.050
 8192POPC   C4A49098  37.721  12.809   7.350
 8192POPC   C1B49099  37.825  12.634   6.450
 8192POPC   C2B49100  37.869  12.636   6.750
 8192POPC   C3B49101  37.902  12.686   7.050
 8192POPC   C4B49102  37.905  12.695   7.350
 8193POPC   NC349103   8.205  17.527   5.550
 8193POPC   PO449104   8.232  17.521   5.850
 8193POPC   GL149105   8.189  17.509   6.150
 8193POPC   GL249106   8.221  17.677   6.150
 8193POPC   C1A49107   8.183  17.484   6.450
 8193POPC   D2A49108   8.204  17.501   6.750
 8193POPC   C3A49109   8.162  17.509   7.050
 8193POPC   C4A49110   8.164  17.553   7.350
 8193POPC   C1B49111   8.180  17.755   6.450
 8193POPC   C2B49112   8.186  17.726   6.750
 8193POPC   C3B49113   8.166  17.752   7.050
 8193POPC   C4B49114   8.137  17.783   7.350
 8194POPC   NC349115  28.349  19.880   5.550
 8194POPC   PO449116  28.379  19.850   5.850
 8194POPC   GL149117  28.365  19.851   6.150
 8194POPC   GL249118  28.249  19.828   6.150
 8194POPC   C1A49119  28.385  19.839   6.450
 8194POPC   D2A49120  28.404  19.788   6.750
 8194POPC   C3A49121  28.393  19.882   7.050
 8194POPC   C4A49122  28.412  19.844   7.350
 8194POPC   C1B49123  28.103  19.909   6.450
 8194POPC   C2B49124  28.131  19.888   6.750
 8194POPC   C3B49125  28.089  19.908   7.050
 8194POPC   C4B49126  28.088  19.844   7.350
 8195POPC   NC349127  20.616  18.271   5.550
 8195POPC   PO449128  20.643  18.271   5.850
 8195POPC   GL149129  20.583  18.283   6.150
 8195POPC   GL249130  20.509  18.373   6.150
 8195POPC   C1A49131  20.569  18.259   6.450
 8195POPC   D2A49132  20.621  18.321   6.750
 8195POPC   C3A49133  20.649  18.235   7.050
 8195POPC   C4A49134  20.637  18.323   7.350
 8195POPC   C1B49135  20.417  18.409   6.450
 8195POPC   C2B49136  20.423  18.426   6.750
 8195POPC   C3B49137  20.423  18.483   7.050
 8195POPC   C4B49138  20.378  18.492   7.350
 8196POPC   NC349139  29.891   6.617   5.550
 8196POPC   PO449140  29.937   6.596   5.850
 8196POPC   GL149141  29.942   6.620   6.150
 8196POPC   GL249142  29.790   6.548   6.150
 8196POPC   C1A49143  29.923   6.613   6.450
 8196POPC   D2A49144  29.927   6.617   6.750
 8196POPC   C3A49145  29.888   6.624   7.050
 8196POPC   C4A49146  29.970   6.609   7.350
 8196POPC   C1B49147  29.689   6.488   6.450
 8196POPC   C2B49148  29.692   6.567   6.750
 8196POPC   C3B49149  29.715   6.539   7.050
 8196POPC   C4B49150  29.664   6.488   7.350
 8197POPC   NC349151   6.609   2.815   5.550
 8197POPC   PO449152   6.656   2.740   5.850
 8197POPC   GL149153   6.603   2.728   6.150
 8197POPC   GL249154   6.641   2.698   6.150
 8197POPC   C1A49155   6.619   2.776   6.450
 8197POPC   D2A49156   6.619   2.737   6.750
 8197POPC   C3A49157   6.672   2.739   7.050
 8197POPC   C4A49158   6.688   2.775   7.350
 8197POPC   C1B49159   6.547   2.515   6.450
 8197POPC   C2B49160   6.567   2.515   6.750
 8197POPC   C3B49161   6.585   2.500   7.050
 8197POPC   C4B49162   6.510   2.557   7.350
 8198POPC   NC349163  32.234  26.003   5.550
 8198POPC   PO449164  32.290  26.036   5.850
 8198POPC   GL149165  32.203  26.021   6.150
 8198POPC   GL249166  32.380  26.046   6.150
 8198POPC   C1A49167  32.243  25.993   6.450
 8198POPC   D2A49168  32.237  26.000   6.750
 8198POPC   C3A49169  32.254  26.050   7.050
 8198POPC   C4A49170  32.207  26.011   7.350
 8198POPC   C1B49171  32.519  26.031   6.450
 8198POPC   C2B49172  32.543  26.020   6.750
 8198POPC   C3B49173  32.520  26.041   7.050
 8198POPC   C4B49174  32.453  26.083   7.350
 8199POPC   NC349175   1.239  20.613   5.550
 8199POPC   PO449176   1.240  20.586   5.850
 8199POPC   GL149177   1.166  20.579   6.150
 8199POPC   GL249178   1.074  20.701   6.150
 8199POPC   C1A49179   1.216  20.652   6.450
 8199POPC   D2A49180   1.236  20.648   6.750
 8199POPC   C3A49181   1.251  20.575   7.050
 8199POPC   C4A49182   1.220  20.604   7.350
 8199POPC   C1B49183   0.967  20.742   6.450
 8199POPC   C2B49184   1.031  20.719   6.750
 8199POPC   C3B49185   1.032  20.711   7.050
 8199POPC   C4B49186   1.032  20.725   7.350
 8200POPC   NC349187  43.866  41.598   5.550
 8200POPC   PO449188  43.933  41.551   5.850
 8200POPC   GL149189  43.902  41.525   6.150
 8200POPC   GL249190  43.888  41.634   6.150
 8200POPC   C1A49191  43.901  41.597   6.450
 8200POPC   D2A49192  43.906  41.548   6.750
 8200POPC   C3A49193  43.935  41.591   7.050
 8200POPC   C4A49194  43.901  41.600   7.350
 8200POPC   C1B49195  43.870  41.845   6.450
 8200POPC   C2B49196  43.815  41.795   6.750
 8200POPC   C3B49197  43.878  41.835   7.050
 8200POPC   C4B49198  43.867  41.824   7.350
 8201POPC   NC349199  32.229  21.383   5.550
 8201POPC   PO449200  32.279  21.431   5.850
 8201POPC   GL149201  32.285  21.387   6.150
 8201POPC   GL249202  32.363  21.370   6.150
 8201POPC   C1A49203  32.268  21.400   6.450
 8201POPC   D2A49204  32.199  21.407   6.750
 8201POPC   C3A49205  32.244  21.353   7.050
 8201POPC   C4A49206  32.245  21.399   7.350
 8201POPC   C1B49207  32.521  21.281   6.450
 8201POPC   C2B49208  32.438  21.268   6.750
 8201POPC   C3B49209  32.515  21.302   7.050
 8201POPC   C4B49210  32.519  21.332   7.350
 8202POPC   NC349211   3.589  13.616   5.550
 8202POPC   PO449212   3.574  13.663   5.850
 8202POPC   GL149213   3.535  13.611   6.150
 8202POPC   GL249214   3.442  13.767   6.150
 8202POPC   C1A49215   3.493  13.622   6.450
 8202POPC   D2A49216   3.585  13.603   6.750
 8202POPC   C3A49217   3.540  13.595   7.050
 8202POPC   C4A49218   3.491  13.604   7.350
 8202POPC   C1B49219   3.448  13.890   6.450
 8202POPC   C2B49220   3.446  13.837   6.750
 8202POPC   C3B49221   3.484  13.832   7.050
 8202POPC   C4B49222   3.469  13.882   7.350
 8203POPC   NC349223  29.913  29.948   5.550
 8203POPC   PO449224  29.931  29.956   5.850
 8203POPC   GL149225  29.917  29.957   6.150
 8203POPC   GL249226  29.927  30.053   6.150
 8203POPC   C1A49227  29.888  29.957   6.450
 8203POPC   D2A49228  29.939  29.885   6.750
 8203POPC   C3A49229  29.872  29.959   7.050
 8203POPC   C4A49230  29.914  29.904   7.350
 8203POPC   C1B49231  29.882  30.199   6.450
 8203POPC   C2B49232  29.914  30.164   6.750
 8203POPC   C3B49233  29.861  30.216   7.050
 8203POPC   C4B49234  29.898  30.183   7.350
 8204POPC   NC349235  37.649  18.241   5.550
 8204POPC   PO449236  37.634  18.309   5.850
 8204POPC   GL149237  37.719  18.261   6.150
 8204POPC   GL249238  37.655  18.183   6.150
 8204POPC   C1A49239  37.680  18.270   6.450
 8204POPC   D2A49240  37.704  18.328   6.750
 8204POPC   C3A49241  37.708  18.309   7.050
 8204POPC   C4A49242  37.703  18.323   7.350
 8204POPC   C1B49243  37.493  18.072   6.450
 8204POPC   C2B49244  37.537  18.038   6.750
 8204POPC   C3B49245  37.527  18.117   7.050
 8204POPC   C4B49246  37.528  18.099   7.350
 8205POPC   NC349247  33.032  11.296   5.550
 8205POPC   PO449248  33.037  11.307   5.850
 8205POPC   GL149249  33.018  11.272   6.150
 8205POPC   GL249250  32.893  11.321   6.150
 8205POPC   C1A49251  33.014  11.293   6.450
 8205POPC   D2A49252  33.059  11.342   6.750
 8205POPC   C3A49253  33.061  11.266   7.050
 8205POPC   C4A49254  33.030  11.321   7.350
 8205POPC   C1B49255  32.761  11.335   6.450
 8205POPC   C2B49256  32.817  11.351   6.750
 8205POPC   C3B49257  32.814  11.301   7.050
 8205POPC   C4B49258  32.793  11.293   7.350
 8206POPC   NC349259  36.153  36.150   5.550
 8206POPC   PO449260  36.158  36.102   5.850
 8206POPC   GL149261  36.098  36.079   6.150
 8206POPC   GL249262  36.048  36.219   6.150
 8206POPC   C1A49263  36.144  36.132   6.450
 8206POPC   D2A49264  36.084  36.078   6.750
 8206POPC   C3A49265  36.118  36.172   7.050
 8206POPC   C4A49266  36.127  36.157   7.350
 8206POPC   C1B49267  35.922  36.313   6.450
 8206POPC   C2B49268  35.987  36.313   6.750
 8206POPC   C3B49269  35.962  36.276   7.050
 8206POPC   C4B49270  35.929  36.256   7.350
 8207POPC   NC349271  27.622  40.004   5.550
 8207POPC   PO449272  27.607  40.017   5.850
 8207POPC   GL149273  27.586  40.013   6.150
 8207POPC   GL249274  27.453  40.108   6.150
 8207POPC   C1A49275  27.587  39.981   6.450
 8207POPC   D2A49276  27.605  40.048   6.750
 8207POPC   C3A49277  27.604  39.971   7.050
 8207POPC   C4A49278  27.548  40.052   7.350
 8207POPC   C1B49279  27.351  40.143   6.450
 8207POPC   C2B49280  27.333  40.086   6.750
 8207POPC   C3B49281  27.384  40.118   7.050
 8207POPC   C4B49282  27.417  40.148   7.350
 8208POPC   NC349283  14.390  24.530   5.550
 8208POPC   PO449284  14.403  24.450   5.850
 8208POPC   GL149285  14.414  24.521   6.150
 8208POPC   GL249286  14.334  24.369   6.150
 8208POPC   C1A49287  14.426  24.515   6.450
 8208POPC   D2A49288  14.440  24.461   6.750
 8208POPC   C3A49289  14.442  24.532   7.050
 8208POPC   C4A49290  14.360  24.488   7.350
 8208POPC   C1B49291  14.241  24.295   6.450
 8208POPC   C2B49292  14.288  24.309   6.750
 8208POPC   C3B49293  14.241  24.293   7.050
 8208POPC   C4B49294  14.239  24.284   7.350
 8209POPC   NC349295  40.769  17.511   5.550
 8209POPC   PO449296  40.833  17.462   5.850
 8209POPC   GL149297  40.774  17.497   6.150
 8209POPC   GL249298  40.831  17.398   6.150
 8209POPC   C1A49299  40.785  17.484   6.450
 8209POPC   D2A49300  40.766  17.525   6.750
 8209POPC   C3A49301  40.734  17.458   7.050
 8209POPC   C4A49302  40.759  17.469   7.350
 8209POPC   C1B49303  40.853  17.212   6.450
 8209POPC   C2B49304  40.776  17.272   6.750
 8209POPC   C3B49305  40.810  17.213   7.050
 8209POPC   C4B49306  40.784  17.292   7.350
 8210POPC   NC349307  39.982  33.840   5.550
 8210POPC   PO449308  40.022  33.802   5.850
 8210POPC   GL149309  39.980  33.838   6.150
 8210POPC   GL249310  40.088  33.740   6.150
 8210POPC   C1A49311  40.009  33.803   6.450
 8210POPC   D2A49312  40.020  33.794   6.750
 8210POPC   C3A49313  40.032  33.840   7.050
 8210POPC   C4A49314  40.001  33.805   7.350
 8210POPC   C1B49315  40.173  33.608   6.450
 8210POPC   C2B49316  40.130  33.591   6.750
 8210POPC   C3B49317  40.114  33.620   7.050
 8210POPC   C4B49318  40.194  33.586   7.350
 8211POPC   NC349319  16.706   0.460   5.550
 8211POPC   PO449320  16.686   0.433   5.850
 8211POPC   GL149321  16.778   0.422   6.150
 8211POPC   GL249322  16.869   0.480   6.150
 8211POPC   C1A49323  16.691   0.389   6.450
 8211POPC   D2A49324  16.712   0.405   6.750
 8211POPC   C3A49325  16.715   0.462   7.050
 8211POPC   C4A49326  16.731   0.474   7.350
 8211POPC   C1B49327  16.978   0.518   6.450
 8211POPC   C2B49328  17.011   0.551   6.750
 8211POPC   C3B49329  16.936   0.521   7.050
 8211POPC   C4B49330  16.944   0.498   7.350
 8212POPC   NC349331  24.452   2.012   5.550
 8212POPC   PO449332  24.503   2.022   5.850
 8212POPC   GL149333  24.514   2.038   6.150
 8212POPC   GL249334  24.634   2.034   6.150
 8212POPC   C1A49335  24.520   1.952   6.450
 8212POPC   D2A49336  24.516   2.005   6.750
 8212POPC   C3A49337  24.475   1.967   7.050
 8212POPC   C4A49338  24.526   1.997   7.350
 8212POPC   C1B49339  24.733   1.995   6.450
 8212POPC   C2B49340  24.748   2.022   6.750
 8212POPC   C3B49341  24.712   2.019   7.050
 8212POPC   C4B49342  24.692   2.000   7.350
 8213POPC   NC349343  31.512   5.112   5.550
 8213POPC   PO449344  31.520   5.055   5.850
 8213POPC   GL149345  31.445   5.084   6.150
 8213POPC   GL249346  31.475   5.223   6.150
 8213POPC   C1A49347  31.431   5.089   6.450
 8213POPC   D2A49348  31.473   5.085   6.750
 8213POPC   C3A49349  31.497   5.139   7.050
 8213POPC   C4A49350  31.467   5.112   7.350
 8213POPC   C1B49351  31.517   5.349   6.450
 8213POPC   C2B49352  31.585   5.295   6.750
 8213POPC   C3B49353  31.500   5.344   7.050
 8213POPC   C4B49354  31.540   5.376   7.350
 8214POPC   NC349355  10.545  19.039   5.550
 8214POPC   PO449356  10.517  19.048   5.850
 8214POPC   GL149357  10.565  19.102   6.150
 8214POPC   GL249358  10.611  19.220   6.150
 8214POPC   C1A49359  10.482  19.036   6.450
 8214POPC   D2A49360  10.573  19.065   6.750
 8214POPC   C3A49361  10.516  19.033   7.050
 8214POPC   C4A49362  10.535  19.060   7.350
 8214POPC   C1B49363  10.643  19.320   6.450
 8214POPC   C2B49364  10.603  19.327   6.750
 8214POPC   C3B49365  10.624  19.335   7.050
 8214POPC   C4B49366  10.615  19.281   7.350
 8215POPC   NC349367  41.584  13.579   5.550
 8215POPC   PO449368  41.562  13.646   5.850
 8215POPC   GL149369  41.510  13.595   6.150
 8215POPC   GL249370  41.564  13.798   6.150
 8215POPC   C1A49371  41.529  13.584   6.450
 8215POPC   D2A49372  41.543  13.612   6.750
 8215POPC   C3A49373  41.581  13.676   7.050
 8215POPC   C4A49374  41.574  13.642   7.350
 8215POPC   C1B49375  41.562  13.863   6.450
 8215POPC   C2B49376  41.642  13.884   6.750
 8215POPC   C3B49377  41.631  13.833   7.050
 8215POPC   C4B49378  41.612  13.838   7.350
 8216POPC   NC349379  34.594   0.426   5.550
 8216POPC   PO449380  34.538   0.450   5.850
 8216POPC   GL149381  34.595   0.461   6.150
 8216POPC   GL249382  34.424   0.412   6.150
 8216POPC   C1A49383  34.551   0.468   6.450
 8216POPC   D2A49384  34.538   0.424   6.750
 8216POPC   C3A49385  34.619   0.393   7.050
 8216POPC   C4A49386  34.577   0.412   7.350
 8216POPC   C1B49387  34.331   0.360   6.450
 8216POPC   C2B49388  34.347   0.368   6.750
 8216POPC   C3B49389  34.353   0.335   7.050
 8216POPC   C4B49390  34.376   0.368   7.350
 8217POPC   NC349391  22.202  43.884   5.550
 8217POPC   PO449392  22.138  43.915   5.850
 8217POPC   GL149393  22.114  43.928   6.150
 8217POPC   GL249394  22.093  43.977   6.150
 8217POPC   C1A49395  22.151  43.873   6.450
 8217POPC   D2A49396  22.168  43.863   6.750
 8217POPC   C3A49397  22.203  43.882   7.050
 8217POPC   C4A49398  22.212  43.929   7.350
 8217POPC   C1B49399  21.978  44.006   6.450
 8217POPC   C2B49400  21.901  43.977   6.750
 8217POPC   C3B49401  21.949  43.947   7.050
 8217POPC   C4B49402  21.892  44.033   7.350
 8218POPC   NC349403   8.192  40.013   5.550
 8218POPC   PO449404   8.150  39.963   5.850
 8218POPC   GL149405   8.175  40.056   6.150
 8218POPC   GL249406   8.142  40.097   6.150
 8218POPC   C1A49407   8.235  39.991   6.450
 8218POPC   D2A49408   8.237  40.032   6.750
 8218POPC   C3A49409   8.151  39.958   7.050
 8218POPC   C4A49410   8.240  40.014   7.350
 8218POPC   C1B49411   8.139  40.265   6.450
 8218POPC   C2B49412   8.168  40.256   6.750
 8218POPC   C3B49413   8.115  40.301   7.050
 8218POPC   C4B49414   8.152  40.206   7.350
 8219POPC   NC349415  24.489  19.079   5.550
 8219POPC   PO449416  24.533  19.084   5.850
 8219POPC   GL149417  24.463  19.020   6.150
 8219POPC   GL249418  24.386  19.186   6.150
 8219POPC   C1A49419  24.498  19.052   6.450
 8219POPC   D2A49420  24.511  19.019   6.750
 8219POPC   C3A49421  24.445  19.065   7.050
 8219POPC   C4A49422  24.539  19.024   7.350
 8219POPC   C1B49423  24.396  19.314   6.450
 8219POPC   C2B49424  24.351  19.278   6.750
 8219POPC   C3B49425  24.409  19.327   7.050
 8219POPC   C4B49426  24.380  19.281   7.350
 8220POPC   NC349427   6.610  16.715   5.550
 8220POPC   PO449428   6.654  16.753   5.850
 8220POPC   GL149429   6.630  16.683   6.150
 8220POPC   GL249430   6.715  16.669   6.150
 8220POPC   C1A49431   6.681  16.766   6.450
 8220POPC   D2A49432   6.656  16.779   6.750
 8220POPC   C3A49433   6.646  16.692   7.050
 8220POPC   C4A49434   6.654  16.704   7.350
 8220POPC   C1B49435   6.829  16.638   6.450
 8220POPC   C2B49436   6.884  16.601   6.750
 8220POPC   C3B49437   6.844  16.613   7.050
 8220POPC   C4B49438   6.869  16.615   7.350
 8221POPC   NC349439  19.101   8.944   5.550
 8221POPC   PO449440  19.103   9.002   5.850
 8221POPC   GL149441  19.078   8.945   6.150
 8221POPC   GL249442  19.020   9.061   6.150
 8221POPC   C1A49443  19.070   8.968   6.450
 8221POPC   D2A49444  19.043   8.986   6.750
 8221POPC   C3A49445  19.093   8.933   7.050
 8221POPC   C4A49446  19.025   8.938   7.350
 8221POPC   C1B49447  18.964   9.178   6.450
 8221POPC   C2B49448  18.966   9.221   6.750
 8221POPC   C3B49449  18.947   9.220   7.050
 8221POPC   C4B49450  18.971   9.243   7.350
 8222POPC   NC349451  22.985  40.778   5.550
 8222POPC   PO449452  22.987  40.789   5.850
 8222POPC   GL149453  22.905  40.823   6.150
 8222POPC   GL249454  22.900  40.870   6.150
 8222POPC   C1A49455  22.967  40.760   6.450
 8222POPC   D2A49456  22.945  40.760   6.750
 8222POPC   C3A49457  22.914  40.819   7.050
 8222POPC   C4A49458  22.907  40.767   7.350
 8222POPC   C1B49459  22.829  40.939   6.450
 8222POPC   C2B49460  22.834  40.999   6.750
 8222POPC   C3B49461  22.839  40.998   7.050
 8222POPC   C4B49462  22.814  40.959   7.350
 8223POPC   NC349463   2.760  27.605   5.550
 8223POPC   PO449464   2.755  27.575   5.850
 8223POPC   GL149465   2.747  27.616   6.150
 8223POPC   GL249466   2.765  27.686   6.150
 8223POPC   C1A49467   2.724  27.551   6.450
 8223POPC   D2A49468   2.775  27.561   6.750
 8223POPC   C3A49469   2.746  27.611   7.050
 8223POPC   C4A49470   2.798  27.593   7.350
 8223POPC   C1B49471   2.727  27.864   6.450
 8223POPC   C2B49472   2.765  27.858   6.750
 8223POPC   C3B49473   2.748  27.819   7.050
 8223POPC   C4B49474   2.700  27.854   7.350
 8224POPC   NC349475  36.864  15.160   5.550
 8224POPC   PO449476  36.952  15.192   5.850
 8224POPC   GL149477  36.920  15.191   6.150
 8224POPC   GL249478  36.868  15.087   6.150
 8224POPC   C1A49479  36.867  15.150   6.450
 8224POPC   D2A49480  36.913  15.157   6.750
 8224POPC   C3A49481  36.908  15.139   7.050
 8224POPC   C4A49482  36.898  15.157   7.350
 8224POPC   C1B49483  36.822  14.968   6.450
 8224POPC   C2B49484  36.870  14.983   6.750
 8224POPC   C3B49485  36.822  14.943   7.050
 8224POPC   C4B49486  36.854  14.947   7.350
 8225POPC   NC349487  40.816   5.909   5.550
 8225POPC   PO449488  40.770   5.904   5.850
 8225POPC   GL149489  40.766   5.860   6.150
 8225POPC   GL249490  40.631   5.831   6.150
 8225POPC   C1A49491  40.762   5.835   6.450
 8225POPC   D2A49492  40.741   5.880   6.750
 8225POPC   C3A49493  40.802   5.879   7.050
 8225POPC   C4A49494  40.814   5.915   7.350
 8225POPC   C1B49495  40.499   5.822   6.450
 8225POPC   C2B49496  40.544   5.832   6.750
 8225POPC   C3B49497  40.509   5.811   7.050
 8225POPC   C4B49498  40.567   5.844   7.350
 8226POPC   NC349499  26.852  43.149   5.550
 8226POPC   PO449500  26.849  43.148   5.850
 8226POPC   GL149501  26.834  43.112   6.150
 8226POPC   GL249502  26.912  43.105   6.150
 8226POPC   C1A49503  26.773  43.089   6.450
 8226POPC   D2A49504  26.843  43.074   6.750
 8226POPC   C3A49505  26.852  43.154   7.050
 8226POPC   C4A49506  26.824  43.121   7.350
 8226POPC   C1B49507  27.011  43.074   6.450
 8226POPC   C2B49508  27.094  43.015   6.750
 8226POPC   C3B49509  27.052  43.004   7.050
 8226POPC   C4B49510  27.082  42.987   7.350
 8227POPC   NC349511   7.432   1.218   5.550
 8227POPC   PO449512   7.398   1.257   5.850
 8227POPC   GL149513   7.418   1.247   6.150
 8227POPC   GL249514   7.312   1.145   6.150
 8227POPC   C1A49515   7.459   1.192   6.450
 8227POPC   D2A49516   7.454   1.252   6.750
 8227POPC   C3A49517   7.380   1.208   7.050
 8227POPC   C4A49518   7.414   1.188   7.350
 8227POPC   C1B49519   7.252   0.970   6.450
 8227POPC   C2B49520   7.308   0.981   6.750
 8227POPC   C3B49521   7.265   1.032   7.050
 8227POPC   C4B49522   7.265   0.972   7.350
 8228POPC   NC349523   9.020  14.422   5.550
 8228POPC   PO449524   8.986  14.418   5.850
 8228POPC   GL149525   9.005  14.438   6.150
 8228POPC   GL249526   8.866  14.472   6.150
 8228POPC   C1A49527   8.993  14.419   6.450
 8228POPC   D2A49528   8.957  14.378   6.750
 8228POPC   C3A49529   8.980  14.429   7.050
 8228POPC   C4A49530   9.014  14.434   7.350
 8228POPC   C1B49531   8.711  14.424   6.450
 8228POPC   C2B49532   8.736  14.485   6.750
 8228POPC   C3B49533   8.704  14.412   7.050
 8228POPC   C4B49534   8.754  14.476   7.350
 8229POPC   NC349535  35.368   4.281   5.550
 8229POPC   PO449536  35.362   4.361   5.850
 8229POPC   GL149537  35.346   4.363   6.150
 8229POPC   GL249538  35.515   4.287   6.150
 8229POPC   C1A49539  35.321   4.347   6.450
 8229POPC   D2A49540  35.368   4.299   6.750
 8229POPC   C3A49541  35.306   4.333   7.050
 8229POPC   C4A49542  35.308   4.310   7.350
 8229POPC   C1B49543  35.559   4.332   6.450
 8229POPC   C2B49544  35.579   4.283   6.750
 8229POPC   C3B49545  35.581   4.365   7.050
 8229POPC   C4B49546  35.630   4.283   7.350
 8230POPC   NC349547  19.057   5.056   5.550
 8230POPC   PO449548  19.025   5.061   5.850
 8230POPC   GL149549  19.032   5.048   6.150
 8230POPC   GL249550  19.109   5.168   6.150
 8230POPC   C1A49551  19.082   5.083   6.450
 8230POPC   D2A49552  19.099   5.094   6.750
 8230POPC   C3A49553  19.037   5.096   7.050
 8230POPC   C4A49554  19.026   5.090   7.350
 8230POPC   C1B49555  19.031   5.384   6.450
 8230POPC   C2B49556  19.023   5.362   6.750
 8230POPC   C3B49557  19.102   5.371   7.050
 8230POPC   C4B49558  19.039   5.374   7.350
 8231POPC   NC349559  15.132   9.766   5.550
 8231POPC   PO449560  15.202   9.725   5.850
 8231POPC   GL149561  15.178   9.783   6.150
 8231POPC   GL249562  15.091   9.686   6.150
 8231POPC   C1A49563  15.165   9.707   6.450
 8231POPC   D2A49564  15.223   9.752   6.750
 8231POPC   C3A49565  15.196   9.701   7.050
 8231POPC   C4A49566  15.155   9.715   7.350
 8231POPC   C1B49567  14.937   9.626   6.450
 8231POPC   C2B49568  14.978   9.633   6.750
 8231POPC   C3B49569  14.975   9.623   7.050
 8231POPC   C4B49570  14.962   9.626   7.350
 8232POPC   NC349571  14.391  34.552   5.550
 8232POPC   PO449572  14.442  34.615   5.850
 8232POPC   GL149573  14.392  34.622   6.150
 8232POPC   GL249574  14.303  34.563   6.150
 8232POPC   C1A49575  14.400  34.611   6.450
 8232POPC   D2A49576  14.403  34.621   6.750
 8232POPC   C3A49577  14.387  34.546   7.050
 8232POPC   C4A49578  14.431  34.574   7.350
 8232POPC   C1B49579  14.169  34.568   6.450
 8232POPC   C2B49580  14.185  34.579   6.750
 8232POPC   C3B49581  14.127  34.657   7.050
 8232POPC   C4B49582  14.108  34.648   7.350
 8233POPC   NC349583  31.521  13.608   5.550
 8233POPC   PO449584  31.427  13.602   5.850
 8233POPC   GL149585  31.479  13.587   6.150
 8233POPC   GL249586  31.416  13.718   6.150
 8233POPC   C1A49587  31.500  13.626   6.450
 8233POPC   D2A49588  31.477  13.587   6.750
 8233POPC   C3A49589  31.441  13.674   7.050
 8233POPC   C4A49590  31.433  13.598   7.350
 8233POPC   C1B49591  31.367  13.839   6.450
 8233POPC   C2B49592  31.388  13.888   6.750
 8233POPC   C3B49593  31.366  13.899   7.050
 8233POPC   C4B49594  31.359  13.909   7.350
 8234POPC   NC349595   7.463  34.608   5.550
 8234POPC   PO449596   7.445  34.615   5.850
 8234POPC   GL149597   7.427  34.603   6.150
 8234POPC   GL249598   7.528  34.518   6.150
 8234POPC   C1A49599   7.448  34.581   6.450
 8234POPC   D2A49600   7.431  34.602   6.750
 8234POPC   C3A49601   7.395  34.590   7.050
 8234POPC   C4A49602   7.431  34.529   7.350
 8234POPC   C1B49603   7.617  34.552   6.450
 8234POPC   C2B49604   7.629  34.485   6.750
 8234POPC   C3B49605   7.667  34.577   7.050
 8234POPC   C4B49606   7.627  34.579   7.350
 8235POPC   NC349607  16.759   9.016   5.550
 8235POPC   PO449608  16.774   8.931   5.850
 8235POPC   GL149609  16.752   8.957   6.150
 8235POPC   GL249610  16.851   9.095   6.150
 8235POPC   C1A49611  16.764   8.945   6.450
 8235POPC   D2A49612  16.725   8.938   6.750
 8235POPC   C3A49613  16.726   9.012   7.050
 8235POPC   C4A49614  16.750   9.019   7.350
 8235POPC   C1B49615  16.946   9.161   6.450
 8235POPC   C2B49616  16.935   9.098   6.750
 8235POPC   C3B49617  16.881   9.173   7.050
 8235POPC   C4B49618  16.928   9.102   7.350
 8236POPC   NC349619  44.620   6.639   5.550
 8236POPC   PO449620  44.661   6.682   5.850
 8236POPC   GL149621  44.662   6.662   6.150
 8236POPC   GL249622  44.590   6.697   6.150
 8236POPC   C1A49623  44.693   6.622   6.450
 8236POPC   D2A49624  44.670   6.643   6.750
 8236POPC   C3A49625  44.623   6.647   7.050
 8236POPC   C4A49626  44.613   6.598   7.350
 8236POPC   C1B49627  44.470   6.846   6.450
 8236POPC   C2B49628  44.440   6.766   6.750
 8236POPC   C3B49629  44.445   6.793   7.050
 8236POPC   C4B49630  44.471   6.854   7.350
 8237POPC   NC349631  44.619  39.198   5.550
 8237POPC   PO449632  44.651  39.221   5.850
 8237POPC   GL149633  44.654  39.203   6.150
 8237POPC   GL249634  44.777  39.174   6.150
 8237POPC   C1A49635  44.686  39.262   6.450
 8237POPC   D2A49636  44.655  39.237   6.750
 8237POPC   C3A49637  44.642  39.252   7.050
 8237POPC   C4A49638  44.711  39.245   7.350
 8237POPC   C1B49639  44.843  39.135   6.450
 8237POPC   C2B49640  44.928  39.063   6.750
 8237POPC   C3B49641  44.894  39.072   7.050
 8237POPC   C4B49642  44.839  39.151   7.350
 8238POPC   NC349643  23.755  19.817   5.550
 8238POPC   PO449644  23.700  19.829   5.850
 8238POPC   GL149645  23.702  19.810   6.150
 8238POPC   GL249646  23.582  19.837   6.150
 8238POPC   C1A49647  23.676  19.788   6.450
 8238POPC   D2A49648  23.742  19.789   6.750
 8238POPC   C3A49649  23.735  19.788   7.050
 8238POPC   C4A49650  23.750  19.846   7.350
 8238POPC   C1B49651  23.475  19.822   6.450
 8238POPC   C2B49652  23.466  19.860   6.750
 8238POPC   C3B49653  23.490  19.847   7.050
 8238POPC   C4B49654  23.492  19.829   7.350
 8239POPC   NC349655  21.419  19.099   5.550
 8239POPC   PO449656  21.387  19.087   5.850
 8239POPC   GL149657  21.373  19.070   6.150
 8239POPC   GL249658  21.301  19.072   6.150
 8239POPC   C1A49659  21.375  19.079   6.450
 8239POPC   D2A49660  21.351  19.011   6.750
 8239POPC   C3A49661  21.403  19.025   7.050
 8239POPC   C4A49662  21.413  19.063   7.350
 8239POPC   C1B49663  21.132  19.076   6.450
 8239POPC   C2B49664  21.178  19.089   6.750
 8239POPC   C3B49665  21.176  19.024   7.050
 8239POPC   C4B49666  21.149  19.027   7.350
 8240POPC   NC349667   2.029  16.740   5.550
 8240POPC   PO449668   2.033  16.729   5.850
 8240POPC   GL149669   2.023  16.733   6.150
 8240POPC   GL249670   1.855  16.681   6.150
 8240POPC   C1A49671   1.987  16.742   6.450
 8240POPC   D2A49672   2.004  16.703   6.750
 8240POPC   C3A49673   2.008  16.781   7.050
 8240POPC   C4A49674   1.975  16.768   7.350
 8240POPC   C1B49675   1.755  16.712   6.450
 8240POPC   C2B49676   1.782  16.693   6.750
 8240POPC   C3B49677   1.765  16.733   7.050
 8240POPC   C4B49678   1.696  16.702   7.350
 8241POPC   NC349679  26.807   4.315   5.550
 8241POPC   PO449680  26.806   4.366   5.850
 8241POPC   GL149681  26.835   4.288   6.150
 8241POPC   GL249682  26.904   4.268   6.150
 8241POPC   C1A49683  26.769   4.278   6.450
 8241POPC   D2A49684  26.791   4.343   6.750
 8241POPC   C3A49685  26.836   4.301   7.050
 8241POPC   C4A49686  26.810   4.274   7.350
 8241POPC   C1B49687  27.042   4.270   6.450
 8241POPC   C2B49688  27.092   4.272   6.750
 8241POPC   C3B49689  27.082   4.272   7.050
 8241POPC   C4B49690  27.078   4.365   7.350
 8242POPC   NC349691  33.846  24.469   5.550
 8242POPC   PO449692  33.815  24.527   5.850
 8242POPC   GL149693  33.769  24.486   6.150
 8242POPC   GL249694  33.722  24.575   6.150
 8242POPC   C1A49695  33.823  24.490   6.450
 8242POPC   D2A49696  33.798  24.472   6.750
 8242POPC   C3A49697  33.821  24.506   7.050
 8242POPC   C4A49698  33.761  24.509   7.350
 8242POPC   C1B49699  33.623  24.697   6.450
 8242POPC   C2B49700  33.652  24.699   6.750
 8242POPC   C3B49701  33.680  24.691   7.050
 8242POPC   C4B49702  33.641  24.656   7.350
 8243POPC   NC349703  24.511  26.071   5.550
 8243POPC   PO449704  24.495  26.026   5.850
 8243POPC   GL149705  24.537  26.088   6.150
 8243POPC   GL249706  24.399  26.191   6.150
 8243POPC   C1A49707  24.506  26.020   6.450
 8243POPC   D2A49708  24.471  26.091   6.750
 8243POPC   C3A49709  24.515  26.040   7.050
 8243POPC   C4A49710  24.483  26.004   7.350
 8243POPC   C1B49711  24.300  26.238   6.450
 8243POPC   C2B49712  24.348  26.262   6.750
 8243POPC   C3B49713  24.301  26.268   7.050
 8243POPC   C4B49714  24.308  26.233   7.350
 8244POPC   NC349715   7.461  35.339   5.550
 8244POPC   PO449716   7.405  35.389   5.850
 8244POPC   GL149717   7.383  35.355   6.150
 8244POPC   GL249718   7.582  35.384   6.150
 8244POPC   C1A49719   7.417  35.381   6.450
 8244POPC   D2A49720   7.451  35.324   6.750
 8244POPC   C3A49721   7.453  35.311   7.050
 8244POPC   C4A49722   7.462  35.383   7.350
 8244POPC   C1B49723   7.616  35.414   6.450
 8244POPC   C2B49724   7.681  35.415   6.750
 8244POPC   C3B49725   7.613  35.415   7.050
 8244POPC   C4B49726   7.682  35.429   7.350
 8245POPC   NC349727  24.481   5.090   5.550
 8245POPC   PO449728  24.533   5.128   5.850
 8245POPC   GL149729  24.451   5.050   6.150
 8245POPC   GL249730  24.538   4.987   6.150
 8245POPC   C1A49731  24.496   5.102   6.450
 8245POPC   D2A49732  24.482   5.048   6.750
 8245POPC   C3A49733  24.509   5.089   7.050
 8245POPC   C4A49734  24.512   5.115   7.350
 8245POPC   C1B49735  24.470   4.869   6.450
 8245POPC   C2B49736  24.549   4.842   6.750
 8245POPC   C3B49737  24.504   4.817   7.050
 8245POPC   C4B49738  24.540   4.823   7.350
 8246POPC   NC349739  11.250  27.569   5.550
 8246POPC   PO449740  11.270  27.567   5.850
 8246POPC   GL149741  11.255  27.616   6.150
 8246POPC   GL249742  11.222  27.676   6.150
 8246POPC   C1A49743  11.265  27.609   6.450
 8246POPC   D2A49744  11.292  27.632   6.750
 8246POPC   C3A49745  11.313  27.613   7.050
 8246POPC   C4A49746  11.257  27.604   7.350
 8246POPC   C1B49747  11.201  27.875   6.450
 8246POPC   C2B49748  11.190  27.798   6.750
 8246POPC   C3B49749  11.262  27.831   7.050
 8246POPC   C4B49750  11.208  27.858   7.350
 8247POPC   NC349751  12.125  22.973   5.550
 8247POPC   PO449752  12.071  22.903   5.850
 8247POPC   GL149753  12.125  22.934   6.150
 8247POPC   GL249754  11.941  22.967   6.150
 8247POPC   C1A49755  12.036  22.933   6.450
 8247POPC   D2A49756  12.072  22.898   6.750
 8247POPC   C3A49757  12.074  22.948   7.050
 8247POPC   C4A49758  12.033  22.913   7.350
 8247POPC   C1B49759  11.833  23.028   6.450
 8247POPC   C2B49760  11.792  22.993   6.750
 8247POPC   C3B49761  11.807  22.989   7.050
 8247POPC   C4B49762  11.866  22.979   7.350
 8248POPC   NC349763  35.400  21.347   5.550
 8248POPC   PO449764  35.392  21.413   5.850
 8248POPC   GL149765  35.375  21.413   6.150
 8248POPC   GL249766  35.201  21.349   6.150
 8248POPC   C1A49767  35.374  21.365   6.450
 8248POPC   D2A49768  35.357  21.388   6.750
 8248POPC   C3A49769  35.331  21.425   7.050
 8248POPC   C4A49770  35.364  21.426   7.350
 8248POPC   C1B49771  35.164  21.204   6.450
 8248POPC   C2B49772  35.110  21.194   6.750
 8248POPC   C3B49773  35.149  21.198   7.050
 8248POPC   C4B49774  35.178  21.260   7.350
 8249POPC   NC349775  33.776  36.162   5.550
 8249POPC   PO449776  33.813  36.157   5.850
 8249POPC   GL149777  33.842  36.103   6.150
 8249POPC   GL249778  33.687  36.095   6.150
 8249POPC   C1A49779  33.774  36.149   6.450
 8249POPC   D2A49780  33.830  36.129   6.750
 8249POPC   C3A49781  33.798  36.109   7.050
 8249POPC   C4A49782  33.765  36.136   7.350
 8249POPC   C1B49783  33.562  36.034   6.450
 8249POPC   C2B49784  33.607  36.016   6.750
 8249POPC   C3B49785  33.558  36.012   7.050
 8249POPC   C4B49786  33.622  36.038   7.350
 8250POPC   NC349787  40.039  23.716   5.550
 8250POPC   PO449788  40.002  23.733   5.850
 8250POPC   GL149789  40.034  23.722   6.150
 8250POPC   GL249790  40.040  23.817   6.150
 8250POPC   C1A49791  39.977  23.683   6.450
 8250POPC   D2A49792  40.026  23.733   6.750
 8250POPC   C3A49793  40.056  23.685   7.050
 8250POPC   C4A49794  39.976  23.712   7.350
 8250POPC   C1B49795  39.995  23.970   6.450
 8250POPC   C2B49796  40.018  23.943   6.750
 8250POPC   C3B49797  39.984  24.008   7.050
 8250POPC   C4B49798  40.010  23.938   7.350
 8251POPC   NC349799  38.476  25.307   5.550
 8251POPC   PO449800  38.470  25.307   5.850
 8251POPC   GL149801  38.429  25.260   6.150
 8251POPC   GL249802  38.386  25.372   6.150
 8251POPC   C1A49803  38.501  25.221   6.450
 8251POPC   D2A49804  38.406  25.257   6.750
 8251POPC   C3A49805  38.475  25.306   7.050
 8251POPC   C4A49806  38.446  25.277   7.350
 8251POPC   C1B49807  38.198  25.408   6.450
 8251POPC   C2B49808  38.246  25.383   6.750
 8251POPC   C3B49809  38.249  25.372   7.050
 8251POPC   C4B49810  38.283  25.369   7.350
 8252POPC   NC349811  21.395  28.337   5.550
 8252POPC   PO449812  21.388  28.380   5.850
 8252POPC   GL149813  21.435  28.408   6.150
 8252POPC   GL249814  21.338  28.509   6.150
 8252POPC   C1A49815  21.373  28.337   6.450
 8252POPC   D2A49816  21.350  28.335   6.750
 8252POPC   C3A49817  21.395  28.328   7.050
 8252POPC   C4A49818  21.407  28.381   7.350
 8252POPC   C1B49819  21.369  28.590   6.450
 8252POPC   C2B49820  21.400  28.631   6.750
 8252POPC   C3B49821  21.394  28.632   7.050
 8252POPC   C4B49822  21.312  28.633   7.350
 8253POPC   NC349823   1.997   5.841   5.550
 8253POPC   PO449824   1.960   5.882   5.850
 8253POPC   GL149825   1.941   5.843   6.150
 8253POPC   GL249826   1.875   5.844   6.150
 8253POPC   C1A49827   2.018   5.886   6.450
 8253POPC   D2A49828   1.964   5.900   6.750
 8253POPC   C3A49829   1.960   5.830   7.050
 8253POPC   C4A49830   1.942   5.825   7.350
 8253POPC   C1B49831   1.724   5.738   6.450
 8253POPC   C2B49832   1.776   5.813   6.750
 8253POPC   C3B49833   1.771   5.770   7.050
 8253POPC   C4B49834   1.771   5.806   7.350
 8254POPC   NC349835  21.373   2.742   5.550
 8254POPC   PO449836  21.434   2.807   5.850
 8254POPC   GL149837  21.416   2.788   6.150
 8254POPC   GL249838  21.234   2.763   6.150
 8254POPC   C1A49839  21.426   2.755   6.450
 8254POPC   D2A49840  21.369   2.726   6.750
 8254POPC   C3A49841  21.370   2.757   7.050
 8254POPC   C4A49842  21.433   2.793   7.350
 8254POPC   C1B49843  21.173   2.864   6.450
 8254POPC   C2B49844  21.169   2.872   6.750
 8254POPC   C3B49845  21.138   2.891   7.050
 8254POPC   C4B49846  21.145   2.873   7.350
 8255POPC   NC349847   8.234   6.664   5.550
 8255POPC   PO449848   8.200   6.657   5.850
 8255POPC   GL149849   8.179   6.663   6.150
 8255POPC   GL249850   8.090   6.712   6.150
 8255POPC   C1A49851   8.152   6.671   6.450
 8255POPC   D2A49852   8.156   6.656   6.750
 8255POPC   C3A49853   8.188   6.641   7.050
 8255POPC   C4A49854   8.165   6.631   7.350
 8255POPC   C1B49855   8.033   6.766   6.450
 8255POPC   C2B49856   7.994   6.777   6.750
 8255POPC   C3B49857   7.971   6.801   7.050
 8255POPC   C4B49858   7.973   6.792   7.350
 8256POPC   NC349859  25.248   7.381   5.550
 8256POPC   PO449860  25.257   7.387   5.850
 8256POPC   GL149861  25.301   7.451   6.150
 8256POPC   GL249862  25.409   7.394   6.150
 8256POPC   C1A49863  25.273   7.435   6.450
 8256POPC   D2A49864  25.312   7.390   6.750
 8256POPC   C3A49865  25.273   7.397   7.050
 8256POPC   C4A49866  25.233   7.467   7.350
 8256POPC   C1B49867  25.523   7.421   6.450
 8256POPC   C2B49868  25.538   7.418   6.750
 8256POPC   C3B49869  25.502   7.439   7.050
 8256POPC   C4B49870  25.471   7.404   7.350
 8257POPC   NC349871  23.741  28.394   5.550
 8257POPC   PO449872  23.689  28.338   5.850
 8257POPC   GL149873  23.670  28.352   6.150
 8257POPC   GL249874  23.788  28.358   6.150
 8257POPC   C1A49875  23.704  28.400   6.450
 8257POPC   D2A49876  23.763  28.350   6.750
 8257POPC   C3A49877  23.727  28.404   7.050
 8257POPC   C4A49878  23.698  28.374   7.350
 8257POPC   C1B49879  23.947  28.441   6.450
 8257POPC   C2B49880  23.998  28.440   6.750
 8257POPC   C3B49881  23.934  28.369   7.050
 8257POPC   C4B49882  23.958  28.439   7.350
 8258POPC   NC349883  35.359   5.054   5.550
 8258POPC   PO449884  35.378   5.053   5.850
 8258POPC   GL149885  35.321   5.142   6.150
 8258POPC   GL249886  35.314   5.215   6.150
 8258POPC   C1A49887  35.353   5.135   6.450
 8258POPC   D2A49888  35.331   5.102   6.750
 8258POPC   C3A49889  35.339   5.115   7.050
 8258POPC   C4A49890  35.369   5.124   7.350
 8258POPC   C1B49891  35.307   5.327   6.450
 8258POPC   C2B49892  35.315   5.377   6.750
 8258POPC   C3B49893  35.271   5.372   7.050
 8258POPC   C4B49894  35.292   5.318   7.350
 8259POPC   NC349895  29.118  29.111   5.550
 8259POPC   PO449896  29.114  29.115   5.850
 8259POPC   GL149897  29.162  29.142   6.150
 8259POPC   GL249898  29.062  29.198   6.150
 8259POPC   C1A49899  29.142  29.119   6.450
 8259POPC   D2A49900  29.103  29.149   6.750
 8259POPC   C3A49901  29.148  29.186   7.050
 8259POPC   C4A49902  29.117  29.116   7.350
 8259POPC   C1B49903  28.854  29.164   6.450
 8259POPC   C2B49904  28.858  29.150   6.750
 8259POPC   C3B49905  28.909  29.142   7.050
 8259POPC   C4B49906  28.887  29.201   7.350
 8260POPC   NC349907  20.619  39.962   5.550
 8260POPC   PO449908  20.596  40.016   5.850
 8260POPC   GL149909  20.610  40.017   6.150
 8260POPC   GL249910  20.540  40.084   6.150
 8260POPC   C1A49911  20.642  40.031   6.450
 8260POPC   D2A49912  20.610  39.973   6.750
 8260POPC   C3A49913  20.636  39.975   7.050
 8260POPC   C4A49914  20.572  40.050   7.350
 8260POPC   C1B49915  20.472  40.252   6.450
 8260POPC   C2B49916  20.457  40.210   6.750
 8260POPC   C3B49917  20.466  40.241   7.050
 8260POPC   C4B49918  20.467  40.274   7.350
 8261POPC   NC349919  13.651   2.022   5.550
 8261POPC   PO449920  13.587   1.944   5.850
 8261POPC   GL149921  13.609   2.002   6.150
 8261POPC   GL249922  13.460   1.931   6.150
 8261POPC   C1A49923  13.592   1.990   6.450
 8261POPC   D2A49924  13.625   2.003   6.750
 8261POPC   C3A49925  13.599   2.035   7.050
 8261POPC   C4A49926  13.669   1.964   7.350
 8261POPC   C1B49927  13.395   1.918   6.450
 8261POPC   C2B49928  13.368   1.971   6.750
 8261POPC   C3B49929  13.360   1.913   7.050
 8261POPC   C4B49930  13.347   1.926   7.350
 8262POPC   NC349931   3.586   1.976   5.550
 8262POPC   PO449932   3.552   2.008   5.850
 8262POPC   GL149933   3.546   1.983   6.150
 8262POPC   GL249934   3.643   1.916   6.150
 8262POPC   C1A49935   3.562   2.004   6.450
 8262POPC   D2A49936   3.547   2.001   6.750
 8262POPC   C3A49937   3.527   2.024   7.050
 8262POPC   C4A49938   3.502   1.985   7.350
 8262POPC   C1B49939   3.725   1.821   6.450
 8262POPC   C2B49940   3.735   1.855   6.750
 8262POPC   C3B49941   3.801   1.882   7.050
 8262POPC   C4B49942   3.765   1.881   7.350
 8263POPC   NC349943   0.415   6.661   5.550
 8263POPC   PO449944   0.449   6.634   5.850
 8263POPC   GL149945   0.412   6.633   6.150
 8263POPC   GL249946   0.440   6.566   6.150
 8263POPC   C1A49947   0.414   6.678   6.450
 8263POPC   D2A49948   0.413   6.663   6.750
 8263POPC   C3A49949   0.457   6.608   7.050
 8263POPC   C4A49950   0.474   6.692   7.350
 8263POPC   C1B49951   0.422   6.443   6.450
 8263POPC   C2B49952   0.447   6.402   6.750
 8263POPC   C3B49953   0.414   6.404   7.050
 8263POPC   C4B49954   0.443   6.426   7.350
 8264POPC   NC349955   6.608  17.527   5.550
 8264POPC   PO449956   6.631  17.557   5.850
 8264POPC   GL149957   6.668  17.464   6.150
 8264POPC   GL249958   6.644  17.408   6.150
 8264POPC   C1A49959   6.600  17.489   6.450
 8264POPC   D2A49960   6.691  17.489   6.750
 8264POPC   C3A49961   6.609  17.530   7.050
 8264POPC   C4A49962   6.686  17.468   7.350
 8264POPC   C1B49963   6.583  17.232   6.450
 8264POPC   C2B49964   6.620  17.265   6.750
 8264POPC   C3B49965   6.629  17.251   7.050
 8264POPC   C4B49966   6.596  17.221   7.350
 8265POPC   NC349967  28.397  36.138   5.550
 8265POPC   PO449968  28.369  36.110   5.850
 8265POPC   GL149969  28.418  36.140   6.150
 8265POPC   GL249970  28.455  36.097   6.150
 8265POPC   C1A49971  28.357  36.128   6.450
 8265POPC   D2A49972  28.417  36.147   6.750
 8265POPC   C3A49973  28.352  36.114   7.050
 8265POPC   C4A49974  28.340  36.108   7.350
 8265POPC   C1B49975  28.592  36.139   6.450
 8265POPC   C2B49976  28.621  36.128   6.750
 8265POPC   C3B49977  28.662  36.091   7.050
 8265POPC   C4B49978  28.573  36.051   7.350
 8266POPC   NC349979  36.144  12.847   5.550
 8266POPC   PO449980  36.174  12.881   5.850
 8266POPC   GL149981  36.177  12.816   6.150
 8266POPC   GL249982  36.217  12.729   6.150
 8266POPC   C1A49983  36.082  12.838   6.450
 8266POPC   D2A49984  36.165  12.836   6.750
 8266POPC   C3A49985  36.157  12.841   7.050
 8266POPC   C4A49986  36.114  12.835   7.350
 8266POPC   C1B49987  36.270  12.645   6.450
 8266POPC   C2B49988  36.233  12.628   6.750
 8266POPC   C3B49989  36.264  12.606   7.050
 8266POPC   C4B49990  36.178  12.604   7.350
 8267POPC   NC349991  40.008  27.621   5.550
 8267POPC   PO449992  39.977  27.593   5.850
 8267POPC   GL149993  40.015  27.592   6.150
 8267POPC   GL249994  40.090  27.635   6.150
 8267POPC   C1A49995  40.037  27.611   6.450
 8267POPC   D2A49996  39.961  27.633   6.750
 8267POPC   C3A49997  39.964  27.611   7.050
 8267POPC   C4A49998  40.030  27.624   7.350
 8267POPC   C1B49999  40.279  27.657   6.450
 8267POPC   C2B50000  40.226  27.589   6.750
 8267POPC   C3B50001  40.210  27.585   7.050
 8267POPC   C4B50002  40.258  27.595   7.350
 8268POPC   NC350003  29.954  31.459   5.550
 8268POPC   PO450004  29.956  31.479   5.850
 8268POPC   GL150005  29.891  31.451   6.150
 8268POPC   GL250006  29.892  31.309   6.150
 8268POPC   C1A50007  29.966  31.486   6.450
 8268POPC   D2A50008  29.971  31.513   6.750
 8268POPC   C3A50009  29.911  31.484   7.050
 8268POPC   C4A50010  29.937  31.454   7.350
 8268POPC   C1B50011  29.928  31.215   6.450
 8268POPC   C2B50012  29.886  31.272   6.750
 8268POPC   C3B50013  29.877  31.182   7.050
 8268POPC   C4B50014  29.867  31.244   7.350
 8269POPC   NC350015   1.989  19.786   5.550
 8269POPC   PO450016   1.993  19.814   5.850
 8269POPC   GL150017   2.017  19.847   6.150
 8269POPC   GL250018   2.127  19.841   6.150
 8269POPC   C1A50019   2.022  19.853   6.450
 8269POPC   D2A50020   2.036  19.851   6.750
 8269POPC   C3A50021   2.019  19.872   7.050
 8269POPC   C4A50022   2.026  19.874   7.350
 8269POPC   C1B50023   2.229  19.902   6.450
 8269POPC   C2B50024   2.224  19.965   6.750
 8269POPC   C3B50025   2.220  19.954   7.050
 8269POPC   C4B50026   2.185  19.936   7.350
 8270POPC   NC350027  35.310  35.367   5.550
 8270POPC   PO450028  35.371  35.321   5.850
 8270POPC   GL150029  35.363  35.329   6.150
 8270POPC   GL250030  35.483  35.385   6.150
 8270POPC   C1A50031  35.400  35.388   6.450
 8270POPC   D2A50032  35.313  35.362   6.750
 8270POPC   C3A50033  35.329  35.359   7.050
 8270POPC   C4A50034  35.323  35.330   7.350
 8270POPC   C1B50035  35.645  35.379   6.450
 8270POPC   C2B50036  35.631  35.329   6.750
 8270POPC   C3B50037  35.627  35.381   7.050
 8270POPC   C4B50038  35.556  35.337   7.350
 8271POPC   NC350039  36.112   2.750   5.550
 8271POPC   PO450040  36.154   2.793   5.850
 8271POPC   GL150041  36.120   2.730   6.150
 8271POPC   GL250042  36.205   2.836   6.150
 8271POPC   C1A50043  36.135   2.716   6.450
 8271POPC   D2A50044  36.133   2.753   6.750
 8271POPC   C3A50045  36.121   2.802   7.050
 8271POPC   C4A50046  36.098   2.802   7.350
 8271POPC   C1B50047  36.227   2.973   6.450
 8271POPC   C2B50048  36.223   3.011   6.750
 8271POPC   C3B50049  36.276   2.979   7.050
 8271POPC   C4B50050  36.247   2.994   7.350
 8272POPC   NC350051  24.457  23.736   5.550
 8272POPC   PO450052  24.487  23.709   5.850
 8272POPC   GL150053  24.506  23.737   6.150
 8272POPC   GL250054  24.592  23.790   6.150
 8272POPC   C1A50055  24.478  23.750   6.450
 8272POPC   D2A50056  24.508  23.699   6.750
 8272POPC   C3A50057  24.511  23.694   7.050
 8272POPC   C4A50058  24.515  23.748   7.350
 8272POPC   C1B50059  24.662  23.892   6.450
 8272POPC   C2B50060  24.609  23.942   6.750
 8272POPC   C3B50061  24.633  23.876   7.050
 8272POPC   C4B50062  24.637  23.897   7.350
 8273POPC   NC350063  24.457  25.238   5.550
 8273POPC   PO450064  24.466  25.247   5.850
 8273POPC   GL150065  24.501  25.243   6.150
 8273POPC   GL250066  24.459  25.427   6.150
 8273POPC   C1A50067  24.448  25.232   6.450
 8273POPC   D2A50068  24.535  25.306   6.750
 8273POPC   C3A50069  24.499  25.308   7.050
 8273POPC   C4A50070  24.447  25.287   7.350
 8273POPC   C1B50071  24.547  25.492   6.450
 8273POPC   C2B50072  24.502  25.532   6.750
 8273POPC   C3B50073  24.536  25.541   7.050
 8273POPC   C4B50074  24.503  25.540   7.350
 8274POPC   NC350075   4.274   6.599   5.550
 8274POPC   PO450076   4.276   6.653   5.850
 8274POPC   GL150077   4.302   6.633   6.150
 8274POPC   GL250078   4.224   6.708   6.150
 8274POPC   C1A50079   4.284   6.661   6.450
 8274POPC   D2A50080   4.269   6.629   6.750
 8274POPC   C3A50081   4.325   6.601   7.050
 8274POPC   C4A50082   4.332   6.619   7.350
 8274POPC   C1B50083   4.086   6.786   6.450
 8274POPC   C2B50084   4.075   6.753   6.750
 8274POPC   C3B50085   4.124   6.827   7.050
 8274POPC   C4B50086   4.117   6.737   7.350
 8275POPC   NC350087   6.692  15.131   5.550
 8275POPC   PO450088   6.604  15.137   5.850
 8275POPC   GL150089   6.616  15.135   6.150
 8275POPC   GL250090   6.659  15.025   6.150
 8275POPC   C1A50091   6.651  15.195   6.450
 8275POPC   D2A50092   6.604  15.216   6.750
 8275POPC   C3A50093   6.642  15.190   7.050
 8275POPC   C4A50094   6.612  15.224   7.350
 8275POPC   C1B50095   6.725  14.984   6.450
 8275POPC   C2B50096   6.725  14.902   6.750
 8275POPC   C3B50097   6.705  14.922   7.050
 8275POPC   C4B50098   6.686  14.946   7.350
 8276POPC   NC350099  44.690  19.785   5.550
 8276POPC   PO450100  44.684  19.837   5.850
 8276POPC   GL150101  44.668  19.851   6.150
 8276POPC   GL250102  44.740  19.979   6.150
 8276POPC   C1A50103  44.623  19.821   6.450
 8276POPC   D2A50104  44.654  19.866   6.750
 8276POPC   C3A50105  44.654  19.798   7.050
 8276POPC   C4A50106  44.652  19.841   7.350
 8276POPC   C1B50107  44.734  20.070   6.450
 8276POPC   C2B50108  44.759  20.036   6.750
 8276POPC   C3B50109  44.815  20.014   7.050
 8276POPC   C4B50110  44.745  20.046   7.350
 8277POPC   NC350111  14.422  43.876   5.550
 8277POPC   PO450112  14.445  43.858   5.850
 8277POPC   GL150113  14.374  43.890   6.150
 8277POPC   GL250114  14.411  44.002   6.150
 8277POPC   C1A50115  14.403  43.891   6.450
 8277POPC   D2A50116  14.428  43.851   6.750
 8277POPC   C3A50117  14.364  43.898   7.050
 8277POPC   C4A50118  14.406  43.922   7.350
 8277POPC   C1B50119  14.362  44.117   6.450
 8277POPC   C2B50120  14.322  44.166   6.750
 8277POPC   C3B50121  14.345  44.170   7.050
 8277POPC   C4B50122  14.325  44.167   7.350
 8278POPC   NC350123   6.681  32.979   5.550
 8278POPC   PO450124   6.666  33.039   5.850
 8278POPC   GL150125   6.685  33.023   6.150
 8278POPC   GL250126   6.556  32.923   6.150
 8278POPC   C1A50127   6.599  33.014   6.450
 8278POPC   D2A50128   6.641  33.062   6.750
 8278POPC   C3A50129   6.622  33.005   7.050
 8278POPC   C4A50130   6.624  32.990   7.350
 8278POPC   C1B50131   6.481  32.873   6.450
 8278POPC   C2B50132   6.454  32.794   6.750
 8278POPC   C3B50133   6.446  32.858   7.050
 8278POPC   C4B50134   6.460  32.844   7.350
 8279POPC   NC350135   1.978  15.998   5.550
 8279POPC   PO450136   1.984  16.002   5.850
 8279POPC   GL150137   2.025  15.985   6.150
 8279POPC   GL250138   1.921  16.019   6.150
 8279POPC   C1A50139   1.989  15.969   6.450
 8279POPC   D2A50140   1.974  15.953   6.750
 8279POPC   C3A50141   1.993  15.999   7.050
 8279POPC   C4A50142   1.984  15.911   7.350
 8279POPC   C1B50143   1.837  16.078   6.450
 8279POPC   C2B50144   1.806  16.071   6.750
 8279POPC   C3B50145   1.781  16.160   7.050
 8279POPC   C4B50146   1.796  16.080   7.350
 8280POPC   NC350147  33.041  27.622   5.550
 8280POPC   PO450148  33.072  27.547   5.850
 8280POPC   GL150149  33.000  27.576   6.150
 8280POPC   GL250150  33.153  27.712   6.150
 8280POPC   C1A50151  33.035  27.612   6.450
 8280POPC   D2A50152  33.052  27.624   6.750
 8280POPC   C3A50153  33.034  27.555   7.050
 8280POPC   C4A50154  32.980  27.639   7.350
 8280POPC   C1B50155  33.239  27.786   6.450
 8280POPC   C2B50156  33.216  27.789   6.750
 8280POPC   C3B50157  33.182  27.765   7.050
 8280POPC   C4B50158  33.241  27.725   7.350
 8281POPC   NC350159  19.864  12.811   5.550
 8281POPC   PO450160  19.883  12.884   5.850
 8281POPC   GL150161  19.853  12.841   6.150
 8281POPC   GL250162  19.923  12.814   6.150
 8281POPC   C1A50163  19.873  12.829   6.450
 8281POPC   D2A50164  19.792  12.818   6.750
 8281POPC   C3A50165  19.810  12.878   7.050
 8281POPC   C4A50166  19.848  12.809   7.350
 8281POPC   C1B50167  20.066  12.716   6.450
 8281POPC   C2B50168  20.094  12.683   6.750
 8281POPC   C3B50169  20.048  12.739   7.050
 8281POPC   C4B50170  19.997  12.731   7.350
 8282POPC   NC350171  12.899   9.790   5.550
 8282POPC   PO450172  12.866   9.797   5.850
 8282POPC   GL150173  12.819   9.749   6.150
 8282POPC   GL250174  12.731   9.676   6.150
 8282POPC   C1A50175  12.857   9.735   6.450
 8282POPC   D2A50176  12.832   9.719   6.750
 8282POPC   C3A50177  12.897   9.728   7.050
 8282POPC   C4A50178  12.899   9.798   7.350
 8282POPC   C1B50179  12.712   9.520   6.450
 8282POPC   C2B50180  12.707   9.533   6.750
 8282POPC   C3B50181  12.725   9.570   7.050
 8282POPC   C4B50182  12.673   9.508   7.350
 8283POPC   NC350183  42.384  15.213   5.550
 8283POPC   PO450184  42.359  15.178   5.850
 8283POPC   GL150185  42.378  15.185   6.150
 8283POPC   GL250186  42.335  15.105   6.150
 8283POPC   C1A50187  42.303  15.202   6.450
 8283POPC   D2A50188  42.290  15.222   6.750
 8283POPC   C3A50189  42.321  15.139   7.050
 8283POPC   C4A50190  42.300  15.165   7.350
 8283POPC   C1B50191  42.254  14.920   6.450
 8283POPC   C2B50192  42.264  14.932   6.750
 8283POPC   C3B50193  42.261  14.968   7.050
 8283POPC   C4B50194  42.279  14.986   7.350
 8284POPC   NC350195  42.371   7.450   5.550
 8284POPC   PO450196  42.351   7.399   5.850
 8284POPC   GL150197  42.381   7.465   6.150
 8284POPC   GL250198  42.406   7.482   6.150
 8284POPC   C1A50199  42.294   7.377   6.450
 8284POPC   D2A50200  42.304   7.470   6.750
 8284POPC   C3A50201  42.321   7.376   7.050
 8284POPC   C4A50202  42.301   7.381   7.350
 8284POPC   C1B50203  42.487   7.583   6.450
 8284POPC   C2B50204  42.493   7.582   6.750
 8284POPC   C3B50205  42.526   7.626   7.050
 8284POPC   C4B50206  42.514   7.593   7.350
 8285POPC   NC350207  33.830  22.977   5.550
 8285POPC   PO450208  33.825  22.983   5.850
 8285POPC   GL150209  33.784  22.909   6.150
 8285POPC   GL250210  33.676  23.041   6.150
 8285POPC   C1A50211  33.764  22.936   6.450
 8285POPC   D2A50212  33.797  22.949   6.750
 8285POPC   C3A50213  33.752  22.888   7.050
 8285POPC   C4A50214  33.792  22.916   7.350
 8285POPC   C1B50215  33.592  23.105   6.450
 8285POPC   C2B50216  33.542  23.113   6.750
 8285POPC   C3B50217  33.619  23.114   7.050
 8285POPC   C4B50218  33.576  23.070   7.350
 8286POPC   NC350219  29.102  22.967   5.550
 8286POPC   PO450220  29.102  22.986   5.850
 8286POPC   GL150221  29.165  22.969   6.150
 8286POPC   GL250222  28.989  22.958   6.150
 8286POPC   C1A50223  29.146  22.982   6.450
 8286POPC   D2A50224  29.136  22.906   6.750
 8286POPC   C3A50225  29.190  22.892   7.050
 8286POPC   C4A50226  29.162  22.958   7.350
 8286POPC   C1B50227  28.873  22.898   6.450
 8286POPC   C2B50228  28.891  22.918   6.750
 8286POPC   C3B50229  28.867  22.959   7.050
 8286POPC   C4B50230  28.874  22.965   7.350
 8287POPC   NC350231  22.932  15.182   5.550
 8287POPC   PO450232  22.959  15.138   5.850
 8287POPC   GL150233  22.966  15.169   6.150
 8287POPC   GL250234  22.769  15.146   6.150
 8287POPC   C1A50235  22.915  15.143   6.450
 8287POPC   D2A50236  22.938  15.204   6.750
 8287POPC   C3A50237  22.926  15.209   7.050
 8287POPC   C4A50238  22.940  15.211   7.350
 8287POPC   C1B50239  22.747  15.107   6.450
 8287POPC   C2B50240  22.706  15.124   6.750
 8287POPC   C3B50241  22.718  15.130   7.050
 8287POPC   C4B50242  22.689  15.088   7.350
 8288POPC   NC350243   7.468  29.872   5.550
 8288POPC   PO450244   7.416  29.925   5.850
 8288POPC   GL150245   7.389  29.946   6.150
 8288POPC   GL250246   7.520  29.834   6.150
 8288POPC   C1A50247   7.435  29.939   6.450
 8288POPC   D2A50248   7.466  29.899   6.750
 8288POPC   C3A50249   7.451  29.944   7.050
 8288POPC   C4A50250   7.449  29.872   7.350
 8288POPC   C1B50251   7.593  29.769   6.450
 8288POPC   C2B50252   7.633  29.725   6.750
 8288POPC   C3B50253   7.593  29.731   7.050
 8288POPC   C4B50254   7.580  29.717   7.350
 8289POPC   NC350255  41.570   0.442   5.550
 8289POPC   PO450256  41.579   0.472   5.850
 8289POPC   GL150257  41.585   0.487   6.150
 8289POPC   GL250258  41.582   0.267   6.150
 8289POPC   C1A50259  41.530   0.472   6.450
 8289POPC   D2A50260  41.589   0.420   6.750
 8289POPC   C3A50261  41.546   0.475   7.050
 8289POPC   C4A50262  41.512   0.460   7.350
 8289POPC   C1B50263  41.574   0.192   6.450
 8289POPC   C2B50264  41.568   0.168   6.750
 8289POPC   C3B50265  41.607   0.192   7.050
 8289POPC   C4B50266  41.585   0.174   7.350
 8290POPC   NC350267  42.301  35.399   5.550
 8290POPC   PO450268  42.377  35.326   5.850
 8290POPC   GL150269  42.317  35.333   6.150
 8290POPC   GL250270  42.455  35.411   6.150
 8290POPC   C1A50271  42.371  35.338   6.450
 8290POPC   D2A50272  42.305  35.330   6.750
 8290POPC   C3A50273  42.341  35.328   7.050
 8290POPC   C4A50274  42.376  35.397   7.350
 8290POPC   C1B50275  42.514  35.549   6.450
 8290POPC   C2B50276  42.578  35.543   6.750
 8290POPC   C3B50277  42.491  35.501   7.050
 8290POPC   C4B50278  42.545  35.503   7.350
 8291POPC   NC350279  39.967  20.635   5.550
 8291POPC   PO450280  39.962  20.654   5.850
 8291POPC   GL150281  40.009  20.560   6.150
 8291POPC   GL250282  40.023  20.718   6.150
 8291POPC   C1A50283  39.992  20.658   6.450
 8291POPC   D2A50284  40.021  20.573   6.750
 8291POPC   C3A50285  40.041  20.645   7.050
 8291POPC   C4A50286  40.017  20.573   7.350
 8291POPC   C1B50287  39.926  20.870   6.450
 8291POPC   C2B50288  39.964  20.841   6.750
 8291POPC   C3B50289  40.023  20.901   7.050
 8291POPC   C4B50290  39.956  20.895   7.350
 8292POPC   NC350291  37.648  38.491   5.550
 8292POPC   PO450292  37.703  38.419   5.850
 8292POPC   GL150293  37.719  38.448   6.150
 8292POPC   GL250294  37.825  38.389   6.150
 8292POPC   C1A50295  37.662  38.487   6.450
 8292POPC   D2A50296  37.656  38.489   6.750
 8292POPC   C3A50297  37.641  38.471   7.050
 8292POPC   C4A50298  37.657  38.480   7.350
 8292POPC   C1B50299  37.927  38.377   6.450
 8292POPC   C2B50300  37.895  38.309   6.750
 8292POPC   C3B50301  37.893  38.365   7.050
 8292POPC   C4B50302  37.919  38.279   7.350
 8293POPC   NC350303  33.813  29.167   5.550
 8293POPC   PO450304  33.848  29.140   5.850
 8293POPC   GL150305  33.795  29.161   6.150
 8293POPC   GL250306  33.882  29.053   6.150
 8293POPC   C1A50307  33.783  29.120   6.450
 8293POPC   D2A50308  33.758  29.163   6.750
 8293POPC   C3A50309  33.842  29.117   7.050
 8293POPC   C4A50310  33.770  29.155   7.350
 8293POPC   C1B50311  33.988  28.924   6.450
 8293POPC   C2B50312  33.992  28.955   6.750
 8293POPC   C3B50313  33.996  28.983   7.050
 8293POPC   C4B50314  33.922  28.956   7.350
 8294POPC   NC350315  40.051  44.695   5.550
 8294POPC   PO450316  39.987  44.629   5.850
 8294POPC   GL150317  40.034  44.626   6.150
 8294POPC   GL250318  39.996  44.746   6.150
 8294POPC   C1A50319  39.982  44.639   6.450
 8294POPC   D2A50320  40.033  44.660   6.750
 8294POPC   C3A50321  39.991  44.686   7.050
 8294POPC   C4A50322  40.007  44.645   7.350
 8294POPC   C1B50323  39.918  44.875   6.450
 8294POPC   C2B50324  39.861  44.924   6.750
 8294POPC   C3B50325  39.918  44.867   7.050
 8294POPC   C4B50326  39.935  44.928   7.350
 8295POPC   NC350327  41.574  25.994   5.550
 8295POPC   PO450328  41.551  26.023   5.850
 8295POPC   GL150329  41.557  26.027   6.150
 8295POPC   GL250330  41.587  25.938   6.150
 8295POPC   C1A50331  41.530  26.071   6.450
 8295POPC   D2A50332  41.547  26.017   6.750
 8295POPC   C3A50333  41.573  26.048   7.050
 8295POPC   C4A50334  41.596  26.013   7.350
 8295POPC   C1B50335  41.630  25.811   6.450
 8295POPC   C2B50336  41.551  25.746   6.750
 8295POPC   C3B50337  41.551  25.773   7.050
 8295POPC   C4B50338  41.566  25.767   7.350
 8296POPC   NC350339  43.107  40.803   5.550
 8296POPC   PO450340  43.110  40.805   5.850
 8296POPC   GL150341  43.127  40.817   6.150
 8296POPC   GL250342  43.201  40.781   6.150
 8296POPC   C1A50343  43.126  40.741   6.450
 8296POPC   D2A50344  43.067  40.812   6.750
 8296POPC   C3A50345  43.091  40.751   7.050
 8296POPC   C4A50346  43.133  40.755   7.350
 8296POPC   C1B50347  43.316  40.738   6.450
 8296POPC   C2B50348  43.358  40.754   6.750
 8296POPC   C3B50349  43.372  40.791   7.050
 8296POPC   C4B50350  43.312  40.830   7.350
 8297POPC   NC350351  22.955  38.457   5.550
 8297POPC   PO450352  22.896  38.498   5.850
 8297POPC   GL150353  22.936  38.446   6.150
 8297POPC   GL250354  22.817  38.440   6.150
 8297POPC   C1A50355  22.949  38.497   6.450
 8297POPC   D2A50356  22.958  38.425   6.750
 8297POPC   C3A50357  22.904  38.442   7.050
 8297POPC   C4A50358  22.891  38.461   7.350
 8297POPC   C1B50359  22.680  38.428   6.450
 8297POPC   C2B50360  22.744  38.344   6.750
 8297POPC   C3B50361  22.683  38.341   7.050
 8297POPC   C4B50362  22.700  38.351   7.350
 8298POPC   NC350363   3.513   6.677   5.550
 8298POPC   PO450364   3.543   6.688   5.850
 8298POPC   GL150365   3.550   6.682   6.150
 8298POPC   GL250366   3.652   6.647   6.150
 8298POPC   C1A50367   3.580   6.676   6.450
 8298POPC   D2A50368   3.572   6.618   6.750
 8298POPC   C3A50369   3.589   6.679   7.050
 8298POPC   C4A50370   3.531   6.676   7.350
 8298POPC   C1B50371   3.834   6.653   6.450
 8298POPC   C2B50372   3.834   6.689   6.750
 8298POPC   C3B50373   3.833   6.682   7.050
 8298POPC   C4B50374   3.839   6.722   7.350
 8299POPC   NC350375  13.606   5.892   5.550
 8299POPC   PO450376  13.662   5.848   5.850
 8299POPC   GL150377  13.598   5.914   6.150
 8299POPC   GL250378  13.675   5.709   6.150
 8299POPC   C1A50379  13.648   5.820   6.450
 8299POPC   D2A50380  13.594   5.820   6.750
 8299POPC   C3A50381  13.636   5.826   7.050
 8299POPC   C4A50382  13.632   5.907   7.350
 8299POPC   C1B50383  13.656   5.605   6.450
 8299POPC   C2B50384  13.654   5.632   6.750
 8299POPC   C3B50385  13.683   5.633   7.050
 8299POPC   C4B50386  13.680   5.639   7.350
 8300POPC   NC350387  24.496   7.375   5.550
 8300POPC   PO450388  24.455   7.447   5.850
 8300POPC   GL150389  24.516   7.453   6.150
 8300POPC   GL250390  24.517   7.554   6.150
 8300POPC   C1A50391  24.526   7.375   6.450
 8300POPC   D2A50392  24.495   7.399   6.750
 8300POPC   C3A50393  24.469   7.419   7.050
 8300POPC   C4A50394  24.511   7.463   7.350
 8300POPC   C1B50395  24.565   7.621   6.450
 8300POPC   C2B50396  24.489   7.637   6.750
 8300POPC   C3B50397  24.499   7.664   7.050
 8300POPC   C4B50398  24.552   7.622   7.350
 8301POPC   NC350399  39.238  26.822   5.550
 8301POPC   PO450400  39.186  26.794   5.850
 8301POPC   GL150401  39.252  26.832   6.150
 8301POPC   GL250402  39.066  26.799   6.150
 8301POPC   C1A50403  39.181  26.773   6.450
 8301POPC   D2A50404  39.188  26.814   6.750
 8301POPC   C3A50405  39.268  26.816   7.050
 8301POPC   C4A50406  39.275  26.808   7.350
 8301POPC   C1B50407  39.003  26.859   6.450
 8301POPC   C2B50408  38.963  26.883   6.750
 8301POPC   C3B50409  39.025  26.844   7.050
 8301POPC   C4B50410  38.954  26.868   7.350
 8302POPC   NC350411   2.010   0.458   5.550
 8302POPC   PO450412   2.036   0.399   5.850
 8302POPC   GL150413   2.006   0.450   6.150
 8302POPC   GL250414   2.107   0.448   6.150
 8302POPC   C1A50415   2.027   0.478   6.450
 8302POPC   D2A50416   1.958   0.471   6.750
 8302POPC   C3A50417   1.985   0.414   7.050
 8302POPC   C4A50418   1.967   0.484   7.350
 8302POPC   C1B50419   2.215   0.435   6.450
 8302POPC   C2B50420   2.225   0.380   6.750
 8302POPC   C3B50421   2.199   0.401   7.050
 8302POPC   C4B50422   2.224   0.443   7.350
 8303POPC   NC350423  32.244  41.596   5.550
 8303POPC   PO450424  32.214  41.532   5.850
 8303POPC   GL150425  32.255  41.605   6.150
 8303POPC   GL250426  32.158  41.494   6.150
 8303POPC   C1A50427  32.259  41.509   6.450
 8303POPC   D2A50428  32.252  41.555   6.750
 8303POPC   C3A50429  32.216  41.538   7.050
 8303POPC   C4A50430  32.287  41.510   7.350
 8303POPC   C1B50431  32.156  41.300   6.450
 8303POPC   C2B50432  32.129  41.347   6.750
 8303POPC   C3B50433  32.084  41.384   7.050
 8303POPC   C4B50434  32.110  41.355   7.350
 8304POPC   NC350435  25.281  29.947   5.550
 8304POPC   PO450436  25.304  29.960   5.850
 8304POPC   GL150437  25.222  29.922   6.150
 8304POPC   GL250438  25.173  29.816   6.150
 8304POPC   C1A50439  25.280  29.877   6.450
 8304POPC   D2A50440  25.298  29.926   6.750
 8304POPC   C3A50441  25.237  29.920   7.050
 8304POPC   C4A50442  25.291  29.873   7.350
 8304POPC   C1B50443  25.127  29.758   6.450
 8304POPC   C2B50444  25.105  29.695   6.750
 8304POPC   C3B50445  25.107  29.720   7.050
 8304POPC   C4B50446  25.147  29.779   7.350
 8305POPC   NC350447  20.586  16.755   5.550
 8305POPC   PO450448  20.608  16.708   5.850
 8305POPC   GL150449  20.641  16.745   6.150
 8305POPC   GL250450  20.694  16.591   6.150
 8305POPC   C1A50451  20.612  16.688   6.450
 8305POPC   D2A50452  20.588  16.693   6.750
 8305POPC   C3A50453  20.569  16.720   7.050
 8305POPC   C4A50454  20.584  16.753   7.350
 8305POPC   C1B50455  20.787  16.491   6.450
 8305POPC   C2B50456  20.748  16.527   6.750
 8305POPC   C3B50457  20.790  16.510   7.050
 8305POPC   C4B50458  20.783  16.544   7.350
 8306POPC   NC350459  19.040  36.908   5.550
 8306POPC   PO450460  19.100  36.860   5.850
 8306POPC   GL150461  19.107  36.862   6.150
 8306POPC   GL250462  19.002  36.788   6.150
 8306POPC   C1A50463  19.050  36.946   6.450
 8306POPC   D2A50464  19.089  36.933   6.750
 8306POPC   C3A50465  19.054  36.918   7.050
 8306POPC   C4A50466  19.101  36.865   7.350
 8306POPC   C1B50467  18.911  36.709   6.450
 8306POPC   C2B50468  18.955  36.657   6.750
 8306POPC   C3B50469  18.942  36.701   7.050
 8306POPC   C4B50470  18.920  36.649   7.350
 8307POPC   NC350471   1.233  27.577   5.550
 8307POPC   PO450472   1.213  27.633   5.850
 8307POPC   GL150473   1.189  27.565   6.150
 8307POPC   GL250474   1.070  27.642   6.150
 8307POPC   C1A50475   1.182  27.562   6.450
 8307POPC   D2A50476   1.168  27.549   6.750
 8307POPC   C3A50477   1.239  27.575   7.050
 8307POPC   C4A50478   1.249  27.555   7.350
 8307POPC   C1B50479   0.945  27.695   6.450
 8307POPC   C2B50480   1.021  27.646   6.750
 8307POPC   C3B50481   0.996  27.680   7.050
 8307POPC   C4B50482   0.936  27.658   7.350
 8308POPC   NC350483  39.963  18.258   5.550
 8308POPC   PO450484  39.996  18.278   5.850
 8308POPC   GL150485  39.994  18.279   6.150
 8308POPC   GL250486  40.172  18.214   6.150
 8308POPC   C1A50487  40.023  18.300   6.450
 8308POPC   D2A50488  40.008  18.241   6.750
 8308POPC   C3A50489  39.978  18.304   7.050
 8308POPC   C4A50490  39.959  18.302   7.350
 8308POPC   C1B50491  40.198  18.180   6.450
 8308POPC   C2B50492  40.242  18.169   6.750
 8308POPC   C3B50493  40.236  18.157   7.050
 8308POPC   C4B50494  40.203  18.235   7.350
 8309POPC   NC350495   4.333  16.774   5.550
 8309POPC   PO450496   4.339  16.746   5.850
 8309POPC   GL150497   4.275  16.748   6.150
 8309POPC   GL250498   4.425  16.877   6.150
 8309POPC   C1A50499   4.347  16.716   6.450
 8309POPC   D2A50500   4.309  16.778   6.750
 8309POPC   C3A50501   4.272  16.741   7.050
 8309POPC   C4A50502   4.276  16.694   7.350
 8309POPC   C1B50503   4.411  16.980   6.450
 8309POPC   C2B50504   4.464  16.909   6.750
 8309POPC   C3B50505   4.440  16.908   7.050
 8309POPC   C4B50506   4.481  16.969   7.350
 8310POPC   NC350507  35.367  38.415   5.550
 8310POPC   PO450508  35.358  38.478   5.850
 8310POPC   GL150509  35.372  38.441   6.150
 8310POPC   GL250510  35.225  38.494   6.150
 8310POPC   C1A50511  35.346  38.438   6.450
 8310POPC   D2A50512  35.309  38.432   6.750
 8310POPC   C3A50513  35.315  38.457   7.050
 8310POPC   C4A50514  35.357  38.466   7.350
 8310POPC   C1B50515  35.126  38.629   6.450
 8310POPC   C2B50516  35.139  38.627   6.750
 8310POPC   C3B50517  35.190  38.565   7.050
 8310POPC   C4B50518  35.180  38.606   7.350
 8311POPC   NC350519  43.151  36.897   5.550
 8311POPC   PO450520  43.086  36.910   5.850
 8311POPC   GL150521  43.097  36.854   6.150
 8311POPC   GL250522  43.278  36.866   6.150
 8311POPC   C1A50523  43.061  36.888   6.450
 8311POPC   D2A50524  43.108  36.872   6.750
 8311POPC   C3A50525  43.091  36.886   7.050
 8311POPC   C4A50526  43.061  36.876   7.350
 8311POPC   C1B50527  43.362  36.835   6.450
 8311POPC   C2B50528  43.361  36.836   6.750
 8311POPC   C3B50529  43.393  36.864   7.050
 8311POPC   C4B50530  43.379  36.868   7.350
 8312POPC   NC350531   9.757  20.622   5.550
 8312POPC   PO450532   9.780  20.637   5.850
 8312POPC   GL150533   9.737  20.602   6.150
 8312POPC   GL250534   9.732  20.526   6.150
 8312POPC   C1A50535   9.711  20.612   6.450
 8312POPC   D2A50536   9.749  20.637   6.750
 8312POPC   C3A50537   9.730  20.580   7.050
 8312POPC   C4A50538   9.701  20.660   7.350
 8312POPC   C1B50539   9.777  20.378   6.450
 8312POPC   C2B50540   9.809  20.319   6.750
 8312POPC   C3B50541   9.828  20.369   7.050
 8312POPC   C4B50542   9.776  20.377   7.350
 8313POPC   NC350543  31.474  36.122   5.550
 8313POPC   PO450544  31.520  36.089   5.850
 8313POPC   GL150545  31.471  36.097   6.150
 8313POPC   GL250546  31.628  36.167   6.150
 8313POPC   C1A50547  31.448  36.104   6.450
 8313POPC   D2A50548  31.446  36.171   6.750
 8313POPC   C3A50549  31.467  36.102   7.050
 8313POPC   C4A50550  31.513  36.169   7.350
 8313POPC   C1B50551  31.684  36.176   6.450
 8313POPC   C2B50552  31.686  36.131   6.750
 8313POPC   C3B50553  31.690  36.112   7.050
 8313POPC   C4B50554  31.731  36.135   7.350
 8314POPC   NC350555  26.789  20.596   5.550
 8314POPC   PO450556  26.801  20.660   5.850
 8314POPC   GL150557  26.791  20.648   6.150
 8314POPC   GL250558  26.863  20.456   6.150
 8314POPC   C1A50559  26.857  20.653   6.450
 8314POPC   D2A50560  26.866  20.594   6.750
 8314POPC   C3A50561  26.825  20.577   7.050
 8314POPC   C4A50562  26.822  20.623   7.350
 8314POPC   C1B50563  26.824  20.369   6.450
 8314POPC   C2B50564  26.836  20.394   6.750
 8314POPC   C3B50565  26.819  20.407   7.050
 8314POPC   C4B50566  26.877  20.328   7.350
 8315POPC   NC350567  16.732  37.708   5.550
 8315POPC   PO450568  16.744  37.697   5.850
 8315POPC   GL150569  16.740  37.659   6.150
 8315POPC   GL250570  16.899  37.727   6.150
 8315POPC   C1A50571  16.720  37.632   6.450
 8315POPC   D2A50572  16.695  37.664   6.750
 8315POPC   C3A50573  16.768  37.630   7.050
 8315POPC   C4A50574  16.771  37.644   7.350
 8315POPC   C1B50575  16.990  37.726   6.450
 8315POPC   C2B50576  16.918  37.783   6.750
 8315POPC   C3B50577  16.965  37.781   7.050
 8315POPC   C4B50578  16.960  37.766   7.350
 8316POPC   NC350579  31.495  36.909   5.550
 8316POPC   PO450580  31.499  36.915   5.850
 8316POPC   GL150581  31.452  36.900   6.150
 8316POPC   GL250582  31.469  36.799   6.150
 8316POPC   C1A50583  31.519  36.858   6.450
 8316POPC   D2A50584  31.485  36.879   6.750
 8316POPC   C3A50585  31.453  36.861   7.050
 8316POPC   C4A50586  31.438  36.869   7.350
 8316POPC   C1B50587  31.541  36.717   6.450
 8316POPC   C2B50588  31.554  36.679   6.750
 8316POPC   C3B50589  31.600  36.677   7.050
 8316POPC   C4B50590  31.541  36.718   7.350
 8317POPC   NC350591   7.387  15.187   5.550
 8317POPC   PO450592   7.468  15.185   5.850
 8317POPC   GL150593   7.435  15.222   6.150
 8317POPC   GL250594   7.505  15.136   6.150
 8317POPC   C1A50595   7.435  15.213   6.450
 8317POPC   D2A50596   7.411  15.208   6.750
 8317POPC   C3A50597   7.413  15.177   7.050
 8317POPC   C4A50598   7.448  15.174   7.350
 8317POPC   C1B50599   7.619  15.036   6.450
 8317POPC   C2B50600   7.627  15.004   6.750
 8317POPC   C3B50601   7.630  15.037   7.050
 8317POPC   C4B50602   7.646  14.994   7.350
 8318POPC   NC350603  32.250  28.348   5.550
 8318POPC   PO450604  32.208  28.402   5.850
 8318POPC   GL150605  32.285  28.385   6.150
 8318POPC   GL250606  32.324  28.422   6.150
 8318POPC   C1A50607  32.257  28.377   6.450
 8318POPC   D2A50608  32.250  28.365   6.750
 8318POPC   C3A50609  32.268  28.392   7.050
 8318POPC   C4A50610  32.228  28.372   7.350
 8318POPC   C1B50611  32.481  28.427   6.450
 8318POPC   C2B50612  32.456  28.378   6.750
 8318POPC   C3B50613  32.514  28.356   7.050
 8318POPC   C4B50614  32.500  28.428   7.350
 8319POPC   NC350615   8.985  12.028   5.550
 8319POPC   PO450616   8.924  12.060   5.850
 8319POPC   GL150617   8.939  12.102   6.150
 8319POPC   GL250618   8.843  12.072   6.150
 8319POPC   C1A50619   9.005  12.029   6.450
 8319POPC   D2A50620   8.999  12.067   6.750
 8319POPC   C3A50621   8.976  12.031   7.050
 8319POPC   C4A50622   8.933  12.032   7.350
 8319POPC   C1B50623   8.764  11.978   6.450
 8319POPC   C2B50624   8.769  12.021   6.750
 8319POPC   C3B50625   8.716  11.988   7.050
 8319POPC   C4B50626   8.748  11.968   7.350
 8320POPC   NC350627  32.295   2.811   5.550
 8320POPC   PO450628  32.234   2.802   5.850
 8320POPC   GL150629  32.290   2.755   6.150
 8320POPC   GL250630  32.244   2.905   6.150
 8320POPC   C1A50631  32.276   2.727   6.450
 8320POPC   D2A50632  32.212   2.762   6.750
 8320POPC   C3A50633  32.240   2.778   7.050
 8320POPC   C4A50634  32.295   2.723   7.350
 8320POPC   C1B50635  32.130   3.009   6.450
 8320POPC   C2B50636  32.110   2.953   6.750
 8320POPC   C3B50637  32.111   3.014   7.050
 8320POPC   C4B50638  32.192   3.033   7.350
 8321POPC   NC350639  12.095  42.350   5.550
 8321POPC   PO450640  12.045  42.321   5.850
 8321POPC   GL150641  12.088  42.316   6.150
 8321POPC   GL250642  11.968  42.218   6.150
 8321POPC   C1A50643  12.049  42.327   6.450
 8321POPC   D2A50644  12.098  42.296   6.750
 8321POPC   C3A50645  12.079  42.288   7.050
 8321POPC   C4A50646  12.081  42.305   7.350
 8321POPC   C1B50647  11.917  42.165   6.450
 8321POPC   C2B50648  11.982  42.092   6.750
 8321POPC   C3B50649  11.990  42.106   7.050
 8321POPC   C4B50650  11.896  42.118   7.350
 8322POPC   NC350651   7.453  22.948   5.550
 8322POPC   PO450652   7.463  22.946   5.850
 8322POPC   GL150653   7.371  22.915   6.150
 8322POPC   GL250654   7.422  22.844   6.150
 8322POPC   C1A50655   7.396  22.964   6.450
 8322POPC   D2A50656   7.456  22.936   6.750
 8322POPC   C3A50657   7.424  22.979   7.050
 8322POPC   C4A50658   7.454  22.978   7.350
 8322POPC   C1B50659   7.397  22.685   6.450
 8322POPC   C2B50660   7.395  22.722   6.750
 8322POPC   C3B50661   7.459  22.709   7.050
 8322POPC   C4B50662   7.462  22.693   7.350
 8323POPC   NC350663  16.772  43.895   5.550
 8323POPC   PO450664  16.731  43.902   5.850
 8323POPC   GL150665  16.777  43.927   6.150
 8323POPC   GL250666  16.633  43.924   6.150
 8323POPC   C1A50667  16.715  43.837   6.450
 8323POPC   D2A50668  16.685  43.879   6.750
 8323POPC   C3A50669  16.696  43.925   7.050
 8323POPC   C4A50670  16.702  43.919   7.350
 8323POPC   C1B50671  16.531  44.051   6.450
 8323POPC   C2B50672  16.497  44.066   6.750
 8323POPC   C3B50673  16.522  44.070   7.050
 8323POPC   C4B50674  16.522  44.041   7.350
 8324POPC   NC350675  20.562   1.185   5.550
 8324POPC   PO450676  20.644   1.257   5.850
 8324POPC   GL150677  20.598   1.246   6.150
 8324POPC   GL250678  20.711   1.213   6.150
 8324POPC   C1A50679  20.634   1.249   6.450
 8324POPC   D2A50680  20.563   1.236   6.750
 8324POPC   C3A50681  20.648   1.263   7.050
 8324POPC   C4A50682  20.582   1.193   7.350
 8324POPC   C1B50683  20.845   1.096   6.450
 8324POPC   C2B50684  20.865   1.128   6.750
 8324POPC   C3B50685  20.870   1.108   7.050
 8324POPC   C4B50686  20.852   1.153   7.350
 8325POPC   NC350687  18.331   8.216   5.550
 8325POPC   PO450688  18.318   8.215   5.850
 8325POPC   GL150689  18.256   8.151   6.150
 8325POPC   GL250690  18.251   8.042   6.150
 8325POPC   C1A50691  18.310   8.210   6.450
 8325POPC   D2A50692  18.322   8.210   6.750
 8325POPC   C3A50693  18.324   8.194   7.050
 8325POPC   C4A50694  18.327   8.148   7.350
 8325POPC   C1B50695  18.360   7.926   6.450
 8325POPC   C2B50696  18.356   7.969   6.750
 8325POPC   C3B50697  18.316   7.977   7.050
 8325POPC   C4B50698  18.289   7.906   7.350
 8326POPC   NC350699  27.563   1.989   5.550
 8326POPC   PO450700  27.638   2.012   5.850
 8326POPC   GL150701  27.589   1.988   6.150
 8326POPC   GL250702  27.718   1.872   6.150
 8326POPC   C1A50703  27.572   2.037   6.450
 8326POPC   D2A50704  27.579   1.994   6.750
 8326POPC   C3A50705  27.598   1.987   7.050
 8326POPC   C4A50706  27.584   1.995   7.350
 8326POPC   C1B50707  27.705   1.759   6.450
 8326POPC   C2B50708  27.781   1.835   6.750
 8326POPC   C3B50709  27.751   1.816   7.050
 8326POPC   C4B50710  27.799   1.780   7.350
 8327POPC   NC350711  12.095   1.243   5.550
 8327POPC   PO450712  12.038   1.172   5.850
 8327POPC   GL150713  12.052   1.187   6.150
 8327POPC   GL250714  12.050   1.081   6.150
 8327POPC   C1A50715  12.093   1.235   6.450
 8327POPC   D2A50716  12.081   1.213   6.750
 8327POPC   C3A50717  12.084   1.243   7.050
 8327POPC   C4A50718  12.084   1.236   7.350
 8327POPC   C1B50719  12.122   0.999   6.450
 8327POPC   C2B50720  12.061   1.008   6.750
 8327POPC   C3B50721  12.105   0.965   7.050
 8327POPC   C4B50722  12.106   0.986   7.350
 8328POPC   NC350723   8.939   3.572   5.550
 8328POPC   PO450724   9.003   3.525   5.850
 8328POPC   GL150725   9.007   3.585   6.150
 8328POPC   GL250726   9.019   3.695   6.150
 8328POPC   C1A50727   8.955   3.587   6.450
 8328POPC   D2A50728   8.924   3.496   6.750
 8328POPC   C3A50729   8.940   3.579   7.050
 8328POPC   C4A50730   8.942   3.569   7.350
 8328POPC   C1B50731   8.983   3.790   6.450
 8328POPC   C2B50732   9.034   3.763   6.750
 8328POPC   C3B50733   8.976   3.805   7.050
 8328POPC   C4B50734   8.997   3.830   7.350
 8329POPC   NC350735  23.759  22.123   5.550
 8329POPC   PO450736  23.696  22.168   5.850
 8329POPC   GL150737  23.758  22.205   6.150
 8329POPC   GL250738  23.543  22.169   6.150
 8329POPC   C1A50739  23.671  22.208   6.450
 8329POPC   D2A50740  23.705  22.135   6.750
 8329POPC   C3A50741  23.723  22.163   7.050
 8329POPC   C4A50742  23.756  22.116   7.350
 8329POPC   C1B50743  23.485  22.202   6.450
 8329POPC   C2B50744  23.446  22.139   6.750
 8329POPC   C3B50745  23.417  22.132   7.050
 8329POPC   C4B50746  23.451  22.217   7.350
 8330POPC   NC350747  10.559   0.475   5.550
 8330POPC   PO450748  10.497   0.415   5.850
 8330POPC   GL150749  10.566   0.423   6.150
 8330POPC   GL250750  10.413   0.429   6.150
 8330POPC   C1A50751  10.553   0.426   6.450
 8330POPC   D2A50752  10.511   0.450   6.750
 8330POPC   C3A50753  10.574   0.413   7.050
 8330POPC   C4A50754  10.554   0.420   7.350
 8330POPC   C1B50755  10.291   0.420   6.450
 8330POPC   C2B50756  10.265   0.399   6.750
 8330POPC   C3B50757  10.297   0.456   7.050
 8330POPC   C4B50758  10.321   0.458   7.350
 8331POPC   NC350759   2.762   1.173   5.550
 8331POPC   PO450760   2.778   1.245   5.850
 8331POPC   GL150761   2.731   1.246   6.150
 8331POPC   GL250762   2.645   1.206   6.150
 8331POPC   C1A50763   2.764   1.208   6.450
 8331POPC   D2A50764   2.809   1.184   6.750
 8331POPC   C3A50765   2.776   1.246   7.050
 8331POPC   C4A50766   2.810   1.187   7.350
 8331POPC   C1B50767   2.493   1.139   6.450
 8331POPC   C2B50768   2.513   1.086   6.750
 8331POPC   C3B50769   2.553   1.109   7.050
 8331POPC   C4B50770   2.570   1.071   7.350
 8332POPC   NC350771  28.359  27.599   5.550
 8332POPC   PO450772  28.320  27.617   5.850
 8332POPC   GL150773  28.363  27.545   6.150
 8332POPC   GL250774  28.353  27.444   6.150
 8332POPC   C1A50775  28.385  27.629   6.450
 8332POPC   D2A50776  28.321  27.589   6.750
 8332POPC   C3A50777  28.395  27.630   7.050
 8332POPC   C4A50778  28.401  27.589   7.350
 8332POPC   C1B50779  28.441  27.359   6.450
 8332POPC   C2B50780  28.423  27.394   6.750
 8332POPC   C3B50781  28.469  27.340   7.050
 8332POPC   C4B50782  28.448  27.338   7.350
 8333POPC   NC350783  14.400  32.220   5.550
 8333POPC   PO450784  14.453  32.294   5.850
 8333POPC   GL150785  14.406  32.217   6.150
 8333POPC   GL250786  14.352  32.112   6.150
 8333POPC   C1A50787  14.402  32.289   6.450
 8333POPC   D2A50788  14.444  32.245   6.750
 8333POPC   C3A50789  14.388  32.209   7.050
 8333POPC   C4A50790  14.419  32.243   7.350
 8333POPC   C1B50791  14.220  32.073   6.450
 8333POPC   C2B50792  14.187  32.099   6.750
 8333POPC   C3B50793  14.228  32.067   7.050
 8333POPC   C4B50794  14.195  32.107   7.350
 8334POPC   NC350795   9.740  17.511   5.550
 8334POPC   PO450796   9.730  17.550   5.850
 8334POPC   GL150797   9.754  17.488   6.150
 8334POPC   GL250798   9.896  17.426   6.150
 8334POPC   C1A50799   9.741  17.553   6.450
 8334POPC   D2A50800   9.723  17.527   6.750
 8334POPC   C3A50801   9.700  17.478   7.050
 8334POPC   C4A50802   9.721  17.536   7.350
 8334POPC   C1B50803   9.987  17.346   6.450
 8334POPC   C2B50804   9.921  17.378   6.750
 8334POPC   C3B50805   9.908  17.307   7.050
 8334POPC   C4B50806   9.944  17.367   7.350
 8335POPC   NC350807  35.325  33.800   5.550
 8335POPC   PO450808  35.309  33.848   5.850
 8335POPC   GL150809  35.389  33.764   6.150
 8335POPC   GL250810  35.315  33.705   6.150
 8335POPC   C1A50811  35.353  33.850   6.450
 8335POPC   D2A50812  35.327  33.793   6.750
 8335POPC   C3A50813  35.373  33.815   7.050
 8335POPC   C4A50814  35.351  33.773   7.350
 8335POPC   C1B50815  35.248  33.628   6.450
 8335POPC   C2B50816  35.218  33.546   6.750
 8335POPC   C3B50817  35.272  33.587   7.050
 8335POPC   C4B50818  35.239  33.609   7.350
 8336POPC   NC350819  34.526  20.635   5.550
 8336POPC   PO450820  34.579  20.570   5.850
 8336POPC   GL150821  34.607  20.654   6.150
 8336POPC   GL250822  34.509  20.532   6.150
 8336POPC   C1A50823  34.555  20.562   6.450
 8336POPC   D2A50824  34.561  20.600   6.750
 8336POPC   C3A50825  34.560  20.565   7.050
 8336POPC   C4A50826  34.589  20.585   7.350
 8336POPC   C1B50827  34.365  20.406   6.450
 8336POPC   C2B50828  34.355  20.473   6.750
 8336POPC   C3B50829  34.417  20.452   7.050
 8336POPC   C4B50830  34.373  20.389   7.350
 8337POPC   NC350831  41.541  14.436   5.550
 8337POPC   PO450832  41.605  14.407   5.850
 8337POPC   GL150833  41.521  14.381   6.150
 8337POPC   GL250834  41.707  14.492   6.150
 8337POPC   C1A50835  41.601  14.423   6.450
 8337POPC   D2A50836  41.574  14.389   6.750
 8337POPC   C3A50837  41.567  14.408   7.050
 8337POPC   C4A50838  41.578  14.400   7.350
 8337POPC   C1B50839  41.748  14.472   6.450
 8337POPC   C2B50840  41.779  14.482   6.750
 8337POPC   C3B50841  41.813  14.513   7.050
 8337POPC   C4B50842  41.739  14.533   7.350
 8338POPC   NC350843   2.749   5.068   5.550
 8338POPC   PO450844   2.812   5.109   5.850
 8338POPC   GL150845   2.748   5.109   6.150
 8338POPC   GL250846   2.882   4.995   6.150
 8338POPC   C1A50847   2.807   5.063   6.450
 8338POPC   D2A50848   2.795   5.095   6.750
 8338POPC   C3A50849   2.771   5.055   7.050
 8338POPC   C4A50850   2.793   5.121   7.350
 8338POPC   C1B50851   2.972   4.935   6.450
 8338POPC   C2B50852   2.932   4.987   6.750
 8338POPC   C3B50853   2.971   4.984   7.050
 8338POPC   C4B50854   2.969   4.949   7.350
 8339POPC   NC350855  18.233  39.206   5.550
 8339POPC   PO450856  18.329  39.202   5.850
 8339POPC   GL150857  18.302  39.204   6.150
 8339POPC   GL250858  18.341  39.336   6.150
 8339POPC   C1A50859  18.273  39.183   6.450
 8339POPC   D2A50860  18.241  39.266   6.750
 8339POPC   C3A50861  18.265  39.234   7.050
 8339POPC   C4A50862  18.290  39.193   7.350
 8339POPC   C1B50863  18.417  39.376   6.450
 8339POPC   C2B50864  18.513  39.417   6.750
 8339POPC   C3B50865  18.473  39.362   7.050
 8339POPC   C4B50866  18.469  39.390   7.350
 8340POPC   NC350867  13.656  26.029   5.550
 8340POPC   PO450868  13.585  26.052   5.850
 8340POPC   GL150869  13.651  26.011   6.150
 8340POPC   GL250870  13.595  25.916   6.150
 8340POPC   C1A50871  13.669  26.035   6.450
 8340POPC   D2A50872  13.650  25.996   6.750
 8340POPC   C3A50873  13.631  26.006   7.050
 8340POPC   C4A50874  13.643  26.005   7.350
 8340POPC   C1B50875  13.527  25.783   6.450
 8340POPC   C2B50876  13.574  25.816   6.750
 8340POPC   C3B50877  13.505  25.804   7.050
 8340POPC   C4B50878  13.520  25.830   7.350
 8341POPC   NC350879   7.456   3.536   5.550
 8341POPC   PO450880   7.416   3.559   5.850
 8341POPC   GL150881   7.397   3.590   6.150
 8341POPC   GL250882   7.591   3.500   6.150
 8341POPC   C1A50883   7.432   3.559   6.450
 8341POPC   D2A50884   7.418   3.556   6.750
 8341POPC   C3A50885   7.428   3.494   7.050
 8341POPC   C4A50886   7.465   3.551   7.350
 8341POPC   C1B50887   7.656   3.479   6.450
 8341POPC   C2B50888   7.706   3.474   6.750
 8341POPC   C3B50889   7.708   3.492   7.050
 8341POPC   C4B50890   7.623   3.529   7.350
 8342POPC   NC350891  11.287  40.767   5.550
 8342POPC   PO450892  11.348  40.800   5.850
 8342POPC   GL150893  11.338  40.784   6.150
 8342POPC   GL250894  11.429  40.736   6.150
 8342POPC   C1A50895  11.256  40.770   6.450
 8342POPC   D2A50896  11.289  40.785   6.750
 8342POPC   C3A50897  11.267  40.773   7.050
 8342POPC   C4A50898  11.308  40.801   7.350
 8342POPC   C1B50899  11.498  40.710   6.450
 8342POPC   C2B50900  11.490  40.717   6.750
 8342POPC   C3B50901  11.507  40.666   7.050
 8342POPC   C4B50902  11.577  40.711   7.350
 8343POPC   NC350903  29.953  27.592   5.550
 8343POPC   PO450904  29.968  27.559   5.850
 8343POPC   GL150905  29.931  27.633   6.150
 8343POPC   GL250906  29.775  27.622   6.150
 8343POPC   C1A50907  29.949  27.546   6.450
 8343POPC   D2A50908  29.967  27.558   6.750
 8343POPC   C3A50909  29.921  27.561   7.050
 8343POPC   C4A50910  29.886  27.550   7.350
 8343POPC   C1B50911  29.648  27.635   6.450
 8343POPC   C2B50912  29.695  27.638   6.750
 8343POPC   C3B50913  29.701  27.689   7.050
 8343POPC   C4B50914  29.649  27.695   7.350
 8344POPC   NC350915  15.974  12.084   5.550
 8344POPC   PO450916  15.979  12.071   5.850
 8344POPC   GL150917  15.950  12.111   6.150
 8344POPC   GL250918  16.078  12.128   6.150
 8344POPC   C1A50919  15.913  12.042   6.450
 8344POPC   D2A50920  15.961  12.116   6.750
 8344POPC   C3A50921  15.931  12.031   7.050
 8344POPC   C4A50922  15.937  12.076   7.350
 8344POPC   C1B50923  16.157  12.245   6.450
 8344POPC   C2B50924  16.223  12.208   6.750
 8344POPC   C3B50925  16.131  12.173   7.050
 8344POPC   C4B50926  16.144  12.203   7.350
 8345POPC   NC350927  17.548  12.896   5.550
 8345POPC   PO450928  17.553  12.889   5.850
 8345POPC   GL150929  17.517  12.843   6.150
 8345POPC   GL250930  17.409  12.758   6.150
 8345POPC   C1A50931  17.484  12.846   6.450
 8345POPC   D2A50932  17.483  12.894   6.750
 8345POPC   C3A50933  17.550  12.805   7.050
 8345POPC   C4A50934  17.476  12.883   7.350
 8345POPC   C1B50935  17.252  12.754   6.450
 8345POPC   C2B50936  17.297  12.779   6.750
 8345POPC   C3B50937  17.238  12.798   7.050
 8345POPC   C4B50938  17.317  12.744   7.350
 8346POPC   NC350939   2.019   7.459   5.550
 8346POPC   PO450940   2.010   7.426   5.850
 8346POPC   GL150941   2.039   7.376   6.150
 8346POPC   GL250942   1.862   7.417   6.150
 8346POPC   C1A50943   2.014   7.406   6.450
 8346POPC   D2A50944   1.961   7.409   6.750
 8346POPC   C3A50945   2.016   7.470   7.050
 8346POPC   C4A50946   1.962   7.408   7.350
 8346POPC   C1B50947   1.761   7.313   6.450
 8346POPC   C2B50948   1.795   7.283   6.750
 8346POPC   C3B50949   1.796   7.303   7.050
 8346POPC   C4B50950   1.790   7.280   7.350
 8347POPC   NC350951  28.358  17.458   5.550
 8347POPC   PO450952  28.396  17.488   5.850
 8347POPC   GL150953  28.333  17.509   6.150
 8347POPC   GL250954  28.467  17.500   6.150
 8347POPC   C1A50955  28.334  17.492   6.450
 8347POPC   D2A50956  28.349  17.535   6.750
 8347POPC   C3A50957  28.362  17.527   7.050
 8347POPC   C4A50958  28.371  17.529   7.350
 8347POPC   C1B50959  28.600  17.536   6.450
 8347POPC   C2B50960  28.593  17.493   6.750
 8347POPC   C3B50961  28.598  17.555   7.050
 8347POPC   C4B50962  28.630  17.506   7.350
 8348POPC   NC350963   5.090  14.368   5.550
 8348POPC   PO450964   5.064  14.416   5.850
 8348POPC   GL150965   5.070  14.436   6.150
 8348POPC   GL250966   5.202  14.496   6.150
 8348POPC   C1A50967   5.140  14.387   6.450
 8348POPC   D2A50968   5.143  14.399   6.750
 8348POPC   C3A50969   5.087  14.361   7.050
 8348POPC   C4A50970   5.055  14.403   7.350
 8348POPC   C1B50971   5.275  14.637   6.450
 8348POPC   C2B50972   5.285  14.631   6.750
 8348POPC   C3B50973   5.199  14.610   7.050
 8348POPC   C4B50974   5.199  14.569   7.350
 8349POPC   NC350975  44.685  19.108   5.550
 8349POPC   PO450976  44.633  19.091   5.850
 8349POPC   GL150977  44.673  19.066   6.150
 8349POPC   GL250978  44.784  19.171   6.150
 8349POPC   C1A50979  44.705  19.039   6.450
 8349POPC   D2A50980  44.616  19.044   6.750
 8349POPC   C3A50981  44.682  19.096   7.050
 8349POPC   C4A50982  44.690  19.036   7.350
 8349POPC   C1B50983  44.796  19.210   6.450
 8349POPC   C2B50984  44.848  19.291   6.750
 8349POPC   C3B50985  44.779  19.301   7.050
 8349POPC   C4B50986  44.841  19.296   7.350
 8350POPC   NC350987  25.277  22.938   5.550
 8350POPC   PO450988  25.290  22.972   5.850
 8350POPC   GL150989  25.314  22.971   6.150
 8350POPC   GL250990  25.277  22.780   6.150
 8350POPC   C1A50991  25.282  22.948   6.450
 8350POPC   D2A50992  25.225  22.950   6.750
 8350POPC   C3A50993  25.289  22.914   7.050
 8350POPC   C4A50994  25.224  22.920   7.350
 8350POPC   C1B50995  25.345  22.675   6.450
 8350POPC   C2B50996  25.396  22.712   6.750
 8350POPC   C3B50997  25.390  22.714   7.050
 8350POPC   C4B50998  25.349  22.695   7.350
 8351POPC   NC350999  10.531   3.523   5.550
 8351POPC   PO451000  10.500   3.499   5.850
 8351POPC   GL151001  10.525   3.497   6.150
 8351POPC   GL251002  10.662   3.559   6.150
 8351POPC   C1A51003  10.559   3.570   6.450
 8351POPC   D2A51004  10.532   3.559   6.750
 8351POPC   C3A51005  10.542   3.578   7.050
 8351POPC   C4A51006  10.530   3.519   7.350
 8351POPC   C1B51007  10.809   3.465   6.450
 8351POPC   C2B51008  10.803   3.429   6.750
 8351POPC   C3B51009  10.732   3.517   7.050
 8351POPC   C4B51010  10.776   3.439   7.350
 8352POPC   NC351011  12.063   5.876   5.550
 8352POPC   PO451012  12.054   5.847   5.850
 8352POPC   GL151013  12.061   5.853   6.150
 8352POPC   GL251014  12.114   5.952   6.150
 8352POPC   C1A51015  12.100   5.867   6.450
 8352POPC   D2A51016  12.080   5.865   6.750
 8352POPC   C3A51017  12.091   5.918   7.050
 8352POPC   C4A51018  12.074   5.850   7.350
 8352POPC   C1B51019  12.270   6.099   6.450
 8352POPC   C2B51020  12.237   6.066   6.750
 8352POPC   C3B51021  12.238   6.071   7.050
 8352POPC   C4B51022  12.247   6.059   7.350
 8353POPC   NC351023   6.602  14.410   5.550
 8353POPC   PO451024   6.598  14.425   5.850
 8353POPC   GL151025   6.611  14.397   6.150
 8353POPC   GL251026   6.722  14.356   6.150
 8353POPC   C1A51027   6.676  14.441   6.450
 8353POPC   D2A51028   6.620  14.447   6.750
 8353POPC   C3A51029   6.681  14.423   7.050
 8353POPC   C4A51030   6.669  14.361   7.350
 8353POPC   C1B51031   6.805  14.223   6.450
 8353POPC   C2B51032   6.846  14.279   6.750
 8353POPC   C3B51033   6.815  14.187   7.050
 8353POPC   C4B51034   6.828  14.228   7.350
 8354POPC   NC351035  19.826   5.069   5.550
 8354POPC   PO451036  19.882   5.077   5.850
 8354POPC   GL151037  19.877   5.071   6.150
 8354POPC   GL251038  19.954   5.176   6.150
 8354POPC   C1A51039  19.875   5.105   6.450
 8354POPC   D2A51040  19.845   5.076   6.750
 8354POPC   C3A51041  19.858   5.139   7.050
 8354POPC   C4A51042  19.879   5.136   7.350
 8354POPC   C1B51043  20.083   5.177   6.450
 8354POPC   C2B51044  20.110   5.160   6.750
 8354POPC   C3B51045  20.094   5.158   7.050
 8354POPC   C4B51046  20.046   5.222   7.350
 8355POPC   NC351047  28.401  23.693   5.550
 8355POPC   PO451048  28.338  23.669   5.850
 8355POPC   GL151049  28.329  23.749   6.150
 8355POPC   GL251050  28.505  23.723   6.150
 8355POPC   C1A51051  28.378  23.756   6.450
 8355POPC   D2A51052  28.369  23.744   6.750
 8355POPC   C3A51053  28.358  23.736   7.050
 8355POPC   C4A51054  28.374  23.750   7.350
 8355POPC   C1B51055  28.603  23.707   6.450
 8355POPC   C2B51056  28.635  23.693   6.750
 8355POPC   C3B51057  28.578  23.634   7.050
 8355POPC   C4B51058  28.590  23.683   7.350
 8356POPC   NC351059  22.963  16.729   5.550
 8356POPC   PO451060  22.937  16.699   5.850
 8356POPC   GL151061  22.937  16.711   6.150
 8356POPC   GL251062  23.099  16.743   6.150
 8356POPC   C1A51063  22.908  16.696   6.450
 8356POPC   D2A51064  22.907  16.766   6.750
 8356POPC   C3A51065  22.968  16.708   7.050
 8356POPC   C4A51066  22.934  16.723   7.350
 8356POPC   C1B51067  23.138  16.766   6.450
 8356POPC   C2B51068  23.193  16.820   6.750
 8356POPC   C3B51069  23.174  16.755   7.050
 8356POPC   C4B51070  23.171  16.810   7.350
 8357POPC   NC351071   5.877  28.321   5.550
 8357POPC   PO451072   5.885  28.394   5.850
 8357POPC   GL151073   5.868  28.370   6.150
 8357POPC   GL251074   5.976  28.490   6.150
 8357POPC   C1A51075   5.877  28.342   6.450
 8357POPC   D2A51076   5.862  28.379   6.750
 8357POPC   C3A51077   5.879  28.331   7.050
 8357POPC   C4A51078   5.847  28.382   7.350
 8357POPC   C1B51079   6.036  28.522   6.450
 8357POPC   C2B51080   6.054  28.475   6.750
 8357POPC   C3B51081   6.019  28.524   7.050
 8357POPC   C4B51082   6.044  28.545   7.350
 8358POPC   NC351083  28.394  44.640   5.550
 8358POPC   PO451084  28.349  44.620   5.850
 8358POPC   GL151085  28.359  44.613   6.150
 8358POPC   GL251086  28.435  44.547   6.150
 8358POPC   C1A51087  28.325  44.681   6.450
 8358POPC   D2A51088  28.365  44.709   6.750
 8358POPC   C3A51089  28.399  44.637   7.050
 8358POPC   C4A51090  28.367  44.700   7.350
 8358POPC   C1B51091  28.458  44.438   6.450
 8358POPC   C2B51092  28.392  44.449   6.750
 8358POPC   C3B51093  28.458  44.426   7.050
 8358POPC   C4B51094  28.485  44.438   7.350
 8359POPC   NC351095  11.315  26.063   5.550
 8359POPC   PO451096  11.256  26.035   5.850
 8359POPC   GL151097  11.337  26.028   6.150
 8359POPC   GL251098  11.174  25.956   6.150
 8359POPC   C1A51099  11.332  26.090   6.450
 8359POPC   D2A51100  11.277  25.997   6.750
 8359POPC   C3A51101  11.257  26.043   7.050
 8359POPC   C4A51102  11.278  26.056   7.350
 8359POPC   C1B51103  11.127  25.888   6.450
 8359POPC   C2B51104  11.058  25.910   6.750
 8359POPC   C3B51105  11.072  25.899   7.050
 8359POPC   C4B51106  11.130  25.851   7.350
 8360POPC   NC351107  14.414  33.060   5.550
 8360POPC   PO451108  14.395  33.023   5.850
 8360POPC   GL151109  14.440  32.978   6.150
 8360POPC   GL251110  14.333  33.076   6.150
 8360POPC   C1A51111  14.429  33.037   6.450
 8360POPC   D2A51112  14.417  33.069   6.750
 8360POPC   C3A51113  14.405  32.975   7.050
 8360POPC   C4A51114  14.370  32.982   7.350
 8360POPC   C1B51115  14.118  33.057   6.450
 8360POPC   C2B51116  14.180  33.155   6.750
 8360POPC   C3B51117  14.187  33.062   7.050
 8360POPC   C4B51118  14.127  33.092   7.350
 8361POPC   NC351119  34.593   4.335   5.550
 8361POPC   PO451120  34.625   4.316   5.850
 8361POPC   GL151121  34.560   4.309   6.150
 8361POPC   GL251122  34.476   4.349   6.150
 8361POPC   C1A51123  34.550   4.356   6.450
 8361POPC   D2A51124  34.571   4.284   6.750
 8361POPC   C3A51125  34.620   4.358   7.050
 8361POPC   C4A51126  34.585   4.308   7.350
 8361POPC   C1B51127  34.334   4.265   6.450
 8361POPC   C2B51128  34.349   4.277   6.750
 8361POPC   C3B51129  34.332   4.347   7.050
 8361POPC   C4B51130  34.352   4.340   7.350
 8362POPC   NC351131  20.600   8.964   5.550
 8362POPC   PO451132  20.610   9.002   5.850
 8362POPC   GL151133  20.629   8.939   6.150
 8362POPC   GL251134  20.476   8.941   6.150
 8362POPC   C1A51135  20.637   8.995   6.450
 8362POPC   D2A51136  20.582   8.962   6.750
 8362POPC   C3A51137  20.604   8.936   7.050
 8362POPC   C4A51138  20.604   8.983   7.350
 8362POPC   C1B51139  20.428   8.820   6.450
 8362POPC   C2B51140  20.408   8.824   6.750
 8362POPC   C3B51141  20.386   8.834   7.050
 8362POPC   C4B51142  20.412   8.793   7.350
 8363POPC   NC351143  34.574  33.802   5.550
 8363POPC   PO451144  34.556  33.842   5.850
 8363POPC   GL151145  34.583  33.765   6.150
 8363POPC   GL251146  34.484  33.865   6.150
 8363POPC   C1A51147  34.555  33.769   6.450
 8363POPC   D2A51148  34.586  33.781   6.750
 8363POPC   C3A51149  34.527  33.813   7.050
 8363POPC   C4A51150  34.539  33.835   7.350
 8363POPC   C1B51151  34.359  33.870   6.450
 8363POPC   C2B51152  34.341  33.876   6.750
 8363POPC   C3B51153  34.342  33.904   7.050
 8363POPC   C4B51154  34.292  33.834   7.350
 8364POPC   NC351155   5.829   1.995   5.550
 8364POPC   PO451156   5.850   1.945   5.850
 8364POPC   GL151157   5.875   1.954   6.150
 8364POPC   GL251158   5.779   1.937   6.150
 8364POPC   C1A51159   5.828   1.949   6.450
 8364POPC   D2A51160   5.881   2.028   6.750
 8364POPC   C3A51161   5.883   2.039   7.050
 8364POPC   C4A51162   5.886   1.945   7.350
 8364POPC   C1B51163   5.645   1.912   6.450
 8364POPC   C2B51164   5.647   1.918   6.750
 8364POPC   C3B51165   5.620   1.832   7.050
 8364POPC   C4B51166   5.607   1.859   7.350
 8365POPC   NC351167  44.630  37.685   5.550
 8365POPC   PO451168  44.662  37.715   5.850
 8365POPC   GL151169  44.646  37.726   6.150
 8365POPC   GL251170  44.649  37.798   6.150
 8365POPC   C1A51171  44.643  37.649   6.450
 8365POPC   D2A51172  44.652  37.724   6.750
 8365POPC   C3A51173  44.614  37.654   7.050
 8365POPC   C4A51174  44.663  37.674   7.350
 8365POPC   C1B51175  44.680  37.906   6.450
 8365POPC   C2B51176  44.709  37.910   6.750
 8365POPC   C3B51177  44.765  37.963   7.050
 8365POPC   C4B51178  44.739  37.942   7.350
 8366POPC   NC351179   4.340  32.994   5.550
 8366POPC   PO451180   4.328  33.023   5.850
 8366POPC   GL151181   4.267  33.074   6.150
 8366POPC   GL251182   4.274  33.093   6.150
 8366POPC   C1A51183   4.344  33.049   6.450
 8366POPC   D2A51184   4.275  32.998   6.750
 8366POPC   C3A51185   4.340  33.054   7.050
 8366POPC   C4A51186   4.328  32.992   7.350
 8366POPC   C1B51187   4.183  33.212   6.450
 8366POPC   C2B51188   4.179  33.240   6.750
 8366POPC   C3B51189   4.215  33.241   7.050
 8366POPC   C4B51190   4.231  33.289   7.350
 8367POPC   NC351191  29.096  23.742   5.550
 8367POPC   PO451192  29.105  23.684   5.850
 8367POPC   GL151193  29.146  23.755   6.150
 8367POPC   GL251194  29.000  23.685   6.150
 8367POPC   C1A51195  29.127  23.746   6.450
 8367POPC   D2A51196  29.173  23.741   6.750
 8367POPC   C3A51197  29.142  23.685   7.050
 8367POPC   C4A51198  29.113  23.735   7.350
 8367POPC   C1B51199  28.935  23.607   6.450
 8367POPC   C2B51200  28.897  23.607   6.750
 8367POPC   C3B51201  28.886  23.613   7.050
 8367POPC   C4B51202  28.962  23.595   7.350
 8368POPC   NC351203  13.623  40.008   5.550
 8368POPC   PO451204  13.662  39.981   5.850
 8368POPC   GL151205  13.579  40.013   6.150
 8368POPC   GL251206  13.717  39.917   6.150
 8368POPC   C1A51207  13.642  40.050   6.450
 8368POPC   D2A51208  13.595  40.012   6.750
 8368POPC   C3A51209  13.606  39.959   7.050
 8368POPC   C4A51210  13.661  40.049   7.350
 8368POPC   C1B51211  13.831  39.915   6.450
 8368POPC   C2B51212  13.885  39.930   6.750
 8368POPC   C3B51213  13.857  39.916   7.050
 8368POPC   C4B51214  13.874  39.930   7.350
 8369POPC   NC351215  23.694  19.085   5.550
 8369POPC   PO451216  23.669  19.033   5.850
 8369POPC   GL151217  23.731  19.038   6.150
 8369POPC   GL251218  23.766  19.189   6.150
 8369POPC   C1A51219  23.724  19.073   6.450
 8369POPC   D2A51220  23.756  19.088   6.750
 8369POPC   C3A51221  23.671  19.016   7.050
 8369POPC   C4A51222  23.745  19.016   7.350
 8369POPC   C1B51223  23.930  19.276   6.450
 8369POPC   C2B51224  23.867  19.211   6.750
 8369POPC   C3B51225  23.896  19.265   7.050
 8369POPC   C4B51226  23.913  19.215   7.350
 8370POPC   NC351227   9.016  35.363   5.550
 8370POPC   PO451228   8.951  35.362   5.850
 8370POPC   GL151229   8.924  35.339   6.150
 8370POPC   GL251230   9.103  35.357   6.150
 8370POPC   C1A51231   8.979  35.344   6.450
 8370POPC   D2A51232   8.941  35.375   6.750
 8370POPC   C3A51233   9.002  35.335   7.050
 8370POPC   C4A51234   8.989  35.376   7.350
 8370POPC   C1B51235   9.269  35.342   6.450
 8370POPC   C2B51236   9.205  35.374   6.750
 8370POPC   C3B51237   9.172  35.435   7.050
 8370POPC   C4B51238   9.173  35.354   7.350
 8371POPC   NC351239  15.136  39.261   5.550
 8371POPC   PO451240  15.139  39.271   5.850
 8371POPC   GL151241  15.161  39.246   6.150
 8371POPC   GL251242  15.058  39.322   6.150
 8371POPC   C1A51243  15.167  39.268   6.450
 8371POPC   D2A51244  15.163  39.194   6.750
 8371POPC   C3A51245  15.226  39.205   7.050
 8371POPC   C4A51246  15.176  39.227   7.350
 8371POPC   C1B51247  14.901  39.364   6.450
 8371POPC   C2B51248  14.958  39.327   6.750
 8371POPC   C3B51249  14.912  39.357   7.050
 8371POPC   C4B51250  14.953  39.273   7.350
 8372POPC   NC351251   5.904   8.222   5.550
 8372POPC   PO451252   5.849   8.236   5.850
 8372POPC   GL151253   5.863   8.196   6.150
 8372POPC   GL251254   5.779   8.240   6.150
 8372POPC   C1A51255   5.848   8.205   6.450
 8372POPC   D2A51256   5.824   8.188   6.750
 8372POPC   C3A51257   5.916   8.244   7.050
 8372POPC   C4A51258   5.891   8.188   7.350
 8372POPC   C1B51259   5.602   8.270   6.450
 8372POPC   C2B51260   5.597   8.313   6.750
 8372POPC   C3B51261   5.693   8.296   7.050
 8372POPC   C4B51262   5.615   8.297   7.350
 8373POPC   NC351263  12.056  25.282   5.550
 8373POPC   PO451264  12.076  25.226   5.850
 8373POPC   GL151265  12.116  25.264   6.150
 8373POPC   GL251266  12.032  25.356   6.150
 8373POPC   C1A51267  12.040  25.270   6.450
 8373POPC   D2A51268  12.069  25.293   6.750
 8373POPC   C3A51269  12.115  25.241   7.050
 8373POPC   C4A51270  12.093  25.243   7.350
 8373POPC   C1B51271  11.956  25.430   6.450
 8373POPC   C2B51272  11.961  25.484   6.750
 8373POPC   C3B51273  11.878  25.491   7.050
 8373POPC   C4B51274  11.936  25.506   7.350
 8374POPC   NC351275  10.511   2.031   5.550
 8374POPC   PO451276  10.557   1.982   5.850
 8374POPC   GL151277  10.480   2.010   6.150
 8374POPC   GL251278  10.518   1.885   6.150
 8374POPC   C1A51279  10.515   1.949   6.450
 8374POPC   D2A51280  10.544   2.016   6.750
 8374POPC   C3A51281  10.520   2.035   7.050
 8374POPC   C4A51282  10.534   1.995   7.350
 8374POPC   C1B51283  10.532   1.714   6.450
 8374POPC   C2B51284  10.530   1.774   6.750
 8374POPC   C3B51285  10.501   1.770   7.050
 8374POPC   C4B51286  10.590   1.766   7.350
 8375POPC   NC351287  34.537  26.004   5.550
 8375POPC   PO451288  34.540  26.084   5.850
 8375POPC   GL151289  34.532  26.082   6.150
 8375POPC   GL251290  34.467  26.063   6.150
 8375POPC   C1A51291  34.587  26.026   6.450
 8375POPC   D2A51292  34.534  26.027   6.750
 8375POPC   C3A51293  34.567  26.032   7.050
 8375POPC   C4A51294  34.579  26.068   7.350
 8375POPC   C1B51295  34.315  25.976   6.450
 8375POPC   C2B51296  34.317  25.974   6.750
 8375POPC   C3B51297  34.377  26.048   7.050
 8375POPC   C4B51298  34.316  26.019   7.350
 8376POPC   NC351299  15.220   1.242   5.550
 8376POPC   PO451300  15.228   1.188   5.850
 8376POPC   GL151301  15.205   1.199   6.150
 8376POPC   GL251302  15.174   1.121   6.150
 8376POPC   C1A51303  15.146   1.258   6.450
 8376POPC   D2A51304  15.156   1.177   6.750
 8376POPC   C3A51305  15.150   1.182   7.050
 8376POPC   C4A51306  15.211   1.218   7.350
 8376POPC   C1B51307  15.108   1.024   6.450
 8376POPC   C2B51308  15.092   0.995   6.750
 8376POPC   C3B51309  15.115   1.001   7.050
 8376POPC   C4B51310  15.030   0.949   7.350
 8377POPC   NC351311  15.194  28.416   5.550
 8377POPC   PO451312  15.210  28.335   5.850
 8377POPC   GL151313  15.167  28.359   6.150
 8377POPC   GL251314  15.265  28.417   6.150
 8377POPC   C1A51315  15.135  28.352   6.450
 8377POPC   D2A51316  15.146  28.417   6.750
 8377POPC   C3A51317  15.215  28.355   7.050
 8377POPC   C4A51318  15.210  28.337   7.350
 8377POPC   C1B51319  15.384  28.569   6.450
 8377POPC   C2B51320  15.345  28.494   6.750
 8377POPC   C3B51321  15.400  28.498   7.050
 8377POPC   C4B51322  15.335  28.493   7.350
 8378POPC   NC351323   7.400  10.485   5.550
 8378POPC   PO451324   7.392  10.532   5.850
 8378POPC   GL151325   7.393  10.532   6.150
 8378POPC   GL251326   7.301  10.527   6.150
 8378POPC   C1A51327   7.389  10.538   6.450
 8378POPC   D2A51328   7.459  10.555   6.750
 8378POPC   C3A51329   7.390  10.508   7.050
 8378POPC   C4A51330   7.452  10.538   7.350
 8378POPC   C1B51331   7.204  10.661   6.450
 8378POPC   C2B51332   7.169  10.634   6.750
 8378POPC   C3B51333   7.179  10.613   7.050
 8378POPC   C4B51334   7.217  10.585   7.350
 8379POPC   NC351335  38.454  19.022   5.550
 8379POPC   PO451336  38.450  19.090   5.850
 8379POPC   GL151337  38.434  19.025   6.150
 8379POPC   GL251338  38.587  19.097   6.150
 8379POPC   C1A51339  38.505  19.104   6.450
 8379POPC   D2A51340  38.410  19.098   6.750
 8379POPC   C3A51341  38.455  19.073   7.050
 8379POPC   C4A51342  38.409  19.061   7.350
 8379POPC   C1B51343  38.727  19.108   6.450
 8379POPC   C2B51344  38.753  19.048   6.750
 8379POPC   C3B51345  38.718  19.080   7.050
 8379POPC   C4B51346  38.708  19.091   7.350
 8380POPC   NC351347  37.689  23.719   5.550
 8380POPC   PO451348  37.648  23.705   5.850
 8380POPC   GL151349  37.666  23.749   6.150
 8380POPC   GL251350  37.700  23.603   6.150
 8380POPC   C1A51351  37.632  23.674   6.450
 8380POPC   D2A51352  37.664  23.716   6.750
 8380POPC   C3A51353  37.659  23.750   7.050
 8380POPC   C4A51354  37.719  23.740   7.350
 8380POPC   C1B51355  37.784  23.514   6.450
 8380POPC   C2B51356  37.815  23.541   6.750
 8380POPC   C3B51357  37.800  23.452   7.050
 8380POPC   C4B51358  37.781  23.510   7.350
 8381POPC   NC351359  29.158  22.199   5.550
 8381POPC   PO451360  29.192  22.172   5.850
 8381POPC   GL151361  29.156  22.159   6.150
 8381POPC   GL251362  29.242  22.235   6.150
 8381POPC   C1A51363  29.113  22.172   6.450
 8381POPC   D2A51364  29.176  22.209   6.750
 8381POPC   C3A51365  29.167  22.208   7.050
 8381POPC   C4A51366  29.160  22.184   7.350
 8381POPC   C1B51367  29.400  22.220   6.450
 8381POPC   C2B51368  29.355  22.217   6.750
 8381POPC   C3B51369  29.375  22.257   7.050
 8381POPC   C4B51370  29.418  22.264   7.350
 8382POPC   NC351371  15.942   9.778   5.550
 8382POPC   PO451372  15.979   9.758   5.850
 8382POPC   GL151373  15.990   9.703   6.150
 8382POPC   GL251374  16.080   9.845   6.150
 8382POPC   C1A51375  15.951   9.790   6.450
 8382POPC   D2A51376  15.969   9.722   6.750
 8382POPC   C3A51377  15.952   9.704   7.050
 8382POPC   C4A51378  15.954   9.776   7.350
 8382POPC   C1B51379  16.122   9.916   6.450
 8382POPC   C2B51380  16.192   9.924   6.750
 8382POPC   C3B51381  16.128   9.854   7.050
 8382POPC   C4B51382  16.199   9.882   7.350
 8383POPC   NC351383  14.355  36.079   5.550
 8383POPC   PO451384  14.380  36.117   5.850
 8383POPC   GL151385  14.435  36.167   6.150
 8383POPC   GL251386  14.505  36.185   6.150
 8383POPC   C1A51387  14.420  36.127   6.450
 8383POPC   D2A51388  14.389  36.120   6.750
 8383POPC   C3A51389  14.389  36.176   7.050
 8383POPC   C4A51390  14.357  36.138   7.350
 8383POPC   C1B51391  14.573  36.307   6.450
 8383POPC   C2B51392  14.550  36.320   6.750
 8383POPC   C3B51393  14.552  36.254   7.050
 8383POPC   C4B51394  14.624  36.285   7.350
 8384POPC   NC351395   2.721  11.257   5.550
 8384POPC   PO451396   2.737  11.276   5.850
 8384POPC   GL151397   2.750  11.286   6.150
 8384POPC   GL251398   2.658  11.283   6.150
 8384POPC   C1A51399   2.772  11.278   6.450
 8384POPC   D2A51400   2.791  11.323   6.750
 8384POPC   C3A51401   2.763  11.317   7.050
 8384POPC   C4A51402   2.768  11.326   7.350
 8384POPC   C1B51403   2.510  11.340   6.450
 8384POPC   C2B51404   2.504  11.277   6.750
 8384POPC   C3B51405   2.486  11.290   7.050
 8384POPC   C4B51406   2.549  11.273   7.350
 8385POPC   NC351407  12.121  32.245   5.550
 8385POPC   PO451408  12.075  32.257   5.850
 8385POPC   GL151409  12.119  32.275   6.150
 8385POPC   GL251410  12.116  32.376   6.150
 8385POPC   C1A51411  12.100  32.293   6.450
 8385POPC   D2A51412  12.056  32.239   6.750
 8385POPC   C3A51413  12.124  32.289   7.050
 8385POPC   C4A51414  12.083  32.245   7.350
 8385POPC   C1B51415  12.039  32.546   6.450
 8385POPC   C2B51416  12.029  32.544   6.750
 8385POPC   C3B51417  12.077  32.524   7.050
 8385POPC   C4B51418  12.073  32.492   7.350
 8386POPC   NC351419  40.767  21.365   5.550
 8386POPC   PO451420  40.796  21.357   5.850
 8386POPC   GL151421  40.787  21.349   6.150
 8386POPC   GL251422  40.901  21.410   6.150
 8386POPC   C1A51423  40.766  21.418   6.450
 8386POPC   D2A51424  40.747  21.339   6.750
 8386POPC   C3A51425  40.776  21.367   7.050
 8386POPC   C4A51426  40.767  21.394   7.350
 8386POPC   C1B51427  40.960  21.541   6.450
 8386POPC   C2B51428  40.980  21.537   6.750
 8386POPC   C3B51429  41.050  21.514   7.050
 8386POPC   C4B51430  41.028  21.531   7.350
 8387POPC   NC351431   3.582   8.221   5.550
 8387POPC   PO451432   3.587   8.237   5.850
 8387POPC   GL151433   3.556   8.202   6.150
 8387POPC   GL251434   3.543   8.118   6.150
 8387POPC   C1A51435   3.524   8.233   6.450
 8387POPC   D2A51436   3.588   8.214   6.750
 8387POPC   C3A51437   3.533   8.205   7.050
 8387POPC   C4A51438   3.540   8.156   7.350
 8387POPC   C1B51439   3.621   7.945   6.450
 8387POPC   C2B51440   3.573   7.920   6.750
 8387POPC   C3B51441   3.533   7.939   7.050
 8387POPC   C4B51442   3.595   7.905   7.350
 8388POPC   NC351443  40.793  26.057   5.550
 8388POPC   PO451444  40.789  26.079   5.850
 8388POPC   GL151445  40.782  26.009   6.150
 8388POPC   GL251446  40.752  26.195   6.150
 8388POPC   C1A51447  40.756  26.019   6.450
 8388POPC   D2A51448  40.779  26.050   6.750
 8388POPC   C3A51449  40.774  26.079   7.050
 8388POPC   C4A51450  40.765  26.062   7.350
 8388POPC   C1B51451  40.813  26.330   6.450
 8388POPC   C2B51452  40.795  26.287   6.750
 8388POPC   C3B51453  40.819  26.295   7.050
 8388POPC   C4B51454  40.754  26.270   7.350
 8389POPC   NC351455   4.274  20.636   5.550
 8389POPC   PO451456   4.306  20.600   5.850
 8389POPC   GL151457   4.324  20.598   6.150
 8389POPC   GL251458   4.219  20.559   6.150
 8389POPC   C1A51459   4.337  20.585   6.450
 8389POPC   D2A51460   4.319  20.584   6.750
 8389POPC   C3A51461   4.276  20.643   7.050
 8389POPC   C4A51462   4.320  20.623   7.350
 8389POPC   C1B51463   4.050  20.520   6.450
 8389POPC   C2B51464   4.065  20.580   6.750
 8389POPC   C3B51465   4.060  20.598   7.050
 8389POPC   C4B51466   4.052  20.560   7.350
 8390POPC   NC351467   9.731  23.688   5.550
 8390POPC   PO451468   9.715  23.728   5.850
 8390POPC   GL151469   9.719  23.677   6.150
 8390POPC   GL251470   9.854  23.802   6.150
 8390POPC   C1A51471   9.784  23.696   6.450
 8390POPC   D2A51472   9.797  23.667   6.750
 8390POPC   C3A51473   9.712  23.700   7.050
 8390POPC   C4A51474   9.782  23.687   7.350
 8390POPC   C1B51475   9.900  23.921   6.450
 8390POPC   C2B51476   9.887  23.940   6.750
 8390POPC   C3B51477   9.849  23.946   7.050
 8390POPC   C4B51478   9.927  23.885   7.350
 8391POPC   NC351479  36.947  19.108   5.550
 8391POPC   PO451480  36.946  19.093   5.850
 8391POPC   GL151481  36.952  19.017   6.150
 8391POPC   GL251482  36.825  19.029   6.150
 8391POPC   C1A51483  36.876  19.102   6.450
 8391POPC   D2A51484  36.864  19.009   6.750
 8391POPC   C3A51485  36.947  19.090   7.050
 8391POPC   C4A51486  36.938  19.068   7.350
 8391POPC   C1B51487  36.674  19.005   6.450
 8391POPC   C2B51488  36.617  19.012   6.750
 8391POPC   C3B51489  36.629  19.047   7.050
 8391POPC   C4B51490  36.643  19.015   7.350
 8392POPC   NC351491  33.034  37.707   5.550
 8392POPC   PO451492  33.053  37.677   5.850
 8392POPC   GL151493  32.995  37.666   6.150
 8392POPC   GL251494  33.128  37.801   6.150
 8392POPC   C1A51495  33.065  37.700   6.450
 8392POPC   D2A51496  33.006  37.674   6.750
 8392POPC   C3A51497  33.018  37.681   7.050
 8392POPC   C4A51498  33.021  37.693   7.350
 8392POPC   C1B51499  33.134  37.847   6.450
 8392POPC   C2B51500  33.178  37.876   6.750
 8392POPC   C3B51501  33.131  37.884   7.050
 8392POPC   C4B51502  33.194  37.867   7.350
 8393POPC   NC351503   9.785  39.992   5.550
 8393POPC   PO451504   9.729  40.025   5.850
 8393POPC   GL151505   9.797  39.995   6.150
 8393POPC   GL251506   9.738  40.160   6.150
 8393POPC   C1A51507   9.759  40.020   6.450
 8393POPC   D2A51508   9.796  39.957   6.750
 8393POPC   C3A51509   9.710  39.963   7.050
 8393POPC   C4A51510   9.773  40.034   7.350
 8393POPC   C1B51511   9.672  40.284   6.450
 8393POPC   C2B51512   9.701  40.267   6.750
 8393POPC   C3B51513   9.716  40.278   7.050
 8393POPC   C4B51514   9.632  40.273   7.350
 8394POPC   NC351515  12.867  38.409   5.550
 8394POPC   PO451516  12.824  38.440   5.850
 8394POPC   GL151517  12.887  38.440   6.150
 8394POPC   GL251518  12.717  38.472   6.150
 8394POPC   C1A51519  12.855  38.496   6.450
 8394POPC   D2A51520  12.833  38.431   6.750
 8394POPC   C3A51521  12.863  38.492   7.050
 8394POPC   C4A51522  12.868  38.443   7.350
 8394POPC   C1B51523  12.641  38.414   6.450
 8394POPC   C2B51524  12.637  38.449   6.750
 8394POPC   C3B51525  12.579  38.406   7.050
 8394POPC   C4B51526  12.644  38.475   7.350
 8395POPC   NC351527  31.441  10.493   5.550
 8395POPC   PO451528  31.446  10.520   5.850
 8395POPC   GL151529  31.446  10.483   6.150
 8395POPC   GL251530  31.594  10.567   6.150
 8395POPC   C1A51531  31.469  10.551   6.450
 8395POPC   D2A51532  31.428  10.485   6.750
 8395POPC   C3A51533  31.441  10.495   7.050
 8395POPC   C4A51534  31.492  10.539   7.350
 8395POPC   C1B51535  31.675  10.642   6.450
 8395POPC   C2B51536  31.678  10.613   6.750
 8395POPC   C3B51537  31.703  10.643   7.050
 8395POPC   C4B51538  31.712  10.615   7.350
 8396POPC   NC351539  10.533  43.131   5.550
 8396POPC   PO451540  10.507  43.118   5.850
 8396POPC   GL151541  10.515  43.062   6.150
 8396POPC   GL251542  10.692  43.124   6.150
 8396POPC   C1A51543  10.570  43.155   6.450
 8396POPC   D2A51544  10.538  43.156   6.750
 8396POPC   C3A51545  10.513  43.088   7.050
 8396POPC   C4A51546  10.495  43.078   7.350
 8396POPC   C1B51547  10.752  43.016   6.450
 8396POPC   C2B51548  10.758  43.100   6.750
 8396POPC   C3B51549  10.762  43.029   7.050
 8396POPC   C4B51550  10.772  43.063   7.350
 8397POPC   NC351551  39.972  35.360   5.550
 8397POPC   PO451552  40.021  35.338   5.850
 8397POPC   GL151553  39.987  35.344   6.150
 8397POPC   GL251554  39.975  35.239   6.150
 8397POPC   C1A51555  39.971  35.377   6.450
 8397POPC   D2A51556  40.003  35.338   6.750
 8397POPC   C3A51557  40.044  35.356   7.050
 8397POPC   C4A51558  39.975  35.390   7.350
 8397POPC   C1B51559  39.924  35.134   6.450
 8397POPC   C2B51560  39.879  35.123   6.750
 8397POPC   C3B51561  39.862  35.088   7.050
 8397POPC   C4B51562  39.868  35.152   7.350
 8398POPC   NC351563  38.499   5.109   5.550
 8398POPC   PO451564  38.497   5.133   5.850
 8398POPC   GL151565  38.462   5.078   6.150
 8398POPC   GL251566  38.290   5.016   6.150
 8398POPC   C1A51567  38.498   5.134   6.450
 8398POPC   D2A51568  38.427   5.090   6.750
 8398POPC   C3A51569  38.471   5.083   7.050
 8398POPC   C4A51570  38.496   5.126   7.350
 8398POPC   C1B51571  38.258   5.027   6.450
 8398POPC   C2B51572  38.223   5.003   6.750
 8398POPC   C3B51573  38.241   4.975   7.050
 8398POPC   C4B51574  38.255   5.040   7.350
 8399POPC   NC351575  12.813   1.989   5.550
 8399POPC   PO451576  12.836   2.038   5.850
 8399POPC   GL151577  12.848   2.028   6.150
 8399POPC   GL251578  12.759   1.888   6.150
 8399POPC   C1A51579  12.806   1.944   6.450
 8399POPC   D2A51580  12.861   1.955   6.750
 8399POPC   C3A51581  12.857   2.022   7.050
 8399POPC   C4A51582  12.870   2.002   7.350
 8399POPC   C1B51583  12.672   1.749   6.450
 8399POPC   C2B51584  12.678   1.810   6.750
 8399POPC   C3B51585  12.689   1.751   7.050
 8399POPC   C4B51586  12.752   1.760   7.350
 8400POPC   NC351587  36.862   0.420   5.550
 8400POPC   PO451588  36.950   0.472   5.850
 8400POPC   GL151589  36.946   0.439   6.150
 8400POPC   GL251590  36.796   0.416   6.150
 8400POPC   C1A51591  36.898   0.480   6.450
 8400POPC   D2A51592  36.950   0.431   6.750
 8400POPC   C3A51593  36.869   0.401   7.050
 8400POPC   C4A51594  36.910   0.413   7.350
 8400POPC   C1B51595  36.657   0.476   6.450
 8400POPC   C2B51596  36.660   0.498   6.750
 8400POPC   C3B51597  36.672   0.484   7.050
 8400POPC   C4B51598  36.692   0.458   7.350
 8401POPC   NC351599  18.261  20.651   5.550
 8401POPC   PO451600  18.317  20.565   5.850
 8401POPC   GL151601  18.319  20.613   6.150
 8401POPC   GL251602  18.117  20.538   6.150
 8401POPC   C1A51603  18.294  20.631   6.450
 8401POPC   D2A51604  18.324  20.612   6.750
 8401POPC   C3A51605  18.246  20.613   7.050
 8401POPC   C4A51606  18.264  20.629   7.350
 8401POPC   C1B51607  17.992  20.538   6.450
 8401POPC   C2B51608  18.007  20.598   6.750
 8401POPC   C3B51609  18.030  20.593   7.050
 8401POPC   C4B51610  18.047  20.506   7.350
 8402POPC   NC351611   1.976   5.105   5.550
 8402POPC   PO451612   1.947   5.108   5.850
 8402POPC   GL151613   2.016   5.139   6.150
 8402POPC   GL251614   2.075   5.066   6.150
 8402POPC   C1A51615   2.030   5.086   6.450
 8402POPC   D2A51616   2.011   5.103   6.750
 8402POPC   C3A51617   2.029   5.087   7.050
 8402POPC   C4A51618   1.969   5.103   7.350
 8402POPC   C1B51619   2.192   5.070   6.450
 8402POPC   C2B51620   2.259   5.035   6.750
 8402POPC   C3B51621   2.288   5.055   7.050
 8402POPC   C4B51622   2.284   5.035   7.350
 8403POPC   NC351623  41.528  22.933   5.550
 8403POPC   PO451624  41.532  22.925   5.850
 8403POPC   GL151625  41.573  22.946   6.150
 8403POPC   GL251626  41.632  22.978   6.150
 8403POPC   C1A51627  41.521  22.934   6.450
 8403POPC   D2A51628  41.540  22.966   6.750
 8403POPC   C3A51629  41.593  22.976   7.050
 8403POPC   C4A51630  41.602  22.888   7.350
 8403POPC   C1B51631  41.833  23.002   6.450
 8403POPC   C2B51632  41.771  23.030   6.750
 8403POPC   C3B51633  41.804  22.964   7.050
 8403POPC   C4B51634  41.845  22.997   7.350
 8404POPC   NC351635   9.734  14.407   5.550
 8404POPC   PO451636   9.714  14.390   5.850
 8404POPC   GL151637   9.785  14.377   6.150
 8404POPC   GL251638   9.616  14.352   6.150
 8404POPC   C1A51639   9.746  14.388   6.450
 8404POPC   D2A51640   9.798  14.382   6.750
 8404POPC   C3A51641   9.798  14.448   7.050
 8404POPC   C4A51642   9.774  14.426   7.350
 8404POPC   C1B51643   9.532  14.391   6.450
 8404POPC   C2B51644   9.521  14.358   6.750
 8404POPC   C3B51645   9.474  14.401   7.050
 8404POPC   C4B51646   9.543  14.425   7.350
 8405POPC   NC351647  28.331   8.163   5.550
 8405POPC   PO451648  28.355   8.153   5.850
 8405POPC   GL151649  28.375   8.160   6.150
 8405POPC   GL251650  28.371   8.054   6.150
 8405POPC   C1A51651  28.336   8.198   6.450
 8405POPC   D2A51652  28.358   8.189   6.750
 8405POPC   C3A51653  28.372   8.165   7.050
 8405POPC   C4A51654  28.390   8.152   7.350
 8405POPC   C1B51655  28.349   7.972   6.450
 8405POPC   C2B51656  28.395   7.964   6.750
 8405POPC   C3B51657  28.321   7.899   7.050
 8405POPC   C4B51658  28.338   7.963   7.350
 8406POPC   NC351659   5.828  29.134   5.550
 8406POPC   PO451660   5.833  29.103   5.850
 8406POPC   GL151661   5.876  29.186   6.150
 8406POPC   GL251662   6.004  29.168   6.150
 8406POPC   C1A51663   5.871  29.150   6.450
 8406POPC   D2A51664   5.881  29.151   6.750
 8406POPC   C3A51665   5.840  29.101   7.050
 8406POPC   C4A51666   5.897  29.161   7.350
 8406POPC   C1B51667   6.071  29.315   6.450
 8406POPC   C2B51668   6.055  29.300   6.750
 8406POPC   C3B51669   6.075  29.287   7.050
 8406POPC   C4B51670   6.093  29.292   7.350
 8407POPC   NC351671  26.820  16.739   5.550
 8407POPC   PO451672  26.831  16.768   5.850
 8407POPC   GL151673  26.861  16.694   6.150
 8407POPC   GL251674  26.725  16.711   6.150
 8407POPC   C1A51675  26.834  16.746   6.450
 8407POPC   D2A51676  26.813  16.736   6.750
 8407POPC   C3A51677  26.807  16.748   7.050
 8407POPC   C4A51678  26.836  16.762   7.350
 8407POPC   C1B51679  26.587  16.762   6.450
 8407POPC   C2B51680  26.540  16.708   6.750
 8407POPC   C3B51681  26.579  16.735   7.050
 8407POPC   C4B51682  26.529  16.743   7.350
 8408POPC   NC351683  19.846  28.412   5.550
 8408POPC   PO451684  19.867  28.394   5.850
 8408POPC   GL151685  19.823  28.372   6.150
 8408POPC   GL251686  19.877  28.236   6.150
 8408POPC   C1A51687  19.799  28.379   6.450
 8408POPC   D2A51688  19.795  28.386   6.750
 8408POPC   C3A51689  19.841  28.394   7.050
 8408POPC   C4A51690  19.826  28.340   7.350
 8408POPC   C1B51691  19.878  28.166   6.450
 8408POPC   C2B51692  19.848  28.097   6.750
 8408POPC   C3B51693  19.887  28.090   7.050
 8408POPC   C4B51694  19.940  28.138   7.350
 8409POPC   NC351695  43.865  14.407   5.550
 8409POPC   PO451696  43.935  14.406   5.850
 8409POPC   GL151697  43.923  14.421   6.150
 8409POPC   GL251698  43.790  14.363   6.150
 8409POPC   C1A51699  43.925  14.419   6.450
 8409POPC   D2A51700  43.897  14.415   6.750
 8409POPC   C3A51701  43.904  14.427   7.050
 8409POPC   C4A51702  43.856  14.402   7.350
 8409POPC   C1B51703  43.737  14.273   6.450
 8409POPC   C2B51704  43.665  14.275   6.750
 8409POPC   C3B51705  43.697  14.196   7.050
 8409POPC   C4B51706  43.698  14.279   7.350
 8410POPC   NC351707  25.278   1.235   5.550
 8410POPC   PO451708  25.255   1.216   5.850
 8410POPC   GL151709  25.222   1.185   6.150
 8410POPC   GL251710  25.190   1.183   6.150
 8410POPC   C1A51711  25.292   1.217   6.450
 8410POPC   D2A51712  25.267   1.234   6.750
 8410POPC   C3A51713  25.237   1.198   7.050
 8410POPC   C4A51714  25.274   1.214   7.350
 8410POPC   C1B51715  24.997   1.110   6.450
 8410POPC   C2B51716  25.073   1.111   6.750
 8410POPC   C3B51717  25.026   1.083   7.050
 8410POPC   C4B51718  25.047   1.065   7.350
 8411POPC   NC351719  19.093  39.995   5.550
 8411POPC   PO451720  19.096  39.961   5.850
 8411POPC   GL151721  19.033  40.040   6.150
 8411POPC   GL251722  19.182  39.987   6.150
 8411POPC   C1A51723  19.033  40.033   6.450
 8411POPC   D2A51724  19.067  40.018   6.750
 8411POPC   C3A51725  19.086  40.008   7.050
 8411POPC   C4A51726  19.049  39.989   7.350
 8411POPC   C1B51727  19.317  40.026   6.450
 8411POPC   C2B51728  19.335  40.036   6.750
 8411POPC   C3B51729  19.340  40.021   7.050
 8411POPC   C4B51730  19.357  40.077   7.350
 8412POPC   NC351731  14.368  41.595   5.550
 8412POPC   PO451732  14.440  41.545   5.850
 8412POPC   GL151733  14.405  41.518   6.150
 8412POPC   GL251734  14.457  41.439   6.150
 8412POPC   C1A51735  14.432  41.551   6.450
 8412POPC   D2A51736  14.440  41.516   6.750
 8412POPC   C3A51737  14.402  41.584   7.050
 8412POPC   C4A51738  14.369  41.516   7.350
 8412POPC   C1B51739  14.545  41.340   6.450
 8412POPC   C2B51740  14.590  41.355   6.750
 8412POPC   C3B51741  14.634  41.415   7.050
 8412POPC   C4B51742  14.614  41.410   7.350
 8413POPC   NC351743   5.859  10.548   5.550
 8413POPC   PO451744   5.910  10.497   5.850
 8413POPC   GL151745   5.912  10.524   6.150
 8413POPC   GL251746   6.003  10.602   6.150
 8413POPC   C1A51747   5.877  10.498   6.450
 8413POPC   D2A51748   5.883  10.499   6.750
 8413POPC   C3A51749   5.868  10.544   7.050
 8413POPC   C4A51750   5.872  10.552   7.350
 8413POPC   C1B51751   6.117  10.600   6.450
 8413POPC   C2B51752   6.139  10.628   6.750
 8413POPC   C3B51753   6.078  10.611   7.050
 8413POPC   C4B51754   6.122  10.662   7.350
 8414POPC   NC351755   2.024  10.489   5.550
 8414POPC   PO451756   1.963  10.493   5.850
 8414POPC   GL151757   2.031  10.485   6.150
 8414POPC   GL251758   1.881  10.474   6.150
 8414POPC   C1A51759   1.984  10.556   6.450
 8414POPC   D2A51760   2.033  10.574   6.750
 8414POPC   C3A51761   2.012  10.568   7.050
 8414POPC   C4A51762   1.940  10.532   7.350
 8414POPC   C1B51763   1.887  10.303   6.450
 8414POPC   C2B51764   1.796  10.295   6.750
 8414POPC   C3B51765   1.848  10.303   7.050
 8414POPC   C4B51766   1.804  10.338   7.350
 8415POPC   NC351767  41.607  35.320   5.550
 8415POPC   PO451768  41.607  35.389   5.850
 8415POPC   GL151769  41.597  35.389   6.150
 8415POPC   GL251770  41.675  35.445   6.150
 8415POPC   C1A51771  41.514  35.402   6.450
 8415POPC   D2A51772  41.594  35.361   6.750
 8415POPC   C3A51773  41.544  35.309   7.050
 8415POPC   C4A51774  41.577  35.401   7.350
 8415POPC   C1B51775  41.711  35.557   6.450
 8415POPC   C2B51776  41.712  35.581   6.750
 8415POPC   C3B51777  41.703  35.574   7.050
 8415POPC   C4B51778  41.730  35.565   7.350
 8416POPC   NC351779   4.349  17.475   5.550
 8416POPC   PO451780   4.298  17.506   5.850
 8416POPC   GL151781   4.294  17.525   6.150
 8416POPC   GL251782   4.257  17.609   6.150
 8416POPC   C1A51783   4.348  17.473   6.450
 8416POPC   D2A51784   4.355  17.555   6.750
 8416POPC   C3A51785   4.278  17.471   7.050
 8416POPC   C4A51786   4.277  17.477   7.350
 8416POPC   C1B51787   4.088  17.657   6.450
 8416POPC   C2B51788   4.154  17.690   6.750
 8416POPC   C3B51789   4.128  17.639   7.050
 8416POPC   C4B51790   4.091  17.646   7.350
 8417POPC   NC351791  43.077  40.024   5.550
 8417POPC   PO451792  43.071  40.034   5.850
 8417POPC   GL151793  43.083  39.968   6.150
 8417POPC   GL251794  43.070  39.903   6.150
 8417POPC   C1A51795  43.085  39.983   6.450
 8417POPC   D2A51796  43.089  40.032   6.750
 8417POPC   C3A51797  43.082  40.024   7.050
 8417POPC   C4A51798  43.089  39.962   7.350
 8417POPC   C1B51799  43.030  39.823   6.450
 8417POPC   C2B51800  43.037  39.766   6.750
 8417POPC   C3B51801  43.014  39.757   7.050
 8417POPC   C4B51802  43.005  39.756   7.350
 8418POPC   NC351803  12.806  26.047   5.550
 8418POPC   PO451804  12.816  26.068   5.850
 8418POPC   GL151805  12.809  26.076   6.150
 8418POPC   GL251806  12.933  26.094   6.150
 8418POPC   C1A51807  12.839  26.036   6.450
 8418POPC   D2A51808  12.846  26.045   6.750
 8418POPC   C3A51809  12.873  26.002   7.050
 8418POPC   C4A51810  12.834  25.998   7.350
 8418POPC   C1B51811  13.044  26.174   6.450
 8418POPC   C2B51812  13.034  26.157   6.750
 8418POPC   C3B51813  13.098  26.158   7.050
 8418POPC   C4B51814  13.028  26.154   7.350
 8419POPC   NC351815  12.852  36.881   5.550
 8419POPC   PO451816  12.845  36.924   5.850
 8419POPC   GL151817  12.859  36.942   6.150
 8419POPC   GL251818  12.902  37.001   6.150
 8419POPC   C1A51819  12.835  36.913   6.450
 8419POPC   D2A51820  12.900  36.904   6.750
 8419POPC   C3A51821  12.894  36.905   7.050
 8419POPC   C4A51822  12.847  36.894   7.350
 8419POPC   C1B51823  13.047  37.087   6.450
 8419POPC   C2B51824  13.021  37.064   6.750
 8419POPC   C3B51825  13.002  37.110   7.050
 8419POPC   C4B51826  13.030  37.044   7.350
 8420POPC   NC351827  10.478  20.655   5.550
 8420POPC   PO451828  10.557  20.651   5.850
 8420POPC   GL151829  10.560  20.567   6.150
 8420POPC   GL251830  10.526  20.744   6.150
 8420POPC   C1A51831  10.534  20.633   6.450
 8420POPC   D2A51832  10.570  20.632   6.750
 8420POPC   C3A51833  10.520  20.582   7.050
 8420POPC   C4A51834  10.536  20.598   7.350
 8420POPC   C1B51835  10.459  20.873   6.450
 8420POPC   C2B51836  10.470  20.868   6.750
 8420POPC   C3B51837  10.526  20.832   7.050
 8420POPC   C4B51838  10.537  20.887   7.350
 8421POPC   NC351839  26.851   8.221   5.550
 8421POPC   PO451840  26.847   8.223   5.850
 8421POPC   GL151841  26.824   8.194   6.150
 8421POPC   GL251842  26.720   8.240   6.150
 8421POPC   C1A51843  26.781   8.181   6.450
 8421POPC   D2A51844  26.799   8.156   6.750
 8421POPC   C3A51845  26.770   8.201   7.050
 8421POPC   C4A51846  26.842   8.184   7.350
 8421POPC   C1B51847  26.650   8.406   6.450
 8421POPC   C2B51848  26.656   8.382   6.750
 8421POPC   C3B51849  26.609   8.371   7.050
 8421POPC   C4B51850  26.582   8.366   7.350
 8422POPC   NC351851  36.902  18.247   5.550
 8422POPC   PO451852  36.948  18.261   5.850
 8422POPC   GL151853  36.952  18.264   6.150
 8422POPC   GL251854  36.973  18.408   6.150
 8422POPC   C1A51855  36.882  18.249   6.450
 8422POPC   D2A51856  36.924  18.253   6.750
 8422POPC   C3A51857  36.892  18.292   7.050
 8422POPC   C4A51858  36.921  18.240   7.350
 8422POPC   C1B51859  37.061  18.474   6.450
 8422POPC   C2B51860  37.043  18.477   6.750
 8422POPC   C3B51861  37.083  18.452   7.050
 8422POPC   C4B51862  37.101  18.519   7.350
 8423POPC   NC351863  27.574   5.875   5.550
 8423POPC   PO451864  27.563   5.883   5.850
 8423POPC   GL151865  27.611   5.866   6.150
 8423POPC   GL251866  27.498   6.008   6.150
 8423POPC   C1A51867  27.615   5.899   6.450
 8423POPC   D2A51868  27.630   5.886   6.750
 8423POPC   C3A51869  27.616   5.824   7.050
 8423POPC   C4A51870  27.630   5.908   7.350
 8423POPC   C1B51871  27.422   6.084   6.450
 8423POPC   C2B51872  27.415   6.120   6.750
 8423POPC   C3B51873  27.478   6.086   7.050
 8423POPC   C4B51874  27.412   6.027   7.350
 8424POPC   NC351875  26.839  21.406   5.550
 8424POPC   PO451876  26.843  21.414   5.850
 8424POPC   GL151877  26.800  21.384   6.150
 8424POPC   GL251878  26.969  21.399   6.150
 8424POPC   C1A51879  26.793  21.373   6.450
 8424POPC   D2A51880  26.788  21.370   6.750
 8424POPC   C3A51881  26.810  21.376   7.050
 8424POPC   C4A51882  26.773  21.394   7.350
 8424POPC   C1B51883  27.089  21.327   6.450
 8424POPC   C2B51884  27.071  21.367   6.750
 8424POPC   C3B51885  27.101  21.328   7.050
 8424POPC   C4B51886  27.109  21.305   7.350
 8425POPC   NC351887  13.652  36.121   5.550
 8425POPC   PO451888  13.651  36.169   5.850
 8425POPC   GL151889  13.629  36.141   6.150
 8425POPC   GL251890  13.743  36.090   6.150
 8425POPC   C1A51891  13.673  36.150   6.450
 8425POPC   D2A51892  13.597  36.142   6.750
 8425POPC   C3A51893  13.637  36.078   7.050
 8425POPC   C4A51894  13.588  36.107   7.350
 8425POPC   C1B51895  13.913  36.105   6.450
 8425POPC   C2B51896  13.922  36.087   6.750
 8425POPC   C3B51897  13.868  36.096   7.050
 8425POPC   C4B51898  13.918  36.127   7.350
 8426POPC   NC351899  36.087   5.059   5.550
 8426POPC   PO451900  36.125   5.073   5.850
 8426POPC   GL151901  36.091   5.093   6.150
 8426POPC   GL251902  36.025   5.163   6.150
 8426POPC   C1A51903  36.156   5.082   6.450
 8426POPC   D2A51904  36.079   5.117   6.750
 8426POPC   C3A51905  36.131   5.075   7.050
 8426POPC   C4A51906  36.134   5.106   7.350
 8426POPC   C1B51907  35.874   5.144   6.450
 8426POPC   C2B51908  35.844   5.177   6.750
 8426POPC   C3B51909  35.886   5.168   7.050
 8426POPC   C4B51910  35.910   5.121   7.350
 8427POPC   NC351911   8.928   5.133   5.550
 8427POPC   PO451912   9.001   5.067   5.850
 8427POPC   GL151913   8.971   5.113   6.150
 8427POPC   GL251914   8.898   5.145   6.150
 8427POPC   C1A51915   8.938   5.143   6.450
 8427POPC   D2A51916   8.956   5.110   6.750
 8427POPC   C3A51917   8.965   5.114   7.050
 8427POPC   C4A51918   8.958   5.075   7.350
 8427POPC   C1B51919   8.793   5.311   6.450
 8427POPC   C2B51920   8.801   5.313   6.750
 8427POPC   C3B51921   8.865   5.265   7.050
 8427POPC   C4B51922   8.856   5.267   7.350
 8428POPC   NC351923  12.874  41.609   5.550
 8428POPC   PO451924  12.845  41.576   5.850
 8428POPC   GL151925  12.802  41.584   6.150
 8428POPC   GL251926  12.811  41.688   6.150
 8428POPC   C1A51927  12.842  41.563   6.450
 8428POPC   D2A51928  12.847  41.574   6.750
 8428POPC   C3A51929  12.810  41.517   7.050
 8428POPC   C4A51930  12.890  41.553   7.350
 8428POPC   C1B51931  12.752  41.751   6.450
 8428POPC   C2B51932  12.737  41.822   6.750
 8428POPC   C3B51933  12.740  41.812   7.050
 8428POPC   C4B51934  12.785  41.825   7.350
 8429POPC   NC351935   8.158  18.247   5.550
 8429POPC   PO451936   8.230  18.295   5.850
 8429POPC   GL151937   8.238  18.271   6.150
 8429POPC   GL251938   8.250  18.149   6.150
 8429POPC   C1A51939   8.224  18.302   6.450
 8429POPC   D2A51940   8.164  18.264   6.750
 8429POPC   C3A51941   8.183  18.281   7.050
 8429POPC   C4A51942   8.239  18.278   7.350
 8429POPC   C1B51943   8.323  18.068   6.450
 8429POPC   C2B51944   8.366  18.093   6.750
 8429POPC   C3B51945   8.304  18.086   7.050
 8429POPC   C4B51946   8.323  18.116   7.350
 8430POPC   NC351947   0.410  32.997   5.550
 8430POPC   PO451948   0.422  32.975   5.850
 8430POPC   GL151949   0.420  32.984   6.150
 8430POPC   GL251950   0.580  33.023   6.150
 8430POPC   C1A51951   0.389  33.064   6.450
 8430POPC   D2A51952   0.442  33.056   6.750
 8430POPC   C3A51953   0.471  33.058   7.050
 8430POPC   C4A51954   0.440  32.975   7.350
 8430POPC   C1B51955   0.702  32.984   6.450
 8430POPC   C2B51956   0.675  32.939   6.750
 8430POPC   C3B51957   0.638  32.997   7.050
 8430POPC   C4B51958   0.642  32.957   7.350
 8431POPC   NC351959  43.920  34.538   5.550
 8431POPC   PO451960  43.899  34.591   5.850
 8431POPC   GL151961  43.889  34.610   6.150
 8431POPC   GL251962  43.979  34.488   6.150
 8431POPC   C1A51963  43.853  34.625   6.450
 8431POPC   D2A51964  43.898  34.550   6.750
 8431POPC   C3A51965  43.841  34.557   7.050
 8431POPC   C4A51966  43.936  34.592   7.350
 8431POPC   C1B51967  43.954  34.300   6.450
 8431POPC   C2B51968  43.954  34.322   6.750
 8431POPC   C3B51969  43.930  34.316   7.050
 8431POPC   C4B51970  43.954  34.309   7.350
 8432POPC   NC351971  12.810  19.789   5.550
 8432POPC   PO451972  12.824  19.864   5.850
 8432POPC   GL151973  12.828  19.800   6.150
 8432POPC   GL251974  12.949  19.757   6.150
 8432POPC   C1A51975  12.863  19.838   6.450
 8432POPC   D2A51976  12.839  19.819   6.750
 8432POPC   C3A51977  12.823  19.824   7.050
 8432POPC   C4A51978  12.855  19.859   7.350
 8432POPC   C1B51979  13.009  19.612   6.450
 8432POPC   C2B51980  12.989  19.643   6.750
 8432POPC   C3B51981  12.977  19.670   7.050
 8432POPC   C4B51982  12.945  19.628   7.350
 8433POPC   NC351983  32.236  35.315   5.550
 8433POPC   PO451984  32.234  35.390   5.850
 8433POPC   GL151985  32.264  35.333   6.150
 8433POPC   GL251986  32.418  35.306   6.150
 8433POPC   C1A51987  32.275  35.343   6.450
 8433POPC   D2A51988  32.243  35.338   6.750
 8433POPC   C3A51989  32.208  35.384   7.050
 8433POPC   C4A51990  32.222  35.354   7.350
 8433POPC   C1B51991  32.538  35.368   6.450
 8433POPC   C2B51992  32.493  35.337   6.750
 8433POPC   C3B51993  32.532  35.380   7.050
 8433POPC   C4B51994  32.485  35.314   7.350
 8434POPC   NC351995  21.435  26.848   5.550
 8434POPC   PO451996  21.403  26.768   5.850
 8434POPC   GL151997  21.374  26.787   6.150
 8434POPC   GL251998  21.460  26.743   6.150
 8434POPC   C1A51999  21.414  26.854   6.450
 8434POPC   D2A52000  21.414  26.817   6.750
 8434POPC   C3A52001  21.430  26.845   7.050
 8434POPC   C4A52002  21.421  26.867   7.350
 8434POPC   C1B52003  21.579  26.749   6.450
 8434POPC   C2B52004  21.659  26.715   6.750
 8434POPC   C3B52005  21.582  26.760   7.050
 8434POPC   C4B52006  21.642  26.756   7.350
 8435POPC   NC352007  35.362  20.601   5.550
 8435POPC   PO452008  35.395  20.623   5.850
 8435POPC   GL152009  35.303  20.615   6.150
 8435POPC   GL252010  35.287  20.749   6.150
 8435POPC   C1A52011  35.349  20.584   6.450
 8435POPC   D2A52012  35.389  20.637   6.750
 8435POPC   C3A52013  35.375  20.614   7.050
 8435POPC   C4A52014  35.376  20.626   7.350
 8435POPC   C1B52015  35.323  20.828   6.450
 8435POPC   C2B52016  35.274  20.877   6.750
 8435POPC   C3B52017  35.350  20.883   7.050
 8435POPC   C4B52018  35.318  20.832   7.350
 8436POPC   NC352019   6.613  13.584   5.550
 8436POPC   PO452020   6.676  13.595   5.850
 8436POPC   GL152021   6.676  13.613   6.150
 8436POPC   GL252022   6.772  13.698   6.150
 8436POPC   C1A52023   6.612  13.659   6.450
 8436POPC   D2A52024   6.617  13.590   6.750
 8436POPC   C3A52025   6.668  13.640   7.050
 8436POPC   C4A52026   6.629  13.609   7.350
 8436POPC   C1B52027   6.881  13.811   6.450
 8436POPC   C2B52028   6.819  13.749   6.750
 8436POPC   C3B52029   6.816  13.788   7.050
 8436POPC   C4B52030   6.811  13.772   7.350
 8437POPC   NC352031  40.052  24.442   5.550
 8437POPC   PO452032  40.017  24.508   5.850
 8437POPC   GL152033  40.003  24.444   6.150
 8437POPC   GL252034  39.858  24.418   6.150
 8437POPC   C1A52035  40.056  24.450   6.450
 8437POPC   D2A52036  39.996  24.508   6.750
 8437POPC   C3A52037  40.040  24.536   7.050
 8437POPC   C4A52038  39.998  24.461   7.350
 8437POPC   C1B52039  39.786  24.402   6.450
 8437POPC   C2B52040  39.828  24.411   6.750
 8437POPC   C3B52041  39.783  24.368   7.050
 8437POPC   C4B52042  39.837  24.385   7.350
 8438POPC   NC352043  43.894  26.808   5.550
 8438POPC   PO452044  43.855  26.863   5.850
 8438POPC   GL152045  43.929  26.828   6.150
 8438POPC   GL252046  43.828  26.923   6.150
 8438POPC   C1A52047  43.918  26.775   6.450
 8438POPC   D2A52048  43.923  26.827   6.750
 8438POPC   C3A52049  43.935  26.814   7.050
 8438POPC   C4A52050  43.868  26.847   7.350
 8438POPC   C1B52051  43.875  27.086   6.450
 8438POPC   C2B52052  43.861  27.050   6.750
 8438POPC   C3B52053  43.862  27.055   7.050
 8438POPC   C4B52054  43.831  27.070   7.350
 8439POPC   NC352055  16.686   5.878   5.550
 8439POPC   PO452056  16.726   5.901   5.850
 8439POPC   GL152057  16.739   5.917   6.150
 8439POPC   GL252058  16.869   5.782   6.150
 8439POPC   C1A52059  16.706   5.887   6.450
 8439POPC   D2A52060  16.714   5.851   6.750
 8439POPC   C3A52061  16.701   5.858   7.050
 8439POPC   C4A52062  16.724   5.916   7.350
 8439POPC   C1B52063  16.880   5.716   6.450
 8439POPC   C2B52064  16.922   5.714   6.750
 8439POPC   C3B52065  16.927   5.670   7.050
 8439POPC   C4B52066  16.869   5.700   7.350
 8440POPC   NC352067  21.422  38.486   5.550
 8440POPC   PO452068  21.432  38.429   5.850
 8440POPC   GL152069  21.429  38.452   6.150
 8440POPC   GL252070  21.298  38.393   6.150
 8440POPC   C1A52071  21.436  38.489   6.450
 8440POPC   D2A52072  21.434  38.457   6.750
 8440POPC   C3A52073  21.430  38.484   7.050
 8440POPC   C4A52074  21.436  38.453   7.350
 8440POPC   C1B52075  21.251  38.224   6.450
 8440POPC   C2B52076  21.279  38.308   6.750
 8440POPC   C3B52077  21.205  38.264   7.050
 8440POPC   C4B52078  21.276  38.309   7.350
 8441POPC   NC352079  11.315   1.170   5.550
 8441POPC   PO452080  11.334   1.243   5.850
 8441POPC   GL152081  11.310   1.202   6.150
 8441POPC   GL252082  11.404   1.114   6.150
 8441POPC   C1A52083  11.332   1.182   6.450
 8441POPC   D2A52084  11.312   1.242   6.750
 8441POPC   C3A52085  11.305   1.247   7.050
 8441POPC   C4A52086  11.258   1.171   7.350
 8441POPC   C1B52087  11.479   1.078   6.450
 8441POPC   C2B52088  11.468   1.074   6.750
 8441POPC   C3B52089  11.461   1.026   7.050
 8441POPC   C4B52090  11.556   1.102   7.350
 8442POPC   NC352091  16.753   4.274   5.550
 8442POPC   PO452092  16.724   4.345   5.850
 8442POPC   GL152093  16.771   4.367   6.150
 8442POPC   GL252094  16.844   4.303   6.150
 8442POPC   C1A52095  16.692   4.286   6.450
 8442POPC   D2A52096  16.762   4.357   6.750
 8442POPC   C3A52097  16.684   4.302   7.050
 8442POPC   C4A52098  16.698   4.311   7.350
 8442POPC   C1B52099  16.959   4.182   6.450
 8442POPC   C2B52100  16.963   4.267   6.750
 8442POPC   C3B52101  16.997   4.200   7.050
 8442POPC   C4B52102  16.947   4.205   7.350
 8443POPC   NC352103  36.859  24.442   5.550
 8443POPC   PO452104  36.868  24.472   5.850
 8443POPC   GL152105  36.869  24.492   6.150
 8443POPC   GL252106  36.948  24.650   6.150
 8443POPC   C1A52107  36.904  24.463   6.450
 8443POPC   D2A52108  36.936  24.457   6.750
 8443POPC   C3A52109  36.952  24.440   7.050
 8443POPC   C4A52110  36.895  24.449   7.350
 8443POPC   C1B52111  36.955  24.697   6.450
 8443POPC   C2B52112  36.951  24.718   6.750
 8443POPC   C3B52113  36.934  24.715   7.050
 8443POPC   C4B52114  37.024  24.738   7.350
 8444POPC   NC352115  21.404  12.092   5.550
 8444POPC   PO452116  21.403  12.101   5.850
 8444POPC   GL152117  21.397  12.106   6.150
 8444POPC   GL252118  21.270  12.080   6.150
 8444POPC   C1A52119  21.365  12.101   6.450
 8444POPC   D2A52120  21.399  12.100   6.750
 8444POPC   C3A52121  21.398  12.106   7.050
 8444POPC   C4A52122  21.423  12.100   7.350
 8444POPC   C1B52123  21.177  12.007   6.450
 8444POPC   C2B52124  21.173  12.041   6.750
 8444POPC   C3B52125  21.123  12.019   7.050
 8444POPC   C4B52126  21.175  12.005   7.350
 8445POPC   NC352127   9.760   6.601   5.550
 8445POPC   PO452128   9.779   6.654   5.850
 8445POPC   GL152129   9.755   6.647   6.150
 8445POPC   GL252130   9.682   6.529   6.150
 8445POPC   C1A52131   9.789   6.664   6.450
 8445POPC   D2A52132   9.766   6.622   6.750
 8445POPC   C3A52133   9.718   6.675   7.050
 8445POPC   C4A52134   9.759   6.684   7.350
 8445POPC   C1B52135   9.611   6.446   6.450
 8445POPC   C2B52136   9.619   6.473   6.750
 8445POPC   C3B52137   9.623   6.388   7.050
 8445POPC   C4B52138   9.666   6.463   7.350
 8446POPC   NC352139  21.348  10.518   5.550
 8446POPC   PO452140  21.339  10.564   5.850
 8446POPC   GL152141  21.403  10.514   6.150
 8446POPC   GL252142  21.508  10.448   6.150
 8446POPC   C1A52143  21.406  10.522   6.450
 8446POPC   D2A52144  21.422  10.564   6.750
 8446POPC   C3A52145  21.429  10.482   7.050
 8446POPC   C4A52146  21.389  10.496   7.350
 8446POPC   C1B52147  21.626  10.466   6.450
 8446POPC   C2B52148  21.666  10.469   6.750
 8446POPC   C3B52149  21.650  10.451   7.050
 8446POPC   C4B52150  21.618  10.490   7.350
 8447POPC   NC352151  41.526  22.119   5.550
 8447POPC   PO452152  41.585  22.134   5.850
 8447POPC   GL152153  41.511  22.167   6.150
 8447POPC   GL252154  41.459  22.249   6.150
 8447POPC   C1A52155  41.539  22.149   6.450
 8447POPC   D2A52156  41.556  22.179   6.750
 8447POPC   C3A52157  41.580  22.190   7.050
 8447POPC   C4A52158  41.575  22.159   7.350
 8447POPC   C1B52159  41.317  22.298   6.450
 8447POPC   C2B52160  41.304  22.284   6.750
 8447POPC   C3B52161  41.331  22.317   7.050
 8447POPC   C4B52162  41.391  22.260   7.350
 8448POPC   NC352163  43.069  24.530   5.550
 8448POPC   PO452164  43.063  24.470   5.850
 8448POPC   GL152165  43.070  24.517   6.150
 8448POPC   GL252166  43.107  24.618   6.150
 8448POPC   C1A52167  43.154  24.470   6.450
 8448POPC   D2A52168  43.134  24.526   6.750
 8448POPC   C3A52169  43.094  24.444   7.050
 8448POPC   C4A52170  43.100  24.457   7.350
 8448POPC   C1B52171  43.120  24.696   6.450
 8448POPC   C2B52172  43.157  24.745   6.750
 8448POPC   C3B52173  43.100  24.764   7.050
 8448POPC   C4B52174  43.106  24.721   7.350
 8449POPC   NC352175  19.010  13.637   5.550
 8449POPC   PO452176  19.024  13.609   5.850
 8449POPC   GL152177  19.102  13.652   6.150
 8449POPC   GL252178  19.127  13.665   6.150
 8449POPC   C1A52179  19.108  13.652   6.450
 8449POPC   D2A52180  19.028  13.670   6.750
 8449POPC   C3A52181  19.033  13.632   7.050
 8449POPC   C4A52182  19.058  13.590   7.350
 8449POPC   C1B52183  19.265  13.822   6.450
 8449POPC   C2B52184  19.217  13.782   6.750
 8449POPC   C3B52185  19.243  13.808   7.050
 8449POPC   C4B52186  19.264  13.744   7.350
 8450POPC   NC352187  32.996  42.360   5.550
 8450POPC   PO452188  33.034  42.319   5.850
 8450POPC   GL152189  33.059  42.337   6.150
 8450POPC   GL252190  32.884  42.220   6.150
 8450POPC   C1A52191  33.031  42.344   6.450
 8450POPC   D2A52192  33.055  42.301   6.750
 8450POPC   C3A52193  32.979  42.332   7.050
 8450POPC   C4A52194  33.074  42.347   7.350
 8450POPC   C1B52195  32.853  42.142   6.450
 8450POPC   C2B52196  32.804  42.168   6.750
 8450POPC   C3B52197  32.862  42.121   7.050
 8450POPC   C4B52198  32.853  42.203   7.350
 8451POPC   NC352199  42.330  15.935   5.550
 8451POPC   PO452200  42.336  15.933   5.850
 8451POPC   GL152201  42.310  15.988   6.150
 8451POPC   GL252202  42.443  16.014   6.150
 8451POPC   C1A52203  42.380  15.968   6.450
 8451POPC   D2A52204  42.288  15.970   6.750
 8451POPC   C3A52205  42.337  15.978   7.050
 8451POPC   C4A52206  42.342  15.964   7.350
 8451POPC   C1B52207  42.582  16.097   6.450
 8451POPC   C2B52208  42.540  16.079   6.750
 8451POPC   C3B52209  42.499  16.082   7.050
 8451POPC   C4B52210  42.587  16.060   7.350
 8452POPC   NC352211   5.892   0.441   5.550
 8452POPC   PO452212   5.826   0.462   5.850
 8452POPC   GL152213   5.895   0.440   6.150
 8452POPC   GL252214   5.843   0.305   6.150
 8452POPC   C1A52215   5.867   0.480   6.450
 8452POPC   D2A52216   5.838   0.404   6.750
 8452POPC   C3A52217   5.851   0.467   7.050
 8452POPC   C4A52218   5.827   0.396   7.350
 8452POPC   C1B52219   5.878   0.192   6.450
 8452POPC   C2B52220   5.860   0.156   6.750
 8452POPC   C3B52221   5.919   0.146   7.050
 8452POPC   C4B52222   5.872   0.213   7.350
 8453POPC   NC352223  20.589  36.148   5.550
 8453POPC   PO452224  20.639  36.153   5.850
 8453POPC   GL152225  20.587  36.145   6.150
 8453POPC   GL252226  20.707  36.215   6.150
 8453POPC   C1A52227  20.610  36.147   6.450
 8453POPC   D2A52228  20.616  36.119   6.750
 8453POPC   C3A52229  20.564  36.146   7.050
 8453POPC   C4A52230  20.589  36.103   7.350
 8453POPC   C1B52231  20.793  36.236   6.450
 8453POPC   C2B52232  20.839  36.267   6.750
 8453POPC   C3B52233  20.871  36.297   7.050
 8453POPC   C4B52234  20.837  36.271   7.350
 8454POPC   NC352235  25.253  44.650   5.550
 8454POPC   PO452236  25.261  44.671   5.850
 8454POPC   GL152237  25.284  44.700   6.150
 8454POPC   GL252238  25.422  44.687   6.150
 8454POPC   C1A52239  25.269  44.653   6.450
 8454POPC   D2A52240  25.268  44.668   6.750
 8454POPC   C3A52241  25.219  44.614   7.050
 8454POPC   C4A52242  25.265  44.653   7.350
 8454POPC   C1B52243  25.528  44.632   6.450
 8454POPC   C2B52244  25.551  44.578   6.750
 8454POPC   C3B52245  25.498  44.611   7.050
 8454POPC   C4B52246  25.499  44.586   7.350
 8455POPC   NC352247  33.012  20.634   5.550
 8455POPC   PO452248  33.069  20.609   5.850
 8455POPC   GL152249  33.014  20.638   6.150
 8455POPC   GL252250  33.140  20.586   6.150
 8455POPC   C1A52251  33.060  20.633   6.450
 8455POPC   D2A52252  32.977  20.595   6.750
 8455POPC   C3A52253  33.026  20.615   7.050
 8455POPC   C4A52254  33.041  20.593   7.350
 8455POPC   C1B52255  33.251  20.509   6.450
 8455POPC   C2B52256  33.218  20.503   6.750
 8455POPC   C3B52257  33.189  20.494   7.050
 8455POPC   C4B52258  33.272  20.468   7.350
 8456POPC   NC352259  43.147  44.688   5.550
 8456POPC   PO452260  43.069  44.682   5.850
 8456POPC   GL152261  43.094  44.662   6.150
 8456POPC   GL252262  43.239  44.735   6.150
 8456POPC   C1A52263  43.122  44.657   6.450
 8456POPC   D2A52264  43.160  44.679   6.750
 8456POPC   C3A52265  43.151  44.662   7.050
 8456POPC   C4A52266  43.108  44.650   7.350
 8456POPC   C1B52267  43.373  44.726   6.450
 8456POPC   C2B52268  43.312  44.668   6.750
 8456POPC   C3B52269  43.385  44.683   7.050
 8456POPC   C4B52270  43.329  44.682   7.350
 8457POPC   NC352271  15.219  37.692   5.550
 8457POPC   PO452272  15.139  37.707   5.850
 8457POPC   GL152273  15.130  37.727   6.150
 8457POPC   GL252274  15.046  37.607   6.150
 8457POPC   C1A52275  15.166  37.690   6.450
 8457POPC   D2A52276  15.209  37.638   6.750
 8457POPC   C3A52277  15.159  37.632   7.050
 8457POPC   C4A52278  15.185  37.635   7.350
 8457POPC   C1B52279  14.942  37.588   6.450
 8457POPC   C2B52280  14.954  37.550   6.750
 8457POPC   C3B52281  14.983  37.530   7.050
 8457POPC   C4B52282  14.959  37.508   7.350
 8458POPC   NC352283   6.675   7.399   5.550
 8458POPC   PO452284   6.646   7.378   5.850
 8458POPC   GL152285   6.681   7.412   6.150
 8458POPC   GL252286   6.743   7.526   6.150
 8458POPC   C1A52287   6.632   7.454   6.450
 8458POPC   D2A52288   6.692   7.398   6.750
 8458POPC   C3A52289   6.673   7.396   7.050
 8458POPC   C4A52290   6.680   7.375   7.350
 8458POPC   C1B52291   6.881   7.589   6.450
 8458POPC   C2B52292   6.816   7.597   6.750
 8458POPC   C3B52293   6.842   7.546   7.050
 8458POPC   C4B52294   6.859   7.517   7.350
 8459POPC   NC352295  11.296  21.380   5.550
 8459POPC   PO452296  11.293  21.369   5.850
 8459POPC   GL152297  11.324  21.423   6.150
 8459POPC   GL252298  11.470  21.319   6.150
 8459POPC   C1A52299  11.311  21.359   6.450
 8459POPC   D2A52300  11.329  21.406   6.750
 8459POPC   C3A52301  11.299  21.393   7.050
 8459POPC   C4A52302  11.336  21.436   7.350
 8459POPC   C1B52303  11.497  21.320   6.450
 8459POPC   C2B52304  11.584  21.322   6.750
 8459POPC   C3B52305  11.579  21.319   7.050
 8459POPC   C4B52306  11.518  21.373   7.350
 8460POPC   NC352307  10.557  34.625   5.550
 8460POPC   PO452308  10.510  34.551   5.850
 8460POPC   GL152309  10.504  34.613   6.150
 8460POPC   GL252310  10.666  34.561   6.150
 8460POPC   C1A52311  10.488  34.581   6.450
 8460POPC   D2A52312  10.542  34.578   6.750
 8460POPC   C3A52313  10.573  34.587   7.050
 8460POPC   C4A52314  10.479  34.552   7.350
 8460POPC   C1B52315  10.753  34.565   6.450
 8460POPC   C2B52316  10.757  34.544   6.750
 8460POPC   C3B52317  10.765  34.530   7.050
 8460POPC   C4B52318  10.767  34.591   7.350
 8461POPC   NC352319   0.404  27.571   5.550
 8461POPC   PO452320   0.473  27.621   5.850
 8461POPC   GL152321   0.449  27.601   6.150
 8461POPC   GL252322   0.347  27.739   6.150
 8461POPC   C1A52323   0.408  27.571   6.450
 8461POPC   D2A52324   0.411  27.575   6.750
 8461POPC   C3A52325   0.429  27.559   7.050
 8461POPC   C4A52326   0.455  27.560   7.350
 8461POPC   C1B52327   0.315  27.785   6.450
 8461POPC   C2B52328   0.249  27.818   6.750
 8461POPC   C3B52329   0.260  27.765   7.050
 8461POPC   C4B52330   0.265  27.789   7.350
 8462POPC   NC352331   5.093  33.815   5.550
 8462POPC   PO452332   5.135  33.805   5.850
 8462POPC   GL152333   5.111  33.795   6.150
 8462POPC   GL252334   5.011  33.901   6.150
 8462POPC   C1A52335   5.118  33.813   6.450
 8462POPC   D2A52336   5.083  33.829   6.750
 8462POPC   C3A52337   5.097  33.826   7.050
 8462POPC   C4A52338   5.135  33.778   7.350
 8462POPC   C1B52339   4.835  33.958   6.450
 8462POPC   C2B52340   4.898  33.905   6.750
 8462POPC   C3B52341   4.918  33.947   7.050
 8462POPC   C4B52342   4.869  33.968   7.350
 8463POPC   NC352343  20.621  42.314   5.550
 8463POPC   PO452344  20.571  42.299   5.850
 8463POPC   GL152345  20.651  42.322   6.150
 8463POPC   GL252346  20.588  42.228   6.150
 8463POPC   C1A52347  20.574  42.346   6.450
 8463POPC   D2A52348  20.561  42.376   6.750
 8463POPC   C3A52349  20.634  42.356   7.050
 8463POPC   C4A52350  20.618  42.356   7.350
 8463POPC   C1B52351  20.467  42.112   6.450
 8463POPC   C2B52352  20.556  42.123   6.750
 8463POPC   C3B52353  20.507  42.095   7.050
 8463POPC   C4B52354  20.482  42.125   7.350
 8464POPC   NC352355  43.898  26.049   5.550
 8464POPC   PO452356  43.857  26.007   5.850
 8464POPC   GL152357  43.872  26.085   6.150
 8464POPC   GL252358  44.032  26.075   6.150
 8464POPC   C1A52359  43.896  26.011   6.450
 8464POPC   D2A52360  43.876  26.023   6.750
 8464POPC   C3A52361  43.883  26.034   7.050
 8464POPC   C4A52362  43.915  26.072   7.350
 8464POPC   C1B52363  44.162  26.009   6.450
 8464POPC   C2B52364  44.103  25.967   6.750
 8464POPC   C3B52365  44.109  25.996   7.050
 8464POPC   C4B52366  44.180  26.047   7.350
 8465POPC   NC352367  36.865  26.006   5.550
 8465POPC   PO452368  36.864  26.060   5.850
 8465POPC   GL152369  36.865  26.002   6.150
 8465POPC   GL252370  36.875  26.108   6.150
 8465POPC   C1A52371  36.923  26.003   6.450
 8465POPC   D2A52372  36.921  26.037   6.750
 8465POPC   C3A52373  36.864  26.058   7.050
 8465POPC   C4A52374  36.947  26.090   7.350
 8465POPC   C1B52375  36.779  26.271   6.450
 8465POPC   C2B52376  36.759  26.272   6.750
 8465POPC   C3B52377  36.764  26.252   7.050
 8465POPC   C4B52378  36.789  26.226   7.350
 8466POPC   NC352379   5.044  43.920   5.550
 8466POPC   PO452380   5.094  43.852   5.850
 8466POPC   GL152381   5.118  43.886   6.150
 8466POPC   GL252382   4.965  43.803   6.150
 8466POPC   C1A52383   5.069  43.871   6.450
 8466POPC   D2A52384   5.127  43.889   6.750
 8466POPC   C3A52385   5.066  43.880   7.050
 8466POPC   C4A52386   5.135  43.855   7.350
 8466POPC   C1B52387   4.884  43.710   6.450
 8466POPC   C2B52388   4.872  43.736   6.750
 8466POPC   C3B52389   4.878  43.741   7.050
 8466POPC   C4B52390   4.896  43.679   7.350
 8467POPC   NC352391  30.664  21.370   5.550
 8467POPC   PO452392  30.708  21.430   5.850
 8467POPC   GL152393  30.715  21.402   6.150
 8467POPC   GL252394  30.616  21.276   6.150
 8467POPC   C1A52395  30.718  21.426   6.450
 8467POPC   D2A52396  30.663  21.354   6.750
 8467POPC   C3A52397  30.679  21.405   7.050
 8467POPC   C4A52398  30.650  21.364   7.350
 8467POPC   C1B52399  30.615  21.148   6.450
 8467POPC   C2B52400  30.631  21.113   6.750
 8467POPC   C3B52401  30.598  21.198   7.050
 8467POPC   C4B52402  30.629  21.123   7.350
 8468POPC   NC352403   8.172   5.097   5.550
 8468POPC   PO452404   8.170   5.086   5.850
 8468POPC   GL152405   8.209   5.131   6.150
 8468POPC   GL252406   8.260   5.018   6.150
 8468POPC   C1A52407   8.192   5.139   6.450
 8468POPC   D2A52408   8.181   5.133   6.750
 8468POPC   C3A52409   8.218   5.130   7.050
 8468POPC   C4A52410   8.204   5.070   7.350
 8468POPC   C1B52411   8.397   4.873   6.450
 8468POPC   C2B52412   8.364   4.859   6.750
 8468POPC   C3B52413   8.313   4.902   7.050
 8468POPC   C4B52414   8.331   4.865   7.350
 8469POPC   NC352415   6.655   9.755   5.550
 8469POPC   PO452416   6.668   9.783   5.850
 8469POPC   GL152417   6.673   9.749   6.150
 8469POPC   GL252418   6.601   9.668   6.150
 8469POPC   C1A52419   6.660   9.739   6.450
 8469POPC   D2A52420   6.654   9.701   6.750
 8469POPC   C3A52421   6.615   9.756   7.050
 8469POPC   C4A52422   6.644   9.759   7.350
 8469POPC   C1B52423   6.657   9.478   6.450
 8469POPC   C2B52424   6.622   9.498   6.750
 8469POPC   C3B52425   6.605   9.467   7.050
 8469POPC   C4B52426   6.677   9.482   7.350
 8470POPC   NC352427  38.492   0.412   5.550
 8470POPC   PO452428  38.450   0.413   5.850
 8470POPC   GL152429  38.465   0.474   6.150
 8470POPC   GL252430  38.338   0.535   6.150
 8470POPC   C1A52431  38.488   0.413   6.450
 8470POPC   D2A52432  38.431   0.414   6.750
 8470POPC   C3A52433  38.444   0.477   7.050
 8470POPC   C4A52434  38.465   0.429   7.350
 8470POPC   C1B52435  38.230   0.633   6.450
 8470POPC   C2B52436  38.236   0.609   6.750
 8470POPC   C3B52437  38.285   0.617   7.050
 8470POPC   C4B52438  38.220   0.638   7.350
 8471POPC   NC352439  28.326   1.231   5.550
 8471POPC   PO452440  28.384   1.235   5.850
 8471POPC   GL152441  28.347   1.258   6.150
 8471POPC   GL252442  28.303   1.125   6.150
 8471POPC   C1A52443  28.331   1.182   6.450
 8471POPC   D2A52444  28.354   1.227   6.750
 8471POPC   C3A52445  28.414   1.260   7.050
 8471POPC   C4A52446  28.418   1.216   7.350
 8471POPC   C1B52447  28.246   0.989   6.450
 8471POPC   C2B52448  28.175   1.024   6.750
 8471POPC   C3B52449  28.206   1.061   7.050
 8471POPC   C4B52450  28.216   1.000   7.350
 8472POPC   NC352451  41.509  32.265   5.550
 8472POPC   PO452452  41.528  32.281   5.850
 8472POPC   GL152453  41.561  32.231   6.150
 8472POPC   GL252454  41.484  32.279   6.150
 8472POPC   C1A52455  41.594  32.242   6.450
 8472POPC   D2A52456  41.563  32.213   6.750
 8472POPC   C3A52457  41.601  32.245   7.050
 8472POPC   C4A52458  41.523  32.210   7.350
 8472POPC   C1B52459  41.351  32.365   6.450
 8472POPC   C2B52460  41.279  32.311   6.750
 8472POPC   C3B52461  41.279  32.277   7.050
 8472POPC   C4B52462  41.311  32.327   7.350
 8473POPC   NC352463  35.309  19.872   5.550
 8473POPC   PO452464  35.321  19.856   5.850
 8473POPC   GL152465  35.332  19.847   6.150
 8473POPC   GL252466  35.440  19.970   6.150
 8473POPC   C1A52467  35.355  19.795   6.450
 8473POPC   D2A52468  35.317  19.802   6.750
 8473POPC   C3A52469  35.378  19.864   7.050
 8473POPC   C4A52470  35.381  19.858   7.350
 8473POPC   C1B52471  35.508  20.011   6.450
 8473POPC   C2B52472  35.566  20.020   6.750
 8473POPC   C3B52473  35.558  20.022   7.050
 8473POPC   C4B52474  35.555  20.029   7.350
 8474POPC   NC352475  37.633   0.430   5.550
 8474POPC   PO452476  37.639   0.464   5.850
 8474POPC   GL152477  37.700   0.469   6.150
 8474POPC   GL252478  37.775   0.543   6.150
 8474POPC   C1A52479  37.709   0.443   6.450
 8474POPC   D2A52480  37.712   0.461   6.750
 8474POPC   C3A52481  37.693   0.455   7.050
 8474POPC   C4A52482  37.711   0.478   7.350
 8474POPC   C1B52483  37.859   0.570   6.450
 8474POPC   C2B52484  37.858   0.620   6.750
 8474POPC   C3B52485  37.856   0.584   7.050
 8474POPC   C4B52486  37.906   0.539   7.350
 8475POPC   NC352487  39.213  26.063   5.550
 8475POPC   PO452488  39.246  26.031   5.850
 8475POPC   GL152489  39.235  26.050   6.150
 8475POPC   GL252490  39.263  26.165   6.150
 8475POPC   C1A52491  39.244  26.044   6.450
 8475POPC   D2A52492  39.229  26.079   6.750
 8475POPC   C3A52493  39.229  26.075   7.050
 8475POPC   C4A52494  39.270  26.057   7.350
 8475POPC   C1B52495  39.355  26.277   6.450
 8475POPC   C2B52496  39.371  26.188   6.750
 8475POPC   C3B52497  39.434  26.249   7.050
 8475POPC   C4B52498  39.370  26.225   7.350
 8476POPC   NC352499  36.866  22.143   5.550
 8476POPC   PO452500  36.934  22.118   5.850
 8476POPC   GL152501  36.862  22.133   6.150
 8476POPC   GL252502  36.935  22.085   6.150
 8476POPC   C1A52503  36.941  22.128   6.450
 8476POPC   D2A52504  36.937  22.188   6.750
 8476POPC   C3A52505  36.865  22.165   7.050
 8476POPC   C4A52506  36.938  22.204   7.350
 8476POPC   C1B52507  36.943  21.917   6.450
 8476POPC   C2B52508  36.940  21.963   6.750
 8476POPC   C3B52509  37.015  21.907   7.050
 8476POPC   C4B52510  36.997  21.878   7.350
 8477POPC   NC352511  38.477  12.124   5.550
 8477POPC   PO452512  38.465  12.111   5.850
 8477POPC   GL152513  38.428  12.077   6.150
 8477POPC   GL252514  38.396  11.990   6.150
 8477POPC   C1A52515  38.438  12.058   6.450
 8477POPC   D2A52516  38.415  12.122   6.750
 8477POPC   C3A52517  38.481  12.078   7.050
 8477POPC   C4A52518  38.493  12.112   7.350
 8477POPC   C1B52519  38.320  11.880   6.450
 8477POPC   C2B52520  38.380  11.826   6.750
 8477POPC   C3B52521  38.323  11.818   7.050
 8477POPC   C4B52522  38.377  11.813   7.350
 8478POPC   NC352523  36.176  43.117   5.550
 8478POPC   PO452524  36.141  43.063   5.850
 8478POPC   GL152525  36.086  43.098   6.150
 8478POPC   GL252526  36.131  43.187   6.150
 8478POPC   C1A52527  36.082  43.104   6.450
 8478POPC   D2A52528  36.082  43.115   6.750
 8478POPC   C3A52529  36.085  43.112   7.050
 8478POPC   C4A52530  36.132  43.095   7.350
 8478POPC   C1B52531  36.205  43.341   6.450
 8478POPC   C2B52532  36.215  43.338   6.750
 8478POPC   C3B52533  36.212  43.305   7.050
 8478POPC   C4B52534  36.163  43.340   7.350
 8479POPC   NC352535  29.955  25.266   5.550
 8479POPC   PO452536  29.949  25.230   5.850
 8479POPC   GL152537  29.939  25.274   6.150
 8479POPC   GL252538  29.911  25.154   6.150
 8479POPC   C1A52539  29.961  25.256   6.450
 8479POPC   D2A52540  29.924  25.241   6.750
 8479POPC   C3A52541  29.875  25.311   7.050
 8479POPC   C4A52542  29.933  25.277   7.350
 8479POPC   C1B52543  29.881  25.024   6.450
 8479POPC   C2B52544  29.845  25.008   6.750
 8479POPC   C3B52545  29.855  25.040   7.050
 8479POPC   C4B52546  29.893  24.999   7.350
 8480POPC   NC352547   7.387  32.976   5.550
 8480POPC   PO452548   7.396  33.060   5.850
 8480POPC   GL152549   7.413  33.015   6.150
 8480POPC   GL252550   7.444  33.108   6.150
 8480POPC   C1A52551   7.379  32.981   6.450
 8480POPC   D2A52552   7.372  33.033   6.750
 8480POPC   C3A52553   7.386  33.045   7.050
 8480POPC   C4A52554   7.468  33.055   7.350
 8480POPC   C1B52555   7.490  33.234   6.450
 8480POPC   C2B52556   7.571  33.259   6.750
 8480POPC   C3B52557   7.505  33.222   7.050
 8480POPC   C4B52558   7.583  33.285   7.350
 8481POPC   NC352559  33.840  11.337   5.550
 8481POPC   PO452560  33.797  11.323   5.850
 8481POPC   GL152561  33.803  11.272   6.150
 8481POPC   GL252562  33.674  11.269   6.150
 8481POPC   C1A52563  33.753  11.281   6.450
 8481POPC   D2A52564  33.771  11.292   6.750
 8481POPC   C3A52565  33.757  11.253   7.050
 8481POPC   C4A52566  33.770  11.345   7.350
 8481POPC   C1B52567  33.514  11.302   6.450
 8481POPC   C2B52568  33.533  11.311   6.750
 8481POPC   C3B52569  33.526  11.264   7.050
 8481POPC   C4B52570  33.577  11.283   7.350
 8482POPC   NC352571  41.557  21.374   5.550
 8482POPC   PO452572  41.559  21.342   5.850
 8482POPC   GL152573  41.584  21.357   6.150
 8482POPC   GL252574  41.410  21.405   6.150
 8482POPC   C1A52575  41.560  21.377   6.450
 8482POPC   D2A52576  41.549  21.347   6.750
 8482POPC   C3A52577  41.586  21.368   7.050
 8482POPC   C4A52578  41.550  21.358   7.350
 8482POPC   C1B52579  41.325  21.488   6.450
 8482POPC   C2B52580  41.324  21.456   6.750
 8482POPC   C3B52581  41.319  21.458   7.050
 8482POPC   C4B52582  41.380  21.498   7.350
 8483POPC   NC352583   4.341  14.425   5.550
 8483POPC   PO452584   4.348  14.414   5.850
 8483POPC   GL152585   4.346  14.399   6.150
 8483POPC   GL252586   4.222  14.468   6.150
 8483POPC   C1A52587   4.355  14.364   6.450
 8483POPC   D2A52588   4.302  14.360   6.750
 8483POPC   C3A52589   4.325  14.395   7.050
 8483POPC   C4A52590   4.293  14.354   7.350
 8483POPC   C1B52591   4.035  14.460   6.450
 8483POPC   C2B52592   4.102  14.449   6.750
 8483POPC   C3B52593   4.091  14.413   7.050
 8483POPC   C4B52594   4.072  14.418   7.350
 8484POPC   NC352595  19.884  29.928   5.550
 8484POPC   PO452596  19.838  29.871   5.850
 8484POPC   GL152597  19.848  29.874   6.150
 8484POPC   GL252598  19.663  29.915   6.150
 8484POPC   C1A52599  19.817  29.891   6.450
 8484POPC   D2A52600  19.785  29.958   6.750
 8484POPC   C3A52601  19.847  29.924   7.050
 8484POPC   C4A52602  19.857  29.912   7.350
 8484POPC   C1B52603  19.581  29.840   6.450
 8484POPC   C2B52604  19.550  29.839   6.750
 8484POPC   C3B52605  19.631  29.876   7.050
 8484POPC   C4B52606  19.627  29.830   7.350
 8485POPC   NC352607   1.215  26.821   5.550
 8485POPC   PO452608   1.185  26.770   5.850
 8485POPC   GL152609   1.199  26.815   6.150
 8485POPC   GL252610   1.234  26.900   6.150
 8485POPC   C1A52611   1.252  26.846   6.450
 8485POPC   D2A52612   1.184  26.819   6.750
 8485POPC   C3A52613   1.230  26.805   7.050
 8485POPC   C4A52614   1.179  26.798   7.350
 8485POPC   C1B52615   1.183  27.095   6.450
 8485POPC   C2B52616   1.135  27.093   6.750
 8485POPC   C3B52617   1.159  27.083   7.050
 8485POPC   C4B52618   1.195  27.084   7.350
 8486POPC   NC352619  21.433  22.121   5.550
 8486POPC   PO452620  21.412  22.123   5.850
 8486POPC   GL152621  21.414  22.191   6.150
 8486POPC   GL252622  21.275  22.164   6.150
 8486POPC   C1A52623  21.427  22.143   6.450
 8486POPC   D2A52624  21.410  22.113   6.750
 8486POPC   C3A52625  21.385  22.164   7.050
 8486POPC   C4A52626  21.429  22.210   7.350
 8486POPC   C1B52627  21.119  22.113   6.450
 8486POPC   C2B52628  21.151  22.060   6.750
 8486POPC   C3B52629  21.125  22.075   7.050
 8486POPC   C4B52630  21.190  22.088   7.350
 8487POPC   NC352631  44.628  43.158   5.550
 8487POPC   PO452632  44.624  43.158   5.850
 8487POPC   GL152633  44.657  43.133   6.150
 8487POPC   GL252634  44.632  42.965   6.150
 8487POPC   C1A52635  44.679  43.085   6.450
 8487POPC   D2A52636  44.623  43.159   6.750
 8487POPC   C3A52637  44.615  43.094   7.050
 8487POPC   C4A52638  44.679  43.131   7.350
 8487POPC   C1B52639  44.571  42.922   6.450
 8487POPC   C2B52640  44.528  42.918   6.750
 8487POPC   C3B52641  44.550  42.848   7.050
 8487POPC   C4B52642  44.520  42.895   7.350
 8488POPC   NC352643  40.829  14.368   5.550
 8488POPC   PO452644  40.798  14.435   5.850
 8488POPC   GL152645  40.743  14.364   6.150
 8488POPC   GL252646  40.722  14.537   6.150
 8488POPC   C1A52647  40.792  14.443   6.450
 8488POPC   D2A52648  40.795  14.394   6.750
 8488POPC   C3A52649  40.822  14.428   7.050
 8488POPC   C4A52650  40.800  14.399   7.350
 8488POPC   C1B52651  40.603  14.646   6.450
 8488POPC   C2B52652  40.629  14.558   6.750
 8488POPC   C3B52653  40.584  14.555   7.050
 8488POPC   C4B52654  40.623  14.577   7.350
 8489POPC   NC352655  39.194  25.267   5.550
 8489POPC   PO452656  39.253  25.251   5.850
 8489POPC   GL152657  39.266  25.259   6.150
 8489POPC   GL252658  39.149  25.306   6.150
 8489POPC   C1A52659  39.209  25.273   6.450
 8489POPC   D2A52660  39.194  25.222   6.750
 8489POPC   C3A52661  39.184  25.268   7.050
 8489POPC   C4A52662  39.261  25.218   7.350
 8489POPC   C1B52663  39.015  25.319   6.450
 8489POPC   C2B52664  38.963  25.347   6.750
 8489POPC   C3B52665  38.986  25.289   7.050
 8489POPC   C4B52666  38.956  25.340   7.350
 8490POPC   NC352667  10.507   5.889   5.550
 8490POPC   PO452668  10.501   5.843   5.850
 8490POPC   GL152669  10.485   5.822   6.150
 8490POPC   GL252670  10.666   5.893   6.150
 8490POPC   C1A52671  10.509   5.870   6.450
 8490POPC   D2A52672  10.513   5.899   6.750
 8490POPC   C3A52673  10.553   5.881   7.050
 8490POPC   C4A52674  10.494   5.836   7.350
 8490POPC   C1B52675  10.727   5.961   6.450
 8490POPC   C2B52676  10.720   5.912   6.750
 8490POPC   C3B52677  10.808   5.885   7.050
 8490POPC   C4B52678  10.759   5.921   7.350
 8491POPC   NC352679  43.919  10.545   5.550
 8491POPC   PO452680  43.890  10.544   5.850
 8491POPC   GL152681  43.857  10.557   6.150
 8491POPC   GL252682  43.860  10.609   6.150
 8491POPC   C1A52683  43.923  10.518   6.450
 8491POPC   D2A52684  43.873  10.556   6.750
 8491POPC   C3A52685  43.839  10.569   7.050
 8491POPC   C4A52686  43.859  10.491   7.350
 8491POPC   C1B52687  43.845  10.783   6.450
 8491POPC   C2B52688  43.832  10.775   6.750
 8491POPC   C3B52689  43.857  10.732   7.050
 8491POPC   C4B52690  43.832  10.813   7.350
 8492POPC   NC352691   8.181   8.214   5.550
 8492POPC   PO452692   8.238   8.170   5.850
 8492POPC   GL152693   8.227   8.168   6.150
 8492POPC   GL252694   8.102   8.119   6.150
 8492POPC   C1A52695   8.240   8.247   6.450
 8492POPC   D2A52696   8.172   8.223   6.750
 8492POPC   C3A52697   8.232   8.238   7.050
 8492POPC   C4A52698   8.189   8.169   7.350
 8492POPC   C1B52699   8.091   7.981   6.450
 8492POPC   C2B52700   8.124   7.980   6.750
 8492POPC   C3B52701   8.039   8.004   7.050
 8492POPC   C4B52702   8.116   7.977   7.350
 8493POPC   NC352703  31.510  25.237   5.550
 8493POPC   PO452704  31.504  25.277   5.850
 8493POPC   GL152705  31.463  25.309   6.150
 8493POPC   GL252706  31.374  25.307   6.150
 8493POPC   C1A52707  31.503  25.272   6.450
 8493POPC   D2A52708  31.435  25.240   6.750
 8493POPC   C3A52709  31.469  25.230   7.050
 8493POPC   C4A52710  31.449  25.218   7.350
 8493POPC   C1B52711  31.317  25.490   6.450
 8493POPC   C2B52712  31.271  25.471   6.750
 8493POPC   C3B52713  31.311  25.407   7.050
 8493POPC   C4B52714  31.342  25.405   7.350
 8494POPC   NC352715   1.996   2.748   5.550
 8494POPC   PO452716   2.018   2.727   5.850
 8494POPC   GL152717   1.954   2.783   6.150
 8494POPC   GL252718   1.940   2.690   6.150
 8494POPC   C1A52719   2.030   2.756   6.450
 8494POPC   D2A52720   2.032   2.721   6.750
 8494POPC   C3A52721   1.983   2.795   7.050
 8494POPC   C4A52722   1.947   2.746   7.350
 8494POPC   C1B52723   2.013   2.469   6.450
 8494POPC   C2B52724   1.954   2.559   6.750
 8494POPC   C3B52725   1.981   2.536   7.050
 8494POPC   C4B52726   1.965   2.510   7.350
 8495POPC   NC352727  31.494  35.381   5.550
 8495POPC   PO452728  31.466  35.314   5.850
 8495POPC   GL152729  31.438  35.369   6.150
 8495POPC   GL252730  31.543  35.487   6.150
 8495POPC   C1A52731  31.423  35.349   6.450
 8495POPC   D2A52732  31.497  35.372   6.750
 8495POPC   C3A52733  31.492  35.346   7.050
 8495POPC   C4A52734  31.457  35.321   7.350
 8495POPC   C1B52735  31.542  35.594   6.450
 8495POPC   C2B52736  31.479  35.617   6.750
 8495POPC   C3B52737  31.506  35.573   7.050
 8495POPC   C4B52738  31.514  35.573   7.350
 8496POPC   NC352739  23.763  39.981   5.550
 8496POPC   PO452740  23.755  40.047   5.850
 8496POPC   GL152741  23.743  40.051   6.150
 8496POPC   GL252742  23.766  40.084   6.150
 8496POPC   C1A52743  23.762  40.009   6.450
 8496POPC   D2A52744  23.690  40.026   6.750
 8496POPC   C3A52745  23.730  39.985   7.050
 8496POPC   C4A52746  23.744  39.974   7.350
 8496POPC   C1B52747  23.887  40.177   6.450
 8496POPC   C2B52748  23.890  40.217   6.750
 8496POPC   C3B52749  23.892  40.250   7.050
 8496POPC   C4B52750  23.825  40.253   7.350
 8497POPC   NC352751   9.723   2.726   5.550
 8497POPC   PO452752   9.751   2.752   5.850
 8497POPC   GL152753   9.751   2.774   6.150
 8497POPC   GL252754   9.814   2.894   6.150
 8497POPC   C1A52755   9.703   2.732   6.450
 8497POPC   D2A52756   9.733   2.783   6.750
 8497POPC   C3A52757   9.762   2.805   7.050
 8497POPC   C4A52758   9.754   2.763   7.350
 8497POPC   C1B52759   9.897   2.944   6.450
 8497POPC   C2B52760   9.917   2.960   6.750
 8497POPC   C3B52761   9.835   2.974   7.050
 8497POPC   C4B52762   9.884   3.011   7.350
 8498POPC   NC352763   2.753  40.002   5.550
 8498POPC   PO452764   2.803  40.020   5.850
 8498POPC   GL152765   2.758  40.038   6.150
 8498POPC   GL252766   2.879  40.117   6.150
 8498POPC   C1A52767   2.768  40.033   6.450
 8498POPC   D2A52768   2.745  39.963   6.750
 8498POPC   C3A52769   2.764  40.021   7.050
 8498POPC   C4A52770   2.754  39.990   7.350
 8498POPC   C1B52771   2.937  40.149   6.450
 8498POPC   C2B52772   3.009  40.101   6.750
 8498POPC   C3B52773   2.958  40.099   7.050
 8498POPC   C4B52774   2.947  40.100   7.350
 8499POPC   NC352775  12.053  29.966   5.550
 8499POPC   PO452776  12.100  29.961   5.850
 8499POPC   GL152777  12.061  29.907   6.150
 8499POPC   GL252778  11.972  29.934   6.150
 8499POPC   C1A52779  12.086  29.898   6.450
 8499POPC   D2A52780  12.101  29.914   6.750
 8499POPC   C3A52781  12.093  29.930   7.050
 8499POPC   C4A52782  12.086  29.952   7.350
 8499POPC   C1B52783  11.837  29.869   6.450
 8499POPC   C2B52784  11.832  29.890   6.750
 8499POPC   C3B52785  11.813  29.860   7.050
 8499POPC   C4B52786  11.854  29.872   7.350
 8500POPC   NC352787   0.472  29.160   5.550
 8500POPC   PO452788   0.458  29.115   5.850
 8500POPC   GL152789   0.444  29.150   6.150
 8500POPC   GL252790   0.279  29.173   6.150
 8500POPC   C1A52791   0.453  29.180   6.450
 8500POPC   D2A52792   0.453  29.147   6.750
 8500POPC   C3A52793   0.442  29.107   7.050
 8500POPC   C4A52794   0.434  29.174   7.350
 8500POPC   C1B52795   0.151  29.139   6.450
 8500POPC   C2B52796   0.168  29.146   6.750
 8500POPC   C3B52797   0.156  29.197   7.050
 8500POPC   C4B52798   0.187  29.185   7.350
 8501POPC   NC352799   1.208  26.051   5.550
 8501POPC   PO452800   1.216  26.020   5.850
 8501POPC   GL152801   1.169  26.059   6.150
 8501POPC   GL252802   1.307  26.004   6.150
 8501POPC   C1A52803   1.175  26.056   6.450
 8501POPC   D2A52804   1.254  26.042   6.750
 8501POPC   C3A52805   1.220  26.025   7.050
 8501POPC   C4A52806   1.237  25.995   7.350
 8501POPC   C1B52807   1.496  26.020   6.450
 8501POPC   C2B52808   1.470  26.018   6.750
 8501POPC   C3B52809   1.427  25.936   7.050
 8501POPC   C4B52810   1.424  26.024   7.350
 8502POPC   NC352811   5.051  29.915   5.550
 8502POPC   PO452812   5.123  29.969   5.850
 8502POPC   GL152813   5.104  29.886   6.150
 8502POPC   GL252814   5.121  29.788   6.150
 8502POPC   C1A52815   5.109  29.916   6.450
 8502POPC   D2A52816   5.043  29.944   6.750
 8502POPC   C3A52817   5.120  29.924   7.050
 8502POPC   C4A52818   5.123  29.929   7.350
 8502POPC   C1B52819   5.111  29.725   6.450
 8502POPC   C2B52820   5.168  29.718   6.750
 8502POPC   C3B52821   5.146  29.641   7.050
 8502POPC   C4B52822   5.113  29.700   7.350
 8503POPC   NC352823  33.797  27.636   5.550
 8503POPC   PO452824  33.810  27.603   5.850
 8503POPC   GL152825  33.835  27.587   6.150
 8503POPC   GL252826  33.907  27.714   6.150
 8503POPC   C1A52827  33.804  27.560   6.450
 8503POPC   D2A52828  33.779  27.571   6.750
 8503POPC   C3A52829  33.779  27.628   7.050
 8503POPC   C4A52830  33.781  27.589   7.350
 8503POPC   C1B52831  33.941  27.826   6.450
 8503POPC   C2B52832  34.004  27.757   6.750
 8503POPC   C3B52833  33.989  27.811   7.050
 8503POPC   C4B52834  33.986  27.792   7.350
 8504POPC   NC352835  43.114   3.505   5.550
 8504POPC   PO452836  43.061   3.582   5.850
 8504POPC   GL152837  43.083   3.558   6.150
 8504POPC   GL252838  43.012   3.588   6.150
 8504POPC   C1A52839  43.148   3.498   6.450
 8504POPC   D2A52840  43.130   3.525   6.750
 8504POPC   C3A52841  43.087   3.529   7.050
 8504POPC   C4A52842  43.152   3.526   7.350
 8504POPC   C1B52843  42.833   3.535   6.450
 8504POPC   C2B52844  42.820   3.562   6.750
 8504POPC   C3B52845  42.814   3.567   7.050
 8504POPC   C4B52846  42.858   3.509   7.350
 8505POPC   NC352847  33.007  40.802   5.550
 8505POPC   PO452848  32.996  40.778   5.850
 8505POPC   GL152849  32.990  40.749   6.150
 8505POPC   GL252850  33.119  40.697   6.150
 8505POPC   C1A52851  33.015  40.742   6.450
 8505POPC   D2A52852  33.071  40.808   6.750
 8505POPC   C3A52853  32.976  40.786   7.050
 8505POPC   C4A52854  33.009  40.786   7.350
 8505POPC   C1B52855  33.246  40.702   6.450
 8505POPC   C2B52856  33.214  40.644   6.750
 8505POPC   C3B52857  33.265  40.646   7.050
 8505POPC   C4B52858  33.204  40.665   7.350
 8506POPC   NC352859  15.193  40.055   5.550
 8506POPC   PO452860  15.218  39.992   5.850
 8506POPC   GL152861  15.148  40.003   6.150
 8506POPC   GL252862  15.324  40.029   6.150
 8506POPC   C1A52863  15.146  39.995   6.450
 8506POPC   D2A52864  15.204  39.960   6.750
 8506POPC   C3A52865  15.212  39.976   7.050
 8506POPC   C4A52866  15.176  39.959   7.350
 8506POPC   C1B52867  15.401  40.004   6.450
 8506POPC   C2B52868  15.462  40.019   6.750
 8506POPC   C3B52869  15.423  39.999   7.050
 8506POPC   C4B52870  15.406  40.016   7.350
 8507POPC   NC352871  27.633  15.993   5.550
 8507POPC   PO452872  27.618  15.993   5.850
 8507POPC   GL152873  27.638  15.977   6.150
 8507POPC   GL252874  27.724  16.037   6.150
 8507POPC   C1A52875  27.570  15.913   6.450
 8507POPC   D2A52876  27.636  15.960   6.750
 8507POPC   C3A52877  27.572  15.951   7.050
 8507POPC   C4A52878  27.641  15.936   7.350
 8507POPC   C1B52879  27.803  15.984   6.450
 8507POPC   C2B52880  27.844  16.049   6.750
 8507POPC   C3B52881  27.865  16.062   7.050
 8507POPC   C4B52882  27.844  16.076   7.350
 8508POPC   NC352883  10.514  32.274   5.550
 8508POPC   PO452884  10.547  32.223   5.850
 8508POPC   GL152885  10.565  32.203   6.150
 8508POPC   GL252886  10.652  32.173   6.150
 8508POPC   C1A52887  10.532  32.277   6.450
 8508POPC   D2A52888  10.502  32.238   6.750
 8508POPC   C3A52889  10.521  32.284   7.050
 8508POPC   C4A52890  10.550  32.264   7.350
 8508POPC   C1B52891  10.676  32.074   6.450
 8508POPC   C2B52892  10.687  32.105   6.750
 8508POPC   C3B52893  10.751  32.123   7.050
 8508POPC   C4B52894  10.761  32.068   7.350
 8509POPC   NC352895  25.246  20.619   5.550
 8509POPC   PO452896  25.271  20.604   5.850
 8509POPC   GL152897  25.312  20.578   6.150
 8509POPC   GL252898  25.421  20.605   6.150
 8509POPC   C1A52899  25.234  20.617   6.450
 8509POPC   D2A52900  25.249  20.660   6.750
 8509POPC   C3A52901  25.281  20.567   7.050
 8509POPC   C4A52902  25.258  20.573   7.350
 8509POPC   C1B52903  25.459  20.545   6.450
 8509POPC   C2B52904  25.546  20.566   6.750
 8509POPC   C3B52905  25.509  20.602   7.050
 8509POPC   C4B52906  25.549  20.573   7.350
 8510POPC   NC352907  33.043  36.922   5.550
 8510POPC   PO452908  33.066  36.944   5.850
 8510POPC   GL152909  33.014  36.870   6.150
 8510POPC   GL252910  33.135  36.890   6.150
 8510POPC   C1A52911  33.004  36.929   6.450
 8510POPC   D2A52912  33.029  36.917   6.750
 8510POPC   C3A52913  33.013  36.923   7.050
 8510POPC   C4A52914  33.045  36.857   7.350
 8510POPC   C1B52915  33.268  36.816   6.450
 8510POPC   C2B52916  33.226  36.813   6.750
 8510POPC   C3B52917  33.264  36.788   7.050
 8510POPC   C4B52918  33.278  36.841   7.350
 8511POPC   NC352919   5.863  37.694   5.550
 8511POPC   PO452920   5.831  37.676   5.850
 8511POPC   GL152921   5.827  37.630   6.150
 8511POPC   GL252922   5.880  37.551   6.150
 8511POPC   C1A52923   5.871  37.679   6.450
 8511POPC   D2A52924   5.834  37.648   6.750
 8511POPC   C3A52925   5.873  37.683   7.050
 8511POPC   C4A52926   5.875  37.632   7.350
 8511POPC   C1B52927   5.822  37.427   6.450
 8511POPC   C2B52928   5.753  37.426   6.750
 8511POPC   C3B52929   5.847  37.452   7.050
 8511POPC   C4B52930   5.842  37.480   7.350
 8512POPC   NC352931   0.456  40.821   5.550
 8512POPC   PO452932   0.388  40.819   5.850
 8512POPC   GL152933   0.403  40.817   6.150
 8512POPC   GL252934   0.499  40.860   6.150
 8512POPC   C1A52935   0.426  40.773   6.450
 8512POPC   D2A52936   0.452  40.770   6.750
 8512POPC   C3A52937   0.449  40.764   7.050
 8512POPC   C4A52938   0.395  40.770   7.350
 8512POPC   C1B52939   0.581  41.028   6.450
 8512POPC   C2B52940   0.578  40.987   6.750
 8512POPC   C3B52941   0.602  41.033   7.050
 8512POPC   C4B52942   0.619  40.947   7.350
 8513POPC   NC352943  25.992   2.723   5.550
 8513POPC   PO452944  26.058   2.749   5.850
 8513POPC   GL152945  26.009   2.768   6.150
 8513POPC   GL252946  26.134   2.838   6.150
 8513POPC   C1A52947  26.059   2.764   6.450
 8513POPC   D2A52948  26.084   2.755   6.750
 8513POPC   C3A52949  26.064   2.720   7.050
 8513POPC   C4A52950  26.001   2.796   7.350
 8513POPC   C1B52951  26.244   2.946   6.450
 8513POPC   C2B52952  26.275   2.901   6.750
 8513POPC   C3B52953  26.216   2.945   7.050
 8513POPC   C4B52954  26.265   2.959   7.350
 8514POPC   NC352955  26.000   3.565   5.550
 8514POPC   PO452956  26.011   3.573   5.850
 8514POPC   GL152957  26.059   3.525   6.150
 8514POPC   GL252958  26.187   3.555   6.150
 8514POPC   C1A52959  26.011   3.494   6.450
 8514POPC   D2A52960  26.074   3.562   6.750
 8514POPC   C3A52961  26.026   3.561   7.050
 8514POPC   C4A52962  25.992   3.513   7.350
 8514POPC   C1B52963  26.300   3.653   6.450
 8514POPC   C2B52964  26.234   3.573   6.750
 8514POPC   C3B52965  26.279   3.618   7.050
 8514POPC   C4B52966  26.278   3.661   7.350
 8515POPC   NC352967   0.455  20.646   5.550
 8515POPC   PO452968   0.411  20.604   5.850
 8515POPC   GL152969   0.402  20.594   6.150
 8515POPC   GL252970   0.395  20.489   6.150
 8515POPC   C1A52971   0.426  20.608   6.450
 8515POPC   D2A52972   0.449  20.642   6.750
 8515POPC   C3A52973   0.439  20.586   7.050
 8515POPC   C4A52974   0.394  20.580   7.350
 8515POPC   C1B52975   0.450  20.346   6.450
 8515POPC   C2B52976   0.408  20.399   6.750
 8515POPC   C3B52977   0.405  20.320   7.050
 8515POPC   C4B52978   0.414  20.331   7.350
 8516POPC   NC352979  22.177  21.405   5.550
 8516POPC   PO452980  22.165  21.430   5.850
 8516POPC   GL152981  22.206  21.398   6.150
 8516POPC   GL252982  22.284  21.328   6.150
 8516POPC   C1A52983  22.205  21.376   6.450
 8516POPC   D2A52984  22.196  21.395   6.750
 8516POPC   C3A52985  22.205  21.391   7.050
 8516POPC   C4A52986  22.156  21.343   7.350
 8516POPC   C1B52987  22.335  21.186   6.450
 8516POPC   C2B52988  22.333  21.202   6.750
 8516POPC   C3B52989  22.329  21.162   7.050
 8516POPC   C4B52990  22.369  21.240   7.350
 8517POPC   NC352991   7.460  16.731   5.550
 8517POPC   PO452992   7.417  16.731   5.850
 8517POPC   GL152993   7.457  16.714   6.150
 8517POPC   GL252994   7.592  16.671   6.150
 8517POPC   C1A52995   7.408  16.705   6.450
 8517POPC   D2A52996   7.459  16.735   6.750
 8517POPC   C3A52997   7.440  16.752   7.050
 8517POPC   C4A52998   7.392  16.719   7.350
 8517POPC   C1B52999   7.660  16.676   6.450
 8517POPC   C2B53000   7.638  16.672   6.750
 8517POPC   C3B53001   7.649  16.646   7.050
 8517POPC   C4B53002   7.619  16.651   7.350
 8518POPC   NC353003  10.555  15.151   5.550
 8518POPC   PO453004  10.561  15.146   5.850
 8518POPC   GL153005  10.529  15.207   6.150
 8518POPC   GL253006  10.420  15.302   6.150
 8518POPC   C1A53007  10.486  15.205   6.450
 8518POPC   D2A53008  10.527  15.152   6.750
 8518POPC   C3A53009  10.544  15.168   7.050
 8518POPC   C4A53010  10.535  15.220   7.350
 8518POPC   C1B53011  10.399  15.428   6.450
 8518POPC   C2B53012  10.367  15.428   6.750
 8518POPC   C3B53013  10.362  15.392   7.050
 8518POPC   C4B53014  10.404  15.406   7.350
 8519POPC   NC353015  38.442  38.479   5.550
 8519POPC   PO453016  38.424  38.427   5.850
 8519POPC   GL153017  38.427  38.411   6.150
 8519POPC   GL253018  38.470  38.546   6.150
 8519POPC   C1A53019  38.455  38.498   6.450
 8519POPC   D2A53020  38.450  38.473   6.750
 8519POPC   C3A53021  38.492  38.407   7.050
 8519POPC   C4A53022  38.414  38.414   7.350
 8519POPC   C1B53023  38.537  38.704   6.450
 8519POPC   C2B53024  38.497  38.644   6.750
 8519POPC   C3B53025  38.508  38.738   7.050
 8519POPC   C4B53026  38.574  38.703   7.350
 8520POPC   NC353027  44.620  10.547   5.550
 8520POPC   PO453028  44.686  10.516   5.850
 8520POPC   GL153029  44.680  10.566   6.150
 8520POPC   GL253030  44.764  10.597   6.150
 8520POPC   C1A53031  44.617  10.560   6.450
 8520POPC   D2A53032  44.667  10.561   6.750
 8520POPC   C3A53033  44.613  10.500   7.050
 8520POPC   C4A53034  44.689  10.505   7.350
 8520POPC   C1B53035  44.803  10.760   6.450
 8520POPC   C2B53036  44.818  10.710   6.750
 8520POPC   C3B53037  44.750  10.713   7.050
 8520POPC   C4B53038  44.783  10.696   7.350
 8521POPC   NC353039  28.326   4.356   5.550
 8521POPC   PO453040  28.387   4.290   5.850
 8521POPC   GL153041  28.351   4.288   6.150
 8521POPC   GL253042  28.290   4.230   6.150
 8521POPC   C1A53043  28.371   4.356   6.450
 8521POPC   D2A53044  28.330   4.276   6.750
 8521POPC   C3A53045  28.378   4.295   7.050
 8521POPC   C4A53046  28.352   4.332   7.350
 8521POPC   C1B53047  28.173   4.119   6.450
 8521POPC   C2B53048  28.209   4.096   6.750
 8521POPC   C3B53049  28.175   4.095   7.050
 8521POPC   C4B53050  28.236   4.134   7.350
 8522POPC   NC353051  12.042  26.030   5.550
 8522POPC   PO453052  12.071  26.023   5.850
 8522POPC   GL153053  12.056  26.030   6.150
 8522POPC   GL253054  12.151  26.060   6.150
 8522POPC   C1A53055  12.050  26.031   6.450
 8522POPC   D2A53056  12.122  26.082   6.750
 8522POPC   C3A53057  12.106  26.084   7.050
 8522POPC   C4A53058  12.057  26.041   7.350
 8522POPC   C1B53059  12.272  26.096   6.450
 8522POPC   C2B53060  12.289  26.086   6.750
 8522POPC   C3B53061  12.291  26.085   7.050
 8522POPC   C4B53062  12.321  26.081   7.350
 8523POPC   NC353063  12.900  16.748   5.550
 8523POPC   PO453064  12.809  16.747   5.850
 8523POPC   GL153065  12.810  16.737   6.150
 8523POPC   GL253066  12.771  16.702   6.150
 8523POPC   C1A53067  12.810  16.741   6.450
 8523POPC   D2A53068  12.862  16.715   6.750
 8523POPC   C3A53069  12.874  16.758   7.050
 8523POPC   C4A53070  12.844  16.777   7.350
 8523POPC   C1B53071  12.563  16.758   6.450
 8523POPC   C2B53072  12.639  16.728   6.750
 8523POPC   C3B53073  12.596  16.704   7.050
 8523POPC   C4B53074  12.639  16.675   7.350
 8524POPC   NC353075   4.317  33.762   5.550
 8524POPC   PO453076   4.337  33.845   5.850
 8524POPC   GL153077   4.272  33.764   6.150
 8524POPC   GL253078   4.450  33.770   6.150
 8524POPC   C1A53079   4.354  33.793   6.450
 8524POPC   D2A53080   4.356  33.782   6.750
 8524POPC   C3A53081   4.313  33.813   7.050
 8524POPC   C4A53082   4.295  33.844   7.350
 8524POPC   C1B53083   4.551  33.800   6.450
 8524POPC   C2B53084   4.559  33.768   6.750
 8524POPC   C3B53085   4.570  33.802   7.050
 8524POPC   C4B53086   4.605  33.760   7.350
 8525POPC   NC353087   8.242  23.729   5.550
 8525POPC   PO453088   8.152  23.674   5.850
 8525POPC   GL153089   8.163  23.751   6.150
 8525POPC   GL253090   8.254  23.844   6.150
 8525POPC   C1A53091   8.154  23.687   6.450
 8525POPC   D2A53092   8.191  23.704   6.750
 8525POPC   C3A53093   8.185  23.664   7.050
 8525POPC   C4A53094   8.159  23.754   7.350
 8525POPC   C1B53095   8.395  23.873   6.450
 8525POPC   C2B53096   8.383  23.958   6.750
 8525POPC   C3B53097   8.400  23.864   7.050
 8525POPC   C4B53098   8.356  23.919   7.350
 8526POPC   NC353099  26.026  19.106   5.550
 8526POPC   PO453100  25.995  19.045   5.850
 8526POPC   GL153101  26.080  19.038   6.150
 8526POPC   GL253102  25.924  19.053   6.150
 8526POPC   C1A53103  26.035  19.092   6.450
 8526POPC   D2A53104  26.076  19.102   6.750
 8526POPC   C3A53105  26.070  19.053   7.050
 8526POPC   C4A53106  26.000  19.107   7.350
 8526POPC   C1B53107  25.756  18.978   6.450
 8526POPC   C2B53108  25.796  18.976   6.750
 8526POPC   C3B53109  25.792  19.017   7.050
 8526POPC   C4B53110  25.838  19.037   7.350
 8527POPC   NC353111  15.916   5.821   5.550
 8527POPC   PO453112  15.935   5.884   5.850
 8527POPC   GL153113  15.950   5.831   6.150
 8527POPC   GL253114  16.084   5.961   6.150
 8527POPC   C1A53115  15.907   5.829   6.450
 8527POPC   D2A53116  15.931   5.874   6.750
 8527POPC   C3A53117  15.994   5.822   7.050
 8527POPC   C4A53118  15.991   5.833   7.350
 8527POPC   C1B53119  16.121   6.065   6.450
 8527POPC   C2B53120  16.104   6.067   6.750
 8527POPC   C3B53121  16.145   6.049   7.050
 8527POPC   C4B53122  16.126   6.082   7.350
 8528POPC   NC353123  33.045  13.608   5.550
 8528POPC   PO453124  33.067  13.676   5.850
 8528POPC   GL153125  33.014  13.631   6.150
 8528POPC   GL253126  33.113  13.633   6.150
 8528POPC   C1A53127  32.989  13.674   6.450
 8528POPC   D2A53128  33.017  13.658   6.750
 8528POPC   C3A53129  33.034  13.593   7.050
 8528POPC   C4A53130  33.061  13.617   7.350
 8528POPC   C1B53131  33.264  13.739   6.450
 8528POPC   C2B53132  33.234  13.669   6.750
 8528POPC   C3B53133  33.244  13.751   7.050
 8528POPC   C4B53134  33.245  13.746   7.350
 8529POPC   NC353135  23.727  31.520   5.550
 8529POPC   PO453136  23.725  31.445   5.850
 8529POPC   GL153137  23.753  31.430   6.150
 8529POPC   GL253138  23.775  31.332   6.150
 8529POPC   C1A53139  23.758  31.452   6.450
 8529POPC   D2A53140  23.743  31.441   6.750
 8529POPC   C3A53141  23.689  31.494   7.050
 8529POPC   C4A53142  23.690  31.509   7.350
 8529POPC   C1B53143  23.772  31.190   6.450
 8529POPC   C2B53144  23.810  31.219   6.750
 8529POPC   C3B53145  23.784  31.213   7.050
 8529POPC   C4B53146  23.783  31.278   7.350
 8530POPC   NC353147  28.320  42.344   5.550
 8530POPC   PO453148  28.347  42.356   5.850
 8530POPC   GL153149  28.395  42.367   6.150
 8530POPC   GL253150  28.219  42.286   6.150
 8530POPC   C1A53151  28.413  42.353   6.450
 8530POPC   D2A53152  28.361  42.311   6.750
 8530POPC   C3A53153  28.348  42.291   7.050
 8530POPC   C4A53154  28.351  42.299   7.350
 8530POPC   C1B53155  28.146  42.273   6.450
 8530POPC   C2B53156  28.116  42.334   6.750
 8530POPC   C3B53157  28.098  42.341   7.050
 8530POPC   C4B53158  28.114  42.325   7.350
 8531POPC   NC353159  30.732  42.343   5.550
 8531POPC   PO453160  30.685  42.354   5.850
 8531POPC   GL153161  30.746  42.289   6.150
 8531POPC   GL253162  30.585  42.373   6.150
 8531POPC   C1A53163  30.701  42.297   6.450
 8531POPC   D2A53164  30.726  42.358   6.750
 8531POPC   C3A53165  30.744  42.372   7.050
 8531POPC   C4A53166  30.744  42.349   7.350
 8531POPC   C1B53167  30.475  42.523   6.450
 8531POPC   C2B53168  30.529  42.516   6.750
 8531POPC   C3B53169  30.453  42.498   7.050
 8531POPC   C4B53170  30.458  42.523   7.350
 8532POPC   NC353171   4.329  25.258   5.550
 8532POPC   PO453172   4.330  25.242   5.850
 8532POPC   GL153173   4.277  25.249   6.150
 8532POPC   GL253174   4.280  25.373   6.150
 8532POPC   C1A53175   4.305  25.267   6.450
 8532POPC   D2A53176   4.358  25.222   6.750
 8532POPC   C3A53177   4.285  25.267   7.050
 8532POPC   C4A53178   4.354  25.232   7.350
 8532POPC   C1B53179   4.204  25.513   6.450
 8532POPC   C2B53180   4.207  25.502   6.750
 8532POPC   C3B53181   4.272  25.463   7.050
 8532POPC   C4B53182   4.224  25.504   7.350
 8533POPC   NC353183  20.640  36.951   5.550
 8533POPC   PO453184  20.653  36.943   5.850
 8533POPC   GL153185  20.633  36.943   6.150
 8533POPC   GL253186  20.538  37.046   6.150
 8533POPC   C1A53187  20.629  36.941   6.450
 8533POPC   D2A53188  20.574  36.861   6.750
 8533POPC   C3A53189  20.576  36.896   7.050
 8533POPC   C4A53190  20.580  36.891   7.350
 8533POPC   C1B53191  20.541  37.172   6.450
 8533POPC   C2B53192  20.531  37.177   6.750
 8533POPC   C3B53193  20.531  37.131   7.050
 8533POPC   C4B53194  20.504  37.148   7.350
 8534POPC   NC353195  36.939  43.884   5.550
 8534POPC   PO453196  36.939  43.918   5.850
 8534POPC   GL153197  36.942  43.893   6.150
 8534POPC   GL253198  36.930  44.034   6.150
 8534POPC   C1A53199  36.928  43.914   6.450
 8534POPC   D2A53200  36.934  43.908   6.750
 8534POPC   C3A53201  36.939  43.912   7.050
 8534POPC   C4A53202  36.874  43.859   7.350
 8534POPC   C1B53203  37.010  44.081   6.450
 8534POPC   C2B53204  36.986  44.101   6.750
 8534POPC   C3B53205  36.961  44.158   7.050
 8534POPC   C4B53206  36.981  44.135   7.350
 8535POPC   NC353207  36.893   1.164   5.550
 8535POPC   PO453208  36.871   1.186   5.850
 8535POPC   GL153209  36.888   1.191   6.150
 8535POPC   GL253210  37.012   1.232   6.150
 8535POPC   C1A53211  36.909   1.196   6.450
 8535POPC   D2A53212  36.853   1.170   6.750
 8535POPC   C3A53213  36.938   1.220   7.050
 8535POPC   C4A53214  36.933   1.219   7.350
 8535POPC   C1B53215  37.184   1.143   6.450
 8535POPC   C2B53216  37.178   1.179   6.750
 8535POPC   C3B53217  37.129   1.207   7.050
 8535POPC   C4B53218  37.130   1.201   7.350
 8536POPC   NC353219  22.186  23.759   5.550
 8536POPC   PO453220  22.203  23.678   5.850
 8536POPC   GL153221  22.132  23.694   6.150
 8536POPC   GL253222  22.243  23.570   6.150
 8536POPC   C1A53223  22.205  23.763   6.450
 8536POPC   D2A53224  22.196  23.749   6.750
 8536POPC   C3A53225  22.154  23.705   7.050
 8536POPC   C4A53226  22.133  23.755   7.350
 8536POPC   C1B53227  22.269  23.463   6.450
 8536POPC   C2B53228  22.301  23.491   6.750
 8536POPC   C3B53229  22.253  23.551   7.050
 8536POPC   C4B53230  22.306  23.523   7.350
 8537POPC   NC353231  29.968  37.705   5.550
 8537POPC   PO453232  29.929  37.727   5.850
 8537POPC   GL153233  29.934  37.721   6.150
 8537POPC   GL253234  30.022  37.655   6.150
 8537POPC   C1A53235  29.871  37.698   6.450
 8537POPC   D2A53236  29.956  37.704   6.750
 8537POPC   C3A53237  29.906  37.649   7.050
 8537POPC   C4A53238  29.956  37.721   7.350
 8537POPC   C1B53239  30.160  37.607   6.450
 8537POPC   C2B53240  30.158  37.532   6.750
 8537POPC   C3B53241  30.114  37.604   7.050
 8537POPC   C4B53242  30.111  37.592   7.350
 8538POPC   NC353243  40.774  19.101   5.550
 8538POPC   PO453244  40.812  19.026   5.850
 8538POPC   GL153245  40.808  19.090   6.150
 8538POPC   GL253246  40.648  18.986   6.150
 8538POPC   C1A53247  40.766  19.017   6.450
 8538POPC   D2A53248  40.780  19.079   6.750
 8538POPC   C3A53249  40.804  19.021   7.050
 8538POPC   C4A53250  40.817  19.090   7.350
 8538POPC   C1B53251  40.583  18.954   6.450
 8538POPC   C2B53252  40.530  18.864   6.750
 8538POPC   C3B53253  40.550  18.912   7.050
 8538POPC   C4B53254  40.597  18.910   7.350
 8539POPC   NC353255  12.898   1.181   5.550
 8539POPC   PO453256  12.836   1.214   5.850
 8539POPC   GL153257  12.888   1.220   6.150
 8539POPC   GL253258  12.980   1.240   6.150
 8539POPC   C1A53259  12.855   1.233   6.450
 8539POPC   D2A53260  12.833   1.231   6.750
 8539POPC   C3A53261  12.832   1.179   7.050
 8539POPC   C4A53262  12.802   1.171   7.350
 8539POPC   C1B53263  13.088   1.319   6.450
 8539POPC   C2B53264  13.036   1.278   6.750
 8539POPC   C3B53265  13.046   1.306   7.050
 8539POPC   C4B53266  13.101   1.346   7.350
 8540POPC   NC353267  29.913  10.534   5.550
 8540POPC   PO453268  29.950  10.538   5.850
 8540POPC   GL153269  29.961  10.512   6.150
 8540POPC   GL253270  29.932  10.449   6.150
 8540POPC   C1A53271  29.961  10.505   6.450
 8540POPC   D2A53272  29.895  10.567   6.750
 8540POPC   C3A53273  29.941  10.544   7.050
 8540POPC   C4A53274  29.878  10.563   7.350
 8540POPC   C1B53275  29.871  10.245   6.450
 8540POPC   C2B53276  29.882  10.293   6.750
 8540POPC   C3B53277  29.896  10.230   7.050
 8540POPC   C4B53278  29.875  10.299   7.350
 8541POPC   NC353279  10.574  19.884   5.550
 8541POPC   PO453280  10.496  19.786   5.850
 8541POPC   GL153281  10.566  19.863   6.150
 8541POPC   GL253282  10.406  19.846   6.150
 8541POPC   C1A53283  10.533  19.832   6.450
 8541POPC   D2A53284  10.507  19.804   6.750
 8541POPC   C3A53285  10.498  19.789   7.050
 8541POPC   C4A53286  10.505  19.793   7.350
 8541POPC   C1B53287  10.257  19.926   6.450
 8541POPC   C2B53288  10.263  19.869   6.750
 8541POPC   C3B53289  10.284  19.876   7.050
 8541POPC   C4B53290  10.306  19.935   7.350
 8542POPC   NC353291  33.756  21.417   5.550
 8542POPC   PO453292  33.770  21.360   5.850
 8542POPC   GL153293  33.816  21.389   6.150
 8542POPC   GL253294  33.914  21.318   6.150
 8542POPC   C1A53295  33.835  21.354   6.450
 8542POPC   D2A53296  33.825  21.425   6.750
 8542POPC   C3A53297  33.773  21.392   7.050
 8542POPC   C4A53298  33.789  21.379   7.350
 8542POPC   C1B53299  33.951  21.185   6.450
 8542POPC   C2B53300  33.959  21.213   6.750
 8542POPC   C3B53301  33.973  21.170   7.050
 8542POPC   C4B53302  33.965  21.203   7.350
 8543POPC   NC353303  26.063  23.728   5.550
 8543POPC   PO453304  26.080  23.757   5.850
 8543POPC   GL153305  26.063  23.687   6.150
 8543POPC   GL253306  26.031  23.574   6.150
 8543POPC   C1A53307  26.002  23.746   6.450
 8543POPC   D2A53308  26.054  23.682   6.750
 8543POPC   C3A53309  26.066  23.739   7.050
 8543POPC   C4A53310  26.081  23.692   7.350
 8543POPC   C1B53311  25.891  23.469   6.450
 8543POPC   C2B53312  25.951  23.510   6.750
 8543POPC   C3B53313  25.920  23.522   7.050
 8543POPC   C4B53314  25.962  23.533   7.350
 8544POPC   NC353315  11.299  41.551   5.550
 8544POPC   PO453316  11.337  41.534   5.850
 8544POPC   GL153317  11.311  41.580   6.150
 8544POPC   GL253318  11.357  41.483   6.150
 8544POPC   C1A53319  11.252  41.535   6.450
 8544POPC   D2A53320  11.332  41.526   6.750
 8544POPC   C3A53321  11.334  41.515   7.050
 8544POPC   C4A53322  11.308  41.558   7.350
 8544POPC   C1B53323  11.314  41.278   6.450
 8544POPC   C2B53324  11.372  41.334   6.750
 8544POPC   C3B53325  11.380  41.264   7.050
 8544POPC   C4B53326  11.321  41.338   7.350
 8545POPC   NC353327  36.089  27.582   5.550
 8545POPC   PO453328  36.170  27.549   5.850
 8545POPC   GL153329  36.140  27.554   6.150
 8545POPC   GL253330  36.240  27.520   6.150
 8545POPC   C1A53331  36.109  27.603   6.450
 8545POPC   D2A53332  36.115  27.614   6.750
 8545POPC   C3A53333  36.090  27.633   7.050
 8545POPC   C4A53334  36.162  27.610   7.350
 8545POPC   C1B53335  36.339  27.507   6.450
 8545POPC   C2B53336  36.321  27.502   6.750
 8545POPC   C3B53337  36.359  27.459   7.050
 8545POPC   C4B53338  36.371  27.488   7.350
 8546POPC   NC353339  42.339  14.388   5.550
 8546POPC   PO453340  42.365  14.451   5.850
 8546POPC   GL153341  42.307  14.452   6.150
 8546POPC   GL253342  42.369  14.260   6.150
 8546POPC   C1A53343  42.382  14.417   6.450
 8546POPC   D2A53344  42.296  14.438   6.750
 8546POPC   C3A53345  42.334  14.418   7.050
 8546POPC   C4A53346  42.286  14.453   7.350
 8546POPC   C1B53347  42.473  14.190   6.450
 8546POPC   C2B53348  42.527  14.257   6.750
 8546POPC   C3B53349  42.465  14.234   7.050
 8546POPC   C4B53350  42.527  14.235   7.350
 8547POPC   NC353351  15.181  33.012   5.550
 8547POPC   PO453352  15.173  33.020   5.850
 8547POPC   GL153353  15.181  32.975   6.150
 8547POPC   GL253354  15.084  33.032   6.150
 8547POPC   C1A53355  15.178  33.033   6.450
 8547POPC   D2A53356  15.173  33.019   6.750
 8547POPC   C3A53357  15.227  32.990   7.050
 8547POPC   C4A53358  15.133  33.072   7.350
 8547POPC   C1B53359  14.927  32.903   6.450
 8547POPC   C2B53360  14.959  32.948   6.750
 8547POPC   C3B53361  14.892  32.905   7.050
 8547POPC   C4B53362  14.970  32.922   7.350
 8548POPC   NC353363  44.623  33.052   5.550
 8548POPC   PO453364  44.628  33.065   5.850
 8548POPC   GL153365  44.652  32.984   6.150
 8548POPC   GL253366  44.819  33.015   6.150
 8548POPC   C1A53367  44.702  33.072   6.450
 8548POPC   D2A53368  44.626  33.061   6.750
 8548POPC   C3A53369  44.669  33.056   7.050
 8548POPC   C4A53370  44.679  33.050   7.350
 8548POPC   C1B53371  44.895  32.876   6.450
 8548POPC   C2B53372  44.853  32.899   6.750
 8548POPC   C3B53373  44.853  32.910   7.050
 8548POPC   C4B53374  44.875  32.968   7.350
 8549POPC   NC353375  29.894  22.122   5.550
 8549POPC   PO453376  29.960  22.200   5.850
 8549POPC   GL153377  29.897  22.120   6.150
 8549POPC   GL253378  29.908  22.239   6.150
 8549POPC   C1A53379  29.948  22.143   6.450
 8549POPC   D2A53380  29.923  22.184   6.750
 8549POPC   C3A53381  29.906  22.180   7.050
 8549POPC   C4A53382  29.951  22.202   7.350
 8549POPC   C1B53383  29.806  22.341   6.450
 8549POPC   C2B53384  29.792  22.421   6.750
 8549POPC   C3B53385  29.772  22.358   7.050
 8549POPC   C4B53386  29.843  22.412   7.350
 8550POPC   NC353387  17.502  43.159   5.550
 8550POPC   PO453388  17.498  43.096   5.850
 8550POPC   GL153389  17.521  43.154   6.150
 8550POPC   GL253390  17.508  42.960   6.150
 8550POPC   C1A53391  17.549  43.152   6.450
 8550POPC   D2A53392  17.481  43.069   6.750
 8550POPC   C3A53393  17.484  43.112   7.050
 8550POPC   C4A53394  17.528  43.125   7.350
 8550POPC   C1B53395  17.545  42.854   6.450
 8550POPC   C2B53396  17.487  42.881   6.750
 8550POPC   C3B53397  17.473  42.846   7.050
 8550POPC   C4B53398  17.520  42.836   7.350
 8551POPC   NC353399  22.932  37.663   5.550
 8551POPC   PO453400  22.936  37.698   5.850
 8551POPC   GL153401  22.909  37.661   6.150
 8551POPC   GL253402  23.035  37.564   6.150
 8551POPC   C1A53403  22.934  37.718   6.450
 8551POPC   D2A53404  22.892  37.690   6.750
 8551POPC   C3A53405  22.987  37.714   7.050
 8551POPC   C4A53406  22.927  37.724   7.350
 8551POPC   C1B53407  23.111  37.552   6.450
 8551POPC   C2B53408  23.174  37.562   6.750
 8551POPC   C3B53409  23.148  37.519   7.050
 8551POPC   C4B53410  23.108  37.505   7.350
 8552POPC   NC353411  14.386  35.398   5.550
 8552POPC   PO453412  14.382  35.312   5.850
 8552POPC   GL153413  14.428  35.319   6.150
 8552POPC   GL253414  14.290  35.278   6.150
 8552POPC   C1A53415  14.417  35.325   6.450
 8552POPC   D2A53416  14.373  35.351   6.750
 8552POPC   C3A53417  14.423  35.364   7.050
 8552POPC   C4A53418  14.398  35.387   7.350
 8552POPC   C1B53419  14.245  35.199   6.450
 8552POPC   C2B53420  14.164  35.196   6.750
 8552POPC   C3B53421  14.256  35.234   7.050
 8552POPC   C4B53422  14.168  35.219   7.350
 8553POPC   NC353423  36.874  43.158   5.550
 8553POPC   PO453424  36.875  43.117   5.850
 8553POPC   GL153425  36.855  43.078   6.150
 8553POPC   GL253426  36.865  42.972   6.150
 8553POPC   C1A53427  36.894  43.110   6.450
 8553POPC   D2A53428  36.953  43.080   6.750
 8553POPC   C3A53429  36.882  43.152   7.050
 8553POPC   C4A53430  36.874  43.082   7.350
 8553POPC   C1B53431  36.842  42.872   6.450
 8553POPC   C2B53432  36.874  42.910   6.750
 8553POPC   C3B53433  36.919  42.878   7.050
 8553POPC   C4B53434  36.907  42.882   7.350
 8554POPC   NC353435  11.257  38.453   5.550
 8554POPC   PO453436  11.316  38.451   5.850
 8554POPC   GL153437  11.251  38.420   6.150
 8554POPC   GL253438  11.355  38.565   6.150
 8554POPC   C1A53439  11.290  38.478   6.450
 8554POPC   D2A53440  11.268  38.504   6.750
 8554POPC   C3A53441  11.275  38.504   7.050
 8554POPC   C4A53442  11.289  38.481   7.350
 8554POPC   C1B53443  11.407  38.665   6.450
 8554POPC   C2B53444  11.466  38.608   6.750
 8554POPC   C3B53445  11.471  38.696   7.050
 8554POPC   C4B53446  11.419  38.613   7.350
 8555POPC   NC353447  23.734   8.187   5.550
 8555POPC   PO453448  23.734   8.191   5.850
 8555POPC   GL153449  23.703   8.193   6.150
 8555POPC   GL253450  23.639   8.075   6.150
 8555POPC   C1A53451  23.758   8.224   6.450
 8555POPC   D2A53452  23.709   8.199   6.750
 8555POPC   C3A53453  23.762   8.228   7.050
 8555POPC   C4A53454  23.762   8.149   7.350
 8555POPC   C1B53455  23.520   8.049   6.450
 8555POPC   C2B53456  23.497   7.990   6.750
 8555POPC   C3B53457  23.528   8.009   7.050
 8555POPC   C4B53458  23.515   8.059   7.350
 8556POPC   NC353459   8.232  11.337   5.550
 8556POPC   PO453460   8.214  11.265   5.850
 8556POPC   GL153461   8.191  11.310   6.150
 8556POPC   GL253462   8.037  11.323   6.150
 8556POPC   C1A53463   8.170  11.324   6.450
 8556POPC   D2A53464   8.165  11.293   6.750
 8556POPC   C3A53465   8.243  11.330   7.050
 8556POPC   C4A53466   8.235  11.258   7.350
 8556POPC   C1B53467   7.941  11.359   6.450
 8556POPC   C2B53468   7.898  11.274   6.750
 8556POPC   C3B53469   7.926  11.278   7.050
 8556POPC   C4B53470   7.899  11.370   7.350
 8557POPC   NC353471   4.333   4.358   5.550
 8557POPC   PO453472   4.293   4.351   5.850
 8557POPC   GL153473   4.324   4.350   6.150
 8557POPC   GL253474   4.437   4.261   6.150
 8557POPC   C1A53475   4.313   4.327   6.450
 8557POPC   D2A53476   4.344   4.277   6.750
 8557POPC   C3A53477   4.350   4.337   7.050
 8557POPC   C4A53478   4.353   4.276   7.350
 8557POPC   C1B53479   4.521   4.161   6.450
 8557POPC   C2B53480   4.551   4.148   6.750
 8557POPC   C3B53481   4.567   4.220   7.050
 8557POPC   C4B53482   4.562   4.142   7.350
 8558POPC   NC353483  26.018   9.001   5.550
 8558POPC   PO453484  26.020   8.960   5.850
 8558POPC   GL153485  26.062   8.982   6.150
 8558POPC   GL253486  26.112   9.063   6.150
 8558POPC   C1A53487  26.068   9.019   6.450
 8558POPC   D2A53488  26.013   8.936   6.750
 8558POPC   C3A53489  26.063   9.004   7.050
 8558POPC   C4A53490  26.042   8.966   7.350
 8558POPC   C1B53491  26.196   9.192   6.450
 8558POPC   C2B53492  26.140   9.149   6.750
 8558POPC   C3B53493  26.208   9.132   7.050
 8558POPC   C4B53494  26.215   9.138   7.350
 8559POPC   NC353495  15.934  44.621   5.550
 8559POPC   PO453496  15.988  44.630   5.850
 8559POPC   GL153497  15.986  44.682   6.150
 8559POPC   GL253498  15.865  44.577   6.150
 8559POPC   C1A53499  15.987  44.638   6.450
 8559POPC   D2A53500  15.913  44.619   6.750
 8559POPC   C3A53501  15.911  44.656   7.050
 8559POPC   C4A53502  15.993  44.627   7.350
 8559POPC   C1B53503  15.728  44.574   6.450
 8559POPC   C2B53504  15.709  44.545   6.750
 8559POPC   C3B53505  15.760  44.528   7.050
 8559POPC   C4B53506  15.758  44.510   7.350
 8560POPC   NC353507  21.435  16.737   5.550
 8560POPC   PO453508  21.419  16.765   5.850
 8560POPC   GL153509  21.406  16.743   6.150
 8560POPC   GL253510  21.368  16.862   6.150
 8560POPC   C1A53511  21.344  16.725   6.450
 8560POPC   D2A53512  21.417  16.766   6.750
 8560POPC   C3A53513  21.391  16.755   7.050
 8560POPC   C4A53514  21.376  16.774   7.350
 8560POPC   C1B53515  21.442  16.953   6.450
 8560POPC   C2B53516  21.412  17.025   6.750
 8560POPC   C3B53517  21.482  16.981   7.050
 8560POPC   C4B53518  21.411  16.929   7.350
 8561POPC   NC353519  39.967  43.129   5.550
 8561POPC   PO453520  40.007  43.117   5.850
 8561POPC   GL153521  40.055  43.077   6.150
 8561POPC   GL253522  39.908  43.108   6.150
 8561POPC   C1A53523  39.958  43.104   6.450
 8561POPC   D2A53524  40.038  43.112   6.750
 8561POPC   C3A53525  39.984  43.133   7.050
 8561POPC   C4A53526  40.017  43.095   7.350
 8561POPC   C1B53527  39.814  43.161   6.450
 8561POPC   C2B53528  39.737  43.160   6.750
 8561POPC   C3B53529  39.733  43.139   7.050
 8561POPC   C4B53530  39.797  43.210   7.350
 8562POPC   NC353531  32.251   2.033   5.550
 8562POPC   PO453532  32.242   1.989   5.850
 8562POPC   GL153533  32.244   1.985   6.150
 8562POPC   GL253534  32.201   1.866   6.150
 8562POPC   C1A53535  32.269   2.014   6.450
 8562POPC   D2A53536  32.259   1.957   6.750
 8562POPC   C3A53537  32.203   1.969   7.050
 8562POPC   C4A53538  32.239   2.039   7.350
 8562POPC   C1B53539  32.263   1.790   6.450
 8562POPC   C2B53540  32.246   1.740   6.750
 8562POPC   C3B53541  32.216   1.695   7.050
 8562POPC   C4B53542  32.224   1.731   7.350
 8563POPC   NC353543  43.896  20.613   5.550
 8563POPC   PO453544  43.872  20.635   5.850
 8563POPC   GL153545  43.931  20.579   6.150
 8563POPC   GL253546  43.883  20.689   6.150
 8563POPC   C1A53547  43.908  20.593   6.450
 8563POPC   D2A53548  43.882  20.634   6.750
 8563POPC   C3A53549  43.877  20.614   7.050
 8563POPC   C4A53550  43.921  20.634   7.350
 8563POPC   C1B53551  43.817  20.883   6.450
 8563POPC   C2B53552  43.859  20.806   6.750
 8563POPC   C3B53553  43.767  20.805   7.050
 8563POPC   C4B53554  43.859  20.865   7.350
 8564POPC   NC353555  31.429  33.836   5.550
 8564POPC   PO453556  31.520  33.810   5.850
 8564POPC   GL153557  31.489  33.838   6.150
 8564POPC   GL253558  31.325  33.871   6.150
 8564POPC   C1A53559  31.463  33.803   6.450
 8564POPC   D2A53560  31.509  33.848   6.750
 8564POPC   C3A53561  31.512  33.770   7.050
 8564POPC   C4A53562  31.444  33.832   7.350
 8564POPC   C1B53563  31.242  33.961   6.450
 8564POPC   C2B53564  31.207  33.964   6.750
 8564POPC   C3B53565  31.272  33.876   7.050
 8564POPC   C4B53566  31.223  33.950   7.350
 8565POPC   NC353567  33.844  33.810   5.550
 8565POPC   PO453568  33.777  33.848   5.850
 8565POPC   GL153569  33.776  33.753   6.150
 8565POPC   GL253570  33.957  33.847   6.150
 8565POPC   C1A53571  33.848  33.844   6.450
 8565POPC   D2A53572  33.814  33.759   6.750
 8565POPC   C3A53573  33.763  33.758   7.050
 8565POPC   C4A53574  33.761  33.776   7.350
 8565POPC   C1B53575  34.017  33.840   6.450
 8565POPC   C2B53576  34.003  33.829   6.750
 8565POPC   C3B53577  34.051  33.816   7.050
 8565POPC   C4B53578  34.085  33.860   7.350
 8566POPC   NC353579   5.897  17.491   5.550
 8566POPC   PO453580   5.840  17.520   5.850
 8566POPC   GL153581   5.916  17.482   6.150
 8566POPC   GL253582   5.911  17.655   6.150
 8566POPC   C1A53583   5.876  17.535   6.450
 8566POPC   D2A53584   5.912  17.554   6.750
 8566POPC   C3A53585   5.863  17.539   7.050
 8566POPC   C4A53586   5.868  17.474   7.350
 8566POPC   C1B53587   5.890  17.779   6.450
 8566POPC   C2B53588   5.926  17.731   6.750
 8566POPC   C3B53589   5.926  17.721   7.050
 8566POPC   C4B53590   5.943  17.714   7.350
 8567POPC   NC353591  25.310  27.637   5.550
 8567POPC   PO453592  25.290  27.633   5.850
 8567POPC   GL153593  25.297  27.562   6.150
 8567POPC   GL253594  25.147  27.496   6.150
 8567POPC   C1A53595  25.243  27.586   6.450
 8567POPC   D2A53596  25.236  27.561   6.750
 8567POPC   C3A53597  25.298  27.592   7.050
 8567POPC   C4A53598  25.243  27.601   7.350
 8567POPC   C1B53599  25.131  27.438   6.450
 8567POPC   C2B53600  25.121  27.442   6.750
 8567POPC   C3B53601  25.043  27.370   7.050
 8567POPC   C4B53602  25.101  27.432   7.350
 8568POPC   NC353603  29.879  17.552   5.550
 8568POPC   PO453604  29.882  17.528   5.850
 8568POPC   GL153605  29.915  17.537   6.150
 8568POPC   GL253606  30.038  17.568   6.150
 8568POPC   C1A53607  29.898  17.521   6.450
 8568POPC   D2A53608  29.898  17.490   6.750
 8568POPC   C3A53609  29.908  17.525   7.050
 8568POPC   C4A53610  29.899  17.459   7.350
 8568POPC   C1B53611  30.121  17.726   6.450
 8568POPC   C2B53612  30.031  17.669   6.750
 8568POPC   C3B53613  30.089  17.680   7.050
 8568POPC   C4B53614  30.081  17.730   7.350
 8569POPC   NC353615  27.586   4.363   5.550
 8569POPC   PO453616  27.616   4.324   5.850
 8569POPC   GL153617  27.638   4.303   6.150
 8569POPC   GL253618  27.442   4.269   6.150
 8569POPC   C1A53619  27.628   4.280   6.450
 8569POPC   D2A53620  27.581   4.315   6.750
 8569POPC   C3A53621  27.641   4.348   7.050
 8569POPC   C4A53622  27.599   4.298   7.350
 8569POPC   C1B53623  27.405   4.199   6.450
 8569POPC   C2B53624  27.409   4.162   6.750
 8569POPC   C3B53625  27.351   4.214   7.050
 8569POPC   C4B53626  27.408   4.173   7.350
 8570POPC   NC353627  43.100  16.684   5.550
 8570POPC   PO453628  43.125  16.703   5.850
 8570POPC   GL153629  43.081  16.728   6.150
 8570POPC   GL253630  42.984  16.831   6.150
 8570POPC   C1A53631  43.134  16.735   6.450
 8570POPC   D2A53632  43.147  16.693   6.750
 8570POPC   C3A53633  43.125  16.775   7.050
 8570POPC   C4A53634  43.076  16.709   7.350
 8570POPC   C1B53635  42.896  16.863   6.450
 8570POPC   C2B53636  42.965  16.843   6.750
 8570POPC   C3B53637  42.894  16.931   7.050
 8570POPC   C4B53638  42.908  16.859   7.350
 8571POPC   NC353639  32.222   5.123   5.550
 8571POPC   PO453640  32.251   5.124   5.850
 8571POPC   GL153641  32.278   5.065   6.150
 8571POPC   GL253642  32.302   5.222   6.150
 8571POPC   C1A53643  32.232   5.137   6.450
 8571POPC   D2A53644  32.251   5.069   6.750
 8571POPC   C3A53645  32.204   5.123   7.050
 8571POPC   C4A53646  32.233   5.062   7.350
 8571POPC   C1B53647  32.421   5.273   6.450
 8571POPC   C2B53648  32.340   5.339   6.750
 8571POPC   C3B53649  32.393   5.288   7.050
 8571POPC   C4B53650  32.417   5.257   7.350
 8572POPC   NC353651   1.227   1.199   5.550
 8572POPC   PO453652   1.208   1.242   5.850
 8572POPC   GL153653   1.173   1.246   6.150
 8572POPC   GL253654   1.263   1.327   6.150
 8572POPC   C1A53655   1.230   1.174   6.450
 8572POPC   D2A53656   1.209   1.198   6.750
 8572POPC   C3A53657   1.236   1.209   7.050
 8572POPC   C4A53658   1.171   1.263   7.350
 8572POPC   C1B53659   1.204   1.466   6.450
 8572POPC   C2B53660   1.256   1.455   6.750
 8572POPC   C3B53661   1.291   1.509   7.050
 8572POPC   C4B53662   1.296   1.483   7.350
 8573POPC   NC353663  12.842  33.047   5.550
 8573POPC   PO453664  12.804  33.060   5.850
 8573POPC   GL153665  12.810  32.983   6.150
 8573POPC   GL253666  12.851  33.092   6.150
 8573POPC   C1A53667  12.890  33.043   6.450
 8573POPC   D2A53668  12.809  33.011   6.750
 8573POPC   C3A53669  12.891  32.981   7.050
 8573POPC   C4A53670  12.897  33.003   7.350
 8573POPC   C1B53671  12.980  33.223   6.450
 8573POPC   C2B53672  12.941  33.252   6.750
 8573POPC   C3B53673  12.935  33.240   7.050
 8573POPC   C4B53674  12.917  33.212   7.350
 8574POPC   NC353675  14.389  43.083   5.550
 8574POPC   PO453676  14.407  43.082   5.850
 8574POPC   GL153677  14.449  43.121   6.150
 8574POPC   GL253678  14.357  43.196   6.150
 8574POPC   C1A53679  14.400  43.136   6.450
 8574POPC   D2A53680  14.376  43.103   6.750
 8574POPC   C3A53681  14.358  43.104   7.050
 8574POPC   C4A53682  14.355  43.090   7.350
 8574POPC   C1B53683  14.358  43.394   6.450
 8574POPC   C2B53684  14.373  43.326   6.750
 8574POPC   C3B53685  14.375  43.332   7.050
 8574POPC   C4B53686  14.395  43.362   7.350
 8575POPC   NC353687  12.066  30.677   5.550
 8575POPC   PO453688  12.042  30.728   5.850
 8575POPC   GL153689  12.067  30.687   6.150
 8575POPC   GL253690  12.141  30.724   6.150
 8575POPC   C1A53691  12.087  30.718   6.450
 8575POPC   D2A53692  12.104  30.648   6.750
 8575POPC   C3A53693  12.117  30.675   7.050
 8575POPC   C4A53694  12.036  30.700   7.350
 8575POPC   C1B53695  12.327  30.851   6.450
 8575POPC   C2B53696  12.257  30.832   6.750
 8575POPC   C3B53697  12.303  30.776   7.050
 8575POPC   C4B53698  12.263  30.833   7.350
 8576POPC   NC353699   7.432  17.550   5.550
 8576POPC   PO453700   7.395  17.469   5.850
 8576POPC   GL153701   7.401  17.478   6.150
 8576POPC   GL253702   7.460  17.585   6.150
 8576POPC   C1A53703   7.392  17.548   6.450
 8576POPC   D2A53704   7.380  17.486   6.750
 8576POPC   C3A53705   7.398  17.541   7.050
 8576POPC   C4A53706   7.376  17.481   7.350
 8576POPC   C1B53707   7.434  17.746   6.450
 8576POPC   C2B53708   7.476  17.745   6.750
 8576POPC   C3B53709   7.512  17.707   7.050
 8576POPC   C4B53710   7.501  17.763   7.350
 8577POPC   NC353711  33.800   2.798   5.550
 8577POPC   PO453712  33.781   2.769   5.850
 8577POPC   GL153713  33.772   2.799   6.150
 8577POPC   GL253714  33.697   2.889   6.150
 8577POPC   C1A53715  33.850   2.795   6.450
 8577POPC   D2A53716  33.806   2.750   6.750
 8577POPC   C3A53717  33.755   2.815   7.050
 8577POPC   C4A53718  33.789   2.754   7.350
 8577POPC   C1B53719  33.684   3.013   6.450
 8577POPC   C2B53720  33.707   3.027   6.750
 8577POPC   C3B53721  33.718   3.006   7.050
 8577POPC   C4B53722  33.694   2.936   7.350
 8578POPC   NC353723   8.175  42.323   5.550
 8578POPC   PO453724   8.239  42.299   5.850
 8578POPC   GL153725   8.203  42.342   6.150
 8578POPC   GL253726   8.126  42.447   6.150
 8578POPC   C1A53727   8.238  42.289   6.450
 8578POPC   D2A53728   8.203  42.338   6.750
 8578POPC   C3A53729   8.235  42.379   7.050
 8578POPC   C4A53730   8.185  42.338   7.350
 8578POPC   C1B53731   8.089  42.607   6.450
 8578POPC   C2B53732   8.112  42.548   6.750
 8578POPC   C3B53733   8.077  42.620   7.050
 8578POPC   C4B53734   8.095  42.550   7.350
 8579POPC   NC353735  16.683   2.038   5.550
 8579POPC   PO453736  16.728   1.972   5.850
 8579POPC   GL153737  16.709   1.998   6.150
 8579POPC   GL253738  16.582   1.954   6.150
 8579POPC   C1A53739  16.751   2.009   6.450
 8579POPC   D2A53740  16.767   1.980   6.750
 8579POPC   C3A53741  16.694   1.976   7.050
 8579POPC   C4A53742  16.737   2.021   7.350
 8579POPC   C1B53743  16.480   1.911   6.450
 8579POPC   C2B53744  16.492   1.878   6.750
 8579POPC   C3B53745  16.468   1.901   7.050
 8579POPC   C4B53746  16.480   1.938   7.350
 8580POPC   NC353747  20.596   4.353   5.550
 8580POPC   PO453748  20.649   4.283   5.850
 8580POPC   GL153749  20.579   4.309   6.150
 8580POPC   GL253750  20.685   4.446   6.150
 8580POPC   C1A53751  20.634   4.313   6.450
 8580POPC   D2A53752  20.584   4.292   6.750
 8580POPC   C3A53753  20.635   4.307   7.050
 8580POPC   C4A53754  20.643   4.293   7.350
 8580POPC   C1B53755  20.688   4.591   6.450
 8580POPC   C2B53756  20.713   4.567   6.750
 8580POPC   C3B53757  20.669   4.516   7.050
 8580POPC   C4B53758  20.712   4.515   7.350
 8581POPC   NC353759  19.806   0.465   5.550
 8581POPC   PO453760  19.882   0.439   5.850
 8581POPC   GL153761  19.824   0.453   6.150
 8581POPC   GL253762  19.773   0.314   6.150
 8581POPC   C1A53763  19.830   0.449   6.450
 8581POPC   D2A53764  19.846   0.438   6.750
 8581POPC   C3A53765  19.811   0.391   7.050
 8581POPC   C4A53766  19.844   0.487   7.350
 8581POPC   C1B53767  19.645   0.231   6.450
 8581POPC   C2B53768  19.678   0.289   6.750
 8581POPC   C3B53769  19.635   0.307   7.050
 8581POPC   C4B53770  19.653   0.275   7.350
 8582POPC   NC353771  14.402  39.183   5.550
 8582POPC   PO453772  14.366  39.279   5.850
 8582POPC   GL153773  14.383  39.266   6.150
 8582POPC   GL253774  14.492  39.109   6.150
 8582POPC   C1A53775  14.448  39.203   6.450
 8582POPC   D2A53776  14.439  39.278   6.750
 8582POPC   C3A53777  14.392  39.237   7.050
 8582POPC   C4A53778  14.377  39.202   7.350
 8582POPC   C1B53779  14.511  39.050   6.450
 8582POPC   C2B53780  14.509  39.013   6.750
 8582POPC   C3B53781  14.489  39.011   7.050
 8582POPC   C4B53782  14.569  39.025   7.350
 8583POPC   NC353783   7.410  32.247   5.550
 8583POPC   PO453784   7.461  32.225   5.850
 8583POPC   GL153785   7.446  32.251   6.150
 8583POPC   GL253786   7.578  32.263   6.150
 8583POPC   C1A53787   7.386  32.213   6.450
 8583POPC   D2A53788   7.381  32.281   6.750
 8583POPC   C3A53789   7.463  32.266   7.050
 8583POPC   C4A53790   7.388  32.269   7.350
 8583POPC   C1B53791   7.634  32.278   6.450
 8583POPC   C2B53792   7.634  32.346   6.750
 8583POPC   C3B53793   7.665  32.333   7.050
 8583POPC   C4B53794   7.683  32.350   7.350
 8584POPC   NC353795  20.635  15.144   5.550
 8584POPC   PO453796  20.608  15.219   5.850
 8584POPC   GL153797  20.592  15.168   6.150
 8584POPC   GL253798  20.533  15.228   6.150
 8584POPC   C1A53799  20.617  15.151   6.450
 8584POPC   D2A53800  20.633  15.206   6.750
 8584POPC   C3A53801  20.580  15.148   7.050
 8584POPC   C4A53802  20.606  15.196   7.350
 8584POPC   C1B53803  20.327  15.247   6.450
 8584POPC   C2B53804  20.370  15.242   6.750
 8584POPC   C3B53805  20.347  15.210   7.050
 8584POPC   C4B53806  20.396  15.233   7.350
 8585POPC   NC353807  21.338   7.375   5.550
 8585POPC   PO453808  21.374   7.470   5.850
 8585POPC   GL153809  21.385   7.380   6.150
 8585POPC   GL253810  21.242   7.411   6.150
 8585POPC   C1A53811  21.350   7.435   6.450
 8585POPC   D2A53812  21.351   7.371   6.750
 8585POPC   C3A53813  21.415   7.436   7.050
 8585POPC   C4A53814  21.373   7.395   7.350
 8585POPC   C1B53815  21.124   7.332   6.450
 8585POPC   C2B53816  21.099   7.309   6.750
 8585POPC   C3B53817  21.148   7.343   7.050
 8585POPC   C4B53818  21.191   7.380   7.350
 8586POPC   NC353819  19.834   1.993   5.550
 8586POPC   PO453820  19.827   2.023   5.850
 8586POPC   GL153821  19.871   2.006   6.150
 8586POPC   GL253822  19.894   1.903   6.150
 8586POPC   C1A53823  19.857   2.037   6.450
 8586POPC   D2A53824  19.846   2.030   6.750
 8586POPC   C3A53825  19.810   1.942   7.050
 8586POPC   C4A53826  19.866   1.952   7.350
 8586POPC   C1B53827  19.934   1.738   6.450
 8586POPC   C2B53828  19.995   1.732   6.750
 8586POPC   C3B53829  19.961   1.783   7.050
 8586POPC   C4B53830  19.923   1.746   7.350
 8587POPC   NC353831   7.434  12.829   5.550
 8587POPC   PO453832   7.408  12.836   5.850
 8587POPC   GL153833   7.374  12.829   6.150
 8587POPC   GL253834   7.337  12.874   6.150
 8587POPC   C1A53835   7.468  12.806   6.450
 8587POPC   D2A53836   7.457  12.839   6.750
 8587POPC   C3A53837   7.395  12.822   7.050
 8587POPC   C4A53838   7.462  12.814   7.350
 8587POPC   C1B53839   7.130  12.866   6.450
 8587POPC   C2B53840   7.128  12.913   6.750
 8587POPC   C3B53841   7.206  12.905   7.050
 8587POPC   C4B53842   7.210  12.853   7.350
 8588POPC   NC353843  43.136   8.952   5.550
 8588POPC   PO453844  43.107   8.934   5.850
 8588POPC   GL153845  43.092   8.925   6.150
 8588POPC   GL253846  43.179   9.027   6.150
 8588POPC   C1A53847  43.126   8.942   6.450
 8588POPC   D2A53848  43.068   8.970   6.750
 8588POPC   C3A53849  43.070   9.003   7.050
 8588POPC   C4A53850  43.132   8.934   7.350
 8588POPC   C1B53851  43.288   9.161   6.450
 8588POPC   C2B53852  43.292   9.186   6.750
 8588POPC   C3B53853  43.305   9.161   7.050
 8588POPC   C4B53854  43.299   9.184   7.350
 8589POPC   NC353855  19.095  42.349   5.550
 8589POPC   PO453856  19.080  42.290   5.850
 8589POPC   GL153857  19.063  42.367   6.150
 8589POPC   GL253858  19.164  42.247   6.150
 8589POPC   C1A53859  19.056  42.367   6.450
 8589POPC   D2A53860  19.050  42.291   6.750
 8589POPC   C3A53861  19.049  42.326   7.050
 8589POPC   C4A53862  19.037  42.305   7.350
 8589POPC   C1B53863  19.248  42.097   6.450
 8589POPC   C2B53864  19.238  42.163   6.750
 8589POPC   C3B53865  19.224  42.170   7.050
 8589POPC   C4B53866  19.252  42.165   7.350
 8590POPC   NC353867  25.280  30.706   5.550
 8590POPC   PO453868  25.285  30.665   5.850
 8590POPC   GL153869  25.283  30.692   6.150
 8590POPC   GL253870  25.151  30.746   6.150
 8590POPC   C1A53871  25.290  30.745   6.450
 8590POPC   D2A53872  25.279  30.660   6.750
 8590POPC   C3A53873  25.307  30.693   7.050
 8590POPC   C4A53874  25.304  30.676   7.350
 8590POPC   C1B53875  25.051  30.704   6.450
 8590POPC   C2B53876  24.975  30.767   6.750
 8590POPC   C3B53877  25.011  30.733   7.050
 8590POPC   C4B53878  25.014  30.744   7.350
 8591POPC   NC353879  33.816  28.376   5.550
 8591POPC   PO453880  33.763  28.411   5.850
 8591POPC   GL153881  33.772  28.375   6.150
 8591POPC   GL253882  33.911  28.434   6.150
 8591POPC   C1A53883  33.807  28.381   6.450
 8591POPC   D2A53884  33.804  28.402   6.750
 8591POPC   C3A53885  33.845  28.366   7.050
 8591POPC   C4A53886  33.820  28.336   7.350
 8591POPC   C1B53887  34.038  28.478   6.450
 8591POPC   C2B53888  33.976  28.505   6.750
 8591POPC   C3B53889  33.998  28.546   7.050
 8591POPC   C4B53890  34.043  28.484   7.350
 8592POPC   NC353891  44.660  34.530   5.550
 8592POPC   PO453892  44.708  34.576   5.850
 8592POPC   GL153893  44.699  34.564   6.150
 8592POPC   GL253894  44.782  34.533   6.150
 8592POPC   C1A53895  44.636  34.589   6.450
 8592POPC   D2A53896  44.631  34.551   6.750
 8592POPC   C3A53897  44.615  34.615   7.050
 8592POPC   C4A53898  44.695  34.547   7.350
 8592POPC   C1B53899  44.936  34.530   6.450
 8592POPC   C2B53900  44.915  34.495   6.750
 8592POPC   C3B53901  44.885  34.488   7.050
 8592POPC   C4B53902  44.916  34.545   7.350
 8593POPC   NC353903  34.623  38.503   5.550
 8593POPC   PO453904  34.588  38.472   5.850
 8593POPC   GL153905  34.529  38.455   6.150
 8593POPC   GL253906  34.472  38.535   6.150
 8593POPC   C1A53907  34.567  38.432   6.450
 8593POPC   D2A53908  34.579  38.444   6.750
 8593POPC   C3A53909  34.577  38.426   7.050
 8593POPC   C4A53910  34.599  38.482   7.350
 8593POPC   C1B53911  34.402  38.634   6.450
 8593POPC   C2B53912  34.416  38.668   6.750
 8593POPC   C3B53913  34.371  38.655   7.050
 8593POPC   C4B53914  34.438  38.615   7.350
 8594POPC   NC353915  12.866  28.333   5.550
 8594POPC   PO453916  12.892  28.392   5.850
 8594POPC   GL153917  12.882  28.413   6.150
 8594POPC   GL253918  12.762  28.369   6.150
 8594POPC   C1A53919  12.838  28.355   6.450
 8594POPC   D2A53920  12.837  28.335   6.750
 8594POPC   C3A53921  12.849  28.408   7.050
 8594POPC   C4A53922  12.857  28.341   7.350
 8594POPC   C1B53923  12.606  28.239   6.450
 8594POPC   C2B53924  12.573  28.275   6.750
 8594POPC   C3B53925  12.629  28.310   7.050
 8594POPC   C4B53926  12.591  28.282   7.350
 8595POPC   NC353927  31.430  43.901   5.550
 8595POPC   PO453928  31.501  43.889   5.850
 8595POPC   GL153929  31.452  43.894   6.150
 8595POPC   GL253930  31.346  43.913   6.150
 8595POPC   C1A53931  31.499  43.915   6.450
 8595POPC   D2A53932  31.502  43.874   6.750
 8595POPC   C3A53933  31.489  43.858   7.050
 8595POPC   C4A53934  31.486  43.867   7.350
 8595POPC   C1B53935  31.212  43.967   6.450
 8595POPC   C2B53936  31.209  44.005   6.750
 8595POPC   C3B53937  31.261  43.993   7.050
 8595POPC   C4B53938  31.268  43.985   7.350
 8596POPC   NC353939  28.388   5.873   5.550
 8596POPC   PO453940  28.410   5.870   5.850
 8596POPC   GL153941  28.334   5.867   6.150
 8596POPC   GL253942  28.283   5.922   6.150
 8596POPC   C1A53943  28.366   5.853   6.450
 8596POPC   D2A53944  28.358   5.900   6.750
 8596POPC   C3A53945  28.392   5.883   7.050
 8596POPC   C4A53946  28.401   5.895   7.350
 8596POPC   C1B53947  28.107   5.997   6.450
 8596POPC   C2B53948  28.176   5.963   6.750
 8596POPC   C3B53949  28.178   5.962   7.050
 8596POPC   C4B53950  28.102   6.010   7.350
 8597POPC   NC353951  30.726  30.688   5.550
 8597POPC   PO453952  30.670  30.696   5.850
 8597POPC   GL153953  30.658  30.662   6.150
 8597POPC   GL253954  30.718  30.523   6.150
 8597POPC   C1A53955  30.663  30.734   6.450
 8597POPC   D2A53956  30.721  30.712   6.750
 8597POPC   C3A53957  30.714  30.713   7.050
 8597POPC   C4A53958  30.719  30.697   7.350
 8597POPC   C1B53959  30.678  30.490   6.450
 8597POPC   C2B53960  30.696  30.490   6.750
 8597POPC   C3B53961  30.629  30.488   7.050
 8597POPC   C4B53962  30.697  30.483   7.350
 8598POPC   NC353963  28.400  30.676   5.550
 8598POPC   PO453964  28.380  30.701   5.850
 8598POPC   GL153965  28.402  30.667   6.150
 8598POPC   GL253966  28.465  30.779   6.150
 8598POPC   C1A53967  28.385  30.739   6.450
 8598POPC   D2A53968  28.419  30.688   6.750
 8598POPC   C3A53969  28.417  30.666   7.050
 8598POPC   C4A53970  28.401  30.731   7.350
 8598POPC   C1B53971  28.537  30.898   6.450
 8598POPC   C2B53972  28.539  30.953   6.750
 8598POPC   C3B53973  28.516  30.919   7.050
 8598POPC   C4B53974  28.491  30.918   7.350
 8599POPC   NC353975  36.892   3.580   5.550
 8599POPC   PO453976  36.882   3.568   5.850
 8599POPC   GL153977  36.880   3.518   6.150
 8599POPC   GL253978  37.060   3.539   6.150
 8599POPC   C1A53979  36.952   3.501   6.450
 8599POPC   D2A53980  36.933   3.535   6.750
 8599POPC   C3A53981  36.896   3.512   7.050
 8599POPC   C4A53982  36.899   3.531   7.350
 8599POPC   C1B53983  37.122   3.545   6.450
 8599POPC   C2B53984  37.191   3.540   6.750
 8599POPC   C3B53985  37.162   3.492   7.050
 8599POPC   C4B53986  37.194   3.557   7.350
 8600POPC   NC353987  32.994   8.213   5.550
 8600POPC   PO453988  33.069   8.149   5.850
 8600POPC   GL153989  32.987   8.200   6.150
 8600POPC   GL253990  33.120   8.218   6.150
 8600POPC   C1A53991  32.978   8.186   6.450
 8600POPC   D2A53992  32.986   8.152   6.750
 8600POPC   C3A53993  32.984   8.186   7.050
 8600POPC   C4A53994  33.022   8.211   7.350
 8600POPC   C1B53995  33.270   8.322   6.450
 8600POPC   C2B53996  33.219   8.334   6.750
 8600POPC   C3B53997  33.280   8.286   7.050
 8600POPC   C4B53998  33.208   8.375   7.350
 8601POPC   NC353999  12.082  37.722   5.550
 8601POPC   PO454000  12.058  37.661   5.850
 8601POPC   GL154001  12.069  37.685   6.150
 8601POPC   GL254002  12.018  37.760   6.150
 8601POPC   C1A54003  12.114  37.651   6.450
 8601POPC   D2A54004  12.103  37.720   6.750
 8601POPC   C3A54005  12.048  37.636   7.050
 8601POPC   C4A54006  12.033  37.675   7.350
 8601POPC   C1B54007  11.910  37.835   6.450
 8601POPC   C2B54008  11.896  37.848   6.750
 8601POPC   C3B54009  11.917  37.788   7.050
 8601POPC   C4B54010  11.903  37.779   7.350
 8602POPC   NC354011  22.957  43.895   5.550
 8602POPC   PO454012  22.953  43.919   5.850
 8602POPC   GL154013  22.935  43.851   6.150
 8602POPC   GL254014  22.909  43.778   6.150
 8602POPC   C1A54015  22.955  43.858   6.450
 8602POPC   D2A54016  22.916  43.915   6.750
 8602POPC   C3A54017  22.905  43.877   7.050
 8602POPC   C4A54018  22.981  43.852   7.350
 8602POPC   C1B54019  22.927  43.588   6.450
 8602POPC   C2B54020  22.946  43.605   6.750
 8602POPC   C3B54021  22.922  43.605   7.050
 8602POPC   C4B54022  22.984  43.608   7.350
 8603POPC   NC354023  35.387  28.417   5.550
 8603POPC   PO454024  35.395  28.394   5.850
 8603POPC   GL154025  35.378  28.320   6.150
 8603POPC   GL254026  35.406  28.507   6.150
 8603POPC   C1A54027  35.339  28.418   6.450
 8603POPC   D2A54028  35.337  28.411   6.750
 8603POPC   C3A54029  35.323  28.367   7.050
 8603POPC   C4A54030  35.395  28.322   7.350
 8603POPC   C1B54031  35.484  28.615   6.450
 8603POPC   C2B54032  35.441  28.620   6.750
 8603POPC   C3B54033  35.462  28.587   7.050
 8603POPC   C4B54034  35.460  28.542   7.350
 8604POPC   NC354035   0.396  43.107   5.550
 8604POPC   PO454036   0.448  43.063   5.850
 8604POPC   GL154037   0.412  43.078   6.150
 8604POPC   GL254038   0.380  42.942   6.150
 8604POPC   C1A54039   0.406  43.147   6.450
 8604POPC   D2A54040   0.427  43.085   6.750
 8604POPC   C3A54041   0.483  43.075   7.050
 8604POPC   C4A54042   0.402  43.080   7.350
 8604POPC   C1B54043   0.373  42.842   6.450
 8604POPC   C2B54044   0.380  42.821   6.750
 8604POPC   C3B54045   0.402  42.900   7.050
 8604POPC   C4B54046   0.417  42.889   7.350
 8605POPC   NC354047  12.065  35.310   5.550
 8605POPC   PO454048  12.032  35.325   5.850
 8605POPC   GL154049  12.092  35.358   6.150
 8605POPC   GL254050  12.102  35.192   6.150
 8605POPC   C1A54051  12.049  35.330   6.450
 8605POPC   D2A54052  12.100  35.349   6.750
 8605POPC   C3A54053  12.116  35.383   7.050
 8605POPC   C4A54054  12.040  35.390   7.350
 8605POPC   C1B54055  12.143  35.125   6.450
 8605POPC   C2B54056  12.151  35.077   6.750
 8605POPC   C3B54057  12.148  35.128   7.050
 8605POPC   C4B54058  12.163  35.161   7.350
 8606POPC   NC354059  19.829  37.640   5.550
 8606POPC   PO454060  19.857  37.688   5.850
 8606POPC   GL154061  19.867  37.630   6.150
 8606POPC   GL254062  19.875  37.779   6.150
 8606POPC   C1A54063  19.803  37.724   6.450
 8606POPC   D2A54064  19.830  37.677   6.750
 8606POPC   C3A54065  19.803  37.679   7.050
 8606POPC   C4A54066  19.850  37.712   7.350
 8606POPC   C1B54067  19.958  37.878   6.450
 8606POPC   C2B54068  20.006  37.869   6.750
 8606POPC   C3B54069  20.013  37.895   7.050
 8606POPC   C4B54070  19.985  37.897   7.350
 8607POPC   NC354071  33.756  23.701   5.550
 8607POPC   PO454072  33.794  23.678   5.850
 8607POPC   GL154073  33.845  23.732   6.150
 8607POPC   GL254074  33.801  23.582   6.150
 8607POPC   C1A54075  33.828  23.706   6.450
 8607POPC   D2A54076  33.838  23.689   6.750
 8607POPC   C3A54077  33.786  23.672   7.050
 8607POPC   C4A54078  33.773  23.677   7.350
 8607POPC   C1B54079  33.669  23.496   6.450
 8607POPC   C2B54080  33.667  23.510   6.750
 8607POPC   C3B54081  33.756  23.447   7.050
 8607POPC   C4B54082  33.733  23.493   7.350
 8608POPC   NC354083  24.461  28.370   5.550
 8608POPC   PO454084  24.442  28.357   5.850
 8608POPC   GL154085  24.472  28.417   6.150
 8608POPC   GL254086  24.409  28.284   6.150
 8608POPC   C1A54087  24.528  28.369   6.450
 8608POPC   D2A54088  24.486  28.343   6.750
 8608POPC   C3A54089  24.453  28.375   7.050
 8608POPC   C4A54090  24.464  28.383   7.350
 8608POPC   C1B54091  24.208  28.244   6.450
 8608POPC   C2B54092  24.257  28.240   6.750
 8608POPC   C3B54093  24.246  28.240   7.050
 8608POPC   C4B54094  24.211  28.321   7.350
 8609POPC   NC354095   5.098  40.736   5.550
 8609POPC   PO454096   5.086  40.740   5.850
 8609POPC   GL154097   5.128  40.786   6.150
 8609POPC   GL254098   5.132  40.896   6.150
 8609POPC   C1A54099   5.130  40.782   6.450
 8609POPC   D2A54100   5.092  40.791   6.750
 8609POPC   C3A54101   5.100  40.796   7.050
 8609POPC   C4A54102   5.044  40.809   7.350
 8609POPC   C1B54103   5.114  41.046   6.450
 8609POPC   C2B54104   5.091  41.048   6.750
 8609POPC   C3B54105   5.178  41.067   7.050
 8609POPC   C4B54106   5.096  41.034   7.350
 8610POPC   NC354107  32.992  21.407   5.550
 8610POPC   PO454108  33.018  21.374   5.850
 8610POPC   GL154109  32.981  21.423   6.150
 8610POPC   GL254110  33.097  21.492   6.150
 8610POPC   C1A54111  32.980  21.389   6.450
 8610POPC   D2A54112  33.010  21.374   6.750
 8610POPC   C3A54113  33.046  21.338   7.050
 8610POPC   C4A54114  33.015  21.421   7.350
 8610POPC   C1B54115  33.044  21.623   6.450
 8610POPC   C2B54116  33.092  21.599   6.750
 8610POPC   C3B54117  33.121  21.578   7.050
 8610POPC   C4B54118  33.098  21.672   7.350
 8611POPC   NC354119   1.263  40.039   5.550
 8611POPC   PO454120   1.245  40.050   5.850
 8611POPC   GL154121   1.187  40.019   6.150
 8611POPC   GL254122   1.286  39.854   6.150
 8611POPC   C1A54123   1.213  39.981   6.450
 8611POPC   D2A54124   1.236  39.980   6.750
 8611POPC   C3A54125   1.234  40.005   7.050
 8611POPC   C4A54126   1.248  39.970   7.350
 8611POPC   C1B54127   1.248  39.784   6.450
 8611POPC   C2B54128   1.220  39.741   6.750
 8611POPC   C3B54129   1.276  39.733   7.050
 8611POPC   C4B54130   1.275  39.810   7.350
 8612POPC   NC354131  36.167  12.062   5.550
 8612POPC   PO454132  36.143  12.119   5.850
 8612POPC   GL154133  36.117  12.125   6.150
 8612POPC   GL254134  36.019  12.187   6.150
 8612POPC   C1A54135  36.129  12.107   6.450
 8612POPC   D2A54136  36.133  12.103   6.750
 8612POPC   C3A54137  36.093  12.053   7.050
 8612POPC   C4A54138  36.160  12.090   7.350
 8612POPC   C1B54139  36.048  12.246   6.450
 8612POPC   C2B54140  36.050  12.290   6.750
 8612POPC   C3B54141  36.046  12.340   7.050
 8612POPC   C4B54142  35.965  12.306   7.350
 8613POPC   NC354143   2.784   1.950   5.550
 8613POPC   PO454144   2.760   2.005   5.850
 8613POPC   GL154145   2.747   1.981   6.150
 8613POPC   GL254146   2.690   1.928   6.150
 8613POPC   C1A54147   2.718   1.969   6.450
 8613POPC   D2A54148   2.732   1.957   6.750
 8613POPC   C3A54149   2.776   1.972   7.050
 8613POPC   C4A54150   2.792   1.951   7.350
 8613POPC   C1B54151   2.601   1.846   6.450
 8613POPC   C2B54152   2.611   1.882   6.750
 8613POPC   C3B54153   2.541   1.860   7.050
 8613POPC   C4B54154   2.582   1.880   7.350
 8614POPC   NC354155  23.730  22.909   5.550
 8614POPC   PO454156  23.699  22.912   5.850
 8614POPC   GL154157  23.702  22.955   6.150
 8614POPC   GL254158  23.598  22.953   6.150
 8614POPC   C1A54159  23.671  22.937   6.450
 8614POPC   D2A54160  23.742  22.922   6.750
 8614POPC   C3A54161  23.677  22.949   7.050
 8614POPC   C4A54162  23.719  22.962   7.350
 8614POPC   C1B54163  23.438  23.028   6.450
 8614POPC   C2B54164  23.519  22.998   6.750
 8614POPC   C3B54165  23.441  23.007   7.050
 8614POPC   C4B54166  23.449  23.025   7.350
 8615POPC   NC354167  43.853  12.823   5.550
 8615POPC   PO454168  43.928  12.884   5.850
 8615POPC   GL154169  43.864  12.824   6.150
 8615POPC   GL254170  43.846  12.965   6.150
 8615POPC   C1A54171  43.857  12.853   6.450
 8615POPC   D2A54172  43.869  12.879   6.750
 8615POPC   C3A54173  43.921  12.883   7.050
 8615POPC   C4A54174  43.899  12.873   7.350
 8615POPC   C1B54175  43.818  13.099   6.450
 8615POPC   C2B54176  43.821  13.138   6.750
 8615POPC   C3B54177  43.817  13.067   7.050
 8615POPC   C4B54178  43.819  13.134   7.350
 8616POPC   NC354179   4.338  44.675   5.550
 8616POPC   PO454180   4.321  44.642   5.850
 8616POPC   GL154181   4.346  44.644   6.150
 8616POPC   GL254182   4.207  44.679   6.150
 8616POPC   C1A54183   4.355  44.615   6.450
 8616POPC   D2A54184   4.267  44.682   6.750
 8616POPC   C3A54185   4.357  44.677   7.050
 8616POPC   C4A54186   4.344  44.623   7.350
 8616POPC   C1B54187   4.062  44.717   6.450
 8616POPC   C2B54188   4.096  44.668   6.750
 8616POPC   C3B54189   4.045  44.746   7.050
 8616POPC   C4B54190   4.042  44.664   7.350
 8617POPC   NC354191   4.300   9.002   5.550
 8617POPC   PO454192   4.317   8.987   5.850
 8617POPC   GL154193   4.313   8.972   6.150
 8617POPC   GL254194   4.213   8.910   6.150
 8617POPC   C1A54195   4.275   8.977   6.450
 8617POPC   D2A54196   4.323   8.961   6.750
 8617POPC   C3A54197   4.296   8.936   7.050
 8617POPC   C4A54198   4.292   8.939   7.350
 8617POPC   C1B54199   4.181   8.780   6.450
 8617POPC   C2B54200   4.151   8.819   6.750
 8617POPC   C3B54201   4.151   8.782   7.050
 8617POPC   C4B54202   4.121   8.745   7.350
 8618POPC   NC354203  12.086  38.453   5.550
 8618POPC   PO454204  12.033  38.456   5.850
 8618POPC   GL154205  12.034  38.459   6.150
 8618POPC   GL254206  12.203  38.489   6.150
 8618POPC   C1A54207  12.078  38.448   6.450
 8618POPC   D2A54208  12.042  38.413   6.750
 8618POPC   C3A54209  12.040  38.432   7.050
 8618POPC   C4A54210  12.034  38.447   7.350
 8618POPC   C1B54211  12.290  38.510   6.450
 8618POPC   C2B54212  12.339  38.516   6.750
 8618POPC   C3B54213  12.343  38.563   7.050
 8618POPC   C4B54214  12.323  38.533   7.350
 8619POPC   NC354215  39.261  40.805   5.550
 8619POPC   PO454216  39.228  40.799   5.850
 8619POPC   GL154217  39.193  40.757   6.150
 8619POPC   GL254218  39.116  40.738   6.150
 8619POPC   C1A54219  39.197  40.739   6.450
 8619POPC   D2A54220  39.237  40.775   6.750
 8619POPC   C3A54221  39.184  40.769   7.050
 8619POPC   C4A54222  39.210  40.828   7.350
 8619POPC   C1B54223  39.001  40.676   6.450
 8619POPC   C2B54224  39.041  40.724   6.750
 8619POPC   C3B54225  39.014  40.693   7.050
 8619POPC   C4B54226  39.026  40.663   7.350
 8620POPC   NC354227  40.817  20.612   5.550
 8620POPC   PO454228  40.772  20.623   5.850
 8620POPC   GL154229  40.749  20.610   6.150
 8620POPC   GL254230  40.859  20.546   6.150
 8620POPC   C1A54231  40.755  20.622   6.450
 8620POPC   D2A54232  40.823  20.647   6.750
 8620POPC   C3A54233  40.790  20.659   7.050
 8620POPC   C4A54234  40.787  20.587   7.350
 8620POPC   C1B54235  40.957  20.443   6.450
 8620POPC   C2B54236  40.971  20.465   6.750
 8620POPC   C3B54237  41.007  20.504   7.050
 8620POPC   C4B54238  41.005  20.427   7.350
 8621POPC   NC354239  32.983  23.698   5.550
 8621POPC   PO454240  33.028  23.668   5.850
 8621POPC   GL154241  33.056  23.728   6.150
 8621POPC   GL254242  33.121  23.810   6.150
 8621POPC   C1A54243  32.998  23.689   6.450
 8621POPC   D2A54244  32.983  23.763   6.750
 8621POPC   C3A54245  33.058  23.751   7.050
 8621POPC   C4A54246  33.010  23.666   7.350
 8621POPC   C1B54247  33.231  23.844   6.450
 8621POPC   C2B54248  33.244  23.800   6.750
 8621POPC   C3B54249  33.227  23.840   7.050
 8621POPC   C4B54250  33.205  23.871   7.350
 8622POPC   NC354251  18.308  11.306   5.550
 8622POPC   PO454252  18.299  11.318   5.850
 8622POPC   GL154253  18.314  11.293   6.150
 8622POPC   GL254254  18.366  11.333   6.150
 8622POPC   C1A54255  18.261  11.262   6.450
 8622POPC   D2A54256  18.242  11.304   6.750
 8622POPC   C3A54257  18.301  11.342   7.050
 8622POPC   C4A54258  18.280  11.330   7.350
 8622POPC   C1B54259  18.541  11.272   6.450
 8622POPC   C2B54260  18.492  11.290   6.750
 8622POPC   C3B54261  18.530  11.299   7.050
 8622POPC   C4B54262  18.483  11.249   7.350
 8623POPC   NC354263  43.143  30.684   5.550
 8623POPC   PO454264  43.066  30.663   5.850
 8623POPC   GL154265  43.160  30.680   6.150
 8623POPC   GL254266  42.963  30.774   6.150
 8623POPC   C1A54267  43.065  30.734   6.450
 8623POPC   D2A54268  43.159  30.726   6.750
 8623POPC   C3A54269  43.108  30.671   7.050
 8623POPC   C4A54270  43.075  30.725   7.350
 8623POPC   C1B54271  42.837  30.753   6.450
 8623POPC   C2B54272  42.878  30.757   6.750
 8623POPC   C3B54273  42.845  30.811   7.050
 8623POPC   C4B54274  42.901  30.811   7.350
 8624POPC   NC354275   8.173  16.737   5.550
 8624POPC   PO454276   8.227  16.692   5.850
 8624POPC   GL154277   8.217  16.683   6.150
 8624POPC   GL254278   8.291  16.857   6.150
 8624POPC   C1A54279   8.177  16.720   6.450
 8624POPC   D2A54280   8.214  16.711   6.750
 8624POPC   C3A54281   8.178  16.702   7.050
 8624POPC   C4A54282   8.185  16.707   7.350
 8624POPC   C1B54283   8.389  16.924   6.450
 8624POPC   C2B54284   8.443  16.878   6.750
 8624POPC   C3B54285   8.367  16.841   7.050
 8624POPC   C4B54286   8.373  16.908   7.350
 8625POPC   NC354287  35.332  31.463   5.550
 8625POPC   PO454288  35.354  31.483   5.850
 8625POPC   GL154289  35.364  31.430   6.150
 8625POPC   GL254290  35.303  31.407   6.150
 8625POPC   C1A54291  35.323  31.478   6.450
 8625POPC   D2A54292  35.372  31.505   6.750
 8625POPC   C3A54293  35.394  31.480   7.050
 8625POPC   C4A54294  35.341  31.511   7.350
 8625POPC   C1B54295  35.195  31.323   6.450
 8625POPC   C2B54296  35.190  31.321   6.750
 8625POPC   C3B54297  35.204  31.323   7.050
 8625POPC   C4B54298  35.162  31.250   7.350
 8626POPC   NC354299  21.367   5.860   5.550
 8626POPC   PO454300  21.339   5.844   5.850
 8626POPC   GL154301  21.353   5.850   6.150
 8626POPC   GL254302  21.474   5.748   6.150
 8626POPC   C1A54303  21.365   5.875   6.450
 8626POPC   D2A54304  21.435   5.885   6.750
 8626POPC   C3A54305  21.344   5.841   7.050
 8626POPC   C4A54306  21.342   5.906   7.350
 8626POPC   C1B54307  21.454   5.633   6.450
 8626POPC   C2B54308  21.473   5.673   6.750
 8626POPC   C3B54309  21.431   5.655   7.050
 8626POPC   C4B54310  21.438   5.666   7.350
 8627POPC   NC354311  29.947  24.455   5.550
 8627POPC   PO454312  29.902  24.508   5.850
 8627POPC   GL154313  29.873  24.488   6.150
 8627POPC   GL254314  29.934  24.365   6.150
 8627POPC   C1A54315  29.940  24.444   6.450
 8627POPC   D2A54316  29.922  24.452   6.750
 8627POPC   C3A54317  29.912  24.466   7.050
 8627POPC   C4A54318  29.883  24.485   7.350
 8627POPC   C1B54319  29.940  24.226   6.450
 8627POPC   C2B54320  29.939  24.234   6.750
 8627POPC   C3B54321  29.954  24.203   7.050
 8627POPC   C4B54322  29.933  24.199   7.350
 8628POPC   NC354323  38.406  44.706   5.550
 8628POPC   PO454324  38.483  44.694   5.850
 8628POPC   GL154325  38.476  44.647   6.150
 8628POPC   GL254326  38.351  44.740   6.150
 8628POPC   C1A54327  38.427  44.646   6.450
 8628POPC   D2A54328  38.420  44.635   6.750
 8628POPC   C3A54329  38.489  44.645   7.050
 8628POPC   C4A54330  38.456  44.646   7.350
 8628POPC   C1B54331  38.257  44.839   6.450
 8628POPC   C2B54332  38.234  44.858   6.750
 8628POPC   C3B54333  38.309  44.829   7.050
 8628POPC   C4B54334  38.248  44.854   7.350
 8629POPC   NC354335  16.000  39.974   5.550
 8629POPC   PO454336  15.964  39.986   5.850
 8629POPC   GL154337  15.957  39.982   6.150
 8629POPC   GL254338  16.096  39.994   6.150
 8629POPC   C1A54339  15.928  39.975   6.450
 8629POPC   D2A54340  15.924  40.011   6.750
 8629POPC   C3A54341  15.914  39.964   7.050
 8629POPC   C4A54342  15.976  40.034   7.350
 8629POPC   C1B54343  16.169  39.888   6.450
 8629POPC   C2B54344  16.195  39.908   6.750
 8629POPC   C3B54345  16.165  39.861   7.050
 8629POPC   C4B54346  16.144  39.917   7.350
 8630POPC   NC354347  22.936  25.313   5.550
 8630POPC   PO454348  22.959  25.312   5.850
 8630POPC   GL154349  22.955  25.273   6.150
 8630POPC   GL254350  22.815  25.275   6.150
 8630POPC   C1A54351  22.962  25.289   6.450
 8630POPC   D2A54352  22.902  25.244   6.750
 8630POPC   C3A54353  22.926  25.297   7.050
 8630POPC   C4A54354  22.925  25.231   7.350
 8630POPC   C1B54355  22.703  25.232   6.450
 8630POPC   C2B54356  22.737  25.178   6.750
 8630POPC   C3B54357  22.669  25.245   7.050
 8630POPC   C4B54358  22.737  25.183   7.350
 8631POPC   NC354359  14.384  37.696   5.550
 8631POPC   PO454360  14.395  37.631   5.850
 8631POPC   GL154361  14.409  37.633   6.150
 8631POPC   GL254362  14.425  37.512   6.150
 8631POPC   C1A54363  14.417  37.640   6.450
 8631POPC   D2A54364  14.405  37.632   6.750
 8631POPC   C3A54365  14.417  37.719   7.050
 8631POPC   C4A54366  14.392  37.643   7.350
 8631POPC   C1B54367  14.416  37.404   6.450
 8631POPC   C2B54368  14.407  37.382   6.750
 8631POPC   C3B54369  14.386  37.471   7.050
 8631POPC   C4B54370  14.351  37.436   7.350
 8632POPC   NC354371  12.859  17.542   5.550
 8632POPC   PO454372  12.892  17.525   5.850
 8632POPC   GL154373  12.896  17.542   6.150
 8632POPC   GL254374  12.920  17.665   6.150
 8632POPC   C1A54375  12.819  17.492   6.450
 8632POPC   D2A54376  12.871  17.474   6.750
 8632POPC   C3A54377  12.836  17.549   7.050
 8632POPC   C4A54378  12.880  17.462   7.350
 8632POPC   C1B54379  12.984  17.738   6.450
 8632POPC   C2B54380  12.992  17.764   6.750
 8632POPC   C3B54381  12.958  17.713   7.050
 8632POPC   C4B54382  12.922  17.713   7.350
 8633POPC   NC354383  43.880   8.991   5.550
 8633POPC   PO454384  43.855   8.966   5.850
 8633POPC   GL154385  43.867   9.004   6.150
 8633POPC   GL254386  43.761   8.954   6.150
 8633POPC   C1A54387  43.908   8.967   6.450
 8633POPC   D2A54388  43.906   8.999   6.750
 8633POPC   C3A54389  43.843   8.971   7.050
 8633POPC   C4A54390  43.838   8.985   7.350
 8633POPC   C1B54391  43.608   8.944   6.450
 8633POPC   C2B54392  43.672   8.922   6.750
 8633POPC   C3B54393  43.672   8.951   7.050
 8633POPC   C4B54394  43.693   8.882   7.350
 8634POPC   NC354395  19.075  16.004   5.550
 8634POPC   PO454396  19.021  15.999   5.850
 8634POPC   GL154397  19.047  15.998   6.150
 8634POPC   GL254398  18.907  15.989   6.150
 8634POPC   C1A54399  19.093  15.973   6.450
 8634POPC   D2A54400  19.075  15.935   6.750
 8634POPC   C3A54401  19.016  15.929   7.050
 8634POPC   C4A54402  19.078  15.991   7.350
 8634POPC   C1B54403  18.832  15.974   6.450
 8634POPC   C2B54404  18.807  15.983   6.750
 8634POPC   C3B54405  18.796  16.039   7.050
 8634POPC   C4B54406  18.785  15.987   7.350
 8635POPC   NC354407  26.011   1.205   5.550
 8635POPC   PO454408  26.091   1.250   5.850
 8635POPC   GL154409  26.004   1.217   6.150
 8635POPC   GL254410  26.070   1.301   6.150
 8635POPC   C1A54411  26.052   1.210   6.450
 8635POPC   D2A54412  26.060   1.236   6.750
 8635POPC   C3A54413  25.999   1.167   7.050
 8635POPC   C4A54414  26.064   1.186   7.350
 8635POPC   C1B54415  26.217   1.440   6.450
 8635POPC   C2B54416  26.198   1.451   6.750
 8635POPC   C3B54417  26.207   1.417   7.050
 8635POPC   C4B54418  26.230   1.430   7.350
 8636POPC   NC354419  29.132  24.506   5.550
 8636POPC   PO454420  29.193  24.529   5.850
 8636POPC   GL154421  29.095  24.451   6.150
 8636POPC   GL254422  29.302  24.477   6.150
 8636POPC   C1A54423  29.172  24.459   6.450
 8636POPC   D2A54424  29.137  24.539   6.750
 8636POPC   C3A54425  29.159  24.470   7.050
 8636POPC   C4A54426  29.150  24.500   7.350
 8636POPC   C1B54427  29.378  24.530   6.450
 8636POPC   C2B54428  29.395  24.508   6.750
 8636POPC   C3B54429  29.396  24.532   7.050
 8636POPC   C4B54430  29.384  24.586   7.350
 8637POPC   NC354431  36.108  19.860   5.550
 8637POPC   PO454432  36.177  19.835   5.850
 8637POPC   GL154433  36.080  19.856   6.150
 8637POPC   GL254434  36.119  19.930   6.150
 8637POPC   C1A54435  36.149  19.876   6.450
 8637POPC   D2A54436  36.136  19.840   6.750
 8637POPC   C3A54437  36.107  19.858   7.050
 8637POPC   C4A54438  36.081  19.799   7.350
 8637POPC   C1B54439  36.199  20.075   6.450
 8637POPC   C2B54440  36.175  20.093   6.750
 8637POPC   C3B54441  36.188  20.129   7.050
 8637POPC   C4B54442  36.136  20.077   7.350
 8638POPC   NC354443  22.908   3.586   5.550
 8638POPC   PO454444  22.963   3.568   5.850
 8638POPC   GL154445  22.977   3.560   6.150
 8638POPC   GL254446  23.035   3.528   6.150
 8638POPC   C1A54447  22.970   3.584   6.450
 8638POPC   D2A54448  22.953   3.527   6.750
 8638POPC   C3A54449  22.942   3.577   7.050
 8638POPC   C4A54450  22.980   3.511   7.350
 8638POPC   C1B54451  23.140   3.416   6.450
 8638POPC   C2B54452  23.173   3.463   6.750
 8638POPC   C3B54453  23.155   3.483   7.050
 8638POPC   C4B54454  23.194   3.488   7.350
 8639POPC   NC354455  31.435   8.976   5.550
 8639POPC   PO454456  31.503   8.963   5.850
 8639POPC   GL154457  31.469   8.973   6.150
 8639POPC   GL254458  31.575   8.855   6.150
 8639POPC   C1A54459  31.497   8.925   6.450
 8639POPC   D2A54460  31.466   9.021   6.750
 8639POPC   C3A54461  31.442   8.941   7.050
 8639POPC   C4A54462  31.425   8.948   7.350
 8639POPC   C1B54463  31.666   8.784   6.450
 8639POPC   C2B54464  31.640   8.804   6.750
 8639POPC   C3B54465  31.631   8.826   7.050
 8639POPC   C4B54466  31.668   8.774   7.350
 8640POPC   NC354467  30.742  39.987   5.550
 8640POPC   PO454468  30.700  39.989   5.850
 8640POPC   GL154469  30.683  40.000   6.150
 8640POPC   GL254470  30.659  39.894   6.150
 8640POPC   C1A54471  30.653  40.007   6.450
 8640POPC   D2A54472  30.720  40.021   6.750
 8640POPC   C3A54473  30.703  39.987   7.050
 8640POPC   C4A54474  30.690  39.973   7.350
 8640POPC   C1B54475  30.587  39.739   6.450
 8640POPC   C2B54476  30.645  39.728   6.750
 8640POPC   C3B54477  30.639  39.781   7.050
 8640POPC   C4B54478  30.635  39.794   7.350
 8641POPC   NC354479   5.858  31.435   5.550
 8641POPC   PO454480   5.851  31.440   5.850
 8641POPC   GL154481   5.892  31.488   6.150
 8641POPC   GL254482   5.852  31.609   6.150
 8641POPC   C1A54483   5.904  31.487   6.450
 8641POPC   D2A54484   5.873  31.433   6.750
 8641POPC   C3A54485   5.875  31.458   7.050
 8641POPC   C4A54486   5.890  31.492   7.350
 8641POPC   C1B54487   5.869  31.759   6.450
 8641POPC   C2B54488   5.844  31.675   6.750
 8641POPC   C3B54489   5.869  31.743   7.050
 8641POPC   C4B54490   5.928  31.694   7.350
 8642POPC   NC354491  21.340  44.681   5.550
 8642POPC   PO454492  21.424  44.671   5.850
 8642POPC   GL154493  21.353  44.634   6.150
 8642POPC   GL254494  21.406  44.543   6.150
 8642POPC   C1A54495  21.374  44.702   6.450
 8642POPC   D2A54496  21.359  44.673   6.750
 8642POPC   C3A54497  21.364  44.685   7.050
 8642POPC   C4A54498  21.343  44.675   7.350
 8642POPC   C1B54499  21.465  44.463   6.450
 8642POPC   C2B54500  21.434  44.379   6.750
 8642POPC   C3B54501  21.475  44.456   7.050
 8642POPC   C4B54502  21.408  44.441   7.350
 8643POPC   NC354503   2.784   9.754   5.550
 8643POPC   PO454504   2.782   9.706   5.850
 8643POPC   GL154505   2.737   9.708   6.150
 8643POPC   GL254506   2.737   9.866   6.150
 8643POPC   C1A54507   2.801   9.770   6.450
 8643POPC   D2A54508   2.737   9.742   6.750
 8643POPC   C3A54509   2.759   9.749   7.050
 8643POPC   C4A54510   2.794   9.704   7.350
 8643POPC   C1B54511   2.709   9.948   6.450
 8643POPC   C2B54512   2.698  10.013   6.750
 8643POPC   C3B54513   2.680   9.998   7.050
 8643POPC   C4B54514   2.662   9.947   7.350
 8644POPC   NC354515  40.043  22.192   5.550
 8644POPC   PO454516  40.010  22.168   5.850
 8644POPC   GL154517  39.970  22.193   6.150
 8644POPC   GL254518  40.099  22.168   6.150
 8644POPC   C1A54519  39.967  22.133   6.450
 8644POPC   D2A54520  40.037  22.172   6.750
 8644POPC   C3A54521  39.996  22.163   7.050
 8644POPC   C4A54522  40.040  22.125   7.350
 8644POPC   C1B54523  40.189  22.271   6.450
 8644POPC   C2B54524  40.216  22.219   6.750
 8644POPC   C3B54525  40.216  22.262   7.050
 8644POPC   C4B54526  40.212  22.235   7.350
 8645POPC   NC354527  19.053  43.888   5.550
 8645POPC   PO454528  19.034  43.892   5.850
 8645POPC   GL154529  19.011  43.913   6.150
 8645POPC   GL254530  19.004  43.779   6.150
 8645POPC   C1A54531  19.057  43.855   6.450
 8645POPC   D2A54532  19.063  43.873   6.750
 8645POPC   C3A54533  19.058  43.857   7.050
 8645POPC   C4A54534  19.036  43.875   7.350
 8645POPC   C1B54535  18.914  43.729   6.450
 8645POPC   C2B54536  18.931  43.749   6.750
 8645POPC   C3B54537  18.842  43.745   7.050
 8645POPC   C4B54538  18.871  43.676   7.350
 8646POPC   NC354539  23.756  43.127   5.550
 8646POPC   PO454540  23.708  43.116   5.850
 8646POPC   GL154541  23.751  43.150   6.150
 8646POPC   GL254542  23.775  42.963   6.150
 8646POPC   C1A54543  23.707  43.067   6.450
 8646POPC   D2A54544  23.664  43.064   6.750
 8646POPC   C3A54545  23.756  43.133   7.050
 8646POPC   C4A54546  23.750  43.080   7.350
 8646POPC   C1B54547  23.703  42.862   6.450
 8646POPC   C2B54548  23.738  42.875   6.750
 8646POPC   C3B54549  23.761  42.882   7.050
 8646POPC   C4B54550  23.789  42.891   7.350
 8647POPC   NC354551  44.657   7.471   5.550
 8647POPC   PO454552  44.711   7.373   5.850
 8647POPC   GL154553  44.646   7.385   6.150
 8647POPC   GL254554  44.698   7.476   6.150
 8647POPC   C1A54555  44.695   7.427   6.450
 8647POPC   D2A54556  44.698   7.378   6.750
 8647POPC   C3A54557  44.631   7.433   7.050
 8647POPC   C4A54558  44.708   7.459   7.350
 8647POPC   C1B54559  44.786   7.586   6.450
 8647POPC   C2B54560  44.795   7.600   6.750
 8647POPC   C3B54561  44.784   7.624   7.050
 8647POPC   C4B54562  44.835   7.625   7.350
 8648POPC   NC354563  39.226  43.082   5.550
 8648POPC   PO454564  39.264  43.141   5.850
 8648POPC   GL154565  39.236  43.110   6.150
 8648POPC   GL254566  39.176  43.016   6.150
 8648POPC   C1A54567  39.198  43.154   6.450
 8648POPC   D2A54568  39.195  43.124   6.750
 8648POPC   C3A54569  39.251  43.061   7.050
 8648POPC   C4A54570  39.273  43.114   7.350
 8648POPC   C1B54571  39.082  42.937   6.450
 8648POPC   C2B54572  39.043  42.931   6.750
 8648POPC   C3B54573  39.053  42.879   7.050
 8648POPC   C4B54574  39.092  42.910   7.350
 8649POPC   NC354575  38.423  36.132   5.550
 8649POPC   PO454576  38.446  36.107   5.850
 8649POPC   GL154577  38.456  36.102   6.150
 8649POPC   GL254578  38.438  36.267   6.150
 8649POPC   C1A54579  38.487  36.079   6.450
 8649POPC   D2A54580  38.477  36.107   6.750
 8649POPC   C3A54581  38.489  36.097   7.050
 8649POPC   C4A54582  38.488  36.112   7.350
 8649POPC   C1B54583  38.501  36.390   6.450
 8649POPC   C2B54584  38.537  36.415   6.750
 8649POPC   C3B54585  38.484  36.373   7.050
 8649POPC   C4B54586  38.490  36.341   7.350
 8650POPC   NC354587  15.978   3.494   5.550
 8650POPC   PO454588  15.957   3.526   5.850
 8650POPC   GL154589  15.962   3.566   6.150
 8650POPC   GL254590  16.027   3.494   6.150
 8650POPC   C1A54591  16.001   3.529   6.450
 8650POPC   D2A54592  15.972   3.498   6.750
 8650POPC   C3A54593  15.995   3.534   7.050
 8650POPC   C4A54594  16.003   3.530   7.350
 8650POPC   C1B54595  16.162   3.491   6.450
 8650POPC   C2B54596  16.164   3.424   6.750
 8650POPC   C3B54597  16.196   3.486   7.050
 8650POPC   C4B54598  16.234   3.483   7.350
 8651POPC   NC354599  13.610  22.901   5.550
 8651POPC   PO454600  13.644  22.966   5.850
 8651POPC   GL154601  13.640  22.915   6.150
 8651POPC   GL254602  13.705  23.035   6.150
 8651POPC   C1A54603  13.585  22.962   6.450
 8651POPC   D2A54604  13.580  22.961   6.750
 8651POPC   C3A54605  13.626  22.976   7.050
 8651POPC   C4A54606  13.650  22.972   7.350
 8651POPC   C1B54607  13.809  23.043   6.450
 8651POPC   C2B54608  13.803  23.015   6.750
 8651POPC   C3B54609  13.819  23.064   7.050
 8651POPC   C4B54610  13.800  23.035   7.350
 8652POPC   NC354611  44.669   3.554   5.550
 8652POPC   PO454612  44.619   3.582   5.850
 8652POPC   GL154613  44.652   3.573   6.150
 8652POPC   GL254614  44.817   3.493   6.150
 8652POPC   C1A54615  44.612   3.497   6.450
 8652POPC   D2A54616  44.642   3.574   6.750
 8652POPC   C3A54617  44.657   3.518   7.050
 8652POPC   C4A54618  44.657   3.549   7.350
 8652POPC   C1B54619  44.903   3.525   6.450
 8652POPC   C2B54620  44.897   3.440   6.750
 8652POPC   C3B54621  44.900   3.461   7.050
 8652POPC   C4B54622  44.899   3.536   7.350
 8653POPC   NC354623  44.671  26.066   5.550
 8653POPC   PO454624  44.697  26.018   5.850
 8653POPC   GL154625  44.674  26.043   6.150
 8653POPC   GL254626  44.523  26.125   6.150
 8653POPC   C1A54627  44.648  26.021   6.450
 8653POPC   D2A54628  44.680  26.032   6.750
 8653POPC   C3A54629  44.613  26.071   7.050
 8653POPC   C4A54630  44.641  26.054   7.350
 8653POPC   C1B54631  44.403  26.164   6.450
 8653POPC   C2B54632  44.422  26.148   6.750
 8653POPC   C3B54633  44.450  26.167   7.050
 8653POPC   C4B54634  44.383  26.152   7.350
 8654POPC   NC354635   3.562  27.586   5.550
 8654POPC   PO454636   3.499  27.549   5.850
 8654POPC   GL154637   3.505  27.549   6.150
 8654POPC   GL254638   3.536  27.758   6.150
 8654POPC   C1A54639   3.576  27.618   6.450
 8654POPC   D2A54640   3.532  27.585   6.750
 8654POPC   C3A54641   3.584  27.565   7.050
 8654POPC   C4A54642   3.574  27.587   7.350
 8654POPC   C1B54643   3.651  27.875   6.450
 8654POPC   C2B54644   3.567  27.823   6.750
 8654POPC   C3B54645   3.603  27.829   7.050
 8654POPC   C4B54646   3.634  27.799   7.350
 8655POPC   NC354647   6.666   2.030   5.550
 8655POPC   PO454648   6.677   1.944   5.850
 8655POPC   GL154649   6.637   1.998   6.150
 8655POPC   GL254650   6.733   1.848   6.150
 8655POPC   C1A54651   6.649   2.021   6.450
 8655POPC   D2A54652   6.693   1.966   6.750
 8655POPC   C3A54653   6.618   1.957   7.050
 8655POPC   C4A54654   6.661   1.998   7.350
 8655POPC   C1B54655   6.804   1.758   6.450
 8655POPC   C2B54656   6.767   1.800   6.750
 8655POPC   C3B54657   6.773   1.814   7.050
 8655POPC   C4B54658   6.754   1.759   7.350
 8656POPC   NC354659  17.463  38.425   5.550
 8656POPC   PO454660  17.457  38.439   5.850
 8656POPC   GL154661  17.513  38.448   6.150
 8656POPC   GL254662  17.423  38.541   6.150
 8656POPC   C1A54663  17.480  38.499   6.450
 8656POPC   D2A54664  17.518  38.452   6.750
 8656POPC   C3A54665  17.533  38.487   7.050
 8656POPC   C4A54666  17.532  38.504   7.350
 8656POPC   C1B54667  17.421  38.698   6.450
 8656POPC   C2B54668  17.479  38.660   6.750
 8656POPC   C3B54669  17.445  38.694   7.050
 8656POPC   C4B54670  17.387  38.678   7.350
 8657POPC   NC354671  31.515  43.123   5.550
 8657POPC   PO454672  31.453  43.102   5.850
 8657POPC   GL154673  31.428  43.089   6.150
 8657POPC   GL254674  31.310  43.070   6.150
 8657POPC   C1A54675  31.425  43.080   6.450
 8657POPC   D2A54676  31.479  43.087   6.750
 8657POPC   C3A54677  31.480  43.113   7.050
 8657POPC   C4A54678  31.432  43.151   7.350
 8657POPC   C1B54679  31.204  43.005   6.450
 8657POPC   C2B54680  31.231  43.006   6.750
 8657POPC   C3B54681  31.230  43.061   7.050
 8657POPC   C4B54682  31.194  43.053   7.350
 8658POPC   NC354683  14.453   2.813   5.550
 8658POPC   PO454684  14.427   2.796   5.850
 8658POPC   GL154685  14.391   2.786   6.150
 8658POPC   GL254686  14.241   2.759   6.150
 8658POPC   C1A54687  14.361   2.734   6.450
 8658POPC   D2A54688  14.441   2.813   6.750
 8658POPC   C3A54689  14.377   2.760   7.050
 8658POPC   C4A54690  14.402   2.739   7.350
 8658POPC   C1B54691  14.154   2.808   6.450
 8658POPC   C2B54692  14.129   2.857   6.750
 8658POPC   C3B54693  14.123   2.836   7.050
 8658POPC   C4B54694  14.117   2.831   7.350
 8659POPC   NC354695  43.883   9.795   5.550
 8659POPC   PO454696  43.902   9.761   5.850
 8659POPC   GL154697  43.903   9.780   6.150
 8659POPC   GL254698  43.790   9.760   6.150
 8659POPC   C1A54699  43.930   9.765   6.450
 8659POPC   D2A54700  43.875   9.708   6.750
 8659POPC   C3A54701  43.875   9.698   7.050
 8659POPC   C4A54702  43.875   9.772   7.350
 8659POPC   C1B54703  43.635   9.713   6.450
 8659POPC   C2B54704  43.684   9.681   6.750
 8659POPC   C3B54705  43.674   9.664   7.050
 8659POPC   C4B54706  43.597   9.699   7.350
 8660POPC   NC354707   0.478  23.691   5.550
 8660POPC   PO454708   0.461  23.699   5.850
 8660POPC   GL154709   0.462  23.733   6.150
 8660POPC   GL254710   0.469  23.868   6.150
 8660POPC   C1A54711   0.449  23.681   6.450
 8660POPC   D2A54712   0.398  23.700   6.750
 8660POPC   C3A54713   0.439  23.741   7.050
 8660POPC   C4A54714   0.409  23.724   7.350
 8660POPC   C1B54715   0.429  24.009   6.450
 8660POPC   C2B54716   0.413  23.962   6.750
 8660POPC   C3B54717   0.395  23.973   7.050
 8660POPC   C4B54718   0.413  24.002   7.350
 8661POPC   NC354719  19.066  26.789   5.550
 8661POPC   PO454720  19.096  26.790   5.850
 8661POPC   GL154721  19.091  26.780   6.150
 8661POPC   GL254722  19.203  26.769   6.150
 8661POPC   C1A54723  19.106  26.808   6.450
 8661POPC   D2A54724  19.080  26.804   6.750
 8661POPC   C3A54725  19.099  26.803   7.050
 8661POPC   C4A54726  19.046  26.775   7.350
 8661POPC   C1B54727  19.264  26.701   6.450
 8661POPC   C2B54728  19.304  26.734   6.750
 8661POPC   C3B54729  19.316  26.705   7.050
 8661POPC   C4B54730  19.270  26.767   7.350
 8662POPC   NC354731  27.550  26.021   5.550
 8662POPC   PO454732  27.629  26.022   5.850
 8662POPC   GL154733  27.577  26.064   6.150
 8662POPC   GL254734  27.740  26.069   6.150
 8662POPC   C1A54735  27.618  26.072   6.450
 8662POPC   D2A54736  27.552  26.047   6.750
 8662POPC   C3A54737  27.578  26.045   7.050
 8662POPC   C4A54738  27.632  26.015   7.350
 8662POPC   C1B54739  27.797  26.099   6.450
 8662POPC   C2B54740  27.833  26.066   6.750
 8662POPC   C3B54741  27.822  26.084   7.050
 8662POPC   C4B54742  27.811  26.091   7.350
 8663POPC   NC354743  13.658   2.732   5.550
 8663POPC   PO454744  13.613   2.758   5.850
 8663POPC   GL154745  13.632   2.793   6.150
 8663POPC   GL254746  13.681   2.899   6.150
 8663POPC   C1A54747  13.623   2.735   6.450
 8663POPC   D2A54748  13.616   2.745   6.750
 8663POPC   C3A54749  13.641   2.793   7.050
 8663POPC   C4A54750  13.614   2.754   7.350
 8663POPC   C1B54751  13.663   2.988   6.450
 8663POPC   C2B54752  13.682   3.020   6.750
 8663POPC   C3B54753  13.621   3.035   7.050
 8663POPC   C4B54754  13.625   2.977   7.350
 8664POPC   NC354755  28.392  40.036   5.550
 8664POPC   PO454756  28.331  40.042   5.850
 8664POPC   GL154757  28.402  40.011   6.150
 8664POPC   GL254758  28.289  40.163   6.150
 8664POPC   C1A54759  28.407  39.958   6.450
 8664POPC   D2A54760  28.341  40.037   6.750
 8664POPC   C3A54761  28.393  40.028   7.050
 8664POPC   C4A54762  28.365  40.030   7.350
 8664POPC   C1B54763  28.308  40.190   6.450
 8664POPC   C2B54764  28.218  40.255   6.750
 8664POPC   C3B54765  28.213  40.269   7.050
 8664POPC   C4B54766  28.213  40.220   7.350
 8665POPC   NC354767  38.505  19.851   5.550
 8665POPC   PO454768  38.483  19.799   5.850
 8665POPC   GL154769  38.464  19.834   6.150
 8665POPC   GL254770  38.502  19.912   6.150
 8665POPC   C1A54771  38.505  19.839   6.450
 8665POPC   D2A54772  38.411  19.871   6.750
 8665POPC   C3A54773  38.455  19.818   7.050
 8665POPC   C4A54774  38.444  19.867   7.350
 8665POPC   C1B54775  38.582  19.990   6.450
 8665POPC   C2B54776  38.635  20.007   6.750
 8665POPC   C3B54777  38.652  20.054   7.050
 8665POPC   C4B54778  38.583  19.979   7.350
 8666POPC   NC354779   2.767  12.869   5.550
 8666POPC   PO454780   2.794  12.875   5.850
 8666POPC   GL154781   2.785  12.859   6.150
 8666POPC   GL254782   2.776  12.739   6.150
 8666POPC   C1A54783   2.786  12.826   6.450
 8666POPC   D2A54784   2.719  12.867   6.750
 8666POPC   C3A54785   2.768  12.850   7.050
 8666POPC   C4A54786   2.793  12.895   7.350
 8666POPC   C1B54787   2.766  12.647   6.450
 8666POPC   C2B54788   2.811  12.648   6.750
 8666POPC   C3B54789   2.801  12.570   7.050
 8666POPC   C4B54790   2.762  12.635   7.350
 8667POPC   NC354791  21.399  41.557   5.550
 8667POPC   PO454792  21.380  41.567   5.850
 8667POPC   GL154793  21.349  41.582   6.150
 8667POPC   GL254794  21.247  41.503   6.150
 8667POPC   C1A54795  21.367  41.531   6.450
 8667POPC   D2A54796  21.359  41.578   6.750
 8667POPC   C3A54797  21.362  41.530   7.050
 8667POPC   C4A54798  21.411  41.559   7.350
 8667POPC   C1B54799  21.130  41.391   6.450
 8667POPC   C2B54800  21.152  41.465   6.750
 8667POPC   C3B54801  21.141  41.444   7.050
 8667POPC   C4B54802  21.220  41.425   7.350
 8668POPC   NC354803   2.015  33.037   5.550
 8668POPC   PO454804   1.953  33.027   5.850
 8668POPC   GL154805   1.952  32.992   6.150
 8668POPC   GL254806   1.865  33.100   6.150
 8668POPC   C1A54807   2.030  33.019   6.450
 8668POPC   D2A54808   1.959  33.072   6.750
 8668POPC   C3A54809   2.012  32.989   7.050
 8668POPC   C4A54810   1.962  32.997   7.350
 8668POPC   C1B54811   1.802  33.095   6.450
 8668POPC   C2B54812   1.775  33.179   6.750
 8668POPC   C3B54813   1.801  33.104   7.050
 8668POPC   C4B54814   1.806  33.115   7.350
 8669POPC   NC354815   1.191   8.955   5.550
 8669POPC   PO454816   1.201   8.962   5.850
 8669POPC   GL154817   1.259   8.939   6.150
 8669POPC   GL254818   1.285   9.052   6.150
 8669POPC   C1A54819   1.175   8.973   6.450
 8669POPC   D2A54820   1.241   9.014   6.750
 8669POPC   C3A54821   1.165   9.002   7.050
 8669POPC   C4A54822   1.191   8.999   7.350
 8669POPC   C1B54823   1.404   9.187   6.450
 8669POPC   C2B54824   1.345   9.157   6.750
 8669POPC   C3B54825   1.327   9.147   7.050
 8669POPC   C4B54826   1.328   9.128   7.350
 8670POPC   NC354827  43.895  12.068   5.550
 8670POPC   PO454828  43.890  12.089   5.850
 8670POPC   GL154829  43.933  12.077   6.150
 8670POPC   GL254830  44.053  12.060   6.150
 8670POPC   C1A54831  43.855  12.087   6.450
 8670POPC   D2A54832  43.868  12.097   6.750
 8670POPC   C3A54833  43.876  12.065   7.050
 8670POPC   C4A54834  43.873  12.101   7.350
 8670POPC   C1B54835  44.141  12.070   6.450
 8670POPC   C2B54836  44.086  11.978   6.750
 8670POPC   C3B54837  44.130  12.047   7.050
 8670POPC   C4B54838  44.144  11.971   7.350
 8671POPC   NC354839  11.285  32.234   5.550
 8671POPC   PO454840  11.312  32.291   5.850
 8671POPC   GL154841  11.348  32.294   6.150
 8671POPC   GL254842  11.226  32.190   6.150
 8671POPC   C1A54843  11.331  32.222   6.450
 8671POPC   D2A54844  11.287  32.298   6.750
 8671POPC   C3A54845  11.290  32.221   7.050
 8671POPC   C4A54846  11.336  32.253   7.350
 8671POPC   C1B54847  11.100  32.176   6.450
 8671POPC   C2B54848  11.053  32.256   6.750
 8671POPC   C3B54849  11.095  32.209   7.050
 8671POPC   C4B54850  11.102  32.234   7.350
 8672POPC   NC354851  32.232  43.149   5.550
 8672POPC   PO454852  32.296  43.078   5.850
 8672POPC   GL154853  32.266  43.085   6.150
 8672POPC   GL254854  32.370  43.213   6.150
 8672POPC   C1A54855  32.292  43.126   6.450
 8672POPC   D2A54856  32.259  43.146   6.750
 8672POPC   C3A54857  32.296  43.155   7.050
 8672POPC   C4A54858  32.205  43.142   7.350
 8672POPC   C1B54859  32.466  43.223   6.450
 8672POPC   C2B54860  32.495  43.216   6.750
 8672POPC   C3B54861  32.509  43.265   7.050
 8672POPC   C4B54862  32.442  43.251   7.350
 8673POPC   NC354863   9.778  35.379   5.550
 8673POPC   PO454864   9.742  35.327   5.850
 8673POPC   GL154865   9.736  35.337   6.150
 8673POPC   GL254866   9.724  35.268   6.150
 8673POPC   C1A54867   9.701  35.333   6.450
 8673POPC   D2A54868   9.788  35.330   6.750
 8673POPC   C3A54869   9.721  35.311   7.050
 8673POPC   C4A54870   9.796  35.389   7.350
 8673POPC   C1B54871   9.801  35.106   6.450
 8673POPC   C2B54872   9.797  35.147   6.750
 8673POPC   C3B54873   9.767  35.119   7.050
 8673POPC   C4B54874   9.788  35.145   7.350
 8674POPC   NC354875  29.166  43.122   5.550
 8674POPC   PO454876  29.099  43.098   5.850
 8674POPC   GL154877  29.143  43.082   6.150
 8674POPC   GL254878  29.216  43.099   6.150
 8674POPC   C1A54879  29.096  43.083   6.450
 8674POPC   D2A54880  29.189  43.099   6.750
 8674POPC   C3A54881  29.163  43.088   7.050
 8674POPC   C4A54882  29.138  43.140   7.350
 8674POPC   C1B54883  29.422  43.051   6.450
 8674POPC   C2B54884  29.402  43.055   6.750
 8674POPC   C3B54885  29.386  42.998   7.050
 8674POPC   C4B54886  29.415  42.991   7.350
 8675POPC   NC354887   2.002  11.342   5.550
 8675POPC   PO454888   1.948  11.316   5.850
 8675POPC   GL154889   1.979  11.336   6.150
 8675POPC   GL254890   1.923  11.414   6.150
 8675POPC   C1A54891   2.001  11.326   6.450
 8675POPC   D2A54892   2.027  11.259   6.750
 8675POPC   C3A54893   1.981  11.289   7.050
 8675POPC   C4A54894   2.022  11.305   7.350
 8675POPC   C1B54895   1.767  11.430   6.450
 8675POPC   C2B54896   1.778  11.518   6.750
 8675POPC   C3B54897   1.862  11.491   7.050
 8675POPC   C4B54898   1.778  11.449   7.350
 8676POPC   NC354899  41.539   2.778   5.550
 8676POPC   PO454900  41.510   2.801   5.850
 8676POPC   GL154901  41.553   2.804   6.150
 8676POPC   GL254902  41.655   2.707   6.150
 8676POPC   C1A54903  41.599   2.742   6.450
 8676POPC   D2A54904  41.532   2.783   6.750
 8676POPC   C3A54905  41.512   2.717   7.050
 8676POPC   C4A54906  41.562   2.770   7.350
 8676POPC   C1B54907  41.713   2.560   6.450
 8676POPC   C2B54908  41.773   2.623   6.750
 8676POPC   C3B54909  41.720   2.535   7.050
 8676POPC   C4B54910  41.687   2.591   7.350
 8677POPC   NC354911  38.455  43.858   5.550
 8677POPC   PO454912  38.434  43.851   5.850
 8677POPC   GL154913  38.480  43.933   6.150
 8677POPC   GL254914  38.433  44.004   6.150
 8677POPC   C1A54915  38.492  43.874   6.450
 8677POPC   D2A54916  38.501  43.844   6.750
 8677POPC   C3A54917  38.498  43.878   7.050
 8677POPC   C4A54918  38.471  43.896   7.350
 8677POPC   C1B54919  38.285  44.076   6.450
 8677POPC   C2B54920  38.366  44.067   6.750
 8677POPC   C3B54921  38.293  44.067   7.050
 8677POPC   C4B54922  38.303  44.056   7.350
 8678POPC   NC354923  20.660  22.116   5.550
 8678POPC   PO454924  20.654  22.119   5.850
 8678POPC   GL154925  20.564  22.153   6.150
 8678POPC   GL254926  20.512  22.206   6.150
 8678POPC   C1A54927  20.649  22.174   6.450
 8678POPC   D2A54928  20.637  22.165   6.750
 8678POPC   C3A54929  20.626  22.151   7.050
 8678POPC   C4A54930  20.609  22.174   7.350
 8678POPC   C1B54931  20.413  22.279   6.450
 8678POPC   C2B54932  20.376  22.285   6.750
 8678POPC   C3B54933  20.426  22.243   7.050
 8678POPC   C4B54934  20.384  22.281   7.350
 8679POPC   NC354935  36.177   1.248   5.550
 8679POPC   PO454936  36.088   1.210   5.850
 8679POPC   GL154937  36.143   1.219   6.150
 8679POPC   GL254938  36.047   1.224   6.150
 8679POPC   C1A54939  36.164   1.206   6.450
 8679POPC   D2A54940  36.112   1.189   6.750
 8679POPC   C3A54941  36.088   1.213   7.050
 8679POPC   C4A54942  36.085   1.207   7.350
 8679POPC   C1B54943  35.858   1.259   6.450
 8679POPC   C2B54944  35.885   1.258   6.750
 8679POPC   C3B54945  35.890   1.297   7.050
 8679POPC   C4B54946  35.926   1.275   7.350
 8680POPC   NC354947   4.272  29.176   5.550
 8680POPC   PO454948   4.331  29.128   5.850
 8680POPC   GL154949   4.331  29.191   6.150
 8680POPC   GL254950   4.250  29.202   6.150
 8680POPC   C1A54951   4.336  29.162   6.450
 8680POPC   D2A54952   4.360  29.099   6.750
 8680POPC   C3A54953   4.311  29.135   7.050
 8680POPC   C4A54954   4.271  29.161   7.350
 8680POPC   C1B54955   4.072  29.251   6.450
 8680POPC   C2B54956   4.136  29.230   6.750
 8680POPC   C3B54957   4.136  29.281   7.050
 8680POPC   C4B54958   4.133  29.239   7.350
 8681POPC   NC354959  12.882  24.447   5.550
 8681POPC   PO454960  12.818  24.488   5.850
 8681POPC   GL154961  12.839  24.475   6.150
 8681POPC   GL254962  12.749  24.586   6.150
 8681POPC   C1A54963  12.898  24.459   6.450
 8681POPC   D2A54964  12.852  24.525   6.750
 8681POPC   C3A54965  12.842  24.509   7.050
 8681POPC   C4A54966  12.821  24.491   7.350
 8681POPC   C1B54967  12.742  24.732   6.450
 8681POPC   C2B54968  12.748  24.739   6.750
 8681POPC   C3B54969  12.707  24.682   7.050
 8681POPC   C4B54970  12.740  24.664   7.350
 8682POPC   NC354971  17.500   0.441   5.550
 8682POPC   PO454972  17.523   0.478   5.850
 8682POPC   GL154973  17.520   0.467   6.150
 8682POPC   GL254974  17.524   0.356   6.150
 8682POPC   C1A54975  17.539   0.428   6.450
 8682POPC   D2A54976  17.534   0.461   6.750
 8682POPC   C3A54977  17.535   0.486   7.050
 8682POPC   C4A54978  17.495   0.434   7.350
 8682POPC   C1B54979  17.500   0.154   6.450
 8682POPC   C2B54980  17.468   0.184   6.750
 8682POPC   C3B54981  17.497   0.175   7.050
 8682POPC   C4B54982  17.542   0.158   7.350
 8683POPC   NC354983   0.471   2.006   5.550
 8683POPC   PO454984   0.468   1.981   5.850
 8683POPC   GL154985   0.427   1.966   6.150
 8683POPC   GL254986   0.507   2.032   6.150
 8683POPC   C1A54987   0.475   1.990   6.450
 8683POPC   D2A54988   0.477   2.036   6.750
 8683POPC   C3A54989   0.483   2.024   7.050
 8683POPC   C4A54990   0.468   2.007   7.350
 8683POPC   C1B54991   0.648   2.169   6.450
 8683POPC   C2B54992   0.640   2.203   6.750
 8683POPC   C3B54993   0.619   2.124   7.050
 8683POPC   C4B54994   0.654   2.154   7.350
 8684POPC   NC354995  17.515   5.092   5.550
 8684POPC   PO454996  17.539   5.138   5.850
 8684POPC   GL154997  17.551   5.141   6.150
 8684POPC   GL254998  17.387   5.025   6.150
 8684POPC   C1A54999  17.489   5.101   6.450
 8684POPC   D2A55000  17.460   5.136   6.750
 8684POPC   C3A55001  17.524   5.064   7.050
 8684POPC   C4A55002  17.544   5.134   7.350
 8684POPC   C1B55003  17.243   4.971   6.450
 8684POPC   C2B55004  17.235   5.024   6.750
 8684POPC   C3B55005  17.270   5.064   7.050
 8684POPC   C4B55006  17.256   5.055   7.350
 8685POPC   NC355007  29.100  20.571   5.550
 8685POPC   PO455008  29.101  20.596   5.850
 8685POPC   GL155009  29.188  20.644   6.150
 8685POPC   GL255010  29.245  20.526   6.150
 8685POPC   C1A55011  29.143  20.660   6.450
 8685POPC   D2A55012  29.132  20.592   6.750
 8685POPC   C3A55013  29.175  20.618   7.050
 8685POPC   C4A55014  29.189  20.566   7.350
 8685POPC   C1B55015  29.311  20.423   6.450
 8685POPC   C2B55016  29.397  20.481   6.750
 8685POPC   C3B55017  29.318  20.484   7.050
 8685POPC   C4B55018  29.311  20.492   7.350
 8686POPC   NC355019  41.586  36.907   5.550
 8686POPC   PO455020  41.525  36.904   5.850
 8686POPC   GL155021  41.558  36.897   6.150
 8686POPC   GL255022  41.624  37.003   6.150
 8686POPC   C1A55023  41.526  36.860   6.450
 8686POPC   D2A55024  41.605  36.882   6.750
 8686POPC   C3A55025  41.568  36.894   7.050
 8686POPC   C4A55026  41.588  36.899   7.350
 8686POPC   C1B55027  41.703  37.102   6.450
 8686POPC   C2B55028  41.768  37.104   6.750
 8686POPC   C3B55029  41.791  37.066   7.050
 8686POPC   C4B55030  41.758  37.107   7.350
 8687POPC   NC355031  44.687  22.908   5.550
 8687POPC   PO455032  44.618  22.981   5.850
 8687POPC   GL155033  44.690  22.948   6.150
 8687POPC   GL255034  44.552  22.943   6.150
 8687POPC   C1A55035  44.664  22.979   6.450
 8687POPC   D2A55036  44.627  22.921   6.750
 8687POPC   C3A55037  44.698  22.909   7.050
 8687POPC   C4A55038  44.709  22.976   7.350
 8687POPC   C1B55039  44.434  22.869   6.450
 8687POPC   C2B55040  44.378  22.920   6.750
 8687POPC   C3B55041  44.433  22.925   7.050
 8687POPC   C4B55042  44.395  22.874   7.350
 8688POPC   NC355043  13.643   6.665   5.550
 8688POPC   PO455044  13.601   6.679   5.850
 8688POPC   GL155045  13.600   6.642   6.150
 8688POPC   GL255046  13.614   6.732   6.150
 8688POPC   C1A55047  13.594   6.606   6.450
 8688POPC   D2A55048  13.668   6.638   6.750
 8688POPC   C3A55049  13.600   6.632   7.050
 8688POPC   C4A55050  13.676   6.675   7.350
 8688POPC   C1B55051  13.609   6.892   6.450
 8688POPC   C2B55052  13.581   6.890   6.750
 8688POPC   C3B55053  13.559   6.882   7.050
 8688POPC   C4B55054  13.542   6.856   7.350
 8689POPC   NC355055  27.584  20.614   5.550
 8689POPC   PO455056  27.627  20.590   5.850
 8689POPC   GL155057  27.631  20.636   6.150
 8689POPC   GL255058  27.497  20.637   6.150
 8689POPC   C1A55059  27.564  20.606   6.450
 8689POPC   D2A55060  27.580  20.623   6.750
 8689POPC   C3A55061  27.569  20.647   7.050
 8689POPC   C4A55062  27.592  20.658   7.350
 8689POPC   C1B55063  27.367  20.591   6.450
 8689POPC   C2B55064  27.318  20.549   6.750
 8689POPC   C3B55065  27.381  20.538   7.050
 8689POPC   C4B55066  27.296  20.586   7.350
 8690POPC   NC355067   3.535   7.395   5.550
 8690POPC   PO455068   3.493   7.457   5.850
 8690POPC   GL155069   3.501   7.468   6.150
 8690POPC   GL255070   3.447   7.325   6.150
 8690POPC   C1A55071   3.520   7.447   6.450
 8690POPC   D2A55072   3.581   7.391   6.750
 8690POPC   C3A55073   3.590   7.397   7.050
 8690POPC   C4A55074   3.585   7.448   7.350
 8690POPC   C1B55075   3.439   7.256   6.450
 8690POPC   C2B55076   3.422   7.240   6.750
 8690POPC   C3B55077   3.371   7.214   7.050
 8690POPC   C4B55078   3.408   7.217   7.350
 8691POPC   NC355079  34.619  42.292   5.550
 8691POPC   PO455080  34.591  42.382   5.850
 8691POPC   GL155081  34.596  42.347   6.150
 8691POPC   GL255082  34.588  42.193   6.150
 8691POPC   C1A55083  34.614  42.375   6.450
 8691POPC   D2A55084  34.623  42.330   6.750
 8691POPC   C3A55085  34.579  42.325   7.050
 8691POPC   C4A55086  34.623  42.367   7.350
 8691POPC   C1B55087  34.595  42.133   6.450
 8691POPC   C2B55088  34.573  42.109   6.750
 8691POPC   C3B55089  34.581  42.110   7.050
 8691POPC   C4B55090  34.563  42.072   7.350
 8692POPC   NC355091   4.286  40.027   5.550
 8692POPC   PO455092   4.298  40.018   5.850
 8692POPC   GL155093   4.367  40.042   6.150
 8692POPC   GL255094   4.300  40.180   6.150
 8692POPC   C1A55095   4.278  40.002   6.450
 8692POPC   D2A55096   4.290  40.030   6.750
 8692POPC   C3A55097   4.339  40.057   7.050
 8692POPC   C4A55098   4.367  39.957   7.350
 8692POPC   C1B55099   4.275  40.291   6.450
 8692POPC   C2B55100   4.344  40.224   6.750
 8692POPC   C3B55101   4.293  40.273   7.050
 8692POPC   C4B55102   4.257  40.229   7.350
 8693POPC   NC355103   5.124  20.643   5.550
 8693POPC   PO455104   5.050  20.646   5.850
 8693POPC   GL155105   5.122  20.621   6.150
 8693POPC   GL255106   4.976  20.540   6.150
 8693POPC   C1A55107   5.067  20.567   6.450
 8693POPC   D2A55108   5.109  20.580   6.750
 8693POPC   C3A55109   5.118  20.566   7.050
 8693POPC   C4A55110   5.067  20.614   7.350
 8693POPC   C1B55111   4.921  20.449   6.450
 8693POPC   C2B55112   4.884  20.431   6.750
 8693POPC   C3B55113   4.930  20.508   7.050
 8693POPC   C4B55114   4.856  20.428   7.350
 8694POPC   NC355115  18.296  10.541   5.550
 8694POPC   PO455116  18.263  10.560   5.850
 8694POPC   GL155117  18.303  10.493   6.150
 8694POPC   GL255118  18.330  10.447   6.150
 8694POPC   C1A55119  18.257  10.565   6.450
 8694POPC   D2A55120  18.320  10.481   6.750
 8694POPC   C3A55121  18.312  10.569   7.050
 8694POPC   C4A55122  18.320  10.561   7.350
 8694POPC   C1B55123  18.242  10.316   6.450
 8694POPC   C2B55124  18.309  10.237   6.750
 8694POPC   C3B55125  18.287  10.226   7.050
 8694POPC   C4B55126  18.328  10.253   7.350
 8695POPC   NC355127  12.054  40.035   5.550
 8695POPC   PO455128  12.110  40.002   5.850
 8695POPC   GL155129  12.077  40.011   6.150
 8695POPC   GL255130  11.993  39.896   6.150
 8695POPC   C1A55131  12.116  40.018   6.450
 8695POPC   D2A55132  12.073  40.016   6.750
 8695POPC   C3A55133  12.054  40.008   7.050
 8695POPC   C4A55134  12.039  39.966   7.350
 8695POPC   C1B55135  11.908  39.845   6.450
 8695POPC   C2B55136  11.926  39.859   6.750
 8695POPC   C3B55137  11.962  39.793   7.050
 8695POPC   C4B55138  11.940  39.861   7.350
 8696POPC   NC355139   5.119   0.479   5.550
 8696POPC   PO455140   5.114   0.410   5.850
 8696POPC   GL155141   5.098   0.458   6.150
 8696POPC   GL255142   5.137   0.329   6.150
 8696POPC   C1A55143   5.100   0.399   6.450
 8696POPC   D2A55144   5.080   0.462   6.750
 8696POPC   C3A55145   5.112   0.435   7.050
 8696POPC   C4A55146   5.067   0.447   7.350
 8696POPC   C1B55147   5.161   0.227   6.450
 8696POPC   C2B55148   5.118   0.228   6.750
 8696POPC   C3B55149   5.085   0.155   7.050
 8696POPC   C4B55150   5.085   0.200   7.350
 8697POPC   NC355151   8.930  33.759   5.550
 8697POPC   PO455152   8.925  33.752   5.850
 8697POPC   GL155153   9.008  33.815   6.150
 8697POPC   GL255154   9.044  33.688   6.150
 8697POPC   C1A55155   9.014  33.825   6.450
 8697POPC   D2A55156   9.007  33.829   6.750
 8697POPC   C3A55157   9.011  33.769   7.050
 8697POPC   C4A55158   8.998  33.837   7.350
 8697POPC   C1B55159   8.987  33.533   6.450
 8697POPC   C2B55160   9.063  33.578   6.750
 8697POPC   C3B55161   8.990  33.545   7.050
 8697POPC   C4B55162   9.076  33.584   7.350
 8698POPC   NC355163  40.030  25.301   5.550
 8698POPC   PO455164  40.008  25.284   5.850
 8698POPC   GL155165  39.999  25.271   6.150
 8698POPC   GL255166  40.143  25.366   6.150
 8698POPC   C1A55167  39.960  25.220   6.450
 8698POPC   D2A55168  40.018  25.228   6.750
 8698POPC   C3A55169  40.037  25.223   7.050
 8698POPC   C4A55170  40.002  25.271   7.350
 8698POPC   C1B55171  40.179  25.386   6.450
 8698POPC   C2B55172  40.196  25.398   6.750
 8698POPC   C3B55173  40.189  25.427   7.050
 8698POPC   C4B55174  40.232  25.369   7.350
 8699POPC   NC355175  36.863  40.830   5.550
 8699POPC   PO455176  36.947  40.806   5.850
 8699POPC   GL155177  36.869  40.762   6.150
 8699POPC   GL255178  36.808  40.773   6.150
 8699POPC   C1A55179  36.897  40.828   6.450
 8699POPC   D2A55180  36.925  40.736   6.750
 8699POPC   C3A55181  36.883  40.784   7.050
 8699POPC   C4A55182  36.879  40.829   7.350
 8699POPC   C1B55183  36.643  40.698   6.450
 8699POPC   C2B55184  36.659  40.658   6.750
 8699POPC   C3B55185  36.647  40.668   7.050
 8699POPC   C4B55186  36.657  40.705   7.350
 8700POPC   NC355187  26.769  19.809   5.550
 8700POPC   PO455188  26.812  19.805   5.850
 8700POPC   GL155189  26.819  19.785   6.150
 8700POPC   GL255190  26.740  19.864   6.150
 8700POPC   C1A55191  26.856  19.798   6.450
 8700POPC   D2A55192  26.799  19.869   6.750
 8700POPC   C3A55193  26.807  19.822   7.050
 8700POPC   C4A55194  26.834  19.820   7.350
 8700POPC   C1B55195  26.518  19.821   6.450
 8700POPC   C2B55196  26.568  19.861   6.750
 8700POPC   C3B55197  26.557  19.837   7.050
 8700POPC   C4B55198  26.607  19.848   7.350
 8701POPC   NC355199  28.338  19.107   5.550
 8701POPC   PO455200  28.332  19.102   5.850
 8701POPC   GL155201  28.334  19.100   6.150
 8701POPC   GL255202  28.340  19.158   6.150
 8701POPC   C1A55203  28.387  19.027   6.450
 8701POPC   D2A55204  28.414  19.094   6.750
 8701POPC   C3A55205  28.382  19.092   7.050
 8701POPC   C4A55206  28.355  19.035   7.350
 8701POPC   C1B55207  28.242  19.316   6.450
 8701POPC   C2B55208  28.242  19.298   6.750
 8701POPC   C3B55209  28.261  19.227   7.050
 8701POPC   C4B55210  28.210  19.266   7.350
 8702POPC   NC355211  11.293  43.096   5.550
 8702POPC   PO455212  11.333  43.095   5.850
 8702POPC   GL155213  11.252  43.063   6.150
 8702POPC   GL255214  11.367  43.041   6.150
 8702POPC   C1A55215  11.293  43.134   6.450
 8702POPC   D2A55216  11.324  43.095   6.750
 8702POPC   C3A55217  11.271  43.069   7.050
 8702POPC   C4A55218  11.300  43.127   7.350
 8702POPC   C1B55219  11.480  43.022   6.450
 8702POPC   C2B55220  11.531  42.960   6.750
 8702POPC   C3B55221  11.511  43.010   7.050
 8702POPC   C4B55222  11.502  42.969   7.350
 8703POPC   NC355223   1.182  18.254   5.550
 8703POPC   PO455224   1.256  18.257   5.850
 8703POPC   GL155225   1.178  18.235   6.150
 8703POPC   GL255226   1.139  18.304   6.150
 8703POPC   C1A55227   1.207  18.244   6.450
 8703POPC   D2A55228   1.178  18.322   6.750
 8703POPC   C3A55229   1.170  18.297   7.050
 8703POPC   C4A55230   1.194  18.301   7.350
 8703POPC   C1B55231   0.917  18.324   6.450
 8703POPC   C2B55232   1.003  18.298   6.750
 8703POPC   C3B55233   0.961  18.305   7.050
 8703POPC   C4B55234   0.987  18.297   7.350
 8704POPC   NC355235  44.687  30.669   5.550
 8704POPC   PO455236  44.698  30.671   5.850
 8704POPC   GL155237  44.666  30.654   6.150
 8704POPC   GL255238  44.804  30.737   6.150
 8704POPC   C1A55239  44.613  30.729   6.450
 8704POPC   D2A55240  44.661  30.676   6.750
 8704POPC   C3A55241  44.665  30.663   7.050
 8704POPC   C4A55242  44.658  30.727   7.350
 8704POPC   C1B55243  44.955  30.731   6.450
 8704POPC   C2B55244  44.857  30.743   6.750
 8704POPC   C3B55245  44.881  30.736   7.050
 8704POPC   C4B55246  44.867  30.729   7.350
 8705POPC   NC355247  40.014  12.810   5.550
 8705POPC   PO455248  40.011  12.802   5.850
 8705POPC   GL155249  39.970  12.803   6.150
 8705POPC   GL255250  39.944  12.788   6.150
 8705POPC   C1A55251  40.048  12.899   6.450
 8705POPC   D2A55252  39.967  12.869   6.750
 8705POPC   C3A55253  39.992  12.802   7.050
 8705POPC   C4A55254  40.005  12.897   7.350
 8705POPC   C1B55255  39.863  12.636   6.450
 8705POPC   C2B55256  39.854  12.650   6.750
 8705POPC   C3B55257  39.843  12.664   7.050
 8705POPC   C4B55258  39.908  12.688   7.350
 8706POPC   NC355259  11.297  43.883   5.550
 8706POPC   PO455260  11.333  43.918   5.850
 8706POPC   GL155261  11.349  43.876   6.150
 8706POPC   GL255262  11.370  43.982   6.150
 8706POPC   C1A55263  11.338  43.866   6.450
 8706POPC   D2A55264  11.308  43.884   6.750
 8706POPC   C3A55265  11.319  43.865   7.050
 8706POPC   C4A55266  11.251  43.894   7.350
 8706POPC   C1B55267  11.458  44.090   6.450
 8706POPC   C2B55268  11.373  44.107   6.750
 8706POPC   C3B55269  11.433  44.062   7.050
 8706POPC   C4B55270  11.372  44.153   7.350
 8707POPC   NC355271  19.881   3.584   5.550
 8707POPC   PO455272  19.822   3.502   5.850
 8707POPC   GL155273  19.790   3.545   6.150
 8707POPC   GL255274  19.795   3.456   6.150
 8707POPC   C1A55275  19.860   3.499   6.450
 8707POPC   D2A55276  19.880   3.553   6.750
 8707POPC   C3A55277  19.788   3.503   7.050
 8707POPC   C4A55278  19.813   3.558   7.350
 8707POPC   C1B55279  19.870   3.336   6.450
 8707POPC   C2B55280  19.873   3.312   6.750
 8707POPC   C3B55281  19.820   3.252   7.050
 8707POPC   C4B55282  19.852   3.303   7.350
 8708POPC   NC355283  22.169   1.170   5.550
 8708POPC   PO455284  22.155   1.200   5.850
 8708POPC   GL155285  22.114   1.197   6.150
 8708POPC   GL255286  22.024   1.286   6.150
 8708POPC   C1A55287  22.211   1.199   6.450
 8708POPC   D2A55288  22.163   1.240   6.750
 8708POPC   C3A55289  22.125   1.247   7.050
 8708POPC   C4A55290  22.128   1.204   7.350
 8708POPC   C1B55291  21.952   1.303   6.450
 8708POPC   C2B55292  21.939   1.288   6.750
 8708POPC   C3B55293  21.909   1.373   7.050
 8708POPC   C4B55294  21.914   1.326   7.350
 8709POPC   NC355295  42.293   2.786   5.550
 8709POPC   PO455296  42.299   2.761   5.850
 8709POPC   GL155297  42.309   2.739   6.150
 8709POPC   GL255298  42.393   2.668   6.150
 8709POPC   C1A55299  42.383   2.776   6.450
 8709POPC   D2A55300  42.311   2.728   6.750
 8709POPC   C3A55301  42.346   2.799   7.050
 8709POPC   C4A55302  42.325   2.787   7.350
 8709POPC   C1B55303  42.525   2.633   6.450
 8709POPC   C2B55304  42.500   2.568   6.750
 8709POPC   C3B55305  42.479   2.555   7.050
 8709POPC   C4B55306  42.502   2.554   7.350
 8710POPC   NC355307  28.369  22.132   5.550
 8710POPC   PO455308  28.391  22.121   5.850
 8710POPC   GL155309  28.406  22.126   6.150
 8710POPC   GL255310  28.389  22.302   6.150
 8710POPC   C1A55311  28.333  22.165   6.450
 8710POPC   D2A55312  28.343  22.126   6.750
 8710POPC   C3A55313  28.358  22.191   7.050
 8710POPC   C4A55314  28.354  22.197   7.350
 8710POPC   C1B55315  28.442  22.373   6.450
 8710POPC   C2B55316  28.514  22.406   6.750
 8710POPC   C3B55317  28.442  22.373   7.050
 8710POPC   C4B55318  28.510  22.343   7.350
 8711POPC   NC355319  43.117   1.260   5.550
 8711POPC   PO455320  43.098   1.237   5.850
 8711POPC   GL155321  43.130   1.184   6.150
 8711POPC   GL255322  43.058   1.295   6.150
 8711POPC   C1A55323  43.081   1.179   6.450
 8711POPC   D2A55324  43.100   1.252   6.750
 8711POPC   C3A55325  43.080   1.248   7.050
 8711POPC   C4A55326  43.073   1.177   7.350
 8711POPC   C1B55327  43.017   1.472   6.450
 8711POPC   C2B55328  42.957   1.426   6.750
 8711POPC   C3B55329  42.981   1.474   7.050
 8711POPC   C4B55330  42.998   1.444   7.350
 8712POPC   NC355331  39.187   2.024   5.550
 8712POPC   PO455332  39.204   1.953   5.850
 8712POPC   GL155333  39.203   1.958   6.150
 8712POPC   GL255334  39.106   1.863   6.150
 8712POPC   C1A55335  39.226   2.035   6.450
 8712POPC   D2A55336  39.250   1.940   6.750
 8712POPC   C3A55337  39.230   1.989   7.050
 8712POPC   C4A55338  39.229   1.993   7.350
 8712POPC   C1B55339  39.073   1.830   6.450
 8712POPC   C2B55340  39.031   1.848   6.750
 8712POPC   C3B55341  39.100   1.774   7.050
 8712POPC   C4B55342  39.070   1.765   7.350
 8713POPC   NC355343   8.973  21.354   5.550
 8713POPC   PO455344   8.947  21.409   5.850
 8713POPC   GL155345   8.991  21.363   6.150
 8713POPC   GL255346   9.124  21.373   6.150
 8713POPC   C1A55347   8.928  21.402   6.450
 8713POPC   D2A55348   8.928  21.376   6.750
 8713POPC   C3A55349   8.948  21.387   7.050
 8713POPC   C4A55350   8.969  21.402   7.350
 8713POPC   C1B55351   9.205  21.259   6.450
 8713POPC   C2B55352   9.216  21.310   6.750
 8713POPC   C3B55353   9.184  21.331   7.050
 8713POPC   C4B55354   9.176  21.336   7.350
 8714POPC   NC355355  36.911  33.794   5.550
 8714POPC   PO455356  36.949  33.822   5.850
 8714POPC   GL155357  36.933  33.824   6.150
 8714POPC   GL255358  36.800  33.706   6.150
 8714POPC   C1A55359  36.949  33.801   6.450
 8714POPC   D2A55360  36.939  33.846   6.750
 8714POPC   C3A55361  36.933  33.797   7.050
 8714POPC   C4A55362  36.888  33.792   7.350
 8714POPC   C1B55363  36.782  33.570   6.450
 8714POPC   C2B55364  36.737  33.617   6.750
 8714POPC   C3B55365  36.705  33.627   7.050
 8714POPC   C4B55366  36.722  33.623   7.350
 8715POPC   NC355367  26.012  26.089   5.550
 8715POPC   PO455368  26.046  26.019   5.850
 8715POPC   GL155369  26.005  26.020   6.150
 8715POPC   GL255370  25.895  26.069   6.150
 8715POPC   C1A55371  26.006  26.060   6.450
 8715POPC   D2A55372  26.077  26.038   6.750
 8715POPC   C3A55373  26.075  25.994   7.050
 8715POPC   C4A55374  26.073  26.064   7.350
 8715POPC   C1B55375  25.819  26.013   6.450
 8715POPC   C2B55376  25.773  26.029   6.750
 8715POPC   C3B55377  25.776  25.984   7.050
 8715POPC   C4B55378  25.800  25.982   7.350
 8716POPC   NC355379  22.149  10.556   5.550
 8716POPC   PO455380  22.163  10.480   5.850
 8716POPC   GL155381  22.120  10.573   6.150
 8716POPC   GL255382  22.071  10.647   6.150
 8716POPC   C1A55383  22.161  10.511   6.450
 8716POPC   D2A55384  22.212  10.544   6.750
 8716POPC   C3A55385  22.161  10.494   7.050
 8716POPC   C4A55386  22.186  10.485   7.350
 8716POPC   C1B55387  21.959  10.724   6.450
 8716POPC   C2B55388  22.013  10.736   6.750
 8716POPC   C3B55389  21.945  10.655   7.050
 8716POPC   C4B55390  21.943  10.693   7.350
 8717POPC   NC355391   9.001   9.796   5.550
 8717POPC   PO455392   8.930   9.750   5.850
 8717POPC   GL155393   8.953   9.784   6.150
 8717POPC   GL255394   8.847   9.671   6.150
 8717POPC   C1A55395   8.994   9.700   6.450
 8717POPC   D2A55396   8.948   9.726   6.750
 8717POPC   C3A55397   9.006   9.735   7.050
 8717POPC   C4A55398   8.991   9.775   7.350
 8717POPC   C1B55399   8.754   9.571   6.450
 8717POPC   C2B55400   8.798   9.625   6.750
 8717POPC   C3B55401   8.738   9.595   7.050
 8717POPC   C4B55402   8.812   9.590   7.350
 8718POPC   NC355403  30.656  22.914   5.550
 8718POPC   PO455404  30.657  22.967   5.850
 8718POPC   GL155405  30.678  22.927   6.150
 8718POPC   GL255406  30.610  22.961   6.150
 8718POPC   C1A55407  30.724  22.980   6.450
 8718POPC   D2A55408  30.652  22.980   6.750
 8718POPC   C3A55409  30.742  22.907   7.050
 8718POPC   C4A55410  30.731  22.924   7.350
 8718POPC   C1B55411  30.446  23.063   6.450
 8718POPC   C2B55412  30.513  23.039   6.750
 8718POPC   C3B55413  30.517  23.052   7.050
 8718POPC   C4B55414  30.496  23.048   7.350
 8719POPC   NC355415  13.666   3.523   5.550
 8719POPC   PO455416  13.629   3.562   5.850
 8719POPC   GL155417  13.600   3.505   6.150
 8719POPC   GL255418  13.721   3.429   6.150
 8719POPC   C1A55419  13.676   3.586   6.450
 8719POPC   D2A55420  13.630   3.534   6.750
 8719POPC   C3A55421  13.619   3.493   7.050
 8719POPC   C4A55422  13.636   3.539   7.350
 8719POPC   C1B55423  13.727   3.310   6.450
 8719POPC   C2B55424  13.770   3.355   6.750
 8719POPC   C3B55425  13.698   3.325   7.050
 8719POPC   C4B55426  13.756   3.324   7.350
 8720POPC   NC355427  15.215   2.012   5.550
 8720POPC   PO455428  15.183   1.988   5.850
 8720POPC   GL155429  15.220   2.005   6.150
 8720POPC   GL255430  15.209   2.119   6.150
 8720POPC   C1A55431  15.212   1.989   6.450
 8720POPC   D2A55432  15.146   1.968   6.750
 8720POPC   C3A55433  15.131   2.031   7.050
 8720POPC   C4A55434  15.165   1.940   7.350
 8720POPC   C1B55435  15.226   2.230   6.450
 8720POPC   C2B55436  15.206   2.197   6.750
 8720POPC   C3B55437  15.193   2.274   7.050
 8720POPC   C4B55438  15.235   2.242   7.350
 8721POPC   NC355439  29.949   1.196   5.550
 8721POPC   PO455440  29.930   1.242   5.850
 8721POPC   GL155441  29.937   1.229   6.150
 8721POPC   GL255442  29.862   1.074   6.150
 8721POPC   C1A55443  29.918   1.178   6.450
 8721POPC   D2A55444  29.929   1.190   6.750
 8721POPC   C3A55445  29.889   1.238   7.050
 8721POPC   C4A55446  29.917   1.178   7.350
 8721POPC   C1B55447  29.829   0.942   6.450
 8721POPC   C2B55448  29.884   1.002   6.750
 8721POPC   C3B55449  29.895   0.989   7.050
 8721POPC   C4B55450  29.822   0.933   7.350
 8722POPC   NC355451  33.008  43.086   5.550
 8722POPC   PO455452  33.053  43.102   5.850
 8722POPC   GL155453  32.996  43.077   6.150
 8722POPC   GL255454  32.997  43.254   6.150
 8722POPC   C1A55455  33.038  43.138   6.450
 8722POPC   D2A55456  32.991  43.156   6.750
 8722POPC   C3A55457  33.003  43.107   7.050
 8722POPC   C4A55458  33.013  43.096   7.350
 8722POPC   C1B55459  32.909  43.335   6.450
 8722POPC   C2B55460  32.886  43.283   6.750
 8722POPC   C3B55461  32.857  43.289   7.050
 8722POPC   C4B55462  32.906  43.332   7.350
 8723POPC   NC355463   8.153  38.410   5.550
 8723POPC   PO455464   8.233  38.407   5.850
 8723POPC   GL155465   8.165  38.444   6.150
 8723POPC   GL255466   8.044  38.482   6.150
 8723POPC   C1A55467   8.236  38.446   6.450
 8723POPC   D2A55468   8.174  38.431   6.750
 8723POPC   C3A55469   8.174  38.422   7.050
 8723POPC   C4A55470   8.160  38.436   7.350
 8723POPC   C1B55471   7.980  38.617   6.450
 8723POPC   C2B55472   7.974  38.615   6.750
 8723POPC   C3B55473   7.990  38.524   7.050
 8723POPC   C4B55474   8.008  38.578   7.350
 8724POPC   NC355475  18.317  29.907   5.550
 8724POPC   PO455476  18.276  29.947   5.850
 8724POPC   GL155477  18.310  29.939   6.150
 8724POPC   GL255478  18.397  29.952   6.150
 8724POPC   C1A55479  18.243  29.936   6.450
 8724POPC   D2A55480  18.237  29.906   6.750
 8724POPC   C3A55481  18.310  29.934   7.050
 8724POPC   C4A55482  18.301  29.919   7.350
 8724POPC   C1B55483  18.581  29.926   6.450
 8724POPC   C2B55484  18.564  29.980   6.750
 8724POPC   C3B55485  18.531  29.966   7.050
 8724POPC   C4B55486  18.533  29.892   7.350
 8725POPC   NC355487  41.524  40.026   5.550
 8725POPC   PO455488  41.549  39.961   5.850
 8725POPC   GL155489  41.565  39.995   6.150
 8725POPC   GL255490  41.496  40.085   6.150
 8725POPC   C1A55491  41.557  40.026   6.450
 8725POPC   D2A55492  41.581  40.014   6.750
 8725POPC   C3A55493  41.608  40.000   7.050
 8725POPC   C4A55494  41.571  39.993   7.350
 8725POPC   C1B55495  41.466  40.248   6.450
 8725POPC   C2B55496  41.371  40.169   6.750
 8725POPC   C3B55497  41.406  40.255   7.050
 8725POPC   C4B55498  41.468  40.239   7.350
 8726POPC   NC355499  37.663  22.938   5.550
 8726POPC   PO455500  37.672  22.903   5.850
 8726POPC   GL155501  37.722  22.894   6.150
 8726POPC   GL255502  37.712  22.824   6.150
 8726POPC   C1A55503  37.671  22.918   6.450
 8726POPC   D2A55504  37.717  22.967   6.750
 8726POPC   C3A55505  37.701  22.919   7.050
 8726POPC   C4A55506  37.729  22.930   7.350
 8726POPC   C1B55507  37.836  22.724   6.450
 8726POPC   C2B55508  37.838  22.692   6.750
 8726POPC   C3B55509  37.766  22.713   7.050
 8726POPC   C4B55510  37.793  22.674   7.350
 8727POPC   NC355511  34.587  33.021   5.550
 8727POPC   PO455512  34.596  33.005   5.850
 8727POPC   GL155513  34.616  32.999   6.150
 8727POPC   GL255514  34.434  33.103   6.150
 8727POPC   C1A55515  34.544  33.026   6.450
 8727POPC   D2A55516  34.605  33.073   6.750
 8727POPC   C3A55517  34.593  32.974   7.050
 8727POPC   C4A55518  34.623  33.036   7.350
 8727POPC   C1B55519  34.330  33.053   6.450
 8727POPC   C2B55520  34.377  33.149   6.750
 8727POPC   C3B55521  34.331  33.113   7.050
 8727POPC   C4B55522  34.365  33.149   7.350
 8728POPC   NC355523  22.152  14.392   5.550
 8728POPC   PO455524  22.211  14.427   5.850
 8728POPC   GL155525  22.148  14.397   6.150
 8728POPC   GL255526  22.319  14.466   6.150
 8728POPC   C1A55527  22.177  14.377   6.450
 8728POPC   D2A55528  22.123  14.414   6.750
 8728POPC   C3A55529  22.152  14.366   7.050
 8728POPC   C4A55530  22.193  14.377   7.350
 8728POPC   C1B55531  22.412  14.489   6.450
 8728POPC   C2B55532  22.426  14.474   6.750
 8728POPC   C3B55533  22.434  14.434   7.050
 8728POPC   C4B55534  22.397  14.473   7.350
 8729POPC   NC355535  29.148  12.895   5.550
 8729POPC   PO455536  29.161  12.847   5.850
 8729POPC   GL155537  29.194  12.812   6.150
 8729POPC   GL255538  29.205  12.995   6.150
 8729POPC   C1A55539  29.161  12.813   6.450
 8729POPC   D2A55540  29.110  12.866   6.750
 8729POPC   C3A55541  29.177  12.824   7.050
 8729POPC   C4A55542  29.174  12.874   7.350
 8729POPC   C1B55543  29.192  13.108   6.450
 8729POPC   C2B55544  29.216  13.103   6.750
 8729POPC   C3B55545  29.198  13.067   7.050
 8729POPC   C4B55546  29.224  13.048   7.350
 8730POPC   NC355547  15.134  14.360   5.550
 8730POPC   PO455548  15.203  14.389   5.850
 8730POPC   GL155549  15.213  14.369   6.150
 8730POPC   GL255550  15.261  14.334   6.150
 8730POPC   C1A55551  15.228  14.418   6.450
 8730POPC   D2A55552  15.186  14.384   6.750
 8730POPC   C3A55553  15.174  14.413   7.050
 8730POPC   C4A55554  15.152  14.453   7.350
 8730POPC   C1B55555  15.413  14.345   6.450
 8730POPC   C2B55556  15.442  14.280   6.750
 8730POPC   C3B55557  15.397  14.321   7.050
 8730POPC   C4B55558  15.438  14.327   7.350
 8731POPC   NC355559  20.621  12.112   5.550
 8731POPC   PO455560  20.596  12.096   5.850
 8731POPC   GL155561  20.584  12.114   6.150
 8731POPC   GL255562  20.757  12.048   6.150
 8731POPC   C1A55563  20.596  12.051   6.450
 8731POPC   D2A55564  20.592  12.094   6.750
 8731POPC   C3A55565  20.577  12.076   7.050
 8731POPC   C4A55566  20.646  12.031   7.350
 8731POPC   C1B55567  20.887  12.034   6.450
 8731POPC   C2B55568  20.903  12.127   6.750
 8731POPC   C3B55569  20.881  12.041   7.050
 8731POPC   C4B55570  20.872  12.029   7.350
 8732POPC   NC355571  15.927  39.237   5.550
 8732POPC   PO455572  15.955  39.220   5.850
 8732POPC   GL155573  15.979  39.185   6.150
 8732POPC   GL255574  16.113  39.219   6.150
 8732POPC   C1A55575  15.947  39.273   6.450
 8732POPC   D2A55576  15.948  39.212   6.750
 8732POPC   C3A55577  15.985  39.237   7.050
 8732POPC   C4A55578  15.955  39.244   7.350
 8732POPC   C1B55579  16.209  39.168   6.450
 8732POPC   C2B55580  16.175  39.192   6.750
 8732POPC   C3B55581  16.229  39.220   7.050
 8732POPC   C4B55582  16.156  39.142   7.350
 8733POPC   NC355583  39.200  15.997   5.550
 8733POPC   PO455584  39.249  15.929   5.850
 8733POPC   GL155585  39.196  15.954   6.150
 8733POPC   GL255586  39.191  15.858   6.150
 8733POPC   C1A55587  39.204  15.978   6.450
 8733POPC   D2A55588  39.277  15.976   6.750
 8733POPC   C3A55589  39.185  16.000   7.050
 8733POPC   C4A55590  39.215  15.934   7.350
 8733POPC   C1B55591  39.035  15.769   6.450
 8733POPC   C2B55592  39.030  15.795   6.750
 8733POPC   C3B55593  39.077  15.784   7.050
 8733POPC   C4B55594  39.033  15.719   7.350
 8734POPC   NC355595  33.056  38.408   5.550
 8734POPC   PO455596  33.047  38.490   5.850
 8734POPC   GL155597  32.989  38.504   6.150
 8734POPC   GL255598  32.935  38.333   6.150
 8734POPC   C1A55599  33.007  38.438   6.450
 8734POPC   D2A55600  33.052  38.468   6.750
 8734POPC   C3A55601  33.048  38.499   7.050
 8734POPC   C4A55602  33.014  38.453   7.350
 8734POPC   C1B55603  32.801  38.275   6.450
 8734POPC   C2B55604  32.895  38.315   6.750
 8734POPC   C3B55605  32.878  38.232   7.050
 8734POPC   C4B55606  32.839  38.252   7.350
 8735POPC   NC355607  38.417  40.008   5.550
 8735POPC   PO455608  38.496  40.049   5.850
 8735POPC   GL155609  38.430  40.004   6.150
 8735POPC   GL255610  38.326  40.123   6.150
 8735POPC   C1A55611  38.436  39.973   6.450
 8735POPC   D2A55612  38.425  39.974   6.750
 8735POPC   C3A55613  38.491  39.993   7.050
 8735POPC   C4A55614  38.437  39.975   7.350
 8735POPC   C1B55615  38.247  40.188   6.450
 8735POPC   C2B55616  38.264  40.191   6.750
 8735POPC   C3B55617  38.210  40.178   7.050
 8735POPC   C4B55618  38.275  40.120   7.350
 8736POPC   NC355619  19.064  38.422   5.550
 8736POPC   PO455620  19.105  38.453   5.850
 8736POPC   GL155621  19.068  38.449   6.150
 8736POPC   GL255622  19.173  38.435   6.150
 8736POPC   C1A55623  19.052  38.481   6.450
 8736POPC   D2A55624  19.106  38.469   6.750
 8736POPC   C3A55625  19.029  38.500   7.050
 8736POPC   C4A55626  19.079  38.459   7.350
 8736POPC   C1B55627  19.258  38.495   6.450
 8736POPC   C2B55628  19.307  38.483   6.750
 8736POPC   C3B55629  19.265  38.491   7.050
 8736POPC   C4B55630  19.300  38.513   7.350
 8737POPC   NC355631  11.343   4.363   5.550
 8737POPC   PO455632  11.298   4.292   5.850
 8737POPC   GL155633  11.348   4.309   6.150
 8737POPC   GL255634  11.232   4.179   6.150
 8737POPC   C1A55635  11.337   4.357   6.450
 8737POPC   D2A55636  11.258   4.329   6.750
 8737POPC   C3A55637  11.253   4.305   7.050
 8737POPC   C4A55638  11.345   4.294   7.350
 8737POPC   C1B55639  11.226   4.104   6.450
 8737POPC   C2B55640  11.182   4.092   6.750
 8737POPC   C3B55641  11.221   4.048   7.050
 8737POPC   C4B55642  11.194   4.133   7.350
 8738POPC   NC355643  41.584   5.913   5.550
 8738POPC   PO455644  41.518   5.880   5.850
 8738POPC   GL155645  41.585   5.871   6.150
 8738POPC   GL255646  41.430   5.821   6.150
 8738POPC   C1A55647  41.580   5.836   6.450
 8738POPC   D2A55648  41.552   5.843   6.750
 8738POPC   C3A55649  41.541   5.877   7.050
 8738POPC   C4A55650  41.603   5.905   7.350
 8738POPC   C1B55651  41.427   5.680   6.450
 8738POPC   C2B55652  41.404   5.728   6.750
 8738POPC   C3B55653  41.338   5.674   7.050
 8738POPC   C4B55654  41.363   5.644   7.350
 8739POPC   NC355655  22.172   4.306   5.550
 8739POPC   PO455656  22.170   4.349   5.850
 8739POPC   GL155657  22.156   4.328   6.150
 8739POPC   GL255658  22.154   4.402   6.150
 8739POPC   C1A55659  22.210   4.348   6.450
 8739POPC   D2A55660  22.135   4.328   6.750
 8739POPC   C3A55661  22.123   4.300   7.050
 8739POPC   C4A55662  22.182   4.333   7.350
 8739POPC   C1B55663  22.062   4.549   6.450
 8739POPC   C2B55664  22.060   4.503   6.750
 8739POPC   C3B55665  22.027   4.515   7.050
 8739POPC   C4B55666  22.036   4.505   7.350
 8740POPC   NC355667  26.028  29.187   5.550
 8740POPC   PO455668  26.087  29.127   5.850
 8740POPC   GL155669  26.064  29.117   6.150
 8740POPC   GL255670  26.144  29.172   6.150
 8740POPC   C1A55671  26.027  29.106   6.450
 8740POPC   D2A55672  26.081  29.106   6.750
 8740POPC   C3A55673  26.065  29.108   7.050
 8740POPC   C4A55674  26.052  29.159   7.350
 8740POPC   C1B55675  26.250  29.295   6.450
 8740POPC   C2B55676  26.238  29.301   6.750
 8740POPC   C3B55677  26.301  29.223   7.050
 8740POPC   C4B55678  26.260  29.249   7.350
 8741POPC   NC355679  25.315  19.076   5.550
 8741POPC   PO455680  25.276  19.036   5.850
 8741POPC   GL155681  25.222  19.086   6.150
 8741POPC   GL255682  25.162  19.045   6.150
 8741POPC   C1A55683  25.305  19.062   6.450
 8741POPC   D2A55684  25.244  19.092   6.750
 8741POPC   C3A55685  25.259  19.066   7.050
 8741POPC   C4A55686  25.241  19.028   7.350
 8741POPC   C1B55687  25.055  18.994   6.450
 8741POPC   C2B55688  25.027  18.959   6.750
 8741POPC   C3B55689  25.037  18.969   7.050
 8741POPC   C4B55690  25.063  19.004   7.350
 8742POPC   NC355691  42.309  22.890   5.550
 8742POPC   PO455692  42.355  22.966   5.850
 8742POPC   GL155693  42.380  22.963   6.150
 8742POPC   GL255694  42.235  23.027   6.150
 8742POPC   C1A55695  42.335  22.951   6.450
 8742POPC   D2A55696  42.341  22.973   6.750
 8742POPC   C3A55697  42.363  22.936   7.050
 8742POPC   C4A55698  42.354  22.888   7.350
 8742POPC   C1B55699  42.068  23.025   6.450
 8742POPC   C2B55700  42.084  23.073   6.750
 8742POPC   C3B55701  42.125  23.032   7.050
 8742POPC   C4B55702  42.148  23.046   7.350
 8743POPC   NC355703  33.786  39.973   5.550
 8743POPC   PO455704  33.808  40.049   5.850
 8743POPC   GL155705  33.808  39.983   6.150
 8743POPC   GL255706  33.919  40.031   6.150
 8743POPC   C1A55707  33.839  39.975   6.450
 8743POPC   D2A55708  33.764  40.024   6.750
 8743POPC   C3A55709  33.769  40.045   7.050
 8743POPC   C4A55710  33.822  39.975   7.350
 8743POPC   C1B55711  34.018  40.067   6.450
 8743POPC   C2B55712  34.078  40.031   6.750
 8743POPC   C3B55713  34.086  40.006   7.050
 8743POPC   C4B55714  34.024  40.060   7.350
 8744POPC   NC355715  29.886   4.283   5.550
 8744POPC   PO455716  29.954   4.336   5.850
 8744POPC   GL155717  29.919   4.280   6.150
 8744POPC   GL255718  30.009   4.214   6.150
 8744POPC   C1A55719  29.894   4.351   6.450
 8744POPC   D2A55720  29.939   4.317   6.750
 8744POPC   C3A55721  29.917   4.304   7.050
 8744POPC   C4A55722  29.964   4.288   7.350
 8744POPC   C1B55723  29.968   4.055   6.450
 8744POPC   C2B55724  30.018   4.122   6.750
 8744POPC   C3B55725  29.989   4.117   7.050
 8744POPC   C4B55726  29.988   4.040   7.350
 8745POPC   NC355727   8.156  22.152   5.550
 8745POPC   PO455728   8.203  22.186   5.850
 8745POPC   GL155729   8.158  22.166   6.150
 8745POPC   GL255730   8.066  22.281   6.150
 8745POPC   C1A55731   8.223  22.158   6.450
 8745POPC   D2A55732   8.205  22.160   6.750
 8745POPC   C3A55733   8.231  22.153   7.050
 8745POPC   C4A55734   8.181  22.140   7.350
 8745POPC   C1B55735   8.023  22.316   6.450
 8745POPC   C2B55736   8.023  22.347   6.750
 8745POPC   C3B55737   8.006  22.313   7.050
 8745POPC   C4B55738   8.047  22.316   7.350
 8746POPC   NC355739  35.315  32.212   5.550
 8746POPC   PO455740  35.323  32.219   5.850
 8746POPC   GL155741  35.372  32.273   6.150
 8746POPC   GL255742  35.231  32.321   6.150
 8746POPC   C1A55743  35.343  32.221   6.450
 8746POPC   D2A55744  35.320  32.292   6.750
 8746POPC   C3A55745  35.363  32.294   7.050
 8746POPC   C4A55746  35.346  32.277   7.350
 8746POPC   C1B55747  35.163  32.307   6.450
 8746POPC   C2B55748  35.159  32.380   6.750
 8746POPC   C3B55749  35.098  32.361   7.050
 8746POPC   C4B55750  35.114  32.305   7.350
 8747POPC   NC355751  29.108   7.427   5.550
 8747POPC   PO455752  29.104   7.385   5.850
 8747POPC   GL155753  29.116   7.418   6.150
 8747POPC   GL255754  29.205   7.589   6.150
 8747POPC   C1A55755  29.103   7.390   6.450
 8747POPC   D2A55756  29.108   7.430   6.750
 8747POPC   C3A55757  29.134   7.408   7.050
 8747POPC   C4A55758  29.097   7.424   7.350
 8747POPC   C1B55759  29.165   7.658   6.450
 8747POPC   C2B55760  29.192   7.623   6.750
 8747POPC   C3B55761  29.185   7.649   7.050
 8747POPC   C4B55762  29.182   7.662   7.350
 8748POPC   NC355763  39.978  14.355   5.550
 8748POPC   PO455764  39.996  14.355   5.850
 8748POPC   GL155765  39.958  14.447   6.150
 8748POPC   GL255766  39.989  14.477   6.150
 8748POPC   C1A55767  40.041  14.426   6.450
 8748POPC   D2A55768  40.036  14.366   6.750
 8748POPC   C3A55769  40.015  14.448   7.050
 8748POPC   C4A55770  40.038  14.357   7.350
 8748POPC   C1B55771  39.922  14.637   6.450
 8748POPC   C2B55772  39.878  14.606   6.750
 8748POPC   C3B55773  39.906  14.596   7.050
 8748POPC   C4B55774  39.903  14.649   7.350
 8749POPC   NC355775  40.798  12.083   5.550
 8749POPC   PO455776  40.762  12.085   5.850
 8749POPC   GL155777  40.786  12.059   6.150
 8749POPC   GL255778  40.824  12.151   6.150
 8749POPC   C1A55779  40.777  12.097   6.450
 8749POPC   D2A55780  40.761  12.123   6.750
 8749POPC   C3A55781  40.812  12.037   7.050
 8749POPC   C4A55782  40.780  12.037   7.350
 8749POPC   C1B55783  40.902  12.260   6.450
 8749POPC   C2B55784  40.932  12.255   6.750
 8749POPC   C3B55785  40.886  12.328   7.050
 8749POPC   C4B55786  40.877  12.287   7.350
 8750POPC   NC355787   0.423   5.888   5.550
 8750POPC   PO455788   0.415   5.827   5.850
 8750POPC   GL155789   0.429   5.858   6.150
 8750POPC   GL255790   0.502   5.713   6.150
 8750POPC   C1A55791   0.473   5.891   6.450
 8750POPC   D2A55792   0.436   5.863   6.750
 8750POPC   C3A55793   0.448   5.857   7.050
 8750POPC   C4A55794   0.481   5.846   7.350
 8750POPC   C1B55795   0.524   5.614   6.450
 8750POPC   C2B55796   0.530   5.660   6.750
 8750POPC   C3B55797   0.602   5.643   7.050
 8750POPC   C4B55798   0.603   5.631   7.350
 8751POPC   NC355799  29.179  19.014   5.550
 8751POPC   PO455800  29.190  19.018   5.850
 8751POPC   GL155801  29.174  19.047   6.150
 8751POPC   GL255802  29.047  18.957   6.150
 8751POPC   C1A55803  29.118  19.065   6.450
 8751POPC   D2A55804  29.188  19.022   6.750
 8751POPC   C3A55805  29.155  19.103   7.050
 8751POPC   C4A55806  29.146  19.062   7.350
 8751POPC   C1B55807  28.986  18.947   6.450
 8751POPC   C2B55808  28.997  18.882   6.750
 8751POPC   C3B55809  28.914  18.934   7.050
 8751POPC   C4B55810  28.966  18.946   7.350
 8752POPC   NC355811  22.169  33.072   5.550
 8752POPC   PO455812  22.146  33.059   5.850
 8752POPC   GL155813  22.164  33.069   6.150
 8752POPC   GL255814  22.095  33.090   6.150
 8752POPC   C1A55815  22.122  32.994   6.450
 8752POPC   D2A55816  22.212  32.995   6.750
 8752POPC   C3A55817  22.207  32.993   7.050
 8752POPC   C4A55818  22.134  32.976   7.350
 8752POPC   C1B55819  22.058  33.300   6.450
 8752POPC   C2B55820  22.025  33.269   6.750
 8752POPC   C3B55821  22.100  33.235   7.050
 8752POPC   C4B55822  22.106  33.220   7.350
 8753POPC   NC355823  14.437  15.136   5.550
 8753POPC   PO455824  14.361  15.215   5.850
 8753POPC   GL155825  14.370  15.169   6.150
 8753POPC   GL255826  14.352  15.216   6.150
 8753POPC   C1A55827  14.371  15.151   6.450
 8753POPC   D2A55828  14.412  15.152   6.750
 8753POPC   C3A55829  14.357  15.148   7.050
 8753POPC   C4A55830  14.421  15.202   7.350
 8753POPC   C1B55831  14.190  15.331   6.450
 8753POPC   C2B55832  14.186  15.335   6.750
 8753POPC   C3B55833  14.220  15.320   7.050
 8753POPC   C4B55834  14.180  15.307   7.350
 8754POPC   NC355835  19.080   4.274   5.550
 8754POPC   PO455836  19.014   4.354   5.850
 8754POPC   GL155837  19.091   4.356   6.150
 8754POPC   GL255838  19.000   4.449   6.150
 8754POPC   C1A55839  19.029   4.289   6.450
 8754POPC   D2A55840  19.099   4.330   6.750
 8754POPC   C3A55841  19.032   4.342   7.050
 8754POPC   C4A55842  19.072   4.350   7.350
 8754POPC   C1B55843  18.846   4.462   6.450
 8754POPC   C2B55844  18.862   4.463   6.750
 8754POPC   C3B55845  18.846   4.517   7.050
 8754POPC   C4B55846  18.859   4.523   7.350
 8755POPC   NC355847  13.650   4.313   5.550
 8755POPC   PO455848  13.619   4.328   5.850
 8755POPC   GL155849  13.629   4.321   6.150
 8755POPC   GL255850  13.522   4.255   6.150
 8755POPC   C1A55851  13.578   4.273   6.450
 8755POPC   D2A55852  13.611   4.312   6.750
 8755POPC   C3A55853  13.639   4.346   7.050
 8755POPC   C4A55854  13.589   4.313   7.350
 8755POPC   C1B55855  13.402   4.141   6.450
 8755POPC   C2B55856  13.446   4.153   6.750
 8755POPC   C3B55857  13.483   4.148   7.050
 8755POPC   C4B55858  13.418   4.111   7.350
 8756POPC   NC355859  13.654  38.473   5.550
 8756POPC   PO455860  13.646  38.475   5.850
 8756POPC   GL155861  13.605  38.458   6.150
 8756POPC   GL255862  13.516  38.531   6.150
 8756POPC   C1A55863  13.598  38.410   6.450
 8756POPC   D2A55864  13.641  38.438   6.750
 8756POPC   C3A55865  13.592  38.461   7.050
 8756POPC   C4A55866  13.665  38.412   7.350
 8756POPC   C1B55867  13.424  38.549   6.450
 8756POPC   C2B55868  13.393  38.579   6.750
 8756POPC   C3B55869  13.394  38.617   7.050
 8756POPC   C4B55870  13.369  38.607   7.350
 8757POPC   NC355871  29.119  15.929   5.550
 8757POPC   PO455872  29.129  15.962   5.850
 8757POPC   GL155873  29.133  15.946   6.150
 8757POPC   GL255874  29.205  16.057   6.150
 8757POPC   C1A55875  29.113  15.943   6.450
 8757POPC   D2A55876  29.190  15.933   6.750
 8757POPC   C3A55877  29.150  15.936   7.050
 8757POPC   C4A55878  29.112  15.924   7.350
 8757POPC   C1B55879  29.229  16.234   6.450
 8757POPC   C2B55880  29.209  16.192   6.750
 8757POPC   C3B55881  29.240  16.230   7.050
 8757POPC   C4B55882  29.225  16.196   7.350
 8758POPC   NC355883  13.629  14.446   5.550
 8758POPC   PO455884  13.642  14.354   5.850
 8758POPC   GL155885  13.648  14.408   6.150
 8758POPC   GL255886  13.758  14.446   6.150
 8758POPC   C1A55887  13.633  14.376   6.450
 8758POPC   D2A55888  13.621  14.399   6.750
 8758POPC   C3A55889  13.603  14.424   7.050
 8758POPC   C4A55890  13.596  14.363   7.350
 8758POPC   C1B55891  13.893  14.473   6.450
 8758POPC   C2B55892  13.830  14.517   6.750
 8758POPC   C3B55893  13.853  14.495   7.050
 8758POPC   C4B55894  13.846  14.448   7.350
 8759POPC   NC355895  40.025   0.455   5.550
 8759POPC   PO455896  40.020   0.477   5.850
 8759POPC   GL155897  39.973   0.396   6.150
 8759POPC   GL255898  39.917   0.372   6.150
 8759POPC   C1A55899  39.999   0.465   6.450
 8759POPC   D2A55900  40.025   0.427   6.750
 8759POPC   C3A55901  40.048   0.486   7.050
 8759POPC   C4A55902  40.002   0.473   7.350
 8759POPC   C1B55903  39.774   0.405   6.450
 8759POPC   C2B55904  39.773   0.421   6.750
 8759POPC   C3B55905  39.739   0.406   7.050
 8759POPC   C4B55906  39.780   0.448   7.350
 8760POPC   NC355907  29.155  15.133   5.550
 8760POPC   PO455908  29.126  15.152   5.850
 8760POPC   GL155909  29.174  15.154   6.150
 8760POPC   GL255910  29.206  15.264   6.150
 8760POPC   C1A55911  29.186  15.183   6.450
 8760POPC   D2A55912  29.119  15.138   6.750
 8760POPC   C3A55913  29.102  15.177   7.050
 8760POPC   C4A55914  29.108  15.154   7.350
 8760POPC   C1B55915  29.307  15.350   6.450
 8760POPC   C2B55916  29.296  15.366   6.750
 8760POPC   C3B55917  29.320  15.376   7.050
 8760POPC   C4B55918  29.367  15.348   7.350
 8761POPC   NC355919  17.480  39.189   5.550
 8761POPC   PO455920  17.503  39.199   5.850
 8761POPC   GL155921  17.499  39.220   6.150
 8761POPC   GL255922  17.413  39.211   6.150
 8761POPC   C1A55923  17.489  39.270   6.450
 8761POPC   D2A55924  17.473  39.200   6.750
 8761POPC   C3A55925  17.514  39.270   7.050
 8761POPC   C4A55926  17.465  39.257   7.350
 8761POPC   C1B55927  17.293  39.150   6.450
 8761POPC   C2B55928  17.222  39.129   6.750
 8761POPC   C3B55929  17.232  39.148   7.050
 8761POPC   C4B55930  17.245  39.128   7.350
 8762POPC   NC355931   5.842  22.165   5.550
 8762POPC   PO455932   5.916  22.129   5.850
 8762POPC   GL155933   5.918  22.183   6.150
 8762POPC   GL255934   6.010  22.169   6.150
 8762POPC   C1A55935   5.819  22.190   6.450
 8762POPC   D2A55936   5.912  22.184   6.750
 8762POPC   C3A55937   5.827  22.169   7.050
 8762POPC   C4A55938   5.896  22.182   7.350
 8762POPC   C1B55939   6.058  22.220   6.450
 8762POPC   C2B55940   6.074  22.268   6.750
 8762POPC   C3B55941   6.097  22.283   7.050
 8762POPC   C4B55942   6.057  22.224   7.350
 8763POPC   NC355943  19.857   6.682   5.550
 8763POPC   PO455944  19.831   6.640   5.850
 8763POPC   GL155945  19.859   6.648   6.150
 8763POPC   GL255946  19.910   6.575   6.150
 8763POPC   C1A55947  19.792   6.621   6.450
 8763POPC   D2A55948  19.821   6.616   6.750
 8763POPC   C3A55949  19.803   6.692   7.050
 8763POPC   C4A55950  19.856   6.691   7.350
 8763POPC   C1B55951  19.918   6.365   6.450
 8763POPC   C2B55952  19.941   6.406   6.750
 8763POPC   C3B55953  19.970   6.389   7.050
 8763POPC   C4B55954  19.937   6.375   7.350
 8764POPC   NC355955   1.958  28.364   5.550
 8764POPC   PO455956   1.970  28.364   5.850
 8764POPC   GL155957   2.018  28.328   6.150
 8764POPC   GL255958   1.931  28.225   6.150
 8764POPC   C1A55959   1.965  28.361   6.450
 8764POPC   D2A55960   2.009  28.330   6.750
 8764POPC   C3A55961   1.972  28.321   7.050
 8764POPC   C4A55962   1.985  28.391   7.350
 8764POPC   C1B55963   1.818  28.152   6.450
 8764POPC   C2B55964   1.882  28.153   6.750
 8764POPC   C3B55965   1.894  28.161   7.050
 8764POPC   C4B55966   1.898  28.103   7.350
 8765POPC   NC355967   8.968  18.285   5.550
 8765POPC   PO455968   9.004  18.304   5.850
 8765POPC   GL155969   8.993  18.243   6.150
 8765POPC   GL255970   8.928  18.182   6.150
 8765POPC   C1A55971   8.952  18.265   6.450
 8765POPC   D2A55972   8.945  18.249   6.750
 8765POPC   C3A55973   8.941  18.297   7.050
 8765POPC   C4A55974   8.991  18.249   7.350
 8765POPC   C1B55975   8.839  18.067   6.450
 8765POPC   C2B55976   8.790  18.126   6.750
 8765POPC   C3B55977   8.772  18.096   7.050
 8765POPC   C4B55978   8.800  18.069   7.350
 8766POPC   NC355979  12.874  18.284   5.550
 8766POPC   PO455980  12.821  18.297   5.850
 8766POPC   GL155981  12.836  18.263   6.150
 8766POPC   GL255982  12.818  18.387   6.150
 8766POPC   C1A55983  12.864  18.275   6.450
 8766POPC   D2A55984  12.892  18.259   6.750
 8766POPC   C3A55985  12.886  18.250   7.050
 8766POPC   C4A55986  12.819  18.267   7.350
 8766POPC   C1B55987  12.672  18.445   6.450
 8766POPC   C2B55988  12.723  18.494   6.750
 8766POPC   C3B55989  12.719  18.447   7.050
 8766POPC   C4B55990  12.679  18.469   7.350
 8767POPC   NC355991  11.307  33.002   5.550
 8767POPC   PO455992  11.306  32.983   5.850
 8767POPC   GL155993  11.293  33.059   6.150
 8767POPC   GL255994  11.138  33.023   6.150
 8767POPC   C1A55995  11.344  32.994   6.450
 8767POPC   D2A55996  11.302  33.018   6.750
 8767POPC   C3A55997  11.293  33.047   7.050
 8767POPC   C4A55998  11.322  33.050   7.350
 8767POPC   C1B55999  11.022  32.893   6.450
 8767POPC   C2B56000  11.056  32.887   6.750
 8767POPC   C3B56001  11.029  32.971   7.050
 8767POPC   C4B56002  11.030  32.934   7.350
 8768POPC   NC356003  13.586  33.062   5.550
 8768POPC   PO456004  13.579  33.072   5.850
 8768POPC   GL156005  13.662  33.061   6.150
 8768POPC   GL256006  13.516  33.074   6.150
 8768POPC   C1A56007  13.599  33.010   6.450
 8768POPC   D2A56008  13.636  33.029   6.750
 8768POPC   C3A56009  13.611  33.000   7.050
 8768POPC   C4A56010  13.677  33.008   7.350
 8768POPC   C1B56011  13.433  33.093   6.450
 8768POPC   C2B56012  13.418  33.083   6.750
 8768POPC   C3B56013  13.430  33.152   7.050
 8768POPC   C4B56014  13.386  33.167   7.350
 8769POPC   NC356015  14.421  26.029   5.550
 8769POPC   PO456016  14.402  26.021   5.850
 8769POPC   GL156017  14.356  26.006   6.150
 8769POPC   GL256018  14.280  26.050   6.150
 8769POPC   C1A56019  14.436  26.001   6.450
 8769POPC   D2A56020  14.402  26.024   6.750
 8769POPC   C3A56021  14.396  26.064   7.050
 8769POPC   C4A56022  14.394  26.017   7.350
 8769POPC   C1B56023  14.168  26.028   6.450
 8769POPC   C2B56024  14.194  26.032   6.750
 8769POPC   C3B56025  14.158  26.074   7.050
 8769POPC   C4B56026  14.160  26.074   7.350
 8770POPC   NC356027  33.030  26.857   5.550
 8770POPC   PO456028  33.011  26.828   5.850
 8770POPC   GL156029  33.016  26.867   6.150
 8770POPC   GL256030  32.875  26.821   6.150
 8770POPC   C1A56031  32.997  26.770   6.450
 8770POPC   D2A56032  33.056  26.786   6.750
 8770POPC   C3A56033  32.996  26.841   7.050
 8770POPC   C4A56034  33.070  26.867   7.350
 8770POPC   C1B56035  32.750  26.851   6.450
 8770POPC   C2B56036  32.799  26.850   6.750
 8770POPC   C3B56037  32.739  26.862   7.050
 8770POPC   C4B56038  32.791  26.866   7.350
 8771POPC   NC356039  34.545  26.819   5.550
 8771POPC   PO456040  34.564  26.791   5.850
 8771POPC   GL156041  34.561  26.779   6.150
 8771POPC   GL256042  34.457  26.714   6.150
 8771POPC   C1A56043  34.538  26.853   6.450
 8771POPC   D2A56044  34.526  26.835   6.750
 8771POPC   C3A56045  34.596  26.846   7.050
 8771POPC   C4A56046  34.564  26.839   7.350
 8771POPC   C1B56047  34.408  26.659   6.450
 8771POPC   C2B56048  34.467  26.575   6.750
 8771POPC   C3B56049  34.440  26.667   7.050
 8771POPC   C4B56050  34.395  26.570   7.350
 8772POPC   NC356051  26.849  27.627   5.550
 8772POPC   PO456052  26.806  27.622   5.850
 8772POPC   GL156053  26.813  27.628   6.150
 8772POPC   GL256054  26.970  27.558   6.150
 8772POPC   C1A56055  26.855  27.633   6.450
 8772POPC   D2A56056  26.801  27.562   6.750
 8772POPC   C3A56057  26.774  27.616   7.050
 8772POPC   C4A56058  26.867  27.586   7.350
 8772POPC   C1B56059  27.057  27.596   6.450
 8772POPC   C2B56060  27.023  27.625   6.750
 8772POPC   C3B56061  27.072  27.628   7.050
 8772POPC   C4B56062  27.093  27.633   7.350
 8773POPC   NC356063  18.262   5.141   5.550
 8773POPC   PO456064  18.241   5.077   5.850
 8773POPC   GL156065  18.273   5.074   6.150
 8773POPC   GL256066  18.301   4.986   6.150
 8773POPC   C1A56067  18.239   5.099   6.450
 8773POPC   D2A56068  18.316   5.140   6.750
 8773POPC   C3A56069  18.292   5.058   7.050
 8773POPC   C4A56070  18.292   5.077   7.350
 8773POPC   C1B56071  18.218   4.843   6.450
 8773POPC   C2B56072  18.218   4.892   6.750
 8773POPC   C3B56073  18.229   4.812   7.050
 8773POPC   C4B56074  18.248   4.853   7.350
 8774POPC   NC356075  18.235  41.529   5.550
 8774POPC   PO456076  18.291  41.585   5.850
 8774POPC   GL156077  18.236  41.566   6.150
 8774POPC   GL256078  18.142  41.572   6.150
 8774POPC   C1A56079  18.329  41.513   6.450
 8774POPC   D2A56080  18.260  41.541   6.750
 8774POPC   C3A56081  18.258  41.515   7.050
 8774POPC   C4A56082  18.293  41.523   7.350
 8774POPC   C1B56083  18.047  41.539   6.450
 8774POPC   C2B56084  18.051  41.582   6.750
 8774POPC   C3B56085  18.074  41.574   7.050
 8774POPC   C4B56086  18.062  41.559   7.350
 8775POPC   NC356087  15.958  36.864   5.550
 8775POPC   PO456088  15.926  36.929   5.850
 8775POPC   GL156089  15.956  36.908   6.150
 8775POPC   GL256090  15.869  37.007   6.150
 8775POPC   C1A56091  15.970  36.952   6.450
 8775POPC   D2A56092  15.960  36.903   6.750
 8775POPC   C3A56093  15.943  36.869   7.050
 8775POPC   C4A56094  15.938  36.922   7.350
 8775POPC   C1B56095  15.747  37.091   6.450
 8775POPC   C2B56096  15.739  37.074   6.750
 8775POPC   C3B56097  15.795  37.102   7.050
 8775POPC   C4B56098  15.764  37.088   7.350
 8776POPC   NC356099   9.795  40.781   5.550
 8776POPC   PO456100   9.792  40.793   5.850
 8776POPC   GL156101   9.728  40.764   6.150
 8776POPC   GL256102   9.791  40.876   6.150
 8776POPC   C1A56103   9.764  40.736   6.450
 8776POPC   D2A56104   9.726  40.756   6.750
 8776POPC   C3A56105   9.730  40.785   7.050
 8776POPC   C4A56106   9.794  40.763   7.350
 8776POPC   C1B56107   9.883  40.987   6.450
 8776POPC   C2B56108   9.856  41.066   6.750
 8776POPC   C3B56109   9.857  41.000   7.050
 8776POPC   C4B56110   9.803  41.034   7.350
 8777POPC   NC356111  43.143   4.363   5.550
 8777POPC   PO456112  43.103   4.314   5.850
 8777POPC   GL156113  43.149   4.334   6.150
 8777POPC   GL256114  43.013   4.418   6.150
 8777POPC   C1A56115  43.096   4.362   6.450
 8777POPC   D2A56116  43.104   4.360   6.750
 8777POPC   C3A56117  43.135   4.360   7.050
 8777POPC   C4A56118  43.096   4.353   7.350
 8777POPC   C1B56119  42.988   4.486   6.450
 8777POPC   C2B56120  42.979   4.574   6.750
 8777POPC   C3B56121  42.969   4.552   7.050
 8777POPC   C4B56122  42.975   4.558   7.350
 8778POPC   NC356123  43.153  17.527   5.550
 8778POPC   PO456124  43.116  17.539   5.850
 8778POPC   GL156125  43.076  17.460   6.150
 8778POPC   GL256126  43.029  17.426   6.150
 8778POPC   C1A56127  43.109  17.492   6.450
 8778POPC   D2A56128  43.065  17.497   6.750
 8778POPC   C3A56129  43.129  17.554   7.050
 8778POPC   C4A56130  43.081  17.478   7.350
 8778POPC   C1B56131  42.942  17.396   6.450
 8778POPC   C2B56132  42.877  17.353   6.750
 8778POPC   C3B56133  42.914  17.379   7.050
 8778POPC   C4B56134  42.859  17.395   7.350
 8779POPC   NC356135  34.624   1.993   5.550
 8779POPC   PO456136  34.535   1.989   5.850
 8779POPC   GL156137  34.624   2.030   6.150
 8779POPC   GL256138  34.613   1.853   6.150
 8779POPC   C1A56139  34.575   1.993   6.450
 8779POPC   D2A56140  34.561   2.014   6.750
 8779POPC   C3A56141  34.622   1.955   7.050
 8779POPC   C4A56142  34.622   2.015   7.350
 8779POPC   C1B56143  34.703   1.846   6.450
 8779POPC   C2B56144  34.792   1.805   6.750
 8779POPC   C3B56145  34.739   1.776   7.050
 8779POPC   C4B56146  34.738   1.832   7.350
 8780POPC   NC356147  22.898  20.640   5.550
 8780POPC   PO456148  22.939  20.655   5.850
 8780POPC   GL156149  22.962  20.647   6.150
 8780POPC   GL256150  23.062  20.729   6.150
 8780POPC   C1A56151  22.901  20.621   6.450
 8780POPC   D2A56152  22.893  20.626   6.750
 8780POPC   C3A56153  22.980  20.654   7.050
 8780POPC   C4A56154  22.949  20.649   7.350
 8780POPC   C1B56155  23.060  20.745   6.450
 8780POPC   C2B56156  23.140  20.829   6.750
 8780POPC   C3B56157  23.094  20.768   7.050
 8780POPC   C4B56158  23.073  20.760   7.350
 8781POPC   NC356159  42.322  24.498   5.550
 8781POPC   PO456160  42.371  24.529   5.850
 8781POPC   GL156161  42.335  24.524   6.150
 8781POPC   GL256162  42.352  24.424   6.150
 8781POPC   C1A56163  42.344  24.512   6.450
 8781POPC   D2A56164  42.347  24.460   6.750
 8781POPC   C3A56165  42.344  24.466   7.050
 8781POPC   C4A56166  42.320  24.466   7.350
 8781POPC   C1B56167  42.449  24.237   6.450
 8781POPC   C2B56168  42.467  24.278   6.750
 8781POPC   C3B56169  42.441  24.288   7.050
 8781POPC   C4B56170  42.401  24.245   7.350
 8782POPC   NC356171   1.940   3.528   5.550
 8782POPC   PO456172   2.009   3.519   5.850
 8782POPC   GL156173   1.979   3.492   6.150
 8782POPC   GL256174   2.089   3.661   6.150
 8782POPC   C1A56175   2.002   3.544   6.450
 8782POPC   D2A56176   1.977   3.512   6.750
 8782POPC   C3A56177   1.946   3.577   7.050
 8782POPC   C4A56178   2.018   3.514   7.350
 8782POPC   C1B56179   2.219   3.714   6.450
 8782POPC   C2B56180   2.186   3.674   6.750
 8782POPC   C3B56181   2.229   3.646   7.050
 8782POPC   C4B56182   2.190   3.726   7.350
 8783POPC   NC356183  18.266  44.662   5.550
 8783POPC   PO456184  18.315  44.668   5.850
 8783POPC   GL156185  18.241  44.654   6.150
 8783POPC   GL256186  18.198  44.692   6.150
 8783POPC   C1A56187  18.310  44.689   6.450
 8783POPC   D2A56188  18.239  44.612   6.750
 8783POPC   C3A56189  18.245  44.625   7.050
 8783POPC   C4A56190  18.252  44.665   7.350
 8783POPC   C1B56191  18.071  44.795   6.450
 8783POPC   C2B56192  18.069  44.844   6.750
 8783POPC   C3B56193  18.108  44.826   7.050
 8783POPC   C4B56194  18.101  44.772   7.350
 8784POPC   NC356195  43.123   1.987   5.550
 8784POPC   PO456196  43.098   2.034   5.850
 8784POPC   GL156197  43.100   2.004   6.150
 8784POPC   GL256198  43.217   1.903   6.150
 8784POPC   C1A56199  43.147   1.953   6.450
 8784POPC   D2A56200  43.095   1.977   6.750
 8784POPC   C3A56201  43.079   1.954   7.050
 8784POPC   C4A56202  43.080   1.948   7.350
 8784POPC   C1B56203  43.309   1.879   6.450
 8784POPC   C2B56204  43.317   1.823   6.750
 8784POPC   C3B56205  43.366   1.807   7.050
 8784POPC   C4B56206  43.347   1.885   7.350
 8785POPC   NC356207  12.032  34.622   5.550
 8785POPC   PO456208  12.119  34.556   5.850
 8785POPC   GL156209  12.114  34.618   6.150
 8785POPC   GL256210  12.080  34.416   6.150
 8785POPC   C1A56211  12.099  34.591   6.450
 8785POPC   D2A56212  12.071  34.535   6.750
 8785POPC   C3A56213  12.081  34.534   7.050
 8785POPC   C4A56214  12.089  34.553   7.350
 8785POPC   C1B56215  12.039  34.339   6.450
 8785POPC   C2B56216  12.099  34.326   6.750
 8785POPC   C3B56217  12.104  34.366   7.050
 8785POPC   C4B56218  12.128  34.324   7.350
 8786POPC   NC356219   8.998   8.934   5.550
 8786POPC   PO456220   8.984   8.978   5.850
 8786POPC   GL156221   8.972   8.980   6.150
 8786POPC   GL256222   8.825   8.966   6.150
 8786POPC   C1A56223   8.978   8.923   6.450
 8786POPC   D2A56224   8.976   9.006   6.750
 8786POPC   C3A56225   8.937   9.000   7.050
 8786POPC   C4A56226   8.991   8.994   7.350
 8786POPC   C1B56227   8.756   9.052   6.450
 8786POPC   C2B56228   8.730   9.062   6.750
 8786POPC   C3B56229   8.704   9.073   7.050
 8786POPC   C4B56230   8.767   9.043   7.350
 8787POPC   NC356231  42.289  42.380   5.550
 8787POPC   PO456232  42.322  42.344   5.850
 8787POPC   GL156233  42.323  42.319   6.150
 8787POPC   GL256234  42.465  42.329   6.150
 8787POPC   C1A56235  42.295  42.313   6.450
 8787POPC   D2A56236  42.303  42.287   6.750
 8787POPC   C3A56237  42.312  42.358   7.050
 8787POPC   C4A56238  42.384  42.371   7.350
 8787POPC   C1B56239  42.628  42.271   6.450
 8787POPC   C2B56240  42.577  42.293   6.750
 8787POPC   C3B56241  42.545  42.259   7.050
 8787POPC   C4B56242  42.571  42.331   7.350
 8788POPC   NC356243  33.021  29.919   5.550
 8788POPC   PO456244  33.032  29.919   5.850
 8788POPC   GL156245  32.989  29.966   6.150
 8788POPC   GL256246  33.054  30.028   6.150
 8788POPC   C1A56247  33.025  29.952   6.450
 8788POPC   D2A56248  33.022  29.873   6.750
 8788POPC   C3A56249  33.041  29.960   7.050
 8788POPC   C4A56250  32.993  29.917   7.350
 8788POPC   C1B56251  33.076  30.196   6.450
 8788POPC   C2B56252  33.106  30.135   6.750
 8788POPC   C3B56253  33.086  30.207   7.050
 8788POPC   C4B56254  33.106  30.143   7.350
 8789POPC   NC356255  29.176  40.767   5.550
 8789POPC   PO456256  29.111  40.793   5.850
 8789POPC   GL156257  29.101  40.823   6.150
 8789POPC   GL256258  28.994  40.777   6.150
 8789POPC   C1A56259  29.103  40.794   6.450
 8789POPC   D2A56260  29.109  40.817   6.750
 8789POPC   C3A56261  29.187  40.774   7.050
 8789POPC   C4A56262  29.135  40.766   7.350
 8789POPC   C1B56263  28.854  40.779   6.450
 8789POPC   C2B56264  28.896  40.758   6.750
 8789POPC   C3B56265  28.936  40.724   7.050
 8789POPC   C4B56266  28.877  40.700   7.350
 8790POPC   NC356267   2.764  13.623   5.550
 8790POPC   PO456268   2.728  13.635   5.850
 8790POPC   GL156269   2.798  13.580   6.150
 8790POPC   GL256270   2.884  13.603   6.150
 8790POPC   C1A56271   2.718  13.581   6.450
 8790POPC   D2A56272   2.718  13.636   6.750
 8790POPC   C3A56273   2.807  13.637   7.050
 8790POPC   C4A56274   2.815  13.579   7.350
 8790POPC   C1B56275   2.983  13.685   6.450
 8790POPC   C2B56276   3.055  13.673   6.750
 8790POPC   C3B56277   3.023  13.616   7.050
 8790POPC   C4B56278   3.046  13.653   7.350
 8791POPC   NC356279   8.195  36.162   5.550
 8791POPC   PO456280   8.191  36.133   5.850
 8791POPC   GL156281   8.204  36.161   6.150
 8791POPC   GL256282   8.303  36.211   6.150
 8791POPC   C1A56283   8.180  36.103   6.450
 8791POPC   D2A56284   8.236  36.116   6.750
 8791POPC   C3A56285   8.234  36.095   7.050
 8791POPC   C4A56286   8.162  36.098   7.350
 8791POPC   C1B56287   8.388  36.245   6.450
 8791POPC   C2B56288   8.369  36.204   6.750
 8791POPC   C3B56289   8.424  36.235   7.050
 8791POPC   C4B56290   8.442  36.218   7.350
 8792POPC   NC356291  44.664  31.459   5.550
 8792POPC   PO456292  44.708  31.424   5.850
 8792POPC   GL156293  44.622  31.489   6.150
 8792POPC   GL256294  44.752  31.454   6.150
 8792POPC   C1A56295  44.706  31.431   6.450
 8792POPC   D2A56296  44.644  31.473   6.750
 8792POPC   C3A56297  44.621  31.492   7.050
 8792POPC   C4A56298  44.668  31.515   7.350
 8792POPC   C1B56299  44.897  31.441   6.450
 8792POPC   C2B56300  44.939  31.364   6.750
 8792POPC   C3B56301  44.947  31.398   7.050
 8792POPC   C4B56302  44.936  31.365   7.350
 8793POPC   NC356303  32.287  33.831   5.550
 8793POPC   PO456304  32.202  33.813   5.850
 8793POPC   GL156305  32.210  33.802   6.150
 8793POPC   GL256306  32.151  33.681   6.150
 8793POPC   C1A56307  32.277  33.805   6.450
 8793POPC   D2A56308  32.252  33.833   6.750
 8793POPC   C3A56309  32.289  33.751   7.050
 8793POPC   C4A56310  32.257  33.789   7.350
 8793POPC   C1B56311  32.066  33.633   6.450
 8793POPC   C2B56312  32.066  33.596   6.750
 8793POPC   C3B56313  32.124  33.595   7.050
 8793POPC   C4B56314  32.112  33.609   7.350
 8794POPC   NC356315  19.021   0.449   5.550
 8794POPC   PO456316  19.046   0.410   5.850
 8794POPC   GL156317  19.042   0.460   6.150
 8794POPC   GL256318  19.055   0.541   6.150
 8794POPC   C1A56319  19.053   0.391   6.450
 8794POPC   D2A56320  19.037   0.420   6.750
 8794POPC   C3A56321  19.050   0.442   7.050
 8794POPC   C4A56322  19.063   0.392   7.350
 8794POPC   C1B56323  19.089   0.649   6.450
 8794POPC   C2B56324  19.092   0.732   6.750
 8794POPC   C3B56325  19.122   0.668   7.050
 8794POPC   C4B56326  19.132   0.665   7.350
 8795POPC   NC356327  14.381  40.019   5.550
 8795POPC   PO456328  14.370  40.014   5.850
 8795POPC   GL156329  14.376  39.976   6.150
 8795POPC   GL256330  14.323  40.056   6.150
 8795POPC   C1A56331  14.381  40.038   6.450
 8795POPC   D2A56332  14.403  39.960   6.750
 8795POPC   C3A56333  14.405  40.004   7.050
 8795POPC   C4A56334  14.385  40.019   7.350
 8795POPC   C1B56335  14.142  40.174   6.450
 8795POPC   C2B56336  14.137  40.078   6.750
 8795POPC   C3B56337  14.205  40.120   7.050
 8795POPC   C4B56338  14.187  40.148   7.350
 8796POPC   NC356339   8.218  31.438   5.550
 8796POPC   PO456340   8.149  31.447   5.850
 8796POPC   GL156341   8.179  31.493   6.150
 8796POPC   GL256342   8.258  31.545   6.150
 8796POPC   C1A56343   8.180  31.472   6.450
 8796POPC   D2A56344   8.207  31.459   6.750
 8796POPC   C3A56345   8.222  31.430   7.050
 8796POPC   C4A56346   8.200  31.426   7.350
 8796POPC   C1B56347   8.441  31.625   6.450
 8796POPC   C2B56348   8.371  31.577   6.750
 8796POPC   C3B56349   8.423  31.656   7.050
 8796POPC   C4B56350   8.372  31.628   7.350
 8797POPC   NC356351   2.721  12.064   5.550
 8797POPC   PO456352   2.716  12.051   5.850
 8797POPC   GL156353   2.720  12.066   6.150
 8797POPC   GL256354   2.821  11.936   6.150
 8797POPC   C1A56355   2.809  12.107   6.450
 8797POPC   D2A56356   2.722  12.060   6.750
 8797POPC   C3A56357   2.807  12.032   7.050
 8797POPC   C4A56358   2.777  12.041   7.350
 8797POPC   C1B56359   2.764  11.793   6.450
 8797POPC   C2B56360   2.783  11.836   6.750
 8797POPC   C3B56361   2.744  11.866   7.050
 8797POPC   C4B56362   2.771  11.854   7.350
 8798POPC   NC356363  38.489   1.232   5.550
 8798POPC   PO456364  38.475   1.234   5.850
 8798POPC   GL156365  38.492   1.205   6.150
 8798POPC   GL256366  38.602   1.126   6.150
 8798POPC   C1A56367  38.442   1.175   6.450
 8798POPC   D2A56368  38.491   1.175   6.750
 8798POPC   C3A56369  38.459   1.232   7.050
 8798POPC   C4A56370  38.474   1.176   7.350
 8798POPC   C1B56371  38.727   1.087   6.450
 8798POPC   C2B56372  38.679   1.092   6.750
 8798POPC   C3B56373  38.729   1.151   7.050
 8798POPC   C4B56374  38.677   1.096   7.350
 8799POPC   NC356375   3.570  14.433   5.550
 8799POPC   PO456376   3.527  14.382   5.850
 8799POPC   GL156377   3.502  14.432   6.150
 8799POPC   GL256378   3.394  14.448   6.150
 8799POPC   C1A56379   3.574  14.379   6.450
 8799POPC   D2A56380   3.557  14.384   6.750
 8799POPC   C3A56381   3.561  14.377   7.050
 8799POPC   C4A56382   3.588  14.376   7.350
 8799POPC   C1B56383   3.315  14.436   6.450
 8799POPC   C2B56384   3.334  14.383   6.750
 8799POPC   C3B56385   3.247  14.481   7.050
 8799POPC   C4B56386   3.311  14.429   7.350
 8800POPC   NC356387  20.650  30.727   5.550
 8800POPC   PO456388  20.585  30.698   5.850
 8800POPC   GL156389  20.653  30.691   6.150
 8800POPC   GL256390  20.698  30.804   6.150
 8800POPC   C1A56391  20.629  30.647   6.450
 8800POPC   D2A56392  20.563  30.743   6.750
 8800POPC   C3A56393  20.602  30.722   7.050
 8800POPC   C4A56394  20.636  30.666   7.350
 8800POPC   C1B56395  20.832  30.904   6.450
 8800POPC   C2B56396  20.751  30.896   6.750
 8800POPC   C3B56397  20.806  30.898   7.050
 8800POPC   C4B56398  20.768  30.875   7.350
 8801POPC   NC356399  27.581  38.502   5.550
 8801POPC   PO456400  27.634  38.432   5.850
 8801POPC   GL156401  27.600  38.483   6.150
 8801POPC   GL256402  27.667  38.571   6.150
 8801POPC   C1A56403  27.629  38.406   6.450
 8801POPC   D2A56404  27.594  38.451   6.750
 8801POPC   C3A56405  27.610  38.496   7.050
 8801POPC   C4A56406  27.606  38.500   7.350
 8801POPC   C1B56407  27.775  38.665   6.450
 8801POPC   C2B56408  27.774  38.653   6.750
 8801POPC   C3B56409  27.768  38.660   7.050
 8801POPC   C4B56410  27.739  38.624   7.350
 8802POPC   NC356411  11.255  35.359   5.550
 8802POPC   PO456412  11.288  35.336   5.850
 8802POPC   GL156413  11.348  35.401   6.150
 8802POPC   GL256414  11.449  35.384   6.150
 8802POPC   C1A56415  11.345  35.314   6.450
 8802POPC   D2A56416  11.302  35.324   6.750
 8802POPC   C3A56417  11.290  35.333   7.050
 8802POPC   C4A56418  11.331  35.334   7.350
 8802POPC   C1B56419  11.470  35.503   6.450
 8802POPC   C2B56420  11.521  35.524   6.750
 8802POPC   C3B56421  11.512  35.502   7.050
 8802POPC   C4B56422  11.481  35.465   7.350
 8803POPC   NC356423  26.796  22.162   5.550
 8803POPC   PO456424  26.845  22.178   5.850
 8803POPC   GL156425  26.857  22.113   6.150
 8803POPC   GL256426  26.967  22.154   6.150
 8803POPC   C1A56427  26.848  22.137   6.450
 8803POPC   D2A56428  26.867  22.152   6.750
 8803POPC   C3A56429  26.867  22.127   7.050
 8803POPC   C4A56430  26.811  22.132   7.350
 8803POPC   C1B56431  27.037  22.190   6.450
 8803POPC   C2B56432  27.093  22.181   6.750
 8803POPC   C3B56433  27.113  22.218   7.050
 8803POPC   C4B56434  27.049  22.203   7.350
 8804POPC   NC356435  19.084  19.812   5.550
 8804POPC   PO456436  19.083  19.802   5.850
 8804POPC   GL156437  19.028  19.827   6.150
 8804POPC   GL256438  19.034  19.688   6.150
 8804POPC   C1A56439  19.090  19.881   6.450
 8804POPC   D2A56440  19.089  19.797   6.750
 8804POPC   C3A56441  19.038  19.845   7.050
 8804POPC   C4A56442  19.011  19.810   7.350
 8804POPC   C1B56443  19.098  19.609   6.450
 8804POPC   C2B56444  19.070  19.609   6.750
 8804POPC   C3B56445  19.065  19.564   7.050
 8804POPC   C4B56446  19.060  19.608   7.350
 8805POPC   NC356447  43.130   8.239   5.550
 8805POPC   PO456448  43.083   8.229   5.850
 8805POPC   GL156449  43.156   8.239   6.150
 8805POPC   GL256450  43.086   8.316   6.150
 8805POPC   C1A56451  43.127   8.190   6.450
 8805POPC   D2A56452  43.102   8.204   6.750
 8805POPC   C3A56453  43.130   8.183   7.050
 8805POPC   C4A56454  43.160   8.199   7.350
 8805POPC   C1B56455  43.106   8.492   6.450
 8805POPC   C2B56456  43.098   8.427   6.750
 8805POPC   C3B56457  43.098   8.484   7.050
 8805POPC   C4B56458  43.187   8.404   7.350
 8806POPC   NC356459  35.386  13.587   5.550
 8806POPC   PO456460  35.316  13.606   5.850
 8806POPC   GL156461  35.318  13.651   6.150
 8806POPC   GL256462  35.275  13.725   6.150
 8806POPC   C1A56463  35.370  13.671   6.450
 8806POPC   D2A56464  35.372  13.659   6.750
 8806POPC   C3A56465  35.376  13.645   7.050
 8806POPC   C4A56466  35.324  13.578   7.350
 8806POPC   C1B56467  35.189  13.749   6.450
 8806POPC   C2B56468  35.170  13.772   6.750
 8806POPC   C3B56469  35.119  13.829   7.050
 8806POPC   C4B56470  35.131  13.760   7.350
 8807POPC   NC356471  29.885  13.620   5.550
 8807POPC   PO456472  29.918  13.641   5.850
 8807POPC   GL156473  29.911  13.579   6.150
 8807POPC   GL256474  29.954  13.741   6.150
 8807POPC   C1A56475  29.879  13.670   6.450
 8807POPC   D2A56476  29.927  13.601   6.750
 8807POPC   C3A56477  29.941  13.616   7.050
 8807POPC   C4A56478  29.909  13.594   7.350
 8807POPC   C1B56479  29.920  13.897   6.450
 8807POPC   C2B56480  29.878  13.886   6.750
 8807POPC   C3B56481  29.873  13.868   7.050
 8807POPC   C4B56482  29.874  13.839   7.350
 8808POPC   NC356483   1.249  25.278   5.550
 8808POPC   PO456484   1.221  25.220   5.850
 8808POPC   GL156485   1.224  25.305   6.150
 8808POPC   GL256486   1.095  25.233   6.150
 8808POPC   C1A56487   1.176  25.267   6.450
 8808POPC   D2A56488   1.228  25.279   6.750
 8808POPC   C3A56489   1.209  25.282   7.050
 8808POPC   C4A56490   1.210  25.263   7.350
 8808POPC   C1B56491   1.021  25.105   6.450
 8808POPC   C2B56492   1.012  25.141   6.750
 8808POPC   C3B56493   0.990  25.169   7.050
 8808POPC   C4B56494   0.976  25.073   7.350
 8809POPC   NC356495   1.220  38.439   5.550
 8809POPC   PO456496   1.220  38.489   5.850
 8809POPC   GL156497   1.253  38.490   6.150
 8809POPC   GL256498   1.074  38.474   6.150
 8809POPC   C1A56499   1.169  38.412   6.450
 8809POPC   D2A56500   1.191  38.466   6.750
 8809POPC   C3A56501   1.241  38.469   7.050
 8809POPC   C4A56502   1.207  38.447   7.350
 8809POPC   C1B56503   1.023  38.556   6.450
 8809POPC   C2B56504   0.964  38.527   6.750
 8809POPC   C3B56505   0.993  38.579   7.050
 8809POPC   C4B56506   1.003  38.522   7.350
 8810POPC   NC356507  26.024  40.000   5.550
 8810POPC   PO456508  26.006  40.024   5.850
 8810POPC   GL156509  26.037  39.965   6.150
 8810POPC   GL256510  26.143  39.967   6.150
 8810POPC   C1A56511  26.039  40.051   6.450
 8810POPC   D2A56512  26.079  39.975   6.750
 8810POPC   C3A56513  26.060  39.997   7.050
 8810POPC   C4A56514  26.020  40.052   7.350
 8810POPC   C1B56515  26.276  39.888   6.450
 8810POPC   C2B56516  26.217  39.834   6.750
 8810POPC   C3B56517  26.223  39.921   7.050
 8810POPC   C4B56518  26.302  39.837   7.350
 8811POPC   NC356519  17.499   3.582   5.550
 8811POPC   PO456520  17.515   3.535   5.850
 8811POPC   GL156521  17.458   3.569   6.150
 8811POPC   GL256522  17.635   3.548   6.150
 8811POPC   C1A56523  17.464   3.496   6.450
 8811POPC   D2A56524  17.533   3.531   6.750
 8811POPC   C3A56525  17.468   3.507   7.050
 8811POPC   C4A56526  17.528   3.590   7.350
 8811POPC   C1B56527  17.763   3.550   6.450
 8811POPC   C2B56528  17.732   3.555   6.750
 8811POPC   C3B56529  17.765   3.578   7.050
 8811POPC   C4B56530  17.788   3.534   7.350
 8812POPC   NC356531  37.659  26.795   5.550
 8812POPC   PO456532  37.642  26.822   5.850
 8812POPC   GL156533  37.662  26.817   6.150
 8812POPC   GL256534  37.796  26.765   6.150
 8812POPC   C1A56535  37.642  26.791   6.450
 8812POPC   D2A56536  37.702  26.833   6.750
 8812POPC   C3A56537  37.709  26.826   7.050
 8812POPC   C4A56538  37.689  26.811   7.350
 8812POPC   C1B56539  37.953  26.837   6.450
 8812POPC   C2B56540  37.963  26.807   6.750
 8812POPC   C3B56541  37.914  26.774   7.050
 8812POPC   C4B56542  37.907  26.819   7.350
 8813POPC   NC356543  42.323   3.582   5.550
 8813POPC   PO456544  42.356   3.566   5.850
 8813POPC   GL156545  42.345   3.507   6.150
 8813POPC   GL256546  42.377   3.373   6.150
 8813POPC   C1A56547  42.309   3.509   6.450
 8813POPC   D2A56548  42.303   3.524   6.750
 8813POPC   C3A56549  42.334   3.508   7.050
 8813POPC   C4A56550  42.354   3.502   7.350
 8813POPC   C1B56551  42.336   3.298   6.450
 8813POPC   C2B56552  42.358   3.251   6.750
 8813POPC   C3B56553  42.390   3.282   7.050
 8813POPC   C4B56554  42.310   3.320   7.350
 8814POPC   NC356555  32.237  12.884   5.550
 8814POPC   PO456556  32.202  12.896   5.850
 8814POPC   GL156557  32.205  12.878   6.150
 8814POPC   GL256558  32.338  12.802   6.150
 8814POPC   C1A56559  32.222  12.866   6.450
 8814POPC   D2A56560  32.265  12.898   6.750
 8814POPC   C3A56561  32.203  12.823   7.050
 8814POPC   C4A56562  32.218  12.846   7.350
 8814POPC   C1B56563  32.473  12.766   6.450
 8814POPC   C2B56564  32.527  12.784   6.750
 8814POPC   C3B56565  32.455  12.744   7.050
 8814POPC   C4B56566  32.437  12.779   7.350
 8815POPC   NC356567  33.025   6.598   5.550
 8815POPC   PO456568  33.048   6.691   5.850
 8815POPC   GL156569  33.016   6.626   6.150
 8815POPC   GL256570  33.129   6.586   6.150
 8815POPC   C1A56571  33.008   6.645   6.450
 8815POPC   D2A56572  33.053   6.662   6.750
 8815POPC   C3A56573  33.031   6.662   7.050
 8815POPC   C4A56574  33.009   6.683   7.350
 8815POPC   C1B56575  33.269   6.460   6.450
 8815POPC   C2B56576  33.267   6.478   6.750
 8815POPC   C3B56577  33.223   6.453   7.050
 8815POPC   C4B56578  33.185   6.533   7.350
 8816POPC   NC356579  19.851  26.817   5.550
 8816POPC   PO456580  19.828  26.797   5.850
 8816POPC   GL156581  19.865  26.808   6.150
 8816POPC   GL256582  19.761  26.718   6.150
 8816POPC   C1A56583  19.861  26.844   6.450
 8816POPC   D2A56584  19.875  26.846   6.750
 8816POPC   C3A56585  19.813  26.811   7.050
 8816POPC   C4A56586  19.871  26.864   7.350
 8816POPC   C1B56587  19.604  26.648   6.450
 8816POPC   C2B56588  19.611  26.732   6.750
 8816POPC   C3B56589  19.572  26.688   7.050
 8816POPC   C4B56590  19.643  26.648   7.350
 8817POPC   NC356591  19.084  37.681   5.550
 8817POPC   PO456592  19.100  37.660   5.850
 8817POPC   GL156593  19.062  37.676   6.150
 8817POPC   GL256594  18.974  37.743   6.150
 8817POPC   C1A56595  19.066  37.634   6.450
 8817POPC   D2A56596  19.028  37.719   6.750
 8817POPC   C3A56597  19.045  37.696   7.050
 8817POPC   C4A56598  19.084  37.664   7.350
 8817POPC   C1B56599  18.902  37.876   6.450
 8817POPC   C2B56600  18.889  37.919   6.750
 8817POPC   C3B56601  18.936  37.914   7.050
 8817POPC   C4B56602  18.891  37.926   7.350
 8818POPC   NC356603  40.008  13.676   5.550
 8818POPC   PO456604  40.045  13.592   5.850
 8818POPC   GL156605  40.000  13.579   6.150
 8818POPC   GL256606  40.165  13.583   6.150
 8818POPC   C1A56607  40.055  13.618   6.450
 8818POPC   D2A56608  40.002  13.599   6.750
 8818POPC   C3A56609  39.988  13.594   7.050
 8818POPC   C4A56610  39.966  13.587   7.350
 8818POPC   C1B56611  40.276  13.526   6.450
 8818POPC   C2B56612  40.285  13.574   6.750
 8818POPC   C3B56613  40.276  13.545   7.050
 8818POPC   C4B56614  40.274  13.554   7.350
 8819POPC   NC356615  33.764   6.642   5.550
 8819POPC   PO456616  33.827   6.618   5.850
 8819POPC   GL156617  33.784   6.646   6.150
 8819POPC   GL256618  33.893   6.726   6.150
 8819POPC   C1A56619  33.823   6.686   6.450
 8819POPC   D2A56620  33.844   6.633   6.750
 8819POPC   C3A56621  33.827   6.617   7.050
 8819POPC   C4A56622  33.799   6.656   7.350
 8819POPC   C1B56623  33.975   6.754   6.450
 8819POPC   C2B56624  34.018   6.792   6.750
 8819POPC   C3B56625  34.031   6.834   7.050
 8819POPC   C4B56626  34.007   6.849   7.350
 8820POPC   NC356627  22.973  10.489   5.550
 8820POPC   PO456628  22.935  10.490   5.850
 8820POPC   GL156629  22.893  10.481   6.150
 8820POPC   GL256630  23.104  10.518   6.150
 8820POPC   C1A56631  22.953  10.573   6.450
 8820POPC   D2A56632  22.968  10.494   6.750
 8820POPC   C3A56633  22.911  10.564   7.050
 8820POPC   C4A56634  22.892  10.571   7.350
 8820POPC   C1B56635  23.208  10.476   6.450
 8820POPC   C2B56636  23.187  10.404   6.750
 8820POPC   C3B56637  23.211  10.487   7.050
 8820POPC   C4B56638  23.174  10.475   7.350
 8821POPC   NC356639  18.324   8.983   5.550
 8821POPC   PO456640  18.233   9.000   5.850
 8821POPC   GL156641  18.284   8.948   6.150
 8821POPC   GL256642  18.194   8.963   6.150
 8821POPC   C1A56643  18.271   8.972   6.450
 8821POPC   D2A56644  18.263   8.933   6.750
 8821POPC   C3A56645  18.313   9.002   7.050
 8821POPC   C4A56646  18.306   8.992   7.350
 8821POPC   C1B56647  18.034   8.989   6.450
 8821POPC   C2B56648  18.024   8.926   6.750
 8821POPC   C3B56649  18.025   8.956   7.050
 8821POPC   C4B56650  18.019   8.979   7.350
 8822POPC   NC356651   0.451  15.953   5.550
 8822POPC   PO456652   0.439  15.936   5.850
 8822POPC   GL156653   0.405  15.961   6.150
 8822POPC   GL256654   0.335  16.045   6.150
 8822POPC   C1A56655   0.421  15.944   6.450
 8822POPC   D2A56656   0.432  15.957   6.750
 8822POPC   C3A56657   0.406  15.937   7.050
 8822POPC   C4A56658   0.457  15.979   7.350
 8822POPC   C1B56659   0.316  16.181   6.450
 8822POPC   C2B56660   0.263  16.173   6.750
 8822POPC   C3B56661   0.302  16.200   7.050
 8822POPC   C4B56662   0.271  16.153   7.350
 8823POPC   NC356663  25.288   6.673   5.550
 8823POPC   PO456664  25.291   6.636   5.850
 8823POPC   GL156665  25.277   6.607   6.150
 8823POPC   GL256666  25.265   6.517   6.150
 8823POPC   C1A56667  25.222   6.605   6.450
 8823POPC   D2A56668  25.228   6.694   6.750
 8823POPC   C3A56669  25.265   6.620   7.050
 8823POPC   C4A56670  25.218   6.637   7.350
 8823POPC   C1B56671  25.333   6.408   6.450
 8823POPC   C2B56672  25.347   6.422   6.750
 8823POPC   C3B56673  25.365   6.367   7.050
 8823POPC   C4B56674  25.335   6.400   7.350
 8824POPC   NC356675  40.739  43.924   5.550
 8824POPC   PO456676  40.779  43.888   5.850
 8824POPC   GL156677  40.739  43.870   6.150
 8824POPC   GL256678  40.685  43.949   6.150
 8824POPC   C1A56679  40.815  43.916   6.450
 8824POPC   D2A56680  40.809  43.892   6.750
 8824POPC   C3A56681  40.820  43.878   7.050
 8824POPC   C4A56682  40.756  43.869   7.350
 8824POPC   C1B56683  40.606  44.090   6.450
 8824POPC   C2B56684  40.589  44.111   6.750
 8824POPC   C3B56685  40.599  44.101   7.050
 8824POPC   C4B56686  40.602  44.043   7.350
 8825POPC   NC356687  36.137  13.671   5.550
 8825POPC   PO456688  36.173  13.672   5.850
 8825POPC   GL156689  36.120  13.643   6.150
 8825POPC   GL256690  36.130  13.456   6.150
 8825POPC   C1A56691  36.175  13.675   6.450
 8825POPC   D2A56692  36.089  13.611   6.750
 8825POPC   C3A56693  36.168  13.611   7.050
 8825POPC   C4A56694  36.096  13.671   7.350
 8825POPC   C1B56695  36.069  13.404   6.450
 8825POPC   C2B56696  36.071  13.364   6.750
 8825POPC   C3B56697  36.049  13.414   7.050
 8825POPC   C4B56698  36.066  13.344   7.350
 8826POPC   NC356699   1.199   4.362   5.550
 8826POPC   PO456700   1.217   4.314   5.850
 8826POPC   GL156701   1.205   4.298   6.150
 8826POPC   GL256702   1.361   4.314   6.150
 8826POPC   C1A56703   1.204   4.293   6.450
 8826POPC   D2A56704   1.245   4.315   6.750
 8826POPC   C3A56705   1.214   4.338   7.050
 8826POPC   C4A56706   1.217   4.318   7.350
 8826POPC   C1B56707   1.464   4.347   6.450
 8826POPC   C2B56708   1.432   4.304   6.750
 8826POPC   C3B56709   1.438   4.335   7.050
 8826POPC   C4B56710   1.422   4.296   7.350
 8827POPC   NC356711  26.007  42.308   5.550
 8827POPC   PO456712  26.000  42.366   5.850
 8827POPC   GL156713  26.015  42.358   6.150
 8827POPC   GL256714  26.109  42.196   6.150
 8827POPC   C1A56715  26.030  42.304   6.450
 8827POPC   D2A56716  26.089  42.318   6.750
 8827POPC   C3A56717  26.067  42.374   7.050
 8827POPC   C4A56718  26.057  42.376   7.350
 8827POPC   C1B56719  26.141  42.095   6.450
 8827POPC   C2B56720  26.153  42.138   6.750
 8827POPC   C3B56721  26.139  42.169   7.050
 8827POPC   C4B56722  26.146  42.105   7.350
 8828POPC   NC356723   3.575  28.352   5.550
 8828POPC   PO456724   3.586  28.382   5.850
 8828POPC   GL156725   3.541  28.358   6.150
 8828POPC   GL256726   3.418  28.376   6.150
 8828POPC   C1A56727   3.515  28.378   6.450
 8828POPC   D2A56728   3.581  28.393   6.750
 8828POPC   C3A56729   3.515  28.380   7.050
 8828POPC   C4A56730   3.583  28.341   7.350
 8828POPC   C1B56731   3.315  28.406   6.450
 8828POPC   C2B56732   3.277  28.454   6.750
 8828POPC   C3B56733   3.276  28.448   7.050
 8828POPC   C4B56734   3.285  28.413   7.350
 8829POPC   NC356735   2.729  32.237   5.550
 8829POPC   PO456736   2.755  32.259   5.850
 8829POPC   GL156737   2.759  32.226   6.150
 8829POPC   GL256738   2.877  32.278   6.150
 8829POPC   C1A56739   2.773  32.281   6.450
 8829POPC   D2A56740   2.759  32.289   6.750
 8829POPC   C3A56741   2.784  32.287   7.050
 8829POPC   C4A56742   2.718  32.282   7.350
 8829POPC   C1B56743   2.992  32.379   6.450
 8829POPC   C2B56744   2.992  32.345   6.750
 8829POPC   C3B56745   3.016  32.377   7.050
 8829POPC   C4B56746   2.997  32.367   7.350
 8830POPC   NC356747  19.815  41.593   5.550
 8830POPC   PO456748  19.858  41.590   5.850
 8830POPC   GL156749  19.872  41.605   6.150
 8830POPC   GL256750  19.934  41.649   6.150
 8830POPC   C1A56751  19.814  41.595   6.450
 8830POPC   D2A56752  19.859  41.552   6.750
 8830POPC   C3A56753  19.846  41.521   7.050
 8830POPC   C4A56754  19.792  41.568   7.350
 8830POPC   C1B56755  19.993  41.758   6.450
 8830POPC   C2B56756  20.057  41.747   6.750
 8830POPC   C3B56757  20.067  41.681   7.050
 8830POPC   C4B56758  19.988  41.726   7.350
 8831POPC   NC356759   3.506  26.084   5.550
 8831POPC   PO456760   3.538  26.020   5.850
 8831POPC   GL156761   3.516  26.003   6.150
 8831POPC   GL256762   3.619  26.119   6.150
 8831POPC   C1A56763   3.575  26.078   6.450
 8831POPC   D2A56764   3.501  26.066   6.750
 8831POPC   C3A56765   3.539  26.014   7.050
 8831POPC   C4A56766   3.590  26.026   7.350
 8831POPC   C1B56767   3.642  26.238   6.450
 8831POPC   C2B56768   3.700  26.307   6.750
 8831POPC   C3B56769   3.616  26.247   7.050
 8831POPC   C4B56770   3.695  26.215   7.350
 8832POPC   NC356771  33.070  30.720   5.550
 8832POPC   PO456772  33.046  30.743   5.850
 8832POPC   GL156773  33.021  30.720   6.150
 8832POPC   GL256774  33.120  30.604   6.150
 8832POPC   C1A56775  32.996  30.654   6.450
 8832POPC   D2A56776  33.073  30.703   6.750
 8832POPC   C3A56777  32.986  30.705   7.050
 8832POPC   C4A56778  33.038  30.717   7.350
 8832POPC   C1B56779  33.202  30.597   6.450
 8832POPC   C2B56780  33.291  30.566   6.750
 8832POPC   C3B56781  33.274  30.537   7.050
 8832POPC   C4B56782  33.242  30.581   7.350
 8833POPC   NC356783  10.501  43.855   5.550
 8833POPC   PO456784  10.493  43.888   5.850
 8833POPC   GL156785  10.556  43.930   6.150
 8833POPC   GL256786  10.552  43.738   6.150
 8833POPC   C1A56787  10.522  43.881   6.450
 8833POPC   D2A56788  10.505  43.893   6.750
 8833POPC   C3A56789  10.564  43.919   7.050
 8833POPC   C4A56790  10.486  43.883   7.350
 8833POPC   C1B56791  10.601  43.704   6.450
 8833POPC   C2B56792  10.668  43.635   6.750
 8833POPC   C3B56793  10.606  43.642   7.050
 8833POPC   C4B56794  10.627  43.625   7.350
 8834POPC   NC356795  20.609   3.537   5.550
 8834POPC   PO456796  20.612   3.553   5.850
 8834POPC   GL156797  20.584   3.570   6.150
 8834POPC   GL256798  20.479   3.468   6.150
 8834POPC   C1A56799  20.610   3.497   6.450
 8834POPC   D2A56800  20.659   3.533   6.750
 8834POPC   C3A56801  20.579   3.517   7.050
 8834POPC   C4A56802  20.649   3.541   7.350
 8834POPC   C1B56803  20.385   3.361   6.450
 8834POPC   C2B56804  20.461   3.350   6.750
 8834POPC   C3B56805  20.408   3.384   7.050
 8834POPC   C4B56806  20.377   3.354   7.350
 8835POPC   NC356807   1.210   5.112   5.550
 8835POPC   PO456808   1.186   5.120   5.850
 8835POPC   GL156809   1.263   5.049   6.150
 8835POPC   GL256810   1.375   5.076   6.150
 8835POPC   C1A56811   1.172   5.048   6.450
 8835POPC   D2A56812   1.219   5.090   6.750
 8835POPC   C3A56813   1.255   5.077   7.050
 8835POPC   C4A56814   1.236   5.054   7.350
 8835POPC   C1B56815   1.480   4.955   6.450
 8835POPC   C2B56816   1.395   4.985   6.750
 8835POPC   C3B56817   1.396   4.964   7.050
 8835POPC   C4B56818   1.433   5.037   7.350
 8836POPC   NC356819   5.130  28.368   5.550
 8836POPC   PO456820   5.080  28.379   5.850
 8836POPC   GL156821   5.083  28.337   6.150
 8836POPC   GL256822   4.939  28.379   6.150
 8836POPC   C1A56823   5.138  28.365   6.450
 8836POPC   D2A56824   5.056  28.387   6.750
 8836POPC   C3A56825   5.054  28.391   7.050
 8836POPC   C4A56826   5.099  28.396   7.350
 8836POPC   C1B56827   4.886  28.448   6.450
 8836POPC   C2B56828   4.889  28.474   6.750
 8836POPC   C3B56829   4.840  28.476   7.050
 8836POPC   C4B56830   4.863  28.484   7.350
 8837POPC   NC356831  29.098   3.516   5.550
 8837POPC   PO456832  29.137   3.498   5.850
 8837POPC   GL156833  29.135   3.512   6.150
 8837POPC   GL256834  29.237   3.559   6.150
 8837POPC   C1A56835  29.149   3.564   6.450
 8837POPC   D2A56836  29.109   3.551   6.750
 8837POPC   C3A56837  29.163   3.532   7.050
 8837POPC   C4A56838  29.172   3.573   7.350
 8837POPC   C1B56839  29.378   3.650   6.450
 8837POPC   C2B56840  29.410   3.610   6.750
 8837POPC   C3B56841  29.377   3.611   7.050
 8837POPC   C4B56842  29.365   3.657   7.350
 8838POPC   NC356843   5.116   8.206   5.550
 8838POPC   PO456844   5.142   8.189   5.850
 8838POPC   GL156845   5.132   8.243   6.150
 8838POPC   GL256846   4.994   8.174   6.150
 8838POPC   C1A56847   5.085   8.241   6.450
 8838POPC   D2A56848   5.138   8.204   6.750
 8838POPC   C3A56849   5.061   8.226   7.050
 8838POPC   C4A56850   5.113   8.159   7.350
 8838POPC   C1B56851   4.885   8.298   6.450
 8838POPC   C2B56852   4.804   8.233   6.750
 8838POPC   C3B56853   4.804   8.241   7.050
 8838POPC   C4B56854   4.879   8.226   7.350
 8839POPC   NC356855  23.666  42.351   5.550
 8839POPC   PO456856  23.712  42.357   5.850
 8839POPC   GL156857  23.738  42.352   6.150
 8839POPC   GL256858  23.778  42.291   6.150
 8839POPC   C1A56859  23.699  42.326   6.450
 8839POPC   D2A56860  23.698  42.334   6.750
 8839POPC   C3A56861  23.698  42.332   7.050
 8839POPC   C4A56862  23.754  42.311   7.350
 8839POPC   C1B56863  23.906  42.247   6.450
 8839POPC   C2B56864  23.930  42.236   6.750
 8839POPC   C3B56865  23.918  42.243   7.050
 8839POPC   C4B56866  23.880  42.157   7.350
 8840POPC   NC356867  19.033  22.182   5.550
 8840POPC   PO456868  19.028  22.184   5.850
 8840POPC   GL156869  19.103  22.174   6.150
 8840POPC   GL256870  19.014  22.318   6.150
 8840POPC   C1A56871  19.084  22.169   6.450
 8840POPC   D2A56872  19.029  22.144   6.750
 8840POPC   C3A56873  19.031  22.141   7.050
 8840POPC   C4A56874  19.048  22.129   7.350
 8840POPC   C1B56875  18.929  22.358   6.450
 8840POPC   C2B56876  18.935  22.420   6.750
 8840POPC   C3B56877  18.902  22.373   7.050
 8840POPC   C4B56878  18.896  22.423   7.350
 8841POPC   NC356879  21.391   0.487   5.550
 8841POPC   PO456880  21.403   0.473   5.850
 8841POPC   GL156881  21.342   0.445   6.150
 8841POPC   GL256882  21.314   0.334   6.150
 8841POPC   C1A56883  21.367   0.455   6.450
 8841POPC   D2A56884  21.399   0.469   6.750
 8841POPC   C3A56885  21.378   0.470   7.050
 8841POPC   C4A56886  21.407   0.458   7.350
 8841POPC   C1B56887  21.327   0.195   6.450
 8841POPC   C2B56888  21.362   0.234   6.750
 8841POPC   C3B56889  21.372   0.225   7.050
 8841POPC   C4B56890  21.356   0.208   7.350
 8842POPC   NC356891  38.411   4.350   5.550
 8842POPC   PO456892  38.497   4.323   5.850
 8842POPC   GL156893  38.474   4.308   6.150
 8842POPC   GL256894  38.419   4.418   6.150
 8842POPC   C1A56895  38.439   4.322   6.450
 8842POPC   D2A56896  38.468   4.292   6.750
 8842POPC   C3A56897  38.497   4.275   7.050
 8842POPC   C4A56898  38.433   4.321   7.350
 8842POPC   C1B56899  38.346   4.546   6.450
 8842POPC   C2B56900  38.290   4.548   6.750
 8842POPC   C3B56901  38.290   4.500   7.050
 8842POPC   C4B56902  38.278   4.574   7.350
 8843POPC   NC356903  13.584  15.998   5.550
 8843POPC   PO456904  13.580  15.964   5.850
 8843POPC   GL156905  13.580  15.941   6.150
 8843POPC   GL256906  13.705  16.064   6.150
 8843POPC   C1A56907  13.594  15.934   6.450
 8843POPC   D2A56908  13.588  15.937   6.750
 8843POPC   C3A56909  13.664  15.919   7.050
 8843POPC   C4A56910  13.627  15.937   7.350
 8843POPC   C1B56911  13.709  16.194   6.450
 8843POPC   C2B56912  13.704  16.216   6.750
 8843POPC   C3B56913  13.711  16.163   7.050
 8843POPC   C4B56914  13.645  16.153   7.350
 8844POPC   NC356915   1.996  19.072   5.550
 8844POPC   PO456916   1.958  19.038   5.850
 8844POPC   GL156917   1.997  19.032   6.150
 8844POPC   GL256918   2.032  18.927   6.150
 8844POPC   C1A56919   2.019  19.041   6.450
 8844POPC   D2A56920   1.991  19.107   6.750
 8844POPC   C3A56921   2.011  19.102   7.050
 8844POPC   C4A56922   1.988  19.018   7.350
 8844POPC   C1B56923   2.153  18.800   6.450
 8844POPC   C2B56924   2.082  18.813   6.750
 8844POPC   C3B56925   2.111  18.842   7.050
 8844POPC   C4B56926   2.079  18.851   7.350
 8845POPC   NC356927   9.756  30.661   5.550
 8845POPC   PO456928   9.740  30.691   5.850
 8845POPC   GL156929   9.752  30.697   6.150
 8845POPC   GL256930   9.697  30.639   6.150
 8845POPC   C1A56931   9.794  30.669   6.450
 8845POPC   D2A56932   9.790  30.669   6.750
 8845POPC   C3A56933   9.768  30.656   7.050
 8845POPC   C4A56934   9.774  30.720   7.350
 8845POPC   C1B56935   9.523  30.481   6.450
 8845POPC   C2B56936   9.577  30.474   6.750
 8845POPC   C3B56937   9.539  30.567   7.050
 8845POPC   C4B56938   9.540  30.481   7.350
 8846POPC   NC356939  19.071  27.611   5.550
 8846POPC   PO456940  19.038  27.569   5.850
 8846POPC   GL156941  19.054  27.583   6.150
 8846POPC   GL256942  19.018  27.731   6.150
 8846POPC   C1A56943  19.061  27.631   6.450
 8846POPC   D2A56944  19.029  27.629   6.750
 8846POPC   C3A56945  19.032  27.561   7.050
 8846POPC   C4A56946  19.061  27.589   7.350
 8846POPC   C1B56947  19.070  27.801   6.450
 8846POPC   C2B56948  19.005  27.807   6.750
 8846POPC   C3B56949  19.079  27.884   7.050
 8846POPC   C4B56950  19.085  27.851   7.350
 8847POPC   NC356951  19.802  12.104   5.550
 8847POPC   PO456952  19.847  12.090   5.850
 8847POPC   GL156953  19.871  12.085   6.150
 8847POPC   GL256954  19.713  12.071   6.150
 8847POPC   C1A56955  19.864  12.081   6.450
 8847POPC   D2A56956  19.872  12.085   6.750
 8847POPC   C3A56957  19.865  12.071   7.050
 8847POPC   C4A56958  19.852  12.122   7.350
 8847POPC   C1B56959  19.555  12.192   6.450
 8847POPC   C2B56960  19.596  12.097   6.750
 8847POPC   C3B56961  19.568  12.138   7.050
 8847POPC   C4B56962  19.635  12.102   7.350
 8848POPC   NC356963   0.407  25.235   5.550
 8848POPC   PO456964   0.446  25.310   5.850
 8848POPC   GL156965   0.410  25.296   6.150
 8848POPC   GL256966   0.508  25.155   6.150
 8848POPC   C1A56967   0.390  25.295   6.450
 8848POPC   D2A56968   0.465  25.262   6.750
 8848POPC   C3A56969   0.455  25.284   7.050
 8848POPC   C4A56970   0.468  25.248   7.350
 8848POPC   C1B56971   0.581  25.064   6.450
 8848POPC   C2B56972   0.586  25.085   6.750
 8848POPC   C3B56973   0.618  25.147   7.050
 8848POPC   C4B56974   0.626  25.103   7.350
 8849POPC   NC356975   6.613  28.376   5.550
 8849POPC   PO456976   6.685  28.325   5.850
 8849POPC   GL156977   6.618  28.352   6.150
 8849POPC   GL256978   6.772  28.462   6.150
 8849POPC   C1A56979   6.670  28.388   6.450
 8849POPC   D2A56980   6.609  28.351   6.750
 8849POPC   C3A56981   6.624  28.326   7.050
 8849POPC   C4A56982   6.635  28.381   7.350
 8849POPC   C1B56983   6.846  28.521   6.450
 8849POPC   C2B56984   6.831  28.523   6.750
 8849POPC   C3B56985   6.809  28.494   7.050
 8849POPC   C4B56986   6.859  28.565   7.350
 8850POPC   NC356987   1.262  32.261   5.550
 8850POPC   PO456988   1.253  32.243   5.850
 8850POPC   GL156989   1.255  32.287   6.150
 8850POPC   GL256990   1.182  32.136   6.150
 8850POPC   C1A56991   1.179  32.228   6.450
 8850POPC   D2A56992   1.202  32.234   6.750
 8850POPC   C3A56993   1.251  32.254   7.050
 8850POPC   C4A56994   1.180  32.231   7.350
 8850POPC   C1B56995   1.038  32.045   6.450
 8850POPC   C2B56996   1.120  32.039   6.750
 8850POPC   C3B56997   1.073  32.013   7.050
 8850POPC   C4B56998   1.086  32.013   7.350
 8851POPC   NC356999   7.434  39.215   5.550
 8851POPC   PO457000   7.434  39.187   5.850
 8851POPC   GL157001   7.382  39.279   6.150
 8851POPC   GL257002   7.415  39.059   6.150
 8851POPC   C1A57003   7.435  39.233   6.450
 8851POPC   D2A57004   7.392  39.199   6.750
 8851POPC   C3A57005   7.449  39.194   7.050
 8851POPC   C4A57006   7.395  39.206   7.350
 8851POPC   C1B57007   7.457  38.956   6.450
 8851POPC   C2B57008   7.387  38.985   6.750
 8851POPC   C3B57009   7.419  38.958   7.050
 8851POPC   C4B57010   7.465  38.952   7.350
 8852POPC   NC357011  22.894  17.479   5.550
 8852POPC   PO457012  22.894  17.467   5.850
 8852POPC   GL157013  22.901  17.507   6.150
 8852POPC   GL257014  22.976  17.404   6.150
 8852POPC   C1A57015  22.955  17.466   6.450
 8852POPC   D2A57016  22.954  17.519   6.750
 8852POPC   C3A57017  22.963  17.472   7.050
 8852POPC   C4A57018  22.943  17.495   7.350
 8852POPC   C1B57019  23.107  17.346   6.450
 8852POPC   C2B57020  23.121  17.300   6.750
 8852POPC   C3B57021  23.057  17.277   7.050
 8852POPC   C4B57022  23.104  17.329   7.350
 8853POPC   NC357023  23.730   7.456   5.550
 8853POPC   PO457024  23.737   7.468   5.850
 8853POPC   GL157025  23.690   7.446   6.150
 8853POPC   GL257026  23.711   7.534   6.150
 8853POPC   C1A57027  23.699   7.464   6.450
 8853POPC   D2A57028  23.673   7.458   6.750
 8853POPC   C3A57029  23.665   7.398   7.050
 8853POPC   C4A57030  23.695   7.429   7.350
 8853POPC   C1B57031  23.675   7.692   6.450
 8853POPC   C2B57032  23.689   7.670   6.750
 8853POPC   C3B57033  23.709   7.681   7.050
 8853POPC   C4B57034  23.638   7.704   7.350
 8854POPC   NC357035  22.985  41.543   5.550
 8854POPC   PO457036  22.971  41.512   5.850
 8854POPC   GL157037  22.945  41.587   6.150
 8854POPC   GL257038  22.990  41.474   6.150
 8854POPC   C1A57039  22.921  41.604   6.450
 8854POPC   D2A57040  22.929  41.535   6.750
 8854POPC   C3A57041  22.983  41.516   7.050
 8854POPC   C4A57042  22.943  41.563   7.350
 8854POPC   C1B57043  23.151  41.370   6.450
 8854POPC   C2B57044  23.143  41.367   6.750
 8854POPC   C3B57045  23.089  41.379   7.050
 8854POPC   C4B57046  23.104  41.360   7.350
 8855POPC   NC357047  26.784  26.822   5.550
 8855POPC   PO457048  26.795  26.777   5.850
 8855POPC   GL157049  26.803  26.800   6.150
 8855POPC   GL257050  26.828  26.690   6.150
 8855POPC   C1A57051  26.850  26.856   6.450
 8855POPC   D2A57052  26.821  26.810   6.750
 8855POPC   C3A57053  26.846  26.828   7.050
 8855POPC   C4A57054  26.797  26.791   7.350
 8855POPC   C1B57055  26.939  26.615   6.450
 8855POPC   C2B57056  26.931  26.546   6.750
 8855POPC   C3B57057  26.861  26.556   7.050
 8855POPC   C4B57058  26.876  26.607   7.350
 8856POPC   NC357059   1.254  43.101   5.550
 8856POPC   PO457060   1.197  43.097   5.850
 8856POPC   GL157061   1.225  43.115   6.150
 8856POPC   GL257062   1.200  42.983   6.150
 8856POPC   C1A57063   1.248  43.130   6.450
 8856POPC   D2A57064   1.257  43.131   6.750
 8856POPC   C3A57065   1.237  43.129   7.050
 8856POPC   C4A57066   1.169  43.145   7.350
 8856POPC   C1B57067   1.156  42.912   6.450
 8856POPC   C2B57068   1.115  42.906   6.750
 8856POPC   C3B57069   1.141  42.888   7.050
 8856POPC   C4B57070   1.162  42.892   7.350
 8857POPC   NC357071  31.490  20.655   5.550
 8857POPC   PO457072  31.443  20.606   5.850
 8857POPC   GL157073  31.464  20.601   6.150
 8857POPC   GL257074  31.433  20.698   6.150
 8857POPC   C1A57075  31.446  20.634   6.450
 8857POPC   D2A57076  31.512  20.571   6.750
 8857POPC   C3A57077  31.466  20.562   7.050
 8857POPC   C4A57078  31.433  20.577   7.350
 8857POPC   C1B57079  31.366  20.785   6.450
 8857POPC   C2B57080  31.349  20.847   6.750
 8857POPC   C3B57081  31.392  20.810   7.050
 8857POPC   C4B57082  31.340  20.850   7.350
 8858POPC   NC357083  35.309  42.351   5.550
 8858POPC   PO457084  35.363  42.288   5.850
 8858POPC   GL157085  35.373  42.327   6.150
 8858POPC   GL257086  35.267  42.362   6.150
 8858POPC   C1A57087  35.374  42.293   6.450
 8858POPC   D2A57088  35.305  42.382   6.750
 8858POPC   C3A57089  35.377  42.364   7.050
 8858POPC   C4A57090  35.345  42.288   7.350
 8858POPC   C1B57091  35.159  42.434   6.450
 8858POPC   C2B57092  35.104  42.479   6.750
 8858POPC   C3B57093  35.182  42.504   7.050
 8858POPC   C4B57094  35.109  42.419   7.350
 8859POPC   NC357095  23.759   1.175   5.550
 8859POPC   PO457096  23.718   1.204   5.850
 8859POPC   GL157097  23.667   1.258   6.150
 8859POPC   GL257098  23.680   1.373   6.150
 8859POPC   C1A57099  23.739   1.177   6.450
 8859POPC   D2A57100  23.730   1.247   6.750
 8859POPC   C3A57101  23.749   1.245   7.050
 8859POPC   C4A57102  23.727   1.194   7.350
 8859POPC   C1B57103  23.629   1.447   6.450
 8859POPC   C2B57104  23.569   1.482   6.750
 8859POPC   C3B57105  23.620   1.483   7.050
 8859POPC   C4B57106  23.611   1.468   7.350
 8860POPC   NC357107  15.968   1.961   5.550
 8860POPC   PO457108  15.966   1.970   5.850
 8860POPC   GL157109  15.917   1.977   6.150
 8860POPC   GL257110  16.083   1.989   6.150
 8860POPC   C1A57111  15.925   1.985   6.450
 8860POPC   D2A57112  15.908   1.980   6.750
 8860POPC   C3A57113  15.970   2.003   7.050
 8860POPC   C4A57114  16.000   2.000   7.350
 8860POPC   C1B57115  16.148   2.049   6.450
 8860POPC   C2B57116  16.195   2.102   6.750
 8860POPC   C3B57117  16.177   2.094   7.050
 8860POPC   C4B57118  16.236   2.034   7.350
 8861POPC   NC357119   3.539  29.171   5.550
 8861POPC   PO457120   3.588  29.124   5.850
 8861POPC   GL157121   3.565  29.188   6.150
 8861POPC   GL257122   3.473  29.296   6.150
 8861POPC   C1A57123   3.506  29.152   6.450
 8861POPC   D2A57124   3.564  29.193   6.750
 8861POPC   C3A57125   3.553  29.117   7.050
 8861POPC   C4A57126   3.492  29.112   7.350
 8861POPC   C1B57127   3.485  29.379   6.450
 8861POPC   C2B57128   3.550  29.396   6.750
 8861POPC   C3B57129   3.520  29.344   7.050
 8861POPC   C4B57130   3.488  29.383   7.350
 8862POPC   NC357131  33.803  33.022   5.550
 8862POPC   PO457132  33.813  33.005   5.850
 8862POPC   GL157133  33.796  32.998   6.150
 8862POPC   GL257134  33.945  33.038   6.150
 8862POPC   C1A57135  33.769  33.010   6.450
 8862POPC   D2A57136  33.778  33.001   6.750
 8862POPC   C3A57137  33.833  33.041   7.050
 8862POPC   C4A57138  33.804  33.047   7.350
 8862POPC   C1B57139  34.005  33.085   6.450
 8862POPC   C2B57140  34.017  33.086   6.750
 8862POPC   C3B57141  33.979  33.172   7.050
 8862POPC   C4B57142  34.064  33.168   7.350
 8863POPC   NC357143  27.567  43.151   5.550
 8863POPC   PO457144  27.637  43.097   5.850
 8863POPC   GL157145  27.618  43.089   6.150
 8863POPC   GL257146  27.640  43.282   6.150
 8863POPC   C1A57147  27.591  43.075   6.450
 8863POPC   D2A57148  27.596  43.100   6.750
 8863POPC   C3A57149  27.602  43.077   7.050
 8863POPC   C4A57150  27.552  43.125   7.350
 8863POPC   C1B57151  27.637  43.322   6.450
 8863POPC   C2B57152  27.650  43.379   6.750
 8863POPC   C3B57153  27.601  43.406   7.050
 8863POPC   C4B57154  27.617  43.373   7.350
 8864POPC   NC357155  16.726   3.526   5.550
 8864POPC   PO457156  16.719   3.590   5.850
 8864POPC   GL157157  16.716   3.557   6.150
 8864POPC   GL257158  16.733   3.387   6.150
 8864POPC   C1A57159  16.748   3.586   6.450
 8864POPC   D2A57160  16.690   3.509   6.750
 8864POPC   C3A57161  16.741   3.560   7.050
 8864POPC   C4A57162  16.742   3.528   7.350
 8864POPC   C1B57163  16.748   3.263   6.450
 8864POPC   C2B57164  16.794   3.271   6.750
 8864POPC   C3B57165  16.841   3.344   7.050
 8864POPC   C4B57166  16.768   3.327   7.350
 8865POPC   NC357167  44.646  14.424   5.550
 8865POPC   PO457168  44.666  14.362   5.850
 8865POPC   GL157169  44.693  14.403   6.150
 8865POPC   GL257170  44.760  14.522   6.150
 8865POPC   C1A57171  44.664  14.393   6.450
 8865POPC   D2A57172  44.653  14.388   6.750
 8865POPC   C3A57173  44.692  14.408   7.050
 8865POPC   C4A57174  44.711  14.437   7.350
 8865POPC   C1B57175  44.825  14.575   6.450
 8865POPC   C2B57176  44.763  14.578   6.750
 8865POPC   C3B57177  44.788  14.593   7.050
 8865POPC   C4B57178  44.809  14.605   7.350
 8866POPC   NC357179   0.443   4.273   5.550
 8866POPC   PO457180   0.405   4.330   5.850
 8866POPC   GL157181   0.423   4.357   6.150
 8866POPC   GL257182   0.355   4.362   6.150
 8866POPC   C1A57183   0.474   4.308   6.450
 8866POPC   D2A57184   0.464   4.331   6.750
 8866POPC   C3A57185   0.476   4.351   7.050
 8866POPC   C4A57186   0.391   4.281   7.350
 8866POPC   C1B57187   0.264   4.498   6.450
 8866POPC   C2B57188   0.205   4.507   6.750
 8866POPC   C3B57189   0.220   4.431   7.050
 8866POPC   C4B57190   0.274   4.444   7.350
 8867POPC   NC357191  36.878  14.358   5.550
 8867POPC   PO457192  36.924  14.443   5.850
 8867POPC   GL157193  36.880  14.437   6.150
 8867POPC   GL257194  36.959  14.509   6.150
 8867POPC   C1A57195  36.859  14.373   6.450
 8867POPC   D2A57196  36.865  14.376   6.750
 8867POPC   C3A57197  36.875  14.440   7.050
 8867POPC   C4A57198  36.938  14.449   7.350
 8867POPC   C1B57199  37.092  14.555   6.450
 8867POPC   C2B57200  37.094  14.511   6.750
 8867POPC   C3B57201  37.145  14.575   7.050
 8867POPC   C4B57202  37.134  14.545   7.350
 8868POPC   NC357203  17.492   1.186   5.550
 8868POPC   PO457204  17.530   1.178   5.850
 8868POPC   GL157205  17.537   1.174   6.150
 8868POPC   GL257206  17.500   1.071   6.150
 8868POPC   C1A57207  17.504   1.217   6.450
 8868POPC   D2A57208  17.542   1.166   6.750
 8868POPC   C3A57209  17.477   1.239   7.050
 8868POPC   C4A57210  17.519   1.189   7.350
 8868POPC   C1B57211  17.430   0.938   6.450
 8868POPC   C2B57212  17.482   0.934   6.750
 8868POPC   C3B57213  17.484   0.935   7.050
 8868POPC   C4B57214  17.455   0.967   7.350
 8869POPC   NC357215  35.313   3.574   5.550
 8869POPC   PO457216  35.391   3.543   5.850
 8869POPC   GL157217  35.399   3.565   6.150
 8869POPC   GL257218  35.283   3.641   6.150
 8869POPC   C1A57219  35.306   3.498   6.450
 8869POPC   D2A57220  35.381   3.503   6.750
 8869POPC   C3A57221  35.346   3.519   7.050
 8869POPC   C4A57222  35.366   3.533   7.350
 8869POPC   C1B57223  35.252   3.778   6.450
 8869POPC   C2B57224  35.278   3.742   6.750
 8869POPC   C3B57225  35.326   3.793   7.050
 8869POPC   C4B57226  35.282   3.817   7.350
 8870POPC   NC357227  19.872   8.189   5.550
 8870POPC   PO457228  19.852   8.194   5.850
 8870POPC   GL157229  19.860   8.188   6.150
 8870POPC   GL257230  19.735   8.322   6.150
 8870POPC   C1A57231  19.805   8.168   6.450
 8870POPC   D2A57232  19.800   8.222   6.750
 8870POPC   C3A57233  19.848   8.226   7.050
 8870POPC   C4A57234  19.804   8.237   7.350
 8870POPC   C1B57235  19.753   8.376   6.450
 8870POPC   C2B57236  19.669   8.418   6.750
 8870POPC   C3B57237  19.740   8.457   7.050
 8870POPC   C4B57238  19.755   8.416   7.350
 8871POPC   NC357239  26.854  29.964   5.550
 8871POPC   PO457240  26.826  29.911   5.850
 8871POPC   GL157241  26.810  29.926   6.150
 8871POPC   GL257242  26.916  30.003   6.150
 8871POPC   C1A57243  26.795  29.912   6.450
 8871POPC   D2A57244  26.848  29.947   6.750
 8871POPC   C3A57245  26.851  29.913   7.050
 8871POPC   C4A57246  26.795  29.937   7.350
 8871POPC   C1B57247  27.028  30.014   6.450
 8871POPC   C2B57248  27.070  29.979   6.750
 8871POPC   C3B57249  27.068  30.014   7.050
 8871POPC   C4B57250  27.103  29.962   7.350
 8872POPC   NC357251  10.568  33.784   5.550
 8872POPC   PO457252  10.498  33.819   5.850
 8872POPC   GL157253  10.522  33.838   6.150
 8872POPC   GL257254  10.442  33.697   6.150
 8872POPC   C1A57255  10.564  33.772   6.450
 8872POPC   D2A57256  10.512  33.829   6.750
 8872POPC   C3A57257  10.561  33.835   7.050
 8872POPC   C4A57258  10.547  33.767   7.350
 8872POPC   C1B57259  10.329  33.654   6.450
 8872POPC   C2B57260  10.274  33.665   6.750
 8872POPC   C3B57261  10.344  33.690   7.050
 8872POPC   C4B57262  10.276  33.650   7.350
 8873POPC   NC357263  34.545  40.819   5.550
 8873POPC   PO457264  34.561  40.745   5.850
 8873POPC   GL157265  34.606  40.764   6.150
 8873POPC   GL257266  34.609  40.865   6.150
 8873POPC   C1A57267  34.562  40.811   6.450
 8873POPC   D2A57268  34.563  40.832   6.750
 8873POPC   C3A57269  34.538  40.761   7.050
 8873POPC   C4A57270  34.583  40.793   7.350
 8873POPC   C1B57271  34.719  40.973   6.450
 8873POPC   C2B57272  34.656  41.049   6.750
 8873POPC   C3B57273  34.734  40.962   7.050
 8873POPC   C4B57274  34.646  40.963   7.350
 8874POPC   NC357275  34.598  29.123   5.550
 8874POPC   PO457276  34.547  29.120   5.850
 8874POPC   GL157277  34.609  29.121   6.150
 8874POPC   GL257278  34.653  29.147   6.150
 8874POPC   C1A57279  34.569  29.112   6.450
 8874POPC   D2A57280  34.532  29.126   6.750
 8874POPC   C3A57281  34.596  29.175   7.050
 8874POPC   C4A57282  34.584  29.113   7.350
 8874POPC   C1B57283  34.769  29.218   6.450
 8874POPC   C2B57284  34.824  29.275   6.750
 8874POPC   C3B57285  34.823  29.247   7.050
 8874POPC   C4B57286  34.833  29.261   7.350
 8875POPC   NC357287  36.148  20.592   5.550
 8875POPC   PO457288  36.159  20.656   5.850
 8875POPC   GL157289  36.105  20.587   6.150
 8875POPC   GL257290  36.028  20.730   6.150
 8875POPC   C1A57291  36.092  20.570   6.450
 8875POPC   D2A57292  36.157  20.585   6.750
 8875POPC   C3A57293  36.078  20.610   7.050
 8875POPC   C4A57294  36.096  20.611   7.350
 8875POPC   C1B57295  36.003  20.790   6.450
 8875POPC   C2B57296  35.995  20.787   6.750
 8875POPC   C3B57297  36.012  20.846   7.050
 8875POPC   C4B57298  36.008  20.784   7.350
 8876POPC   NC357299  35.312  15.950   5.550
 8876POPC   PO457300  35.376  15.932   5.850
 8876POPC   GL157301  35.359  15.950   6.150
 8876POPC   GL257302  35.340  15.791   6.150
 8876POPC   C1A57303  35.398  15.959   6.450
 8876POPC   D2A57304  35.381  15.909   6.750
 8876POPC   C3A57305  35.326  15.920   7.050
 8876POPC   C4A57306  35.385  15.926   7.350
 8876POPC   C1B57307  35.406  15.697   6.450
 8876POPC   C2B57308  35.389  15.661   6.750
 8876POPC   C3B57309  35.390  15.696   7.050
 8876POPC   C4B57310  35.355  15.740   7.350
 8877POPC   NC357311   5.869   2.753   5.550
 8877POPC   PO457312   5.854   2.800   5.850
 8877POPC   GL157313   5.892   2.766   6.150
 8877POPC   GL257314   5.874   2.884   6.150
 8877POPC   C1A57315   5.842   2.773   6.450
 8877POPC   D2A57316   5.820   2.771   6.750
 8877POPC   C3A57317   5.824   2.716   7.050
 8877POPC   C4A57318   5.841   2.723   7.350
 8877POPC   C1B57319   5.928   3.004   6.450
 8877POPC   C2B57320   5.987   2.987   6.750
 8877POPC   C3B57321   5.922   3.045   7.050
 8877POPC   C4B57322   5.998   3.042   7.350
 8878POPC   NC357323  36.150  39.973   5.550
 8878POPC   PO457324  36.120  40.003   5.850
 8878POPC   GL157325  36.164  39.987   6.150
 8878POPC   GL257326  36.017  39.993   6.150
 8878POPC   C1A57327  36.175  39.960   6.450
 8878POPC   D2A57328  36.130  40.043   6.750
 8878POPC   C3A57329  36.148  39.986   7.050
 8878POPC   C4A57330  36.173  40.011   7.350
 8878POPC   C1B57331  35.856  39.860   6.450
 8878POPC   C2B57332  35.869  39.863   6.750
 8878POPC   C3B57333  35.915  39.934   7.050
 8878POPC   C4B57334  35.928  39.873   7.350
 8879POPC   NC357335  12.030   7.389   5.550
 8879POPC   PO457336  12.034   7.453   5.850
 8879POPC   GL157337  12.125   7.383   6.150
 8879POPC   GL257338  12.177   7.329   6.150
 8879POPC   C1A57339  12.061   7.449   6.450
 8879POPC   D2A57340  12.114   7.431   6.750
 8879POPC   C3A57341  12.038   7.407   7.050
 8879POPC   C4A57342  12.035   7.466   7.350
 8879POPC   C1B57343  12.249   7.297   6.450
 8879POPC   C2B57344  12.294   7.244   6.750
 8879POPC   C3B57345  12.266   7.304   7.050
 8879POPC   C4B57346  12.299   7.317   7.350
 8880POPC   NC357347  28.373  13.591   5.550
 8880POPC   PO457348  28.330  13.607   5.850
 8880POPC   GL157349  28.333  13.611   6.150
 8880POPC   GL257350  28.385  13.465   6.150
 8880POPC   C1A57351  28.343  13.623   6.450
 8880POPC   D2A57352  28.381  13.585   6.750
 8880POPC   C3A57353  28.367  13.649   7.050
 8880POPC   C4A57354  28.401  13.674   7.350
 8880POPC   C1B57355  28.471  13.434   6.450
 8880POPC   C2B57356  28.435  13.425   6.750
 8880POPC   C3B57357  28.479  13.383   7.050
 8880POPC   C4B57358  28.485  13.358   7.350
 8881POPC   NC357359  43.910  44.667   5.550
 8881POPC   PO457360  43.911  44.649   5.850
 8881POPC   GL157361  43.914  44.650   6.150
 8881POPC   GL257362  43.949  44.769   6.150
 8881POPC   C1A57363  43.867  44.684   6.450
 8881POPC   D2A57364  43.888  44.628   6.750
 8881POPC   C3A57365  43.859  44.700   7.050
 8881POPC   C4A57366  43.898  44.619   7.350
 8881POPC   C1B57367  44.092  44.780   6.450
 8881POPC   C2B57368  44.127  44.845   6.750
 8881POPC   C3B57369  44.085  44.802   7.050
 8881POPC   C4B57370  44.127  44.791   7.350
 8882POPC   NC357371  15.206  30.649   5.550
 8882POPC   PO457372  15.169  30.744   5.850
 8882POPC   GL157373  15.212  30.674   6.150
 8882POPC   GL257374  15.114  30.528   6.150
 8882POPC   C1A57375  15.220  30.721   6.450
 8882POPC   D2A57376  15.160  30.741   6.750
 8882POPC   C3A57377  15.228  30.658   7.050
 8882POPC   C4A57378  15.175  30.730   7.350
 8882POPC   C1B57379  15.111  30.449   6.450
 8882POPC   C2B57380  15.120  30.472   6.750
 8882POPC   C3B57381  15.189  30.406   7.050
 8882POPC   C4B57382  15.136  30.453   7.350
 8883POPC   NC357383  22.900   5.108   5.550
 8883POPC   PO457384  22.932   5.123   5.850
 8883POPC   GL157385  22.901   5.129   6.150
 8883POPC   GL257386  23.025   5.187   6.150
 8883POPC   C1A57387  22.942   5.052   6.450
 8883POPC   D2A57388  22.954   5.121   6.750
 8883POPC   C3A57389  22.919   5.116   7.050
 8883POPC   C4A57390  22.931   5.078   7.350
 8883POPC   C1B57391  23.120   5.246   6.450
 8883POPC   C2B57392  23.140   5.224   6.750
 8883POPC   C3B57393  23.124   5.253   7.050
 8883POPC   C4B57394  23.081   5.246   7.350
 8884POPC   NC357395  20.603  29.128   5.550
 8884POPC   PO457396  20.601  29.151   5.850
 8884POPC   GL157397  20.561  29.163   6.150
 8884POPC   GL257398  20.635  29.294   6.150
 8884POPC   C1A57399  20.630  29.143   6.450
 8884POPC   D2A57400  20.626  29.105   6.750
 8884POPC   C3A57401  20.576  29.188   7.050
 8884POPC   C4A57402  20.650  29.141   7.350
 8884POPC   C1B57403  20.645  29.393   6.450
 8884POPC   C2B57404  20.592  29.379   6.750
 8884POPC   C3B57405  20.598  29.400   7.050
 8884POPC   C4B57406  20.616  29.424   7.350
 8885POPC   NC357407   4.335  22.971   5.550
 8885POPC   PO457408   4.322  22.913   5.850
 8885POPC   GL157409   4.306  22.894   6.150
 8885POPC   GL257410   4.273  22.989   6.150
 8885POPC   C1A57411   4.300  22.930   6.450
 8885POPC   D2A57412   4.335  22.932   6.750
 8885POPC   C3A57413   4.270  22.946   7.050
 8885POPC   C4A57414   4.334  22.929   7.350
 8885POPC   C1B57415   4.185  23.104   6.450
 8885POPC   C2B57416   4.120  23.076   6.750
 8885POPC   C3B57417   4.188  23.152   7.050
 8885POPC   C4B57418   4.138  23.157   7.350
 8886POPC   NC357419  27.624  19.840   5.550
 8886POPC   PO457420  27.608  19.863   5.850
 8886POPC   GL157421  27.573  19.835   6.150
 8886POPC   GL257422  27.501  19.814   6.150
 8886POPC   C1A57423  27.628  19.868   6.450
 8886POPC   D2A57424  27.616  19.829   6.750
 8886POPC   C3A57425  27.632  19.849   7.050
 8886POPC   C4A57426  27.558  19.810   7.350
 8886POPC   C1B57427  27.399  19.756   6.450
 8886POPC   C2B57428  27.424  19.683   6.750
 8886POPC   C3B57429  27.411  19.748   7.050
 8886POPC   C4B57430  27.392  19.686   7.350
 8887POPC   NC357431   6.644  31.428   5.550
 8887POPC   PO457432   6.643  31.452   5.850
 8887POPC   GL157433   6.634  31.492   6.150
 8887POPC   GL257434   6.793  31.421   6.150
 8887POPC   C1A57435   6.621  31.468   6.450
 8887POPC   D2A57436   6.669  31.485   6.750
 8887POPC   C3A57437   6.671  31.425   7.050
 8887POPC   C4A57438   6.617  31.423   7.350
 8887POPC   C1B57439   6.926  31.386   6.450
 8887POPC   C2B57440   6.860  31.438   6.750
 8887POPC   C3B57441   6.923  31.402   7.050
 8887POPC   C4B57442   6.869  31.418   7.350
 8888POPC   NC357443  34.600  15.138   5.550
 8888POPC   PO457444  34.540  15.147   5.850
 8888POPC   GL157445  34.556  15.143   6.150
 8888POPC   GL257446  34.477  15.189   6.150
 8888POPC   C1A57447  34.600  15.202   6.450
 8888POPC   D2A57448  34.566  15.141   6.750
 8888POPC   C3A57449  34.577  15.191   7.050
 8888POPC   C4A57450  34.541  15.145   7.350
 8888POPC   C1B57451  34.336  15.208   6.450
 8888POPC   C2B57452  34.296  15.241   6.750
 8888POPC   C3B57453  34.360  15.248   7.050
 8888POPC   C4B57454  34.378  15.222   7.350
 8889POPC   NC357455  33.783  12.835   5.550
 8889POPC   PO457456  33.800  12.866   5.850
 8889POPC   GL157457  33.815  12.891   6.150
 8889POPC   GL257458  33.904  12.857   6.150
 8889POPC   C1A57459  33.813  12.851   6.450
 8889POPC   D2A57460  33.800  12.881   6.750
 8889POPC   C3A57461  33.775  12.852   7.050
 8889POPC   C4A57462  33.751  12.816   7.350
 8889POPC   C1B57463  34.010  12.856   6.450
 8889POPC   C2B57464  34.003  12.930   6.750
 8889POPC   C3B57465  34.016  12.851   7.050
 8889POPC   C4B57466  34.077  12.898   7.350
 8890POPC   NC357467  34.617  21.368   5.550
 8890POPC   PO457468  34.534  21.360   5.850
 8890POPC   GL157469  34.580  21.398   6.150
 8890POPC   GL257470  34.491  21.473   6.150
 8890POPC   C1A57471  34.598  21.390   6.450
 8890POPC   D2A57472  34.620  21.404   6.750
 8890POPC   C3A57473  34.600  21.373   7.050
 8890POPC   C4A57474  34.533  21.396   7.350
 8890POPC   C1B57475  34.439  21.575   6.450
 8890POPC   C2B57476  34.423  21.603   6.750
 8890POPC   C3B57477  34.443  21.563   7.050
 8890POPC   C4B57478  34.436  21.597   7.350
 8891POPC   NC357479  15.960   8.963   5.550
 8891POPC   PO457480  15.981   8.980   5.850
 8891POPC   GL157481  15.979   8.936   6.150
 8891POPC   GL257482  15.832   8.877   6.150
 8891POPC   C1A57483  15.995   8.987   6.450
 8891POPC   D2A57484  15.929   8.970   6.750
 8891POPC   C3A57485  15.915   9.012   7.050
 8891POPC   C4A57486  15.908   8.977   7.350
 8891POPC   C1B57487  15.735   8.820   6.450
 8891POPC   C2B57488  15.713   8.866   6.750
 8891POPC   C3B57489  15.755   8.829   7.050
 8891POPC   C4B57490  15.716   8.894   7.350
 8892POPC   NC357491  13.593   8.226   5.550
 8892POPC   PO457492  13.658   8.236   5.850
 8892POPC   GL157493  13.594   8.147   6.150
 8892POPC   GL257494  13.609   8.274   6.150
 8892POPC   C1A57495  13.614   8.157   6.450
 8892POPC   D2A57496  13.612   8.218   6.750
 8892POPC   C3A57497  13.660   8.198   7.050
 8892POPC   C4A57498  13.589   8.223   7.350
 8892POPC   C1B57499  13.530   8.457   6.450
 8892POPC   C2B57500  13.513   8.473   6.750
 8892POPC   C3B57501  13.602   8.404   7.050
 8892POPC   C4B57502  13.575   8.411   7.350
 8893POPC   NC357503  43.905  30.745   5.550
 8893POPC   PO457504  43.857  30.701   5.850
 8893POPC   GL157505  43.880  30.654   6.150
 8893POPC   GL257506  43.852  30.604   6.150
 8893POPC   C1A57507  43.842  30.706   6.450
 8893POPC   D2A57508  43.925  30.648   6.750
 8893POPC   C3A57509  43.859  30.744   7.050
 8893POPC   C4A57510  43.910  30.732   7.350
 8893POPC   C1B57511  43.840  30.476   6.450
 8893POPC   C2B57512  43.858  30.495   6.750
 8893POPC   C3B57513  43.800  30.461   7.050
 8893POPC   C4B57514  43.851  30.432   7.350
 8894POPC   NC357515   0.400   1.168   5.550
 8894POPC   PO457516   0.438   1.216   5.850
 8894POPC   GL157517   0.463   1.180   6.150
 8894POPC   GL257518   0.546   1.306   6.150
 8894POPC   C1A57519   0.410   1.240   6.450
 8894POPC   D2A57520   0.421   1.181   6.750
 8894POPC   C3A57521   0.465   1.183   7.050
 8894POPC   C4A57522   0.482   1.253   7.350
 8894POPC   C1B57523   0.639   1.277   6.450
 8894POPC   C2B57524   0.623   1.321   6.750
 8894POPC   C3B57525   0.687   1.322   7.050
 8894POPC   C4B57526   0.706   1.353   7.350
 8895POPC   NC357527  10.512  36.168   5.550
 8895POPC   PO457528  10.483  36.138   5.850
 8895POPC   GL157529  10.489  36.141   6.150
 8895POPC   GL257530  10.627  35.995   6.150
 8895POPC   C1A57531  10.484  36.149   6.450
 8895POPC   D2A57532  10.573  36.176   6.750
 8895POPC   C3A57533  10.571  36.129   7.050
 8895POPC   C4A57534  10.530  36.149   7.350
 8895POPC   C1B57535  10.591  35.887   6.450
 8895POPC   C2B57536  10.606  35.934   6.750
 8895POPC   C3B57537  10.630  35.946   7.050
 8895POPC   C4B57538  10.619  35.944   7.350
 8896POPC   NC357539  30.745  41.592   5.550
 8896POPC   PO457540  30.722  41.529   5.850
 8896POPC   GL157541  30.658  41.549   6.150
 8896POPC   GL257542  30.763  41.451   6.150
 8896POPC   C1A57543  30.712  41.528   6.450
 8896POPC   D2A57544  30.668  41.594   6.750
 8896POPC   C3A57545  30.687  41.559   7.050
 8896POPC   C4A57546  30.739  41.529   7.350
 8896POPC   C1B57547  30.915  41.411   6.450
 8896POPC   C2B57548  30.920  41.441   6.750
 8896POPC   C3B57549  30.933  41.411   7.050
 8896POPC   C4B57550  30.893  41.361   7.350
 8897POPC   NC357551  39.227  19.075   5.550
 8897POPC   PO457552  39.239  19.064   5.850
 8897POPC   GL157553  39.263  19.037   6.150
 8897POPC   GL257554  39.123  19.011   6.150
 8897POPC   C1A57555  39.251  19.050   6.450
 8897POPC   D2A57556  39.266  19.022   6.750
 8897POPC   C3A57557  39.253  19.075   7.050
 8897POPC   C4A57558  39.205  19.084   7.350
 8897POPC   C1B57559  39.028  18.981   6.450
 8897POPC   C2B57560  38.941  19.048   6.750
 8897POPC   C3B57561  39.012  19.016   7.050
 8897POPC   C4B57562  38.998  18.992   7.350
 8898POPC   NC357563  20.614  21.425   5.550
 8898POPC   PO457564  20.573  21.342   5.850
 8898POPC   GL157565  20.633  21.397   6.150
 8898POPC   GL257566  20.694  21.292   6.150
 8898POPC   C1A57567  20.563  21.355   6.450
 8898POPC   D2A57568  20.641  21.359   6.750
 8898POPC   C3A57569  20.575  21.428   7.050
 8898POPC   C4A57570  20.587  21.348   7.350
 8898POPC   C1B57571  20.820  21.281   6.450
 8898POPC   C2B57572  20.868  21.299   6.750
 8898POPC   C3B57573  20.815  21.254   7.050
 8898POPC   C4B57574  20.804  21.274   7.350
 8899POPC   NC357575  36.127  16.715   5.550
 8899POPC   PO457576  36.112  16.698   5.850
 8899POPC   GL157577  36.155  16.695   6.150
 8899POPC   GL257578  36.030  16.602   6.150
 8899POPC   C1A57579  36.168  16.738   6.450
 8899POPC   D2A57580  36.090  16.773   6.750
 8899POPC   C3A57581  36.167  16.742   7.050
 8899POPC   C4A57582  36.092  16.745   7.350
 8899POPC   C1B57583  35.950  16.538   6.450
 8899POPC   C2B57584  35.972  16.507   6.750
 8899POPC   C3B57585  35.969  16.545   7.050
 8899POPC   C4B57586  36.016  16.553   7.350
 8900POPC   NC357587  12.032   5.081   5.550
 8900POPC   PO457588  12.120   5.106   5.850
 8900POPC   GL157589  12.104   5.130   6.150
 8900POPC   GL257590  11.977   5.167   6.150
 8900POPC   C1A57591  12.088   5.114   6.450
 8900POPC   D2A57592  12.063   5.132   6.750
 8900POPC   C3A57593  12.086   5.077   7.050
 8900POPC   C4A57594  12.090   5.135   7.350
 8900POPC   C1B57595  11.935   5.319   6.450
 8900POPC   C2B57596  11.936   5.310   6.750
 8900POPC   C3B57597  11.978   5.328   7.050
 8900POPC   C4B57598  11.939   5.275   7.350
 8901POPC   NC357599  19.860   8.997   5.550
 8901POPC   PO457600  19.796   8.924   5.850
 8901POPC   GL157601  19.844   9.012   6.150
 8901POPC   GL257602  19.673   8.918   6.150
 8901POPC   C1A57603  19.847   9.012   6.450
 8901POPC   D2A57604  19.865   8.925   6.750
 8901POPC   C3A57605  19.827   9.007   7.050
 8901POPC   C4A57606  19.877   8.969   7.350
 8901POPC   C1B57607  19.616   8.941   6.450
 8901POPC   C2B57608  19.597   8.903   6.750
 8901POPC   C3B57609  19.600   8.896   7.050
 8901POPC   C4B57610  19.586   8.931   7.350
 8902POPC   NC357611  25.260  41.534   5.550
 8902POPC   PO457612  25.242  41.606   5.850
 8902POPC   GL157613  25.294  41.566   6.150
 8902POPC   GL257614  25.380  41.479   6.150
 8902POPC   C1A57615  25.244  41.519   6.450
 8902POPC   D2A57616  25.291  41.519   6.750
 8902POPC   C3A57617  25.294  41.538   7.050
 8902POPC   C4A57618  25.278  41.527   7.350
 8902POPC   C1B57619  25.506  41.420   6.450
 8902POPC   C2B57620  25.519  41.503   6.750
 8902POPC   C3B57621  25.482  41.476   7.050
 8902POPC   C4B57622  25.495  41.449   7.350
 8903POPC   NC357623   1.990  43.907   5.550
 8903POPC   PO457624   2.001  43.887   5.850
 8903POPC   GL157625   2.000  43.890   6.150
 8903POPC   GL257626   2.163  43.933   6.150
 8903POPC   C1A57627   2.006  43.886   6.450
 8903POPC   D2A57628   1.941  43.910   6.750
 8903POPC   C3A57629   1.961  43.906   7.050
 8903POPC   C4A57630   1.984  43.930   7.350
 8903POPC   C1B57631   2.234  43.911   6.450
 8903POPC   C2B57632   2.234  43.843   6.750
 8903POPC   C3B57633   2.212  43.852   7.050
 8903POPC   C4B57634   2.265  43.886   7.350
 8904POPC   NC357635   1.226  15.985   5.550
 8904POPC   PO457636   1.192  16.004   5.850
 8904POPC   GL157637   1.195  15.980   6.150
 8904POPC   GL257638   1.127  15.976   6.150
 8904POPC   C1A57639   1.215  16.000   6.450
 8904POPC   D2A57640   1.191  15.993   6.750
 8904POPC   C3A57641   1.236  15.970   7.050
 8904POPC   C4A57642   1.229  15.927   7.350
 8904POPC   C1B57643   0.939  15.930   6.450
 8904POPC   C2B57644   0.925  15.943   6.750
 8904POPC   C3B57645   0.950  15.986   7.050
 8904POPC   C4B57646   0.935  15.949   7.350
 8905POPC   NC357647   2.033  13.638   5.550
 8905POPC   PO457648   1.967  13.604   5.850
 8905POPC   GL157649   2.026  13.657   6.150
 8905POPC   GL257650   2.087  13.535   6.150
 8905POPC   C1A57651   1.988  13.675   6.450
 8905POPC   D2A57652   1.992  13.621   6.750
 8905POPC   C3A57653   2.006  13.640   7.050
 8905POPC   C4A57654   2.036  13.636   7.350
 8905POPC   C1B57655   2.261  13.519   6.450
 8905POPC   C2B57656   2.244  13.529   6.750
 8905POPC   C3B57657   2.172  13.551   7.050
 8905POPC   C4B57658   2.262  13.486   7.350
 8906POPC   NC357659   1.979  41.592   5.550
 8906POPC   PO457660   2.032  41.524   5.850
 8906POPC   GL157661   1.970  41.549   6.150
 8906POPC   GL257662   2.087  41.427   6.150
 8906POPC   C1A57663   1.947  41.519   6.450
 8906POPC   D2A57664   2.000  41.565   6.750
 8906POPC   C3A57665   1.946  41.516   7.050
 8906POPC   C4A57666   1.976  41.533   7.350
 8906POPC   C1B57667   2.117  41.327   6.450
 8906POPC   C2B57668   2.150  41.332   6.750
 8906POPC   C3B57669   2.160  41.368   7.050
 8906POPC   C4B57670   2.110  41.364   7.350
 8907POPC   NC357671  12.093   4.291   5.550
 8907POPC   PO457672  12.061   4.278   5.850
 8907POPC   GL157673  12.086   4.341   6.150
 8907POPC   GL257674  12.046   4.378   6.150
 8907POPC   C1A57675  12.040   4.289   6.450
 8907POPC   D2A57676  12.030   4.277   6.750
 8907POPC   C3A57677  12.117   4.306   7.050
 8907POPC   C4A57678  12.087   4.345   7.350
 8907POPC   C1B57679  11.956   4.520   6.450
 8907POPC   C2B57680  11.907   4.518   6.750
 8907POPC   C3B57681  11.926   4.499   7.050
 8907POPC   C4B57682  11.988   4.576   7.350
 8908POPC   NC357683  23.746  26.769   5.550
 8908POPC   PO457684  23.707  26.793   5.850
 8908POPC   GL157685  23.702  26.803   6.150
 8908POPC   GL257686  23.633  26.875   6.150
 8908POPC   C1A57687  23.665  26.846   6.450
 8908POPC   D2A57688  23.710  26.791   6.750
 8908POPC   C3A57689  23.752  26.773   7.050
 8908POPC   C4A57690  23.682  26.819   7.350
 8908POPC   C1B57691  23.473  26.981   6.450
 8908POPC   C2B57692  23.510  27.008   6.750
 8908POPC   C3B57693  23.517  27.004   7.050
 8908POPC   C4B57694  23.535  26.982   7.350
 8909POPC   NC357695  36.861  35.346   5.550
 8909POPC   PO457696  36.911  35.324   5.850
 8909POPC   GL157697  36.903  35.345   6.150
 8909POPC   GL257698  36.773  35.324   6.150
 8909POPC   C1A57699  36.865  35.317   6.450
 8909POPC   D2A57700  36.938  35.327   6.750
 8909POPC   C3A57701  36.946  35.366   7.050
 8909POPC   C4A57702  36.873  35.383   7.350
 8909POPC   C1B57703  36.645  35.403   6.450
 8909POPC   C2B57704  36.680  35.362   6.750
 8909POPC   C3B57705  36.684  35.362   7.050
 8909POPC   C4B57706  36.687  35.379   7.350
 8910POPC   NC357707  41.595  17.501   5.550
 8910POPC   PO457708  41.549  17.552   5.850
 8910POPC   GL157709  41.549  17.466   6.150
 8910POPC   GL257710  41.447  17.512   6.150
 8910POPC   C1A57711  41.519  17.471   6.450
 8910POPC   D2A57712  41.510  17.499   6.750
 8910POPC   C3A57713  41.571  17.481   7.050
 8910POPC   C4A57714  41.572  17.544   7.350
 8910POPC   C1B57715  41.285  17.488   6.450
 8910POPC   C2B57716  41.298  17.476   6.750
 8910POPC   C3B57717  41.295  17.508   7.050
 8910POPC   C4B57718  41.278  17.560   7.350
 8911POPC   NC357719   8.165  29.154   5.550
 8911POPC   PO457720   8.235  29.132   5.850
 8911POPC   GL157721   8.206  29.161   6.150
 8911POPC   GL257722   8.152  29.302   6.150
 8911POPC   C1A57723   8.243  29.131   6.450
 8911POPC   D2A57724   8.186  29.191   6.750
 8911POPC   C3A57725   8.167  29.114   7.050
 8911POPC   C4A57726   8.218  29.179   7.350
 8911POPC   C1B57727   8.139  29.359   6.450
 8911POPC   C2B57728   8.203  29.435   6.750
 8911POPC   C3B57729   8.158  29.432   7.050
 8911POPC   C4B57730   8.186  29.377   7.350
 8912POPC   NC357731   9.748  12.092   5.550
 8912POPC   PO457732   9.796  12.091   5.850
 8912POPC   GL157733   9.781  12.039   6.150
 8912POPC   GL257734   9.781  11.916   6.150
 8912POPC   C1A57735   9.778  12.113   6.450
 8912POPC   D2A57736   9.752  12.037   6.750
 8912POPC   C3A57737   9.737  12.080   7.050
 8912POPC   C4A57738   9.793  12.035   7.350
 8912POPC   C1B57739   9.728  11.828   6.450
 8912POPC   C2B57740   9.723  11.861   6.750
 8912POPC   C3B57741   9.733  11.862   7.050
 8912POPC   C4B57742   9.764  11.794   7.350
 8913POPC   NC357743  15.916  28.392   5.550
 8913POPC   PO457744  15.967  28.346   5.850
 8913POPC   GL157745  15.930  28.401   6.150
 8913POPC   GL257746  15.801  28.304   6.150
 8913POPC   C1A57747  15.930  28.371   6.450
 8913POPC   D2A57748  15.911  28.323   6.750
 8913POPC   C3A57749  15.927  28.369   7.050
 8913POPC   C4A57750  15.906  28.350   7.350
 8913POPC   C1B57751  15.706  28.297   6.450
 8913POPC   C2B57752  15.745  28.261   6.750
 8913POPC   C3B57753  15.689  28.312   7.050
 8913POPC   C4B57754  15.757  28.230   7.350
 8914POPC   NC357755   4.352   5.905   5.550
 8914POPC   PO457756   4.315   5.872   5.850
 8914POPC   GL157757   4.355   5.857   6.150
 8914POPC   GL257758   4.445   5.812   6.150
 8914POPC   C1A57759   4.307   5.854   6.450
 8914POPC   D2A57760   4.320   5.899   6.750
 8914POPC   C3A57761   4.363   5.830   7.050
 8914POPC   C4A57762   4.314   5.867   7.350
 8914POPC   C1B57763   4.576   5.831   6.450
 8914POPC   C2B57764   4.535   5.774   6.750
 8914POPC   C3B57765   4.585   5.778   7.050
 8914POPC   C4B57766   4.575   5.790   7.350
 8915POPC   NC357767  36.132  44.652   5.550
 8915POPC   PO457768  36.174  44.682   5.850
 8915POPC   GL157769  36.086  44.679   6.150
 8915POPC   GL257770  35.956  44.662   6.150
 8915POPC   C1A57771  36.172  44.653   6.450
 8915POPC   D2A57772  36.108  44.625   6.750
 8915POPC   C3A57773  36.159  44.647   7.050
 8915POPC   C4A57774  36.132  44.685   7.350
 8915POPC   C1B57775  35.872  44.671   6.450
 8915POPC   C2B57776  35.850  44.589   6.750
 8915POPC   C3B57777  35.896  44.643   7.050
 8915POPC   C4B57778  35.871  44.624   7.350
 8916POPC   NC357779  38.415  11.328   5.550
 8916POPC   PO457780  38.489  11.258   5.850
 8916POPC   GL157781  38.488  11.306   6.150
 8916POPC   GL257782  38.341  11.321   6.150
 8916POPC   C1A57783  38.504  11.279   6.450
 8916POPC   D2A57784  38.471  11.286   6.750
 8916POPC   C3A57785  38.445  11.315   7.050
 8916POPC   C4A57786  38.452  11.339   7.350
 8916POPC   C1B57787  38.228  11.395   6.450
 8916POPC   C2B57788  38.202  11.324   6.750
 8916POPC   C3B57789  38.183  11.330   7.050
 8916POPC   C4B57790  38.170  11.385   7.350
 8917POPC   NC357791  13.591  44.644   5.550
 8917POPC   PO457792  13.671  44.652   5.850
 8917POPC   GL157793  13.655  44.655   6.150
 8917POPC   GL257794  13.469  44.614   6.150
 8917POPC   C1A57795  13.669  44.640   6.450
 8917POPC   D2A57796  13.674  44.676   6.750
 8917POPC   C3A57797  13.661  44.705   7.050
 8917POPC   C4A57798  13.583  44.703   7.350
 8917POPC   C1B57799  13.348  44.683   6.450
 8917POPC   C2B57800  13.349  44.676   6.750
 8917POPC   C3B57801  13.385  44.600   7.050
 8917POPC   C4B57802  13.332  44.650   7.350
 8918POPC   NC357803  26.778  18.268   5.550
 8918POPC   PO457804  26.858  18.252   5.850
 8918POPC   GL157805  26.786  18.325   6.150
 8918POPC   GL257806  26.752  18.369   6.150
 8918POPC   C1A57807  26.851  18.293   6.450
 8918POPC   D2A57808  26.821  18.300   6.750
 8918POPC   C3A57809  26.857  18.237   7.050
 8918POPC   C4A57810  26.805  18.328   7.350
 8918POPC   C1B57811  26.644  18.429   6.450
 8918POPC   C2B57812  26.593  18.441   6.750
 8918POPC   C3B57813  26.606  18.467   7.050
 8918POPC   C4B57814  26.599  18.414   7.350
 8919POPC   NC357815  19.815  15.149   5.550
 8919POPC   PO457816  19.852  15.171   5.850
 8919POPC   GL157817  19.800  15.191   6.150
 8919POPC   GL257818  19.965  15.196   6.150
 8919POPC   C1A57819  19.870  15.179   6.450
 8919POPC   D2A57820  19.785  15.179   6.750
 8919POPC   C3A57821  19.806  15.199   7.050
 8919POPC   C4A57822  19.786  15.132   7.350
 8919POPC   C1B57823  20.087  15.183   6.450
 8919POPC   C2B57824  20.092  15.207   6.750
 8919POPC   C3B57825  20.091  15.221   7.050
 8919POPC   C4B57826  20.124  15.207   7.350
 8920POPC   NC357827  25.230   8.954   5.550
 8920POPC   PO457828  25.260   8.990   5.850
 8920POPC   GL157829  25.221   9.019   6.150
 8920POPC   GL257830  25.191   9.062   6.150
 8920POPC   C1A57831  25.266   8.934   6.450
 8920POPC   D2A57832  25.298   8.992   6.750
 8920POPC   C3A57833  25.312   8.942   7.050
 8920POPC   C4A57834  25.276   9.012   7.350
 8920POPC   C1B57835  25.069   9.098   6.450
 8920POPC   C2B57836  24.989   9.106   6.750
 8920POPC   C3B57837  25.025   9.105   7.050
 8920POPC   C4B57838  25.003   9.062   7.350
 8921POPC   NC357839  36.867  23.703   5.550
 8921POPC   PO457840  36.891  23.712   5.850
 8921POPC   GL157841  36.921  23.756   6.150
 8921POPC   GL257842  36.798  23.862   6.150
 8921POPC   C1A57843  36.902  23.687   6.450
 8921POPC   D2A57844  36.882  23.758   6.750
 8921POPC   C3A57845  36.939  23.742   7.050
 8921POPC   C4A57846  36.944  23.734   7.350
 8921POPC   C1B57847  36.701  23.950   6.450
 8921POPC   C2B57848  36.783  23.879   6.750
 8921POPC   C3B57849  36.758  23.953   7.050
 8921POPC   C4B57850  36.789  23.896   7.350
 8922POPC   NC357851  29.128  31.472   5.550
 8922POPC   PO457852  29.150  31.504   5.850
 8922POPC   GL157853  29.173  31.451   6.150
 8922POPC   GL257854  29.056  31.417   6.150
 8922POPC   C1A57855  29.154  31.477   6.450
 8922POPC   D2A57856  29.182  31.482   6.750
 8922POPC   C3A57857  29.136  31.459   7.050
 8922POPC   C4A57858  29.099  31.471   7.350
 8922POPC   C1B57859  28.954  31.342   6.450
 8922POPC   C2B57860  28.931  31.341   6.750
 8922POPC   C3B57861  28.960  31.342   7.050
 8922POPC   C4B57862  28.906  31.412   7.350
 8923POPC   NC357863  27.603  14.400   5.550
 8923POPC   PO457864  27.621  14.361   5.850
 8923POPC   GL157865  27.610  14.421   6.150
 8923POPC   GL257866  27.466  14.477   6.150
 8923POPC   C1A57867  27.633  14.366   6.450
 8923POPC   D2A57868  27.602  14.396   6.750
 8923POPC   C3A57869  27.623  14.441   7.050
 8923POPC   C4A57870  27.606  14.396   7.350
 8923POPC   C1B57871  27.363  14.622   6.450
 8923POPC   C2B57872  27.419  14.561   6.750
 8923POPC   C3B57873  27.383  14.551   7.050
 8923POPC   C4B57874  27.365  14.610   7.350
 8924POPC   NC357875  15.139   4.327   5.550
 8924POPC   PO457876  15.213   4.337   5.850
 8924POPC   GL157877  15.136   4.332   6.150
 8924POPC   GL257878  15.053   4.309   6.150
 8924POPC   C1A57879  15.174   4.357   6.450
 8924POPC   D2A57880  15.211   4.355   6.750
 8924POPC   C3A57881  15.193   4.325   7.050
 8924POPC   C4A57882  15.161   4.326   7.350
 8924POPC   C1B57883  14.901   4.187   6.450
 8924POPC   C2B57884  14.985   4.219   6.750
 8924POPC   C3B57885  14.902   4.235   7.050
 8924POPC   C4B57886  14.988   4.183   7.350
 8925POPC   NC357887   1.207   9.740   5.550
 8925POPC   PO457888   1.187   9.711   5.850
 8925POPC   GL157889   1.246   9.773   6.150
 8925POPC   GL257890   1.337   9.627   6.150
 8925POPC   C1A57891   1.259   9.766   6.450
 8925POPC   D2A57892   1.263   9.729   6.750
 8925POPC   C3A57893   1.177   9.780   7.050
 8925POPC   C4A57894   1.171   9.757   7.350
 8925POPC   C1B57895   1.386   9.647   6.450
 8925POPC   C2B57896   1.406   9.580   6.750
 8925POPC   C3B57897   1.452   9.636   7.050
 8925POPC   C4B57898   1.430   9.574   7.350
 8926POPC   NC357899  20.605   5.120   5.550
 8926POPC   PO457900  20.568   5.141   5.850
 8926POPC   GL157901  20.610   5.142   6.150
 8926POPC   GL257902  20.707   5.245   6.150
 8926POPC   C1A57903  20.592   5.045   6.450
 8926POPC   D2A57904  20.594   5.106   6.750
 8926POPC   C3A57905  20.581   5.125   7.050
 8926POPC   C4A57906  20.583   5.079   7.350
 8926POPC   C1B57907  20.678   5.275   6.450
 8926POPC   C2B57908  20.691   5.305   6.750
 8926POPC   C3B57909  20.759   5.350   7.050
 8926POPC   C4B57910  20.727   5.359   7.350
 8927POPC   NC357911   5.889   1.253   5.550
 8927POPC   PO457912   5.846   1.262   5.850
 8927POPC   GL157913   5.914   1.248   6.150
 8927POPC   GL257914   5.999   1.276   6.150
 8927POPC   C1A57915   5.865   1.251   6.450
 8927POPC   D2A57916   5.875   1.214   6.750
 8927POPC   C3A57917   5.891   1.190   7.050
 8927POPC   C4A57918   5.874   1.260   7.350
 8927POPC   C1B57919   6.111   1.396   6.450
 8927POPC   C2B57920   6.108   1.414   6.750
 8927POPC   C3B57921   6.052   1.352   7.050
 8927POPC   C4B57922   6.089   1.405   7.350
 8928POPC   NC357923   5.128  22.149   5.550
 8928POPC   PO457924   5.140  22.113   5.850
 8928POPC   GL157925   5.096  22.207   6.150
 8928POPC   GL257926   4.975  22.243   6.150
 8928POPC   C1A57927   5.088  22.211   6.450
 8928POPC   D2A57928   5.117  22.163   6.750
 8928POPC   C3A57929   5.130  22.122   7.050
 8928POPC   C4A57930   5.134  22.195   7.350
 8928POPC   C1B57931   4.887  22.231   6.450
 8928POPC   C2B57932   4.855  22.294   6.750
 8928POPC   C3B57933   4.834  22.225   7.050
 8928POPC   C4B57934   4.888  22.279   7.350
 8929POPC   NC357935  30.649  29.925   5.550
 8929POPC   PO457936  30.694  29.939   5.850
 8929POPC   GL157937  30.737  29.906   6.150
 8929POPC   GL257938  30.574  29.943   6.150
 8929POPC   C1A57939  30.720  29.895   6.450
 8929POPC   D2A57940  30.681  29.876   6.750
 8929POPC   C3A57941  30.674  29.961   7.050
 8929POPC   C4A57942  30.721  29.895   7.350
 8929POPC   C1B57943  30.489  30.080   6.450
 8929POPC   C2B57944  30.517  30.084   6.750
 8929POPC   C3B57945  30.501  30.092   7.050
 8929POPC   C4B57946  30.503  30.088   7.350
 8930POPC   NC357947  36.142  10.507   5.550
 8930POPC   PO457948  36.083  10.550   5.850
 8930POPC   GL157949  36.134  10.515   6.150
 8930POPC   GL257950  36.217  10.585   6.150
 8930POPC   C1A57951  36.107  10.476   6.450
 8930POPC   D2A57952  36.172  10.554   6.750
 8930POPC   C3A57953  36.177  10.538   7.050
 8930POPC   C4A57954  36.110  10.490   7.350
 8930POPC   C1B57955  36.239  10.776   6.450
 8930POPC   C2B57956  36.261  10.739   6.750
 8930POPC   C3B57957  36.294  10.772   7.050
 8930POPC   C4B57958  36.226  10.765   7.350
 8931POPC   NC357959  37.654  26.001   5.550
 8931POPC   PO457960  37.651  26.006   5.850
 8931POPC   GL157961  37.657  26.018   6.150
 8931POPC   GL257962  37.584  25.936   6.150
 8931POPC   C1A57963  37.666  26.062   6.450
 8931POPC   D2A57964  37.670  26.037   6.750
 8931POPC   C3A57965  37.662  26.056   7.050
 8931POPC   C4A57966  37.716  26.072   7.350
 8931POPC   C1B57967  37.437  25.892   6.450
 8931POPC   C2B57968  37.413  25.912   6.750
 8931POPC   C3B57969  37.506  25.912   7.050
 8931POPC   C4B57970  37.443  25.941   7.350
 8932POPC   NC357971   2.032  26.065   5.550
 8932POPC   PO457972   2.006  26.060   5.850
 8932POPC   GL157973   1.954  26.032   6.150
 8932POPC   GL257974   2.129  26.026   6.150
 8932POPC   C1A57975   1.947  26.063   6.450
 8932POPC   D2A57976   2.009  26.035   6.750
 8932POPC   C3A57977   2.035  26.038   7.050
 8932POPC   C4A57978   2.014  26.091   7.350
 8932POPC   C1B57979   2.207  25.927   6.450
 8932POPC   C2B57980   2.223  25.961   6.750
 8932POPC   C3B57981   2.242  26.022   7.050
 8932POPC   C4B57982   2.277  25.928   7.350
 8933POPC   NC357983  24.490  43.097   5.550
 8933POPC   PO457984  24.506  43.063   5.850
 8933POPC   GL157985  24.472  43.103   6.150
 8933POPC   GL257986  24.426  43.039   6.150
 8933POPC   C1A57987  24.449  43.086   6.450
 8933POPC   D2A57988  24.472  43.100   6.750
 8933POPC   C3A57989  24.450  43.113   7.050
 8933POPC   C4A57990  24.469  43.082   7.350
 8933POPC   C1B57991  24.417  42.859   6.450
 8933POPC   C2B57992  24.390  42.929   6.750
 8933POPC   C3B57993  24.434  42.890   7.050
 8933POPC   C4B57994  24.402  42.859   7.350
 8934POPC   NC357995   7.418  15.946   5.550
 8934POPC   PO457996   7.398  15.935   5.850
 8934POPC   GL157997   7.424  15.964   6.150
 8934POPC   GL257998   7.500  16.088   6.150
 8934POPC   C1A57999   7.463  15.918   6.450
 8934POPC   D2A58000   7.437  15.924   6.750
 8934POPC   C3A58001   7.462  15.944   7.050
 8934POPC   C4A58002   7.375  15.947   7.350
 8934POPC   C1B58003   7.513  16.212   6.450
 8934POPC   C2B58004   7.510  16.200   6.750
 8934POPC   C3B58005   7.532  16.221   7.050
 8934POPC   C4B58006   7.511  16.146   7.350
 8935POPC   NC358007   8.200  34.571   5.550
 8935POPC   PO458008   8.158  34.624   5.850
 8935POPC   GL158009   8.211  34.538   6.150
 8935POPC   GL258010   8.112  34.492   6.150
 8935POPC   C1A58011   8.220  34.615   6.450
 8935POPC   D2A58012   8.218  34.603   6.750
 8935POPC   C3A58013   8.210  34.541   7.050
 8935POPC   C4A58014   8.208  34.585   7.350
 8935POPC   C1B58015   7.975  34.534   6.450
 8935POPC   C2B58016   7.999  34.453   6.750
 8935POPC   C3B58017   7.962  34.507   7.050
 8935POPC   C4B58018   7.912  34.468   7.350
 8936POPC   NC358019  12.077  44.659   5.550
 8936POPC   PO458020  12.069  44.633   5.850
 8936POPC   GL158021  12.069  44.633   6.150
 8936POPC   GL258022  12.221  44.649   6.150
 8936POPC   C1A58023  12.064  44.630   6.450
 8936POPC   D2A58024  12.102  44.655   6.750
 8936POPC   C3A58025  12.091  44.664   7.050
 8936POPC   C4A58026  12.039  44.654   7.350
 8936POPC   C1B58027  12.324  44.567   6.450
 8936POPC   C2B58028  12.334  44.571   6.750
 8936POPC   C3B58029  12.335  44.596   7.050
 8936POPC   C4B58030  12.337  44.572   7.350
 8937POPC   NC358031  32.272   3.507   5.550
 8937POPC   PO458032  32.295   3.537   5.850
 8937POPC   GL158033  32.285   3.575   6.150
 8937POPC   GL258034  32.151   3.493   6.150
 8937POPC   C1A58035  32.291   3.509   6.450
 8937POPC   D2A58036  32.276   3.498   6.750
 8937POPC   C3A58037  32.298   3.560   7.050
 8937POPC   C4A58038  32.216   3.501   7.350
 8937POPC   C1B58039  32.050   3.353   6.450
 8937POPC   C2B58040  32.127   3.393   6.750
 8937POPC   C3B58041  32.125   3.316   7.050
 8937POPC   C4B58042  32.058   3.334   7.350
 8938POPC   NC358043  32.298  39.229   5.550
 8938POPC   PO458044  32.198  39.212   5.850
 8938POPC   GL158045  32.286  39.245   6.150
 8938POPC   GL258046  32.379  39.306   6.150
 8938POPC   C1A58047  32.240  39.205   6.450
 8938POPC   D2A58048  32.288  39.273   6.750
 8938POPC   C3A58049  32.249  39.211   7.050
 8938POPC   C4A58050  32.221  39.270   7.350
 8938POPC   C1B58051  32.421  39.382   6.450
 8938POPC   C2B58052  32.465  39.364   6.750
 8938POPC   C3B58053  32.484  39.333   7.050
 8938POPC   C4B58054  32.439  39.388   7.350
 8939POPC   NC358055  35.320   2.716   5.550
 8939POPC   PO458056  35.346   2.800   5.850
 8939POPC   GL158057  35.371   2.751   6.150
 8939POPC   GL258058  35.267   2.849   6.150
 8939POPC   C1A58059  35.340   2.757   6.450
 8939POPC   D2A58060  35.320   2.736   6.750
 8939POPC   C3A58061  35.383   2.786   7.050
 8939POPC   C4A58062  35.334   2.798   7.350
 8939POPC   C1B58063  35.130   2.951   6.450
 8939POPC   C2B58064  35.185   2.940   6.750
 8939POPC   C3B58065  35.140   2.907   7.050
 8939POPC   C4B58066  35.123   2.910   7.350
 8940POPC   NC358067  33.847  43.082   5.550
 8940POPC   PO458068  33.816  43.135   5.850
 8940POPC   GL158069  33.833  43.157   6.150
 8940POPC   GL258070  33.776  43.203   6.150
 8940POPC   C1A58071  33.846  43.093   6.450
 8940POPC   D2A58072  33.810  43.132   6.750
 8940POPC   C3A58073  33.758  43.121   7.050
 8940POPC   C4A58074  33.849  43.119   7.350
 8940POPC   C1B58075  33.818  43.324   6.450
 8940POPC   C2B58076  33.794  43.396   6.750
 8940POPC   C3B58077  33.797  43.375   7.050
 8940POPC   C4B58078  33.803  43.382   7.350
 8941POPC   NC358079  26.826  15.913   5.550
 8941POPC   PO458080  26.776  15.929   5.850
 8941POPC   GL158081  26.786  15.976   6.150
 8941POPC   GL258082  26.945  15.995   6.150
 8941POPC   C1A58083  26.775  15.925   6.450
 8941POPC   D2A58084  26.780  15.974   6.750
 8941POPC   C3A58085  26.843  15.944   7.050
 8941POPC   C4A58086  26.851  15.949   7.350
 8941POPC   C1B58087  27.016  15.973   6.450
 8941POPC   C2B58088  27.085  15.996   6.750
 8941POPC   C3B58089  27.057  15.985   7.050
 8941POPC   C4B58090  27.072  16.054   7.350
 8942POPC   NC358091   7.451  36.150   5.550
 8942POPC   PO458092   7.410  36.166   5.850
 8942POPC   GL158093   7.427  36.079   6.150
 8942POPC   GL258094   7.500  36.033   6.150
 8942POPC   C1A58095   7.380  36.120   6.450
 8942POPC   D2A58096   7.384  36.130   6.750
 8942POPC   C3A58097   7.433  36.080   7.050
 8942POPC   C4A58098   7.454  36.177   7.350
 8942POPC   C1B58099   7.576  35.975   6.450
 8942POPC   C2B58100   7.589  35.935   6.750
 8942POPC   C3B58101   7.570  35.903   7.050
 8942POPC   C4B58102   7.597  35.942   7.350
 8943POPC   NC358103  39.199  35.392   5.550
 8943POPC   PO458104  39.279  35.394   5.850
 8943POPC   GL158105  39.200  35.398   6.150
 8943POPC   GL258106  39.380  35.254   6.150
 8943POPC   C1A58107  39.242  35.348   6.450
 8943POPC   D2A58108  39.247  35.330   6.750
 8943POPC   C3A58109  39.218  35.372   7.050
 8943POPC   C4A58110  39.220  35.379   7.350
 8943POPC   C1B58111  39.438  35.210   6.450
 8943POPC   C2B58112  39.426  35.213   6.750
 8943POPC   C3B58113  39.507  35.263   7.050
 8943POPC   C4B58114  39.439  35.234   7.350
 8944POPC   NC358115  34.597  37.632   5.550
 8944POPC   PO458116  34.597  37.715   5.850
 8944POPC   GL158117  34.550  37.702   6.150
 8944POPC   GL258118  34.544  37.539   6.150
 8944POPC   C1A58119  34.536  37.729   6.450
 8944POPC   D2A58120  34.622  37.704   6.750
 8944POPC   C3A58121  34.581  37.638   7.050
 8944POPC   C4A58122  34.580  37.675   7.350
 8944POPC   C1B58123  34.539  37.451   6.450
 8944POPC   C2B58124  34.540  37.438   6.750
 8944POPC   C3B58125  34.543  37.448   7.050
 8944POPC   C4B58126  34.608  37.466   7.350
 8945POPC   NC358127  42.348   9.721   5.550
 8945POPC   PO458128  42.376   9.732   5.850
 8945POPC   GL158129  42.288   9.702   6.150
 8945POPC   GL258130  42.426   9.741   6.150
 8945POPC   C1A58131  42.383   9.719   6.450
 8945POPC   D2A58132  42.295   9.749   6.750
 8945POPC   C3A58133  42.363   9.703   7.050
 8945POPC   C4A58134  42.311   9.734   7.350
 8945POPC   C1B58135  42.618   9.699   6.450
 8945POPC   C2B58136  42.599   9.632   6.750
 8945POPC   C3B58137  42.532   9.622   7.050
 8945POPC   C4B58138  42.537   9.629   7.350
 8946POPC   NC358139  29.191  33.826   5.550
 8946POPC   PO458140  29.180  33.786   5.850
 8946POPC   GL158141  29.113  33.803   6.150
 8946POPC   GL258142  29.030  33.680   6.150
 8946POPC   C1A58143  29.095  33.792   6.450
 8946POPC   D2A58144  29.153  33.798   6.750
 8946POPC   C3A58145  29.143  33.806   7.050
 8946POPC   C4A58146  29.124  33.790   7.350
 8946POPC   C1B58147  28.919  33.675   6.450
 8946POPC   C2B58148  28.957  33.685   6.750
 8946POPC   C3B58149  28.918  33.638   7.050
 8946POPC   C4B58150  29.000  33.656   7.350
 8947POPC   NC358151  33.786   0.482   5.550
 8947POPC   PO458152  33.836   0.398   5.850
 8947POPC   GL158153  33.752   0.443   6.150
 8947POPC   GL258154  33.685   0.470   6.150
 8947POPC   C1A58155  33.847   0.485   6.450
 8947POPC   D2A58156  33.776   0.457   6.750
 8947POPC   C3A58157  33.835   0.406   7.050
 8947POPC   C4A58158  33.780   0.483   7.350
 8947POPC   C1B58159  33.575   0.560   6.450
 8947POPC   C2B58160  33.525   0.484   6.750
 8947POPC   C3B58161  33.555   0.549   7.050
 8947POPC   C4B58162  33.558   0.507   7.350
 8948POPC   NC358163  42.326  34.594   5.550
 8948POPC   PO458164  42.329  34.578   5.850
 8948POPC   GL158165  42.365  34.555   6.150
 8948POPC   GL258166  42.220  34.648   6.150
 8948POPC   C1A58167  42.307  34.584   6.450
 8948POPC   D2A58168  42.302  34.542   6.750
 8948POPC   C3A58169  42.314  34.554   7.050
 8948POPC   C4A58170  42.320  34.608   7.350
 8948POPC   C1B58171  42.153  34.768   6.450
 8948POPC   C2B58172  42.237  34.809   6.750
 8948POPC   C3B58173  42.163  34.769   7.050
 8948POPC   C4B58174  42.230  34.820   7.350
 8949POPC   NC358175  43.862   5.847   5.550
 8949POPC   PO458176  43.860   5.861   5.850
 8949POPC   GL158177  43.865   5.846   6.150
 8949POPC   GL258178  43.812   5.957   6.150
 8949POPC   C1A58179  43.907   5.894   6.450
 8949POPC   D2A58180  43.882   5.903   6.750
 8949POPC   C3A58181  43.917   5.840   7.050
 8949POPC   C4A58182  43.934   5.833   7.350
 8949POPC   C1B58183  43.860   6.102   6.450
 8949POPC   C2B58184  43.824   6.141   6.750
 8949POPC   C3B58185  43.832   6.074   7.050
 8949POPC   C4B58186  43.804   6.111   7.350
 8950POPC   NC358187  12.040  20.651   5.550
 8950POPC   PO458188  12.061  20.613   5.850
 8950POPC   GL158189  12.100  20.579   6.150
 8950POPC   GL258190  11.946  20.698   6.150
 8950POPC   C1A58191  12.058  20.571   6.450
 8950POPC   D2A58192  12.037  20.594   6.750
 8950POPC   C3A58193  12.077  20.572   7.050
 8950POPC   C4A58194  12.029  20.645   7.350
 8950POPC   C1B58195  11.889  20.786   6.450
 8950POPC   C2B58196  11.842  20.794   6.750
 8950POPC   C3B58197  11.924  20.779   7.050
 8950POPC   C4B58198  11.926  20.770   7.350
 8951POPC   NC358199  40.773   4.346   5.550
 8951POPC   PO458200  40.736   4.355   5.850
 8951POPC   GL158201  40.760   4.311   6.150
 8951POPC   GL258202  40.866   4.463   6.150
 8951POPC   C1A58203  40.765   4.361   6.450
 8951POPC   D2A58204  40.823   4.295   6.750
 8951POPC   C3A58205  40.824   4.346   7.050
 8951POPC   C4A58206  40.818   4.282   7.350
 8951POPC   C1B58207  40.899   4.497   6.450
 8951POPC   C2B58208  40.943   4.464   6.750
 8951POPC   C3B58209  40.938   4.513   7.050
 8951POPC   C4B58210  40.914   4.467   7.350
 8952POPC   NC358211  11.295   6.652   5.550
 8952POPC   PO458212  11.267   6.670   5.850
 8952POPC   GL158213  11.318   6.641   6.150
 8952POPC   GL258214  11.381   6.710   6.150
 8952POPC   C1A58215  11.348   6.681   6.450
 8952POPC   D2A58216  11.319   6.620   6.750
 8952POPC   C3A58217  11.293   6.667   7.050
 8952POPC   C4A58218  11.269   6.630   7.350
 8952POPC   C1B58219  11.551   6.760   6.450
 8952POPC   C2B58220  11.548   6.731   6.750
 8952POPC   C3B58221  11.488   6.732   7.050
 8952POPC   C4B58222  11.538   6.682   7.350
 8953POPC   NC358223  36.896   4.286   5.550
 8953POPC   PO458224  36.855   4.268   5.850
 8953POPC   GL158225  36.878   4.366   6.150
 8953POPC   GL258226  36.774   4.300   6.150
 8953POPC   C1A58227  36.889   4.367   6.450
 8953POPC   D2A58228  36.909   4.357   6.750
 8953POPC   C3A58229  36.881   4.354   7.050
 8953POPC   C4A58230  36.879   4.297   7.350
 8953POPC   C1B58231  36.684   4.264   6.450
 8953POPC   C2B58232  36.645   4.282   6.750
 8953POPC   C3B58233  36.668   4.274   7.050
 8953POPC   C4B58234  36.639   4.339   7.350
 8954POPC   NC358235  22.897  14.416   5.550
 8954POPC   PO458236  22.894  14.389   5.850
 8954POPC   GL158237  22.943  14.361   6.150
 8954POPC   GL258238  23.018  14.392   6.150
 8954POPC   C1A58239  22.961  14.368   6.450
 8954POPC   D2A58240  22.934  14.375   6.750
 8954POPC   C3A58241  22.936  14.385   7.050
 8954POPC   C4A58242  22.945  14.374   7.350
 8954POPC   C1B58243  23.128  14.261   6.450
 8954POPC   C2B58244  23.175  14.255   6.750
 8954POPC   C3B58245  23.196  14.275   7.050
 8954POPC   C4B58246  23.146  14.349   7.350
 8955POPC   NC358247  19.063  12.063   5.550
 8955POPC   PO458248  19.064  12.029   5.850
 8955POPC   GL158249  19.046  12.053   6.150
 8955POPC   GL258250  19.092  11.978   6.150
 8955POPC   C1A58251  19.029  12.116   6.450
 8955POPC   D2A58252  19.093  12.090   6.750
 8955POPC   C3A58253  19.060  12.072   7.050
 8955POPC   C4A58254  19.103  12.072   7.350
 8955POPC   C1B58255  19.193  11.855   6.450
 8955POPC   C2B58256  19.179  11.839   6.750
 8955POPC   C3B58257  19.116  11.799   7.050
 8955POPC   C4B58258  19.165  11.816   7.350
 8956POPC   NC358259  18.236  42.310   5.550
 8956POPC   PO458260  18.268  42.297   5.850
 8956POPC   GL158261  18.308  42.286   6.150
 8956POPC   GL258262  18.299  42.177   6.150
 8956POPC   C1A58263  18.257  42.291   6.450
 8956POPC   D2A58264  18.282  42.376   6.750
 8956POPC   C3A58265  18.278  42.303   7.050
 8956POPC   C4A58266  18.293  42.307   7.350
 8956POPC   C1B58267  18.317  42.118   6.450
 8956POPC   C2B58268  18.287  42.046   6.750
 8956POPC   C3B58269  18.371  42.055   7.050
 8956POPC   C4B58270  18.365  42.068   7.350
 8957POPC   NC358271  26.866   3.519   5.550
 8957POPC   PO458272  26.813   3.588   5.850
 8957POPC   GL158273  26.795   3.543   6.150
 8957POPC   GL258274  26.660   3.532   6.150
 8957POPC   C1A58275  26.852   3.581   6.450
 8957POPC   D2A58276  26.794   3.577   6.750
 8957POPC   C3A58277  26.817   3.530   7.050
 8957POPC   C4A58278  26.774   3.539   7.350
 8957POPC   C1B58279  26.619   3.463   6.450
 8957POPC   C2B58280  26.617   3.455   6.750
 8957POPC   C3B58281  26.555   3.453   7.050
 8957POPC   C4B58282  26.545   3.456   7.350
 8958POPC   NC358283   1.189  22.196   5.550
 8958POPC   PO458284   1.248  22.189   5.850
 8958POPC   GL158285   1.263  22.209   6.150
 8958POPC   GL258286   1.251  22.076   6.150
 8958POPC   C1A58287   1.172  22.183   6.450
 8958POPC   D2A58288   1.218  22.160   6.750
 8958POPC   C3A58289   1.238  22.201   7.050
 8958POPC   C4A58290   1.263  22.118   7.350
 8958POPC   C1B58291   1.190  21.951   6.450
 8958POPC   C2B58292   1.245  21.880   6.750
 8958POPC   C3B58293   1.194  21.875   7.050
 8958POPC   C4B58294   1.175  21.893   7.350
 8959POPC   NC358295  11.300  40.044   5.550
 8959POPC   PO458296  11.282  39.965   5.850
 8959POPC   GL158297  11.347  40.023   6.150
 8959POPC   GL258298  11.275  40.085   6.150
 8959POPC   C1A58299  11.318  40.001   6.450
 8959POPC   D2A58300  11.335  40.009   6.750
 8959POPC   C3A58301  11.325  39.962   7.050
 8959POPC   C4A58302  11.339  39.981   7.350
 8959POPC   C1B58303  11.320  40.239   6.450
 8959POPC   C2B58304  11.320  40.265   6.750
 8959POPC   C3B58305  11.257  40.230   7.050
 8959POPC   C4B58306  11.240  40.213   7.350
 8960POPC   NC358307  43.902   1.974   5.550
 8960POPC   PO458308  43.909   1.995   5.850
 8960POPC   GL158309  43.846   2.026   6.150
 8960POPC   GL258310  43.831   1.896   6.150
 8960POPC   C1A58311  43.922   2.004   6.450
 8960POPC   D2A58312  43.837   2.012   6.750
 8960POPC   C3A58313  43.873   1.976   7.050
 8960POPC   C4A58314  43.904   1.952   7.350
 8960POPC   C1B58315  43.808   1.800   6.450
 8960POPC   C2B58316  43.737   1.742   6.750
 8960POPC   C3B58317  43.771   1.809   7.050
 8960POPC   C4B58318  43.817   1.762   7.350
 8961POPC   NC358319  29.925   8.167   5.550
 8961POPC   PO458320  29.918   8.170   5.850
 8961POPC   GL158321  29.915   8.241   6.150
 8961POPC   GL258322  29.999   8.310   6.150
 8961POPC   C1A58323  29.961   8.165   6.450
 8961POPC   D2A58324  29.885   8.226   6.750
 8961POPC   C3A58325  29.942   8.205   7.050
 8961POPC   C4A58326  29.967   8.195   7.350
 8961POPC   C1B58327  30.082   8.430   6.450
 8961POPC   C2B58328  30.055   8.385   6.750
 8961POPC   C3B58329  30.081   8.434   7.050
 8961POPC   C4B58330  30.011   8.376   7.350
 8962POPC   NC358331   9.735  29.170   5.550
 8962POPC   PO458332   9.743  29.135   5.850
 8962POPC   GL158333   9.704  29.142   6.150
 8962POPC   GL258334   9.713  29.268   6.150
 8962POPC   C1A58335   9.731  29.183   6.450
 8962POPC   D2A58336   9.763  29.169   6.750
 8962POPC   C3A58337   9.708  29.179   7.050
 8962POPC   C4A58338   9.751  29.164   7.350
 8962POPC   C1B58339   9.680  29.390   6.450
 8962POPC   C2B58340   9.702  29.376   6.750
 8962POPC   C3B58341   9.693  29.375   7.050
 8962POPC   C4B58342   9.734  29.425   7.350
 8963POPC   NC358343  19.845   9.797   5.550
 8963POPC   PO458344  19.870   9.780   5.850
 8963POPC   GL158345  19.837   9.754   6.150
 8963POPC   GL258346  19.875   9.670   6.150
 8963POPC   C1A58347  19.807   9.717   6.450
 8963POPC   D2A58348  19.873   9.738   6.750
 8963POPC   C3A58349  19.814   9.778   7.050
 8963POPC   C4A58350  19.876   9.736   7.350
 8963POPC   C1B58351  19.916   9.535   6.450
 8963POPC   C2B58352  19.882   9.547   6.750
 8963POPC   C3B58353  19.929   9.536   7.050
 8963POPC   C4B58354  19.877   9.528   7.350
 8964POPC   NC358355  33.755  12.084   5.550
 8964POPC   PO458356  33.782  12.050   5.850
 8964POPC   GL158357  33.780  12.120   6.150
 8964POPC   GL258358  33.859  12.197   6.150
 8964POPC   C1A58359  33.797  12.061   6.450
 8964POPC   D2A58360  33.835  12.077   6.750
 8964POPC   C3A58361  33.836  12.089   7.050
 8964POPC   C4A58362  33.849  12.032   7.350
 8964POPC   C1B58363  33.825  12.326   6.450
 8964POPC   C2B58364  33.813  12.338   6.750
 8964POPC   C3B58365  33.832  12.273   7.050
 8964POPC   C4B58366  33.800  12.326   7.350
 8965POPC   NC358367  40.789  12.873   5.550
 8965POPC   PO458368  40.752  12.853   5.850
 8965POPC   GL158369  40.741  12.846   6.150
 8965POPC   GL258370  40.881  12.731   6.150
 8965POPC   C1A58371  40.764  12.844   6.450
 8965POPC   D2A58372  40.762  12.895   6.750
 8965POPC   C3A58373  40.761  12.884   7.050
 8965POPC   C4A58374  40.779  12.888   7.350
 8965POPC   C1B58375  41.005  12.647   6.450
 8965POPC   C2B58376  40.993  12.686   6.750
 8965POPC   C3B58377  40.983  12.648   7.050
 8965POPC   C4B58378  41.000  12.673   7.350
 8966POPC   NC358379  34.614   2.723   5.550
 8966POPC   PO458380  34.602   2.718   5.850
 8966POPC   GL158381  34.551   2.774   6.150
 8966POPC   GL258382  34.534   2.831   6.150
 8966POPC   C1A58383  34.593   2.811   6.450
 8966POPC   D2A58384  34.603   2.737   6.750
 8966POPC   C3A58385  34.571   2.729   7.050
 8966POPC   C4A58386  34.570   2.734   7.350
 8966POPC   C1B58387  34.397   2.980   6.450
 8966POPC   C2B58388  34.441   3.004   6.750
 8966POPC   C3B58389  34.432   3.008   7.050
 8966POPC   C4B58390  34.411   2.935   7.350
 8967POPC   NC358391  12.900  25.275   5.550
 8967POPC   PO458392  12.901  25.237   5.850
 8967POPC   GL158393  12.881  25.260   6.150
 8967POPC   GL258394  12.922  25.214   6.150
 8967POPC   C1A58395  12.852  25.295   6.450
 8967POPC   D2A58396  12.880  25.281   6.750
 8967POPC   C3A58397  12.824  25.218   7.050
 8967POPC   C4A58398  12.815  25.295   7.350
 8967POPC   C1B58399  13.015  25.148   6.450
 8967POPC   C2B58400  13.064  25.074   6.750
 8967POPC   C3B58401  13.040  25.084   7.050
 8967POPC   C4B58402  13.088  25.103   7.350
 8968POPC   NC358403   5.872  38.502   5.550
 8968POPC   PO458404   5.844  38.489   5.850
 8968POPC   GL158405   5.893  38.481   6.150
 8968POPC   GL258406   5.995  38.454   6.150
 8968POPC   C1A58407   5.866  38.440   6.450
 8968POPC   D2A58408   5.848  38.474   6.750
 8968POPC   C3A58409   5.835  38.479   7.050
 8968POPC   C4A58410   5.901  38.438   7.350
 8968POPC   C1B58411   6.133  38.465   6.450
 8968POPC   C2B58412   6.149  38.489   6.750
 8968POPC   C3B58413   6.086  38.493   7.050
 8968POPC   C4B58414   6.094  38.494   7.350
 8969POPC   NC358415  25.221  24.505   5.550
 8969POPC   PO458416  25.272  24.512   5.850
 8969POPC   GL158417  25.297  24.480   6.150
 8969POPC   GL258418  25.258  24.334   6.150
 8969POPC   C1A58419  25.277  24.505   6.450
 8969POPC   D2A58420  25.247  24.518   6.750
 8969POPC   C3A58421  25.307  24.463   7.050
 8969POPC   C4A58422  25.314  24.462   7.350
 8969POPC   C1B58423  25.307  24.281   6.450
 8969POPC   C2B58424  25.320  24.244   6.750
 8969POPC   C3B58425  25.249  24.248   7.050
 8969POPC   C4B58426  25.305  24.209   7.350
 8970POPC   NC358427  40.745   9.710   5.550
 8970POPC   PO458428  40.743   9.732   5.850
 8970POPC   GL158429  40.824   9.789   6.150
 8970POPC   GL258430  40.885   9.785   6.150
 8970POPC   C1A58431  40.785   9.778   6.450
 8970POPC   D2A58432  40.814   9.770   6.750
 8970POPC   C3A58433  40.798   9.722   7.050
 8970POPC   C4A58434  40.790   9.789   7.350
 8970POPC   C1B58435  41.012   9.877   6.450
 8970POPC   C2B58436  40.964   9.866   6.750
 8970POPC   C3B58437  40.977   9.821   7.050
 8970POPC   C4B58438  41.022   9.844   7.350
 8971POPC   NC358439   1.255  22.943   5.550
 8971POPC   PO458440   1.231  22.909   5.850
 8971POPC   GL158441   1.181  22.948   6.150
 8971POPC   GL258442   1.299  22.887   6.150
 8971POPC   C1A58443   1.185  22.987   6.450
 8971POPC   D2A58444   1.200  22.927   6.750
 8971POPC   C3A58445   1.227  22.961   7.050
 8971POPC   C4A58446   1.178  22.980   7.350
 8971POPC   C1B58447   1.476  22.888   6.450
 8971POPC   C2B58448   1.429  22.884   6.750
 8971POPC   C3B58449   1.478  22.877   7.050
 8971POPC   C4B58450   1.431  22.866   7.350
 8972POPC   NC358451  36.860  15.941   5.550
 8972POPC   PO458452  36.909  15.977   5.850
 8972POPC   GL158453  36.933  15.927   6.150
 8972POPC   GL258454  36.782  16.008   6.150
 8972POPC   C1A58455  36.899  15.932   6.450
 8972POPC   D2A58456  36.892  15.921   6.750
 8972POPC   C3A58457  36.925  15.987   7.050
 8972POPC   C4A58458  36.926  15.939   7.350
 8972POPC   C1B58459  36.651  15.995   6.450
 8972POPC   C2B58460  36.680  16.044   6.750
 8972POPC   C3B58461  36.664  15.970   7.050
 8972POPC   C4B58462  36.683  15.961   7.350
 8973POPC   NC358463  29.947  40.051   5.550
 8973POPC   PO458464  29.891  40.000   5.850
 8973POPC   GL158465  29.937  39.994   6.150
 8973POPC   GL258466  29.772  39.962   6.150
 8973POPC   C1A58467  29.968  40.022   6.450
 8973POPC   D2A58468  29.890  39.980   6.750
 8973POPC   C3A58469  29.970  40.046   7.050
 8973POPC   C4A58470  29.879  40.021   7.350
 8973POPC   C1B58471  29.734  39.878   6.450
 8973POPC   C2B58472  29.674  39.952   6.750
 8973POPC   C3B58473  29.659  39.944   7.050
 8973POPC   C4B58474  29.689  39.876   7.350
 8974POPC   NC358475  10.482  29.096   5.550
 8974POPC   PO458476  10.538  29.113   5.850
 8974POPC   GL158477  10.572  29.161   6.150
 8974POPC   GL258478  10.493  29.086   6.150
 8974POPC   C1A58479  10.530  29.168   6.450
 8974POPC   D2A58480  10.492  29.188   6.750
 8974POPC   C3A58481  10.499  29.123   7.050
 8974POPC   C4A58482  10.512  29.112   7.350
 8974POPC   C1B58483  10.374  28.920   6.450
 8974POPC   C2B58484  10.410  28.966   6.750
 8974POPC   C3B58485  10.441  28.919   7.050
 8974POPC   C4B58486  10.363  28.890   7.350
 8975POPC   NC358487  12.857  22.905   5.550
 8975POPC   PO458488  12.887  22.980   5.850
 8975POPC   GL158489  12.894  22.975   6.150
 8975POPC   GL258490  13.019  22.983   6.150
 8975POPC   C1A58491  12.873  22.896   6.450
 8975POPC   D2A58492  12.866  22.956   6.750
 8975POPC   C3A58493  12.899  22.974   7.050
 8975POPC   C4A58494  12.852  22.954   7.350
 8975POPC   C1B58495  13.087  22.931   6.450
 8975POPC   C2B58496  13.098  23.000   6.750
 8975POPC   C3B58497  13.126  22.998   7.050
 8975POPC   C4B58498  13.088  22.938   7.350
 8976POPC   NC358499   2.034  24.475   5.550
 8976POPC   PO458500   1.957  24.456   5.850
 8976POPC   GL158501   2.018  24.537   6.150
 8976POPC   GL258502   2.101  24.426   6.150
 8976POPC   C1A58503   1.942  24.512   6.450
 8976POPC   D2A58504   2.002  24.525   6.750
 8976POPC   C3A58505   2.031  24.448   7.050
 8976POPC   C4A58506   1.984  24.521   7.350
 8976POPC   C1B58507   2.267  24.430   6.450
 8976POPC   C2B58508   2.202  24.357   6.750
 8976POPC   C3B58509   2.175  24.391   7.050
 8976POPC   C4B58510   2.229  24.361   7.350
 8977POPC   NC358511  15.920  43.864   5.550
 8977POPC   PO458512  15.931  43.895   5.850
 8977POPC   GL158513  16.000  43.879   6.150
 8977POPC   GL258514  15.974  43.799   6.150
 8977POPC   C1A58515  15.940  43.897   6.450
 8977POPC   D2A58516  15.959  43.936   6.750
 8977POPC   C3A58517  15.943  43.919   7.050
 8977POPC   C4A58518  15.973  43.857   7.350
 8977POPC   C1B58519  15.922  43.617   6.450
 8977POPC   C2B58520  15.944  43.589   6.750
 8977POPC   C3B58521  15.946  43.617   7.050
 8977POPC   C4B58522  15.923  43.684   7.350
 8978POPC   NC358523  44.633  27.556   5.550
 8978POPC   PO458524  44.634  27.558   5.850
 8978POPC   GL158525  44.657  27.616   6.150
 8978POPC   GL258526  44.791  27.491   6.150
 8978POPC   C1A58527  44.663  27.573   6.450
 8978POPC   D2A58528  44.700  27.557   6.750
 8978POPC   C3A58529  44.638  27.569   7.050
 8978POPC   C4A58530  44.666  27.617   7.350
 8978POPC   C1B58531  44.835  27.411   6.450
 8978POPC   C2B58532  44.859  27.399   6.750
 8978POPC   C3B58533  44.898  27.440   7.050
 8978POPC   C4B58534  44.882  27.417   7.350
 8979POPC   NC358535  24.441  44.665   5.550
 8979POPC   PO458536  24.461  44.655   5.850
 8979POPC   GL158537  24.496  44.690   6.150
 8979POPC   GL258538  24.505  44.787   6.150
 8979POPC   C1A58539  24.529  44.613   6.450
 8979POPC   D2A58540  24.458  44.649   6.750
 8979POPC   C3A58541  24.443  44.671   7.050
 8979POPC   C4A58542  24.442  44.637   7.350
 8979POPC   C1B58543  24.451  44.867   6.450
 8979POPC   C2B58544  24.458  44.905   6.750
 8979POPC   C3B58545  24.404  44.895   7.050
 8979POPC   C4B58546  24.443  44.950   7.350
 8980POPC   NC358547   4.273  38.437   5.550
 8980POPC   PO458548   4.315  38.415   5.850
 8980POPC   GL158549   4.296  38.411   6.150
 8980POPC   GL258550   4.228  38.588   6.150
 8980POPC   C1A58551   4.294  38.497   6.450
 8980POPC   D2A58552   4.366  38.500   6.750
 8980POPC   C3A58553   4.348  38.466   7.050
 8980POPC   C4A58554   4.278  38.423   7.350
 8980POPC   C1B58555   4.147  38.667   6.450
 8980POPC   C2B58556   4.166  38.692   6.750
 8980POPC   C3B58557   4.158  38.704   7.050
 8980POPC   C4B58558   4.209  38.619   7.350
 8981POPC   NC358559   0.428  42.369   5.550
 8981POPC   PO458560   0.453  42.328   5.850
 8981POPC   GL158561   0.422  42.384   6.150
 8981POPC   GL258562   0.305  42.429   6.150
 8981POPC   C1A58563   0.398  42.322   6.450
 8981POPC   D2A58564   0.404  42.330   6.750
 8981POPC   C3A58565   0.436  42.318   7.050
 8981POPC   C4A58566   0.457  42.381   7.350
 8981POPC   C1B58567   0.243  42.440   6.450
 8981POPC   C2B58568   0.192  42.390   6.750
 8981POPC   C3B58569   0.200  42.480   7.050
 8981POPC   C4B58570   0.178  42.390   7.350
 8982POPC   NC358571  43.062  38.466   5.550
 8982POPC   PO458572  43.105  38.458   5.850
 8982POPC   GL158573  43.144  38.419   6.150
 8982POPC   GL258574  43.194  38.517   6.150
 8982POPC   C1A58575  43.115  38.495   6.450
 8982POPC   D2A58576  43.137  38.502   6.750
 8982POPC   C3A58577  43.146  38.414   7.050
 8982POPC   C4A58578  43.096  38.499   7.350
 8982POPC   C1B58579  43.181  38.640   6.450
 8982POPC   C2B58580  43.198  38.647   6.750
 8982POPC   C3B58581  43.270  38.693   7.050
 8982POPC   C4B58582  43.200  38.675   7.350
 8983POPC   NC358583  32.248  36.130   5.550
 8983POPC   PO458584  32.214  36.164   5.850
 8983POPC   GL158585  32.289  36.162   6.150
 8983POPC   GL258586  32.331  36.232   6.150
 8983POPC   C1A58587  32.212  36.137   6.450
 8983POPC   D2A58588  32.206  36.083   6.750
 8983POPC   C3A58589  32.233  36.120   7.050
 8983POPC   C4A58590  32.288  36.078   7.350
 8983POPC   C1B58591  32.437  36.340   6.450
 8983POPC   C2B58592  32.370  36.305   6.750
 8983POPC   C3B58593  32.358  36.382   7.050
 8983POPC   C4B58594  32.428  36.371   7.350
 8984POPC   NC358595  20.573  23.685   5.550
 8984POPC   PO458596  20.649  23.737   5.850
 8984POPC   GL158597  20.624  23.724   6.150
 8984POPC   GL258598  20.506  23.667   6.150
 8984POPC   C1A58599  20.619  23.729   6.450
 8984POPC   D2A58600  20.581  23.710   6.750
 8984POPC   C3A58601  20.653  23.748   7.050
 8984POPC   C4A58602  20.644  23.745   7.350
 8984POPC   C1B58603  20.375  23.575   6.450
 8984POPC   C2B58604  20.426  23.566   6.750
 8984POPC   C3B58605  20.417  23.585   7.050
 8984POPC   C4B58606  20.413  23.561   7.350
 8985POPC   NC358607  30.741  13.636   5.550
 8985POPC   PO458608  30.664  13.647   5.850
 8985POPC   GL158609  30.699  13.597   6.150
 8985POPC   GL258610  30.784  13.763   6.150
 8985POPC   C1A58611  30.741  13.589   6.450
 8985POPC   D2A58612  30.657  13.654   6.750
 8985POPC   C3A58613  30.716  13.676   7.050
 8985POPC   C4A58614  30.691  13.656   7.350
 8985POPC   C1B58615  30.807  13.853   6.450
 8985POPC   C2B58616  30.746  13.853   6.750
 8985POPC   C3B58617  30.805  13.863   7.050
 8985POPC   C4B58618  30.738  13.869   7.350
 8986POPC   NC358619  38.440  15.226   5.550
 8986POPC   PO458620  38.416  15.191   5.850
 8986POPC   GL158621  38.486  15.195   6.150
 8986POPC   GL258622  38.384  15.042   6.150
 8986POPC   C1A58623  38.450  15.162   6.450
 8986POPC   D2A58624  38.458  15.149   6.750
 8986POPC   C3A58625  38.424  15.136   7.050
 8986POPC   C4A58626  38.425  15.192   7.350
 8986POPC   C1B58627  38.256  14.942   6.450
 8986POPC   C2B58628  38.251  14.937   6.750
 8986POPC   C3B58629  38.294  15.011   7.050
 8986POPC   C4B58630  38.302  14.942   7.350
 8987POPC   NC358631  40.751  40.795   5.550
 8987POPC   PO458632  40.820  40.799   5.850
 8987POPC   GL158633  40.810  40.810   6.150
 8987POPC   GL258634  40.875  40.830   6.150
 8987POPC   C1A58635  40.781  40.736   6.450
 8987POPC   D2A58636  40.764  40.820   6.750
 8987POPC   C3A58637  40.805  40.771   7.050
 8987POPC   C4A58638  40.792  40.737   7.350
 8987POPC   C1B58639  40.957  40.948   6.450
 8987POPC   C2B58640  41.025  40.895   6.750
 8987POPC   C3B58641  40.978  40.914   7.050
 8987POPC   C4B58642  41.041  40.907   7.350
 8988POPC   NC358643  17.489   8.924   5.550
 8988POPC   PO458644  17.474   8.928   5.850
 8988POPC   GL158645  17.545   8.949   6.150
 8988POPC   GL258646  17.451   9.011   6.150
 8988POPC   C1A58647  17.492   8.997   6.450
 8988POPC   D2A58648  17.527   8.997   6.750
 8988POPC   C3A58649  17.550   8.976   7.050
 8988POPC   C4A58650  17.545   8.964   7.350
 8988POPC   C1B58651  17.280   9.106   6.450
 8988POPC   C2B58652  17.280   9.111   6.750
 8988POPC   C3B58653  17.350   9.183   7.050
 8988POPC   C4B58654  17.349   9.138   7.350
 8989POPC   NC358655  22.178  20.650   5.550
 8989POPC   PO458656  22.131  20.613   5.850
 8989POPC   GL158657  22.140  20.634   6.150
 8989POPC   GL258658  22.257  20.724   6.150
 8989POPC   C1A58659  22.201  20.651   6.450
 8989POPC   D2A58660  22.172  20.573   6.750
 8989POPC   C3A58661  22.163  20.625   7.050
 8989POPC   C4A58662  22.153  20.562   7.350
 8989POPC   C1B58663  22.304  20.734   6.450
 8989POPC   C2B58664  22.304  20.820   6.750
 8989POPC   C3B58665  22.340  20.803   7.050
 8989POPC   C4B58666  22.386  20.797   7.350
 8990POPC   NC358667  36.147  14.376   5.550
 8990POPC   PO458668  36.133  14.414   5.850
 8990POPC   GL158669  36.108  14.429   6.150
 8990POPC   GL258670  36.002  14.452   6.150
 8990POPC   C1A58671  36.082  14.372   6.450
 8990POPC   D2A58672  36.146  14.376   6.750
 8990POPC   C3A58673  36.095  14.431   7.050
 8990POPC   C4A58674  36.169  14.366   7.350
 8990POPC   C1B58675  35.932  14.532   6.450
 8990POPC   C2B58676  35.901  14.491   6.750
 8990POPC   C3B58677  35.859  14.550   7.050
 8990POPC   C4B58678  35.920  14.498   7.350
 8991POPC   NC358679  17.530  40.812   5.550
 8991POPC   PO458680  17.464  40.833   5.850
 8991POPC   GL158681  17.480  40.760   6.150
 8991POPC   GL258682  17.376  40.741   6.150
 8991POPC   C1A58683  17.499  40.801   6.450
 8991POPC   D2A58684  17.513  40.823   6.750
 8991POPC   C3A58685  17.531  40.760   7.050
 8991POPC   C4A58686  17.468  40.747   7.350
 8991POPC   C1B58687  17.327  40.628   6.450
 8991POPC   C2B58688  17.326  40.659   6.750
 8991POPC   C3B58689  17.261  40.670   7.050
 8991POPC   C4B58690  17.342  40.586   7.350
 8992POPC   NC358691   9.718  28.387   5.550
 8992POPC   PO458692   9.718  28.322   5.850
 8992POPC   GL158693   9.764  28.353   6.150
 8992POPC   GL258694   9.720  28.448   6.150
 8992POPC   C1A58695   9.744  28.348   6.450
 8992POPC   D2A58696   9.790  28.386   6.750
 8992POPC   C3A58697   9.760  28.386   7.050
 8992POPC   C4A58698   9.774  28.337   7.350
 8992POPC   C1B58699   9.783  28.575   6.450
 8992POPC   C2B58700   9.781  28.619   6.750
 8992POPC   C3B58701   9.715  28.646   7.050
 8992POPC   C4B58702   9.789  28.624   7.350
 8993POPC   NC358703  12.099  33.047   5.550
 8993POPC   PO458704  12.080  33.036   5.850
 8993POPC   GL158705  12.086  32.987   6.150
 8993POPC   GL258706  11.961  33.061   6.150
 8993POPC   C1A58707  12.062  33.063   6.450
 8993POPC   D2A58708  12.091  33.072   6.750
 8993POPC   C3A58709  12.081  33.053   7.050
 8993POPC   C4A58710  12.037  33.054   7.350
 8993POPC   C1B58711  11.888  33.160   6.450
 8993POPC   C2B58712  11.821  33.164   6.750
 8993POPC   C3B58713  11.856  33.191   7.050
 8993POPC   C4B58714  11.856  33.146   7.350
 8994POPC   NC358715  21.360  22.914   5.550
 8994POPC   PO458716  21.369  22.956   5.850
 8994POPC   GL158717  21.403  22.901   6.150
 8994POPC   GL258718  21.480  22.983   6.150
 8994POPC   C1A58719  21.430  22.922   6.450
 8994POPC   D2A58720  21.430  22.928   6.750
 8994POPC   C3A58721  21.388  22.922   7.050
 8994POPC   C4A58722  21.337  22.954   7.350
 8994POPC   C1B58723  21.620  22.913   6.450
 8994POPC   C2B58724  21.634  22.958   6.750
 8994POPC   C3B58725  21.597  22.969   7.050
 8994POPC   C4B58726  21.657  22.922   7.350
 8995POPC   NC358727  19.859   5.892   5.550
 8995POPC   PO458728  19.808   5.833   5.850
 8995POPC   GL158729  19.850   5.819   6.150
 8995POPC   GL258730  19.867   5.944   6.150
 8995POPC   C1A58731  19.880   5.821   6.450
 8995POPC   D2A58732  19.829   5.901   6.750
 8995POPC   C3A58733  19.875   5.832   7.050
 8995POPC   C4A58734  19.809   5.911   7.350
 8995POPC   C1B58735  19.891   6.102   6.450
 8995POPC   C2B58736  19.952   6.100   6.750
 8995POPC   C3B58737  19.963   6.086   7.050
 8995POPC   C4B58738  19.934   6.061   7.350
 8996POPC   NC358739  30.739  31.498   5.550
 8996POPC   PO458740  30.685  31.495   5.850
 8996POPC   GL158741  30.700  31.455   6.150
 8996POPC   GL258742  30.714  31.553   6.150
 8996POPC   C1A58743  30.741  31.471   6.450
 8996POPC   D2A58744  30.687  31.503   6.750
 8996POPC   C3A58745  30.723  31.515   7.050
 8996POPC   C4A58746  30.661  31.448   7.350
 8996POPC   C1B58747  30.691  31.680   6.450
 8996POPC   C2B58748  30.726  31.745   6.750
 8996POPC   C3B58749  30.741  31.695   7.050
 8996POPC   C4B58750  30.752  31.711   7.350
 8997POPC   NC358751  24.495   1.176   5.550
 8997POPC   PO458752  24.488   1.170   5.850
 8997POPC   GL158753  24.516   1.211   6.150
 8997POPC   GL258754  24.406   1.364   6.150
 8997POPC   C1A58755  24.492   1.191   6.450
 8997POPC   D2A58756  24.446   1.232   6.750
 8997POPC   C3A58757  24.462   1.226   7.050
 8997POPC   C4A58758  24.491   1.242   7.350
 8997POPC   C1B58759  24.376   1.448   6.450
 8997POPC   C2B58760  24.397   1.408   6.750
 8997POPC   C3B58761  24.429   1.424   7.050
 8997POPC   C4B58762  24.448   1.442   7.350
 8998POPC   NC358763  29.951  42.324   5.550
 8998POPC   PO458764  29.946  42.368   5.850
 8998POPC   GL158765  29.914  42.330   6.150
 8998POPC   GL258766  29.841  42.436   6.150
 8998POPC   C1A58767  29.960  42.373   6.450
 8998POPC   D2A58768  29.908  42.356   6.750
 8998POPC   C3A58769  29.928  42.300   7.050
 8998POPC   C4A58770  29.969  42.323   7.350
 8998POPC   C1B58771  29.738  42.566   6.450
 8998POPC   C2B58772  29.764  42.528   6.750
 8998POPC   C3B58773  29.741  42.549   7.050
 8998POPC   C4B58774  29.787  42.497   7.350
 8999POPC   NC358775   5.050  27.550   5.550
 8999POPC   PO458776   5.137  27.568   5.850
 8999POPC   GL158777   5.049  27.634   6.150
 8999POPC   GL258778   4.976  27.547   6.150
 8999POPC   C1A58779   5.054  27.632   6.450
 8999POPC   D2A58780   5.075  27.584   6.750
 8999POPC   C3A58781   5.079  27.603   7.050
 8999POPC   C4A58782   5.131  27.580   7.350
 8999POPC   C1B58783   4.851  27.455   6.450
 8999POPC   C2B58784   4.850  27.512   6.750
 8999POPC   C3B58785   4.829  27.501   7.050
 8999POPC   C4B58786   4.897  27.472   7.350
 9000POPC   NC358787   8.245   3.589   5.550
 9000POPC   PO458788   8.182   3.534   5.850
 9000POPC   GL158789   8.218   3.521   6.150
 9000POPC   GL258790   8.352   3.526   6.150
 9000POPC   C1A58791   8.243   3.522   6.450
 9000POPC   D2A58792   8.236   3.502   6.750
 9000POPC   C3A58793   8.157   3.573   7.050
 9000POPC   C4A58794   8.156   3.492   7.350
 9000POPC   C1B58795   8.449   3.576   6.450
 9000POPC   C2B58796   8.468   3.508   6.750
 9000POPC   C3B58797   8.464   3.576   7.050
 9000POPC   C4B58798   8.443   3.556   7.350
 9001POPC   NC358799  25.226  43.916   5.550
 9001POPC   PO458800  25.260  43.922   5.850
 9001POPC   GL158801  25.296  43.914   6.150
 9001POPC   GL258802  25.224  43.724   6.150
 9001POPC   C1A58803  25.298  43.896   6.450
 9001POPC   D2A58804  25.264  43.875   6.750
 9001POPC   C3A58805  25.289  43.887   7.050
 9001POPC   C4A58806  25.288  43.928   7.350
 9001POPC   C1B58807  25.285  43.622   6.450
 9001POPC   C2B58808  25.272  43.651   6.750
 9001POPC   C3B58809  25.230  43.612   7.050
 9001POPC   C4B58810  25.311  43.664   7.350
 9002POPC   NC358811  22.166  12.819   5.550
 9002POPC   PO458812  22.118  12.894   5.850
 9002POPC   GL158813  22.180  12.858   6.150
 9002POPC   GL258814  22.253  12.781   6.150
 9002POPC   C1A58815  22.115  12.837   6.450
 9002POPC   D2A58816  22.138  12.815   6.750
 9002POPC   C3A58817  22.164  12.900   7.050
 9002POPC   C4A58818  22.154  12.824   7.350
 9002POPC   C1B58819  22.292  12.642   6.450
 9002POPC   C2B58820  22.336  12.642   6.750
 9002POPC   C3B58821  22.361  12.675   7.050
 9002POPC   C4B58822  22.346  12.677   7.350
 9003POPC   NC358823   9.785  44.702   5.550
 9003POPC   PO458824   9.757  44.643   5.850
 9003POPC   GL158825   9.719  44.704   6.150
 9003POPC   GL258826   9.689  44.798   6.150
 9003POPC   C1A58827   9.772  44.707   6.450
 9003POPC   D2A58828   9.712  44.613   6.750
 9003POPC   C3A58829   9.774  44.658   7.050
 9003POPC   C4A58830   9.765  44.613   7.350
 9003POPC   C1B58831   9.693  44.904   6.450
 9003POPC   C2B58832   9.737  44.905   6.750
 9003POPC   C3B58833   9.756  44.927   7.050
 9003POPC   C4B58834   9.759  44.867   7.350
 9004POPC   NC358835  41.605  11.350   5.550
 9004POPC   PO458836  41.595  11.287   5.850
 9004POPC   GL158837  41.591  11.312   6.150
 9004POPC   GL258838  41.474  11.179   6.150
 9004POPC   C1A58839  41.608  11.270   6.450
 9004POPC   D2A58840  41.519  11.256   6.750
 9004POPC   C3A58841  41.608  11.349   7.050
 9004POPC   C4A58842  41.564  11.340   7.350
 9004POPC   C1B58843  41.372  11.122   6.450
 9004POPC   C2B58844  41.385  11.154   6.750
 9004POPC   C3B58845  41.332  11.108   7.050
 9004POPC   C4B58846  41.396  11.098   7.350
 9005POPC   NC358847  25.289  26.862   5.550
 9005POPC   PO458848  25.242  26.799   5.850
 9005POPC   GL158849  25.296  26.805   6.150
 9005POPC   GL258850  25.346  26.913   6.150
 9005POPC   C1A58851  25.309  26.812   6.450
 9005POPC   D2A58852  25.288  26.793   6.750
 9005POPC   C3A58853  25.290  26.796   7.050
 9005POPC   C4A58854  25.274  26.849   7.350
 9005POPC   C1B58855  25.418  27.031   6.450
 9005POPC   C2B58856  25.402  27.057   6.750
 9005POPC   C3B58857  25.427  26.993   7.050
 9005POPC   C4B58858  25.440  27.032   7.350
 9006POPC   NC358859  22.194  39.277   5.550
 9006POPC   PO458860  22.181  39.181   5.850
 9006POPC   GL158861  22.137  39.189   6.150
 9006POPC   GL258862  22.052  39.235   6.150
 9006POPC   C1A58863  22.114  39.265   6.450
 9006POPC   D2A58864  22.160  39.257   6.750
 9006POPC   C3A58865  22.177  39.259   7.050
 9006POPC   C4A58866  22.142  39.229   7.350
 9006POPC   C1B58867  21.881  39.305   6.450
 9006POPC   C2B58868  21.914  39.237   6.750
 9006POPC   C3B58869  21.911  39.252   7.050
 9006POPC   C4B58870  21.875  39.272   7.350
 9007POPC   NC358871   3.560  12.896   5.550
 9007POPC   PO458872   3.559  12.804   5.850
 9007POPC   GL158873   3.590  12.871   6.150
 9007POPC   GL258874   3.591  12.768   6.150
 9007POPC   C1A58875   3.561  12.899   6.450
 9007POPC   D2A58876   3.552  12.867   6.750
 9007POPC   C3A58877   3.526  12.897   7.050
 9007POPC   C4A58878   3.567  12.862   7.350
 9007POPC   C1B58879   3.767  12.662   6.450
 9007POPC   C2B58880   3.677  12.647   6.750
 9007POPC   C3B58881   3.698  12.661   7.050
 9007POPC   C4B58882   3.762  12.724   7.350
 9008POPC   NC358883  40.038   2.755   5.550
 9008POPC   PO458884  39.990   2.800   5.850
 9008POPC   GL158885  40.007   2.750   6.150
 9008POPC   GL258886  39.990   2.871   6.150
 9008POPC   C1A58887  39.980   2.814   6.450
 9008POPC   D2A58888  40.049   2.776   6.750
 9008POPC   C3A58889  39.999   2.811   7.050
 9008POPC   C4A58890  40.005   2.759   7.350
 9008POPC   C1B58891  39.902   2.959   6.450
 9008POPC   C2B58892  39.907   2.964   6.750
 9008POPC   C3B58893  39.926   2.969   7.050
 9008POPC   C4B58894  39.922   3.032   7.350
 9009POPC   NC358895  42.303   8.974   5.550
 9009POPC   PO458896  42.329   8.949   5.850
 9009POPC   GL158897  42.303   8.927   6.150
 9009POPC   GL258898  42.426   8.979   6.150
 9009POPC   C1A58899  42.310   8.928   6.450
 9009POPC   D2A58900  42.365   8.970   6.750
 9009POPC   C3A58901  42.358   8.933   7.050
 9009POPC   C4A58902  42.345   8.989   7.350
 9009POPC   C1B58903  42.573   8.980   6.450
 9009POPC   C2B58904  42.617   9.034   6.750
 9009POPC   C3B58905  42.626   8.995   7.050
 9009POPC   C4B58906  42.593   9.049   7.350
 9010POPC   NC358907  10.527  31.462   5.550
 9010POPC   PO458908  10.481  31.504   5.850
 9010POPC   GL158909  10.530  31.470   6.150
 9010POPC   GL258910  10.399  31.442   6.150
 9010POPC   C1A58911  10.480  31.498   6.450
 9010POPC   D2A58912  10.549  31.444   6.750
 9010POPC   C3A58913  10.477  31.466   7.050
 9010POPC   C4A58914  10.484  31.449   7.350
 9010POPC   C1B58915  10.298  31.368   6.450
 9010POPC   C2B58916  10.279  31.321   6.750
 9010POPC   C3B58917  10.282  31.349   7.050
 9010POPC   C4B58918  10.368  31.363   7.350
 9011POPC   NC358919  24.493  40.047   5.550
 9011POPC   PO458920  24.502  40.043   5.850
 9011POPC   GL158921  24.449  40.015   6.150
 9011POPC   GL258922  24.470  40.147   6.150
 9011POPC   C1A58923  24.457  40.024   6.450
 9011POPC   D2A58924  24.505  39.998   6.750
 9011POPC   C3A58925  24.536  39.968   7.050
 9011POPC   C4A58926  24.444  39.983   7.350
 9011POPC   C1B58927  24.429  40.275   6.450
 9011POPC   C2B58928  24.491  40.241   6.750
 9011POPC   C3B58929  24.491  40.292   7.050
 9011POPC   C4B58930  24.401  40.264   7.350
 9012POPC   NC358931  22.961  36.903   5.550
 9012POPC   PO458932  22.899  36.889   5.850
 9012POPC   GL158933  22.934  36.902   6.150
 9012POPC   GL258934  23.012  36.822   6.150
 9012POPC   C1A58935  22.910  36.940   6.450
 9012POPC   D2A58936  22.986  36.883   6.750
 9012POPC   C3A58937  22.946  36.911   7.050
 9012POPC   C4A58938  22.904  36.885   7.350
 9012POPC   C1B58939  23.184  36.711   6.450
 9012POPC   C2B58940  23.146  36.717   6.750
 9012POPC   C3B58941  23.120  36.744   7.050
 9012POPC   C4B58942  23.137  36.755   7.350
 9013POPC   NC358943  35.374  39.986   5.550
 9013POPC   PO458944  35.304  39.975   5.850
 9013POPC   GL158945  35.358  40.056   6.150
 9013POPC   GL258946  35.451  40.056   6.150
 9013POPC   C1A58947  35.370  40.046   6.450
 9013POPC   D2A58948  35.305  39.983   6.750
 9013POPC   C3A58949  35.309  40.031   7.050
 9013POPC   C4A58950  35.344  40.024   7.350
 9013POPC   C1B58951  35.581  40.116   6.450
 9013POPC   C2B58952  35.516  40.180   6.750
 9013POPC   C3B58953  35.555  40.191   7.050
 9013POPC   C4B58954  35.581  40.186   7.350
 9014POPC   NC358955  42.295  16.746   5.550
 9014POPC   PO458956  42.332  16.780   5.850
 9014POPC   GL158957  42.296  16.687   6.150
 9014POPC   GL258958  42.450  16.661   6.150
 9014POPC   C1A58959  42.342  16.775   6.450
 9014POPC   D2A58960  42.335  16.766   6.750
 9014POPC   C3A58961  42.330  16.772   7.050
 9014POPC   C4A58962  42.290  16.722   7.350
 9014POPC   C1B58963  42.592  16.578   6.450
 9014POPC   C2B58964  42.585  16.643   6.750
 9014POPC   C3B58965  42.525  16.635   7.050
 9014POPC   C4B58966  42.505  16.600   7.350
 9015POPC   NC358967  37.637  19.862   5.550
 9015POPC   PO458968  37.639  19.813   5.850
 9015POPC   GL158969  37.675  19.829   6.150
 9015POPC   GL258970  37.532  19.792   6.150
 9015POPC   C1A58971  37.729  19.861   6.450
 9015POPC   D2A58972  37.690  19.872   6.750
 9015POPC   C3A58973  37.684  19.848   7.050
 9015POPC   C4A58974  37.657  19.861   7.350
 9015POPC   C1B58975  37.464  19.706   6.450
 9015POPC   C2B58976  37.411  19.743   6.750
 9015POPC   C3B58977  37.464  19.772   7.050
 9015POPC   C4B58978  37.453  19.717   7.350
 9016POPC   NC358979   8.947  29.896   5.550
 9016POPC   PO458980   9.019  29.907   5.850
 9016POPC   GL158981   8.943  29.942   6.150
 9016POPC   GL258982   9.085  29.918   6.150
 9016POPC   C1A58983   8.994  29.902   6.450
 9016POPC   D2A58984   8.927  29.962   6.750
 9016POPC   C3A58985   8.978  29.947   7.050
 9016POPC   C4A58986   9.018  29.873   7.350
 9016POPC   C1B58987   9.219  30.005   6.450
 9016POPC   C2B58988   9.248  30.020   6.750
 9016POPC   C3B58989   9.192  29.978   7.050
 9016POPC   C4B58990   9.180  29.993   7.350
 9017POPC   NC358991  27.592  19.035   5.550
 9017POPC   PO458992  27.583  19.038   5.850
 9017POPC   GL158993  27.582  19.068   6.150
 9017POPC   GL258994  27.636  18.950   6.150
 9017POPC   C1A58995  27.586  19.090   6.450
 9017POPC   D2A58996  27.623  19.028   6.750
 9017POPC   C3A58997  27.572  19.051   7.050
 9017POPC   C4A58998  27.545  19.090   7.350
 9017POPC   C1B58999  27.621  18.833   6.450
 9017POPC   C2B59000  27.590  18.804   6.750
 9017POPC   C3B59001  27.608  18.802   7.050
 9017POPC   C4B59002  27.636  18.793   7.350
 9018POPC   NC359003  11.254  15.955   5.550
 9018POPC   PO459004  11.300  15.948   5.850
 9018POPC   GL159005  11.276  16.001   6.150
 9018POPC   GL259006  11.191  15.891   6.150
 9018POPC   C1A59007  11.311  15.997   6.450
 9018POPC   D2A59008  11.331  16.004   6.750
 9018POPC   C3A59009  11.304  15.970   7.050
 9018POPC   C4A59010  11.309  15.991   7.350
 9018POPC   C1B59011  11.064  15.846   6.450
 9018POPC   C2B59012  11.067  15.877   6.750
 9018POPC   C3B59013  11.111  15.841   7.050
 9018POPC   C4B59014  11.020  15.850   7.350
 9019POPC   NC359015  34.570  23.700   5.550
 9019POPC   PO459016  34.528  23.715   5.850
 9019POPC   GL159017  34.561  23.677   6.150
 9019POPC   GL259018  34.659  23.819   6.150
 9019POPC   C1A59019  34.546  23.707   6.450
 9019POPC   D2A59020  34.572  23.732   6.750
 9019POPC   C3A59021  34.564  23.693   7.050
 9019POPC   C4A59022  34.556  23.744   7.350
 9019POPC   C1B59023  34.641  23.919   6.450
 9019POPC   C2B59024  34.692  23.953   6.750
 9019POPC   C3B59025  34.645  23.916   7.050
 9019POPC   C4B59026  34.692  23.908   7.350
 9020POPC   NC359027  37.728  22.135   5.550
 9020POPC   PO459028  37.689  22.177   5.850
 9020POPC   GL159029  37.632  22.146   6.150
 9020POPC   GL259030  37.613  22.122   6.150
 9020POPC   C1A59031  37.720  22.204   6.450
 9020POPC   D2A59032  37.682  22.123   6.750
 9020POPC   C3A59033  37.665  22.116   7.050
 9020POPC   C4A59034  37.714  22.129   7.350
 9020POPC   C1B59035  37.532  21.956   6.450
 9020POPC   C2B59036  37.483  21.976   6.750
 9020POPC   C3B59037  37.463  21.992   7.050
 9020POPC   C4B59038  37.468  21.964   7.350
 9021POPC   NC359039  19.074   6.622   5.550
 9021POPC   PO459040  19.086   6.683   5.850
 9021POPC   GL159041  19.089   6.623   6.150
 9021POPC   GL259042  19.015   6.766   6.150
 9021POPC   C1A59043  19.061   6.635   6.450
 9021POPC   D2A59044  19.103   6.690   6.750
 9021POPC   C3A59045  19.010   6.638   7.050
 9021POPC   C4A59046  19.051   6.627   7.350
 9021POPC   C1B59047  18.915   6.794   6.450
 9021POPC   C2B59048  18.943   6.881   6.750
 9021POPC   C3B59049  18.921   6.804   7.050
 9021POPC   C4B59050  18.929   6.825   7.350
 9022POPC   NC359051  21.363  35.338   5.550
 9022POPC   PO459052  21.352  35.340   5.850
 9022POPC   GL159053  21.404  35.328   6.150
 9022POPC   GL259054  21.492  35.217   6.150
 9022POPC   C1A59055  21.401  35.374   6.450
 9022POPC   D2A59056  21.374  35.335   6.750
 9022POPC   C3A59057  21.362  35.375   7.050
 9022POPC   C4A59058  21.378  35.375   7.350
 9022POPC   C1B59059  21.493  35.131   6.450
 9022POPC   C2B59060  21.523  35.126   6.750
 9022POPC   C3B59061  21.462  35.129   7.050
 9022POPC   C4B59062  21.505  35.165   7.350
 9023POPC   NC359063  24.464  38.421   5.550
 9023POPC   PO459064  24.454  38.466   5.850
 9023POPC   GL159065  24.470  38.415   6.150
 9023POPC   GL259066  24.389  38.390   6.150
 9023POPC   C1A59067  24.474  38.493   6.450
 9023POPC   D2A59068  24.480  38.492   6.750
 9023POPC   C3A59069  24.511  38.492   7.050
 9023POPC   C4A59070  24.487  38.419   7.350
 9023POPC   C1B59071  24.250  38.375   6.450
 9023POPC   C2B59072  24.259  38.391   6.750
 9023POPC   C3B59073  24.250  38.359   7.050
 9023POPC   C4B59074  24.227  38.372   7.350
 9024POPC   NC359075  15.207   2.796   5.550
 9024POPC   PO459076  15.137   2.767   5.850
 9024POPC   GL159077  15.225   2.719   6.150
 9024POPC   GL259078  15.061   2.885   6.150
 9024POPC   C1A59079  15.217   2.746   6.450
 9024POPC   D2A59080  15.201   2.727   6.750
 9024POPC   C3A59081  15.168   2.792   7.050
 9024POPC   C4A59082  15.200   2.803   7.350
 9024POPC   C1B59083  15.006   2.983   6.450
 9024POPC   C2B59084  15.071   2.998   6.750
 9024POPC   C3B59085  14.997   2.985   7.050
 9024POPC   C4B59086  15.006   2.922   7.350
 9025POPC   NC359087  23.729   5.846   5.550
 9025POPC   PO459088  23.676   5.912   5.850
 9025POPC   GL159089  23.760   5.837   6.150
 9025POPC   GL259090  23.647   5.908   6.150
 9025POPC   C1A59091  23.746   5.906   6.450
 9025POPC   D2A59092  23.678   5.909   6.750
 9025POPC   C3A59093  23.696   5.880   7.050
 9025POPC   C4A59094  23.693   5.874   7.350
 9025POPC   C1B59095  23.489   5.993   6.450
 9025POPC   C2B59096  23.574   6.064   6.750
 9025POPC   C3B59097  23.571   6.080   7.050
 9025POPC   C4B59098  23.538   6.001   7.350
 9026POPC   NC359099   6.629   5.075   5.550
 9026POPC   PO459100   6.666   5.138   5.850
 9026POPC   GL159101   6.601   5.092   6.150
 9026POPC   GL259102   6.533   5.012   6.150
 9026POPC   C1A59103   6.663   5.135   6.450
 9026POPC   D2A59104   6.627   5.094   6.750
 9026POPC   C3A59105   6.635   5.104   7.050
 9026POPC   C4A59106   6.636   5.114   7.350
 9026POPC   C1B59107   6.464   4.977   6.450
 9026POPC   C2B59108   6.432   4.994   6.750
 9026POPC   C3B59109   6.470   5.008   7.050
 9026POPC   C4B59110   6.443   4.979   7.350
 9027POPC   NC359111  29.130  36.879   5.550
 9027POPC   PO459112  29.105  36.909   5.850
 9027POPC   GL159113  29.115  36.936   6.150
 9027POPC   GL259114  29.258  36.818   6.150
 9027POPC   C1A59115  29.191  36.865   6.450
 9027POPC   D2A59116  29.121  36.893   6.750
 9027POPC   C3A59117  29.184  36.879   7.050
 9027POPC   C4A59118  29.146  36.873   7.350
 9027POPC   C1B59119  29.353  36.848   6.450
 9027POPC   C2B59120  29.379  36.843   6.750
 9027POPC   C3B59121  29.384  36.857   7.050
 9027POPC   C4B59122  29.366  36.779   7.350
 9028POPC   NC359123  39.243  11.251   5.550
 9028POPC   PO459124  39.270  11.336   5.850
 9028POPC   GL159125  39.263  11.341   6.150
 9028POPC   GL259126  39.342  11.309   6.150
 9028POPC   C1A59127  39.249  11.272   6.450
 9028POPC   D2A59128  39.258  11.267   6.750
 9028POPC   C3A59129  39.201  11.349   7.050
 9028POPC   C4A59130  39.244  11.275   7.350
 9028POPC   C1B59131  39.456  11.385   6.450
 9028POPC   C2B59132  39.460  11.354   6.750
 9028POPC   C3B59133  39.431  11.376   7.050
 9028POPC   C4B59134  39.474  11.354   7.350
 9029POPC   NC359135   5.046  38.490   5.550
 9029POPC   PO459136   5.133  38.419   5.850
 9029POPC   GL159137   5.069  38.462   6.150
 9029POPC   GL259138   5.093  38.617   6.150
 9029POPC   C1A59139   5.071  38.442   6.450
 9029POPC   D2A59140   5.080  38.476   6.750
 9029POPC   C3A59141   5.054  38.408   7.050
 9029POPC   C4A59142   5.088  38.500   7.350
 9029POPC   C1B59143   5.093  38.686   6.450
 9029POPC   C2B59144   5.152  38.684   6.750
 9029POPC   C3B59145   5.157  38.746   7.050
 9029POPC   C4B59146   5.081  38.693   7.350
 9030POPC   NC359147  13.631  32.200   5.550
 9030POPC   PO459148  13.671  32.208   5.850
 9030POPC   GL159149  13.648  32.249   6.150
 9030POPC   GL259150  13.500  32.287   6.150
 9030POPC   C1A59151  13.635  32.263   6.450
 9030POPC   D2A59152  13.634  32.235   6.750
 9030POPC   C3A59153  13.627  32.242   7.050
 9030POPC   C4A59154  13.631  32.262   7.350
 9030POPC   C1B59155  13.457  32.408   6.450
 9030POPC   C2B59156  13.461  32.414   6.750
 9030POPC   C3B59157  13.460  32.414   7.050
 9030POPC   C4B59158  13.408  32.376   7.350
 9031POPC   NC359159  37.646  13.640   5.550
 9031POPC   PO459160  37.665  13.658   5.850
 9031POPC   GL159161  37.720  13.663   6.150
 9031POPC   GL259162  37.597  13.584   6.150
 9031POPC   C1A59163  37.643  13.588   6.450
 9031POPC   D2A59164  37.664  13.678   6.750
 9031POPC   C3A59165  37.701  13.621   7.050
 9031POPC   C4A59166  37.665  13.595   7.350
 9031POPC   C1B59167  37.496  13.485   6.450
 9031POPC   C2B59168  37.457  13.454   6.750
 9031POPC   C3B59169  37.513  13.496   7.050
 9031POPC   C4B59170  37.453  13.508   7.350
 9032POPC   NC359171  39.239   4.327   5.550
 9032POPC   PO459172  39.203   4.348   5.850
 9032POPC   GL159173  39.242   4.295   6.150
 9032POPC   GL259174  39.143   4.373   6.150
 9032POPC   C1A59175  39.265   4.334   6.450
 9032POPC   D2A59176  39.269   4.355   6.750
 9032POPC   C3A59177  39.269   4.325   7.050
 9032POPC   C4A59178  39.227   4.315   7.350
 9032POPC   C1B59179  39.017   4.407   6.450
 9032POPC   C2B59180  38.963   4.447   6.750
 9032POPC   C3B59181  38.960   4.351   7.050
 9032POPC   C4B59182  39.036   4.388   7.350
 9033POPC   NC359183   5.861  13.588   5.550
 9033POPC   PO459184   5.840  13.594   5.850
 9033POPC   GL159185   5.872  13.636   6.150
 9033POPC   GL259186   5.951  13.615   6.150
 9033POPC   C1A59187   5.900  13.630   6.450
 9033POPC   D2A59188   5.882  13.610   6.750
 9033POPC   C3A59189   5.912  13.644   7.050
 9033POPC   C4A59190   5.874  13.672   7.350
 9033POPC   C1B59191   6.140  13.565   6.450
 9033POPC   C2B59192   6.068  13.540   6.750
 9033POPC   C3B59193   6.087  13.528   7.050
 9033POPC   C4B59194   6.109  13.529   7.350
 9034POPC   NC359195  24.492  19.806   5.550
 9034POPC   PO459196  24.443  19.828   5.850
 9034POPC   GL159197  24.519  19.795   6.150
 9034POPC   GL259198  24.388  19.812   6.150
 9034POPC   C1A59199  24.481  19.807   6.450
 9034POPC   D2A59200  24.462  19.806   6.750
 9034POPC   C3A59201  24.500  19.785   7.050
 9034POPC   C4A59202  24.538  19.832   7.350
 9034POPC   C1B59203  24.238  19.771   6.450
 9034POPC   C2B59204  24.205  19.737   6.750
 9034POPC   C3B59205  24.261  19.809   7.050
 9034POPC   C4B59206  24.238  19.766   7.350
 9035POPC   NC359207   5.919  18.295   5.550
 9035POPC   PO459208   5.880  18.303   5.850
 9035POPC   GL159209   5.820  18.241   6.150
 9035POPC   GL259210   6.018  18.360   6.150
 9035POPC   C1A59211   5.901  18.297   6.450
 9035POPC   D2A59212   5.870  18.240   6.750
 9035POPC   C3A59213   5.877  18.327   7.050
 9035POPC   C4A59214   5.872  18.257   7.350
 9035POPC   C1B59215   6.093  18.372   6.450
 9035POPC   C2B59216   6.121  18.330   6.750
 9035POPC   C3B59217   6.109  18.399   7.050
 9035POPC   C4B59218   6.109  18.357   7.350
 9036POPC   NC359219   9.709  26.016   5.550
 9036POPC   PO459220   9.790  26.062   5.850
 9036POPC   GL159221   9.781  26.048   6.150
 9036POPC   GL259222   9.809  25.919   6.150
 9036POPC   C1A59223   9.770  26.012   6.450
 9036POPC   D2A59224   9.784  26.034   6.750
 9036POPC   C3A59225   9.732  26.067   7.050
 9036POPC   C4A59226   9.755  26.069   7.350
 9036POPC   C1B59227   9.895  25.855   6.450
 9036POPC   C2B59228   9.966  25.846   6.750
 9036POPC   C3B59229   9.908  25.877   7.050
 9036POPC   C4B59230   9.924  25.868   7.350
 9037POPC   NC359231  39.235  17.466   5.550
 9037POPC   PO459232  39.234  17.546   5.850
 9037POPC   GL159233  39.219  17.548   6.150
 9037POPC   GL259234  39.141  17.582   6.150
 9037POPC   C1A59235  39.235  17.504   6.450
 9037POPC   D2A59236  39.220  17.469   6.750
 9037POPC   C3A59237  39.204  17.459   7.050
 9037POPC   C4A59238  39.275  17.527   7.350
 9037POPC   C1B59239  39.086  17.727   6.450
 9037POPC   C2B59240  39.103  17.741   6.750
 9037POPC   C3B59241  39.091  17.765   7.050
 9037POPC   C4B59242  39.095  17.694   7.350
 9038POPC   NC359243  44.633   2.008   5.550
 9038POPC   PO459244  44.622   1.977   5.850
 9038POPC   GL159245  44.662   1.999   6.150
 9038POPC   GL259246  44.690   1.901   6.150
 9038POPC   C1A59247  44.629   1.940   6.450
 9038POPC   D2A59248  44.625   1.968   6.750
 9038POPC   C3A59249  44.617   1.981   7.050
 9038POPC   C4A59250  44.616   2.004   7.350
 9038POPC   C1B59251  44.804   1.806   6.450
 9038POPC   C2B59252  44.815   1.798   6.750
 9038POPC   C3B59253  44.832   1.779   7.050
 9038POPC   C4B59254  44.785   1.826   7.350
 9039POPC   NC359255  12.832  39.184   5.550
 9039POPC   PO459256  12.842  39.208   5.850
 9039POPC   GL159257  12.840  39.209   6.150
 9039POPC   GL259258  12.891  39.104   6.150
 9039POPC   C1A59259  12.857  39.205   6.450
 9039POPC   D2A59260  12.824  39.253   6.750
 9039POPC   C3A59261  12.848  39.234   7.050
 9039POPC   C4A59262  12.834  39.254   7.350
 9039POPC   C1B59263  13.010  39.049   6.450
 9039POPC   C2B59264  12.933  39.061   6.750
 9039POPC   C3B59265  12.963  39.030   7.050
 9039POPC   C4B59266  12.973  38.994   7.350
 9040POPC   NC359267  27.573   6.611   5.550
 9040POPC   PO459268  27.570   6.672   5.850
 9040POPC   GL159269  27.625   6.629   6.150
 9040POPC   GL259270  27.583   6.502   6.150
 9040POPC   C1A59271  27.583   6.619   6.450
 9040POPC   D2A59272  27.549   6.679   6.750
 9040POPC   C3A59273  27.558   6.692   7.050
 9040POPC   C4A59274  27.638   6.678   7.350
 9040POPC   C1B59275  27.657   6.400   6.450
 9040POPC   C2B59276  27.624   6.410   6.750
 9040POPC   C3B59277  27.693   6.383   7.050
 9040POPC   C4B59278  27.617   6.416   7.350
 9041POPC   NC359279   5.830  30.690   5.550
 9041POPC   PO459280   5.897  30.744   5.850
 9041POPC   GL159281   5.905  30.680   6.150
 9041POPC   GL259282   5.729  30.681   6.150
 9041POPC   C1A59283   5.871  30.711   6.450
 9041POPC   D2A59284   5.859  30.651   6.750
 9041POPC   C3A59285   5.899  30.726   7.050
 9041POPC   C4A59286   5.909  30.708   7.350
 9041POPC   C1B59287   5.644  30.671   6.450
 9041POPC   C2B59288   5.596  30.701   6.750
 9041POPC   C3B59289   5.581  30.675   7.050
 9041POPC   C4B59290   5.603  30.694   7.350
 9042POPC   NC359291  41.593  43.145   5.550
 9042POPC   PO459292  41.522  43.083   5.850
 9042POPC   GL159293  41.544  43.131   6.150
 9042POPC   GL259294  41.427  43.065   6.150
 9042POPC   C1A59295  41.510  43.096   6.450
 9042POPC   D2A59296  41.532  43.073   6.750
 9042POPC   C3A59297  41.566  43.092   7.050
 9042POPC   C4A59298  41.537  43.095   7.350
 9042POPC   C1B59299  41.345  43.127   6.450
 9042POPC   C2B59300  41.306  43.114   6.750
 9042POPC   C3B59301  41.355  43.121   7.050
 9042POPC   C4B59302  41.290  43.064   7.350
 9043POPC   NC359303  44.656  15.163   5.550
 9043POPC   PO459304  44.691  15.209   5.850
 9043POPC   GL159305  44.656  15.192   6.150
 9043POPC   GL259306  44.715  15.328   6.150
 9043POPC   C1A59307  44.641  15.214   6.450
 9043POPC   D2A59308  44.681  15.202   6.750
 9043POPC   C3A59309  44.669  15.146   7.050
 9043POPC   C4A59310  44.686  15.175   7.350
 9043POPC   C1B59311  44.730  15.429   6.450
 9043POPC   C2B59312  44.746  15.435   6.750
 9043POPC   C3B59313  44.808  15.449   7.050
 9043POPC   C4B59314  44.730  15.416   7.350
 9044POPC   NC359315   0.424  39.996   5.550
 9044POPC   PO459316   0.461  39.990   5.850
 9044POPC   GL159317   0.460  39.966   6.150
 9044POPC   GL259318   0.541  39.911   6.150
 9044POPC   C1A59319   0.411  39.981   6.450
 9044POPC   D2A59320   0.430  40.011   6.750
 9044POPC   C3A59321   0.485  40.032   7.050
 9044POPC   C4A59322   0.466  40.035   7.350
 9044POPC   C1B59323   0.623  39.935   6.450
 9044POPC   C2B59324   0.649  39.912   6.750
 9044POPC   C3B59325   0.642  39.871   7.050
 9044POPC   C4B59326   0.667  39.901   7.350
 9045POPC   NC359327   8.976  43.882   5.550
 9045POPC   PO459328   8.998  43.861   5.850
 9045POPC   GL159329   8.964  43.919   6.150
 9045POPC   GL259330   8.953  43.791   6.150
 9045POPC   C1A59331   8.985  43.899   6.450
 9045POPC   D2A59332   8.928  43.881   6.750
 9045POPC   C3A59333   9.009  43.927   7.050
 9045POPC   C4A59334   8.983  43.928   7.350
 9045POPC   C1B59335   8.842  43.678   6.450
 9045POPC   C2B59336   8.892  43.630   6.750
 9045POPC   C3B59337   8.896  43.702   7.050
 9045POPC   C4B59338   8.890  43.607   7.350
 9046POPC   NC359339   8.977  33.038   5.550
 9046POPC   PO459340   8.928  33.053   5.850
 9046POPC   GL159341   8.955  33.065   6.150
 9046POPC   GL259342   9.070  33.105   6.150
 9046POPC   C1A59343   8.943  33.041   6.450
 9046POPC   D2A59344   8.936  33.074   6.750
 9046POPC   C3A59345   8.936  33.062   7.050
 9046POPC   C4A59346   8.965  33.051   7.350
 9046POPC   C1B59347   9.198  33.129   6.450
 9046POPC   C2B59348   9.150  33.174   6.750
 9046POPC   C3B59349   9.157  33.181   7.050
 9046POPC   C4B59350   9.241  33.091   7.350
 9047POPC   NC359351   7.409   8.164   5.550
 9047POPC   PO459352   7.436   8.232   5.850
 9047POPC   GL159353   7.392   8.220   6.150
 9047POPC   GL259354   7.326   8.230   6.150
 9047POPC   C1A59355   7.378   8.148   6.450
 9047POPC   D2A59356   7.373   8.192   6.750
 9047POPC   C3A59357   7.394   8.222   7.050
 9047POPC   C4A59358   7.468   8.194   7.350
 9047POPC   C1B59359   7.191   8.125   6.450
 9047POPC   C2B59360   7.171   8.196   6.750
 9047POPC   C3B59361   7.155   8.170   7.050
 9047POPC   C4B59362   7.184   8.157   7.350
 9048POPC   NC359363  33.023  25.251   5.550
 9048POPC   PO459364  32.982  25.245   5.850
 9048POPC   GL159365  33.041  25.258   6.150
 9048POPC   GL259366  33.086  25.366   6.150
 9048POPC   C1A59367  33.024  25.305   6.450
 9048POPC   D2A59368  33.063  25.229   6.750
 9048POPC   C3A59369  32.978  25.283   7.050
 9048POPC   C4A59370  33.069  25.244   7.350
 9048POPC   C1B59371  33.124  25.553   6.450
 9048POPC   C2B59372  33.076  25.502   6.750
 9048POPC   C3B59373  33.124  25.531   7.050
 9048POPC   C4B59374  33.076  25.503   7.350
 9049POPC   NC359375  42.306   0.468   5.550
 9049POPC   PO459376  42.380   0.391   5.850
 9049POPC   GL159377  42.340   0.421   6.150
 9049POPC   GL259378  42.208   0.530   6.150
 9049POPC   C1A59379  42.382   0.404   6.450
 9049POPC   D2A59380  42.315   0.433   6.750
 9049POPC   C3A59381  42.329   0.484   7.050
 9049POPC   C4A59382  42.317   0.439   7.350
 9049POPC   C1B59383  42.055   0.528   6.450
 9049POPC   C2B59384  42.113   0.509   6.750
 9049POPC   C3B59385  42.056   0.582   7.050
 9049POPC   C4B59386  42.076   0.493   7.350
 9050POPC   NC359387  25.252  18.236   5.550
 9050POPC   PO459388  25.284  18.266   5.850
 9050POPC   GL159389  25.236  18.282   6.150
 9050POPC   GL259390  25.351  18.297   6.150
 9050POPC   C1A59391  25.309  18.235   6.450
 9050POPC   D2A59392  25.241  18.249   6.750
 9050POPC   C3A59393  25.248  18.270   7.050
 9050POPC   C4A59394  25.271  18.249   7.350
 9050POPC   C1B59395  25.458  18.320   6.450
 9050POPC   C2B59396  25.499  18.337   6.750
 9050POPC   C3B59397  25.542  18.360   7.050
 9050POPC   C4B59398  25.527  18.306   7.350
 9051POPC   NC359399  10.494   7.388   5.550
 9051POPC   PO459400  10.556   7.451   5.850
 9051POPC   GL159401  10.556   7.446   6.150
 9051POPC   GL259402  10.610   7.397   6.150
 9051POPC   C1A59403  10.484   7.371   6.450
 9051POPC   D2A59404  10.531   7.433   6.750
 9051POPC   C3A59405  10.524   7.400   7.050
 9051POPC   C4A59406  10.561   7.428   7.350
 9051POPC   C1B59407  10.811   7.482   6.450
 9051POPC   C2B59408  10.779   7.383   6.750
 9051POPC   C3B59409  10.745   7.387   7.050
 9051POPC   C4B59410  10.768   7.464   7.350
 9052POPC   NC359411   9.733   0.413   5.550
 9052POPC   PO459412   9.757   0.400   5.850
 9052POPC   GL159413   9.773   0.425   6.150
 9052POPC   GL259414   9.647   0.350   6.150
 9052POPC   C1A59415   9.786   0.474   6.450
 9052POPC   D2A59416   9.723   0.391   6.750
 9052POPC   C3A59417   9.740   0.427   7.050
 9052POPC   C4A59418   9.725   0.475   7.350
 9052POPC   C1B59419   9.533   0.271   6.450
 9052POPC   C2B59420   9.555   0.277   6.750
 9052POPC   C3B59421   9.578   0.262   7.050
 9052POPC   C4B59422   9.623   0.227   7.350
 9053POPC   NC359423   7.405   4.277   5.550
 9053POPC   PO459424   7.400   4.269   5.850
 9053POPC   GL159425   7.419   4.338   6.150
 9053POPC   GL259426   7.396   4.463   6.150
 9053POPC   C1A59427   7.372   4.297   6.450
 9053POPC   D2A59428   7.400   4.316   6.750
 9053POPC   C3A59429   7.459   4.336   7.050
 9053POPC   C4A59430   7.441   4.298   7.350
 9053POPC   C1B59431   7.424   4.606   6.450
 9053POPC   C2B59432   7.419   4.541   6.750
 9053POPC   C3B59433   7.432   4.567   7.050
 9053POPC   C4B59434   7.388   4.522   7.350
 9054POPC   NC359435   8.162  36.889   5.550
 9054POPC   PO459436   8.149  36.906   5.850
 9054POPC   GL159437   8.171  36.936   6.150
 9054POPC   GL259438   8.265  36.774   6.150
 9054POPC   C1A59439   8.225  36.860   6.450
 9054POPC   D2A59440   8.187  36.947   6.750
 9054POPC   C3A59441   8.225  36.902   7.050
 9054POPC   C4A59442   8.227  36.856   7.350
 9054POPC   C1B59443   8.350  36.740   6.450
 9054POPC   C2B59444   8.342  36.761   6.750
 9054POPC   C3B59445   8.352  36.674   7.050
 9054POPC   C4B59446   8.395  36.767   7.350
 9055POPC   NC359447  44.615  33.773   5.550
 9055POPC   PO459448  44.680  33.847   5.850
 9055POPC   GL159449  44.621  33.773   6.150
 9055POPC   GL259450  44.595  33.856   6.150
 9055POPC   C1A59451  44.656  33.842   6.450
 9055POPC   D2A59452  44.688  33.752   6.750
 9055POPC   C3A59453  44.644  33.835   7.050
 9055POPC   C4A59454  44.633  33.752   7.350
 9055POPC   C1B59455  44.517  33.967   6.450
 9055POPC   C2B59456  44.487  34.020   6.750
 9055POPC   C3B59457  44.543  34.039   7.050
 9055POPC   C4B59458  44.515  34.017   7.350
 9056POPC   NC359459  29.166  34.602   5.550
 9056POPC   PO459460  29.148  34.596   5.850
 9056POPC   GL159461  29.152  34.590   6.150
 9056POPC   GL259462  29.219  34.737   6.150
 9056POPC   C1A59463  29.193  34.600   6.450
 9056POPC   D2A59464  29.116  34.571   6.750
 9056POPC   C3A59465  29.121  34.545   7.050
 9056POPC   C4A59466  29.111  34.546   7.350
 9056POPC   C1B59467  29.220  34.864   6.450
 9056POPC   C2B59468  29.199  34.795   6.750
 9056POPC   C3B59469  29.230  34.793   7.050
 9056POPC   C4B59470  29.155  34.796   7.350
 9057POPC   NC359471  38.499  39.229   5.550
 9057POPC   PO459472  38.475  39.279   5.850
 9057POPC   GL159473  38.420  39.223   6.150
 9057POPC   GL259474  38.374  39.291   6.150
 9057POPC   C1A59475  38.487  39.221   6.450
 9057POPC   D2A59476  38.480  39.212   6.750
 9057POPC   C3A59477  38.455  39.191   7.050
 9057POPC   C4A59478  38.425  39.233   7.350
 9057POPC   C1B59479  38.307  39.400   6.450
 9057POPC   C2B59480  38.275  39.356   6.750
 9057POPC   C3B59481  38.248  39.362   7.050
 9057POPC   C4B59482  38.313  39.371   7.350
 9058POPC   NC359483  25.252   1.986   5.550
 9058POPC   PO459484  25.291   1.994   5.850
 9058POPC   GL159485  25.260   2.026   6.150
 9058POPC   GL259486  25.218   1.908   6.150
 9058POPC   C1A59487  25.237   1.942   6.450
 9058POPC   D2A59488  25.226   2.013   6.750
 9058POPC   C3A59489  25.265   2.011   7.050
 9058POPC   C4A59490  25.274   1.974   7.350
 9058POPC   C1B59491  25.181   1.784   6.450
 9058POPC   C2B59492  25.185   1.777   6.750
 9058POPC   C3B59493  25.230   1.751   7.050
 9058POPC   C4B59494  25.256   1.791   7.350
 9059POPC   NC359495  40.790  36.096   5.550
 9059POPC   PO459496  40.774  36.111   5.850
 9059POPC   GL159497  40.766  36.160   6.150
 9059POPC   GL259498  40.633  36.073   6.150
 9059POPC   C1A59499  40.765  36.095   6.450
 9059POPC   D2A59500  40.789  36.149   6.750
 9059POPC   C3A59501  40.818  36.159   7.050
 9059POPC   C4A59502  40.746  36.121   7.350
 9059POPC   C1B59503  40.537  36.016   6.450
 9059POPC   C2B59504  40.603  35.964   6.750
 9059POPC   C3B59505  40.596  36.031   7.050
 9059POPC   C4B59506  40.544  35.937   7.350
 9060POPC   NC359507  37.729   1.959   5.550
 9060POPC   PO459508  37.654   2.018   5.850
 9060POPC   GL159509  37.653   1.962   6.150
 9060POPC   GL259510  37.531   1.948   6.150
 9060POPC   C1A59511  37.722   1.948   6.450
 9060POPC   D2A59512  37.670   2.027   6.750
 9060POPC   C3A59513  37.696   2.026   7.050
 9060POPC   C4A59514  37.660   1.985   7.350
 9060POPC   C1B59515  37.457   1.882   6.450
 9060POPC   C2B59516  37.419   1.904   6.750
 9060POPC   C3B59517  37.445   1.910   7.050
 9060POPC   C4B59518  37.467   1.899   7.350
 9061POPC   NC359519  19.083   2.753   5.550
 9061POPC   PO459520  19.018   2.777   5.850
 9061POPC   GL159521  19.032   2.812   6.150
 9061POPC   GL259522  19.208   2.793   6.150
 9061POPC   C1A59523  19.063   2.732   6.450
 9061POPC   D2A59524  19.020   2.756   6.750
 9061POPC   C3A59525  19.037   2.806   7.050
 9061POPC   C4A59526  19.106   2.722   7.350
 9061POPC   C1B59527  19.251   2.882   6.450
 9061POPC   C2B59528  19.248   2.869   6.750
 9061POPC   C3B59529  19.324   2.852   7.050
 9061POPC   C4B59530  19.265   2.847   7.350
 9062POPC   NC359531  12.883  33.834   5.550
 9062POPC   PO459532  12.817  33.758   5.850
 9062POPC   GL159533  12.823  33.813   6.150
 9062POPC   GL259534  12.744  33.914   6.150
 9062POPC   C1A59535  12.869  33.821   6.450
 9062POPC   D2A59536  12.840  33.794   6.750
 9062POPC   C3A59537  12.810  33.770   7.050
 9062POPC   C4A59538  12.883  33.796   7.350
 9062POPC   C1B59539  12.676  33.995   6.450
 9062POPC   C2B59540  12.690  33.984   6.750
 9062POPC   C3B59541  12.611  34.002   7.050
 9062POPC   C4B59542  12.688  34.002   7.350
 9063POPC   NC359543  27.579   8.971   5.550
 9063POPC   PO459544  27.602   8.979   5.850
 9063POPC   GL159545  27.607   8.968   6.150
 9063POPC   GL259546  27.489   9.052   6.150
 9063POPC   C1A59547  27.616   8.982   6.450
 9063POPC   D2A59548  27.616   8.966   6.750
 9063POPC   C3A59549  27.572   8.947   7.050
 9063POPC   C4A59550  27.631   8.932   7.350
 9063POPC   C1B59551  27.374   9.196   6.450
 9063POPC   C2B59552  27.388   9.190   6.750
 9063POPC   C3B59553  27.456   9.154   7.050
 9063POPC   C4B59554  27.437   9.201   7.350
 9064POPC   NC359555  27.633  24.508   5.550
 9064POPC   PO459556  27.585  24.453   5.850
 9064POPC   GL159557  27.585  24.446   6.150
 9064POPC   GL259558  27.641  24.423   6.150
 9064POPC   C1A59559  27.583  24.471   6.450
 9064POPC   D2A59560  27.546  24.442   6.750
 9064POPC   C3A59561  27.618  24.523   7.050
 9064POPC   C4A59562  27.587  24.519   7.350
 9064POPC   C1B59563  27.747  24.236   6.450
 9064POPC   C2B59564  27.661  24.225   6.750
 9064POPC   C3B59565  27.671  24.294   7.050
 9064POPC   C4B59566  27.718  24.248   7.350
 9065POPC   NC359567  35.366  11.331   5.550
 9065POPC   PO459568  35.331  11.286   5.850
 9065POPC   GL159569  35.312  11.292   6.150
 9065POPC   GL259570  35.469  11.270   6.150
 9065POPC   C1A59571  35.305  11.348   6.450
 9065POPC   D2A59572  35.341  11.254   6.750
 9065POPC   C3A59573  35.384  11.257   7.050
 9065POPC   C4A59574  35.314  11.330   7.350
 9065POPC   C1B59575  35.587  11.234   6.450
 9065POPC   C2B59576  35.570  11.196   6.750
 9065POPC   C3B59577  35.597  11.260   7.050
 9065POPC   C4B59578  35.579  11.212   7.350
 9066POPC   NC359579   3.583   1.203   5.550
 9066POPC   PO459580   3.508   1.240   5.850
 9066POPC   GL159581   3.590   1.168   6.150
 9066POPC   GL259582   3.620   1.225   6.150
 9066POPC   C1A59583   3.518   1.249   6.450
 9066POPC   D2A59584   3.532   1.172   6.750
 9066POPC   C3A59585   3.523   1.232   7.050
 9066POPC   C4A59586   3.542   1.261   7.350
 9066POPC   C1B59587   3.827   1.154   6.450
 9066POPC   C2B59588   3.745   1.210   6.750
 9066POPC   C3B59589   3.780   1.215   7.050
 9066POPC   C4B59590   3.801   1.202   7.350
 9067POPC   NC359591  26.035  20.655   5.550
 9067POPC   PO459592  26.025  20.578   5.850
 9067POPC   GL159593  25.997  20.584   6.150
 9067POPC   GL259594  26.014  20.705   6.150
 9067POPC   C1A59595  26.004  20.602   6.450
 9067POPC   D2A59596  26.054  20.631   6.750
 9067POPC   C3A59597  25.993  20.615   7.050
 9067POPC   C4A59598  26.027  20.617   7.350
 9067POPC   C1B59599  25.976  20.873   6.450
 9067POPC   C2B59600  25.942  20.813   6.750
 9067POPC   C3B59601  25.936  20.807   7.050
 9067POPC   C4B59602  25.970  20.865   7.350
 9068POPC   NC359603   6.616  37.650   5.550
 9068POPC   PO459604   6.607  37.639   5.850
 9068POPC   GL159605   6.662  37.633   6.150
 9068POPC   GL259606   6.744  37.619   6.150
 9068POPC   C1A59607   6.681  37.717   6.450
 9068POPC   D2A59608   6.667  37.646   6.750
 9068POPC   C3A59609   6.688  37.660   7.050
 9068POPC   C4A59610   6.627  37.721   7.350
 9068POPC   C1B59611   6.932  37.599   6.450
 9068POPC   C2B59612   6.917  37.595   6.750
 9068POPC   C3B59613   6.910  37.637   7.050
 9068POPC   C4B59614   6.839  37.556   7.350
 9069POPC   NC359615  26.793   1.993   5.550
 9069POPC   PO459616  26.789   1.955   5.850
 9069POPC   GL159617  26.785   2.021   6.150
 9069POPC   GL259618  26.714   1.839   6.150
 9069POPC   C1A59619  26.769   2.039   6.450
 9069POPC   D2A59620  26.849   1.958   6.750
 9069POPC   C3A59621  26.780   2.031   7.050
 9069POPC   C4A59622  26.852   2.009   7.350
 9069POPC   C1B59623  26.705   1.809   6.450
 9069POPC   C2B59624  26.677   1.738   6.750
 9069POPC   C3B59625  26.648   1.812   7.050
 9069POPC   C4B59626  26.641   1.821   7.350
 9070POPC   NC359627  40.734  22.117   5.550
 9070POPC   PO459628  40.798  22.146   5.850
 9070POPC   GL159629  40.820  22.203   6.150
 9070POPC   GL259630  40.929  22.126   6.150
 9070POPC   C1A59631  40.796  22.163   6.450
 9070POPC   D2A59632  40.742  22.122   6.750
 9070POPC   C3A59633  40.773  22.143   7.050
 9070POPC   C4A59634  40.739  22.160   7.350
 9070POPC   C1B59635  41.077  22.169   6.450
 9070POPC   C2B59636  41.004  22.117   6.750
 9070POPC   C3B59637  41.012  22.183   7.050
 9070POPC   C4B59638  41.020  22.147   7.350
 9071POPC   NC359639  35.329  30.666   5.550
 9071POPC   PO459640  35.325  30.677   5.850
 9071POPC   GL159641  35.376  30.729   6.150
 9071POPC   GL259642  35.206  30.633   6.150
 9071POPC   C1A59643  35.362  30.671   6.450
 9071POPC   D2A59644  35.366  30.710   6.750
 9071POPC   C3A59645  35.401  30.695   7.050
 9071POPC   C4A59646  35.350  30.697   7.350
 9071POPC   C1B59647  35.100  30.613   6.450
 9071POPC   C2B59648  35.141  30.634   6.750
 9071POPC   C3B59649  35.124  30.590   7.050
 9071POPC   C4B59650  35.126  30.656   7.350
 9072POPC   NC359651  36.104  42.303   5.550
 9072POPC   PO459652  36.104  42.305   5.850
 9072POPC   GL159653  36.084  42.303   6.150
 9072POPC   GL259654  35.999  42.229   6.150
 9072POPC   C1A59655  36.147  42.363   6.450
 9072POPC   D2A59656  36.131  42.366   6.750
 9072POPC   C3A59657  36.113  42.316   7.050
 9072POPC   C4A59658  36.115  42.323   7.350
 9072POPC   C1B59659  35.987  42.194   6.450
 9072POPC   C2B59660  35.999  42.186   6.750
 9072POPC   C3B59661  35.997  42.161   7.050
 9072POPC   C4B59662  35.970  42.126   7.350
 9073POPC   NC359663  29.927  19.847   5.550
 9073POPC   PO459664  29.964  19.872   5.850
 9073POPC   GL159665  29.922  19.795   6.150
 9073POPC   GL259666  29.944  19.726   6.150
 9073POPC   C1A59667  29.919  19.857   6.450
 9073POPC   D2A59668  29.920  19.866   6.750
 9073POPC   C3A59669  29.927  19.833   7.050
 9073POPC   C4A59670  29.961  19.859   7.350
 9073POPC   C1B59671  29.971  19.538   6.450
 9073POPC   C2B59672  29.946  19.609   6.750
 9073POPC   C3B59673  29.968  19.591   7.050
 9073POPC   C4B59674  29.962  19.620   7.350
 9074POPC   NC359675  44.689  12.123   5.550
 9074POPC   PO459676  44.694  12.045   5.850
 9074POPC   GL159677  44.683  12.116   6.150
 9074POPC   GL259678  44.790  12.110   6.150
 9074POPC   C1A59679  44.667  12.032   6.450
 9074POPC   D2A59680  44.704  12.067   6.750
 9074POPC   C3A59681  44.620  12.122   7.050
 9074POPC   C4A59682  44.692  12.037   7.350
 9074POPC   C1B59683  44.931  12.113   6.450
 9074POPC   C2B59684  44.912  12.145   6.750
 9074POPC   C3B59685  44.949  12.077   7.050
 9074POPC   C4B59686  44.894  12.078   7.350
 9075POPC   NC359687  22.984  43.096   5.550
 9075POPC   PO459688  22.891  43.119   5.850
 9075POPC   GL159689  22.950  43.118   6.150
 9075POPC   GL259690  23.048  43.029   6.150
 9075POPC   C1A59691  22.921  43.115   6.450
 9075POPC   D2A59692  22.903  43.089   6.750
 9075POPC   C3A59693  22.955  43.157   7.050
 9075POPC   C4A59694  22.942  43.110   7.350
 9075POPC   C1B59695  23.094  42.944   6.450
 9075POPC   C2B59696  23.107  42.898   6.750
 9075POPC   C3B59697  23.116  42.920   7.050
 9075POPC   C4B59698  23.123  42.904   7.350
 9076POPC   NC359699  21.370  29.104   5.550
 9076POPC   PO459700  21.373  29.191   5.850
 9076POPC   GL159701  21.405  29.120   6.150
 9076POPC   GL259702  21.462  29.103   6.150
 9076POPC   C1A59703  21.384  29.126   6.450
 9076POPC   D2A59704  21.339  29.142   6.750
 9076POPC   C3A59705  21.370  29.183   7.050
 9076POPC   C4A59706  21.413  29.157   7.350
 9076POPC   C1B59707  21.632  29.111   6.450
 9076POPC   C2B59708  21.608  29.059   6.750
 9076POPC   C3B59709  21.668  29.099   7.050
 9076POPC   C4B59710  21.591  29.109   7.350
 9077POPC   NC359711  29.960  12.821   5.550
 9077POPC   PO459712  29.891  12.854   5.850
 9077POPC   GL159713  29.888  12.847   6.150
 9077POPC   GL259714  29.806  12.904   6.150
 9077POPC   C1A59715  29.905  12.850   6.450
 9077POPC   D2A59716  29.950  12.839   6.750
 9077POPC   C3A59717  29.922  12.813   7.050
 9077POPC   C4A59718  29.879  12.816   7.350
 9077POPC   C1B59719  29.715  12.895   6.450
 9077POPC   C2B59720  29.645  12.913   6.750
 9077POPC   C3B59721  29.640  12.892   7.050
 9077POPC   C4B59722  29.636  12.874   7.350
 9078POPC   NC359723  19.809  20.591   5.550
 9078POPC   PO459724  19.820  20.562   5.850
 9078POPC   GL159725  19.797  20.571   6.150
 9078POPC   GL259726  19.989  20.615   6.150
 9078POPC   C1A59727  19.808  20.629   6.450
 9078POPC   D2A59728  19.823  20.589   6.750
 9078POPC   C3A59729  19.823  20.626   7.050
 9078POPC   C4A59730  19.832  20.583   7.350
 9078POPC   C1B59731  20.059  20.663   6.450
 9078POPC   C2B59732  20.127  20.685   6.750
 9078POPC   C3B59733  20.036  20.622   7.050
 9078POPC   C4B59734  20.065  20.693   7.350
 9079POPC   NC359735  23.754  29.159   5.550
 9079POPC   PO459736  23.700  29.111   5.850
 9079POPC   GL159737  23.730  29.096   6.150
 9079POPC   GL259738  23.770  29.274   6.150
 9079POPC   C1A59739  23.703  29.154   6.450
 9079POPC   D2A59740  23.683  29.148   6.750
 9079POPC   C3A59741  23.706  29.157   7.050
 9079POPC   C4A59742  23.730  29.133   7.350
 9079POPC   C1B59743  23.912  29.317   6.450
 9079POPC   C2B59744  23.853  29.358   6.750
 9079POPC   C3B59745  23.856  29.345   7.050
 9079POPC   C4B59746  23.915  29.281   7.350
 9080POPC   NC359747  29.926   3.531   5.550
 9080POPC   PO459748  29.938   3.553   5.850
 9080POPC   GL159749  29.960   3.504   6.150
 9080POPC   GL259750  30.071   3.551   6.150
 9080POPC   C1A59751  29.892   3.585   6.450
 9080POPC   D2A59752  29.890   3.583   6.750
 9080POPC   C3A59753  29.911   3.518   7.050
 9080POPC   C4A59754  29.913   3.571   7.350
 9080POPC   C1B59755  30.204   3.556   6.450
 9080POPC   C2B59756  30.152   3.581   6.750
 9080POPC   C3B59757  30.182   3.632   7.050
 9080POPC   C4B59758  30.164   3.646   7.350
 9081POPC   NC359759  26.808  28.347   5.550
 9081POPC   PO459760  26.802  28.373   5.850
 9081POPC   GL159761  26.865  28.403   6.150
 9081POPC   GL259762  26.939  28.300   6.150
 9081POPC   C1A59763  26.808  28.375   6.450
 9081POPC   D2A59764  26.811  28.408   6.750
 9081POPC   C3A59765  26.779  28.414   7.050
 9081POPC   C4A59766  26.790  28.403   7.350
 9081POPC   C1B59767  27.011  28.197   6.450
 9081POPC   C2B59768  27.017  28.160   6.750
 9081POPC   C3B59769  27.016  28.187   7.050
 9081POPC   C4B59770  27.042  28.225   7.350
 9082POPC   NC359771  32.991  26.053   5.550
 9082POPC   PO459772  33.015  26.025   5.850
 9082POPC   GL159773  32.983  26.062   6.150
 9082POPC   GL259774  33.159  26.014   6.150
 9082POPC   C1A59775  33.055  26.036   6.450
 9082POPC   D2A59776  33.069  26.026   6.750
 9082POPC   C3A59777  33.046  26.035   7.050
 9082POPC   C4A59778  33.021  26.030   7.350
 9082POPC   C1B59779  33.306  26.008   6.450
 9082POPC   C2B59780  33.270  25.971   6.750
 9082POPC   C3B59781  33.310  26.042   7.050
 9082POPC   C4B59782  33.280  25.981   7.350
 9083POPC   NC359783  34.546  41.521   5.550
 9083POPC   PO459784  34.550  41.582   5.850
 9083POPC   GL159785  34.594  41.594   6.150
 9083POPC   GL259786  34.540  41.414   6.150
 9083POPC   C1A59787  34.584  41.604   6.450
 9083POPC   D2A59788  34.537  41.544   6.750
 9083POPC   C3A59789  34.548  41.578   7.050
 9083POPC   C4A59790  34.530  41.542   7.350
 9083POPC   C1B59791  34.526  41.331   6.450
 9083POPC   C2B59792  34.477  41.350   6.750
 9083POPC   C3B59793  34.494  41.328   7.050
 9083POPC   C4B59794  34.461  41.288   7.350
 9084POPC   NC359795  19.098  39.217   5.550
 9084POPC   PO459796  19.084  39.220   5.850
 9084POPC   GL159797  19.036  39.190   6.150
 9084POPC   GL259798  19.119  39.378   6.150
 9084POPC   C1A59799  19.056  39.226   6.450
 9084POPC   D2A59800  19.050  39.198   6.750
 9084POPC   C3A59801  19.067  39.258   7.050
 9084POPC   C4A59802  19.053  39.231   7.350
 9084POPC   C1B59803  19.079  39.478   6.450
 9084POPC   C2B59804  19.134  39.446   6.750
 9084POPC   C3B59805  19.086  39.425   7.050
 9084POPC   C4B59806  19.073  39.482   7.350
 9085POPC   NC359807  22.928  19.814   5.550
 9085POPC   PO459808  22.925  19.860   5.850
 9085POPC   GL159809  22.962  19.832   6.150
 9085POPC   GL259810  23.051  19.793   6.150
 9085POPC   C1A59811  22.918  19.841   6.450
 9085POPC   D2A59812  22.984  19.814   6.750
 9085POPC   C3A59813  22.904  19.812   7.050
 9085POPC   C4A59814  22.895  19.875   7.350
 9085POPC   C1B59815  23.169  19.817   6.450
 9085POPC   C2B59816  23.179  19.831   6.750
 9085POPC   C3B59817  23.216  19.802   7.050
 9085POPC   C4B59818  23.224  19.882   7.350
 9086POPC   NC359819  22.155   3.492   5.550
 9086POPC   PO459820  22.131   3.583   5.850
 9086POPC   GL159821  22.157   3.519   6.150
 9086POPC   GL259822  22.196   3.473   6.150
 9086POPC   C1A59823  22.112   3.530   6.450
 9086POPC   D2A59824  22.184   3.518   6.750
 9086POPC   C3A59825  22.128   3.517   7.050
 9086POPC   C4A59826  22.210   3.492   7.350
 9086POPC   C1B59827  22.245   3.269   6.450
 9086POPC   C2B59828  22.295   3.306   6.750
 9086POPC   C3B59829  22.294   3.290   7.050
 9086POPC   C4B59830  22.255   3.302   7.350
 9087POPC   NC359831   5.832  24.493   5.550
 9087POPC   PO459832   5.883  24.539   5.850
 9087POPC   GL159833   5.840  24.499   6.150
 9087POPC   GL259834   5.849  24.643   6.150
 9087POPC   C1A59835   5.853  24.444   6.450
 9087POPC   D2A59836   5.868  24.469   6.750
 9087POPC   C3A59837   5.868  24.445   7.050
 9087POPC   C4A59838   5.915  24.497   7.350
 9087POPC   C1B59839   5.794  24.761   6.450
 9087POPC   C2B59840   5.801  24.726   6.750
 9087POPC   C3B59841   5.739  24.737   7.050
 9087POPC   C4B59842   5.772  24.695   7.350
 9088POPC   NC359843  12.861  20.593   5.550
 9088POPC   PO459844  12.882  20.611   5.850
 9088POPC   GL159845  12.853  20.564   6.150
 9088POPC   GL259846  12.993  20.675   6.150
 9088POPC   C1A59847  12.845  20.572   6.450
 9088POPC   D2A59848  12.892  20.636   6.750
 9088POPC   C3A59849  12.886  20.609   7.050
 9088POPC   C4A59850  12.834  20.654   7.350
 9088POPC   C1B59851  12.986  20.820   6.450
 9088POPC   C2B59852  13.078  20.763   6.750
 9088POPC   C3B59853  13.005  20.781   7.050
 9088POPC   C4B59854  13.017  20.789   7.350
 9089POPC   NC359855  41.528   2.024   5.550
 9089POPC   PO459856  41.545   2.027   5.850
 9089POPC   GL159857  41.518   1.979   6.150
 9089POPC   GL259858  41.510   2.092   6.150
 9089POPC   C1A59859  41.576   1.964   6.450
 9089POPC   D2A59860  41.536   2.013   6.750
 9089POPC   C3A59861  41.543   1.978   7.050
 9089POPC   C4A59862  41.597   1.986   7.350
 9089POPC   C1B59863  41.409   2.182   6.450
 9089POPC   C2B59864  41.369   2.114   6.750
 9089POPC   C3B59865  41.335   2.163   7.050
 9089POPC   C4B59866  41.385   2.110   7.350
 9090POPC   NC359867  19.881  11.316   5.550
 9090POPC   PO459868  19.800  11.254   5.850
 9090POPC   GL159869  19.797  11.298   6.150
 9090POPC   GL259870  19.711  11.237   6.150
 9090POPC   C1A59871  19.846  11.263   6.450
 9090POPC   D2A59872  19.830  11.264   6.750
 9090POPC   C3A59873  19.837  11.305   7.050
 9090POPC   C4A59874  19.857  11.297   7.350
 9090POPC   C1B59875  19.640  11.205   6.450
 9090POPC   C2B59876  19.587  11.203   6.750
 9090POPC   C3B59877  19.557  11.257   7.050
 9090POPC   C4B59878  19.565  11.216   7.350
 9091POPC   NC359879  29.956  30.727   5.550
 9091POPC   PO459880  29.896  30.743   5.850
 9091POPC   GL159881  29.937  30.714   6.150
 9091POPC   GL259882  29.801  30.789   6.150
 9091POPC   C1A59883  29.953  30.718   6.450
 9091POPC   D2A59884  29.934  30.683   6.750
 9091POPC   C3A59885  29.955  30.701   7.050
 9091POPC   C4A59886  29.875  30.681   7.350
 9091POPC   C1B59887  29.675  30.791   6.450
 9091POPC   C2B59888  29.685  30.785   6.750
 9091POPC   C3B59889  29.685  30.835   7.050
 9091POPC   C4B59890  29.664  30.802   7.350
 9092POPC   NC359891  38.409  15.937   5.550
 9092POPC   PO459892  38.440  15.977   5.850
 9092POPC   GL159893  38.493  15.957   6.150
 9092POPC   GL259894  38.529  15.891   6.150
 9092POPC   C1A59895  38.448  15.916   6.450
 9092POPC   D2A59896  38.427  15.982   6.750
 9092POPC   C3A59897  38.492  15.938   7.050
 9092POPC   C4A59898  38.463  15.973   7.350
 9092POPC   C1B59899  38.731  15.894   6.450
 9092POPC   C2B59900  38.673  15.860   6.750
 9092POPC   C3B59901  38.725  15.812   7.050
 9092POPC   C4B59902  38.680  15.814   7.350
 9093POPC   NC359903  22.201  15.910   5.550
 9093POPC   PO459904  22.135  15.956   5.850
 9093POPC   GL159905  22.207  15.956   6.150
 9093POPC   GL259906  22.268  15.984   6.150
 9093POPC   C1A59907  22.131  15.906   6.450
 9093POPC   D2A59908  22.211  15.978   6.750
 9093POPC   C3A59909  22.184  15.980   7.050
 9093POPC   C4A59910  22.167  15.963   7.350
 9093POPC   C1B59911  22.405  15.916   6.450
 9093POPC   C2B59912  22.380  15.930   6.750
 9093POPC   C3B59913  22.445  15.933   7.050
 9093POPC   C4B59914  22.380  15.960   7.350
 9094POPC   NC359915   6.677  27.602   5.550
 9094POPC   PO459916   6.604  27.549   5.850
 9094POPC   GL159917   6.653  27.639   6.150
 9094POPC   GL259918   6.724  27.516   6.150
 9094POPC   C1A59919   6.636  27.600   6.450
 9094POPC   D2A59920   6.641  27.609   6.750
 9094POPC   C3A59921   6.641  27.571   7.050
 9094POPC   C4A59922   6.628  27.574   7.350
 9094POPC   C1B59923   6.855  27.443   6.450
 9094POPC   C2B59924   6.867  27.503   6.750
 9094POPC   C3B59925   6.899  27.496   7.050
 9094POPC   C4B59926   6.854  27.481   7.350
 9095POPC   NC359927  32.249  29.146   5.550
 9095POPC   PO459928  32.226  29.137   5.850
 9095POPC   GL159929  32.205  29.175   6.150
 9095POPC   GL259930  32.355  29.247   6.150
 9095POPC   C1A59931  32.254  29.177   6.450
 9095POPC   D2A59932  32.256  29.131   6.750
 9095POPC   C3A59933  32.273  29.119   7.050
 9095POPC   C4A59934  32.284  29.119   7.350
 9095POPC   C1B59935  32.426  29.246   6.450
 9095POPC   C2B59936  32.511  29.292   6.750
 9095POPC   C3B59937  32.438  29.294   7.050
 9095POPC   C4B59938  32.487  29.255   7.350
 9096POPC   NC359939  13.617  36.923   5.550
 9096POPC   PO459940  13.593  36.871   5.850
 9096POPC   GL159941  13.666  36.887   6.150
 9096POPC   GL259942  13.659  36.973   6.150
 9096POPC   C1A59943  13.599  36.921   6.450
 9096POPC   D2A59944  13.596  36.925   6.750
 9096POPC   C3A59945  13.632  36.911   7.050
 9096POPC   C4A59946  13.629  36.942   7.350
 9096POPC   C1B59947  13.732  37.175   6.450
 9096POPC   C2B59948  13.746  37.111   6.750
 9096POPC   C3B59949  13.683  37.097   7.050
 9096POPC   C4B59950  13.701  37.169   7.350
 9097POPC   NC359951  23.718   8.933   5.550
 9097POPC   PO459952  23.690   8.993   5.850
 9097POPC   GL159953  23.700   9.007   6.150
 9097POPC   GL259954  23.672   9.105   6.150
 9097POPC   C1A59955  23.718   8.981   6.450
 9097POPC   D2A59956  23.756   8.982   6.750
 9097POPC   C3A59957  23.750   8.967   7.050
 9097POPC   C4A59958  23.743   9.013   7.350
 9097POPC   C1B59959  23.586   9.148   6.450
 9097POPC   C2B59960  23.617   9.195   6.750
 9097POPC   C3B59961  23.614   9.195   7.050
 9097POPC   C4B59962  23.561   9.197   7.350
 9098POPC   NC359963  40.817   5.135   5.550
 9098POPC   PO459964  40.824   5.129   5.850
 9098POPC   GL159965  40.824   5.058   6.150
 9098POPC   GL259966  40.937   5.031   6.150
 9098POPC   C1A59967  40.819   5.080   6.450
 9098POPC   D2A59968  40.741   5.104   6.750
 9098POPC   C3A59969  40.755   5.057   7.050
 9098POPC   C4A59970  40.803   5.118   7.350
 9098POPC   C1B59971  41.024   5.041   6.450
 9098POPC   C2B59972  41.071   5.102   6.750
 9098POPC   C3B59973  41.023   5.041   7.050
 9098POPC   C4B59974  41.067   5.078   7.350
 9099POPC   NC359975  42.332  21.386   5.550
 9099POPC   PO459976  42.331  21.341   5.850
 9099POPC   GL159977  42.364  21.348   6.150
 9099POPC   GL259978  42.207  21.457   6.150
 9099POPC   C1A59979  42.367  21.361   6.450
 9099POPC   D2A59980  42.379  21.434   6.750
 9099POPC   C3A59981  42.375  21.412   7.050
 9099POPC   C4A59982  42.328  21.368   7.350
 9099POPC   C1B59983  42.085  21.440   6.450
 9099POPC   C2B59984  42.077  21.514   6.750
 9099POPC   C3B59985  42.145  21.523   7.050
 9099POPC   C4B59986  42.097  21.460   7.350
 9100POPC   NC359987  41.599   8.177   5.550
 9100POPC   PO459988  41.571   8.233   5.850
 9100POPC   GL159989  41.532   8.157   6.150
 9100POPC   GL259990  41.640   8.084   6.150
 9100POPC   C1A59991  41.589   8.179   6.450
 9100POPC   D2A59992  41.561   8.242   6.750
 9100POPC   C3A59993  41.537   8.226   7.050
 9100POPC   C4A59994  41.579   8.241   7.350
 9100POPC   C1B59995  41.745   8.087   6.450
 9100POPC   C2B59996  41.790   8.062   6.750
 9100POPC   C3B59997  41.774   8.005   7.050
 9100POPC   C4B59998  41.754   8.066   7.350
 9101POPC   NC359999  21.383   6.601   5.550
 9101POPC   PO460000  21.434   6.676   5.850
 9101POPC   GL160001  21.384   6.631   6.150
 9101POPC   GL260002  21.378   6.483   6.150
 9101POPC   C1A60003  21.386   6.638   6.450
 9101POPC   D2A60004  21.385   6.655   6.750
 9101POPC   C3A60005  21.428   6.665   7.050
 9101POPC   C4A60006  21.388   6.659   7.350
 9101POPC   C1B60007  21.394   6.415   6.450
 9101POPC   C2B60008  21.463   6.373   6.750
 9101POPC   C3B60009  21.465   6.387   7.050
 9101POPC   C4B60010  21.394   6.412   7.350
 9102POPC   NC360011  36.940   9.727   5.550
 9102POPC   PO460012  36.950   9.794   5.850
 9102POPC   GL160013  36.892   9.710   6.150
 9102POPC   GL260014  36.947   9.882   6.150
 9102POPC   C1A60015  36.923   9.765   6.450
 9102POPC   D2A60016  36.867   9.730   6.750
 9102POPC   C3A60017  36.928   9.769   7.050
 9102POPC   C4A60018  36.862   9.765   7.350
 9102POPC   C1B60019  36.896   9.954   6.450
 9102POPC   C2B60020  36.865  10.040   6.750
 9102POPC   C3B60021  36.927   9.981   7.050
 9102POPC   C4B60022  36.878   9.966   7.350
 9103POPC   NC360023  29.108  25.219   5.550
 9103POPC   PO460024  29.104  25.294   5.850
 9103POPC   GL160025  29.114  25.243   6.150
 9103POPC   GL260026  29.298  25.293   6.150
 9103POPC   C1A60027  29.172  25.306   6.450
 9103POPC   D2A60028  29.175  25.305   6.750
 9103POPC   C3A60029  29.142  25.242   7.050
 9103POPC   C4A60030  29.185  25.261   7.350
 9103POPC   C1B60031  29.418  25.275   6.450
 9103POPC   C2B60032  29.434  25.354   6.750
 9103POPC   C3B60033  29.389  25.300   7.050
 9103POPC   C4B60034  29.376  25.360   7.350
 9104POPC   NC360035  26.018  29.937   5.550
 9104POPC   PO460036  25.997  29.951   5.850
 9104POPC   GL160037  26.062  29.909   6.150
 9104POPC   GL260038  26.177  29.878   6.150
 9104POPC   C1A60039  26.009  29.955   6.450
 9104POPC   D2A60040  25.996  29.953   6.750
 9104POPC   C3A60041  26.020  29.932   7.050
 9104POPC   C4A60042  26.072  29.953   7.350
 9104POPC   C1B60043  26.244  29.782   6.450
 9104POPC   C2B60044  26.310  29.769   6.750
 9104POPC   C3B60045  26.273  29.808   7.050
 9104POPC   C4B60046  26.284  29.791   7.350
 9105POPC   NC360047  41.511  37.729   5.550
 9105POPC   PO460048  41.597  37.711   5.850
 9105POPC   GL160049  41.531  37.717   6.150
 9105POPC   GL260050  41.671  37.580   6.150
 9105POPC   C1A60051  41.591  37.673   6.450
 9105POPC   D2A60052  41.580  37.711   6.750
 9105POPC   C3A60053  41.555  37.707   7.050
 9105POPC   C4A60054  41.565  37.687   7.350
 9105POPC   C1B60055  41.756  37.597   6.450
 9105POPC   C2B60056  41.768  37.556   6.750
 9105POPC   C3B60057  41.818  37.531   7.050
 9105POPC   C4B60058  41.786  37.528   7.350
 9106POPC   NC360059   4.346  40.765   5.550
 9106POPC   PO460060   4.331  40.759   5.850
 9106POPC   GL160061   4.289  40.766   6.150
 9106POPC   GL260062   4.211  40.901   6.150
 9106POPC   C1A60063   4.365  40.775   6.450
 9106POPC   D2A60064   4.314  40.750   6.750
 9106POPC   C3A60065   4.284  40.818   7.050
 9106POPC   C4A60066   4.343  40.758   7.350
 9106POPC   C1B60067   4.105  41.008   6.450
 9106POPC   C2B60068   4.163  40.983   6.750
 9106POPC   C3B60069   4.194  41.005   7.050
 9106POPC   C4B60070   4.144  40.991   7.350
 9107POPC   NC360071   8.953  10.573   5.550
 9107POPC   PO460072   9.019  10.479   5.850
 9107POPC   GL160073   9.006  10.488   6.150
 9107POPC   GL260074   9.091  10.659   6.150
 9107POPC   C1A60075   8.994  10.528   6.450
 9107POPC   D2A60076   8.960  10.565   6.750
 9107POPC   C3A60077   8.939  10.552   7.050
 9107POPC   C4A60078   8.926  10.505   7.350
 9107POPC   C1B60079   9.178  10.689   6.450
 9107POPC   C2B60080   9.169  10.665   6.750
 9107POPC   C3B60081   9.156  10.730   7.050
 9107POPC   C4B60082   9.094  10.710   7.350
 9108POPC   NC360083  43.072  32.216   5.550
 9108POPC   PO460084  43.150  32.255   5.850
 9108POPC   GL160085  43.063  32.203   6.150
 9108POPC   GL260086  43.125  32.174   6.150
 9108POPC   C1A60087  43.085  32.207   6.450
 9108POPC   D2A60088  43.091  32.263   6.750
 9108POPC   C3A60089  43.090  32.206   7.050
 9108POPC   C4A60090  43.121  32.274   7.350
 9108POPC   C1B60091  43.018  31.988   6.450
 9108POPC   C2B60092  43.004  31.961   6.750
 9108POPC   C3B60093  43.061  32.000   7.050
 9108POPC   C4B60094  43.088  32.031   7.350
 9109POPC   NC360095   8.188   8.984   5.550
 9109POPC   PO460096   8.186   8.923   5.850
 9109POPC   GL160097   8.187   8.991   6.150
 9109POPC   GL260098   8.195   8.897   6.150
 9109POPC   C1A60099   8.237   8.987   6.450
 9109POPC   D2A60100   8.166   8.965   6.750
 9109POPC   C3A60101   8.197   9.013   7.050
 9109POPC   C4A60102   8.241   8.966   7.350
 9109POPC   C1B60103   8.245   8.758   6.450
 9109POPC   C2B60104   8.247   8.686   6.750
 9109POPC   C3B60105   8.176   8.760   7.050
 9109POPC   C4B60106   8.179   8.737   7.350
 9110POPC   NC360107  38.479  26.781   5.550
 9110POPC   PO460108  38.499  26.809   5.850
 9110POPC   GL160109  38.443  26.835   6.150
 9110POPC   GL260110  38.328  26.809   6.150
 9110POPC   C1A60111  38.485  26.775   6.450
 9110POPC   D2A60112  38.450  26.772   6.750
 9110POPC   C3A60113  38.426  26.830   7.050
 9110POPC   C4A60114  38.465  26.805   7.350
 9110POPC   C1B60115  38.265  26.942   6.450
 9110POPC   C2B60116  38.181  26.846   6.750
 9110POPC   C3B60117  38.227  26.876   7.050
 9110POPC   C4B60118  38.222  26.851   7.350
 9111POPC   NC360119  20.640   7.448   5.550
 9111POPC   PO460120  20.621   7.443   5.850
 9111POPC   GL160121  20.604   7.440   6.150
 9111POPC   GL260122  20.739   7.498   6.150
 9111POPC   C1A60123  20.602   7.451   6.450
 9111POPC   D2A60124  20.621   7.450   6.750
 9111POPC   C3A60125  20.575   7.428   7.050
 9111POPC   C4A60126  20.574   7.412   7.350
 9111POPC   C1B60127  20.894   7.539   6.450
 9111POPC   C2B60128  20.859   7.523   6.750
 9111POPC   C3B60129  20.835   7.500   7.050
 9111POPC   C4B60130  20.820   7.484   7.350
 9112POPC   NC360131  16.697  29.898   5.550
 9112POPC   PO460132  16.715  29.915   5.850
 9112POPC   GL160133  16.760  29.875   6.150
 9112POPC   GL260134  16.760  30.032   6.150
 9112POPC   C1A60135  16.741  29.954   6.450
 9112POPC   D2A60136  16.735  29.883   6.750
 9112POPC   C3A60137  16.689  29.915   7.050
 9112POPC   C4A60138  16.771  29.920   7.350
 9112POPC   C1B60139  16.906  30.096   6.450
 9112POPC   C2B60140  16.921  30.096   6.750
 9112POPC   C3B60141  16.911  30.115   7.050
 9112POPC   C4B60142  16.860  30.144   7.350
 9113POPC   NC360143   7.420   9.739   5.550
 9113POPC   PO460144   7.401   9.745   5.850
 9113POPC   GL160145   7.396   9.777   6.150
 9113POPC   GL260146   7.354   9.841   6.150
 9113POPC   C1A60147   7.455   9.707   6.450
 9113POPC   D2A60148   7.452   9.760   6.750
 9113POPC   C3A60149   7.464   9.758   7.050
 9113POPC   C4A60150   7.441   9.699   7.350
 9113POPC   C1B60151   7.355   9.966   6.450
 9113POPC   C2B60152   7.290  10.002   6.750
 9113POPC   C3B60153   7.330  10.013   7.050
 9113POPC   C4B60154   7.387  10.034   7.350
 9114POPC   NC360155  34.550  31.520   5.550
 9114POPC   PO460156  34.610  31.521   5.850
 9114POPC   GL160157  34.598  31.464   6.150
 9114POPC   GL260158  34.559  31.558   6.150
 9114POPC   C1A60159  34.551  31.507   6.450
 9114POPC   D2A60160  34.565  31.520   6.750
 9114POPC   C3A60161  34.569  31.495   7.050
 9114POPC   C4A60162  34.568  31.510   7.350
 9114POPC   C1B60163  34.501  31.744   6.450
 9114POPC   C2B60164  34.543  31.734   6.750
 9114POPC   C3B60165  34.509  31.746   7.050
 9114POPC   C4B60166  34.563  31.684   7.350
 9115POPC   NC360167  15.920  30.681   5.550
 9115POPC   PO460168  15.945  30.690   5.850
 9115POPC   GL160169  15.920  30.706   6.150
 9115POPC   GL260170  15.933  30.599   6.150
 9115POPC   C1A60171  15.928  30.680   6.450
 9115POPC   D2A60172  15.922  30.730   6.750
 9115POPC   C3A60173  15.907  30.722   7.050
 9115POPC   C4A60174  15.927  30.734   7.350
 9115POPC   C1B60175  15.974  30.487   6.450
 9115POPC   C2B60176  15.949  30.448   6.750
 9115POPC   C3B60177  15.995  30.411   7.050
 9115POPC   C4B60178  15.903  30.491   7.350
 9116POPC   NC360179  31.423  29.192   5.550
 9116POPC   PO460180  31.500  29.138   5.850
 9116POPC   GL160181  31.519  29.119   6.150
 9116POPC   GL260182  31.558  29.224   6.150
 9116POPC   C1A60183  31.512  29.120   6.450
 9116POPC   D2A60184  31.450  29.115   6.750
 9116POPC   C3A60185  31.476  29.154   7.050
 9116POPC   C4A60186  31.459  29.190   7.350
 9116POPC   C1B60187  31.637  29.239   6.450
 9116POPC   C2B60188  31.662  29.293   6.750
 9116POPC   C3B60189  31.676  29.290   7.050
 9116POPC   C4B60190  31.639  29.321   7.350
 9117POPC   NC360191  26.057   6.644   5.550
 9117POPC   PO460192  26.090   6.637   5.850
 9117POPC   GL160193  25.992   6.660   6.150
 9117POPC   GL260194  25.919   6.679   6.150
 9117POPC   C1A60195  26.081   6.620   6.450
 9117POPC   D2A60196  26.019   6.685   6.750
 9117POPC   C3A60197  26.060   6.680   7.050
 9117POPC   C4A60198  26.086   6.687   7.350
 9117POPC   C1B60199  25.785   6.739   6.450
 9117POPC   C2B60200  25.788   6.746   6.750
 9117POPC   C3B60201  25.773   6.763   7.050
 9117POPC   C4B60202  25.826   6.722   7.350
 9118POPC   NC360203  39.210  34.564   5.550
 9118POPC   PO460204  39.273  34.619   5.850
 9118POPC   GL160205  39.245  34.549   6.150
 9118POPC   GL260206  39.231  34.720   6.150
 9118POPC   C1A60207  39.277  34.595   6.450
 9118POPC   D2A60208  39.240  34.588   6.750
 9118POPC   C3A60209  39.271  34.561   7.050
 9118POPC   C4A60210  39.263  34.567   7.350
 9118POPC   C1B60211  39.308  34.852   6.450
 9118POPC   C2B60212  39.295  34.852   6.750
 9118POPC   C3B60213  39.317  34.864   7.050
 9118POPC   C4B60214  39.308  34.813   7.350
 9119POPC   NC360215  31.479  41.536   5.550
 9119POPC   PO460216  31.489  41.541   5.850
 9119POPC   GL160217  31.442  41.510   6.150
 9119POPC   GL260218  31.597  41.455   6.150
 9119POPC   C1A60219  31.514  41.573   6.450
 9119POPC   D2A60220  31.509  41.546   6.750
 9119POPC   C3A60221  31.430  41.559   7.050
 9119POPC   C4A60222  31.480  41.577   7.350
 9119POPC   C1B60223  31.619  41.391   6.450
 9119POPC   C2B60224  31.663  41.450   6.750
 9119POPC   C3B60225  31.679  41.402   7.050
 9119POPC   C4B60226  31.628  41.356   7.350
 9120POPC   NC360227  22.196  36.913   5.550
 9120POPC   PO460228  22.143  36.932   5.850
 9120POPC   GL160229  22.186  36.931   6.150
 9120POPC   GL260230  22.157  36.808   6.150
 9120POPC   C1A60231  22.150  36.920   6.450
 9120POPC   D2A60232  22.173  36.917   6.750
 9120POPC   C3A60233  22.158  36.951   7.050
 9120POPC   C4A60234  22.203  36.934   7.350
 9120POPC   C1B60235  22.223  36.667   6.450
 9120POPC   C2B60236  22.171  36.634   6.750
 9120POPC   C3B60237  22.201  36.629   7.050
 9120POPC   C4B60238  22.245  36.661   7.350
 9121POPC   NC360239   2.015  29.141   5.550
 9121POPC   PO460240   2.016  29.103   5.850
 9121POPC   GL160241   2.019  29.155   6.150
 9121POPC   GL260242   1.923  29.263   6.150
 9121POPC   C1A60243   1.943  29.154   6.450
 9121POPC   D2A60244   1.952  29.182   6.750
 9121POPC   C3A60245   2.029  29.105   7.050
 9121POPC   C4A60246   2.001  29.193   7.350
 9121POPC   C1B60247   1.926  29.430   6.450
 9121POPC   C2B60248   1.975  29.392   6.750
 9121POPC   C3B60249   1.969  29.347   7.050
 9121POPC   C4B60250   1.937  29.397   7.350
 9122POPC   NC360251  34.619   5.109   5.550
 9122POPC   PO460252  34.542   5.139   5.850
 9122POPC   GL160253  34.535   5.058   6.150
 9122POPC   GL260254  34.519   4.984   6.150
 9122POPC   C1A60255  34.576   5.103   6.450
 9122POPC   D2A60256  34.539   5.060   6.750
 9122POPC   C3A60257  34.549   5.070   7.050
 9122POPC   C4A60258  34.612   5.115   7.350
 9122POPC   C1B60259  34.540   4.837   6.450
 9122POPC   C2B60260  34.518   4.832   6.750
 9122POPC   C3B60261  34.526   4.865   7.050
 9122POPC   C4B60262  34.502   4.887   7.350
 9123POPC   NC360263  30.708  27.601   5.550
 9123POPC   PO460264  30.658  27.551   5.850
 9123POPC   GL160265  30.746  27.641   6.150
 9123POPC   GL260266  30.773  27.669   6.150
 9123POPC   C1A60267  30.694  27.564   6.450
 9123POPC   D2A60268  30.681  27.627   6.750
 9123POPC   C3A60269  30.742  27.583   7.050
 9123POPC   C4A60270  30.678  27.546   7.350
 9123POPC   C1B60271  30.871  27.724   6.450
 9123POPC   C2B60272  30.871  27.812   6.750
 9123POPC   C3B60273  30.853  27.782   7.050
 9123POPC   C4B60274  30.899  27.754   7.350
 9124POPC   NC360275  43.076  25.250   5.550
 9124POPC   PO460276  43.132  25.246   5.850
 9124POPC   GL160277  43.098  25.271   6.150
 9124POPC   GL260278  43.057  25.192   6.150
 9124POPC   C1A60279  43.126  25.235   6.450
 9124POPC   D2A60280  43.136  25.312   6.750
 9124POPC   C3A60281  43.073  25.296   7.050
 9124POPC   C4A60282  43.158  25.251   7.350
 9124POPC   C1B60283  42.928  25.072   6.450
 9124POPC   C2B60284  42.934  25.116   6.750
 9124POPC   C3B60285  42.964  25.065   7.050
 9124POPC   C4B60286  42.964  25.059   7.350
 9125POPC   NC360287  13.611  29.190   5.550
 9125POPC   PO460288  13.672  29.176   5.850
 9125POPC   GL160289  13.634  29.161   6.150
 9125POPC   GL260290  13.764  29.268   6.150
 9125POPC   C1A60291  13.674  29.186   6.450
 9125POPC   D2A60292  13.607  29.174   6.750
 9125POPC   C3A60293  13.647  29.159   7.050
 9125POPC   C4A60294  13.674  29.120   7.350
 9125POPC   C1B60295  13.845  29.249   6.450
 9125POPC   C2B60296  13.832  29.343   6.750
 9125POPC   C3B60297  13.864  29.270   7.050
 9125POPC   C4B60298  13.840  29.267   7.350
 9126POPC   NC360299  11.321   7.413   5.550
 9126POPC   PO460300  11.339   7.438   5.850
 9126POPC   GL160301  11.273   7.379   6.150
 9126POPC   GL260302  11.342   7.262   6.150
 9126POPC   C1A60303  11.350   7.417   6.450
 9126POPC   D2A60304  11.335   7.467   6.750
 9126POPC   C3A60305  11.309   7.393   7.050
 9126POPC   C4A60306  11.252   7.441   7.350
 9126POPC   C1B60307  11.345   7.195   6.450
 9126POPC   C2B60308  11.299   7.150   6.750
 9126POPC   C3B60309  11.287   7.159   7.050
 9126POPC   C4B60310  11.296   7.151   7.350
 9127POPC   NC360311  36.865  34.542   5.550
 9127POPC   PO460312  36.891  34.619   5.850
 9127POPC   GL160313  36.870  34.540   6.150
 9127POPC   GL260314  36.988  34.443   6.150
 9127POPC   C1A60315  36.947  34.553   6.450
 9127POPC   D2A60316  36.922  34.533   6.750
 9127POPC   C3A60317  36.952  34.593   7.050
 9127POPC   C4A60318  36.924  34.545   7.350
 9127POPC   C1B60319  37.007  34.403   6.450
 9127POPC   C2B60320  37.077  34.314   6.750
 9127POPC   C3B60321  37.030  34.395   7.050
 9127POPC   C4B60322  37.004  34.345   7.350
 9128POPC   NC360323  35.316  36.112   5.550
 9128POPC   PO460324  35.322  36.157   5.850
 9128POPC   GL160325  35.367  36.153   6.150
 9128POPC   GL260326  35.213  36.128   6.150
 9128POPC   C1A60327  35.321  36.136   6.450
 9128POPC   D2A60328  35.331  36.107   6.750
 9128POPC   C3A60329  35.358  36.166   7.050
 9128POPC   C4A60330  35.394  36.095   7.350
 9128POPC   C1B60331  35.109  36.103   6.450
 9128POPC   C2B60332  35.090  36.121   6.750
 9128POPC   C3B60333  35.130  36.103   7.050
 9128POPC   C4B60334  35.129  36.127   7.350
 9129POPC   NC360335  43.069  19.074   5.550
 9129POPC   PO460336  43.072  19.104   5.850
 9129POPC   GL160337  43.139  19.044   6.150
 9129POPC   GL260338  43.101  18.924   6.150
 9129POPC   C1A60339  43.132  19.052   6.450
 9129POPC   D2A60340  43.158  19.060   6.750
 9129POPC   C3A60341  43.140  19.016   7.050
 9129POPC   C4A60342  43.130  19.070   7.350
 9129POPC   C1B60343  43.129  18.793   6.450
 9129POPC   C2B60344  43.097  18.812   6.750
 9129POPC   C3B60345  43.144  18.854   7.050
 9129POPC   C4B60346  43.165  18.769   7.350
 9130POPC   NC360347  40.027  40.815   5.550
 9130POPC   PO460348  40.051  40.810   5.850
 9130POPC   GL160349  40.011  40.794   6.150
 9130POPC   GL260350  39.964  40.665   6.150
 9130POPC   C1A60351  40.033  40.787   6.450
 9130POPC   D2A60352  40.040  40.818   6.750
 9130POPC   C3A60353  39.958  40.753   7.050
 9130POPC   C4A60354  40.045  40.774   7.350
 9130POPC   C1B60355  39.900  40.567   6.450
 9130POPC   C2B60356  39.881  40.523   6.750
 9130POPC   C3B60357  39.885  40.542   7.050
 9130POPC   C4B60358  39.855  40.551   7.350
 9131POPC   NC360359   4.284  22.156   5.550
 9131POPC   PO460360   4.328  22.155   5.850
 9131POPC   GL160361   4.330  22.209   6.150
 9131POPC   GL260362   4.196  22.134   6.150
 9131POPC   C1A60363   4.285  22.117   6.450
 9131POPC   D2A60364   4.278  22.156   6.750
 9131POPC   C3A60365   4.336  22.129   7.050
 9131POPC   C4A60366   4.281  22.127   7.350
 9131POPC   C1B60367   4.108  22.072   6.450
 9131POPC   C2B60368   4.128  22.087   6.750
 9131POPC   C3B60369   4.122  22.080   7.050
 9131POPC   C4B60370   4.055  22.036   7.350
 9132POPC   NC360371  22.153  11.306   5.550
 9132POPC   PO460372  22.169  11.315   5.850
 9132POPC   GL160373  22.118  11.330   6.150
 9132POPC   GL260374  22.222  11.176   6.150
 9132POPC   C1A60375  22.156  11.303   6.450
 9132POPC   D2A60376  22.171  11.265   6.750
 9132POPC   C3A60377  22.163  11.265   7.050
 9132POPC   C4A60378  22.123  11.320   7.350
 9132POPC   C1B60379  22.322  11.166   6.450
 9132POPC   C2B60380  22.357  11.131   6.750
 9132POPC   C3B60381  22.367  11.191   7.050
 9132POPC   C4B60382  22.332  11.122   7.350
 9133POPC   NC360383   4.352  41.594   5.550
 9133POPC   PO460384   4.343  41.569   5.850
 9133POPC   GL160385   4.321  41.580   6.150
 9133POPC   GL260386   4.148  41.537   6.150
 9133POPC   C1A60387   4.318  41.572   6.450
 9133POPC   D2A60388   4.323  41.552   6.750
 9133POPC   C3A60389   4.346  41.548   7.050
 9133POPC   C4A60390   4.358  41.586   7.350
 9133POPC   C1B60391   4.114  41.564   6.450
 9133POPC   C2B60392   4.030  41.585   6.750
 9133POPC   C3B60393   4.110  41.602   7.050
 9133POPC   C4B60394   4.073  41.573   7.350
 9134POPC   NC360395  31.519  40.045   5.550
 9134POPC   PO460396  31.457  40.052   5.850
 9134POPC   GL160397  31.456  40.045   6.150
 9134POPC   GL260398  31.560  40.074   6.150
 9134POPC   C1A60399  31.477  39.994   6.450
 9134POPC   D2A60400  31.429  39.979   6.750
 9134POPC   C3A60401  31.446  40.010   7.050
 9134POPC   C4A60402  31.445  40.013   7.350
 9134POPC   C1B60403  31.696  40.140   6.450
 9134POPC   C2B60404  31.668  40.130   6.750
 9134POPC   C3B60405  31.676  40.152   7.050
 9134POPC   C4B60406  31.708  40.177   7.350
 9135POPC   NC360407  31.435   5.900   5.550
 9135POPC   PO460408  31.484   5.906   5.850
 9135POPC   GL160409  31.426   5.846   6.150
 9135POPC   GL260410  31.351   5.894   6.150
 9135POPC   C1A60411  31.469   5.900   6.450
 9135POPC   D2A60412  31.520   5.885   6.750
 9135POPC   C3A60413  31.471   5.907   7.050
 9135POPC   C4A60414  31.512   5.881   7.350
 9135POPC   C1B60415  31.191   5.915   6.450
 9135POPC   C2B60416  31.232   5.921   6.750
 9135POPC   C3B60417  31.210   5.929   7.050
 9135POPC   C4B60418  31.208   5.877   7.350
 9136POPC   NC360419  26.820   8.937   5.550
 9136POPC   PO460420  26.840   8.996   5.850
 9136POPC   GL160421  26.788   8.965   6.150
 9136POPC   GL260422  26.909   8.965   6.150
 9136POPC   C1A60423  26.782   8.965   6.450
 9136POPC   D2A60424  26.834   8.993   6.750
 9136POPC   C3A60425  26.856   9.021   7.050
 9136POPC   C4A60426  26.790   8.948   7.350
 9136POPC   C1B60427  27.042   8.979   6.450
 9136POPC   C2B60428  27.070   9.015   6.750
 9136POPC   C3B60429  27.023   8.964   7.050
 9136POPC   C4B60430  27.068   9.003   7.350
 9137POPC   NC360431   7.463  33.818   5.550
 9137POPC   PO460432   7.470  33.850   5.850
 9137POPC   GL160433   7.422  33.827   6.150
 9137POPC   GL260434   7.569  33.780   6.150
 9137POPC   C1A60435   7.393  33.836   6.450
 9137POPC   D2A60436   7.421  33.815   6.750
 9137POPC   C3A60437   7.382  33.769   7.050
 9137POPC   C4A60438   7.460  33.830   7.350
 9137POPC   C1B60439   7.624  33.847   6.450
 9137POPC   C2B60440   7.679  33.821   6.750
 9137POPC   C3B60441   7.661  33.838   7.050
 9137POPC   C4B60442   7.710  33.844   7.350
 9138POPC   NC360443  38.437  14.376   5.550
 9138POPC   PO460444  38.432  14.356   5.850
 9138POPC   GL160445  38.504  14.405   6.150
 9138POPC   GL260446  38.568  14.477   6.150
 9138POPC   C1A60447  38.496  14.376   6.450
 9138POPC   D2A60448  38.438  14.435   6.750
 9138POPC   C3A60449  38.451  14.380   7.050
 9138POPC   C4A60450  38.478  14.434   7.350
 9138POPC   C1B60451  38.642  14.544   6.450
 9138POPC   C2B60452  38.680  14.587   6.750
 9138POPC   C3B60453  38.654  14.540   7.050
 9138POPC   C4B60454  38.676  14.563   7.350
 9139POPC   NC360455  13.676   1.167   5.550
 9139POPC   PO460456  13.610   1.199   5.850
 9139POPC   GL160457  13.677   1.166   6.150
 9139POPC   GL260458  13.581   1.107   6.150
 9139POPC   C1A60459  13.657   1.252   6.450
 9139POPC   D2A60460  13.612   1.223   6.750
 9139POPC   C3A60461  13.630   1.227   7.050
 9139POPC   C4A60462  13.618   1.177   7.350
 9139POPC   C1B60463  13.469   1.046   6.450
 9139POPC   C2B60464  13.418   1.071   6.750
 9139POPC   C3B60465  13.458   1.036   7.050
 9139POPC   C4B60466  13.442   1.043   7.350
 9140POPC   NC360467  25.257  40.818   5.550
 9140POPC   PO460468  25.225  40.754   5.850
 9140POPC   GL160469  25.229  40.823   6.150
 9140POPC   GL260470  25.314  40.912   6.150
 9140POPC   C1A60471  25.232  40.795   6.450
 9140POPC   D2A60472  25.299  40.742   6.750
 9140POPC   C3A60473  25.268  40.754   7.050
 9140POPC   C4A60474  25.281  40.816   7.350
 9140POPC   C1B60475  25.432  41.010   6.450
 9140POPC   C2B60476  25.358  41.002   6.750
 9140POPC   C3B60477  25.390  40.996   7.050
 9140POPC   C4B60478  25.365  41.045   7.350
 9141POPC   NC360479   8.238   2.767   5.550
 9141POPC   PO460480   8.164   2.781   5.850
 9141POPC   GL160481   8.237   2.800   6.150
 9141POPC   GL260482   8.229   2.907   6.150
 9141POPC   C1A60483   8.244   2.727   6.450
 9141POPC   D2A60484   8.147   2.779   6.750
 9141POPC   C3A60485   8.220   2.734   7.050
 9141POPC   C4A60486   8.170   2.731   7.350
 9141POPC   C1B60487   8.229   2.985   6.450
 9141POPC   C2B60488   8.240   3.006   6.750
 9141POPC   C3B60489   8.200   2.985   7.050
 9141POPC   C4B60490   8.186   3.060   7.350
 9142POPC   NC360491   1.193  43.901   5.550
 9142POPC   PO460492   1.244  43.888   5.850
 9142POPC   GL160493   1.211  43.910   6.150
 9142POPC   GL260494   1.150  43.807   6.150
 9142POPC   C1A60495   1.185  43.924   6.450
 9142POPC   D2A60496   1.169  43.909   6.750
 9142POPC   C3A60497   1.258  43.923   7.050
 9142POPC   C4A60498   1.209  43.863   7.350
 9142POPC   C1B60499   1.109  43.677   6.450
 9142POPC   C2B60500   1.158  43.698   6.750
 9142POPC   C3B60501   1.184  43.687   7.050
 9142POPC   C4B60502   1.123  43.663   7.350
 9143POPC   NC360503  36.120  38.414   5.550
 9143POPC   PO460504  36.135  38.424   5.850
 9143POPC   GL160505  36.097  38.419   6.150
 9143POPC   GL260506  36.074  38.417   6.150
 9143POPC   C1A60507  36.158  38.468   6.450
 9143POPC   D2A60508  36.171  38.435   6.750
 9143POPC   C3A60509  36.147  38.452   7.050
 9143POPC   C4A60510  36.174  38.498   7.350
 9143POPC   C1B60511  35.902  38.350   6.450
 9143POPC   C2B60512  35.966  38.341   6.750
 9143POPC   C3B60513  35.937  38.326   7.050
 9143POPC   C4B60514  35.927  38.326   7.350
 9144POPC   NC360515  37.680  43.107   5.550
 9144POPC   PO460516  37.704  43.093   5.850
 9144POPC   GL160517  37.676  43.101   6.150
 9144POPC   GL260518  37.839  43.176   6.150
 9144POPC   C1A60519  37.680  43.103   6.450
 9144POPC   D2A60520  37.682  43.098   6.750
 9144POPC   C3A60521  37.666  43.149   7.050
 9144POPC   C4A60522  37.641  43.110   7.350
 9144POPC   C1B60523  37.884  43.176   6.450
 9144POPC   C2B60524  37.956  43.132   6.750
 9144POPC   C3B60525  37.914  43.180   7.050
 9144POPC   C4B60526  37.952  43.157   7.350
 9145POPC   NC360527   7.457  41.584   5.550
 9145POPC   PO460528   7.421  41.549   5.850
 9145POPC   GL160529   7.372  41.557   6.150
 9145POPC   GL260530   7.303  41.540   6.150
 9145POPC   C1A60531   7.444  41.512   6.450
 9145POPC   D2A60532   7.371  41.532   6.750
 9145POPC   C3A60533   7.467  41.517   7.050
 9145POPC   C4A60534   7.425  41.599   7.350
 9145POPC   C1B60535   7.235  41.469   6.450
 9145POPC   C2B60536   7.183  41.425   6.750
 9145POPC   C3B60537   7.190  41.465   7.050
 9145POPC   C4B60538   7.231  41.466   7.350
 9146POPC   NC360539   3.552  24.450   5.550
 9146POPC   PO460540   3.569  24.471   5.850
 9146POPC   GL160541   3.574  24.492   6.150
 9146POPC   GL260542   3.459  24.503   6.150
 9146POPC   C1A60543   3.567  24.492   6.450
 9146POPC   D2A60544   3.582  24.533   6.750
 9146POPC   C3A60545   3.539  24.530   7.050
 9146POPC   C4A60546   3.586  24.458   7.350
 9146POPC   C1B60547   3.341  24.552   6.450
 9146POPC   C2B60548   3.298  24.508   6.750
 9146POPC   C3B60549   3.316  24.566   7.050
 9146POPC   C4B60550   3.336  24.514   7.350
 9147POPC   NC360551  27.555  36.909   5.550
 9147POPC   PO460552  27.562  36.880   5.850
 9147POPC   GL160553  27.611  36.949   6.150
 9147POPC   GL260554  27.668  36.982   6.150
 9147POPC   C1A60555  27.597  36.865   6.450
 9147POPC   D2A60556  27.563  36.946   6.750
 9147POPC   C3A60557  27.624  36.889   7.050
 9147POPC   C4A60558  27.573  36.940   7.350
 9147POPC   C1B60559  27.836  37.039   6.450
 9147POPC   C2B60560  27.802  37.062   6.750
 9147POPC   C3B60561  27.784  37.029   7.050
 9147POPC   C4B60562  27.799  36.994   7.350
 9148POPC   NC360563  29.900   5.849   5.550
 9148POPC   PO460564  29.954   5.913   5.850
 9148POPC   GL160565  29.901   5.826   6.150
 9148POPC   GL260566  29.981   5.976   6.150
 9148POPC   C1A60567  29.902   5.861   6.450
 9148POPC   D2A60568  29.913   5.898   6.750
 9148POPC   C3A60569  29.895   5.912   7.050
 9148POPC   C4A60570  29.921   5.822   7.350
 9148POPC   C1B60571  30.088   6.083   6.450
 9148POPC   C2B60572  30.096   6.081   6.750
 9148POPC   C3B60573  30.024   6.022   7.050
 9148POPC   C4B60574  30.050   6.065   7.350
 9149POPC   NC360575   8.164  29.961   5.550
 9149POPC   PO460576   8.188  29.906   5.850
 9149POPC   GL160577   8.242  29.894   6.150
 9149POPC   GL260578   8.328  30.014   6.150
 9149POPC   C1A60579   8.191  29.871   6.450
 9149POPC   D2A60580   8.217  29.876   6.750
 9149POPC   C3A60581   8.228  29.936   7.050
 9149POPC   C4A60582   8.232  29.970   7.350
 9149POPC   C1B60583   8.461  30.043   6.450
 9149POPC   C2B60584   8.476  29.971   6.750
 9149POPC   C3B60585   8.429  29.973   7.050
 9149POPC   C4B60586   8.428  30.054   7.350
 9150POPC   NC360587  26.068   8.242   5.550
 9150POPC   PO460588  26.001   8.165   5.850
 9150POPC   GL160589  26.055   8.179   6.150
 9150POPC   GL260590  26.012   8.125   6.150
 9150POPC   C1A60591  26.069   8.212   6.450
 9150POPC   D2A60592  26.052   8.241   6.750
 9150POPC   C3A60593  26.088   8.164   7.050
 9150POPC   C4A60594  26.044   8.161   7.350
 9150POPC   C1B60595  25.940   7.925   6.450
 9150POPC   C2B60596  25.961   7.908   6.750
 9150POPC   C3B60597  26.001   7.981   7.050
 9150POPC   C4B60598  25.947   7.993   7.350
 9151POPC   NC360599   4.307  19.813   5.550
 9151POPC   PO460600   4.341  19.808   5.850
 9151POPC   GL160601   4.283  19.790   6.150
 9151POPC   GL260602   4.396  19.846   6.150
 9151POPC   C1A60603   4.365  19.786   6.450
 9151POPC   D2A60604   4.346  19.791   6.750
 9151POPC   C3A60605   4.338  19.790   7.050
 9151POPC   C4A60606   4.335  19.812   7.350
 9151POPC   C1B60607   4.560  19.821   6.450
 9151POPC   C2B60608   4.554  19.800   6.750
 9151POPC   C3B60609   4.543  19.826   7.050
 9151POPC   C4B60610   4.585  19.829   7.350
 9152POPC   NC360611  22.126   1.962   5.550
 9152POPC   PO460612  22.167   1.967   5.850
 9152POPC   GL160613  22.212   1.998   6.150
 9152POPC   GL260614  22.267   1.985   6.150
 9152POPC   C1A60615  22.210   2.037   6.450
 9152POPC   D2A60616  22.181   2.018   6.750
 9152POPC   C3A60617  22.190   2.000   7.050
 9152POPC   C4A60618  22.203   2.021   7.350
 9152POPC   C1B60619  22.411   1.934   6.450
 9152POPC   C2B60620  22.400   1.901   6.750
 9152POPC   C3B60621  22.396   1.952   7.050
 9152POPC   C4B60622  22.418   1.898   7.350
 9153POPC   NC360623  29.874  39.193   5.550
 9153POPC   PO460624  29.959  39.236   5.850
 9153POPC   GL160625  29.914  39.245   6.150
 9153POPC   GL260626  29.882  39.371   6.150
 9153POPC   C1A60627  29.940  39.266   6.450
 9153POPC   D2A60628  29.893  39.265   6.750
 9153POPC   C3A60629  29.917  39.217   7.050
 9153POPC   C4A60630  29.929  39.280   7.350
 9153POPC   C1B60631  29.851  39.512   6.450
 9153POPC   C2B60632  29.834  39.480   6.750
 9153POPC   C3B60633  29.811  39.500   7.050
 9153POPC   C4B60634  29.804  39.489   7.350
 9154POPC   NC360635  43.115  20.621   5.550
 9154POPC   PO460636  43.062  20.612   5.850
 9154POPC   GL160637  43.085  20.658   6.150
 9154POPC   GL260638  43.228  20.598   6.150
 9154POPC   C1A60639  43.065  20.603   6.450
 9154POPC   D2A60640  43.129  20.600   6.750
 9154POPC   C3A60641  43.142  20.605   7.050
 9154POPC   C4A60642  43.132  20.620   7.350
 9154POPC   C1B60643  43.398  20.594   6.450
 9154POPC   C2B60644  43.406  20.562   6.750
 9154POPC   C3B60645  43.350  20.594   7.050
 9154POPC   C4B60646  43.343  20.578   7.350
 9155POPC   NC360647   1.952   1.206   5.550
 9155POPC   PO460648   1.990   1.174   5.850
 9155POPC   GL160649   2.006   1.225   6.150
 9155POPC   GL260650   2.007   1.123   6.150
 9155POPC   C1A60651   2.013   1.255   6.450
 9155POPC   D2A60652   2.027   1.165   6.750
 9155POPC   C3A60653   1.992   1.200   7.050
 9155POPC   C4A60654   1.996   1.169   7.350
 9155POPC   C1B60655   1.974   0.966   6.450
 9155POPC   C2B60656   1.945   0.939   6.750
 9155POPC   C3B60657   1.971   0.919   7.050
 9155POPC   C4B60658   1.973   0.982   7.350
 9156POPC   NC360659  40.748  22.889   5.550
 9156POPC   PO460660  40.794  22.891   5.850
 9156POPC   GL160661  40.783  22.981   6.150
 9156POPC   GL260662  40.878  22.883   6.150
 9156POPC   C1A60663  40.768  22.965   6.450
 9156POPC   D2A60664  40.821  22.985   6.750
 9156POPC   C3A60665  40.775  22.963   7.050
 9156POPC   C4A60666  40.739  22.902   7.350
 9156POPC   C1B60667  40.925  22.745   6.450
 9156POPC   C2B60668  40.980  22.796   6.750
 9156POPC   C3B60669  40.946  22.815   7.050
 9156POPC   C4B60670  40.960  22.784   7.350
 9157POPC   NC360671  33.841   1.251   5.550
 9157POPC   PO460672  33.828   1.214   5.850
 9157POPC   GL160673  33.781   1.178   6.150
 9157POPC   GL260674  33.890   1.332   6.150
 9157POPC   C1A60675  33.807   1.245   6.450
 9157POPC   D2A60676  33.804   1.261   6.750
 9157POPC   C3A60677  33.791   1.219   7.050
 9157POPC   C4A60678  33.799   1.254   7.350
 9157POPC   C1B60679  33.919   1.467   6.450
 9157POPC   C2B60680  33.889   1.466   6.750
 9157POPC   C3B60681  33.873   1.442   7.050
 9157POPC   C4B60682  33.947   1.408   7.350
 9158POPC   NC360683   7.463  40.828   5.550
 9158POPC   PO460684   7.467  40.807   5.850
 9158POPC   GL160685   7.446  40.752   6.150
 9158POPC   GL260686   7.498  40.770   6.150
 9158POPC   C1A60687   7.443  40.819   6.450
 9158POPC   D2A60688   7.460  40.771   6.750
 9158POPC   C3A60689   7.404  40.791   7.050
 9158POPC   C4A60690   7.383  40.785   7.350
 9158POPC   C1B60691   7.665  40.707   6.450
 9158POPC   C2B60692   7.651  40.726   6.750
 9158POPC   C3B60693   7.666  40.783   7.050
 9158POPC   C4B60694   7.708  40.743   7.350
 9159POPC   NC360695  12.893  31.510   5.550
 9159POPC   PO460696  12.883  31.482   5.850
 9159POPC   GL160697  12.839  31.510   6.150
 9159POPC   GL260698  12.682  31.412   6.150
 9159POPC   C1A60699  12.896  31.460   6.450
 9159POPC   D2A60700  12.807  31.506   6.750
 9159POPC   C3A60701  12.826  31.518   7.050
 9159POPC   C4A60702  12.828  31.441   7.350
 9159POPC   C1B60703  12.624  31.453   6.450
 9159POPC   C2B60704  12.592  31.462   6.750
 9159POPC   C3B60705  12.646  31.418   7.050
 9159POPC   C4B60706  12.653  31.443   7.350
 9160POPC   NC360707  33.849   9.759   5.550
 9160POPC   PO460708  33.777   9.763   5.850
 9160POPC   GL160709  33.751   9.729   6.150
 9160POPC   GL260710  33.816   9.668   6.150
 9160POPC   C1A60711  33.750   9.774   6.450
 9160POPC   D2A60712  33.809   9.740   6.750
 9160POPC   C3A60713  33.756   9.723   7.050
 9160POPC   C4A60714  33.823   9.765   7.350
 9160POPC   C1B60715  33.861   9.486   6.450
 9160POPC   C2B60716  33.819   9.486   6.750
 9160POPC   C3B60717  33.884   9.486   7.050
 9160POPC   C4B60718  33.832   9.508   7.350
 9161POPC   NC360719  40.039   1.179   5.550
 9161POPC   PO460720  39.961   1.215   5.850
 9161POPC   GL160721  40.034   1.255   6.150
 9161POPC   GL260722  39.850   1.215   6.150
 9161POPC   C1A60723  40.002   1.186   6.450
 9161POPC   D2A60724  40.045   1.202   6.750
 9161POPC   C3A60725  39.977   1.176   7.050
 9161POPC   C4A60726  39.957   1.227   7.350
 9161POPC   C1B60727  39.757   1.135   6.450
 9161POPC   C2B60728  39.759   1.125   6.750
 9161POPC   C3B60729  39.779   1.104   7.050
 9161POPC   C4B60730  39.799   1.201   7.350
 9162POPC   NC360731  13.579  33.831   5.550
 9162POPC   PO460732  13.617  33.755   5.850
 9162POPC   GL160733  13.632  33.783   6.150
 9162POPC   GL260734  13.674  33.726   6.150
 9162POPC   C1A60735  13.671  33.756   6.450
 9162POPC   D2A60736  13.675  33.777   6.750
 9162POPC   C3A60737  13.581  33.763   7.050
 9162POPC   C4A60738  13.600  33.792   7.350
 9162POPC   C1B60739  13.811  33.646   6.450
 9162POPC   C2B60740  13.858  33.619   6.750
 9162POPC   C3B60741  13.773  33.653   7.050
 9162POPC   C4B60742  13.859  33.654   7.350
 9163POPC   NC360743  32.998  40.000   5.550
 9163POPC   PO460744  32.981  40.044   5.850
 9163POPC   GL160745  33.033  40.013   6.150
 9163POPC   GL260746  32.872  39.941   6.150
 9163POPC   C1A60747  33.049  40.047   6.450
 9163POPC   D2A60748  32.987  39.995   6.750
 9163POPC   C3A60749  33.068  40.020   7.050
 9163POPC   C4A60750  33.054  39.959   7.350
 9163POPC   C1B60751  32.824  39.995   6.450
 9163POPC   C2B60752  32.824  39.958   6.750
 9163POPC   C3B60753  32.799  39.910   7.050
 9163POPC   C4B60754  32.773  39.913   7.350
 9164POPC   NC360755   5.139  26.048   5.550
 9164POPC   PO460756   5.106  26.025   5.850
 9164POPC   GL160757   5.090  26.013   6.150
 9164POPC   GL260758   5.089  25.917   6.150
 9164POPC   C1A60759   5.108  26.038   6.450
 9164POPC   D2A60760   5.066  26.065   6.750
 9164POPC   C3A60761   5.043  26.069   7.050
 9164POPC   C4A60762   5.123  26.015   7.350
 9164POPC   C1B60763   5.026  25.789   6.450
 9164POPC   C2B60764   5.010  25.835   6.750
 9164POPC   C3B60765   5.026  25.815   7.050
 9164POPC   C4B60766   4.957  25.846   7.350
 9165POPC   NC360767  36.109  33.011   5.550
 9165POPC   PO460768  36.085  32.983   5.850
 9165POPC   GL160769  36.086  33.021   6.150
 9165POPC   GL260770  36.145  32.955   6.150
 9165POPC   C1A60771  36.120  33.074   6.450
 9165POPC   D2A60772  36.086  33.069   6.750
 9165POPC   C3A60773  36.078  33.055   7.050
 9165POPC   C4A60774  36.125  33.031   7.350
 9165POPC   C1B60775  36.264  32.816   6.450
 9165POPC   C2B60776  36.223  32.769   6.750
 9165POPC   C3B60777  36.255  32.803   7.050
 9165POPC   C4B60778  36.236  32.805   7.350
 9166POPC   NC360779   0.452   8.986   5.550
 9166POPC   PO460780   0.457   8.934   5.850
 9166POPC   GL160781   0.397   8.943   6.150
 9166POPC   GL260782   0.510   8.918   6.150
 9166POPC   C1A60783   0.462   9.000   6.450
 9166POPC   D2A60784   0.480   8.955   6.750
 9166POPC   C3A60785   0.456   8.985   7.050
 9166POPC   C4A60786   0.393   8.992   7.350
 9166POPC   C1B60787   0.609   8.835   6.450
 9166POPC   C2B60788   0.662   8.876   6.750
 9166POPC   C3B60789   0.623   8.833   7.050
 9166POPC   C4B60790   0.672   8.826   7.350
 9167POPC   NC360791  15.954  35.343   5.550
 9167POPC   PO460792  15.997  35.385   5.850
 9167POPC   GL160793  15.970  35.372   6.150
 9167POPC   GL260794  16.060  35.269   6.150
 9167POPC   C1A60795  15.925  35.324   6.450
 9167POPC   D2A60796  16.005  35.327   6.750
 9167POPC   C3A60797  15.976  35.329   7.050
 9167POPC   C4A60798  15.963  35.338   7.350
 9167POPC   C1B60799  16.092  35.205   6.450
 9167POPC   C2B60800  16.154  35.206   6.750
 9167POPC   C3B60801  16.097  35.208   7.050
 9167POPC   C4B60802  16.135  35.226   7.350
 9168POPC   NC360803   2.724  29.187   5.550
 9168POPC   PO460804   2.798  29.142   5.850
 9168POPC   GL160805   2.777  29.132   6.150
 9168POPC   GL260806   2.645  29.093   6.150
 9168POPC   C1A60807   2.721  29.146   6.450
 9168POPC   D2A60808   2.722  29.130   6.750
 9168POPC   C3A60809   2.749  29.171   7.050
 9168POPC   C4A60810   2.737  29.158   7.350
 9168POPC   C1B60811   2.580  28.941   6.450
 9168POPC   C2B60812   2.533  28.967   6.750
 9168POPC   C3B60813   2.595  29.016   7.050
 9168POPC   C4B60814   2.559  28.953   7.350
 9169POPC   NC360815  40.801   8.953   5.550
 9169POPC   PO460816  40.790   8.956   5.850
 9169POPC   GL160817  40.735   8.945   6.150
 9169POPC   GL260818  40.842   8.856   6.150
 9169POPC   C1A60819  40.763   8.956   6.450
 9169POPC   D2A60820  40.738   8.959   6.750
 9169POPC   C3A60821  40.825   8.976   7.050
 9169POPC   C4A60822  40.819   9.011   7.350
 9169POPC   C1B60823  40.848   8.795   6.450
 9169POPC   C2B60824  40.914   8.785   6.750
 9169POPC   C3B60825  40.869   8.794   7.050
 9169POPC   C4B60826  40.895   8.736   7.350
 9170POPC   NC360827  41.605  38.477   5.550
 9170POPC   PO460828  41.600  38.415   5.850
 9170POPC   GL160829  41.532  38.481   6.150
 9170POPC   GL260830  41.584  38.289   6.150
 9170POPC   C1A60831  41.551  38.415   6.450
 9170POPC   D2A60832  41.598  38.442   6.750
 9170POPC   C3A60833  41.528  38.429   7.050
 9170POPC   C4A60834  41.563  38.491   7.350
 9170POPC   C1B60835  41.633  38.186   6.450
 9170POPC   C2B60836  41.643  38.213   6.750
 9170POPC   C3B60837  41.585  38.189   7.050
 9170POPC   C4B60838  41.626  38.254   7.350
 9171POPC   NC360839  43.887  33.050   5.550
 9171POPC   PO460840  43.921  33.046   5.850
 9171POPC   GL160841  43.924  33.024   6.150
 9171POPC   GL260842  43.837  32.920   6.150
 9171POPC   C1A60843  43.854  33.050   6.450
 9171POPC   D2A60844  43.932  32.992   6.750
 9171POPC   C3A60845  43.839  33.040   7.050
 9171POPC   C4A60846  43.923  32.986   7.350
 9171POPC   C1B60847  43.749  32.805   6.450
 9171POPC   C2B60848  43.734  32.856   6.750
 9171POPC   C3B60849  43.728  32.770   7.050
 9171POPC   C4B60850  43.726  32.769   7.350
 9172POPC   NC360851  10.506  28.377   5.550
 9172POPC   PO460852  10.519  28.353   5.850
 9172POPC   GL160853  10.500  28.338   6.150
 9172POPC   GL260854  10.636  28.467   6.150
 9172POPC   C1A60855  10.515  28.338   6.450
 9172POPC   D2A60856  10.484  28.404   6.750
 9172POPC   C3A60857  10.488  28.398   7.050
 9172POPC   C4A60858  10.495  28.360   7.350
 9172POPC   C1B60859  10.649  28.542   6.450
 9172POPC   C2B60860  10.655  28.551   6.750
 9172POPC   C3B60861  10.624  28.548   7.050
 9172POPC   C4B60862  10.619  28.609   7.350
 9173POPC   NC360863  42.322  41.577   5.550
 9173POPC   PO460864  42.359  41.559   5.850
 9173POPC   GL160865  42.383  41.591   6.150
 9173POPC   GL260866  42.254  41.401   6.150
 9173POPC   C1A60867  42.369  41.586   6.450
 9173POPC   D2A60868  42.384  41.603   6.750
 9173POPC   C3A60869  42.321  41.571   7.050
 9173POPC   C4A60870  42.372  41.512   7.350
 9173POPC   C1B60871  42.259  41.328   6.450
 9173POPC   C2B60872  42.254  41.301   6.750
 9173POPC   C3B60873  42.196  41.378   7.050
 9173POPC   C4B60874  42.215  41.349   7.350
 9174POPC   NC360875  15.153  15.131   5.550
 9174POPC   PO460876  15.172  15.197   5.850
 9174POPC   GL160877  15.209  15.134   6.150
 9174POPC   GL260878  15.131  15.275   6.150
 9174POPC   C1A60879  15.210  15.154   6.450
 9174POPC   D2A60880  15.132  15.137   6.750
 9174POPC   C3A60881  15.132  15.195   7.050
 9174POPC   C4A60882  15.224  15.180   7.350
 9174POPC   C1B60883  15.037  15.379   6.450
 9174POPC   C2B60884  15.053  15.395   6.750
 9174POPC   C3B60885  15.046  15.448   7.050
 9174POPC   C4B60886  15.012  15.428   7.350
 9175POPC   NC360887  10.480  18.329   5.550
 9175POPC   PO460888  10.510  18.287   5.850
 9175POPC   GL160889  10.552  18.290   6.150
 9175POPC   GL260890  10.582  18.154   6.150
 9175POPC   C1A60891  10.569  18.254   6.450
 9175POPC   D2A60892  10.547  18.282   6.750
 9175POPC   C3A60893  10.499  18.309   7.050
 9175POPC   C4A60894  10.486  18.242   7.350
 9175POPC   C1B60895  10.682  18.093   6.450
 9175POPC   C2B60896  10.651  18.026   6.750
 9175POPC   C3B60897  10.608  18.042   7.050
 9175POPC   C4B60898  10.621  18.073   7.350
 9176POPC   NC360899  24.459  14.435   5.550
 9176POPC   PO460900  24.492  14.394   5.850
 9176POPC   GL160901  24.464  14.416   6.150
 9176POPC   GL260902  24.432  14.502   6.150
 9176POPC   C1A60903  24.454  14.412   6.450
 9176POPC   D2A60904  24.521  14.423   6.750
 9176POPC   C3A60905  24.444  14.423   7.050
 9176POPC   C4A60906  24.477  14.392   7.350
 9176POPC   C1B60907  24.451  14.644   6.450
 9176POPC   C2B60908  24.495  14.651   6.750
 9176POPC   C3B60909  24.497  14.686   7.050
 9176POPC   C4B60910  24.504  14.651   7.350
 9177POPC   NC360911  24.496  36.868   5.550
 9177POPC   PO460912  24.453  36.888   5.850
 9177POPC   GL160913  24.538  36.859   6.150
 9177POPC   GL260914  24.439  36.793   6.150
 9177POPC   C1A60915  24.457  36.907   6.450
 9177POPC   D2A60916  24.473  36.932   6.750
 9177POPC   C3A60917  24.527  36.870   7.050
 9177POPC   C4A60918  24.495  36.921   7.350
 9177POPC   C1B60919  24.463  36.707   6.450
 9177POPC   C2B60920  24.451  36.663   6.750
 9177POPC   C3B60921  24.467  36.649   7.050
 9177POPC   C4B60922  24.486  36.652   7.350
 9178POPC   NC360923  26.087  16.707   5.550
 9178POPC   PO460924  26.091  16.750   5.850
 9178POPC   GL160925  26.039  16.775   6.150
 9178POPC   GL260926  26.058  16.876   6.150
 9178POPC   C1A60927  26.051  16.746   6.450
 9178POPC   D2A60928  26.068  16.716   6.750
 9178POPC   C3A60929  26.025  16.693   7.050
 9178POPC   C4A60930  26.014  16.723   7.350
 9178POPC   C1B60931  26.033  16.928   6.450
 9178POPC   C2B60932  25.974  16.967   6.750
 9178POPC   C3B60933  26.025  17.010   7.050
 9178POPC   C4B60934  26.033  16.928   7.350
 9179POPC   NC360935  31.465  28.369   5.550
 9179POPC   PO460936  31.457  28.352   5.850
 9179POPC   GL160937  31.432  28.384   6.150
 9179POPC   GL260938  31.573  28.442   6.150
 9179POPC   C1A60939  31.456  28.406   6.450
 9179POPC   D2A60940  31.488  28.365   6.750
 9179POPC   C3A60941  31.482  28.404   7.050
 9179POPC   C4A60942  31.425  28.376   7.350
 9179POPC   C1B60943  31.712  28.470   6.450
 9179POPC   C2B60944  31.729  28.512   6.750
 9179POPC   C3B60945  31.725  28.527   7.050
 9179POPC   C4B60946  31.682  28.499   7.350
 9180POPC   NC360947  13.608  41.527   5.550
 9180POPC   PO460948  13.607  41.555   5.850
 9180POPC   GL160949  13.658  41.578   6.150
 9180POPC   GL260950  13.758  41.536   6.150
 9180POPC   C1A60951  13.643  41.534   6.450
 9180POPC   D2A60952  13.642  41.567   6.750
 9180POPC   C3A60953  13.640  41.594   7.050
 9180POPC   C4A60954  13.604  41.538   7.350
 9180POPC   C1B60955  13.871  41.445   6.450
 9180POPC   C2B60956  13.855  41.477   6.750
 9180POPC   C3B60957  13.873  41.456   7.050
 9180POPC   C4B60958  13.837  41.474   7.350
 9181POPC   NC360959  22.907   8.161   5.550
 9181POPC   PO460960  22.904   8.242   5.850
 9181POPC   GL160961  22.952   8.186   6.150
 9181POPC   GL260962  22.853   8.342   6.150
 9181POPC   C1A60963  22.895   8.217   6.450
 9181POPC   D2A60964  22.978   8.234   6.750
 9181POPC   C3A60965  22.953   8.223   7.050
 9181POPC   C4A60966  22.943   8.233   7.350
 9181POPC   C1B60967  22.818   8.467   6.450
 9181POPC   C2B60968  22.909   8.417   6.750
 9181POPC   C3B60969  22.858   8.458   7.050
 9181POPC   C4B60970  22.814   8.404   7.350
 9182POPC   NC360971  15.938  27.641   5.550
 9182POPC   PO460972  15.940  27.632   5.850
 9182POPC   GL160973  15.914  27.615   6.150
 9182POPC   GL260974  15.869  27.522   6.150
 9182POPC   C1A60975  15.969  27.605   6.450
 9182POPC   D2A60976  15.915  27.635   6.750
 9182POPC   C3A60977  15.919  27.599   7.050
 9182POPC   C4A60978  15.937  27.589   7.350
 9182POPC   C1B60979  15.787  27.384   6.450
 9182POPC   C2B60980  15.806  27.372   6.750
 9182POPC   C3B60981  15.799  27.401   7.050
 9182POPC   C4B60982  15.794  27.378   7.350
 9183POPC   NC360983   0.457  22.946   5.550
 9183POPC   PO460984   0.438  22.979   5.850
 9183POPC   GL160985   0.430  22.974   6.150
 9183POPC   GL260986   0.467  23.057   6.150
 9183POPC   C1A60987   0.431  22.974   6.450
 9183POPC   D2A60988   0.473  22.892   6.750
 9183POPC   C3A60989   0.389  22.903   7.050
 9183POPC   C4A60990   0.476  22.977   7.350
 9183POPC   C1B60991   0.477  23.143   6.450
 9183POPC   C2B60992   0.469  23.181   6.750
 9183POPC   C3B60993   0.441  23.136   7.050
 9183POPC   C4B60994   0.492  23.179   7.350
 9184POPC   NC360995  29.110  26.056   5.550
 9184POPC   PO460996  29.140  26.018   5.850
 9184POPC   GL160997  29.174  26.026   6.150
 9184POPC   GL260998  29.158  26.144   6.150
 9184POPC   C1A60999  29.115  26.023   6.450
 9184POPC   D2A61000  29.121  26.004   6.750
 9184POPC   C3A61001  29.156  26.031   7.050
 9184POPC   C4A61002  29.145  26.084   7.350
 9184POPC   C1B61003  29.132  26.254   6.450
 9184POPC   C2B61004  29.183  26.298   6.750
 9184POPC   C3B61005  29.141  26.254   7.050
 9184POPC   C4B61006  29.196  26.296   7.350
 9185POPC   NC361007  35.360  34.622   5.550
 9185POPC   PO461008  35.308  34.604   5.850
 9185POPC   GL161009  35.318  34.569   6.150
 9185POPC   GL261010  35.255  34.626   6.150
 9185POPC   C1A61011  35.356  34.535   6.450
 9185POPC   D2A61012  35.340  34.621   6.750
 9185POPC   C3A61013  35.346  34.588   7.050
 9185POPC   C4A61014  35.396  34.546   7.350
 9185POPC   C1B61015  35.125  34.634   6.450
 9185POPC   C2B61016  35.088  34.607   6.750
 9185POPC   C3B61017  35.133  34.622   7.050
 9185POPC   C4B61018  35.136  34.629   7.350
 9186POPC   NC361019  22.201  16.755   5.550
 9186POPC   PO461020  22.165  16.700   5.850
 9186POPC   GL161021  22.171  16.777   6.150
 9186POPC   GL261022  21.994  16.714   6.150
 9186POPC   C1A61023  22.161  16.701   6.450
 9186POPC   D2A61024  22.198  16.760   6.750
 9186POPC   C3A61025  22.167  16.740   7.050
 9186POPC   C4A61026  22.199  16.745   7.350
 9186POPC   C1B61027  21.938  16.721   6.450
 9186POPC   C2B61028  21.908  16.634   6.750
 9186POPC   C3B61029  21.881  16.689   7.050
 9186POPC   C4B61030  21.898  16.721   7.350
 9187POPC   NC361031   7.401   8.996   5.550
 9187POPC   PO461032   7.448   8.956   5.850
 9187POPC   GL161033   7.451   9.012   6.150
 9187POPC   GL261034   7.392   8.868   6.150
 9187POPC   C1A61035   7.402   8.985   6.450
 9187POPC   D2A61036   7.385   8.966   6.750
 9187POPC   C3A61037   7.394   8.996   7.050
 9187POPC   C4A61038   7.447   9.017   7.350
 9187POPC   C1B61039   7.387   8.685   6.450
 9187POPC   C2B61040   7.372   8.769   6.750
 9187POPC   C3B61041   7.417   8.747   7.050
 9187POPC   C4B61042   7.450   8.696   7.350
 9188POPC   NC361043  35.363  29.944   5.550
 9188POPC   PO461044  35.309  29.885   5.850
 9188POPC   GL161045  35.322  29.932   6.150
 9188POPC   GL261046  35.440  29.889   6.150
 9188POPC   C1A61047  35.303  29.959   6.450
 9188POPC   D2A61048  35.389  29.962   6.750
 9188POPC   C3A61049  35.390  29.890   7.050
 9188POPC   C4A61050  35.303  29.951   7.350
 9188POPC   C1B61051  35.642  29.827   6.450
 9188POPC   C2B61052  35.619  29.854   6.750
 9188POPC   C3B61053  35.593  29.856   7.050
 9188POPC   C4B61054  35.565  29.847   7.350
 9189POPC   NC361055  17.551   7.406   5.550
 9189POPC   PO461056  17.472   7.410   5.850
 9189POPC   GL161057  17.503   7.410   6.150
 9189POPC   GL261058  17.577   7.368   6.150
 9189POPC   C1A61059  17.550   7.378   6.450
 9189POPC   D2A61060  17.480   7.389   6.750
 9189POPC   C3A61061  17.500   7.413   7.050
 9189POPC   C4A61062  17.533   7.455   7.350
 9189POPC   C1B61063  17.745   7.296   6.450
 9189POPC   C2B61064  17.721   7.289   6.750
 9189POPC   C3B61065  17.766   7.296   7.050
 9189POPC   C4B61066  17.782   7.294   7.350
 9190POPC   NC361067   3.586   9.758   5.550
 9190POPC   PO461068   3.533   9.706   5.850
 9190POPC   GL161069   3.497   9.791   6.150
 9190POPC   GL261070   3.465   9.677   6.150
 9190POPC   C1A61071   3.512   9.715   6.450
 9190POPC   D2A61072   3.576   9.737   6.750
 9190POPC   C3A61073   3.564   9.727   7.050
 9190POPC   C4A61074   3.530   9.742   7.350
 9190POPC   C1B61075   3.309   9.665   6.450
 9190POPC   C2B61076   3.294   9.626   6.750
 9190POPC   C3B61077   3.284   9.670   7.050
 9190POPC   C4B61078   3.311   9.604   7.350
 9191POPC   NC361079  32.289   9.701   5.550
 9191POPC   PO461080  32.200   9.788   5.850
 9191POPC   GL161081  32.273   9.711   6.150
 9191POPC   GL261082  32.159   9.813   6.150
 9191POPC   C1A61083  32.261   9.783   6.450
 9191POPC   D2A61084  32.217   9.736   6.750
 9191POPC   C3A61085  32.265   9.773   7.050
 9191POPC   C4A61086  32.271   9.714   7.350
 9191POPC   C1B61087  32.010   9.888   6.450
 9191POPC   C2B61088  32.053   9.864   6.750
 9191POPC   C3B61089  32.041   9.922   7.050
 9191POPC   C4B61090  32.080   9.893   7.350
 9192POPC   NC361091  15.191  21.377   5.550
 9192POPC   PO461092  15.220  21.344   5.850
 9192POPC   GL161093  15.163  21.402   6.150
 9192POPC   GL261094  15.221  21.254   6.150
 9192POPC   C1A61095  15.136  21.355   6.450
 9192POPC   D2A61096  15.181  21.418   6.750
 9192POPC   C3A61097  15.160  21.436   7.050
 9192POPC   C4A61098  15.202  21.416   7.350
 9192POPC   C1B61099  15.391  21.162   6.450
 9192POPC   C2B61100  15.333  21.171   6.750
 9192POPC   C3B61101  15.381  21.163   7.050
 9192POPC   C4B61102  15.376  21.185   7.350
 9193POPC   NC361103  12.052  39.230   5.550
 9193POPC   PO461104  12.072  39.267   5.850
 9193POPC   GL161105  12.042  39.198   6.150
 9193POPC   GL261106  12.130  39.334   6.150
 9193POPC   C1A61107  12.087  39.259   6.450
 9193POPC   D2A61108  12.117  39.249   6.750
 9193POPC   C3A61109  12.046  39.248   7.050
 9193POPC   C4A61110  12.033  39.187   7.350
 9193POPC   C1B61111  12.262  39.464   6.450
 9193POPC   C2B61112  12.194  39.466   6.750
 9193POPC   C3B61113  12.277  39.400   7.050
 9193POPC   C4B61114  12.291  39.460   7.350
 9194POPC   NC361115  40.053  41.606   5.550
 9194POPC   PO461116  39.996  41.591   5.850
 9194POPC   GL161117  39.997  41.516   6.150
 9194POPC   GL261118  39.873  41.589   6.150
 9194POPC   C1A61119  40.012  41.599   6.450
 9194POPC   D2A61120  40.000  41.590   6.750
 9194POPC   C3A61121  39.967  41.509   7.050
 9194POPC   C4A61122  39.971  41.555   7.350
 9194POPC   C1B61123  39.830  41.677   6.450
 9194POPC   C2B61124  39.809  41.636   6.750
 9194POPC   C3B61125  39.756  41.637   7.050
 9194POPC   C4B61126  39.827  41.633   7.350
 9195POPC   NC361127  26.769  43.861   5.550
 9195POPC   PO461128  26.811  43.888   5.850
 9195POPC   GL161129  26.826  43.854   6.150
 9195POPC   GL261130  26.711  43.875   6.150
 9195POPC   C1A61131  26.852  43.933   6.450
 9195POPC   D2A61132  26.801  43.857   6.750
 9195POPC   C3A61133  26.811  43.860   7.050
 9195POPC   C4A61134  26.844  43.928   7.350
 9195POPC   C1B61135  26.561  43.814   6.450
 9195POPC   C2B61136  26.614  43.897   6.750
 9195POPC   C3B61137  26.575  43.880   7.050
 9195POPC   C4B61138  26.526  43.838   7.350
 9196POPC   NC361139   5.121  23.726   5.550
 9196POPC   PO461140   5.074  23.724   5.850
 9196POPC   GL161141   5.137  23.681   6.150
 9196POPC   GL261142   5.232  23.699   6.150
 9196POPC   C1A61143   5.118  23.692   6.450
 9196POPC   D2A61144   5.136  23.703   6.750
 9196POPC   C3A61145   5.098  23.723   7.050
 9196POPC   C4A61146   5.136  23.742   7.350
 9196POPC   C1B61147   5.323  23.712   6.450
 9196POPC   C2B61148   5.347  23.773   6.750
 9196POPC   C3B61149   5.307  23.785   7.050
 9196POPC   C4B61150   5.322  23.702   7.350
 9197POPC   NC361151  34.567   1.195   5.550
 9197POPC   PO461152  34.565   1.189   5.850
 9197POPC   GL161153  34.603   1.246   6.150
 9197POPC   GL261154  34.698   1.258   6.150
 9197POPC   C1A61155  34.612   1.262   6.450
 9197POPC   D2A61156  34.580   1.258   6.750
 9197POPC   C3A61157  34.562   1.248   7.050
 9197POPC   C4A61158  34.547   1.258   7.350
 9197POPC   C1B61159  34.863   1.304   6.450
 9197POPC   C2B61160  34.812   1.227   6.750
 9197POPC   C3B61161  34.794   1.253   7.050
 9197POPC   C4B61162  34.786   1.275   7.350
 9198POPC   NC361163  43.860   0.428   5.550
 9198POPC   PO461164  43.904   0.452   5.850
 9198POPC   GL161165  43.840   0.434   6.150
 9198POPC   GL261166  43.846   0.335   6.150
 9198POPC   C1A61167  43.924   0.468   6.450
 9198POPC   D2A61168  43.912   0.401   6.750
 9198POPC   C3A61169  43.909   0.445   7.050
 9198POPC   C4A61170  43.872   0.401   7.350
 9198POPC   C1B61171  43.690   0.245   6.450
 9198POPC   C2B61172  43.692   0.234   6.750
 9198POPC   C3B61173  43.738   0.200   7.050
 9198POPC   C4B61174  43.684   0.289   7.350
 9199POPC   NC361175  36.092  28.336   5.550
 9199POPC   PO461176  36.123  28.357   5.850
 9199POPC   GL161177  36.094  28.379   6.150
 9199POPC   GL261178  36.242  28.275   6.150
 9199POPC   C1A61179  36.109  28.381   6.450
 9199POPC   D2A61180  36.134  28.386   6.750
 9199POPC   C3A61181  36.152  28.383   7.050
 9199POPC   C4A61182  36.124  28.358   7.350
 9199POPC   C1B61183  36.338  28.261   6.450
 9199POPC   C2B61184  36.334  28.207   6.750
 9199POPC   C3B61185  36.338  28.275   7.050
 9199POPC   C4B61186  36.379  28.261   7.350
 9200POPC   NC361187  25.252  21.379   5.550
 9200POPC   PO461188  25.250  21.398   5.850
 9200POPC   GL161189  25.216  21.400   6.150
 9200POPC   GL261190  25.138  21.462   6.150
 9200POPC   C1A61191  25.292  21.391   6.450
 9200POPC   D2A61192  25.221  21.388   6.750
 9200POPC   C3A61193  25.233  21.428   7.050
 9200POPC   C4A61194  25.279  21.412   7.350
 9200POPC   C1B61195  25.022  21.525   6.450
 9200POPC   C2B61196  25.070  21.526   6.750
 9200POPC   C3B61197  25.053  21.451   7.050
 9200POPC   C4B61198  25.070  21.469   7.350
 9201POPC   NC361199   2.780  44.669   5.550
 9201POPC   PO461200   2.799  44.678   5.850
 9201POPC   GL161201   2.775  44.695   6.150
 9201POPC   GL261202   2.831  44.605   6.150
 9201POPC   C1A61203   2.788  44.706   6.450
 9201POPC   D2A61204   2.774  44.707   6.750
 9201POPC   C3A61205   2.756  44.615   7.050
 9201POPC   C4A61206   2.732  44.685   7.350
 9201POPC   C1B61207   2.934  44.495   6.450
 9201POPC   C2B61208   2.984  44.498   6.750
 9201POPC   C3B61209   3.016  44.489   7.050
 9201POPC   C4B61210   2.943  44.543   7.350
 9202POPC   NC361211  33.827   5.909   5.550
 9202POPC   PO461212  33.788   5.868   5.850
 9202POPC   GL161213  33.792   5.868   6.150
 9202POPC   GL261214  33.953   5.895   6.150
 9202POPC   C1A61215  33.816   5.893   6.450
 9202POPC   D2A61216  33.836   5.854   6.750
 9202POPC   C3A61217  33.761   5.906   7.050
 9202POPC   C4A61218  33.765   5.862   7.350
 9202POPC   C1B61219  34.058   5.930   6.450
 9202POPC   C2B61220  34.091   5.873   6.750
 9202POPC   C3B61221  34.061   5.897   7.050
 9202POPC   C4B61222  34.054   5.896   7.350
 9203POPC   NC361223  28.369  39.257   5.550
 9203POPC   PO461224  28.381  39.189   5.850
 9203POPC   GL161225  28.340  39.252   6.150
 9203POPC   GL261226  28.429  39.359   6.150
 9203POPC   C1A61227  28.335  39.207   6.450
 9203POPC   D2A61228  28.393  39.232   6.750
 9203POPC   C3A61229  28.394  39.269   7.050
 9203POPC   C4A61230  28.394  39.200   7.350
 9203POPC   C1B61231  28.505  39.477   6.450
 9203POPC   C2B61232  28.434  39.461   6.750
 9203POPC   C3B61233  28.461  39.452   7.050
 9203POPC   C4B61234  28.511  39.424   7.350
 9204POPC   NC361235  22.947   4.329   5.550
 9204POPC   PO461236  22.892   4.352   5.850
 9204POPC   GL161237  22.961   4.362   6.150
 9204POPC   GL261238  23.036   4.372   6.150
 9204POPC   C1A61239  22.963   4.322   6.450
 9204POPC   D2A61240  22.905   4.351   6.750
 9204POPC   C3A61241  22.918   4.306   7.050
 9204POPC   C4A61242  22.903   4.322   7.350
 9204POPC   C1B61243  23.166   4.496   6.450
 9204POPC   C2B61244  23.150   4.498   6.750
 9204POPC   C3B61245  23.107   4.435   7.050
 9204POPC   C4B61246  23.130   4.480   7.350
 9205POPC   NC361247  43.142  13.663   5.550
 9205POPC   PO461248  43.083  13.675   5.850
 9205POPC   GL161249  43.105  13.607   6.150
 9205POPC   GL261250  42.986  13.705   6.150
 9205POPC   C1A61251  43.142  13.650   6.450
 9205POPC   D2A61252  43.131  13.671   6.750
 9205POPC   C3A61253  43.140  13.597   7.050
 9205POPC   C4A61254  43.093  13.578   7.350
 9205POPC   C1B61255  42.860  13.722   6.450
 9205POPC   C2B61256  42.921  13.748   6.750
 9205POPC   C3B61257  42.897  13.751   7.050
 9205POPC   C4B61258  42.922  13.722   7.350
 9206POPC   NC361259   8.198  10.493   5.550
 9206POPC   PO461260   8.194  10.528   5.850
 9206POPC   GL161261   8.219  10.532   6.150
 9206POPC   GL261262   8.067  10.602   6.150
 9206POPC   C1A61263   8.148  10.500   6.450
 9206POPC   D2A61264   8.183  10.572   6.750
 9206POPC   C3A61265   8.197  10.569   7.050
 9206POPC   C4A61266   8.212  10.509   7.350
 9206POPC   C1B61267   8.014  10.722   6.450
 9206POPC   C2B61268   7.955  10.628   6.750
 9206POPC   C3B61269   7.976  10.692   7.050
 9206POPC   C4B61270   8.015  10.662   7.350
 9207POPC   NC361271  22.181  22.927   5.550
 9207POPC   PO461272  22.174  22.925   5.850
 9207POPC   GL161273  22.149  22.966   6.150
 9207POPC   GL261274  22.111  23.011   6.150
 9207POPC   C1A61275  22.137  22.920   6.450
 9207POPC   D2A61276  22.126  22.969   6.750
 9207POPC   C3A61277  22.204  22.967   7.050
 9207POPC   C4A61278  22.136  22.974   7.350
 9207POPC   C1B61279  22.019  23.117   6.450
 9207POPC   C2B61280  22.028  23.164   6.750
 9207POPC   C3B61281  22.056  23.138   7.050
 9207POPC   C4B61282  21.987  23.158   7.350
 9208POPC   NC361283   5.083  25.275   5.550
 9208POPC   PO461284   5.143  25.295   5.850
 9208POPC   GL161285   5.068  25.294   6.150
 9208POPC   GL261286   5.080  25.120   6.150
 9208POPC   C1A61287   5.081  25.257   6.450
 9208POPC   D2A61288   5.112  25.243   6.750
 9208POPC   C3A61289   5.102  25.230   7.050
 9208POPC   C4A61290   5.099  25.240   7.350
 9208POPC   C1B61291   5.080  25.037   6.450
 9208POPC   C2B61292   5.078  25.063   6.750
 9208POPC   C3B61293   5.028  24.994   7.050
 9208POPC   C4B61294   5.039  25.041   7.350
 9209POPC   NC361295  23.726  44.674   5.550
 9209POPC   PO461296  23.722  44.633   5.850
 9209POPC   GL161297  23.746  44.614   6.150
 9209POPC   GL261298  23.575  44.624   6.150
 9209POPC   C1A61299  23.692  44.687   6.450
 9209POPC   D2A61300  23.751  44.679   6.750
 9209POPC   C3A61301  23.730  44.628   7.050
 9209POPC   C4A61302  23.753  44.637   7.350
 9209POPC   C1B61303  23.463  44.688   6.450
 9209POPC   C2B61304  23.501  44.646   6.750
 9209POPC   C3B61305  23.501  44.623   7.050
 9209POPC   C4B61306  23.446  44.619   7.350
 9210POPC   NC361307  29.182  41.593   5.550
 9210POPC   PO461308  29.105  41.542   5.850
 9210POPC   GL161309  29.097  41.535   6.150
 9210POPC   GL261310  29.174  41.717   6.150
 9210POPC   C1A61311  29.182  41.572   6.450
 9210POPC   D2A61312  29.125  41.543   6.750
 9210POPC   C3A61313  29.151  41.536   7.050
 9210POPC   C4A61314  29.167  41.542   7.350
 9210POPC   C1B61315  29.198  41.845   6.450
 9210POPC   C2B61316  29.206  41.783   6.750
 9210POPC   C3B61317  29.225  41.793   7.050
 9210POPC   C4B61318  29.163  41.799   7.350
 9211POPC   NC361319  38.429  41.607   5.550
 9211POPC   PO461320  38.429  41.556   5.850
 9211POPC   GL161321  38.416  41.567   6.150
 9211POPC   GL261322  38.358  41.593   6.150
 9211POPC   C1A61323  38.422  41.604   6.450
 9211POPC   D2A61324  38.435  41.598   6.750
 9211POPC   C3A61325  38.424  41.538   7.050
 9211POPC   C4A61326  38.432  41.566   7.350
 9211POPC   C1B61327  38.213  41.677   6.450
 9211POPC   C2B61328  38.181  41.673   6.750
 9211POPC   C3B61329  38.206  41.636   7.050
 9211POPC   C4B61330  38.209  41.702   7.350
 9212POPC   NC361331  41.585  10.485   5.550
 9212POPC   PO461332  41.608  10.547   5.850
 9212POPC   GL161333  41.548  10.563   6.150
 9212POPC   GL261334  41.479  10.598   6.150
 9212POPC   C1A61335  41.534  10.550   6.450
 9212POPC   D2A61336  41.551  10.531   6.750
 9212POPC   C3A61337  41.538  10.543   7.050
 9212POPC   C4A61338  41.519  10.498   7.350
 9212POPC   C1B61339  41.319  10.654   6.450
 9212POPC   C2B61340  41.391  10.652   6.750
 9212POPC   C3B61341  41.317  10.679   7.050
 9212POPC   C4B61342  41.358  10.658   7.350
 9213POPC   NC361343  19.830  18.312   5.550
 9213POPC   PO461344  19.844  18.287   5.850
 9213POPC   GL161345  19.844  18.270   6.150
 9213POPC   GL261346  19.862  18.398   6.150
 9213POPC   C1A61347  19.861  18.324   6.450
 9213POPC   D2A61348  19.862  18.234   6.750
 9213POPC   C3A61349  19.792  18.246   7.050
 9213POPC   C4A61350  19.811  18.308   7.350
 9213POPC   C1B61351  19.878  18.550   6.450
 9213POPC   C2B61352  19.843  18.484   6.750
 9213POPC   C3B61353  19.847  18.503   7.050
 9213POPC   C4B61354  19.858  18.571   7.350
 9214POPC   NC361355  42.326  20.616   5.550
 9214POPC   PO461356  42.371  20.590   5.850
 9214POPC   GL161357  42.323  20.608   6.150
 9214POPC   GL261358  42.424  20.587   6.150
 9214POPC   C1A61359  42.296  20.656   6.450
 9214POPC   D2A61360  42.326  20.576   6.750
 9214POPC   C3A61361  42.384  20.593   7.050
 9214POPC   C4A61362  42.377  20.579   7.350
 9214POPC   C1B61363  42.588  20.580   6.450
 9214POPC   C2B61364  42.604  20.583   6.750
 9214POPC   C3B61365  42.613  20.592   7.050
 9214POPC   C4B61366  42.577  20.569   7.350
 9215POPC   NC361367  44.684   9.006   5.550
 9215POPC   PO461368  44.633   8.938   5.850
 9215POPC   GL161369  44.621   9.012   6.150
 9215POPC   GL261370  44.573   8.871   6.150
 9215POPC   C1A61371  44.638   8.997   6.450
 9215POPC   D2A61372  44.612   8.988   6.750
 9215POPC   C3A61373  44.703   8.935   7.050
 9215POPC   C4A61374  44.701   8.969   7.350
 9215POPC   C1B61375  44.513   8.717   6.450
 9215POPC   C2B61376  44.518   8.776   6.750
 9215POPC   C3B61377  44.599   8.733   7.050
 9215POPC   C4B61378  44.576   8.755   7.350
 9216POPC   NC361379  40.792  23.714   5.550
 9216POPC   PO461380  40.773  23.732   5.850
 9216POPC   GL161381  40.817  23.727   6.150
 9216POPC   GL261382  40.908  23.672   6.150
 9216POPC   C1A61383  40.762  23.733   6.450
 9216POPC   D2A61384  40.797  23.740   6.750
 9216POPC   C3A61385  40.795  23.680   7.050
 9216POPC   C4A61386  40.737  23.722   7.350
 9216POPC   C1B61387  41.014  23.593   6.450
 9216POPC   C2B61388  40.992  23.650   6.750
 9216POPC   C3B61389  40.975  23.589   7.050
 9216POPC   C4B61390  41.005  23.644   7.350
 9217POPC   NC361391  43.866  36.084   5.550
 9217POPC   PO461392  43.906  36.099   5.850
 9217POPC   GL161393  43.867  36.141   6.150
 9217POPC   GL261394  43.771  36.025   6.150
 9217POPC   C1A61395  43.934  36.173   6.450
 9217POPC   D2A61396  43.838  36.104   6.750
 9217POPC   C3A61397  43.887  36.111   7.050
 9217POPC   C4A61398  43.880  36.103   7.350
 9217POPC   C1B61399  43.697  36.010   6.450
 9217POPC   C2B61400  43.715  36.039   6.750
 9217POPC   C3B61401  43.643  36.037   7.050
 9217POPC   C4B61402  43.695  35.999   7.350
 9218POPC   NC361403  40.044  36.084   5.550
 9218POPC   PO461404  39.987  36.094   5.850
 9218POPC   GL161405  40.005  36.153   6.150
 9218POPC   GL261406  39.903  36.231   6.150
 9218POPC   C1A61407  40.056  36.087   6.450
 9218POPC   D2A61408  40.048  36.163   6.750
 9218POPC   C3A61409  40.042  36.089   7.050
 9218POPC   C4A61410  40.037  36.133   7.350
 9218POPC   C1B61411  39.761  36.264   6.450
 9218POPC   C2B61412  39.816  36.234   6.750
 9218POPC   C3B61413  39.777  36.302   7.050
 9218POPC   C4B61414  39.787  36.319   7.350
 9219POPC   NC361415  12.123   2.746   5.550
 9219POPC   PO461416  12.063   2.739   5.850
 9219POPC   GL161417  12.053   2.775   6.150
 9219POPC   GL261418  12.145   2.616   6.150
 9219POPC   C1A61419  12.105   2.782   6.450
 9219POPC   D2A61420  12.035   2.802   6.750
 9219POPC   C3A61421  12.110   2.738   7.050
 9219POPC   C4A61422  12.073   2.805   7.350
 9219POPC   C1B61423  12.207   2.600   6.450
 9219POPC   C2B61424  12.252   2.569   6.750
 9219POPC   C3B61425  12.184   2.554   7.050
 9219POPC   C4B61426  12.160   2.568   7.350
 9220POPC   NC361427  27.597   1.261   5.550
 9220POPC   PO461428  27.555   1.164   5.850
 9220POPC   GL161429  27.609   1.244   6.150
 9220POPC   GL261430  27.523   1.277   6.150
 9220POPC   C1A61431  27.638   1.208   6.450
 9220POPC   D2A61432  27.552   1.239   6.750
 9220POPC   C3A61433  27.582   1.263   7.050
 9220POPC   C4A61434  27.613   1.212   7.350
 9220POPC   C1B61435  27.392   1.266   6.450
 9220POPC   C2B61436  27.327   1.326   6.750
 9220POPC   C3B61437  27.389   1.283   7.050
 9220POPC   C4B61438  27.353   1.264   7.350
 9221POPC   NC361439  10.531  40.753   5.550
 9221POPC   PO461440  10.508  40.775   5.850
 9221POPC   GL161441  10.555  40.808   6.150
 9221POPC   GL261442  10.390  40.782   6.150
 9221POPC   C1A61443  10.481  40.757   6.450
 9221POPC   D2A61444  10.565  40.744   6.750
 9221POPC   C3A61445  10.534  40.800   7.050
 9221POPC   C4A61446  10.574  40.801   7.350
 9221POPC   C1B61447  10.262  40.757   6.450
 9221POPC   C2B61448  10.332  40.732   6.750
 9221POPC   C3B61449  10.298  40.707   7.050
 9221POPC   C4B61450  10.247  40.705   7.350
 9222POPC   NC361451  17.556  36.101   5.550
 9222POPC   PO461452  17.526  36.142   5.850
 9222POPC   GL161453  17.502  36.138   6.150
 9222POPC   GL261454  17.602  36.035   6.150
 9222POPC   C1A61455  17.467  36.137   6.450
 9222POPC   D2A61456  17.506  36.162   6.750
 9222POPC   C3A61457  17.514  36.161   7.050
 9222POPC   C4A61458  17.509  36.121   7.350
 9222POPC   C1B61459  17.665  35.885   6.450
 9222POPC   C2B61460  17.701  35.955   6.750
 9222POPC   C3B61461  17.665  35.893   7.050
 9222POPC   C4B61462  17.655  35.916   7.350
 9223POPC   NC361463  38.408  37.671   5.550
 9223POPC   PO461464  38.419  37.697   5.850
 9223POPC   GL161465  38.464  37.698   6.150
 9223POPC   GL261466  38.364  37.710   6.150
 9223POPC   C1A61467  38.415  37.665   6.450
 9223POPC   D2A61468  38.469  37.681   6.750
 9223POPC   C3A61469  38.441  37.638   7.050
 9223POPC   C4A61470  38.407  37.655   7.350
 9223POPC   C1B61471  38.173  37.769   6.450
 9223POPC   C2B61472  38.208  37.689   6.750
 9223POPC   C3B61473  38.213  37.771   7.050
 9223POPC   C4B61474  38.169  37.732   7.350
 9224POPC   NC361475  20.610  22.964   5.550
 9224POPC   PO461476  20.642  22.890   5.850
 9224POPC   GL161477  20.585  22.907   6.150
 9224POPC   GL261478  20.494  22.840   6.150
 9224POPC   C1A61479  20.596  22.920   6.450
 9224POPC   D2A61480  20.655  22.916   6.750
 9224POPC   C3A61481  20.658  22.983   7.050
 9224POPC   C4A61482  20.561  22.976   7.350
 9224POPC   C1B61483  20.348  22.794   6.450
 9224POPC   C2B61484  20.374  22.770   6.750
 9224POPC   C3B61485  20.426  22.808   7.050
 9224POPC   C4B61486  20.437  22.813   7.350
 9225POPC   NC361487  10.490  44.658   5.550
 9225POPC   PO461488  10.495  44.625   5.850
 9225POPC   GL161489  10.529  44.686   6.150
 9225POPC   GL261490  10.600  44.688   6.150
 9225POPC   C1A61491  10.525  44.675   6.450
 9225POPC   D2A61492  10.496  44.622   6.750
 9225POPC   C3A61493  10.538  44.616   7.050
 9225POPC   C4A61494  10.479  44.668   7.350
 9225POPC   C1B61495  10.764  44.769   6.450
 9225POPC   C2B61496  10.714  44.762   6.750
 9225POPC   C3B61497  10.779  44.801   7.050
 9225POPC   C4B61498  10.765  44.805   7.350
 9226POPC   NC361499   7.371  38.503   5.550
 9226POPC   PO461500   7.441  38.471   5.850
 9226POPC   GL161501   7.409  38.417   6.150
 9226POPC   GL261502   7.315  38.599   6.150
 9226POPC   C1A61503   7.431  38.470   6.450
 9226POPC   D2A61504   7.454  38.435   6.750
 9226POPC   C3A61505   7.459  38.426   7.050
 9226POPC   C4A61506   7.378  38.498   7.350
 9226POPC   C1B61507   7.296  38.690   6.450
 9226POPC   C2B61508   7.313  38.645   6.750
 9226POPC   C3B61509   7.329  38.695   7.050
 9226POPC   C4B61510   7.336  38.656   7.350
 9227POPC   NC361511  12.082   8.207   5.550
 9227POPC   PO461512  12.048   8.212   5.850
 9227POPC   GL161513  12.043   8.188   6.150
 9227POPC   GL261514  12.206   8.092   6.150
 9227POPC   C1A61515  12.058   8.230   6.450
 9227POPC   D2A61516  12.079   8.210   6.750
 9227POPC   C3A61517  12.094   8.206   7.050
 9227POPC   C4A61518  12.072   8.206   7.350
 9227POPC   C1B61519  12.231   8.053   6.450
 9227POPC   C2B61520  12.228   7.988   6.750
 9227POPC   C3B61521  12.239   7.970   7.050
 9227POPC   C4B61522  12.225   8.016   7.350
 9228POPC   NC361523  15.202  35.359   5.550
 9228POPC   PO461524  15.203  35.330   5.850
 9228POPC   GL161525  15.151  35.387   6.150
 9228POPC   GL261526  15.018  35.401   6.150
 9228POPC   C1A61527  15.217  35.364   6.450
 9228POPC   D2A61528  15.175  35.325   6.750
 9228POPC   C3A61529  15.225  35.313   7.050
 9228POPC   C4A61530  15.221  35.370   7.350
 9228POPC   C1B61531  14.968  35.420   6.450
 9228POPC   C2B61532  14.892  35.344   6.750
 9228POPC   C3B61533  14.939  35.414   7.050
 9228POPC   C4B61534  14.894  35.347   7.350
 9229POPC   NC361535   2.736  15.228   5.550
 9229POPC   PO461536   2.797  15.164   5.850
 9229POPC   GL161537   2.720  15.170   6.150
 9229POPC   GL261538   2.853  15.117   6.150
 9229POPC   C1A61539   2.811  15.177   6.450
 9229POPC   D2A61540   2.814  15.180   6.750
 9229POPC   C3A61541   2.749  15.154   7.050
 9229POPC   C4A61542   2.736  15.221   7.350
 9229POPC   C1B61543   2.918  14.958   6.450
 9229POPC   C2B61544   2.970  15.050   6.750
 9229POPC   C3B61545   2.993  14.964   7.050
 9229POPC   C4B61546   2.975  14.995   7.350
 9230POPC   NC361547   9.767   9.780   5.550
 9230POPC   PO461548   9.773   9.791   5.850
 9230POPC   GL161549   9.793   9.791   6.150
 9230POPC   GL261550   9.811   9.649   6.150
 9230POPC   C1A61551   9.793   9.771   6.450
 9230POPC   D2A61552   9.760   9.749   6.750
 9230POPC   C3A61553   9.750   9.766   7.050
 9230POPC   C4A61554   9.796   9.790   7.350
 9230POPC   C1B61555   9.810   9.518   6.450
 9230POPC   C2B61556   9.793   9.532   6.750
 9230POPC   C3B61557   9.758   9.535   7.050
 9230POPC   C4B61558   9.750   9.550   7.350
 9231POPC   NC361559   1.235   8.220   5.550
 9231POPC   PO461560   1.176   8.203   5.850
 9231POPC   GL161561   1.231   8.149   6.150
 9231POPC   GL261562   1.137   8.087   6.150
 9231POPC   C1A61563   1.232   8.212   6.450
 9231POPC   D2A61564   1.169   8.180   6.750
 9231POPC   C3A61565   1.244   8.182   7.050
 9231POPC   C4A61566   1.212   8.225   7.350
 9231POPC   C1B61567   1.137   7.935   6.450
 9231POPC   C2B61568   1.109   7.977   6.750
 9231POPC   C3B61569   1.070   7.963   7.050
 9231POPC   C4B61570   1.143   7.955   7.350
 9232POPC   NC361571   5.077  21.428   5.550
 9232POPC   PO461572   5.129  21.371   5.850
 9232POPC   GL161573   5.114  21.377   6.150
 9232POPC   GL261574   5.126  21.215   6.150
 9232POPC   C1A61575   5.062  21.356   6.450
 9232POPC   D2A61576   5.110  21.371   6.750
 9232POPC   C3A61577   5.124  21.414   7.050
 9232POPC   C4A61578   5.074  21.372   7.350
 9232POPC   C1B61579   5.129  21.088   6.450
 9232POPC   C2B61580   5.165  21.146   6.750
 9232POPC   C3B61581   5.159  21.186   7.050
 9232POPC   C4B61582   5.095  21.175   7.350
 9233POPC   NC361583   1.983  17.465   5.550
 9233POPC   PO461584   1.991  17.500   5.850
 9233POPC   GL161585   1.985  17.549   6.150
 9233POPC   GL261586   2.053  17.408   6.150
 9233POPC   C1A61587   1.954  17.482   6.450
 9233POPC   D2A61588   1.995  17.478   6.750
 9233POPC   C3A61589   1.993  17.489   7.050
 9233POPC   C4A61590   1.969  17.473   7.350
 9233POPC   C1B61591   2.107  17.288   6.450
 9233POPC   C2B61592   2.070  17.324   6.750
 9233POPC   C3B61593   2.123  17.313   7.050
 9233POPC   C4B61594   2.055  17.318   7.350
 9234POPC   NC361595  21.380  37.721   5.550
 9234POPC   PO461596  21.351  37.695   5.850
 9234POPC   GL161597  21.392  37.651   6.150
 9234POPC   GL261598  21.441  37.832   6.150
 9234POPC   C1A61599  21.367  37.689   6.450
 9234POPC   D2A61600  21.346  37.687   6.750
 9234POPC   C3A61601  21.362  37.723   7.050
 9234POPC   C4A61602  21.367  37.699   7.350
 9234POPC   C1B61603  21.557  37.902   6.450
 9234POPC   C2B61604  21.481  37.874   6.750
 9234POPC   C3B61605  21.526  37.879   7.050
 9234POPC   C4B61606  21.502  37.864   7.350
 9235POPC   NC361607  11.293  19.866   5.550
 9235POPC   PO461608  11.304  19.789   5.850
 9235POPC   GL161609  11.345  19.812   6.150
 9235POPC   GL261610  11.391  19.977   6.150
 9235POPC   C1A61611  11.332  19.829   6.450
 9235POPC   D2A61612  11.312  19.810   6.750
 9235POPC   C3A61613  11.284  19.792   7.050
 9235POPC   C4A61614  11.264  19.827   7.350
 9235POPC   C1B61615  11.441  20.030   6.450
 9235POPC   C2B61616  11.421  20.081   6.750
 9235POPC   C3B61617  11.442  20.042   7.050
 9235POPC   C4B61618  11.436  20.028   7.350
 9236POPC   NC361619  20.622  43.865   5.550
 9236POPC   PO461620  20.630  43.870   5.850
 9236POPC   GL161621  20.633  43.851   6.150
 9236POPC   GL261622  20.732  44.016   6.150
 9236POPC   C1A61623  20.578  43.847   6.450
 9236POPC   D2A61624  20.608  43.895   6.750
 9236POPC   C3A61625  20.593  43.842   7.050
 9236POPC   C4A61626  20.645  43.913   7.350
 9236POPC   C1B61627  20.743  44.056   6.450
 9236POPC   C2B61628  20.721  44.108   6.750
 9236POPC   C3B61629  20.779  44.097   7.050
 9236POPC   C4B61630  20.777  44.136   7.350
 9237POPC   NC361631  43.868  43.094   5.550
 9237POPC   PO461632  43.870  43.061   5.850
 9237POPC   GL161633  43.905  43.135   6.150
 9237POPC   GL261634  43.863  43.008   6.150
 9237POPC   C1A61635  43.880  43.122   6.450
 9237POPC   D2A61636  43.853  43.123   6.750
 9237POPC   C3A61637  43.865  43.072   7.050
 9237POPC   C4A61638  43.868  43.063   7.350
 9237POPC   C1B61639  43.890  42.842   6.450
 9237POPC   C2B61640  43.855  42.856   6.750
 9237POPC   C3B61641  43.927  42.836   7.050
 9237POPC   C4B61642  43.910  42.816   7.350
 9238POPC   NC361643   5.073   9.709   5.550
 9238POPC   PO461644   5.055   9.739   5.850
 9238POPC   GL161645   5.051   9.700   6.150
 9238POPC   GL261646   5.099   9.579   6.150
 9238POPC   C1A61647   5.067   9.717   6.450
 9238POPC   D2A61648   5.140   9.732   6.750
 9238POPC   C3A61649   5.057   9.764   7.050
 9238POPC   C4A61650   5.120   9.764   7.350
 9238POPC   C1B61651   5.095   9.491   6.450
 9238POPC   C2B61652   5.073   9.489   6.750
 9238POPC   C3B61653   5.059   9.460   7.050
 9238POPC   C4B61654   5.009   9.486   7.350
 9239POPC   NC361655  31.512  40.753   5.550
 9239POPC   PO461656  31.514  40.812   5.850
 9239POPC   GL161657  31.481  40.736   6.150
 9239POPC   GL261658  31.557  40.864   6.150
 9239POPC   C1A61659  31.462  40.802   6.450
 9239POPC   D2A61660  31.495  40.739   6.750
 9239POPC   C3A61661  31.447  40.813   7.050
 9239POPC   C4A61662  31.485  40.800   7.350
 9239POPC   C1B61663  31.624  41.009   6.450
 9239POPC   C2B61664  31.653  41.012   6.750
 9239POPC   C3B61665  31.619  40.961   7.050
 9239POPC   C4B61666  31.598  41.005   7.350
 9240POPC   NC361667   3.496  43.901   5.550
 9240POPC   PO461668   3.527  43.838   5.850
 9240POPC   GL161669   3.500  43.877   6.150
 9240POPC   GL261670   3.696  43.860   6.150
 9240POPC   C1A61671   3.523  43.887   6.450
 9240POPC   D2A61672   3.552  43.851   6.750
 9240POPC   C3A61673   3.591  43.911   7.050
 9240POPC   C4A61674   3.518  43.850   7.350
 9240POPC   C1B61675   3.834  43.905   6.450
 9240POPC   C2B61676   3.791  43.961   6.750
 9240POPC   C3B61677   3.818  43.964   7.050
 9240POPC   C4B61678   3.779  43.950   7.350
 9241POPC   NC361679   1.983  30.698   5.550
 9241POPC   PO461680   2.031  30.709   5.850
 9241POPC   GL161681   2.038  30.732   6.150
 9241POPC   GL261682   2.042  30.857   6.150
 9241POPC   C1A61683   1.968  30.678   6.450
 9241POPC   D2A61684   2.029  30.715   6.750
 9241POPC   C3A61685   1.945  30.700   7.050
 9241POPC   C4A61686   1.966  30.694   7.350
 9241POPC   C1B61687   2.086  30.949   6.450
 9241POPC   C2B61688   2.059  30.932   6.750
 9241POPC   C3B61689   2.069  30.941   7.050
 9241POPC   C4B61690   2.101  30.897   7.350
 9242POPC   NC361691   4.366  18.295   5.550
 9242POPC   PO461692   4.306  18.312   5.850
 9242POPC   GL161693   4.325  18.239   6.150
 9242POPC   GL261694   4.421  18.202   6.150
 9242POPC   C1A61695   4.332  18.258   6.450
 9242POPC   D2A61696   4.327  18.254   6.750
 9242POPC   C3A61697   4.297  18.261   7.050
 9242POPC   C4A61698   4.315  18.302   7.350
 9242POPC   C1B61699   4.600  18.252   6.450
 9242POPC   C2B61700   4.572  18.157   6.750
 9242POPC   C3B61701   4.520  18.209   7.050
 9242POPC   C4B61702   4.519  18.198   7.350
 9243POPC   NC361703  12.895  40.821   5.550
 9243POPC   PO461704  12.849  40.831   5.850
 9243POPC   GL161705  12.850  40.805   6.150
 9243POPC   GL261706  12.961  40.702   6.150
 9243POPC   C1A61707  12.808  40.779   6.450
 9243POPC   D2A61708  12.825  40.828   6.750
 9243POPC   C3A61709  12.878  40.763   7.050
 9243POPC   C4A61710  12.879  40.742   7.350
 9243POPC   C1B61711  13.055  40.633   6.450
 9243POPC   C2B61712  13.007  40.567   6.750
 9243POPC   C3B61713  12.989  40.546   7.050
 9243POPC   C4B61714  13.023  40.599   7.350
 9244POPC   NC361715   8.944  38.445   5.550
 9244POPC   PO461716   9.021  38.503   5.850
 9244POPC   GL161717   8.979  38.440   6.150
 9244POPC   GL261718   8.962  38.309   6.150
 9244POPC   C1A61719   8.965  38.417   6.450
 9244POPC   D2A61720   8.938  38.472   6.750
 9244POPC   C3A61721   8.980  38.463   7.050
 9244POPC   C4A61722   9.011  38.437   7.350
 9244POPC   C1B61723   8.831  38.236   6.450
 9244POPC   C2B61724   8.888  38.243   6.750
 9244POPC   C3B61725   8.864  38.196   7.050
 9244POPC   C4B61726   8.842  38.205   7.350
 9245POPC   NC361727   8.194  21.400   5.550
 9245POPC   PO461728   8.148  21.338   5.850
 9245POPC   GL161729   8.222  21.406   6.150
 9245POPC   GL261730   8.097  21.347   6.150
 9245POPC   C1A61731   8.241  21.367   6.450
 9245POPC   D2A61732   8.230  21.360   6.750
 9245POPC   C3A61733   8.190  21.417   7.050
 9245POPC   C4A61734   8.171  21.405   7.350
 9245POPC   C1B61735   7.973  21.316   6.450
 9245POPC   C2B61736   7.992  21.308   6.750
 9245POPC   C3B61737   7.952  21.316   7.050
 9245POPC   C4B61738   7.933  21.306   7.350
 9246POPC   NC361739  42.295  12.111   5.550
 9246POPC   PO461740  42.374  12.120   5.850
 9246POPC   GL161741  42.323  12.050   6.150
 9246POPC   GL261742  42.325  11.912   6.150
 9246POPC   C1A61743  42.332  12.098   6.450
 9246POPC   D2A61744  42.329  12.029   6.750
 9246POPC   C3A61745  42.325  12.117   7.050
 9246POPC   C4A61746  42.296  12.123   7.350
 9246POPC   C1B61747  42.385  11.809   6.450
 9246POPC   C2B61748  42.396  11.850   6.750
 9246POPC   C3B61749  42.427  11.812   7.050
 9246POPC   C4B61750  42.376  11.806   7.350
 9247POPC   NC361751   8.192  32.235   5.550
 9247POPC   PO461752   8.217  32.257   5.850
 9247POPC   GL161753   8.197  32.261   6.150
 9247POPC   GL261754   8.291  32.209   6.150
 9247POPC   C1A61755   8.226  32.280   6.450
 9247POPC   D2A61756   8.152  32.268   6.750
 9247POPC   C3A61757   8.236  32.235   7.050
 9247POPC   C4A61758   8.200  32.203   7.350
 9247POPC   C1B61759   8.432  32.180   6.450
 9247POPC   C2B61760   8.450  32.128   6.750
 9247POPC   C3B61761   8.428  32.143   7.050
 9247POPC   C4B61762   8.394  32.134   7.350
 9248POPC   NC361763  43.095  21.389   5.550
 9248POPC   PO461764  43.121  21.398   5.850
 9248POPC   GL161765  43.071  21.395   6.150
 9248POPC   GL261766  43.240  21.309   6.150
 9248POPC   C1A61767  43.147  21.408   6.450
 9248POPC   D2A61768  43.106  21.372   6.750
 9248POPC   C3A61769  43.094  21.429   7.050
 9248POPC   C4A61770  43.146  21.371   7.350
 9248POPC   C1B61771  43.358  21.229   6.450
 9248POPC   C2B61772  43.316  21.289   6.750
 9248POPC   C3B61773  43.365  21.208   7.050
 9248POPC   C4B61774  43.324  21.241   7.350
 9249POPC   NC361775   0.410   7.430   5.550
 9249POPC   PO461776   0.398   7.441   5.850
 9249POPC   GL161777   0.427   7.407   6.150
 9249POPC   GL261778   0.589   7.495   6.150
 9249POPC   C1A61779   0.440   7.420   6.450
 9249POPC   D2A61780   0.462   7.412   6.750
 9249POPC   C3A61781   0.408   7.449   7.050
 9249POPC   C4A61782   0.396   7.439   7.350
 9249POPC   C1B61783   0.678   7.532   6.450
 9249POPC   C2B61784   0.711   7.478   6.750
 9249POPC   C3B61785   0.701   7.498   7.050
 9249POPC   C4B61786   0.656   7.567   7.350
 9250POPC   NC361787  44.686  13.645   5.550
 9250POPC   PO461788  44.678  13.660   5.850
 9250POPC   GL161789  44.676  13.674   6.150
 9250POPC   GL261790  44.756  13.595   6.150
 9250POPC   C1A61791  44.629  13.595   6.450
 9250POPC   D2A61792  44.711  13.587   6.750
 9250POPC   C3A61793  44.684  13.603   7.050
 9250POPC   C4A61794  44.704  13.672   7.350
 9250POPC   C1B61795  44.926  13.517   6.450
 9250POPC   C2B61796  44.927  13.529   6.750
 9250POPC   C3B61797  44.932  13.542   7.050
 9250POPC   C4B61798  44.860  13.501   7.350
 9251POPC   NC361799   6.667  23.714   5.550
 9251POPC   PO461800   6.655  23.722   5.850
 9251POPC   GL161801   6.624  23.695   6.150
 9251POPC   GL261802   6.501  23.730   6.150
 9251POPC   C1A61803   6.636  23.722   6.450
 9251POPC   D2A61804   6.617  23.690   6.750
 9251POPC   C3A61805   6.598  23.751   7.050
 9251POPC   C4A61806   6.639  23.670   7.350
 9251POPC   C1B61807   6.468  23.859   6.450
 9251POPC   C2B61808   6.421  23.802   6.750
 9251POPC   C3B61809   6.396  23.829   7.050
 9251POPC   C4B61810   6.434  23.811   7.350
 9252POPC   NC361811   5.095  42.334   5.550
 9252POPC   PO461812   5.125  42.352   5.850
 9252POPC   GL161813   5.131  42.359   6.150
 9252POPC   GL261814   5.079  42.403   6.150
 9252POPC   C1A61815   5.110  42.363   6.450
 9252POPC   D2A61816   5.062  42.344   6.750
 9252POPC   C3A61817   5.061  42.384   7.050
 9252POPC   C4A61818   5.113  42.361   7.350
 9252POPC   C1B61819   5.033  42.553   6.450
 9252POPC   C2B61820   4.970  42.540   6.750
 9252POPC   C3B61821   4.995  42.535   7.050
 9252POPC   C4B61822   4.995  42.594   7.350
 9253POPC   NC361823  40.784  43.070   5.550
 9253POPC   PO461824  40.795  43.064   5.850
 9253POPC   GL161825  40.740  43.061   6.150
 9253POPC   GL261826  40.666  43.025   6.150
 9253POPC   C1A61827  40.792  43.075   6.450
 9253POPC   D2A61828  40.758  43.106   6.750
 9253POPC   C3A61829  40.812  43.104   7.050
 9253POPC   C4A61830  40.792  43.087   7.350
 9253POPC   C1B61831  40.612  43.008   6.450
 9253POPC   C2B61832  40.601  43.017   6.750
 9253POPC   C3B61833  40.531  42.982   7.050
 9253POPC   C4B61834  40.582  42.947   7.350
 9254POPC   NC361835  43.100  11.275   5.550
 9254POPC   PO461836  43.146  11.290   5.850
 9254POPC   GL161837  43.092  11.285   6.150
 9254POPC   GL261838  43.029  11.266   6.150
 9254POPC   C1A61839  43.084  11.314   6.450
 9254POPC   D2A61840  43.073  11.294   6.750
 9254POPC   C3A61841  43.063  11.312   7.050
 9254POPC   C4A61842  43.109  11.309   7.350
 9254POPC   C1B61843  42.942  11.113   6.450
 9254POPC   C2B61844  42.965  11.106   6.750
 9254POPC   C3B61845  42.937  11.093   7.050
 9254POPC   C4B61846  42.963  11.152   7.350
 9255POPC   NC361847  15.184  43.919   5.550
 9255POPC   PO461848  15.178  43.874   5.850
 9255POPC   GL161849  15.168  43.863   6.150
 9255POPC   GL261850  15.165  43.800   6.150
 9255POPC   C1A61851  15.176  43.880   6.450
 9255POPC   D2A61852  15.224  43.907   6.750
 9255POPC   C3A61853  15.136  43.933   7.050
 9255POPC   C4A61854  15.146  43.922   7.350
 9255POPC   C1B61855  15.174  43.632   6.450
 9255POPC   C2B61856  15.185  43.608   6.750
 9255POPC   C3B61857  15.184  43.658   7.050
 9255POPC   C4B61858  15.224  43.609   7.350
 9256POPC   NC361859  12.811   2.787   5.550
 9256POPC   PO461860  12.823   2.756   5.850
 9256POPC   GL161861  12.874   2.719   6.150
 9256POPC   GL261862  12.932   2.620   6.150
 9256POPC   C1A61863  12.889   2.733   6.450
 9256POPC   D2A61864  12.871   2.748   6.750
 9256POPC   C3A61865  12.891   2.769   7.050
 9256POPC   C4A61866  12.885   2.719   7.350
 9256POPC   C1B61867  13.005   2.537   6.450
 9256POPC   C2B61868  12.987   2.583   6.750
 9256POPC   C3B61869  12.943   2.506   7.050
 9256POPC   C4B61870  13.001   2.565   7.350
 9257POPC   NC361871  40.037   3.542   5.550
 9257POPC   PO461872  40.012   3.521   5.850
 9257POPC   GL161873  39.970   3.554   6.150
 9257POPC   GL261874  40.042   3.614   6.150
 9257POPC   C1A61875  40.041   3.580   6.450
 9257POPC   D2A61876  40.021   3.543   6.750
 9257POPC   C3A61877  40.002   3.514   7.050
 9257POPC   C4A61878  39.993   3.585   7.350
 9257POPC   C1B61879  40.177   3.724   6.450
 9257POPC   C2B61880  40.167   3.778   6.750
 9257POPC   C3B61881  40.195   3.699   7.050
 9257POPC   C4B61882  40.117   3.777   7.350
 9258POPC   NC361883   6.658  10.540   5.550
 9258POPC   PO461884   6.683  10.563   5.850
 9258POPC   GL161885   6.600  10.506   6.150
 9258POPC   GL261886   6.583  10.385   6.150
 9258POPC   C1A61887   6.689  10.483   6.450
 9258POPC   D2A61888   6.600  10.571   6.750
 9258POPC   C3A61889   6.659  10.556   7.050
 9258POPC   C4A61890   6.634  10.554   7.350
 9258POPC   C1B61891   6.518  10.275   6.450
 9258POPC   C2B61892   6.557  10.305   6.750
 9258POPC   C3B61893   6.551  10.352   7.050
 9258POPC   C4B61894   6.516  10.271   7.350
 9259POPC   NC361895  13.612  15.221   5.550
 9259POPC   PO461896  13.643  15.179   5.850
 9259POPC   GL161897  13.669  15.138   6.150
 9259POPC   GL261898  13.552  15.284   6.150
 9259POPC   C1A61899  13.619  15.158   6.450
 9259POPC   D2A61900  13.647  15.130   6.750
 9259POPC   C3A61901  13.584  15.182   7.050
 9259POPC   C4A61902  13.671  15.173   7.350
 9259POPC   C1B61903  13.480  15.376   6.450
 9259POPC   C2B61904  13.472  15.345   6.750
 9259POPC   C3B61905  13.451  15.395   7.050
 9259POPC   C4B61906  13.423  15.376   7.350
 9260POPC   NC361907   7.454  30.664   5.550
 9260POPC   PO461908   7.459  30.651   5.850
 9260POPC   GL161909   7.397  30.722   6.150
 9260POPC   GL261910   7.530  30.597   6.150
 9260POPC   C1A61911   7.450  30.667   6.450
 9260POPC   D2A61912   7.379  30.673   6.750
 9260POPC   C3A61913   7.469  30.685   7.050
 9260POPC   C4A61914   7.465  30.653   7.350
 9260POPC   C1B61915   7.534  30.498   6.450
 9260POPC   C2B61916   7.556  30.472   6.750
 9260POPC   C3B61917   7.531  30.469   7.050
 9260POPC   C4B61918   7.603  30.514   7.350
 9261POPC   NC361919   9.773  19.081   5.550
 9261POPC   PO461920   9.747  19.073   5.850
 9261POPC   GL161921   9.744  19.092   6.150
 9261POPC   GL261922   9.624  19.018   6.150
 9261POPC   C1A61923   9.777  19.055   6.450
 9261POPC   D2A61924   9.729  19.095   6.750
 9261POPC   C3A61925   9.728  19.068   7.050
 9261POPC   C4A61926   9.778  19.069   7.350
 9261POPC   C1B61927   9.540  18.982   6.450
 9261POPC   C2B61928   9.501  18.944   6.750
 9261POPC   C3B61929   9.500  18.951   7.050
 9261POPC   C4B61930   9.495  18.955   7.350
 9262POPC   NC361931  22.959  34.586   5.550
 9262POPC   PO461932  22.981  34.542   5.850
 9262POPC   GL161933  22.950  34.620   6.150
 9262POPC   GL261934  22.943  34.409   6.150
 9262POPC   C1A61935  22.975  34.569   6.450
 9262POPC   D2A61936  22.982  34.546   6.750
 9262POPC   C3A61937  22.977  34.536   7.050
 9262POPC   C4A61938  22.892  34.544   7.350
 9262POPC   C1B61939  22.963  34.336   6.450
 9262POPC   C2B61940  23.019  34.289   6.750
 9262POPC   C3B61941  22.949  34.354   7.050
 9262POPC   C4B61942  22.954  34.294   7.350
 9263POPC   NC361943   2.022   4.358   5.550
 9263POPC   PO461944   1.970   4.307   5.850
 9263POPC   GL161945   1.947   4.295   6.150
 9263POPC   GL261946   1.946   4.235   6.150
 9263POPC   C1A61947   2.002   4.270   6.450
 9263POPC   D2A61948   1.996   4.289   6.750
 9263POPC   C3A61949   1.954   4.316   7.050
 9263POPC   C4A61950   2.034   4.295   7.350
 9263POPC   C1B61951   1.792   4.071   6.450
 9263POPC   C2B61952   1.873   4.150   6.750
 9263POPC   C3B61953   1.787   4.166   7.050
 9263POPC   C4B61954   1.842   4.168   7.350
 9264POPC   NC361955  31.428   1.225   5.550
 9264POPC   PO461956  31.489   1.219   5.850
 9264POPC   GL161957  31.517   1.238   6.150
 9264POPC   GL261958  31.560   1.341   6.150
 9264POPC   C1A61959  31.445   1.204   6.450
 9264POPC   D2A61960  31.497   1.194   6.750
 9264POPC   C3A61961  31.448   1.220   7.050
 9264POPC   C4A61962  31.512   1.217   7.350
 9264POPC   C1B61963  31.647   1.415   6.450
 9264POPC   C2B61964  31.565   1.418   6.750
 9264POPC   C3B61965  31.619   1.478   7.050
 9264POPC   C4B61966  31.647   1.400   7.350
 9265POPC   NC361967   5.132   2.755   5.550
 9265POPC   PO461968   5.068   2.760   5.850
 9265POPC   GL161969   5.090   2.791   6.150
 9265POPC   GL261970   4.999   2.803   6.150
 9265POPC   C1A61971   5.118   2.784   6.450
 9265POPC   D2A61972   5.058   2.737   6.750
 9265POPC   C3A61973   5.052   2.776   7.050
 9265POPC   C4A61974   5.112   2.782   7.350
 9265POPC   C1B61975   4.846   2.899   6.450
 9265POPC   C2B61976   4.849   2.934   6.750
 9265POPC   C3B61977   4.939   2.873   7.050
 9265POPC   C4B61978   4.932   2.895   7.350
 9266POPC   NC361979   4.271  39.269   5.550
 9266POPC   PO461980   4.272  39.250   5.850
 9266POPC   GL161981   4.290  39.232   6.150
 9266POPC   GL261982   4.273  39.152   6.150
 9266POPC   C1A61983   4.286  39.273   6.450
 9266POPC   D2A61984   4.274  39.207   6.750
 9266POPC   C3A61985   4.314  39.230   7.050
 9266POPC   C4A61986   4.295  39.248   7.350
 9266POPC   C1B61987   4.188  39.062   6.450
 9266POPC   C2B61988   4.185  39.003   6.750
 9266POPC   C3B61989   4.192  39.078   7.050
 9266POPC   C4B61990   4.180  38.998   7.350
 9267POPC   NC361991  42.350  28.359   5.550
 9267POPC   PO461992  42.320  28.354   5.850
 9267POPC   GL161993  42.304  28.330   6.150
 9267POPC   GL261994  42.414  28.370   6.150
 9267POPC   C1A61995  42.289  28.417   6.450
 9267POPC   D2A61996  42.305  28.325   6.750
 9267POPC   C3A61997  42.337  28.388   7.050
 9267POPC   C4A61998  42.304  28.362   7.350
 9267POPC   C1B61999  42.588  28.494   6.450
 9267POPC   C2B62000  42.526  28.460   6.750
 9267POPC   C3B62001  42.570  28.449   7.050
 9267POPC   C4B62002  42.560  28.442   7.350
 9268POPC   NC362003  23.666  15.186   5.550
 9268POPC   PO462004  23.754  15.180   5.850
 9268POPC   GL162005  23.698  15.191   6.150
 9268POPC   GL262006  23.791  15.306   6.150
 9268POPC   C1A62007  23.677  15.179   6.450
 9268POPC   D2A62008  23.710  15.149   6.750
 9268POPC   C3A62009  23.676  15.143   7.050
 9268POPC   C4A62010  23.692  15.227   7.350
 9268POPC   C1B62011  23.802  15.449   6.450
 9268POPC   C2B62012  23.843  15.455   6.750
 9268POPC   C3B62013  23.849  15.429   7.050
 9268POPC   C4B62014  23.824  15.399   7.350
 9269POPC   NC362015  12.039  23.699   5.550
 9269POPC   PO462016  12.063  23.664   5.850
 9269POPC   GL162017  12.103  23.717   6.150
 9269POPC   GL262018  12.169  23.649   6.150
 9269POPC   C1A62019  12.060  23.757   6.450
 9269POPC   D2A62020  12.081  23.709   6.750
 9269POPC   C3A62021  12.063  23.687   7.050
 9269POPC   C4A62022  12.071  23.702   7.350
 9269POPC   C1B62023  12.292  23.611   6.450
 9269POPC   C2B62024  12.306  23.593   6.750
 9269POPC   C3B62025  12.301  23.680   7.050
 9269POPC   C4B62026  12.310  23.588   7.350
 9270POPC   NC362027   2.731  22.962   5.550
 9270POPC   PO462028   2.720  22.902   5.850
 9270POPC   GL162029   2.804  22.987   6.150
 9270POPC   GL262030   2.676  23.022   6.150
 9270POPC   C1A62031   2.806  22.955   6.450
 9270POPC   D2A62032   2.797  22.891   6.750
 9270POPC   C3A62033   2.720  22.976   7.050
 9270POPC   C4A62034   2.813  22.905   7.350
 9270POPC   C1B62035   2.603  23.091   6.450
 9270POPC   C2B62036   2.587  23.085   6.750
 9270POPC   C3B62037   2.583  23.115   7.050
 9270POPC   C4B62038   2.544  23.104   7.350
 9271POPC   NC362039  37.708  21.386   5.550
 9271POPC   PO462040  37.708  21.390   5.850
 9271POPC   GL162041  37.658  21.409   6.150
 9271POPC   GL262042  37.577  21.482   6.150
 9271POPC   C1A62043  37.704  21.338   6.450
 9271POPC   D2A62044  37.689  21.362   6.750
 9271POPC   C3A62045  37.635  21.370   7.050
 9271POPC   C4A62046  37.660  21.338   7.350
 9271POPC   C1B62047  37.504  21.609   6.450
 9271POPC   C2B62048  37.496  21.569   6.750
 9271POPC   C3B62049  37.504  21.590   7.050
 9271POPC   C4B62050  37.480  21.608   7.350
 9272POPC   NC362051  21.405  31.477   5.550
 9272POPC   PO462052  21.403  31.518   5.850
 9272POPC   GL162053  21.426  31.460   6.150
 9272POPC   GL262054  21.218  31.543   6.150
 9272POPC   C1A62055  21.338  31.511   6.450
 9272POPC   D2A62056  21.431  31.469   6.750
 9272POPC   C3A62057  21.411  31.424   7.050
 9272POPC   C4A62058  21.354  31.477   7.350
 9272POPC   C1B62059  21.171  31.484   6.450
 9272POPC   C2B62060  21.168  31.551   6.750
 9272POPC   C3B62061  21.165  31.574   7.050
 9272POPC   C4B62062  21.128  31.548   7.350
 9273POPC   NC362063  13.597  31.498   5.550
 9273POPC   PO462064  13.648  31.498   5.850
 9273POPC   GL162065  13.666  31.518   6.150
 9273POPC   GL262066  13.736  31.396   6.150
 9273POPC   C1A62067  13.610  31.454   6.450
 9273POPC   D2A62068  13.628  31.469   6.750
 9273POPC   C3A62069  13.661  31.513   7.050
 9273POPC   C4A62070  13.638  31.498   7.350
 9273POPC   C1B62071  13.782  31.249   6.450
 9273POPC   C2B62072  13.813  31.297   6.750
 9273POPC   C3B62073  13.825  31.259   7.050
 9273POPC   C4B62074  13.742  31.248   7.350
 9274POPC   NC362075  15.143  29.170   5.550
 9274POPC   PO462076  15.206  29.115   5.850
 9274POPC   GL162077  15.213  29.134   6.150
 9274POPC   GL262078  15.229  29.190   6.150
 9274POPC   C1A62079  15.172  29.171   6.450
 9274POPC   D2A62080  15.224  29.159   6.750
 9274POPC   C3A62081  15.191  29.157   7.050
 9274POPC   C4A62082  15.177  29.150   7.350
 9274POPC   C1B62083  15.357  29.302   6.450
 9274POPC   C2B62084  15.419  29.267   6.750
 9274POPC   C3B62085  15.329  29.260   7.050
 9274POPC   C4B62086  15.329  29.318   7.350
 9275POPC   NC362087  43.139  10.534   5.550
 9275POPC   PO462088  43.081  10.480   5.850
 9275POPC   GL162089  43.160  10.539   6.150
 9275POPC   GL262090  43.121  10.643   6.150
 9275POPC   C1A62091  43.147  10.482   6.450
 9275POPC   D2A62092  43.135  10.511   6.750
 9275POPC   C3A62093  43.067  10.506   7.050
 9275POPC   C4A62094  43.110  10.525   7.350
 9275POPC   C1B62095  43.246  10.789   6.450
 9275POPC   C2B62096  43.202  10.703   6.750
 9275POPC   C3B62097  43.200  10.717   7.050
 9275POPC   C4B62098  43.203  10.732   7.350
 9276POPC   NC362099  24.457  22.986   5.550
 9276POPC   PO462100  24.512  22.940   5.850
 9276POPC   GL162101  24.528  22.980   6.150
 9276POPC   GL262102  24.411  23.054   6.150
 9276POPC   C1A62103  24.488  22.904   6.450
 9276POPC   D2A62104  24.528  22.895   6.750
 9276POPC   C3A62105  24.529  22.890   7.050
 9276POPC   C4A62106  24.481  22.953   7.350
 9276POPC   C1B62107  24.306  23.122   6.450
 9276POPC   C2B62108  24.355  23.170   6.750
 9276POPC   C3B62109  24.371  23.115   7.050
 9276POPC   C4B62110  24.334  23.099   7.350
 9277POPC   NC362111   4.327  43.877   5.550
 9277POPC   PO462112   4.338  43.894   5.850
 9277POPC   GL162113   4.312  43.903   6.150
 9277POPC   GL262114   4.240  43.962   6.150
 9277POPC   C1A62115   4.343  43.880   6.450
 9277POPC   D2A62116   4.278  43.878   6.750
 9277POPC   C3A62117   4.279  43.936   7.050
 9277POPC   C4A62118   4.315  43.912   7.350
 9277POPC   C1B62119   4.146  44.059   6.450
 9277POPC   C2B62120   4.169  44.064   6.750
 9277POPC   C3B62121   4.126  44.069   7.050
 9277POPC   C4B62122   4.117  44.100   7.350
 9278POPC   NC362123   9.725   5.823   5.550
 9278POPC   PO462124   9.793   5.892   5.850
 9278POPC   GL162125   9.770   5.887   6.150
 9278POPC   GL262126   9.838   5.875   6.150
 9278POPC   C1A62127   9.791   5.862   6.450
 9278POPC   D2A62128   9.791   5.820   6.750
 9278POPC   C3A62129   9.726   5.893   7.050
 9278POPC   C4A62130   9.707   5.911   7.350
 9278POPC   C1B62131   9.986   5.804   6.450
 9278POPC   C2B62132  10.007   5.762   6.750
 9278POPC   C3B62133  10.018   5.733   7.050
 9278POPC   C4B62134   9.975   5.750   7.350
 9279POPC   NC362135   2.774  19.785   5.550
 9279POPC   PO462136   2.795  19.798   5.850
 9279POPC   GL162137   2.812  19.882   6.150
 9279POPC   GL262138   2.841  19.862   6.150
 9279POPC   C1A62139   2.742  19.846   6.450
 9279POPC   D2A62140   2.801  19.860   6.750
 9279POPC   C3A62141   2.774  19.864   7.050
 9279POPC   C4A62142   2.766  19.785   7.350
 9279POPC   C1B62143   3.057  19.836   6.450
 9279POPC   C2B62144   2.994  19.781   6.750
 9279POPC   C3B62145   2.974  19.800   7.050
 9279POPC   C4B62146   2.966  19.777   7.350
 9280POPC   NC362147  15.997   1.245   5.550
 9280POPC   PO462148  15.984   1.187   5.850
 9280POPC   GL162149  15.953   1.212   6.150
 9280POPC   GL262150  15.959   1.088   6.150
 9280POPC   C1A62151  15.908   1.236   6.450
 9280POPC   D2A62152  15.949   1.245   6.750
 9280POPC   C3A62153  15.962   1.252   7.050
 9280POPC   C4A62154  15.988   1.199   7.350
 9280POPC   C1B62155  15.956   0.976   6.450
 9280POPC   C2B62156  15.924   1.015   6.750
 9280POPC   C3B62157  15.905   0.933   7.050
 9280POPC   C4B62158  15.900   0.923   7.350
 9281POPC   NC362159  44.626  44.663   5.550
 9281POPC   PO462160  44.655  44.648   5.850
 9281POPC   GL162161  44.641  44.703   6.150
 9281POPC   GL262162  44.546  44.759   6.150
 9281POPC   C1A62163  44.650  44.662   6.450
 9281POPC   D2A62164  44.690  44.674   6.750
 9281POPC   C3A62165  44.707  44.642   7.050
 9281POPC   C4A62166  44.699  44.623   7.350
 9281POPC   C1B62167  44.547  44.832   6.450
 9281POPC   C2B62168  44.477  44.841   6.750
 9281POPC   C3B62169  44.569  44.912   7.050
 9281POPC   C4B62170  44.511  44.842   7.350
 9282POPC   NC362171  40.821  16.700   5.550
 9282POPC   PO462172  40.813  16.742   5.850
 9282POPC   GL162173  40.798  16.732   6.150
 9282POPC   GL262174  40.852  16.746   6.150
 9282POPC   C1A62175  40.825  16.701   6.450
 9282POPC   D2A62176  40.817  16.773   6.750
 9282POPC   C3A62177  40.762  16.742   7.050
 9282POPC   C4A62178  40.735  16.755   7.350
 9282POPC   C1B62179  40.982  16.802   6.450
 9282POPC   C2B62180  40.997  16.800   6.750
 9282POPC   C3B62181  40.989  16.876   7.050
 9282POPC   C4B62182  40.997  16.797   7.350
 9283POPC   NC362183   5.044   1.945   5.550
 9283POPC   PO462184   5.142   1.943   5.850
 9283POPC   GL162185   5.114   1.953   6.150
 9283POPC   GL262186   5.005   1.927   6.150
 9283POPC   C1A62187   5.060   2.033   6.450
 9283POPC   D2A62188   5.136   1.941   6.750
 9283POPC   C3A62189   5.143   1.955   7.050
 9283POPC   C4A62190   5.124   2.007   7.350
 9283POPC   C1B62191   4.903   1.816   6.450
 9283POPC   C2B62192   4.890   1.876   6.750
 9283POPC   C3B62193   4.893   1.883   7.050
 9283POPC   C4B62194   4.935   1.808   7.350
 9284POPC   NC362195  13.607  43.066   5.550
 9284POPC   PO462196  13.608  43.158   5.850
 9284POPC   GL162197  13.593  43.078   6.150
 9284POPC   GL262198  13.735  43.171   6.150
 9284POPC   C1A62199  13.614  43.143   6.450
 9284POPC   D2A62200  13.632  43.073   6.750
 9284POPC   C3A62201  13.586  43.095   7.050
 9284POPC   C4A62202  13.612  43.146   7.350
 9284POPC   C1B62203  13.836  43.220   6.450
 9284POPC   C2B62204  13.851  43.214   6.750
 9284POPC   C3B62205  13.866  43.205   7.050
 9284POPC   C4B62206  13.879  43.243   7.350
 9285POPC   NC362207  22.142  30.737   5.550
 9285POPC   PO462208  22.117  30.694   5.850
 9285POPC   GL162209  22.137  30.716   6.150
 9285POPC   GL262210  22.225  30.614   6.150
 9285POPC   C1A62211  22.174  30.672   6.450
 9285POPC   D2A62212  22.150  30.723   6.750
 9285POPC   C3A62213  22.115  30.717   7.050
 9285POPC   C4A62214  22.130  30.652   7.350
 9285POPC   C1B62215  22.256  30.519   6.450
 9285POPC   C2B62216  22.329  30.451   6.750
 9285POPC   C3B62217  22.293  30.447   7.050
 9285POPC   C4B62218  22.321  30.502   7.350
 9286POPC   NC362219   5.875   8.983   5.550
 9286POPC   PO462220   5.883   8.982   5.850
 9286POPC   GL162221   5.903   8.941   6.150
 9286POPC   GL262222   5.984   8.952   6.150
 9286POPC   C1A62223   5.851   9.013   6.450
 9286POPC   D2A62224   5.846   9.005   6.750
 9286POPC   C3A62225   5.838   8.942   7.050
 9286POPC   C4A62226   5.846   8.934   7.350
 9286POPC   C1B62227   6.084   8.840   6.450
 9286POPC   C2B62228   6.057   8.815   6.750
 9286POPC   C3B62229   6.054   8.833   7.050
 9286POPC   C4B62230   6.048   8.820   7.350
 9287POPC   NC362231   0.430   5.117   5.550
 9287POPC   PO462232   0.485   5.046   5.850
 9287POPC   GL162233   0.466   5.093   6.150
 9287POPC   GL262234   0.320   5.072   6.150
 9287POPC   C1A62235   0.410   5.073   6.450
 9287POPC   D2A62236   0.468   5.115   6.750
 9287POPC   C3A62237   0.406   5.065   7.050
 9287POPC   C4A62238   0.459   5.063   7.350
 9287POPC   C1B62239   0.186   5.009   6.450
 9287POPC   C2B62240   0.233   4.950   6.750
 9287POPC   C3B62241   0.235   4.955   7.050
 9287POPC   C4B62242   0.215   5.030   7.350
 9288POPC   NC362243  27.570  23.678   5.550
 9288POPC   PO462244  27.561  23.691   5.850
 9288POPC   GL162245  27.577  23.736   6.150
 9288POPC   GL262246  27.596  23.848   6.150
 9288POPC   C1A62247  27.638  23.729   6.450
 9288POPC   D2A62248  27.579  23.674   6.750
 9288POPC   C3A62249  27.547  23.727   7.050
 9288POPC   C4A62250  27.569  23.721   7.350
 9288POPC   C1B62251  27.631  23.952   6.450
 9288POPC   C2B62252  27.696  23.908   6.750
 9288POPC   C3B62253  27.666  23.989   7.050
 9288POPC   C4B62254  27.705  23.908   7.350
 9289POPC   NC362255   5.910  25.279   5.550
 9289POPC   PO462256   5.859  25.254   5.850
 9289POPC   GL162257   5.865  25.228   6.150
 9289POPC   GL262258   5.719  25.306   6.150
 9289POPC   C1A62259   5.866  25.262   6.450
 9289POPC   D2A62260   5.919  25.219   6.750
 9289POPC   C3A62261   5.857  25.237   7.050
 9289POPC   C4A62262   5.868  25.248   7.350
 9289POPC   C1B62263   5.649  25.392   6.450
 9289POPC   C2B62264   5.670  25.340   6.750
 9289POPC   C3B62265   5.680  25.320   7.050
 9289POPC   C4B62266   5.596  25.297   7.350
 9290POPC   NC362267   5.916   3.573   5.550
 9290POPC   PO462268   5.897   3.531   5.850
 9290POPC   GL162269   5.902   3.492   6.150
 9290POPC   GL262270   5.732   3.511   6.150
 9290POPC   C1A62271   5.914   3.523   6.450
 9290POPC   D2A62272   5.891   3.567   6.750
 9290POPC   C3A62273   5.916   3.497   7.050
 9290POPC   C4A62274   5.825   3.549   7.350
 9290POPC   C1B62275   5.602   3.583   6.450
 9290POPC   C2B62276   5.611   3.591   6.750
 9290POPC   C3B62277   5.593   3.551   7.050
 9290POPC   C4B62278   5.599   3.522   7.350
 9291POPC   NC362279  40.823  25.234   5.550
 9291POPC   PO462280  40.779  25.276   5.850
 9291POPC   GL162281  40.771  25.250   6.150
 9291POPC   GL262282  40.868  25.231   6.150
 9291POPC   C1A62283  40.753  25.264   6.450
 9291POPC   D2A62284  40.791  25.219   6.750
 9291POPC   C3A62285  40.742  25.265   7.050
 9291POPC   C4A62286  40.747  25.282   7.350
 9291POPC   C1B62287  41.030  25.167   6.450
 9291POPC   C2B62288  40.994  25.145   6.750
 9291POPC   C3B62289  41.010  25.184   7.050
 9291POPC   C4B62290  40.986  25.136   7.350
 9292POPC   NC362291   9.702  36.084   5.550
 9292POPC   PO462292   9.789  36.147   5.850
 9292POPC   GL162293   9.782  36.099   6.150
 9292POPC   GL262294   9.844  36.099   6.150
 9292POPC   C1A62295   9.788  36.123   6.450
 9292POPC   D2A62296   9.741  36.132   6.750
 9292POPC   C3A62297   9.761  36.118   7.050
 9292POPC   C4A62298   9.724  36.107   7.350
 9292POPC   C1B62299   9.995  36.181   6.450
 9292POPC   C2B62300   9.959  36.124   6.750
 9292POPC   C3B62301  10.037  36.113   7.050
 9292POPC   C4B62302  10.037  36.187   7.350
 9293POPC   NC362303  43.111  42.304   5.550
 9293POPC   PO462304  43.083  42.297   5.850
 9293POPC   GL162305  43.123  42.357   6.150
 9293POPC   GL262306  43.250  42.278   6.150
 9293POPC   C1A62307  43.083  42.324   6.450
 9293POPC   D2A62308  43.084  42.292   6.750
 9293POPC   C3A62309  43.117  42.369   7.050
 9293POPC   C4A62310  43.128  42.303   7.350
 9293POPC   C1B62311  43.267  42.191   6.450
 9293POPC   C2B62312  43.252  42.158   6.750
 9293POPC   C3B62313  43.275  42.184   7.050
 9293POPC   C4B62314  43.316  42.183   7.350
 9294POPC   NC362315  42.321  12.825   5.550
 9294POPC   PO462316  42.318  12.887   5.850
 9294POPC   GL162317  42.361  12.860   6.150
 9294POPC   GL262318  42.344  12.937   6.150
 9294POPC   C1A62319  42.379  12.818   6.450
 9294POPC   D2A62320  42.289  12.841   6.750
 9294POPC   C3A62321  42.365  12.865   7.050
 9294POPC   C4A62322  42.357  12.824   7.350
 9294POPC   C1B62323  42.336  13.132   6.450
 9294POPC   C2B62324  42.371  13.079   6.750
 9294POPC   C3B62325  42.302  13.121   7.050
 9294POPC   C4B62326  42.314  13.137   7.350
 9295POPC   NC362327   5.866  15.977   5.550
 9295POPC   PO462328   5.832  15.970   5.850
 9295POPC   GL162329   5.840  15.941   6.150
 9295POPC   GL262330   5.753  15.970   6.150
 9295POPC   C1A62331   5.852  15.948   6.450
 9295POPC   D2A62332   5.894  15.997   6.750
 9295POPC   C3A62333   5.902  15.927   7.050
 9295POPC   C4A62334   5.894  15.995   7.350
 9295POPC   C1B62335   5.633  15.988   6.450
 9295POPC   C2B62336   5.662  15.985   6.750
 9295POPC   C3B62337   5.635  16.038   7.050
 9295POPC   C4B62338   5.671  16.005   7.350
 9296POPC   NC362339  12.065  41.512   5.550
 9296POPC   PO462340  12.113  41.532   5.850
 9296POPC   GL162341  12.050  41.566   6.150
 9296POPC   GL262342  12.154  41.617   6.150
 9296POPC   C1A62343  12.032  41.524   6.450
 9296POPC   D2A62344  12.075  41.532   6.750
 9296POPC   C3A62345  12.079  41.532   7.050
 9296POPC   C4A62346  12.054  41.600   7.350
 9296POPC   C1B62347  12.293  41.743   6.450
 9296POPC   C2B62348  12.247  41.768   6.750
 9296POPC   C3B62349  12.240  41.719   7.050
 9296POPC   C4B62350  12.275  41.745   7.350
 9297POPC   NC362351   2.761  43.880   5.550
 9297POPC   PO462352   2.777  43.905   5.850
 9297POPC   GL162353   2.745  43.936   6.150
 9297POPC   GL262354   2.865  43.967   6.150
 9297POPC   C1A62355   2.736  43.881   6.450
 9297POPC   D2A62356   2.815  43.918   6.750
 9297POPC   C3A62357   2.732  43.900   7.050
 9297POPC   C4A62358   2.759  43.853   7.350
 9297POPC   C1B62359   2.873  44.117   6.450
 9297POPC   C2B62360   2.848  44.075   6.750
 9297POPC   C3B62361   2.889  44.096   7.050
 9297POPC   C4B62362   2.912  44.132   7.350
 9298POPC   NC362363  26.051   9.748   5.550
 9298POPC   PO462364  26.087   9.739   5.850
 9298POPC   GL162365  26.066   9.736   6.150
 9298POPC   GL262366  26.157   9.850   6.150
 9298POPC   C1A62367  25.994   9.798   6.450
 9298POPC   D2A62368  26.021   9.699   6.750
 9298POPC   C3A62369  26.054   9.774   7.050
 9298POPC   C4A62370  26.062   9.749   7.350
 9298POPC   C1B62371  26.262   9.876   6.450
 9298POPC   C2B62372  26.187   9.883   6.750
 9298POPC   C3B62373  26.195   9.921   7.050
 9298POPC   C4B62374  26.202   9.918   7.350
 9299POPC   NC362375   1.946  22.979   5.550
 9299POPC   PO462376   2.019  22.959   5.850
 9299POPC   GL162377   2.017  22.977   6.150
 9299POPC   GL262378   2.016  23.044   6.150
 9299POPC   C1A62379   1.957  22.916   6.450
 9299POPC   D2A62380   1.988  22.890   6.750
 9299POPC   C3A62381   1.998  22.961   7.050
 9299POPC   C4A62382   1.988  22.968   7.350
 9299POPC   C1B62383   2.149  23.179   6.450
 9299POPC   C2B62384   2.151  23.135   6.750
 9299POPC   C3B62385   2.154  23.191   7.050
 9299POPC   C4B62386   2.070  23.180   7.350
 9300POPC   NC362387   2.737  22.116   5.550
 9300POPC   PO462388   2.769  22.192   5.850
 9300POPC   GL162389   2.746  22.175   6.150
 9300POPC   GL262390   2.919  22.158   6.150
 9300POPC   C1A62391   2.760  22.175   6.450
 9300POPC   D2A62392   2.813  22.146   6.750
 9300POPC   C3A62393   2.725  22.127   7.050
 9300POPC   C4A62394   2.769  22.115   7.350
 9300POPC   C1B62395   3.039  22.181   6.450
 9300POPC   C2B62396   3.049  22.206   6.750
 9300POPC   C3B62397   2.965  22.246   7.050
 9300POPC   C4B62398   2.968  22.167   7.350
 9301POPC   NC362399  22.188  35.321   5.550
 9301POPC   PO462400  22.143  35.335   5.850
 9301POPC   GL162401  22.198  35.368   6.150
 9301POPC   GL262402  22.197  35.189   6.150
 9301POPC   C1A62403  22.119  35.316   6.450
 9301POPC   D2A62404  22.176  35.378   6.750
 9301POPC   C3A62405  22.186  35.325   7.050
 9301POPC   C4A62406  22.130  35.338   7.350
 9301POPC   C1B62407  22.170  35.133   6.450
 9301POPC   C2B62408  22.170  35.139   6.750
 9301POPC   C3B62409  22.129  35.103   7.050
 9301POPC   C4B62410  22.215  35.101   7.350
 9302POPC   NC362411   1.239  13.644   5.550
 9302POPC   PO462412   1.183  13.643   5.850
 9302POPC   GL162413   1.221  13.643   6.150
 9302POPC   GL262414   1.221  13.746   6.150
 9302POPC   C1A62415   1.182  13.637   6.450
 9302POPC   D2A62416   1.166  13.653   6.750
 9302POPC   C3A62417   1.195  13.634   7.050
 9302POPC   C4A62418   1.231  13.652   7.350
 9302POPC   C1B62419   1.296  13.920   6.450
 9302POPC   C2B62420   1.218  13.922   6.750
 9302POPC   C3B62421   1.232  13.873   7.050
 9302POPC   C4B62422   1.276  13.832   7.350
 9303POPC   NC362423   8.159  35.342   5.550
 9303POPC   PO462424   8.207  35.355   5.850
 9303POPC   GL162425   8.164  35.341   6.150
 9303POPC   GL262426   8.297  35.342   6.150
 9303POPC   C1A62427   8.203  35.370   6.450
 9303POPC   D2A62428   8.245  35.375   6.750
 9303POPC   C3A62429   8.240  35.395   7.050
 9303POPC   C4A62430   8.233  35.327   7.350
 9303POPC   C1B62431   8.465  35.366   6.450
 9303POPC   C2B62432   8.487  35.361   6.750
 9303POPC   C3B62433   8.402  35.432   7.050
 9303POPC   C4B62434   8.491  35.400   7.350
 9304POPC   NC362435  33.043  31.518   5.550
 9304POPC   PO462436  32.977  31.522   5.850
 9304POPC   GL162437  33.015  31.485   6.150
 9304POPC   GL262438  33.099  31.463   6.150
 9304POPC   C1A62439  33.074  31.463   6.450
 9304POPC   D2A62440  32.980  31.441   6.750
 9304POPC   C3A62441  32.977  31.513   7.050
 9304POPC   C4A62442  32.978  31.494   7.350
 9304POPC   C1B62443  33.289  31.527   6.450
 9304POPC   C2B62444  33.245  31.579   6.750
 9304POPC   C3B62445  33.246  31.574   7.050
 9304POPC   C4B62446  33.255  31.546   7.350
 9305POPC   NC362447  24.480  26.842   5.550
 9305POPC   PO462448  24.463  26.791   5.850
 9305POPC   GL162449  24.522  26.787   6.150
 9305POPC   GL262450  24.374  26.827   6.150
 9305POPC   C1A62451  24.486  26.795   6.450
 9305POPC   D2A62452  24.448  26.810   6.750
 9305POPC   C3A62453  24.497  26.791   7.050
 9305POPC   C4A62454  24.447  26.788   7.350
 9305POPC   C1B62455  24.217  26.761   6.450
 9305POPC   C2B62456  24.240  26.818   6.750
 9305POPC   C3B62457  24.239  26.827   7.050
 9305POPC   C4B62458  24.259  26.758   7.350
 9306POPC   NC362459  16.770  12.861   5.550
 9306POPC   PO462460  16.714  12.849   5.850
 9306POPC   GL162461  16.769  12.880   6.150
 9306POPC   GL262462  16.694  12.940   6.150
 9306POPC   C1A62463  16.694  12.843   6.450
 9306POPC   D2A62464  16.746  12.835   6.750
 9306POPC   C3A62465  16.682  12.854   7.050
 9306POPC   C4A62466  16.705  12.802   7.350
 9306POPC   C1B62467  16.741  13.072   6.450
 9306POPC   C2B62468  16.728  13.127   6.750
 9306POPC   C3B62469  16.664  13.091   7.050
 9306POPC   C4B62470  16.728  13.100   7.350
 9307POPC   NC362471  16.735  14.388   5.550
 9307POPC   PO462472  16.708  14.371   5.850
 9307POPC   GL162473  16.689  14.385   6.150
 9307POPC   GL262474  16.637  14.354   6.150
 9307POPC   C1A62475  16.694  14.389   6.450
 9307POPC   D2A62476  16.709  14.433   6.750
 9307POPC   C3A62477  16.731  14.440   7.050
 9307POPC   C4A62478  16.690  14.401   7.350
 9307POPC   C1B62479  16.588  14.242   6.450
 9307POPC   C2B62480  16.546  14.218   6.750
 9307POPC   C3B62481  16.554  14.278   7.050
 9307POPC   C4B62482  16.549  14.265   7.350
 9308POPC   NC362483  22.204  36.159   5.550
 9308POPC   PO462484  22.193  36.100   5.850
 9308POPC   GL162485  22.175  36.165   6.150
 9308POPC   GL262486  22.122  35.978   6.150
 9308POPC   C1A62487  22.205  36.122   6.450
 9308POPC   D2A62488  22.137  36.134   6.750
 9308POPC   C3A62489  22.201  36.082   7.050
 9308POPC   C4A62490  22.127  36.166   7.350
 9308POPC   C1B62491  22.194  35.861   6.450
 9308POPC   C2B62492  22.142  35.862   6.750
 9308POPC   C3B62493  22.185  35.925   7.050
 9308POPC   C4B62494  22.097  35.902   7.350
 9309POPC   NC362495  44.643  17.487   5.550
 9309POPC   PO462496  44.674  17.527   5.850
 9309POPC   GL162497  44.642  17.531   6.150
 9309POPC   GL262498  44.800  17.493   6.150
 9309POPC   C1A62499  44.712  17.501   6.450
 9309POPC   D2A62500  44.682  17.465   6.750
 9309POPC   C3A62501  44.683  17.478   7.050
 9309POPC   C4A62502  44.644  17.483   7.350
 9309POPC   C1B62503  44.888  17.529   6.450
 9309POPC   C2B62504  44.871  17.459   6.750
 9309POPC   C3B62505  44.913  17.515   7.050
 9309POPC   C4B62506  44.870  17.528   7.350
 9310POPC   NC362507  32.284  26.842   5.550
 9310POPC   PO462508  32.226  26.855   5.850
 9310POPC   GL162509  32.242  26.842   6.150
 9310POPC   GL262510  32.133  26.842   6.150
 9310POPC   C1A62511  32.295  26.824   6.450
 9310POPC   D2A62512  32.223  26.786   6.750
 9310POPC   C3A62513  32.265  26.831   7.050
 9310POPC   C4A62514  32.221  26.856   7.350
 9310POPC   C1B62515  32.089  26.932   6.450
 9310POPC   C2B62516  32.057  26.999   6.750
 9310POPC   C3B62517  32.033  26.949   7.050
 9310POPC   C4B62518  32.042  26.943   7.350
 9311POPC   NC362519  16.717  36.126   5.550
 9311POPC   PO462520  16.745  36.101   5.850
 9311POPC   GL162521  16.743  36.131   6.150
 9311POPC   GL262522  16.671  36.023   6.150
 9311POPC   C1A62523  16.695  36.161   6.450
 9311POPC   D2A62524  16.697  36.106   6.750
 9311POPC   C3A62525  16.729  36.102   7.050
 9311POPC   C4A62526  16.684  36.093   7.350
 9311POPC   C1B62527  16.654  35.849   6.450
 9311POPC   C2B62528  16.649  35.901   6.750
 9311POPC   C3B62529  16.707  35.884   7.050
 9311POPC   C4B62530  16.686  35.851   7.350
 9312POPC   NC362531  24.507  40.781   5.550
 9312POPC   PO462532  24.511  40.768   5.850
 9312POPC   GL162533  24.464  40.758   6.150
 9312POPC   GL262534  24.389  40.906   6.150
 9312POPC   C1A62535  24.539  40.758   6.450
 9312POPC   D2A62536  24.473  40.760   6.750
 9312POPC   C3A62537  24.474  40.804   7.050
 9312POPC   C4A62538  24.528  40.782   7.350
 9312POPC   C1B62539  24.343  41.006   6.450
 9312POPC   C2B62540  24.310  40.977   6.750
 9312POPC   C3B62541  24.379  41.015   7.050
 9312POPC   C4B62542  24.352  40.977   7.350
 9313POPC   NC362543   9.777  15.961   5.550
 9313POPC   PO462544   9.776  15.959   5.850
 9313POPC   GL162545   9.742  15.942   6.150
 9313POPC   GL262546   9.680  15.870   6.150
 9313POPC   C1A62547   9.704  15.948   6.450
 9313POPC   D2A62548   9.736  15.910   6.750
 9313POPC   C3A62549   9.754  15.962   7.050
 9313POPC   C4A62550   9.784  15.999   7.350
 9313POPC   C1B62551   9.670  15.698   6.450
 9313POPC   C2B62552   9.652  15.718   6.750
 9313POPC   C3B62553   9.642  15.762   7.050
 9313POPC   C4B62554   9.640  15.711   7.350
 9314POPC   NC362555  24.481   8.222   5.550
 9314POPC   PO462556  24.501   8.171   5.850
 9314POPC   GL162557  24.448   8.184   6.150
 9314POPC   GL262558  24.552   8.328   6.150
 9314POPC   C1A62559  24.482   8.228   6.450
 9314POPC   D2A62560  24.516   8.224   6.750
 9314POPC   C3A62561  24.496   8.180   7.050
 9314POPC   C4A62562  24.472   8.211   7.350
 9314POPC   C1B62563  24.574   8.488   6.450
 9314POPC   C2B62564  24.573   8.402   6.750
 9314POPC   C3B62565  24.507   8.409   7.050
 9314POPC   C4B62566  24.569   8.455   7.350
 9315POPC   NC362567  43.144   5.140   5.550
 9315POPC   PO462568  43.064   5.050   5.850
 9315POPC   GL162569  43.152   5.085   6.150
 9315POPC   GL262570  43.208   5.044   6.150
 9315POPC   C1A62571  43.067   5.128   6.450
 9315POPC   D2A62572  43.152   5.102   6.750
 9315POPC   C3A62573  43.106   5.140   7.050
 9315POPC   C4A62574  43.079   5.100   7.350
 9315POPC   C1B62575  43.373   5.083   6.450
 9315POPC   C2B62576  43.341   5.042   6.750
 9315POPC   C3B62577  43.335   5.058   7.050
 9315POPC   C4B62578  43.330   5.007   7.350
 9316POPC   NC362579   7.394  26.846   5.550
 9316POPC   PO462580   7.425  26.808   5.850
 9316POPC   GL162581   7.453  26.804   6.150
 9316POPC   GL262582   7.354  26.690   6.150
 9316POPC   C1A62583   7.443  26.839   6.450
 9316POPC   D2A62584   7.381  26.846   6.750
 9316POPC   C3A62585   7.444  26.804   7.050
 9316POPC   C4A62586   7.427  26.799   7.350
 9316POPC   C1B62587   7.230  26.594   6.450
 9316POPC   C2B62588   7.245  26.617   6.750
 9316POPC   C3B62589   7.321  26.606   7.050
 9316POPC   C4B62590   7.251  26.611   7.350
 9317POPC   NC362591  30.691  23.669   5.550
 9317POPC   PO462592  30.701  23.739   5.850
 9317POPC   GL162593  30.742  23.716   6.150
 9317POPC   GL262594  30.739  23.564   6.150
 9317POPC   C1A62595  30.735  23.735   6.450
 9317POPC   D2A62596  30.657  23.671   6.750
 9317POPC   C3A62597  30.698  23.711   7.050
 9317POPC   C4A62598  30.733  23.754   7.350
 9317POPC   C1B62599  30.706  23.427   6.450
 9317POPC   C2B62600  30.699  23.476   6.750
 9317POPC   C3B62601  30.651  23.502   7.050
 9317POPC   C4B62602  30.712  23.452   7.350
 9318POPC   NC362603  22.190   0.487   5.550
 9318POPC   PO462604  22.164   0.455   5.850
 9318POPC   GL162605  22.205   0.438   6.150
 9318POPC   GL262606  22.005   0.440   6.150
 9318POPC   C1A62607  22.125   0.443   6.450
 9318POPC   D2A62608  22.149   0.442   6.750
 9318POPC   C3A62609  22.149   0.421   7.050
 9318POPC   C4A62610  22.117   0.439   7.350
 9318POPC   C1B62611  21.955   0.392   6.450
 9318POPC   C2B62612  21.908   0.358   6.750
 9318POPC   C3B62613  21.922   0.348   7.050
 9318POPC   C4B62614  21.902   0.368   7.350
 9319POPC   NC362615  22.967  30.667   5.550
 9319POPC   PO462616  22.961  30.698   5.850
 9319POPC   GL162617  22.988  30.699   6.150
 9319POPC   GL262618  22.951  30.777   6.150
 9319POPC   C1A62619  22.971  30.729   6.450
 9319POPC   D2A62620  22.954  30.689   6.750
 9319POPC   C3A62621  22.952  30.648   7.050
 9319POPC   C4A62622  22.926  30.689   7.350
 9319POPC   C1B62623  22.936  30.993   6.450
 9319POPC   C2B62624  22.854  30.942   6.750
 9319POPC   C3B62625  22.923  30.902   7.050
 9319POPC   C4B62626  22.918  30.976   7.350
 9320POPC   NC362627   5.066  15.221   5.550
 9320POPC   PO462628   5.058  15.176   5.850
 9320POPC   GL162629   5.113  15.183   6.150
 9320POPC   GL262630   5.077  15.311   6.150
 9320POPC   C1A62631   5.114  15.138   6.450
 9320POPC   D2A62632   5.074  15.196   6.750
 9320POPC   C3A62633   5.106  15.151   7.050
 9320POPC   C4A62634   5.072  15.132   7.350
 9320POPC   C1B62635   5.145  15.461   6.450
 9320POPC   C2B62636   5.157  15.412   6.750
 9320POPC   C3B62637   5.132  15.414   7.050
 9320POPC   C4B62638   5.089  15.448   7.350
 9321POPC   NC362639  15.223  36.084   5.550
 9321POPC   PO462640  15.163  36.089   5.850
 9321POPC   GL162641  15.215  36.121   6.150
 9321POPC   GL262642  15.038  36.044   6.150
 9321POPC   C1A62643  15.156  36.100   6.450
 9321POPC   D2A62644  15.178  36.156   6.750
 9321POPC   C3A62645  15.227  36.107   7.050
 9321POPC   C4A62646  15.207  36.105   7.350
 9321POPC   C1B62647  14.995  36.035   6.450
 9321POPC   C2B62648  14.968  35.953   6.750
 9321POPC   C3B62649  15.012  35.951   7.050
 9321POPC   C4B62650  15.004  35.993   7.350
 9322POPC   NC362651  15.960   2.716   5.550
 9322POPC   PO462652  15.933   2.735   5.850
 9322POPC   GL162653  15.935   2.814   6.150
 9322POPC   GL262654  15.978   2.862   6.150
 9322POPC   C1A62655  15.990   2.788   6.450
 9322POPC   D2A62656  15.931   2.780   6.750
 9322POPC   C3A62657  15.933   2.754   7.050
 9322POPC   C4A62658  15.911   2.783   7.350
 9322POPC   C1B62659  15.984   2.987   6.450
 9322POPC   C2B62660  15.948   3.050   6.750
 9322POPC   C3B62661  15.997   2.995   7.050
 9322POPC   C4B62662  15.969   3.030   7.350
 9323POPC   NC362663  24.447   4.349   5.550
 9323POPC   PO462664  24.490   4.337   5.850
 9323POPC   GL162665  24.478   4.310   6.150
 9323POPC   GL262666  24.554   4.408   6.150
 9323POPC   C1A62667  24.498   4.359   6.450
 9323POPC   D2A62668  24.507   4.353   6.750
 9323POPC   C3A62669  24.485   4.303   7.050
 9323POPC   C4A62670  24.493   4.277   7.350
 9323POPC   C1B62671  24.686   4.513   6.450
 9323POPC   C2B62672  24.671   4.477   6.750
 9323POPC   C3B62673  24.642   4.507   7.050
 9323POPC   C4B62674  24.714   4.540   7.350
 9324POPC   NC362675  41.510   1.246   5.550
 9324POPC   PO462676  41.537   1.253   5.850
 9324POPC   GL162677  41.598   1.257   6.150
 9324POPC   GL262678  41.601   1.359   6.150
 9324POPC   C1A62679  41.522   1.236   6.450
 9324POPC   D2A62680  41.582   1.189   6.750
 9324POPC   C3A62681  41.528   1.220   7.050
 9324POPC   C4A62682  41.524   1.257   7.350
 9324POPC   C1B62683  41.654   1.419   6.450
 9324POPC   C2B62684  41.625   1.445   6.750
 9324POPC   C3B62685  41.653   1.467   7.050
 9324POPC   C4B62686  41.667   1.455   7.350
 9325POPC   NC362687  43.915  22.151   5.550
 9325POPC   PO462688  43.925  22.184   5.850
 9325POPC   GL162689  43.873  22.144   6.150
 9325POPC   GL262690  43.971  22.052   6.150
 9325POPC   C1A62691  43.890  22.131   6.450
 9325POPC   D2A62692  43.851  22.145   6.750
 9325POPC   C3A62693  43.897  22.193   7.050
 9325POPC   C4A62694  43.912  22.179   7.350
 9325POPC   C1B62695  43.985  21.961   6.450
 9325POPC   C2B62696  43.995  21.916   6.750
 9325POPC   C3B62697  44.031  21.943   7.050
 9325POPC   C4B62698  43.962  21.995   7.350
 9326POPC   NC362699  42.353  32.992   5.550
 9326POPC   PO462700  42.363  33.042   5.850
 9326POPC   GL162701  42.354  33.028   6.150
 9326POPC   GL262702  42.482  32.921   6.150
 9326POPC   C1A62703  42.343  33.013   6.450
 9326POPC   D2A62704  42.353  33.021   6.750
 9326POPC   C3A62705  42.337  33.038   7.050
 9326POPC   C4A62706  42.341  33.045   7.350
 9326POPC   C1B62707  42.553  32.820   6.450
 9326POPC   C2B62708  42.558  32.824   6.750
 9326POPC   C3B62709  42.523  32.909   7.050
 9326POPC   C4B62710  42.486  32.826   7.350
 9327POPC   NC362711  42.311  29.171   5.550
 9327POPC   PO462712  42.339  29.123   5.850
 9327POPC   GL162713  42.349  29.140   6.150
 9327POPC   GL262714  42.265  29.183   6.150
 9327POPC   C1A62715  42.322  29.176   6.450
 9327POPC   D2A62716  42.320  29.109   6.750
 9327POPC   C3A62717  42.294  29.115   7.050
 9327POPC   C4A62718  42.373  29.179   7.350
 9327POPC   C1B62719  42.071  29.259   6.450
 9327POPC   C2B62720  42.159  29.227   6.750
 9327POPC   C3B62721  42.065  29.205   7.050
 9327POPC   C4B62722  42.123  29.273   7.350
 9328POPC   NC362723   1.183  19.883   5.550
 9328POPC   PO462724   1.179  19.829   5.850
 9328POPC   GL162725   1.197  19.816   6.150
 9328POPC   GL262726   1.321  19.779   6.150
 9328POPC   C1A62727   1.223  19.880   6.450
 9328POPC   D2A62728   1.225  19.824   6.750
 9328POPC   C3A62729   1.166  19.815   7.050
 9328POPC   C4A62730   1.235  19.789   7.350
 9328POPC   C1B62731   1.488  19.818   6.450
 9328POPC   C2B62732   1.501  19.821   6.750
 9328POPC   C3B62733   1.475  19.865   7.050
 9328POPC   C4B62734   1.469  19.815   7.350
 9329POPC   NC362735  44.657  32.251   5.550
 9329POPC   PO462736  44.677  32.209   5.850
 9329POPC   GL162737  44.689  32.276   6.150
 9329POPC   GL262738  44.580  32.225   6.150
 9329POPC   C1A62739  44.682  32.208   6.450
 9329POPC   D2A62740  44.667  32.206   6.750
 9329POPC   C3A62741  44.635  32.295   7.050
 9329POPC   C4A62742  44.667  32.241   7.350
 9329POPC   C1B62743  44.473  32.142   6.450
 9329POPC   C2B62744  44.402  32.111   6.750
 9329POPC   C3B62745  44.415  32.139   7.050
 9329POPC   C4B62746  44.433  32.171   7.350
 9330POPC   NC362747  30.660  20.627   5.550
 9330POPC   PO462748  30.730  20.634   5.850
 9330POPC   GL162749  30.734  20.638   6.150
 9330POPC   GL262750  30.553  20.613   6.150
 9330POPC   C1A62751  30.687  20.586   6.450
 9330POPC   D2A62752  30.746  20.588   6.750
 9330POPC   C3A62753  30.700  20.647   7.050
 9330POPC   C4A62754  30.659  20.607   7.350
 9330POPC   C1B62755  30.500  20.709   6.450
 9330POPC   C2B62756  30.464  20.645   6.750
 9330POPC   C3B62757  30.468  20.687   7.050
 9330POPC   C4B62758  30.425  20.690   7.350
 9331POPC   NC362759  19.029  41.568   5.550
 9331POPC   PO462760  19.108  41.531   5.850
 9331POPC   GL162761  19.066  41.592   6.150
 9331POPC   GL262762  18.994  41.710   6.150
 9331POPC   C1A62763  19.029  41.601   6.450
 9331POPC   D2A62764  19.040  41.574   6.750
 9331POPC   C3A62765  19.034  41.595   7.050
 9331POPC   C4A62766  19.081  41.550   7.350
 9331POPC   C1B62767  18.911  41.790   6.450
 9331POPC   C2B62768  18.885  41.730   6.750
 9331POPC   C3B62769  18.966  41.777   7.050
 9331POPC   C4B62770  18.928  41.762   7.350
 9332POPC   NC362771   1.191  21.417   5.550
 9332POPC   PO462772   1.188  21.393   5.850
 9332POPC   GL162773   1.166  21.385   6.150
 9332POPC   GL262774   1.238  21.533   6.150
 9332POPC   C1A62775   1.252  21.343   6.450
 9332POPC   D2A62776   1.191  21.377   6.750
 9332POPC   C3A62777   1.205  21.391   7.050
 9332POPC   C4A62778   1.221  21.339   7.350
 9332POPC   C1B62779   1.319  21.590   6.450
 9332POPC   C2B62780   1.391  21.582   6.750
 9332POPC   C3B62781   1.328  21.618   7.050
 9332POPC   C4B62782   1.375  21.587   7.350
 9333POPC   NC362783  39.266  41.552   5.550
 9333POPC   PO462784  39.221  41.584   5.850
 9333POPC   GL162785  39.269  41.522   6.150
 9333POPC   GL262786  39.345  41.701   6.150
 9333POPC   C1A62787  39.278  41.544   6.450
 9333POPC   D2A62788  39.246  41.588   6.750
 9333POPC   C3A62789  39.214  41.536   7.050
 9333POPC   C4A62790  39.258  41.540   7.350
 9333POPC   C1B62791  39.382  41.794   6.450
 9333POPC   C2B62792  39.381  41.707   6.750
 9333POPC   C3B62793  39.366  41.707   7.050
 9333POPC   C4B62794  39.353  41.791   7.350
 9334POPC   NC362795  15.195  29.965   5.550
 9334POPC   PO462796  15.131  29.950   5.850
 9334POPC   GL162797  15.213  29.915   6.150
 9334POPC   GL262798  15.008  29.977   6.150
 9334POPC   C1A62799  15.222  29.923   6.450
 9334POPC   D2A62800  15.158  29.901   6.750
 9334POPC   C3A62801  15.158  29.937   7.050
 9334POPC   C4A62802  15.166  29.903   7.350
 9334POPC   C1B62803  14.910  29.983   6.450
 9334POPC   C2B62804  14.889  29.989   6.750
 9334POPC   C3B62805  14.942  29.962   7.050
 9334POPC   C4B62806  14.925  29.956   7.350
 9335POPC   NC362807   5.866  26.792   5.550
 9335POPC   PO462808   5.859  26.805   5.850
 9335POPC   GL162809   5.914  26.831   6.150
 9335POPC   GL262810   5.960  26.841   6.150
 9335POPC   C1A62811   5.884  26.816   6.450
 9335POPC   D2A62812   5.884  26.790   6.750
 9335POPC   C3A62813   5.828  26.777   7.050
 9335POPC   C4A62814   5.832  26.864   7.350
 9335POPC   C1B62815   6.110  26.817   6.450
 9335POPC   C2B62816   6.120  26.842   6.750
 9335POPC   C3B62817   6.084  26.835   7.050
 9335POPC   C4B62818   6.129  26.794   7.350
 9336POPC   NC362819  14.358   6.614   5.550
 9336POPC   PO462820  14.399   6.598   5.850
 9336POPC   GL162821  14.357   6.634   6.150
 9336POPC   GL262822  14.486   6.626   6.150
 9336POPC   C1A62823  14.413   6.680   6.450
 9336POPC   D2A62824  14.391   6.680   6.750
 9336POPC   C3A62825  14.402   6.692   7.050
 9336POPC   C4A62826  14.420   6.634   7.350
 9336POPC   C1B62827  14.586   6.494   6.450
 9336POPC   C2B62828  14.622   6.530   6.750
 9336POPC   C3B62829  14.657   6.529   7.050
 9336POPC   C4B62830  14.599   6.516   7.350
 9337POPC   NC362831  27.546  26.793   5.550
 9337POPC   PO462832  27.617  26.851   5.850
 9337POPC   GL162833  27.557  26.827   6.150
 9337POPC   GL262834  27.680  26.944   6.150
 9337POPC   C1A62835  27.559  26.846   6.450
 9337POPC   D2A62836  27.556  26.843   6.750
 9337POPC   C3A62837  27.632  26.847   7.050
 9337POPC   C4A62838  27.620  26.841   7.350
 9337POPC   C1B62839  27.796  26.981   6.450
 9337POPC   C2B62840  27.773  27.012   6.750
 9337POPC   C3B62841  27.736  27.032   7.050
 9337POPC   C4B62842  27.779  27.027   7.350
 9338POPC   NC362843  43.087  22.928   5.550
 9338POPC   PO462844  43.125  22.940   5.850
 9338POPC   GL162845  43.140  22.896   6.150
 9338POPC   GL262846  43.268  22.882   6.150
 9338POPC   C1A62847  43.144  22.943   6.450
 9338POPC   D2A62848  43.119  22.914   6.750
 9338POPC   C3A62849  43.138  22.953   7.050
 9338POPC   C4A62850  43.103  22.903   7.350
 9338POPC   C1B62851  43.321  22.860   6.450
 9338POPC   C2B62852  43.343  22.876   6.750
 9338POPC   C3B62853  43.310  22.893   7.050
 9338POPC   C4B62854  43.335  22.851   7.350
 9339POPC   NC362855  42.366  43.887   5.550
 9339POPC   PO462856  42.347  43.932   5.850
 9339POPC   GL162857  42.353  43.900   6.150
 9339POPC   GL262858  42.366  44.048   6.150
 9339POPC   C1A62859  42.305  43.868   6.450
 9339POPC   D2A62860  42.357  43.930   6.750
 9339POPC   C3A62861  42.307  43.900   7.050
 9339POPC   C4A62862  42.292  43.872   7.350
 9339POPC   C1B62863  42.328  44.113   6.450
 9339POPC   C2B62864  42.293  44.160   6.750
 9339POPC   C3B62865  42.347  44.164   7.050
 9339POPC   C4B62866  42.274  44.091   7.350
 9340POPC   NC362867  24.502   6.687   5.550
 9340POPC   PO462868  24.533   6.645   5.850
 9340POPC   GL162869  24.455   6.681   6.150
 9340POPC   GL262870  24.392   6.680   6.150
 9340POPC   C1A62871  24.498   6.686   6.450
 9340POPC   D2A62872  24.447   6.615   6.750
 9340POPC   C3A62873  24.493   6.689   7.050
 9340POPC   C4A62874  24.458   6.634   7.350
 9340POPC   C1B62875  24.262   6.646   6.450
 9340POPC   C2B62876  24.282   6.741   6.750
 9340POPC   C3B62877  24.276   6.741   7.050
 9340POPC   C4B62878  24.200   6.676   7.350
 9341POPC   NC362879  12.884   7.461   5.550
 9341POPC   PO462880  12.835   7.421   5.850
 9341POPC   GL162881  12.865   7.458   6.150
 9341POPC   GL262882  12.760   7.399   6.150
 9341POPC   C1A62883  12.877   7.453   6.450
 9341POPC   D2A62884  12.877   7.419   6.750
 9341POPC   C3A62885  12.882   7.469   7.050
 9341POPC   C4A62886  12.886   7.406   7.350
 9341POPC   C1B62887  12.648   7.398   6.450
 9341POPC   C2B62888  12.600   7.380   6.750
 9341POPC   C3B62889  12.608   7.387   7.050
 9341POPC   C4B62890  12.570   7.336   7.350
 9342POPC   NC362891  15.161  36.925   5.550
 9342POPC   PO462892  15.140  36.922   5.850
 9342POPC   GL162893  15.171  36.882   6.150
 9342POPC   GL262894  15.303  37.045   6.150
 9342POPC   C1A62895  15.132  36.883   6.450
 9342POPC   D2A62896  15.149  36.864   6.750
 9342POPC   C3A62897  15.214  36.938   7.050
 9342POPC   C4A62898  15.213  36.919   7.350
 9342POPC   C1B62899  15.311  37.058   6.450
 9342POPC   C2B62900  15.312  37.071   6.750
 9342POPC   C3B62901  15.319  37.103   7.050
 9342POPC   C4B62902  15.329  37.111   7.350
 9343POPC   NC362903  18.261   6.686   5.550
 9343POPC   PO462904  18.321   6.613   5.850
 9343POPC   GL162905  18.240   6.616   6.150
 9343POPC   GL262906  18.356   6.541   6.150
 9343POPC   C1A62907  18.256   6.677   6.450
 9343POPC   D2A62908  18.293   6.678   6.750
 9343POPC   C3A62909  18.235   6.640   7.050
 9343POPC   C4A62910  18.308   6.650   7.350
 9343POPC   C1B62911  18.403   6.429   6.450
 9343POPC   C2B62912  18.385   6.457   6.750
 9343POPC   C3B62913  18.346   6.366   7.050
 9343POPC   C4B62914  18.346   6.411   7.350
 9344POPC   NC362915  22.940  26.008   5.550
 9344POPC   PO462916  22.927  26.054   5.850
 9344POPC   GL162917  22.980  26.051   6.150
 9344POPC   GL262918  22.775  25.961   6.150
 9344POPC   C1A62919  22.902  26.029   6.450
 9344POPC   D2A62920  22.897  26.074   6.750
 9344POPC   C3A62921  22.979  26.045   7.050
 9344POPC   C4A62922  22.976  26.025   7.350
 9344POPC   C1B62923  22.674  25.946   6.450
 9344POPC   C2B62924  22.733  25.948   6.750
 9344POPC   C3B62925  22.672  25.946   7.050
 9344POPC   C4B62926  22.743  25.979   7.350
 9345POPC   NC362927  15.132  40.764   5.550
 9345POPC   PO462928  15.208  40.776   5.850
 9345POPC   GL162929  15.154  40.755   6.150
 9345POPC   GL262930  15.318  40.724   6.150
 9345POPC   C1A62931  15.214  40.767   6.450
 9345POPC   D2A62932  15.190  40.815   6.750
 9345POPC   C3A62933  15.228  40.792   7.050
 9345POPC   C4A62934  15.219  40.768   7.350
 9345POPC   C1B62935  15.428  40.719   6.450
 9345POPC   C2B62936  15.387  40.741   6.750
 9345POPC   C3B62937  15.391  40.718   7.050
 9345POPC   C4B62938  15.399  40.732   7.350
 9346POPC   NC362939   8.170   1.953   5.550
 9346POPC   PO462940   8.177   2.034   5.850
 9346POPC   GL162941   8.164   1.998   6.150
 9346POPC   GL262942   8.291   2.012   6.150
 9346POPC   C1A62943   8.209   2.026   6.450
 9346POPC   D2A62944   8.167   1.991   6.750
 9346POPC   C3A62945   8.197   1.994   7.050
 9346POPC   C4A62946   8.211   1.946   7.350
 9346POPC   C1B62947   8.452   1.920   6.450
 9346POPC   C2B62948   8.463   1.974   6.750
 9346POPC   C3B62949   8.422   1.953   7.050
 9346POPC   C4B62950   8.454   1.945   7.350
 9347POPC   NC362951  36.856  22.941   5.550
 9347POPC   PO462952  36.933  22.936   5.850
 9347POPC   GL162953  36.857  22.970   6.150
 9347POPC   GL262954  37.026  22.841   6.150
 9347POPC   C1A62955  36.920  22.914   6.450
 9347POPC   D2A62956  36.938  22.922   6.750
 9347POPC   C3A62957  36.865  22.920   7.050
 9347POPC   C4A62958  36.914  22.910   7.350
 9347POPC   C1B62959  37.111  22.872   6.450
 9347POPC   C2B62960  37.119  22.845   6.750
 9347POPC   C3B62961  37.140  22.884   7.050
 9347POPC   C4B62962  37.170  22.867   7.350
 9348POPC   NC362963  43.147  43.847   5.550
 9348POPC   PO462964  43.093  43.920   5.850
 9348POPC   GL162965  43.110  43.873   6.150
 9348POPC   GL262966  43.136  43.978   6.150
 9348POPC   C1A62967  43.073  43.906   6.450
 9348POPC   D2A62968  43.114  43.854   6.750
 9348POPC   C3A62969  43.147  43.855   7.050
 9348POPC   C4A62970  43.069  43.857   7.350
 9348POPC   C1B62971  43.198  44.124   6.450
 9348POPC   C2B62972  43.223  44.069   6.750
 9348POPC   C3B62973  43.226  44.075   7.050
 9348POPC   C4B62974  43.174  44.163   7.350
 9349POPC   NC362975  32.292   0.389   5.550
 9349POPC   PO462976  32.248   0.432   5.850
 9349POPC   GL162977  32.200   0.393   6.150
 9349POPC   GL262978  32.376   0.343   6.150
 9349POPC   C1A62979  32.269   0.416   6.450
 9349POPC   D2A62980  32.280   0.403   6.750
 9349POPC   C3A62981  32.253   0.423   7.050
 9349POPC   C4A62982  32.291   0.440   7.350
 9349POPC   C1B62983  32.494   0.326   6.450
 9349POPC   C2B62984  32.486   0.326   6.750
 9349POPC   C3B62985  32.490   0.299   7.050
 9349POPC   C4B62986  32.440   0.319   7.350
 9350POPC   NC362987  13.672  43.880   5.550
 9350POPC   PO462988  13.654  43.915   5.850
 9350POPC   GL162989  13.657  43.866   6.150
 9350POPC   GL262990  13.520  43.859   6.150
 9350POPC   C1A62991  13.627  43.843   6.450
 9350POPC   D2A62992  13.657  43.925   6.750
 9350POPC   C3A62993  13.658  43.890   7.050
 9350POPC   C4A62994  13.656  43.917   7.350
 9350POPC   C1B62995  13.399  43.773   6.450
 9350POPC   C2B62996  13.435  43.749   6.750
 9350POPC   C3B62997  13.429  43.801   7.050
 9350POPC   C4B62998  13.416  43.719   7.350
 9351POPC   NC362999  19.104  11.331   5.550
 9351POPC   PO463000  19.093  11.271   5.850
 9351POPC   GL163001  19.078  11.304   6.150
 9351POPC   GL263002  18.961  11.146   6.150
 9351POPC   C1A63003  19.099  11.278   6.450
 9351POPC   D2A63004  19.047  11.348   6.750
 9351POPC   C3A63005  19.097  11.264   7.050
 9351POPC   C4A63006  19.016  11.299   7.350
 9351POPC   C1B63007  18.973  11.131   6.450
 9351POPC   C2B63008  18.938  11.078   6.750
 9351POPC   C3B63009  18.947  11.075   7.050
 9351POPC   C4B63010  18.920  11.084   7.350
 9352POPC   NC363011  19.830  44.707   5.550
 9352POPC   PO463012  19.837  44.681   5.850
 9352POPC   GL163013  19.804  44.652   6.150
 9352POPC   GL263014  19.768  44.536   6.150
 9352POPC   C1A63015  19.844  44.679   6.450
 9352POPC   D2A63016  19.840  44.672   6.750
 9352POPC   C3A63017  19.826  44.666   7.050
 9352POPC   C4A63018  19.807  44.642   7.350
 9352POPC   C1B63019  19.698  44.482   6.450
 9352POPC   C2B63020  19.697  44.453   6.750
 9352POPC   C3B63021  19.707  44.424   7.050
 9352POPC   C4B63022  19.684  44.518   7.350
 9353POPC   NC363023  21.435  19.878   5.550
 9353POPC   PO463024  21.337  19.807   5.850
 9353POPC   GL163025  21.369  19.881   6.150
 9353POPC   GL263026  21.232  19.803   6.150
 9353POPC   C1A63027  21.408  19.806   6.450
 9353POPC   D2A63028  21.363  19.884   6.750
 9353POPC   C3A63029  21.425  19.861   7.050
 9353POPC   C4A63030  21.364  19.873   7.350
 9353POPC   C1B63031  21.137  19.747   6.450
 9353POPC   C2B63032  21.138  19.714   6.750
 9353POPC   C3B63033  21.123  19.729   7.050
 9353POPC   C4B63034  21.167  19.733   7.350
 9354POPC   NC363035   8.151   4.296   5.550
 9354POPC   PO463036   8.213   4.271   5.850
 9354POPC   GL163037   8.211   4.310   6.150
 9354POPC   GL263038   8.263   4.401   6.150
 9354POPC   C1A63039   8.181   4.341   6.450
 9354POPC   D2A63040   8.232   4.352   6.750
 9354POPC   C3A63041   8.164   4.321   7.050
 9354POPC   C4A63042   8.214   4.324   7.350
 9354POPC   C1B63043   8.401   4.445   6.450
 9354POPC   C2B63044   8.392   4.482   6.750
 9354POPC   C3B63045   8.422   4.486   7.050
 9354POPC   C4B63046   8.402   4.398   7.350
 9355POPC   NC363047  14.409  22.200   5.550
 9355POPC   PO463048  14.390  22.187   5.850
 9355POPC   GL163049  14.453  22.182   6.150
 9355POPC   GL263050  14.359  22.239   6.150
 9355POPC   C1A63051  14.425  22.123   6.450
 9355POPC   D2A63052  14.432  22.144   6.750
 9355POPC   C3A63053  14.377  22.177   7.050
 9355POPC   C4A63054  14.415  22.132   7.350
 9355POPC   C1B63055  14.254  22.412   6.450
 9355POPC   C2B63056  14.322  22.435   6.750
 9355POPC   C3B63057  14.266  22.340   7.050
 9355POPC   C4B63058  14.304  22.417   7.350
 9356POPC   NC363059  35.337  22.985   5.550
 9356POPC   PO463060  35.304  22.986   5.850
 9356POPC   GL163061  35.363  22.958   6.150
 9356POPC   GL263062  35.440  23.009   6.150
 9356POPC   C1A63063  35.374  22.929   6.450
 9356POPC   D2A63064  35.383  22.908   6.750
 9356POPC   C3A63065  35.361  22.944   7.050
 9356POPC   C4A63066  35.349  22.889   7.350
 9356POPC   C1B63067  35.512  23.094   6.450
 9356POPC   C2B63068  35.557  23.083   6.750
 9356POPC   C3B63069  35.582  23.119   7.050
 9356POPC   C4B63070  35.543  23.139   7.350
 9357POPC   NC363071  16.764   8.183   5.550
 9357POPC   PO463072  16.753   8.244   5.850
 9357POPC   GL163073  16.764   8.175   6.150
 9357POPC   GL263074  16.564   8.288   6.150
 9357POPC   C1A63075  16.714   8.203   6.450
 9357POPC   D2A63076  16.742   8.241   6.750
 9357POPC   C3A63077  16.710   8.173   7.050
 9357POPC   C4A63078  16.745   8.158   7.350
 9357POPC   C1B63079  16.530   8.274   6.450
 9357POPC   C2B63080  16.519   8.286   6.750
 9357POPC   C3B63081  16.535   8.270   7.050
 9357POPC   C4B63082  16.473   8.313   7.350
 9358POPC   NC363083  28.336  12.059   5.550
 9358POPC   PO463084  28.402  12.076   5.850
 9358POPC   GL163085  28.353  12.030   6.150
 9358POPC   GL263086  28.355  12.158   6.150
 9358POPC   C1A63087  28.362  12.099   6.450
 9358POPC   D2A63088  28.354  12.122   6.750
 9358POPC   C3A63089  28.382  12.026   7.050
 9358POPC   C4A63090  28.405  12.072   7.350
 9358POPC   C1B63091  28.366  12.316   6.450
 9358POPC   C2B63092  28.400  12.286   6.750
 9358POPC   C3B63093  28.406  12.300   7.050
 9358POPC   C4B63094  28.383  12.359   7.350
 9359POPC   NC363095   8.236  15.939   5.550
 9359POPC   PO463096   8.226  15.965   5.850
 9359POPC   GL163097   8.211  16.002   6.150
 9359POPC   GL263098   8.130  15.863   6.150
 9359POPC   C1A63099   8.218  15.910   6.450
 9359POPC   D2A63100   8.188  15.989   6.750
 9359POPC   C3A63101   8.189  15.997   7.050
 9359POPC   C4A63102   8.193  15.934   7.350
 9359POPC   C1B63103   8.123  15.677   6.450
 9359POPC   C2B63104   8.135  15.663   6.750
 9359POPC   C3B63105   8.126  15.680   7.050
 9359POPC   C4B63106   8.132  15.718   7.350
 9360POPC   NC363107   0.440  11.288   5.550
 9360POPC   PO463108   0.434  11.317   5.850
 9360POPC   GL163109   0.437  11.271   6.150
 9360POPC   GL263110   0.383  11.132   6.150
 9360POPC   C1A63111   0.437  11.343   6.450
 9360POPC   D2A63112   0.423  11.280   6.750
 9360POPC   C3A63113   0.406  11.265   7.050
 9360POPC   C4A63114   0.484  11.273   7.350
 9360POPC   C1B63115   0.419  11.038   6.450
 9360POPC   C2B63116   0.357  11.041   6.750
 9360POPC   C3B63117   0.342  11.030   7.050
 9360POPC   C4B63118   0.426  11.078   7.350
 9361POPC   NC363119   7.393  37.720   5.550
 9361POPC   PO463120   7.386  37.669   5.850
 9361POPC   GL163121   7.381  37.667   6.150
 9361POPC   GL263122   7.308  37.628   6.150
 9361POPC   C1A63123   7.399  37.705   6.450
 9361POPC   D2A63124   7.438  37.648   6.750
 9361POPC   C3A63125   7.450  37.725   7.050
 9361POPC   C4A63126   7.466  37.680   7.350
 9361POPC   C1B63127   7.135  37.628   6.450
 9361POPC   C2B63128   7.211  37.651   6.750
 9361POPC   C3B63129   7.222  37.626   7.050
 9361POPC   C4B63130   7.226  37.628   7.350
 9362POPC   NC363131  12.057  36.099   5.550
 9362POPC   PO463132  12.082  36.164   5.850
 9362POPC   GL163133  12.069  36.101   6.150
 9362POPC   GL263134  12.155  36.275   6.150
 9362POPC   C1A63135  12.073  36.161   6.450
 9362POPC   D2A63136  12.106  36.159   6.750
 9362POPC   C3A63137  12.072  36.098   7.050
 9362POPC   C4A63138  12.062  36.100   7.350
 9362POPC   C1B63139  12.187  36.366   6.450
 9362POPC   C2B63140  12.161  36.416   6.750
 9362POPC   C3B63141  12.153  36.357   7.050
 9362POPC   C4B63142  12.140  36.407   7.350
 9363POPC   NC363143   4.275   8.235   5.550
 9363POPC   PO463144   4.298   8.244   5.850
 9363POPC   GL163145   4.290   8.159   6.150
 9363POPC   GL263146   4.198   8.179   6.150
 9363POPC   C1A63147   4.270   8.163   6.450
 9363POPC   D2A63148   4.280   8.246   6.750
 9363POPC   C3A63149   4.356   8.230   7.050
 9363POPC   C4A63150   4.304   8.199   7.350
 9363POPC   C1B63151   4.026   8.228   6.450
 9363POPC   C2B63152   4.120   8.296   6.750
 9363POPC   C3B63153   4.082   8.226   7.050
 9363POPC   C4B63154   4.079   8.212   7.350
 9364POPC   NC363155  20.590  15.926   5.550
 9364POPC   PO463156  20.649  15.973   5.850
 9364POPC   GL163157  20.568  15.925   6.150
 9364POPC   GL263158  20.620  16.092   6.150
 9364POPC   C1A63159  20.627  15.992   6.450
 9364POPC   D2A63160  20.655  15.999   6.750
 9364POPC   C3A63161  20.655  15.952   7.050
 9364POPC   C4A63162  20.610  15.910   7.350
 9364POPC   C1B63163  20.700  16.193   6.450
 9364POPC   C2B63164  20.697  16.161   6.750
 9364POPC   C3B63165  20.687  16.218   7.050
 9364POPC   C4B63166  20.692  16.218   7.350
 9365POPC   NC363167   1.242   6.623   5.550
 9365POPC   PO463168   1.253   6.648   5.850
 9365POPC   GL163169   1.172   6.641   6.150
 9365POPC   GL263170   1.366   6.615   6.150
 9365POPC   C1A63171   1.216   6.647   6.450
 9365POPC   D2A63172   1.234   6.651   6.750
 9365POPC   C3A63173   1.253   6.645   7.050
 9365POPC   C4A63174   1.166   6.647   7.350
 9365POPC   C1B63175   1.437   6.590   6.450
 9365POPC   C2B63176   1.433   6.644   6.750
 9365POPC   C3B63177   1.474   6.625   7.050
 9365POPC   C4B63178   1.424   6.605   7.350
 9366POPC   NC363179  36.884  41.582   5.550
 9366POPC   PO463180  36.871  41.581   5.850
 9366POPC   GL163181  36.910  41.579   6.150
 9366POPC   GL263182  36.819  41.443   6.150
 9366POPC   C1A63183  36.913  41.582   6.450
 9366POPC   D2A63184  36.898  41.561   6.750
 9366POPC   C3A63185  36.866  41.586   7.050
 9366POPC   C4A63186  36.888  41.570   7.350
 9366POPC   C1B63187  36.754  41.389   6.450
 9366POPC   C2B63188  36.793  41.376   6.750
 9366POPC   C3B63189  36.749  41.383   7.050
 9366POPC   C4B63190  36.756  41.325   7.350
 9367POPC   NC363191  20.585   6.677   5.550
 9367POPC   PO463192  20.612   6.663   5.850
 9367POPC   GL163193  20.641   6.601   6.150
 9367POPC   GL263194  20.664   6.746   6.150
 9367POPC   C1A63195  20.583   6.680   6.450
 9367POPC   D2A63196  20.562   6.620   6.750
 9367POPC   C3A63197  20.650   6.675   7.050
 9367POPC   C4A63198  20.598   6.626   7.350
 9367POPC   C1B63199  20.769   6.880   6.450
 9367POPC   C2B63200  20.703   6.843   6.750
 9367POPC   C3B63201  20.684   6.833   7.050
 9367POPC   C4B63202  20.715   6.828   7.350
 9368POPC   NC363203  26.064  43.899   5.550
 9368POPC   PO463204  25.997  43.886   5.850
 9368POPC   GL163205  26.039  43.859   6.150
 9368POPC   GL263206  26.082  43.760   6.150
 9368POPC   C1A63207  26.001  43.915   6.450
 9368POPC   D2A63208  26.028  43.848   6.750
 9368POPC   C3A63209  26.069  43.907   7.050
 9368POPC   C4A63210  26.002  43.868   7.350
 9368POPC   C1B63211  26.140  43.635   6.450
 9368POPC   C2B63212  26.119  43.647   6.750
 9368POPC   C3B63213  26.099  43.693   7.050
 9368POPC   C4B63214  26.168  43.669   7.350
 9369POPC   NC363215   2.722  26.009   5.550
 9369POPC   PO463216   2.731  26.030   5.850
 9369POPC   GL163217   2.763  26.076   6.150
 9369POPC   GL263218   2.840  26.171   6.150
 9369POPC   C1A63219   2.791  26.001   6.450
 9369POPC   D2A63220   2.727  26.085   6.750
 9369POPC   C3A63221   2.723  26.089   7.050
 9369POPC   C4A63222   2.768  26.018   7.350
 9369POPC   C1B63223   2.810  26.280   6.450
 9369POPC   C2B63224   2.812  26.288   6.750
 9369POPC   C3B63225   2.785  26.239   7.050
 9369POPC   C4B63226   2.801  26.279   7.350
 9370POPC   NC363227  28.335  37.665   5.550
 9370POPC   PO463228  28.377  37.700   5.850
 9370POPC   GL163229  28.393  37.704   6.150
 9370POPC   GL263230  28.379  37.840   6.150
 9370POPC   C1A63231  28.354  37.718   6.450
 9370POPC   D2A63232  28.336  37.691   6.750
 9370POPC   C3A63233  28.354  37.655   7.050
 9370POPC   C4A63234  28.400  37.681   7.350
 9370POPC   C1B63235  28.440  37.899   6.450
 9370POPC   C2B63236  28.401  37.882   6.750
 9370POPC   C3B63237  28.388  37.937   7.050
 9370POPC   C4B63238  28.411  37.931   7.350
 9371POPC   NC363239  21.410  26.084   5.550
 9371POPC   PO463240  21.363  26.044   5.850
 9371POPC   GL163241  21.416  26.079   6.150
 9371POPC   GL263242  21.322  26.143   6.150
 9371POPC   C1A63243  21.392  26.002   6.450
 9371POPC   D2A63244  21.403  26.017   6.750
 9371POPC   C3A63245  21.384  26.091   7.050
 9371POPC   C4A63246  21.435  26.054   7.350
 9371POPC   C1B63247  21.207  26.249   6.450
 9371POPC   C2B63248  21.246  26.204   6.750
 9371POPC   C3B63249  21.271  26.264   7.050
 9371POPC   C4B63250  21.278  26.261   7.350
 9372POPC   NC363251   4.274  28.345   5.550
 9372POPC   PO463252   4.327  28.393   5.850
 9372POPC   GL163253   4.299  28.409   6.150
 9372POPC   GL263254   4.364  28.206   6.150
 9372POPC   C1A63255   4.354  28.353   6.450
 9372POPC   D2A63256   4.322  28.385   6.750
 9372POPC   C3A63257   4.346  28.379   7.050
 9372POPC   C4A63258   4.271  28.320   7.350
 9372POPC   C1B63259   4.354  28.136   6.450
 9372POPC   C2B63260   4.284  28.120   6.750
 9372POPC   C3B63261   4.339  28.141   7.050
 9372POPC   C4B63262   4.369  28.156   7.350
 9373POPC   NC363263  16.705  38.479   5.550
 9373POPC   PO463264  16.752  38.420   5.850
 9373POPC   GL163265  16.767  38.412   6.150
 9373POPC   GL263266  16.599  38.502   6.150
 9373POPC   C1A63267  16.731  38.492   6.450
 9373POPC   D2A63268  16.764  38.438   6.750
 9373POPC   C3A63269  16.733  38.420   7.050
 9373POPC   C4A63270  16.769  38.443   7.350
 9373POPC   C1B63271  16.485  38.502   6.450
 9373POPC   C2B63272  16.519  38.498   6.750
 9373POPC   C3B63273  16.470  38.519   7.050
 9373POPC   C4B63274  16.512  38.552   7.350
 9374POPC   NC363275   5.891  27.561   5.550
 9374POPC   PO463276   5.826  27.633   5.850
 9374POPC   GL163277   5.861  27.619   6.150
 9374POPC   GL263278   5.723  27.708   6.150
 9374POPC   C1A63279   5.880  27.553   6.450
 9374POPC   D2A63280   5.835  27.595   6.750
 9374POPC   C3A63281   5.834  27.587   7.050
 9374POPC   C4A63282   5.823  27.576   7.350
 9374POPC   C1B63283   5.667  27.725   6.450
 9374POPC   C2B63284   5.720  27.716   6.750
 9374POPC   C3B63285   5.704  27.706   7.050
 9374POPC   C4B63286   5.717  27.707   7.350
 9375POPC   NC363287  19.840   4.276   5.550
 9375POPC   PO463288  19.883   4.347   5.850
 9375POPC   GL163289  19.853   4.297   6.150
 9375POPC   GL263290  19.702   4.224   6.150
 9375POPC   C1A63291  19.825   4.293   6.450
 9375POPC   D2A63292  19.824   4.297   6.750
 9375POPC   C3A63293  19.801   4.338   7.050
 9375POPC   C4A63294  19.800   4.286   7.350
 9375POPC   C1B63295  19.604   4.206   6.450
 9375POPC   C2B63296  19.637   4.137   6.750
 9375POPC   C3B63297  19.659   4.174   7.050
 9375POPC   C4B63298  19.650   4.130   7.350
 9376POPC   NC363299   0.410  10.527   5.550
 9376POPC   PO463300   0.435  10.553   5.850
 9376POPC   GL163301   0.436  10.535   6.150
 9376POPC   GL263302   0.460  10.396   6.150
 9376POPC   C1A63303   0.443  10.554   6.450
 9376POPC   D2A63304   0.426  10.532   6.750
 9376POPC   C3A63305   0.403  10.505   7.050
 9376POPC   C4A63306   0.411  10.517   7.350
 9376POPC   C1B63307   0.391  10.287   6.450
 9376POPC   C2B63308   0.414  10.258   6.750
 9376POPC   C3B63309   0.358  10.270   7.050
 9376POPC   C4B63310   0.379  10.318   7.350
 9377POPC   NC363311  37.649  24.445   5.550
 9377POPC   PO463312  37.698  24.494   5.850
 9377POPC   GL163313  37.663  24.491   6.150
 9377POPC   GL263314  37.722  24.578   6.150
 9377POPC   C1A63315  37.671  24.469   6.450
 9377POPC   D2A63316  37.699  24.511   6.750
 9377POPC   C3A63317  37.648  24.498   7.050
 9377POPC   C4A63318  37.643  24.539   7.350
 9377POPC   C1B63319  37.846  24.648   6.450
 9377POPC   C2B63320  37.838  24.627   6.750
 9377POPC   C3B63321  37.851  24.657   7.050
 9377POPC   C4B63322  37.832  24.669   7.350
 9378POPC   NC363323  29.168  30.708   5.550
 9378POPC   PO463324  29.115  30.745   5.850
 9378POPC   GL163325  29.127  30.744   6.150
 9378POPC   GL263326  29.269  30.759   6.150
 9378POPC   C1A63327  29.180  30.738   6.450
 9378POPC   D2A63328  29.166  30.665   6.750
 9378POPC   C3A63329  29.172  30.709   7.050
 9378POPC   C4A63330  29.189  30.713   7.350
 9378POPC   C1B63331  29.297  30.898   6.450
 9378POPC   C2B63332  29.338  30.891   6.750
 9378POPC   C3B63333  29.327  30.847   7.050
 9378POPC   C4B63334  29.355  30.895   7.350
 9379POPC   NC363335  38.425   2.785   5.550
 9379POPC   PO463336  38.423   2.769   5.850
 9379POPC   GL163337  38.480   2.725   6.150
 9379POPC   GL263338  38.565   2.716   6.150
 9379POPC   C1A63339  38.409   2.797   6.450
 9379POPC   D2A63340  38.417   2.781   6.750
 9379POPC   C3A63341  38.420   2.761   7.050
 9379POPC   C4A63342  38.457   2.771   7.350
 9379POPC   C1B63343  38.643   2.674   6.450
 9379POPC   C2B63344  38.662   2.730   6.750
 9379POPC   C3B63345  38.686   2.638   7.050
 9379POPC   C4B63346  38.722   2.661   7.350
 9380POPC   NC363347   8.939  36.131   5.550
 9380POPC   PO463348   8.958  36.159   5.850
 9380POPC   GL163349   8.958  36.168   6.150
 9380POPC   GL263350   8.888  36.126   6.150
 9380POPC   C1A63351   9.005  36.168   6.450
 9380POPC   D2A63352   9.002  36.154   6.750
 9380POPC   C3A63353   8.929  36.097   7.050
 9380POPC   C4A63354   8.979  36.143   7.350
 9380POPC   C1B63355   8.715  36.223   6.450
 9380POPC   C2B63356   8.766  36.128   6.750
 9380POPC   C3B63357   8.744  36.174   7.050
 9380POPC   C4B63358   8.770  36.155   7.350
 9381POPC   NC363359   2.813  21.430   5.550
 9381POPC   PO463360   2.731  21.406   5.850
 9381POPC   GL163361   2.744  21.388   6.150
 9381POPC   GL263362   2.639  21.334   6.150
 9381POPC   C1A63363   2.732  21.338   6.450
 9381POPC   D2A63364   2.796  21.396   6.750
 9381POPC   C3A63365   2.754  21.381   7.050
 9381POPC   C4A63366   2.809  21.349   7.350
 9381POPC   C1B63367   2.576  21.276   6.450
 9381POPC   C2B63368   2.613  21.224   6.750
 9381POPC   C3B63369   2.558  21.225   7.050
 9381POPC   C4B63370   2.543  21.257   7.350
 9382POPC   NC363371   5.906  41.586   5.550
 9382POPC   PO463372   5.906  41.552   5.850
 9382POPC   GL163373   5.906  41.590   6.150
 9382POPC   GL263374   5.999  41.470   6.150
 9382POPC   C1A63375   5.906  41.528   6.450
 9382POPC   D2A63376   5.853  41.559   6.750
 9382POPC   C3A63377   5.852  41.532   7.050
 9382POPC   C4A63378   5.866  41.580   7.350
 9382POPC   C1B63379   6.075  41.403   6.450
 9382POPC   C2B63380   6.085  41.380   6.750
 9382POPC   C3B63381   6.055  41.430   7.050
 9382POPC   C4B63382   6.069  41.397   7.350
 9383POPC   NC363383   6.626  43.855   5.550
 9383POPC   PO463384   6.648  43.911   5.850
 9383POPC   GL163385   6.609  43.842   6.150
 9383POPC   GL263386   6.659  43.755   6.150
 9383POPC   C1A63387   6.691  43.922   6.450
 9383POPC   D2A63388   6.651  43.902   6.750
 9383POPC   C3A63389   6.671  43.867   7.050
 9383POPC   C4A63390   6.627  43.898   7.350
 9383POPC   C1B63391   6.637  43.602   6.450
 9383POPC   C2B63392   6.616  43.682   6.750
 9383POPC   C3B63393   6.608  43.587   7.050
 9383POPC   C4B63394   6.618  43.608   7.350
 9384POPC   NC363395  23.724  24.474   5.550
 9384POPC   PO463396  23.690  24.521   5.850
 9384POPC   GL163397  23.723  24.464   6.150
 9384POPC   GL263398  23.724  24.592   6.150
 9384POPC   C1A63399  23.671  24.526   6.450
 9384POPC   D2A63400  23.763  24.447   6.750
 9384POPC   C3A63401  23.673  24.477   7.050
 9384POPC   C4A63402  23.756  24.464   7.350
 9384POPC   C1B63403  23.770  24.767   6.450
 9384POPC   C2B63404  23.730  24.752   6.750
 9384POPC   C3B63405  23.715  24.751   7.050
 9384POPC   C4B63406  23.743  24.720   7.350
 9385POPC   NC363407  42.321  22.168   5.550
 9385POPC   PO463408  42.287  22.142   5.850
 9385POPC   GL163409  42.367  22.181   6.150
 9385POPC   GL263410  42.166  22.127   6.150
 9385POPC   C1A63411  42.289  22.190   6.450
 9385POPC   D2A63412  42.323  22.186   6.750
 9385POPC   C3A63413  42.344  22.188   7.050
 9385POPC   C4A63414  42.312  22.132   7.350
 9385POPC   C1B63415  42.132  22.190   6.450
 9385POPC   C2B63416  42.086  22.175   6.750
 9385POPC   C3B63417  42.054  22.106   7.050
 9385POPC   C4B63418  42.077  22.106   7.350
 9386POPC   NC363419  36.932  44.709   5.550
 9386POPC   PO463420  36.932  44.657   5.850
 9386POPC   GL163421  36.953  44.633   6.150
 9386POPC   GL263422  36.964  44.604   6.150
 9386POPC   C1A63423  36.862  44.613   6.450
 9386POPC   D2A63424  36.924  44.695   6.750
 9386POPC   C3A63425  36.880  44.676   7.050
 9386POPC   C4A63426  36.897  44.662   7.350
 9386POPC   C1B63427  37.127  44.524   6.450
 9386POPC   C2B63428  37.059  44.517   6.750
 9386POPC   C3B63429  37.132  44.512   7.050
 9386POPC   C4B63430  37.063  44.564   7.350
 9387POPC   NC363431  20.583  19.083   5.550
 9387POPC   PO463432  20.621  19.059   5.850
 9387POPC   GL163433  20.618  19.078   6.150
 9387POPC   GL263434  20.764  19.026   6.150
 9387POPC   C1A63435  20.604  19.051   6.450
 9387POPC   D2A63436  20.571  19.065   6.750
 9387POPC   C3A63437  20.632  19.060   7.050
 9387POPC   C4A63438  20.591  19.101   7.350
 9387POPC   C1B63439  20.818  18.999   6.450
 9387POPC   C2B63440  20.823  19.059   6.750
 9387POPC   C3B63441  20.840  19.027   7.050
 9387POPC   C4B63442  20.868  18.990   7.350
 9388POPC   NC363443  41.511  34.580   5.550
 9388POPC   PO463444  41.585  34.558   5.850
 9388POPC   GL163445  41.534  34.620   6.150
 9388POPC   GL263446  41.712  34.565   6.150
 9388POPC   C1A63447  41.530  34.558   6.450
 9388POPC   D2A63448  41.550  34.600   6.750
 9388POPC   C3A63449  41.600  34.575   7.050
 9388POPC   C4A63450  41.511  34.540   7.350
 9388POPC   C1B63451  41.783  34.588   6.450
 9388POPC   C2B63452  41.829  34.620   6.750
 9388POPC   C3B63453  41.854  34.592   7.050
 9388POPC   C4B63454  41.854  34.594   7.350
 9389POPC   NC363455  26.832   5.833   5.550
 9389POPC   PO463456  26.833   5.872   5.850
 9389POPC   GL163457  26.867   5.864   6.150
 9389POPC   GL263458  26.852   6.041   6.150
 9389POPC   C1A63459  26.841   5.873   6.450
 9389POPC   D2A63460  26.804   5.892   6.750
 9389POPC   C3A63461  26.807   5.871   7.050
 9389POPC   C4A63462  26.867   5.862   7.350
 9389POPC   C1B63463  26.855   6.082   6.450
 9389POPC   C2B63464  26.865   6.131   6.750
 9389POPC   C3B63465  26.893   6.146   7.050
 9389POPC   C4B63466  26.813   6.164   7.350
 9390POPC   NC363467  33.838  10.509   5.550
 9390POPC   PO463468  33.848  10.558   5.850
 9390POPC   GL163469  33.814  10.481   6.150
 9390POPC   GL263470  33.912  10.445   6.150
 9390POPC   C1A63471  33.843  10.501   6.450
 9390POPC   D2A63472  33.789  10.556   6.750
 9390POPC   C3A63473  33.793  10.549   7.050
 9390POPC   C4A63474  33.797  10.491   7.350
 9390POPC   C1B63475  34.019  10.368   6.450
 9390POPC   C2B63476  33.959  10.357   6.750
 9390POPC   C3B63477  33.977  10.409   7.050
 9390POPC   C4B63478  34.046  10.346   7.350
 9391POPC   NC363479  22.901  29.141   5.550
 9391POPC   PO463480  22.928  29.176   5.850
 9391POPC   GL163481  22.955  29.158   6.150
 9391POPC   GL263482  23.078  29.202   6.150
 9391POPC   C1A63483  22.892  29.127   6.450
 9391POPC   D2A63484  22.986  29.121   6.750
 9391POPC   C3A63485  22.932  29.102   7.050
 9391POPC   C4A63486  22.974  29.193   7.350
 9391POPC   C1B63487  23.150  29.198   6.450
 9391POPC   C2B63488  23.184  29.144   6.750
 9391POPC   C3B63489  23.175  29.169   7.050
 9391POPC   C4B63490  23.164  29.193   7.350
 9392POPC   NC363491  28.408  38.416   5.550
 9392POPC   PO463492  28.409  38.456   5.850
 9392POPC   GL163493  28.366  38.451   6.150
 9392POPC   GL263494  28.356  38.289   6.150
 9392POPC   C1A63495  28.348  38.449   6.450
 9392POPC   D2A63496  28.323  38.483   6.750
 9392POPC   C3A63497  28.342  38.407   7.050
 9392POPC   C4A63498  28.360  38.452   7.350
 9392POPC   C1B63499  28.356  38.200   6.450
 9392POPC   C2B63500  28.315  38.204   6.750
 9392POPC   C3B63501  28.308  38.217   7.050
 9392POPC   C4B63502  28.403  38.217   7.350
 9393POPC   NC363503  28.324   0.445   5.550
 9393POPC   PO463504  28.398   0.454   5.850
 9393POPC   GL163505  28.359   0.422   6.150
 9393POPC   GL263506  28.201   0.459   6.150
 9393POPC   C1A63507  28.368   0.426   6.450
 9393POPC   D2A63508  28.412   0.429   6.750
 9393POPC   C3A63509  28.407   0.427   7.050
 9393POPC   C4A63510  28.323   0.454   7.350
 9393POPC   C1B63511  28.073   0.431   6.450
 9393POPC   C2B63512  28.107   0.379   6.750
 9393POPC   C3B63513  28.091   0.450   7.050
 9393POPC   C4B63514  28.149   0.411   7.350
 9394POPC   NC363515  11.301  39.209   5.550
 9394POPC   PO463516  11.330  39.213   5.850
 9394POPC   GL163517  11.263  39.204   6.150
 9394POPC   GL263518  11.472  39.289   6.150
 9394POPC   C1A63519  11.268  39.183   6.450
 9394POPC   D2A63520  11.338  39.230   6.750
 9394POPC   C3A63521  11.257  39.192   7.050
 9394POPC   C4A63522  11.322  39.231   7.350
 9394POPC   C1B63523  11.532  39.311   6.450
 9394POPC   C2B63524  11.595  39.236   6.750
 9394POPC   C3B63525  11.536  39.286   7.050
 9394POPC   C4B63526  11.537  39.239   7.350
 9395POPC   NC363527  39.264  18.327   5.550
 9395POPC   PO463528  39.267  18.310   5.850
 9395POPC   GL163529  39.189  18.260   6.150
 9395POPC   GL263530  39.400  18.304   6.150
 9395POPC   C1A63531  39.280  18.310   6.450
 9395POPC   D2A63532  39.233  18.267   6.750
 9395POPC   C3A63533  39.240  18.267   7.050
 9395POPC   C4A63534  39.266  18.284   7.350
 9395POPC   C1B63535  39.428  18.261   6.450
 9395POPC   C2B63536  39.507  18.286   6.750
 9395POPC   C3B63537  39.491  18.225   7.050
 9395POPC   C4B63538  39.461  18.232   7.350
 9396POPC   NC363539  42.303   5.131   5.550
 9396POPC   PO463540  42.300   5.125   5.850
 9396POPC   GL163541  42.326   5.108   6.150
 9396POPC   GL263542  42.311   4.987   6.150
 9396POPC   C1A63543  42.340   5.117   6.450
 9396POPC   D2A63544  42.321   5.065   6.750
 9396POPC   C3A63545  42.323   5.119   7.050
 9396POPC   C4A63546  42.328   5.078   7.350
 9396POPC   C1B63547  42.167   4.864   6.450
 9396POPC   C2B63548  42.203   4.836   6.750
 9396POPC   C3B63549  42.251   4.910   7.050
 9396POPC   C4B63550  42.187   4.858   7.350
 9397POPC   NC363551  43.874  19.868   5.550
 9397POPC   PO463552  43.904  19.801   5.850
 9397POPC   GL163553  43.906  19.842   6.150
 9397POPC   GL263554  43.760  19.899   6.150
 9397POPC   C1A63555  43.861  19.853   6.450
 9397POPC   D2A63556  43.874  19.827   6.750
 9397POPC   C3A63557  43.874  19.856   7.050
 9397POPC   C4A63558  43.917  19.863   7.350
 9397POPC   C1B63559  43.696  19.997   6.450
 9397POPC   C2B63560  43.760  20.042   6.750
 9397POPC   C3B63561  43.675  20.063   7.050
 9397POPC   C4B63562  43.715  19.987   7.350
 9398POPC   NC363563   1.968  39.981   5.550
 9398POPC   PO463564   2.026  39.994   5.850
 9398POPC   GL163565   1.946  40.017   6.150
 9398POPC   GL263566   2.013  40.172   6.150
 9398POPC   C1A63567   2.028  39.974   6.450
 9398POPC   D2A63568   2.030  40.015   6.750
 9398POPC   C3A63569   2.024  40.013   7.050
 9398POPC   C4A63570   1.994  40.055   7.350
 9398POPC   C1B63571   2.061  40.230   6.450
 9398POPC   C2B63572   2.073  40.219   6.750
 9398POPC   C3B63573   2.107  40.204   7.050
 9398POPC   C4B63574   2.050  40.201   7.350
 9399POPC   NC363575   1.172  12.836   5.550
 9399POPC   PO463576   1.241  12.810   5.850
 9399POPC   GL163577   1.230  12.885   6.150
 9399POPC   GL263578   1.274  12.776   6.150
 9399POPC   C1A63579   1.221  12.815   6.450
 9399POPC   D2A63580   1.186  12.825   6.750
 9399POPC   C3A63581   1.215  12.858   7.050
 9399POPC   C4A63582   1.220  12.891   7.350
 9399POPC   C1B63583   1.267  12.565   6.450
 9399POPC   C2B63584   1.261  12.616   6.750
 9399POPC   C3B63585   1.249  12.654   7.050
 9399POPC   C4B63586   1.272  12.612   7.350
 9400POPC   NC363587   1.991  20.641   5.550
 9400POPC   PO463588   2.005  20.650   5.850
 9400POPC   GL163589   2.013  20.583   6.150
 9400POPC   GL263590   1.853  20.665   6.150
 9400POPC   C1A63591   1.973  20.635   6.450
 9400POPC   D2A63592   1.951  20.618   6.750
 9400POPC   C3A63593   1.951  20.626   7.050
 9400POPC   C4A63594   1.960  20.611   7.350
 9400POPC   C1B63595   1.777  20.769   6.450
 9400POPC   C2B63596   1.756  20.752   6.750
 9400POPC   C3B63597   1.820  20.799   7.050
 9400POPC   C4B63598   1.762  20.779   7.350
 9401POPC   NC363599  43.871   7.378   5.550
 9401POPC   PO463600  43.928   7.465   5.850
 9401POPC   GL163601  43.866   7.418   6.150
 9401POPC   GL263602  43.792   7.304   6.150
 9401POPC   C1A63603  43.845   7.400   6.450
 9401POPC   D2A63604  43.874   7.432   6.750
 9401POPC   C3A63605  43.911   7.452   7.050
 9401POPC   C4A63606  43.933   7.438   7.350
 9401POPC   C1B63607  43.760   7.200   6.450
 9401POPC   C2B63608  43.822   7.149   6.750
 9401POPC   C3B63609  43.760   7.164   7.050
 9401POPC   C4B63610  43.729   7.167   7.350
 9402POPC   NC363611   4.274  26.798   5.550
 9402POPC   PO463612   4.364  26.841   5.850
 9402POPC   GL163613   4.352  26.788   6.150
 9402POPC   GL263614   4.241  26.897   6.150
 9402POPC   C1A63615   4.299  26.775   6.450
 9402POPC   D2A63616   4.352  26.839   6.750
 9402POPC   C3A63617   4.340  26.841   7.050
 9402POPC   C4A63618   4.362  26.790   7.350
 9402POPC   C1B63619   4.178  27.023   6.450
 9402POPC   C2B63620   4.214  26.993   6.750
 9402POPC   C3B63621   4.251  27.081   7.050
 9402POPC   C4B63622   4.167  27.004   7.350
 9403POPC   NC363623  12.871   4.348   5.550
 9403POPC   PO463624  12.841   4.366   5.850
 9403POPC   GL163625  12.895   4.351   6.150
 9403POPC   GL263626  12.899   4.216   6.150
 9403POPC   C1A63627  12.881   4.355   6.450
 9403POPC   D2A63628  12.864   4.278   6.750
 9403POPC   C3A63629  12.875   4.270   7.050
 9403POPC   C4A63630  12.816   4.278   7.350
 9403POPC   C1B63631  12.991   4.113   6.450
 9403POPC   C2B63632  12.974   4.160   6.750
 9403POPC   C3B63633  12.984   4.094   7.050
 9403POPC   C4B63634  13.041   4.091   7.350
 9404POPC   NC363635  19.795  19.094   5.550
 9404POPC   PO463636  19.821  19.072   5.850
 9404POPC   GL163637  19.812  19.084   6.150
 9404POPC   GL263638  19.925  19.137   6.150
 9404POPC   C1A63639  19.863  19.093   6.450
 9404POPC   D2A63640  19.822  19.024   6.750
 9404POPC   C3A63641  19.823  19.057   7.050
 9404POPC   C4A63642  19.870  19.081   7.350
 9404POPC   C1B63643  20.081  19.193   6.450
 9404POPC   C2B63644  20.082  19.111   6.750
 9404POPC   C3B63645  20.097  19.153   7.050
 9404POPC   C4B63646  20.106  19.182   7.350
 9405POPC   NC363647  27.605   5.079   5.550
 9405POPC   PO463648  27.565   5.119   5.850
 9405POPC   GL163649  27.627   5.072   6.150
 9405POPC   GL263650  27.486   5.055   6.150
 9405POPC   C1A63651  27.561   5.079   6.450
 9405POPC   D2A63652  27.555   5.098   6.750
 9405POPC   C3A63653  27.565   5.142   7.050
 9405POPC   C4A63654  27.581   5.066   7.350
 9405POPC   C1B63655  27.344   5.063   6.450
 9405POPC   C2B63656  27.328   5.116   6.750
 9405POPC   C3B63657  27.341   5.034   7.050
 9405POPC   C4B63658  27.369   5.040   7.350
 9406POPC   NC363659   1.207  15.207   5.550
 9406POPC   PO463660   1.262  15.189   5.850
 9406POPC   GL163661   1.217  15.225   6.150
 9406POPC   GL263662   1.262  15.054   6.150
 9406POPC   C1A63663   1.244  15.135   6.450
 9406POPC   D2A63664   1.190  15.223   6.750
 9406POPC   C3A63665   1.238  15.160   7.050
 9406POPC   C4A63666   1.240  15.130   7.350
 9406POPC   C1B63667   1.269  14.903   6.450
 9406POPC   C2B63668   1.269  14.917   6.750
 9406POPC   C3B63669   1.293  14.991   7.050
 9406POPC   C4B63670   1.322  14.981   7.350
 9407POPC   NC363671  39.980  34.596   5.550
 9407POPC   PO463672  40.035  34.605   5.850
 9407POPC   GL163673  40.013  34.592   6.150
 9407POPC   GL263674  40.120  34.563   6.150
 9407POPC   C1A63675  40.025  34.616   6.450
 9407POPC   D2A63676  40.054  34.606   6.750
 9407POPC   C3A63677  40.040  34.543   7.050
 9407POPC   C4A63678  40.052  34.588   7.350
 9407POPC   C1B63679  40.237  34.603   6.450
 9407POPC   C2B63680  40.217  34.601   6.750
 9407POPC   C3B63681  40.219  34.606   7.050
 9407POPC   C4B63682  40.271  34.562   7.350
 9408POPC   NC363683  40.786  37.664   5.550
 9408POPC   PO463684  40.776  37.706   5.850
 9408POPC   GL163685  40.793  37.638   6.150
 9408POPC   GL263686  40.788  37.533   6.150
 9408POPC   C1A63687  40.773  37.728   6.450
 9408POPC   D2A63688  40.747  37.684   6.750
 9408POPC   C3A63689  40.741  37.692   7.050
 9408POPC   C4A63690  40.746  37.636   7.350
 9408POPC   C1B63691  40.881  37.413   6.450
 9408POPC   C2B63692  40.843  37.430   6.750
 9408POPC   C3B63693  40.902  37.471   7.050
 9408POPC   C4B63694  40.880  37.491   7.350
 9409POPC   NC363695   1.985  12.098   5.550
 9409POPC   PO463696   1.984  12.077   5.850
 9409POPC   GL163697   2.033  12.049   6.150
 9409POPC   GL263698   1.901  12.167   6.150
 9409POPC   C1A63699   1.966  12.077   6.450
 9409POPC   D2A63700   1.942  12.062   6.750
 9409POPC   C3A63701   1.955  12.114   7.050
 9409POPC   C4A63702   1.952  12.044   7.350
 9409POPC   C1B63703   1.801  12.294   6.450
 9409POPC   C2B63704   1.841  12.222   6.750
 9409POPC   C3B63705   1.837  12.239   7.050
 9409POPC   C4B63706   1.816  12.222   7.350
 9410POPC   NC363707  36.910  27.638   5.550
 9410POPC   PO463708  36.900  27.570   5.850
 9410POPC   GL163709  36.900  27.609   6.150
 9410POPC   GL263710  36.902  27.486   6.150
 9410POPC   C1A63711  36.925  27.602   6.450
 9410POPC   D2A63712  36.883  27.612   6.750
 9410POPC   C3A63713  36.927  27.595   7.050
 9410POPC   C4A63714  36.946  27.581   7.350
 9410POPC   C1B63715  36.915  27.335   6.450
 9410POPC   C2B63716  36.896  27.385   6.750
 9410POPC   C3B63717  36.927  27.364   7.050
 9410POPC   C4B63718  36.917  27.325   7.350
 9411POPC   NC363719   8.174  25.299   5.550
 9411POPC   PO463720   8.193  25.234   5.850
 9411POPC   GL163721   8.147  25.273   6.150
 9411POPC   GL263722   8.218  25.406   6.150
 9411POPC   C1A63723   8.148  25.232   6.450
 9411POPC   D2A63724   8.213  25.246   6.750
 9411POPC   C3A63725   8.214  25.289   7.050
 9411POPC   C4A63726   8.243  25.277   7.350
 9411POPC   C1B63727   8.158  25.494   6.450
 9411POPC   C2B63728   8.146  25.487   6.750
 9411POPC   C3B63729   8.195  25.478   7.050
 9411POPC   C4B63730   8.222  25.533   7.350
 9412POPC   NC363731  41.597  26.794   5.550
 9412POPC   PO463732  41.598  26.801   5.850
 9412POPC   GL163733  41.574  26.783   6.150
 9412POPC   GL263734  41.458  26.820   6.150
 9412POPC   C1A63735  41.518  26.864   6.450
 9412POPC   D2A63736  41.595  26.777   6.750
 9412POPC   C3A63737  41.512  26.806   7.050
 9412POPC   C4A63738  41.559  26.820   7.350
 9412POPC   C1B63739  41.338  26.695   6.450
 9412POPC   C2B63740  41.284  26.765   6.750
 9412POPC   C3B63741  41.296  26.783   7.050
 9412POPC   C4B63742  41.355  26.781   7.350
 9413POPC   NC363743  42.296  33.844   5.550
 9413POPC   PO463744  42.341  33.754   5.850
 9413POPC   GL163745  42.295  33.750   6.150
 9413POPC   GL263746  42.240  33.704   6.150
 9413POPC   C1A63747  42.361  33.786   6.450
 9413POPC   D2A63748  42.320  33.822   6.750
 9413POPC   C3A63749  42.292  33.799   7.050
 9413POPC   C4A63750  42.288  33.782   7.350
 9413POPC   C1B63751  42.096  33.713   6.450
 9413POPC   C2B63752  42.118  33.730   6.750
 9413POPC   C3B63753  42.140  33.696   7.050
 9413POPC   C4B63754  42.110  33.689   7.350
 9414POPC   NC363755  38.474  40.811   5.550
 9414POPC   PO463756  38.436  40.811   5.850
 9414POPC   GL163757  38.424  40.741   6.150
 9414POPC   GL263758  38.486  40.655   6.150
 9414POPC   C1A63759  38.427  40.774   6.450
 9414POPC   D2A63760  38.472  40.752   6.750
 9414POPC   C3A63761  38.422  40.798   7.050
 9414POPC   C4A63762  38.466  40.789   7.350
 9414POPC   C1B63763  38.517  40.580   6.450
 9414POPC   C2B63764  38.549  40.577   6.750
 9414POPC   C3B63765  38.602  40.511   7.050
 9414POPC   C4B63766  38.597  40.573   7.350
 9415POPC   NC363767  32.212   8.992   5.550
 9415POPC   PO463768  32.239   8.952   5.850
 9415POPC   GL163769  32.245   9.011   6.150
 9415POPC   GL263770  32.133   9.042   6.150
 9415POPC   C1A63771  32.278   8.927   6.450
 9415POPC   D2A63772  32.233   8.992   6.750
 9415POPC   C3A63773  32.281   8.981   7.050
 9415POPC   C4A63774  32.227   8.975   7.350
 9415POPC   C1B63775  32.098   9.136   6.450
 9415POPC   C2B63776  32.055   9.177   6.750
 9415POPC   C3B63777  32.043   9.116   7.050
 9415POPC   C4B63778  32.048   9.159   7.350
 9416POPC   NC363779   9.773  29.940   5.550
 9416POPC   PO463780   9.790  29.873   5.850
 9416POPC   GL163781   9.762  29.968   6.150
 9416POPC   GL263782   9.752  29.823   6.150
 9416POPC   C1A63783   9.757  29.872   6.450
 9416POPC   D2A63784   9.778  29.940   6.750
 9416POPC   C3A63785   9.778  29.887   7.050
 9416POPC   C4A63786   9.775  29.922   7.350
 9416POPC   C1B63787   9.744  29.643   6.450
 9416POPC   C2B63788   9.779  29.645   6.750
 9416POPC   C3B63789   9.754  29.638   7.050
 9416POPC   C4B63790   9.791  29.630   7.350
 9417POPC   NC363791   7.447  14.449   5.550
 9417POPC   PO463792   7.464  14.422   5.850
 9417POPC   GL163793   7.462  14.443   6.150
 9417POPC   GL263794   7.334  14.542   6.150
 9417POPC   C1A63795   7.471  14.363   6.450
 9417POPC   D2A63796   7.424  14.397   6.750
 9417POPC   C3A63797   7.433  14.412   7.050
 9417POPC   C4A63798   7.381  14.376   7.350
 9417POPC   C1B63799   7.259  14.601   6.450
 9417POPC   C2B63800   7.248  14.597   6.750
 9417POPC   C3B63801   7.279  14.585   7.050
 9417POPC   C4B63802   7.238  14.639   7.350
 9418POPC   NC363803  25.224  38.471   5.550
 9418POPC   PO463804  25.305  38.432   5.850
 9418POPC   GL163805  25.220  38.426   6.150
 9418POPC   GL263806  25.305  38.413   6.150
 9418POPC   C1A63807  25.263  38.458   6.450
 9418POPC   D2A63808  25.271  38.501   6.750
 9418POPC   C3A63809  25.246  38.422   7.050
 9418POPC   C4A63810  25.243  38.473   7.350
 9418POPC   C1B63811  25.397  38.305   6.450
 9418POPC   C2B63812  25.455  38.296   6.750
 9418POPC   C3B63813  25.396  38.283   7.050
 9418POPC   C4B63814  25.400  38.231   7.350
 9419POPC   NC363815  39.247  16.757   5.550
 9419POPC   PO463816  39.184  16.694   5.850
 9419POPC   GL163817  39.264  16.778   6.150
 9419POPC   GL263818  39.097  16.803   6.150
 9419POPC   C1A63819  39.214  16.738   6.450
 9419POPC   D2A63820  39.277  16.766   6.750
 9419POPC   C3A63821  39.249  16.723   7.050
 9419POPC   C4A63822  39.208  16.741   7.350
 9419POPC   C1B63823  39.003  16.930   6.450
 9419POPC   C2B63824  39.006  16.877   6.750
 9419POPC   C3B63825  39.050  16.909   7.050
 9419POPC   C4B63826  39.001  16.923   7.350
 9420POPC   NC363827  22.968   2.017   5.550
 9420POPC   PO463828  22.963   2.032   5.850
 9420POPC   GL163829  22.971   2.003   6.150
 9420POPC   GL263830  23.004   1.887   6.150
 9420POPC   C1A63831  22.893   2.031   6.450
 9420POPC   D2A63832  22.914   2.005   6.750
 9420POPC   C3A63833  22.958   2.018   7.050
 9420POPC   C4A63834  22.963   1.977   7.350
 9420POPC   C1B63835  23.128   1.806   6.450
 9420POPC   C2B63836  23.134   1.838   6.750
 9420POPC   C3B63837  23.114   1.842   7.050
 9420POPC   C4B63838  23.104   1.859   7.350
 9421POPC   NC363839   1.212  29.886   5.550
 9421POPC   PO463840   1.194  29.952   5.850
 9421POPC   GL163841   1.195  29.965   6.150
 9421POPC   GL263842   1.161  29.878   6.150
 9421POPC   C1A63843   1.210  29.881   6.450
 9421POPC   D2A63844   1.254  29.918   6.750
 9421POPC   C3A63845   1.183  29.889   7.050
 9421POPC   C4A63846   1.181  29.923   7.350
 9421POPC   C1B63847   1.059  29.723   6.450
 9421POPC   C2B63848   1.048  29.695   6.750
 9421POPC   C3B63849   1.031  29.777   7.050
 9421POPC   C4B63850   1.005  29.721   7.350
 9422POPC   NC363851   2.002  32.281   5.550
 9422POPC   PO463852   1.979  32.242   5.850
 9422POPC   GL163853   2.017  32.264   6.150
 9422POPC   GL263854   1.950  32.164   6.150
 9422POPC   C1A63855   2.005  32.209   6.450
 9422POPC   D2A63856   1.983  32.247   6.750
 9422POPC   C3A63857   1.973  32.282   7.050
 9422POPC   C4A63858   1.969  32.257   7.350
 9422POPC   C1B63859   1.919  32.025   6.450
 9422POPC   C2B63860   1.899  32.049   6.750
 9422POPC   C3B63861   1.903  31.968   7.050
 9422POPC   C4B63862   1.932  31.971   7.350
 9423POPC   NC363863  33.825  37.689   5.550
 9423POPC   PO463864  33.833  37.697   5.850
 9423POPC   GL163865  33.795  37.663   6.150
 9423POPC   GL263866  33.869  37.808   6.150
 9423POPC   C1A63867  33.767  37.720   6.450
 9423POPC   D2A63868  33.792  37.714   6.750
 9423POPC   C3A63869  33.754  37.636   7.050
 9423POPC   C4A63870  33.783  37.707   7.350
 9423POPC   C1B63871  33.807  37.938   6.450
 9423POPC   C2B63872  33.802  37.900   6.750
 9423POPC   C3B63873  33.822  37.907   7.050
 9423POPC   C4B63874  33.857  37.879   7.350
 9424POPC   NC363875  26.076  21.376   5.550
 9424POPC   PO463876  26.003  21.397   5.850
 9424POPC   GL163877  25.999  21.413   6.150
 9424POPC   GL263878  26.124  21.495   6.150
 9424POPC   C1A63879  26.013  21.372   6.450
 9424POPC   D2A63880  26.002  21.417   6.750
 9424POPC   C3A63881  26.009  21.432   7.050
 9424POPC   C4A63882  26.057  21.407   7.350
 9424POPC   C1B63883  26.137  21.588   6.450
 9424POPC   C2B63884  26.157  21.609   6.750
 9424POPC   C3B63885  26.174  21.614   7.050
 9424POPC   C4B63886  26.222  21.613   7.350
 9425POPC   NC363887  10.501   4.292   5.550
 9425POPC   PO463888  10.522   4.354   5.850
 9425POPC   GL163889  10.516   4.273   6.150
 9425POPC   GL263890  10.470   4.222   6.150
 9425POPC   C1A63891  10.569   4.351   6.450
 9425POPC   D2A63892  10.559   4.271   6.750
 9425POPC   C3A63893  10.479   4.365   7.050
 9425POPC   C4A63894  10.518   4.359   7.350
 9425POPC   C1B63895  10.450   4.042   6.450
 9425POPC   C2B63896  10.401   4.099   6.750
 9425POPC   C3B63897  10.414   4.044   7.050
 9425POPC   C4B63898  10.392   4.107   7.350
 9426POPC   NC363899  13.656  40.756   5.550
 9426POPC   PO463900  13.666  40.773   5.850
 9426POPC   GL163901  13.597  40.814   6.150
 9426POPC   GL263902  13.545  40.671   6.150
 9426POPC   C1A63903  13.634  40.736   6.450
 9426POPC   D2A63904  13.612  40.818   6.750
 9426POPC   C3A63905  13.588  40.752   7.050
 9426POPC   C4A63906  13.621  40.778   7.350
 9426POPC   C1B63907  13.408  40.610   6.450
 9426POPC   C2B63908  13.481  40.594   6.750
 9426POPC   C3B63909  13.392  40.669   7.050
 9426POPC   C4B63910  13.449  40.666   7.350
 9427POPC   NC363911  29.906  44.694   5.550
 9427POPC   PO463912  29.941  44.670   5.850
 9427POPC   GL163913  29.946  44.677   6.150
 9427POPC   GL263914  30.012  44.758   6.150
 9427POPC   C1A63915  29.906  44.625   6.450
 9427POPC   D2A63916  29.883  44.648   6.750
 9427POPC   C3A63917  29.959  44.616   7.050
 9427POPC   C4A63918  29.914  44.690   7.350
 9427POPC   C1B63919  30.087  44.902   6.450
 9427POPC   C2B63920  30.034  44.898   6.750
 9427POPC   C3B63921  30.102  44.892   7.050
 9427POPC   C4B63922  30.066  44.820   7.350
 9428POPC   NC363923   5.089   5.911   5.550
 9428POPC   PO463924   5.086   5.829   5.850
 9428POPC   GL163925   5.063   5.834   6.150
 9428POPC   GL263926   5.065   5.763   6.150
 9428POPC   C1A63927   5.060   5.913   6.450
 9428POPC   D2A63928   5.092   5.850   6.750
 9428POPC   C3A63929   5.111   5.878   7.050
 9428POPC   C4A63930   5.063   5.853   7.350
 9428POPC   C1B63931   5.048   5.663   6.450
 9428POPC   C2B63932   4.973   5.624   6.750
 9428POPC   C3B63933   4.974   5.584   7.050
 9428POPC   C4B63934   4.984   5.608   7.350
 9429POPC   NC363935   5.859   9.745   5.550
 9429POPC   PO463936   5.854   9.760   5.850
 9429POPC   GL163937   5.867   9.724   6.150
 9429POPC   GL263938   5.958   9.679   6.150
 9429POPC   C1A63939   5.890   9.712   6.450
 9429POPC   D2A63940   5.880   9.787   6.750
 9429POPC   C3A63941   5.849   9.774   7.050
 9429POPC   C4A63942   5.869   9.730   7.350
 9429POPC   C1B63943   6.118   9.640   6.450
 9429POPC   C2B63944   6.063   9.659   6.750
 9429POPC   C3B63945   6.107   9.687   7.050
 9429POPC   C4B63946   6.076   9.615   7.350
 9430POPC   NC363947  12.856  19.064   5.550
 9430POPC   PO463948  12.835  19.057   5.850
 9430POPC   GL163949  12.832  19.078   6.150
 9430POPC   GL263950  12.701  19.080   6.150
 9430POPC   C1A63951  12.812  19.009   6.450
 9430POPC   D2A63952  12.899  19.027   6.750
 9430POPC   C3A63953  12.851  19.078   7.050
 9430POPC   C4A63954  12.892  19.059   7.350
 9430POPC   C1B63955  12.592  19.078   6.450
 9430POPC   C2B63956  12.636  19.046   6.750
 9430POPC   C3B63957  12.608  19.099   7.050
 9430POPC   C4B63958  12.630  19.060   7.350
 9431POPC   NC363959   6.687  30.746   5.550
 9431POPC   PO463960   6.651  30.696   5.850
 9431POPC   GL163961   6.680  30.651   6.150
 9431POPC   GL263962   6.770  30.803   6.150
 9431POPC   C1A63963   6.661  30.652   6.450
 9431POPC   D2A63964   6.682  30.738   6.750
 9431POPC   C3A63965   6.646  30.724   7.050
 9431POPC   C4A63966   6.670  30.716   7.350
 9431POPC   C1B63967   6.819  30.856   6.450
 9431POPC   C2B63968   6.856  30.887   6.750
 9431POPC   C3B63969   6.819  30.854   7.050
 9431POPC   C4B63970   6.866  30.863   7.350
 9432POPC   NC363971  36.889  13.659   5.550
 9432POPC   PO463972  36.952  13.597   5.850
 9432POPC   GL163973  36.868  13.590   6.150
 9432POPC   GL263974  36.919  13.749   6.150
 9432POPC   C1A63975  36.943  13.612   6.450
 9432POPC   D2A63976  36.919  13.616   6.750
 9432POPC   C3A63977  36.899  13.606   7.050
 9432POPC   C4A63978  36.913  13.605   7.350
 9432POPC   C1B63979  37.020  13.824   6.450
 9432POPC   C2B63980  36.995  13.807   6.750
 9432POPC   C3B63981  37.059  13.890   7.050
 9432POPC   C4B63982  37.049  13.816   7.350
 9433POPC   NC363983  41.595  36.101   5.550
 9433POPC   PO463984  41.551  36.159   5.850
 9433POPC   GL163985  41.543  36.095   6.150
 9433POPC   GL263986  41.438  36.058   6.150
 9433POPC   C1A63987  41.555  36.150   6.450
 9433POPC   D2A63988  41.592  36.161   6.750
 9433POPC   C3A63989  41.561  36.098   7.050
 9433POPC   C4A63990  41.558  36.099   7.350
 9433POPC   C1B63991  41.277  36.093   6.450
 9433POPC   C2B63992  41.335  36.127   6.750
 9433POPC   C3B63993  41.305  36.053   7.050
 9433POPC   C4B63994  41.329  36.062   7.350
 9434POPC   NC363995  41.562  43.839   5.550
 9434POPC   PO463996  41.586  43.881   5.850
 9434POPC   GL163997  41.568  43.927   6.150
 9434POPC   GL263998  41.445  43.938   6.150
 9434POPC   C1A63999  41.510  43.858   6.450
 9434POPC   D2A64000  41.524  43.900   6.750
 9434POPC   C3A64001  41.553  43.877   7.050
 9434POPC   C4A64002  41.579  43.845   7.350
 9434POPC   C1B64003  41.309  44.015   6.450
 9434POPC   C2B64004  41.334  43.998   6.750
 9434POPC   C3B64005  41.350  43.985   7.050
 9434POPC   C4B64006  41.334  43.979   7.350
 9435POPC   NC364007  21.398  30.725   5.550
 9435POPC   PO464008  21.374  30.658   5.850
 9435POPC   GL164009  21.389  30.742   6.150
 9435POPC   GL264010  21.493  30.736   6.150
 9435POPC   C1A64011  21.360  30.711   6.450
 9435POPC   D2A64012  21.389  30.742   6.750
 9435POPC   C3A64013  21.353  30.714   7.050
 9435POPC   C4A64014  21.362  30.691   7.350
 9435POPC   C1B64015  21.605  30.714   6.450
 9435POPC   C2B64016  21.640  30.724   6.750
 9435POPC   C3B64017  21.624  30.691   7.050
 9435POPC   C4B64018  21.642  30.746   7.350
 9436POPC   NC364019   8.975  40.786   5.550
 9436POPC   PO464020   8.966  40.777   5.850
 9436POPC   GL164021   8.952  40.756   6.150
 9436POPC   GL264022   9.076  40.870   6.150
 9436POPC   C1A64023   8.977  40.806   6.450
 9436POPC   D2A64024   8.971  40.737   6.750
 9436POPC   C3A64025   8.958  40.806   7.050
 9436POPC   C4A64026   9.005  40.789   7.350
 9436POPC   C1B64027   9.236  40.905   6.450
 9436POPC   C2B64028   9.156  40.907   6.750
 9436POPC   C3B64029   9.191  40.899   7.050
 9436POPC   C4B64030   9.188  40.852   7.350
 9437POPC   NC364031  22.154   7.422   5.550
 9437POPC   PO464032  22.120   7.385   5.850
 9437POPC   GL164033  22.131   7.437   6.150
 9437POPC   GL264034  22.289   7.387   6.150
 9437POPC   C1A64035  22.139   7.406   6.450
 9437POPC   D2A64036  22.169   7.399   6.750
 9437POPC   C3A64037  22.116   7.373   7.050
 9437POPC   C4A64038  22.151   7.461   7.350
 9437POPC   C1B64039  22.350   7.284   6.450
 9437POPC   C2B64040  22.344   7.304   6.750
 9437POPC   C3B64041  22.315   7.248   7.050
 9437POPC   C4B64042  22.368   7.249   7.350
 9438POPC   NC364043  43.887  16.721   5.550
 9438POPC   PO464044  43.897  16.736   5.850
 9438POPC   GL164045  43.856  16.766   6.150
 9438POPC   GL264046  43.836  16.644   6.150
 9438POPC   C1A64047  43.886  16.713   6.450
 9438POPC   D2A64048  43.863  16.714   6.750
 9438POPC   C3A64049  43.890  16.749   7.050
 9438POPC   C4A64050  43.933  16.700   7.350
 9438POPC   C1B64051  43.773  16.490   6.450
 9438POPC   C2B64052  43.732  16.565   6.750
 9438POPC   C3B64053  43.737  16.510   7.050
 9438POPC   C4B64054  43.711  16.480   7.350
 9439POPC   NC364055  28.375   9.750   5.550
 9439POPC   PO464056  28.333   9.797   5.850
 9439POPC   GL164057  28.361   9.731   6.150
 9439POPC   GL264058  28.300   9.582   6.150
 9439POPC   C1A64059  28.328   9.714   6.450
 9439POPC   D2A64060  28.363   9.734   6.750
 9439POPC   C3A64061  28.397   9.778   7.050
 9439POPC   C4A64062  28.390   9.726   7.350
 9439POPC   C1B64063  28.293   9.553   6.450
 9439POPC   C2B64064  28.310   9.482   6.750
 9439POPC   C3B64065  28.249   9.481   7.050
 9439POPC   C4B64066  28.300   9.502   7.350
 9440POPC   NC364067  13.631   0.447   5.550
 9440POPC   PO464068  13.608   0.408   5.850
 9440POPC   GL164069  13.600   0.438   6.150
 9440POPC   GL264070  13.640   0.593   6.150
 9440POPC   C1A64071  13.645   0.433   6.450
 9440POPC   D2A64072  13.634   0.424   6.750
 9440POPC   C3A64073  13.584   0.467   7.050
 9440POPC   C4A64074  13.618   0.428   7.350
 9440POPC   C1B64075  13.618   0.657   6.450
 9440POPC   C2B64076  13.640   0.688   6.750
 9440POPC   C3B64077  13.625   0.725   7.050
 9440POPC   C4B64078  13.575   0.646   7.350
 9441POPC   NC364079  21.419   4.301   5.550
 9441POPC   PO464080  21.342   4.365   5.850
 9441POPC   GL164081  21.416   4.358   6.150
 9441POPC   GL264082  21.453   4.424   6.150
 9441POPC   C1A64083  21.373   4.293   6.450
 9441POPC   D2A64084  21.337   4.292   6.750
 9441POPC   C3A64085  21.420   4.299   7.050
 9441POPC   C4A64086  21.372   4.346   7.350
 9441POPC   C1B64087  21.501   4.477   6.450
 9441POPC   C2B64088  21.486   4.493   6.750
 9441POPC   C3B64089  21.555   4.557   7.050
 9441POPC   C4B64090  21.511   4.528   7.350
 9442POPC   NC364091  32.255  40.738   5.550
 9442POPC   PO464092  32.252  40.798   5.850
 9442POPC   GL164093  32.246  40.799   6.150
 9442POPC   GL264094  32.097  40.732   6.150
 9442POPC   C1A64095  32.217  40.770   6.450
 9442POPC   D2A64096  32.222  40.751   6.750
 9442POPC   C3A64097  32.246  40.755   7.050
 9442POPC   C4A64098  32.276  40.788   7.350
 9442POPC   C1B64099  31.984  40.693   6.450
 9442POPC   C2B64100  32.039  40.768   6.750
 9442POPC   C3B64101  31.976  40.727   7.050
 9442POPC   C4B64102  32.024  40.753   7.350
 9443POPC   NC364103  10.512   5.124   5.550
 9443POPC   PO464104  10.554   5.067   5.850
 9443POPC   GL164105  10.499   5.110   6.150
 9443POPC   GL264106  10.494   5.180   6.150
 9443POPC   C1A64107  10.560   5.105   6.450
 9443POPC   D2A64108  10.514   5.103   6.750
 9443POPC   C3A64109  10.478   5.077   7.050
 9443POPC   C4A64110  10.542   5.121   7.350
 9443POPC   C1B64111  10.348   5.342   6.450
 9443POPC   C2B64112  10.431   5.256   6.750
 9443POPC   C3B64113  10.387   5.265   7.050
 9443POPC   C4B64114  10.430   5.270   7.350
 9444POPC   NC364115  29.172  40.033   5.550
 9444POPC   PO464116  29.165  39.959   5.850
 9444POPC   GL164117  29.168  40.053   6.150
 9444POPC   GL264118  29.212  40.110   6.150
 9444POPC   C1A64119  29.173  40.054   6.450
 9444POPC   D2A64120  29.107  40.045   6.750
 9444POPC   C3A64121  29.160  39.984   7.050
 9444POPC   C4A64122  29.098  39.970   7.350
 9444POPC   C1B64123  29.283  40.210   6.450
 9444POPC   C2B64124  29.255  40.232   6.750
 9444POPC   C3B64125  29.206  40.226   7.050
 9444POPC   C4B64126  29.218  40.279   7.350
 9445POPC   NC364127  36.873  12.861   5.550
 9445POPC   PO464128  36.854  12.861   5.850
 9445POPC   GL164129  36.890  12.810   6.150
 9445POPC   GL264130  36.949  12.965   6.150
 9445POPC   C1A64131  36.893  12.898   6.450
 9445POPC   D2A64132  36.935  12.809   6.750
 9445POPC   C3A64133  36.945  12.817   7.050
 9445POPC   C4A64134  36.914  12.901   7.350
 9445POPC   C1B64135  37.031  13.096   6.450
 9445POPC   C2B64136  37.016  13.058   6.750
 9445POPC   C3B64137  36.963  13.131   7.050
 9445POPC   C4B64138  37.028  13.119   7.350
 9446POPC   NC364139  39.211  37.724   5.550
 9446POPC   PO464140  39.268  37.701   5.850
 9446POPC   GL164141  39.249  37.666   6.150
 9446POPC   GL264142  39.142  37.583   6.150
 9446POPC   C1A64143  39.275  37.662   6.450
 9446POPC   D2A64144  39.216  37.700   6.750
 9446POPC   C3A64145  39.231  37.701   7.050
 9446POPC   C4A64146  39.226  37.659   7.350
 9446POPC   C1B64147  39.043  37.530   6.450
 9446POPC   C2B64148  39.058  37.581   6.750
 9446POPC   C3B64149  39.009  37.492   7.050
 9446POPC   C4B64150  39.003  37.496   7.350
 9447POPC   NC364151  34.620  12.826   5.550
 9447POPC   PO464152  34.574  12.851   5.850
 9447POPC   GL164153  34.540  12.880   6.150
 9447POPC   GL264154  34.515  12.928   6.150
 9447POPC   C1A64155  34.577  12.826   6.450
 9447POPC   D2A64156  34.575  12.831   6.750
 9447POPC   C3A64157  34.537  12.829   7.050
 9447POPC   C4A64158  34.580  12.884   7.350
 9447POPC   C1B64159  34.328  13.031   6.450
 9447POPC   C2B64160  34.402  13.016   6.750
 9447POPC   C3B64161  34.382  13.036   7.050
 9447POPC   C4B64162  34.379  12.959   7.350
 9448POPC   NC364163  15.953  33.066   5.550
 9448POPC   PO464164  15.985  33.006   5.850
 9448POPC   GL164165  15.986  33.028   6.150
 9448POPC   GL264166  16.099  33.026   6.150
 9448POPC   C1A64167  15.925  33.011   6.450
 9448POPC   D2A64168  15.964  33.043   6.750
 9448POPC   C3A64169  15.998  32.984   7.050
 9448POPC   C4A64170  15.976  33.006   7.350
 9448POPC   C1B64171  16.160  33.086   6.450
 9448POPC   C2B64172  16.236  33.039   6.750
 9448POPC   C3B64173  16.243  33.064   7.050
 9448POPC   C4B64174  16.225  33.061   7.350
 9449POPC   NC364175  33.830  42.317   5.550
 9449POPC   PO464176  33.827  42.289   5.850
 9449POPC   GL164177  33.775  42.288   6.150
 9449POPC   GL264178  33.812  42.268   6.150
 9449POPC   C1A64179  33.770  42.360   6.450
 9449POPC   D2A64180  33.779  42.371   6.750
 9449POPC   C3A64181  33.767  42.358   7.050
 9449POPC   C4A64182  33.794  42.305   7.350
 9449POPC   C1B64183  33.911  42.098   6.450
 9449POPC   C2B64184  33.886  42.127   6.750
 9449POPC   C3B64185  33.939  42.082   7.050
 9449POPC   C4B64186  33.933  42.124   7.350
 9450POPC   NC364187  12.060  15.964   5.550
 9450POPC   PO464188  12.118  15.914   5.850
 9450POPC   GL164189  12.032  15.989   6.150
 9450POPC   GL264190  12.163  16.035   6.150
 9450POPC   C1A64191  12.040  15.933   6.450
 9450POPC   D2A64192  12.033  15.934   6.750
 9450POPC   C3A64193  12.030  16.003   7.050
 9450POPC   C4A64194  12.030  15.988   7.350
 9450POPC   C1B64195  12.119  16.180   6.450
 9450POPC   C2B64196  12.140  16.143   6.750
 9450POPC   C3B64197  12.196  16.196   7.050
 9450POPC   C4B64198  12.174  16.149   7.350
 9451POPC   NC364199  25.276  29.182   5.550
 9451POPC   PO464200  25.313  29.122   5.850
 9451POPC   GL164201  25.270  29.193   6.150
 9451POPC   GL264202  25.392  29.230   6.150
 9451POPC   C1A64203  25.313  29.191   6.450
 9451POPC   D2A64204  25.223  29.165   6.750
 9451POPC   C3A64205  25.239  29.190   7.050
 9451POPC   C4A64206  25.234  29.184   7.350
 9451POPC   C1B64207  25.446  29.352   6.450
 9451POPC   C2B64208  25.441  29.271   6.750
 9451POPC   C3B64209  25.493  29.293   7.050
 9451POPC   C4B64210  25.488  29.358   7.350
 9452POPC   NC364211   6.599  42.339   5.550
 9452POPC   PO464212   6.638  42.324   5.850
 9452POPC   GL164213   6.651  42.312   6.150
 9452POPC   GL264214   6.666  42.405   6.150
 9452POPC   C1A64215   6.657  42.341   6.450
 9452POPC   D2A64216   6.626  42.296   6.750
 9452POPC   C3A64217   6.597  42.368   7.050
 9452POPC   C4A64218   6.632  42.379   7.350
 9452POPC   C1B64219   6.703  42.539   6.450
 9452POPC   C2B64220   6.763  42.529   6.750
 9452POPC   C3B64221   6.707  42.538   7.050
 9452POPC   C4B64222   6.734  42.554   7.350
 9453POPC   NC364223  39.964  16.754   5.550
 9453POPC   PO464224  40.012  16.731   5.850
 9453POPC   GL164225  40.030  16.693   6.150
 9453POPC   GL264226  40.092  16.844   6.150
 9453POPC   C1A64227  39.985  16.714   6.450
 9453POPC   D2A64228  40.041  16.749   6.750
 9453POPC   C3A64229  40.056  16.753   7.050
 9453POPC   C4A64230  40.034  16.730   7.350
 9453POPC   C1B64231  40.060  16.947   6.450
 9453POPC   C2B64232  40.104  16.947   6.750
 9453POPC   C3B64233  40.125  16.975   7.050
 9453POPC   C4B64234  40.093  16.967   7.350
 9454POPC   NC364235  40.744  19.872   5.550
 9454POPC   PO464236  40.822  19.879   5.850
 9454POPC   GL164237  40.818  19.860   6.150
 9454POPC   GL264238  40.831  19.757   6.150
 9454POPC   C1A64239  40.810  19.851   6.450
 9454POPC   D2A64240  40.769  19.864   6.750
 9454POPC   C3A64241  40.787  19.868   7.050
 9454POPC   C4A64242  40.740  19.852   7.350
 9454POPC   C1B64243  40.916  19.634   6.450
 9454POPC   C2B64244  40.856  19.619   6.750
 9454POPC   C3B64245  40.914  19.582   7.050
 9454POPC   C4B64246  40.861  19.601   7.350
 9455POPC   NC364247   8.988  43.069   5.550
 9455POPC   PO464248   8.948  43.104   5.850
 9455POPC   GL164249   8.980  43.152   6.150
 9455POPC   GL264250   9.139  43.056   6.150
 9455POPC   C1A64251   8.981  43.118   6.450
 9455POPC   D2A64252   8.957  43.086   6.750
 9455POPC   C3A64253   9.018  43.089   7.050
 9455POPC   C4A64254   8.951  43.067   7.350
 9455POPC   C1B64255   9.204  43.069   6.450
 9455POPC   C2B64256   9.171  43.091   6.750
 9455POPC   C3B64257   9.222  43.030   7.050
 9455POPC   C4B64258   9.264  43.068   7.350
 9456POPC   NC364259  34.545  35.363   5.550
 9456POPC   PO464260  34.625  35.346   5.850
 9456POPC   GL164261  34.590  35.369   6.150
 9456POPC   GL264262  34.500  35.359   6.150
 9456POPC   C1A64263  34.563  35.318   6.450
 9456POPC   D2A64264  34.597  35.350   6.750
 9456POPC   C3A64265  34.544  35.388   7.050
 9456POPC   C4A64266  34.554  35.334   7.350
 9456POPC   C1B64267  34.382  35.447   6.450
 9456POPC   C2B64268  34.330  35.442   6.750
 9456POPC   C3B64269  34.331  35.467   7.050
 9456POPC   C4B64270  34.320  35.465   7.350
 9457POPC   NC364271  19.787  14.378   5.550
 9457POPC   PO464272  19.882  14.368   5.850
 9457POPC   GL164273  19.808  14.397   6.150
 9457POPC   GL264274  19.892  14.334   6.150
 9457POPC   C1A64275  19.871  14.391   6.450
 9457POPC   D2A64276  19.856  14.391   6.750
 9457POPC   C3A64277  19.857  14.416   7.050
 9457POPC   C4A64278  19.841  14.420   7.350
 9457POPC   C1B64279  20.085  14.233   6.450
 9457POPC   C2B64280  20.006  14.321   6.750
 9457POPC   C3B64281  20.084  14.305   7.050
 9457POPC   C4B64282  20.059  14.229   7.350
 9458POPC   NC364283  34.542   5.865   5.550
 9458POPC   PO464284  34.608   5.879   5.850
 9458POPC   GL164285  34.535   5.831   6.150
 9458POPC   GL264286  34.498   5.758   6.150
 9458POPC   C1A64287  34.593   5.830   6.450
 9458POPC   D2A64288  34.558   5.905   6.750
 9458POPC   C3A64289  34.543   5.885   7.050
 9458POPC   C4A64290  34.562   5.841   7.350
 9458POPC   C1B64291  34.397   5.779   6.450
 9458POPC   C2B64292  34.357   5.694   6.750
 9458POPC   C3B64293  34.382   5.734   7.050
 9458POPC   C4B64294  34.351   5.715   7.350
 9459POPC   NC364295  41.561  33.817   5.550
 9459POPC   PO464296  41.547  33.830   5.850
 9459POPC   GL164297  41.535  33.838   6.150
 9459POPC   GL264298  41.560  33.935   6.150
 9459POPC   C1A64299  41.537  33.765   6.450
 9459POPC   D2A64300  41.568  33.799   6.750
 9459POPC   C3A64301  41.549  33.827   7.050
 9459POPC   C4A64302  41.600  33.800   7.350
 9459POPC   C1B64303  41.621  34.073   6.450
 9459POPC   C2B64304  41.616  33.997   6.750
 9459POPC   C3B64305  41.684  33.998   7.050
 9459POPC   C4B64306  41.629  34.079   7.350
 9460POPC   NC364307  30.694  43.919   5.550
 9460POPC   PO464308  30.714  43.915   5.850
 9460POPC   GL164309  30.728  43.854   6.150
 9460POPC   GL264310  30.612  43.954   6.150
 9460POPC   C1A64311  30.708  43.932   6.450
 9460POPC   D2A64312  30.715  43.867   6.750
 9460POPC   C3A64313  30.712  43.935   7.050
 9460POPC   C4A64314  30.667  43.888   7.350
 9460POPC   C1B64315  30.571  44.099   6.450
 9460POPC   C2B64316  30.541  44.091   6.750
 9460POPC   C3B64317  30.568  44.077   7.050
 9460POPC   C4B64318  30.557  44.094   7.350
 9461POPC   NC364319  12.064  36.868   5.550
 9461POPC   PO464320  12.085  36.939   5.850
 9461POPC   GL164321  12.100  36.906   6.150
 9461POPC   GL264322  12.193  36.876   6.150
 9461POPC   C1A64323  12.115  36.944   6.450
 9461POPC   D2A64324  12.123  36.904   6.750
 9461POPC   C3A64325  12.077  36.920   7.050
 9461POPC   C4A64326  12.083  36.942   7.350
 9461POPC   C1B64327  12.245  36.782   6.450
 9461POPC   C2B64328  12.278  36.789   6.750
 9461POPC   C3B64329  12.306  36.815   7.050
 9461POPC   C4B64330  12.287  36.737   7.350
 9462POPC   NC364331  32.994   1.194   5.550
 9462POPC   PO464332  33.009   1.175   5.850
 9462POPC   GL164333  32.991   1.249   6.150
 9462POPC   GL264334  33.089   1.069   6.150
 9462POPC   C1A64335  33.054   1.181   6.450
 9462POPC   D2A64336  32.987   1.211   6.750
 9462POPC   C3A64337  33.009   1.175   7.050
 9462POPC   C4A64338  33.028   1.226   7.350
 9462POPC   C1B64339  33.154   0.954   6.450
 9462POPC   C2B64340  33.060   0.991   6.750
 9462POPC   C3B64341  33.132   1.002   7.050
 9462POPC   C4B64342  33.072   1.000   7.350
 9463POPC   NC364343   5.059  18.313   5.550
 9463POPC   PO464344   5.098  18.289   5.850
 9463POPC   GL164345   5.058  18.319   6.150
 9463POPC   GL264346   5.118  18.358   6.150
 9463POPC   C1A64347   5.121  18.242   6.450
 9463POPC   D2A64348   5.112  18.323   6.750
 9463POPC   C3A64349   5.112  18.280   7.050
 9463POPC   C4A64350   5.052  18.306   7.350
 9463POPC   C1B64351   5.113  18.551   6.450
 9463POPC   C2B64352   5.164  18.512   6.750
 9463POPC   C3B64353   5.139  18.569   7.050
 9463POPC   C4B64354   5.075  18.537   7.350
 9464POPC   NC364355  29.930  35.338   5.550
 9464POPC   PO464356  29.886  35.394   5.850
 9464POPC   GL164357  29.970  35.323   6.150
 9464POPC   GL264358  29.790  35.412   6.150
 9464POPC   C1A64359  29.928  35.391   6.450
 9464POPC   D2A64360  29.906  35.335   6.750
 9464POPC   C3A64361  29.895  35.336   7.050
 9464POPC   C4A64362  29.910  35.374   7.350
 9464POPC   C1B64363  29.731  35.527   6.450
 9464POPC   C2B64364  29.782  35.498   6.750
 9464POPC   C3B64365  29.766  35.489   7.050
 9464POPC   C4B64366  29.763  35.519   7.350
 9465POPC   NC364367   5.902  19.829   5.550
 9465POPC   PO464368   5.831  19.813   5.850
 9465POPC   GL164369   5.857  19.838   6.150
 9465POPC   GL264370   5.726  19.869   6.150
 9465POPC   C1A64371   5.874  19.825   6.450
 9465POPC   D2A64372   5.878  19.884   6.750
 9465POPC   C3A64373   5.837  19.844   7.050
 9465POPC   C4A64374   5.913  19.811   7.350
 9465POPC   C1B64375   5.625  19.948   6.450
 9465POPC   C2B64376   5.599  19.946   6.750
 9465POPC   C3B64377   5.651  19.977   7.050
 9465POPC   C4B64378   5.655  19.917   7.350
 9466POPC   NC364379  19.800  22.201   5.550
 9466POPC   PO464380  19.796  22.118   5.850
 9466POPC   GL164381  19.794  22.142   6.150
 9466POPC   GL264382  19.910  22.329   6.150
 9466POPC   C1A64383  19.818  22.127   6.450
 9466POPC   D2A64384  19.800  22.144   6.750
 9466POPC   C3A64385  19.869  22.148   7.050
 9466POPC   C4A64386  19.882  22.167   7.350
 9466POPC   C1B64387  19.947  22.418   6.450
 9466POPC   C2B64388  19.942  22.450   6.750
 9466POPC   C3B64389  19.872  22.384   7.050
 9466POPC   C4B64390  19.885  22.427   7.350
 9467POPC   NC364391  23.721  40.746   5.550
 9467POPC   PO464392  23.671  40.825   5.850
 9467POPC   GL164393  23.725  40.797   6.150
 9467POPC   GL264394  23.682  40.721   6.150
 9467POPC   C1A64395  23.684  40.762   6.450
 9467POPC   D2A64396  23.697  40.748   6.750
 9467POPC   C3A64397  23.684  40.735   7.050
 9467POPC   C4A64398  23.718  40.762   7.350
 9467POPC   C1B64399  23.611  40.547   6.450
 9467POPC   C2B64400  23.598  40.609   6.750
 9467POPC   C3B64401  23.548  40.561   7.050
 9467POPC   C4B64402  23.634  40.514   7.350
 9468POPC   NC364403  19.876  13.646   5.550
 9468POPC   PO464404  19.799  13.617   5.850
 9468POPC   GL164405  19.840  13.580   6.150
 9468POPC   GL264406  19.932  13.567   6.150
 9468POPC   C1A64407  19.868  13.635   6.450
 9468POPC   D2A64408  19.819  13.622   6.750
 9468POPC   C3A64409  19.820  13.578   7.050
 9468POPC   C4A64410  19.877  13.675   7.350
 9468POPC   C1B64411  20.085  13.590   6.450
 9468POPC   C2B64412  20.075  13.619   6.750
 9468POPC   C3B64413  20.059  13.586   7.050
 9468POPC   C4B64414  20.127  13.638   7.350
 9469POPC   NC364415  43.068  37.640   5.550
 9469POPC   PO464416  43.151  37.722   5.850
 9469POPC   GL164417  43.088  37.708   6.150
 9469POPC   GL264418  43.221  37.656   6.150
 9469POPC   C1A64419  43.094  37.649   6.450
 9469POPC   D2A64420  43.126  37.664   6.750
 9469POPC   C3A64421  43.101  37.681   7.050
 9469POPC   C4A64422  43.119  37.667   7.350
 9469POPC   C1B64423  43.381  37.673   6.450
 9469POPC   C2B64424  43.338  37.658   6.750
 9469POPC   C3B64425  43.316  37.669   7.050
 9469POPC   C4B64426  43.381  37.715   7.350
 9470POPC   NC364427  15.194   8.160   5.550
 9470POPC   PO464428  15.209   8.154   5.850
 9470POPC   GL164429  15.194   8.177   6.150
 9470POPC   GL264430  15.316   8.168   6.150
 9470POPC   C1A64431  15.158   8.191   6.450
 9470POPC   D2A64432  15.166   8.189   6.750
 9470POPC   C3A64433  15.198   8.236   7.050
 9470POPC   C4A64434  15.213   8.201   7.350
 9470POPC   C1B64435  15.457   8.120   6.450
 9470POPC   C2B64436  15.430   8.130   6.750
 9470POPC   C3B64437  15.378   8.135   7.050
 9470POPC   C4B64438  15.463   8.101   7.350
 9471POPC   NC364439  22.192   9.740   5.550
 9471POPC   PO464440  22.173   9.724   5.850
 9471POPC   GL164441  22.118   9.798   6.150
 9471POPC   GL264442  22.230   9.842   6.150
 9471POPC   C1A64443  22.207   9.789   6.450
 9471POPC   D2A64444  22.119   9.729   6.750
 9471POPC   C3A64445  22.191   9.728   7.050
 9471POPC   C4A64446  22.156   9.788   7.350
 9471POPC   C1B64447  22.257  10.006   6.450
 9471POPC   C2B64448  22.282  10.008   6.750
 9471POPC   C3B64449  22.265   9.946   7.050
 9471POPC   C4B64450  22.310   9.932   7.350
 9472POPC   NC364451  35.319  41.562   5.550
 9472POPC   PO464452  35.344  41.606   5.850
 9472POPC   GL164453  35.305  41.546   6.150
 9472POPC   GL264454  35.322  41.454   6.150
 9472POPC   C1A64455  35.352  41.595   6.450
 9472POPC   D2A64456  35.328  41.597   6.750
 9472POPC   C3A64457  35.314  41.549   7.050
 9472POPC   C4A64458  35.337  41.592   7.350
 9472POPC   C1B64459  35.321  41.264   6.450
 9472POPC   C2B64460  35.318  41.271   6.750
 9472POPC   C3B64461  35.372  41.332   7.050
 9472POPC   C4B64462  35.345  41.320   7.350
 9473POPC   NC364463  38.479  23.684   5.550
 9473POPC   PO464464  38.455  23.669   5.850
 9473POPC   GL164465  38.434  23.689   6.150
 9473POPC   GL264466  38.289  23.739   6.150
 9473POPC   C1A64467  38.485  23.696   6.450
 9473POPC   D2A64468  38.426  23.666   6.750
 9473POPC   C3A64469  38.428  23.739   7.050
 9473POPC   C4A64470  38.449  23.698   7.350
 9473POPC   C1B64471  38.220  23.743   6.450
 9473POPC   C2B64472  38.190  23.739   6.750
 9473POPC   C3B64473  38.195  23.713   7.050
 9473POPC   C4B64474  38.248  23.776   7.350
 9474POPC   NC364475   9.747   5.097   5.550
 9474POPC   PO464476   9.715   5.129   5.850
 9474POPC   GL164477   9.726   5.125   6.150
 9474POPC   GL264478   9.805   5.016   6.150
 9474POPC   C1A64479   9.712   5.108   6.450
 9474POPC   D2A64480   9.758   5.107   6.750
 9474POPC   C3A64481   9.713   5.060   7.050
 9474POPC   C4A64482   9.786   5.049   7.350
 9474POPC   C1B64483   9.953   4.924   6.450
 9474POPC   C2B64484   9.871   4.893   6.750
 9474POPC   C3B64485   9.947   4.912   7.050
 9474POPC   C4B64486   9.949   4.907   7.350
 9475POPC   NC364487  37.700  28.379   5.550
 9475POPC   PO464488  37.728  28.395   5.850
 9475POPC   GL164489  37.642  28.375   6.150
 9475POPC   GL264490  37.758  28.306   6.150
 9475POPC   C1A64491  37.669  28.381   6.450
 9475POPC   D2A64492  37.677  28.400   6.750
 9475POPC   C3A64493  37.669  28.385   7.050
 9475POPC   C4A64494  37.729  28.372   7.350
 9475POPC   C1B64495  37.914  28.215   6.450
 9475POPC   C2B64496  37.884  28.224   6.750
 9475POPC   C3B64497  37.907  28.223   7.050
 9475POPC   C4B64498  37.890  28.226   7.350
 9476POPC   NC364499  35.306  17.524   5.550
 9476POPC   PO464500  35.302  17.460   5.850
 9476POPC   GL164501  35.376  17.517   6.150
 9476POPC   GL264502  35.302  17.652   6.150
 9476POPC   C1A64503  35.366  17.494   6.450
 9476POPC   D2A64504  35.323  17.464   6.750
 9476POPC   C3A64505  35.376  17.493   7.050
 9476POPC   C4A64506  35.332  17.502   7.350
 9476POPC   C1B64507  35.327  17.726   6.450
 9476POPC   C2B64508  35.273  17.760   6.750
 9476POPC   C3B64509  35.340  17.729   7.050
 9476POPC   C4B64510  35.340  17.778   7.350
 9477POPC   NC364511  14.417   3.561   5.550
 9477POPC   PO464512  14.425   3.503   5.850
 9477POPC   GL164513  14.406   3.551   6.150
 9477POPC   GL264514  14.291   3.423   6.150
 9477POPC   C1A64515  14.439   3.591   6.450
 9477POPC   D2A64516  14.429   3.555   6.750
 9477POPC   C3A64517  14.410   3.514   7.050
 9477POPC   C4A64518  14.402   3.555   7.350
 9477POPC   C1B64519  14.290   3.369   6.450
 9477POPC   C2B64520  14.268   3.387   6.750
 9477POPC   C3B64521  14.302   3.335   7.050
 9477POPC   C4B64522  14.305   3.355   7.350
 9478POPC   NC364523  35.355  10.476   5.550
 9478POPC   PO464524  35.332  10.519   5.850
 9478POPC   GL164525  35.364  10.484   6.150
 9478POPC   GL264526  35.344  10.644   6.150
 9478POPC   C1A64527  35.307  10.550   6.450
 9478POPC   D2A64528  35.305  10.515   6.750
 9478POPC   C3A64529  35.337  10.516   7.050
 9478POPC   C4A64530  35.346  10.504   7.350
 9478POPC   C1B64531  35.367  10.728   6.450
 9478POPC   C2B64532  35.406  10.785   6.750
 9478POPC   C3B64533  35.368  10.728   7.050
 9478POPC   C4B64534  35.349  10.741   7.350
 9479POPC   NC364535  43.868  24.498   5.550
 9479POPC   PO464536  43.857  24.471   5.850
 9479POPC   GL164537  43.914  24.511   6.150
 9479POPC   GL264538  43.993  24.452   6.150
 9479POPC   C1A64539  43.909  24.462   6.450
 9479POPC   D2A64540  43.889  24.527   6.750
 9479POPC   C3A64541  43.852  24.443   7.050
 9479POPC   C4A64542  43.866  24.440   7.350
 9479POPC   C1B64543  44.130  24.421   6.450
 9479POPC   C2B64544  44.155  24.400   6.750
 9479POPC   C3B64545  44.149  24.415   7.050
 9479POPC   C4B64546  44.078  24.432   7.350
 9480POPC   NC364547  16.754  13.593   5.550
 9480POPC   PO464548  16.686  13.620   5.850
 9480POPC   GL164549  16.747  13.615   6.150
 9480POPC   GL264550  16.621  13.480   6.150
 9480POPC   C1A64551  16.751  13.612   6.450
 9480POPC   D2A64552  16.714  13.669   6.750
 9480POPC   C3A64553  16.700  13.592   7.050
 9480POPC   C4A64554  16.726  13.637   7.350
 9480POPC   C1B64555  16.613  13.474   6.450
 9480POPC   C2B64556  16.560  13.423   6.750
 9480POPC   C3B64557  16.568  13.439   7.050
 9480POPC   C4B64558  16.569  13.436   7.350
 9481POPC   NC364559   2.773  23.736   5.550
 9481POPC   PO464560   2.733  23.703   5.850
 9481POPC   GL164561   2.772  23.679   6.150
 9481POPC   GL264562   2.792  23.802   6.150
 9481POPC   C1A64563   2.748  23.671   6.450
 9481POPC   D2A64564   2.776  23.690   6.750
 9481POPC   C3A64565   2.809  23.680   7.050
 9481POPC   C4A64566   2.814  23.756   7.350
 9481POPC   C1B64567   2.875  23.923   6.450
 9481POPC   C2B64568   2.848  23.961   6.750
 9481POPC   C3B64569   2.838  23.900   7.050
 9481POPC   C4B64570   2.838  23.919   7.350
 9482POPC   NC364571  39.281  20.646   5.550
 9482POPC   PO464572  39.248  20.638   5.850
 9482POPC   GL164573  39.184  20.564   6.150
 9482POPC   GL264574  39.194  20.469   6.150
 9482POPC   C1A64575  39.269  20.597   6.450
 9482POPC   D2A64576  39.278  20.612   6.750
 9482POPC   C3A64577  39.271  20.639   7.050
 9482POPC   C4A64578  39.185  20.589   7.350
 9482POPC   C1B64579  39.199  20.372   6.450
 9482POPC   C2B64580  39.237  20.368   6.750
 9482POPC   C3B64581  39.207  20.359   7.050
 9482POPC   C4B64582  39.284  20.361   7.350
 9483POPC   NC364583  43.896  38.427   5.550
 9483POPC   PO464584  43.925  38.495   5.850
 9483POPC   GL164585  43.852  38.458   6.150
 9483POPC   GL264586  43.714  38.468   6.150
 9483POPC   C1A64587  43.931  38.444   6.450
 9483POPC   D2A64588  43.917  38.458   6.750
 9483POPC   C3A64589  43.880  38.429   7.050
 9483POPC   C4A64590  43.841  38.490   7.350
 9483POPC   C1B64591  43.687  38.476   6.450
 9483POPC   C2B64592  43.639  38.528   6.750
 9483POPC   C3B64593  43.672  38.492   7.050
 9483POPC   C4B64594  43.645  38.500   7.350
 9484POPC   NC364595  22.967  32.997   5.550
 9484POPC   PO464596  22.967  33.051   5.850
 9484POPC   GL164597  22.929  33.022   6.150
 9484POPC   GL264598  22.966  32.932   6.150
 9484POPC   C1A64599  22.946  33.039   6.450
 9484POPC   D2A64600  22.928  33.066   6.750
 9484POPC   C3A64601  22.942  32.997   7.050
 9484POPC   C4A64602  22.898  33.043   7.350
 9484POPC   C1B64603  23.055  32.810   6.450
 9484POPC   C2B64604  23.096  32.766   6.750
 9484POPC   C3B64605  23.071  32.801   7.050
 9484POPC   C4B64606  23.103  32.840   7.350
 9485POPC   NC364607  40.765   0.475   5.550
 9485POPC   PO464608  40.770   0.422   5.850
 9485POPC   GL164609  40.740   0.414   6.150
 9485POPC   GL264610  40.716   0.591   6.150
 9485POPC   C1A64611  40.761   0.434   6.450
 9485POPC   D2A64612  40.830   0.468   6.750
 9485POPC   C3A64613  40.822   0.448   7.050
 9485POPC   C4A64614  40.791   0.459   7.350
 9485POPC   C1B64615  40.720   0.686   6.450
 9485POPC   C2B64616  40.762   0.649   6.750
 9485POPC   C3B64617  40.705   0.687   7.050
 9485POPC   C4B64618  40.698   0.658   7.350
 9486POPC   NC364619  23.696  39.248   5.550
 9486POPC   PO464620  23.664  39.207   5.850
 9486POPC   GL164621  23.705  39.265   6.150
 9486POPC   GL264622  23.740  39.070   6.150
 9486POPC   C1A64623  23.730  39.225   6.450
 9486POPC   D2A64624  23.752  39.258   6.750
 9486POPC   C3A64625  23.713  39.183   7.050
 9486POPC   C4A64626  23.755  39.188   7.350
 9486POPC   C1B64627  23.705  39.018   6.450
 9486POPC   C2B64628  23.678  38.953   6.750
 9486POPC   C3B64629  23.694  39.022   7.050
 9486POPC   C4B64630  23.676  39.019   7.350
 9487POPC   NC364631  26.770   0.417   5.550
 9487POPC   PO464632  26.813   0.394   5.850
 9487POPC   GL164633  26.802   0.444   6.150
 9487POPC   GL264634  26.860   0.346   6.150
 9487POPC   C1A64635  26.859   0.477   6.450
 9487POPC   D2A64636  26.808   0.417   6.750
 9487POPC   C3A64637  26.806   0.462   7.050
 9487POPC   C4A64638  26.843   0.397   7.350
 9487POPC   C1B64639  27.037   0.281   6.450
 9487POPC   C2B64640  27.007   0.251   6.750
 9487POPC   C3B64641  27.010   0.292   7.050
 9487POPC   C4B64642  26.968   0.216   7.350
 9488POPC   NC364643  32.230  43.896   5.550
 9488POPC   PO464644  32.249  43.894   5.850
 9488POPC   GL164645  32.200  43.911   6.150
 9488POPC   GL264646  32.247  43.754   6.150
 9488POPC   C1A64647  32.213  43.918   6.450
 9488POPC   D2A64648  32.214  43.853   6.750
 9488POPC   C3A64649  32.246  43.920   7.050
 9488POPC   C4A64650  32.296  43.841   7.350
 9488POPC   C1B64651  32.289  43.598   6.450
 9488POPC   C2B64652  32.352  43.623   6.750
 9488POPC   C3B64653  32.276  43.681   7.050
 9488POPC   C4B64654  32.308  43.594   7.350
 9489POPC   NC364655  20.569  41.601   5.550
 9489POPC   PO464656  20.660  41.566   5.850
 9489POPC   GL164657  20.595  41.554   6.150
 9489POPC   GL264658  20.683  41.503   6.150
 9489POPC   C1A64659  20.645  41.606   6.450
 9489POPC   D2A64660  20.624  41.535   6.750
 9489POPC   C3A64661  20.649  41.534   7.050
 9489POPC   C4A64662  20.645  41.558   7.350
 9489POPC   C1B64663  20.834  41.463   6.450
 9489POPC   C2B64664  20.795  41.457   6.750
 9489POPC   C3B64665  20.862  41.478   7.050
 9489POPC   C4B64666  20.807  41.433   7.350
 9490POPC   NC364667  28.392  33.039   5.550
 9490POPC   PO464668  28.395  33.008   5.850
 9490POPC   GL164669  28.382  32.990   6.150
 9490POPC   GL264670  28.282  32.934   6.150
 9490POPC   C1A64671  28.357  33.033   6.450
 9490POPC   D2A64672  28.346  33.030   6.750
 9490POPC   C3A64673  28.394  33.037   7.050
 9490POPC   C4A64674  28.331  33.028   7.350
 9490POPC   C1B64675  28.206  32.878   6.450
 9490POPC   C2B64676  28.147  32.815   6.750
 9490POPC   C3B64677  28.181  32.849   7.050
 9490POPC   C4B64678  28.202  32.887   7.350
 9491POPC   NC364679  35.388  40.813   5.550
 9491POPC   PO464680  35.319  40.783   5.850
 9491POPC   GL164681  35.330  40.776   6.150
 9491POPC   GL264682  35.307  40.685   6.150
 9491POPC   C1A64683  35.326  40.793   6.450
 9491POPC   D2A64684  35.369  40.798   6.750
 9491POPC   C3A64685  35.302  40.803   7.050
 9491POPC   C4A64686  35.381  40.789   7.350
 9491POPC   C1B64687  35.357  40.518   6.450
 9491POPC   C2B64688  35.284  40.571   6.750
 9491POPC   C3B64689  35.321  40.554   7.050
 9491POPC   C4B64690  35.355  40.545   7.350
 9492POPC   NC364691  29.178  44.622   5.550
 9492POPC   PO464692  29.128  44.691   5.850
 9492POPC   GL164693  29.172  44.629   6.150
 9492POPC   GL264694  29.205  44.499   6.150
 9492POPC   C1A64695  29.161  44.659   6.450
 9492POPC   D2A64696  29.157  44.666   6.750
 9492POPC   C3A64697  29.124  44.630   7.050
 9492POPC   C4A64698  29.153  44.703   7.350
 9492POPC   C1B64699  29.194  44.384   6.450
 9492POPC   C2B64700  29.208  44.457   6.750
 9492POPC   C3B64701  29.262  44.419   7.050
 9492POPC   C4B64702  29.219  44.468   7.350
 9493POPC   NC364703  31.430  22.130   5.550
 9493POPC   PO464704  31.499  22.122   5.850
 9493POPC   GL164705  31.490  22.172   6.150
 9493POPC   GL264706  31.459  22.276   6.150
 9493POPC   C1A64707  31.507  22.116   6.450
 9493POPC   D2A64708  31.444  22.137   6.750
 9493POPC   C3A64709  31.501  22.138   7.050
 9493POPC   C4A64710  31.488  22.203   7.350
 9493POPC   C1B64711  31.555  22.401   6.450
 9493POPC   C2B64712  31.496  22.370   6.750
 9493POPC   C3B64713  31.516  22.385   7.050
 9493POPC   C4B64714  31.567  22.360   7.350
 9494POPC   NC364715  13.640  39.277   5.550
 9494POPC   PO464716  13.602  39.264   5.850
 9494POPC   GL164717  13.644  39.190   6.150
 9494POPC   GL264718  13.543  39.332   6.150
 9494POPC   C1A64719  13.665  39.225   6.450
 9494POPC   D2A64720  13.619  39.276   6.750
 9494POPC   C3A64721  13.667  39.200   7.050
 9494POPC   C4A64722  13.665  39.272   7.350
 9494POPC   C1B64723  13.427  39.392   6.450
 9494POPC   C2B64724  13.386  39.333   6.750
 9494POPC   C3B64725  13.407  39.372   7.050
 9494POPC   C4B64726  13.395  39.420   7.350
 9495POPC   NC364727  29.128   8.241   5.550
 9495POPC   PO464728  29.182   8.217   5.850
 9495POPC   GL164729  29.135   8.209   6.150
 9495POPC   GL264730  29.213   8.162   6.150
 9495POPC   C1A64731  29.099   8.219   6.450
 9495POPC   D2A64732  29.124   8.174   6.750
 9495POPC   C3A64733  29.139   8.226   7.050
 9495POPC   C4A64734  29.101   8.160   7.350
 9495POPC   C1B64735  29.357   8.044   6.450
 9495POPC   C2B64736  29.350   8.018   6.750
 9495POPC   C3B64737  29.300   8.082   7.050
 9495POPC   C4B64738  29.305   8.008   7.350
 9496POPC   NC364739  29.911  32.976   5.550
 9496POPC   PO464740  29.879  33.032   5.850
 9496POPC   GL164741  29.892  33.000   6.150
 9496POPC   GL264742  30.010  32.923   6.150
 9496POPC   C1A64743  29.901  33.012   6.450
 9496POPC   D2A64744  29.967  33.020   6.750
 9496POPC   C3A64745  29.945  33.066   7.050
 9496POPC   C4A64746  29.964  33.016   7.350
 9496POPC   C1B64747  30.020  32.785   6.450
 9496POPC   C2B64748  30.084  32.801   6.750
 9496POPC   C3B64749  30.017  32.772   7.050
 9496POPC   C4B64750  30.021  32.837   7.350
 9497POPC   NC364751  29.192  27.605   5.550
 9497POPC   PO464752  29.170  27.557   5.850
 9497POPC   GL164753  29.157  27.593   6.150
 9497POPC   GL264754  29.232  27.438   6.150
 9497POPC   C1A64755  29.191  27.561   6.450
 9497POPC   D2A64756  29.127  27.596   6.750
 9497POPC   C3A64757  29.113  27.575   7.050
 9497POPC   C4A64758  29.142  27.617   7.350
 9497POPC   C1B64759  29.210  27.397   6.450
 9497POPC   C2B64760  29.193  27.408   6.750
 9497POPC   C3B64761  29.208  27.400   7.050
 9497POPC   C4B64762  29.190  27.368   7.350
 9498POPC   NC364763  11.290  15.189   5.550
 9498POPC   PO464764  11.347  15.209   5.850
 9498POPC   GL164765  11.323  15.227   6.150
 9498POPC   GL264766  11.185  15.051   6.150
 9498POPC   C1A64767  11.321  15.185   6.450
 9498POPC   D2A64768  11.285  15.212   6.750
 9498POPC   C3A64769  11.289  15.222   7.050
 9498POPC   C4A64770  11.304  15.219   7.350
 9498POPC   C1B64771  11.165  14.975   6.450
 9498POPC   C2B64772  11.157  15.028   6.750
 9498POPC   C3B64773  11.103  14.993   7.050
 9498POPC   C4B64774  11.141  15.013   7.350
 9499POPC   NC364775  10.493  36.946   5.550
 9499POPC   PO464776  10.540  36.870   5.850
 9499POPC   GL164777  10.548  36.862   6.150
 9499POPC   GL264778  10.418  36.970   6.150
 9499POPC   C1A64779  10.550  36.866   6.450
 9499POPC   D2A64780  10.531  36.885   6.750
 9499POPC   C3A64781  10.507  36.934   7.050
 9499POPC   C4A64782  10.546  36.932   7.350
 9499POPC   C1B64783  10.297  37.032   6.450
 9499POPC   C2B64784  10.377  37.091   6.750
 9499POPC   C3B64785  10.391  37.056   7.050
 9499POPC   C4B64786  10.331  37.086   7.350
 9500POPC   NC364787   1.178  40.799   5.550
 9500POPC   PO464788   1.255  40.820   5.850
 9500POPC   GL164789   1.164  40.818   6.150
 9500POPC   GL264790   1.103  40.741   6.150
 9500POPC   C1A64791   1.171  40.773   6.450
 9500POPC   D2A64792   1.165  40.796   6.750
 9500POPC   C3A64793   1.249  40.739   7.050
 9500POPC   C4A64794   1.195  40.824   7.350
 9500POPC   C1B64795   1.015  40.642   6.450
 9500POPC   C2B64796   1.003  40.614   6.750
 9500POPC   C3B64797   1.005  40.684   7.050
 9500POPC   C4B64798   1.015  40.672   7.350
 9501POPC   NC364799  27.599  22.161   5.550
 9501POPC   PO464800  27.559  22.184   5.850
 9501POPC   GL164801  27.619  22.185   6.150
 9501POPC   GL264802  27.693  22.153   6.150
 9501POPC   C1A64803  27.581  22.190   6.450
 9501POPC   D2A64804  27.580  22.201   6.750
 9501POPC   C3A64805  27.592  22.157   7.050
 9501POPC   C4A64806  27.570  22.162   7.350
 9501POPC   C1B64807  27.825  22.119   6.450
 9501POPC   C2B64808  27.832  22.041   6.750
 9501POPC   C3B64809  27.842  22.072   7.050
 9501POPC   C4B64810  27.863  22.093   7.350
 9502POPC   NC364811  37.647  33.780   5.550
 9502POPC   PO464812  37.721  33.805   5.850
 9502POPC   GL164813  37.668  33.847   6.150
 9502POPC   GL264814  37.757  33.804   6.150
 9502POPC   C1A64815  37.719  33.751   6.450
 9502POPC   D2A64816  37.630  33.768   6.750
 9502POPC   C3A64817  37.686  33.823   7.050
 9502POPC   C4A64818  37.656  33.792   7.350
 9502POPC   C1B64819  37.935  33.706   6.450
 9502POPC   C2B64820  37.906  33.760   6.750
 9502POPC   C3B64821  37.924  33.758   7.050
 9502POPC   C4B64822  37.876  33.755   7.350
 9503POPC   NC364823   1.200  30.681   5.550
 9503POPC   PO464824   1.259  30.745   5.850
 9503POPC   GL164825   1.171  30.690   6.150
 9503POPC   GL264826   1.367  30.590   6.150
 9503POPC   C1A64827   1.173  30.668   6.450
 9503POPC   D2A64828   1.194  30.746   6.750
 9503POPC   C3A64829   1.258  30.723   7.050
 9503POPC   C4A64830   1.210  30.734   7.350
 9503POPC   C1B64831   1.466  30.586   6.450
 9503POPC   C2B64832   1.446  30.610   6.750
 9503POPC   C3B64833   1.473  30.574   7.050
 9503POPC   C4B64834   1.438  30.614   7.350
 9504POPC   NC364835  44.682   5.820   5.550
 9504POPC   PO464836  44.703   5.872   5.850
 9504POPC   GL164837  44.696   5.891   6.150
 9504POPC   GL264838  44.503   5.835   6.150
 9504POPC   C1A64839  44.642   5.819   6.450
 9504POPC   D2A64840  44.686   5.856   6.750
 9504POPC   C3A64841  44.639   5.866   7.050
 9504POPC   C4A64842  44.626   5.855   7.350
 9504POPC   C1B64843  44.461   5.762   6.450
 9504POPC   C2B64844  44.408   5.757   6.750
 9504POPC   C3B64845  44.466   5.740   7.050
 9504POPC   C4B64846  44.434   5.774   7.350
 9505POPC   NC364847  12.073  28.322   5.550
 9505POPC   PO464848  12.091  28.320   5.850
 9505POPC   GL164849  12.107  28.322   6.150
 9505POPC   GL264850  11.950  28.396   6.150
 9505POPC   C1A64851  12.103  28.339   6.450
 9505POPC   D2A64852  12.030  28.331   6.750
 9505POPC   C3A64853  12.044  28.339   7.050
 9505POPC   C4A64854  12.124  28.382   7.350
 9505POPC   C1B64855  11.845  28.449   6.450
 9505POPC   C2B64856  11.878  28.449   6.750
 9505POPC   C3B64857  11.833  28.441   7.050
 9505POPC   C4B64858  11.898  28.460   7.350
 9506POPC   NC364859  20.598  26.842   5.550
 9506POPC   PO464860  20.577  26.845   5.850
 9506POPC   GL164861  20.599  26.784   6.150
 9506POPC   GL264862  20.731  26.853   6.150
 9506POPC   C1A64863  20.631  26.848   6.450
 9506POPC   D2A64864  20.581  26.858   6.750
 9506POPC   C3A64865  20.637  26.813   7.050
 9506POPC   C4A64866  20.587  26.792   7.350
 9506POPC   C1B64867  20.855  26.854   6.450
 9506POPC   C2B64868  20.863  26.876   6.750
 9506POPC   C3B64869  20.892  26.893   7.050
 9506POPC   C4B64870  20.875  26.802   7.350
 9507POPC   NC364871  40.750  35.303   5.550
 9507POPC   PO464872  40.807  35.333   5.850
 9507POPC   GL164873  40.814  35.330   6.150
 9507POPC   GL264874  40.737  35.292   6.150
 9507POPC   C1A64875  40.793  35.351   6.450
 9507POPC   D2A64876  40.826  35.375   6.750
 9507POPC   C3A64877  40.810  35.311   7.050
 9507POPC   C4A64878  40.790  35.337   7.350
 9507POPC   C1B64879  40.640  35.146   6.450
 9507POPC   C2B64880  40.564  35.222   6.750
 9507POPC   C3B64881  40.618  35.149   7.050
 9507POPC   C4B64882  40.639  35.179   7.350
 9508POPC   NC364883  17.544  40.021   5.550
 9508POPC   PO464884  17.545  39.959   5.850
 9508POPC   GL164885  17.476  40.003   6.150
 9508POPC   GL264886  17.348  40.105   6.150
 9508POPC   C1A64887  17.506  39.963   6.450
 9508POPC   D2A64888  17.540  39.980   6.750
 9508POPC   C3A64889  17.545  40.035   7.050
 9508POPC   C4A64890  17.546  39.970   7.350
 9508POPC   C1B64891  17.331  40.151   6.450
 9508POPC   C2B64892  17.307  40.148   6.750
 9508POPC   C3B64893  17.240  40.167   7.050
 9508POPC   C4B64894  17.330  40.086   7.350
 9509POPC   NC364895  24.449  15.132   5.550
 9509POPC   PO464896  24.531  15.210   5.850
 9509POPC   GL164897  24.484  15.132   6.150
 9509POPC   GL264898  24.416  15.180   6.150
 9509POPC   C1A64899  24.499  15.197   6.450
 9509POPC   D2A64900  24.533  15.181   6.750
 9509POPC   C3A64901  24.443  15.130   7.050
 9509POPC   C4A64902  24.492  15.218   7.350
 9509POPC   C1B64903  24.241  15.170   6.450
 9509POPC   C2B64904  24.269  15.133   6.750
 9509POPC   C3B64905  24.207  15.167   7.050
 9509POPC   C4B64906  24.242  15.173   7.350
 9510POPC   NC364907  22.973  24.478   5.550
 9510POPC   PO464908  22.942  24.480   5.850
 9510POPC   GL164909  22.942  24.450   6.150
 9510POPC   GL264910  22.853  24.493   6.150
 9510POPC   C1A64911  22.916  24.455   6.450
 9510POPC   D2A64912  22.912  24.488   6.750
 9510POPC   C3A64913  22.942  24.536   7.050
 9510POPC   C4A64914  22.903  24.448   7.350
 9510POPC   C1B64915  22.669  24.507   6.450
 9510POPC   C2B64916  22.663  24.486   6.750
 9510POPC   C3B64917  22.665  24.515   7.050
 9510POPC   C4B64918  22.692  24.563   7.350
 9511POPC   NC364919  24.493  15.908   5.550
 9511POPC   PO464920  24.443  15.946   5.850
 9511POPC   GL164921  24.468  15.990   6.150
 9511POPC   GL264922  24.432  16.049   6.150
 9511POPC   C1A64923  24.442  15.954   6.450
 9511POPC   D2A64924  24.442  15.931   6.750
 9511POPC   C3A64925  24.512  16.004   7.050
 9511POPC   C4A64926  24.478  15.986   7.350
 9511POPC   C1B64927  24.299  16.161   6.450
 9511POPC   C2B64928  24.311  16.126   6.750
 9511POPC   C3B64929  24.305  16.164   7.050
 9511POPC   C4B64930  24.345  16.185   7.350
 9512POPC   NC364931   5.887  43.928   5.550
 9512POPC   PO464932   5.856  43.921   5.850
 9512POPC   GL164933   5.896  43.837   6.150
 9512POPC   GL264934   5.916  43.736   6.150
 9512POPC   C1A64935   5.823  43.888   6.450
 9512POPC   D2A64936   5.864  43.899   6.750
 9512POPC   C3A64937   5.908  43.879   7.050
 9512POPC   C4A64938   5.890  43.925   7.350
 9512POPC   C1B64939   5.928  43.645   6.450
 9512POPC   C2B64940   5.924  43.618   6.750
 9512POPC   C3B64941   5.949  43.664   7.050
 9512POPC   C4B64942   5.960  43.603   7.350
 9513POPC   NC364943   6.617  44.633   5.550
 9513POPC   PO464944   6.659  44.639   5.850
 9513POPC   GL164945   6.655  44.702   6.150
 9513POPC   GL264946   6.743  44.542   6.150
 9513POPC   C1A64947   6.655  44.659   6.450
 9513POPC   D2A64948   6.645  44.626   6.750
 9513POPC   C3A64949   6.650  44.651   7.050
 9513POPC   C4A64950   6.632  44.693   7.350
 9513POPC   C1B64951   6.798  44.487   6.450
 9513POPC   C2B64952   6.832  44.452   6.750
 9513POPC   C3B64953   6.863  44.490   7.050
 9513POPC   C4B64954   6.861  44.502   7.350
 9514POPC   NC364955  19.043  15.190   5.550
 9514POPC   PO464956  19.049  15.183   5.850
 9514POPC   GL164957  19.046  15.207   6.150
 9514POPC   GL264958  19.232  15.180   6.150
 9514POPC   C1A64959  19.098  15.196   6.450
 9514POPC   D2A64960  19.051  15.146   6.750
 9514POPC   C3A64961  19.097  15.195   7.050
 9514POPC   C4A64962  19.053  15.143   7.350
 9514POPC   C1B64963  19.314  15.204   6.450
 9514POPC   C2B64964  19.291  15.240   6.750
 9514POPC   C3B64965  19.318  15.196   7.050
 9514POPC   C4B64966  19.301  15.185   7.350
 9515POPC   NC364967  32.277  32.262   5.550
 9515POPC   PO464968  32.215  32.296   5.850
 9515POPC   GL164969  32.296  32.271   6.150
 9515POPC   GL264970  32.354  32.236   6.150
 9515POPC   C1A64971  32.229  32.265   6.450
 9515POPC   D2A64972  32.257  32.235   6.750
 9515POPC   C3A64973  32.290  32.272   7.050
 9515POPC   C4A64974  32.249  32.287   7.350
 9515POPC   C1B64975  32.466  32.314   6.450
 9515POPC   C2B64976  32.452  32.333   6.750
 9515POPC   C3B64977  32.491  32.316   7.050
 9515POPC   C4B64978  32.466  32.340   7.350
 9516POPC   NC364979   9.725   8.207   5.550
 9516POPC   PO464980   9.730   8.159   5.850
 9516POPC   GL164981   9.793   8.238   6.150
 9516POPC   GL264982   9.809   8.161   6.150
 9516POPC   C1A64983   9.700   8.199   6.450
 9516POPC   D2A64984   9.772   8.147   6.750
 9516POPC   C3A64985   9.717   8.193   7.050
 9516POPC   C4A64986   9.767   8.213   7.350
 9516POPC   C1B64987   9.914   8.017   6.450
 9516POPC   C2B64988   9.896   8.076   6.750
 9516POPC   C3B64989   9.911   8.048   7.050
 9516POPC   C4B64990   9.981   8.025   7.350
 9517POPC   NC364991  39.272  38.492   5.550
 9517POPC   PO464992  39.276  38.421   5.850
 9517POPC   GL164993  39.231  38.440   6.150
 9517POPC   GL264994  39.193  38.387   6.150
 9517POPC   C1A64995  39.261  38.455   6.450
 9517POPC   D2A64996  39.217  38.456   6.750
 9517POPC   C3A64997  39.216  38.477   7.050
 9517POPC   C4A64998  39.223  38.467   7.350
 9517POPC   C1B64999  39.072  38.274   6.450
 9517POPC   C2B65000  39.042  38.296   6.750
 9517POPC   C3B65001  39.049  38.211   7.050
 9517POPC   C4B65002  39.126  38.246   7.350
 9518POPC   NC365003  27.626  29.969   5.550
 9518POPC   PO465004  27.591  29.896   5.850
 9518POPC   GL165005  27.639  29.905   6.150
 9518POPC   GL265006  27.555  29.769   6.150
 9518POPC   C1A65007  27.583  29.945   6.450
 9518POPC   D2A65008  27.597  29.936   6.750
 9518POPC   C3A65009  27.588  29.928   7.050
 9518POPC   C4A65010  27.633  29.961   7.350
 9518POPC   C1B65011  27.569  29.638   6.450
 9518POPC   C2B65012  27.591  29.631   6.750
 9518POPC   C3B65013  27.601  29.662   7.050
 9518POPC   C4B65014  27.526  29.679   7.350
 9519POPC   NC365015  28.417  43.132   5.550
 9519POPC   PO465016  28.360  43.101   5.850
 9519POPC   GL165017  28.356  43.072   6.150
 9519POPC   GL265018  28.428  43.211   6.150
 9519POPC   C1A65019  28.368  43.145   6.450
 9519POPC   D2A65020  28.329  43.154   6.750
 9519POPC   C3A65021  28.400  43.105   7.050
 9519POPC   C4A65022  28.415  43.144   7.350
 9519POPC   C1B65023  28.484  43.393   6.450
 9519POPC   C2B65024  28.443  43.326   6.750
 9519POPC   C3B65025  28.444  43.369   7.050
 9519POPC   C4B65026  28.430  43.335   7.350
 9520POPC   NC365027  40.012  37.690   5.550
 9520POPC   PO465028  40.022  37.693   5.850
 9520POPC   GL165029  39.978  37.692   6.150
 9520POPC   GL265030  39.923  37.736   6.150
 9520POPC   C1A65031  39.994  37.630   6.450
 9520POPC   D2A65032  40.010  37.666   6.750
 9520POPC   C3A65033  39.984  37.703   7.050
 9520POPC   C4A65034  39.965  37.706   7.350
 9520POPC   C1B65035  39.745  37.752   6.450
 9520POPC   C2B65036  39.804  37.759   6.750
 9520POPC   C3B65037  39.786  37.705   7.050
 9520POPC   C4B65038  39.814  37.723   7.350
 9521POPC   NC365039  28.415  43.859   5.550
 9521POPC   PO465040  28.349  43.922   5.850
 9521POPC   GL165041  28.361  43.851   6.150
 9521POPC   GL265042  28.289  44.007   6.150
 9521POPC   C1A65043  28.360  43.841   6.450
 9521POPC   D2A65044  28.405  43.847   6.750
 9521POPC   C3A65045  28.381  43.918   7.050
 9521POPC   C4A65046  28.391  43.891   7.350
 9521POPC   C1B65047  28.284  44.093   6.450
 9521POPC   C2B65048  28.281  44.144   6.750
 9521POPC   C3B65049  28.278  44.148   7.050
 9521POPC   C4B65050  28.304  44.100   7.350
 9522POPC   NC365051  31.521  30.720   5.550
 9522POPC   PO465052  31.451  30.649   5.850
 9522POPC   GL165053  31.513  30.704   6.150
 9522POPC   GL265054  31.351  30.794   6.150
 9522POPC   C1A65055  31.432  30.735   6.450
 9522POPC   D2A65056  31.514  30.728   6.750
 9522POPC   C3A65057  31.479  30.738   7.050
 9522POPC   C4A65058  31.464  30.721   7.350
 9522POPC   C1B65059  31.200  30.796   6.450
 9522POPC   C2B65060  31.263  30.824   6.750
 9522POPC   C3B65061  31.235  30.780   7.050
 9522POPC   C4B65062  31.225  30.761   7.350
 9523POPC   NC365063   7.384  29.164   5.550
 9523POPC   PO465064   7.402  29.186   5.850
 9523POPC   GL165065   7.444  29.172   6.150
 9523POPC   GL265066   7.384  29.300   6.150
 9523POPC   C1A65067   7.443  29.153   6.450
 9523POPC   D2A65068   7.375  29.149   6.750
 9523POPC   C3A65069   7.423  29.136   7.050
 9523POPC   C4A65070   7.400  29.128   7.350
 9523POPC   C1B65071   7.281  29.347   6.450
 9523POPC   C2B65072   7.273  29.321   6.750
 9523POPC   C3B65073   7.339  29.407   7.050
 9523POPC   C4B65074   7.324  29.367   7.350
 9524POPC   NC365075  19.049  12.876   5.550
 9524POPC   PO465076  19.062  12.854   5.850
 9524POPC   GL165077  19.072  12.860   6.150
 9524POPC   GL265078  18.980  12.977   6.150
 9524POPC   C1A65079  19.029  12.840   6.450
 9524POPC   D2A65080  19.024  12.890   6.750
 9524POPC   C3A65081  19.068  12.848   7.050
 9524POPC   C4A65082  19.082  12.876   7.350
 9524POPC   C1B65083  18.886  13.062   6.450
 9524POPC   C2B65084  18.856  13.083   6.750
 9524POPC   C3B65085  18.862  13.043   7.050
 9524POPC   C4B65086  18.881  13.018   7.350
 9525POPC   NC365087  40.050  15.184   5.550
 9525POPC   PO465088  40.014  15.209   5.850
 9525POPC   GL165089  39.976  15.226   6.150
 9525POPC   GL265090  39.914  15.126   6.150
 9525POPC   C1A65091  40.003  15.211   6.450
 9525POPC   D2A65092  39.980  15.195   6.750
 9525POPC   C3A65093  39.982  15.192   7.050
 9525POPC   C4A65094  40.013  15.174   7.350
 9525POPC   C1B65095  39.789  15.135   6.450
 9525POPC   C2B65096  39.767  15.098   6.750
 9525POPC   C3B65097  39.808  15.192   7.050
 9525POPC   C4B65098  39.753  15.146   7.350
 9526POPC   NC365099  22.202  27.635   5.550
 9526POPC   PO465100  22.188  27.613   5.850
 9526POPC   GL165101  22.154  27.572   6.150
 9526POPC   GL265102  22.039  27.496   6.150
 9526POPC   C1A65103  22.201  27.544   6.450
 9526POPC   D2A65104  22.152  27.627   6.750
 9526POPC   C3A65105  22.179  27.610   7.050
 9526POPC   C4A65106  22.116  27.602   7.350
 9526POPC   C1B65107  22.021  27.436   6.450
 9526POPC   C2B65108  22.027  27.425   6.750
 9526POPC   C3B65109  22.028  27.389   7.050
 9526POPC   C4B65110  22.024  27.362   7.350
 9527POPC   NC365111  21.390   2.009   5.550
 9527POPC   PO465112  21.408   1.989   5.850
 9527POPC   GL165113  21.337   1.951   6.150
 9527POPC   GL265114  21.279   2.021   6.150
 9527POPC   C1A65115  21.387   1.955   6.450
 9527POPC   D2A65116  21.410   1.995   6.750
 9527POPC   C3A65117  21.375   2.014   7.050
 9527POPC   C4A65118  21.422   1.974   7.350
 9527POPC   C1B65119  21.128   1.955   6.450
 9527POPC   C2B65120  21.106   1.921   6.750
 9527POPC   C3B65121  21.148   1.976   7.050
 9527POPC   C4B65122  21.123   1.948   7.350
 9528POPC   NC365123  44.709  12.837   5.550
 9528POPC   PO465124  44.679  12.842   5.850
 9528POPC   GL165125  44.687  12.874   6.150
 9528POPC   GL265126  44.523  12.840   6.150
 9528POPC   C1A65127  44.620  12.848   6.450
 9528POPC   D2A65128  44.705  12.861   6.750
 9528POPC   C3A65129  44.707  12.890   7.050
 9528POPC   C4A65130  44.622  12.822   7.350
 9528POPC   C1B65131  44.417  12.769   6.450
 9528POPC   C2B65132  44.462  12.779   6.750
 9528POPC   C3B65133  44.411  12.795   7.050
 9528POPC   C4B65134  44.376  12.757   7.350
 9529POPC   NC365135  12.842  21.421   5.550
 9529POPC   PO465136  12.843  21.353   5.850
 9529POPC   GL165137  12.866  21.399   6.150
 9529POPC   GL265138  12.939  21.261   6.150
 9529POPC   C1A65139  12.833  21.351   6.450
 9529POPC   D2A65140  12.834  21.415   6.750
 9529POPC   C3A65141  12.838  21.344   7.050
 9529POPC   C4A65142  12.805  21.384   7.350
 9529POPC   C1B65143  12.957  21.161   6.450
 9529POPC   C2B65144  12.932  21.149   6.750
 9529POPC   C3B65145  12.946  21.166   7.050
 9529POPC   C4B65146  12.899  21.136   7.350
 9530POPC   NC365147  33.796  29.952   5.550
 9530POPC   PO465148  33.789  29.931   5.850
 9530POPC   GL165149  33.771  29.903   6.150
 9530POPC   GL265150  33.758  29.786   6.150
 9530POPC   C1A65151  33.840  29.923   6.450
 9530POPC   D2A65152  33.757  29.885   6.750
 9530POPC   C3A65153  33.769  29.875   7.050
 9530POPC   C4A65154  33.760  29.959   7.350
 9530POPC   C1B65155  33.631  29.737   6.450
 9530POPC   C2B65156  33.656  29.779   6.750
 9530POPC   C3B65157  33.665  29.749   7.050
 9530POPC   C4B65158  33.654  29.735   7.350
 9531POPC   NC365159   9.766  15.207   5.550
 9531POPC   PO465160   9.722  15.195   5.850
 9531POPC   GL165161   9.750  15.223   6.150
 9531POPC   GL265162   9.730  15.053   6.150
 9531POPC   C1A65163   9.746  15.143   6.450
 9531POPC   D2A65164   9.717  15.135   6.750
 9531POPC   C3A65165   9.736  15.176   7.050
 9531POPC   C4A65166   9.734  15.221   7.350
 9531POPC   C1B65167   9.582  14.936   6.450
 9531POPC   C2B65168   9.601  14.999   6.750
 9531POPC   C3B65169   9.592  14.981   7.050
 9531POPC   C4B65170   9.626  14.954   7.350
 9532POPC   NC365171   6.689  39.198   5.550
 9532POPC   PO465172   6.612  39.256   5.850
 9532POPC   GL165173   6.677  39.251   6.150
 9532POPC   GL265174   6.530  39.180   6.150
 9532POPC   C1A65175   6.693  39.250   6.450
 9532POPC   D2A65176   6.686  39.265   6.750
 9532POPC   C3A65177   6.668  39.261   7.050
 9532POPC   C4A65178   6.596  39.273   7.350
 9532POPC   C1B65179   6.398  39.131   6.450
 9532POPC   C2B65180   6.437  39.199   6.750
 9532POPC   C3B65181   6.449  39.223   7.050
 9532POPC   C4B65182   6.423  39.138   7.350
 9533POPC   NC365183   0.411  26.047   5.550
 9533POPC   PO465184   0.447  26.053   5.850
 9533POPC   GL165185   0.424  26.064   6.150
 9533POPC   GL265186   0.419  25.943   6.150
 9533POPC   C1A65187   0.425  26.013   6.450
 9533POPC   D2A65188   0.454  25.995   6.750
 9533POPC   C3A65189   0.447  26.008   7.050
 9533POPC   C4A65190   0.455  26.052   7.350
 9533POPC   C1B65191   0.403  25.785   6.450
 9533POPC   C2B65192   0.422  25.837   6.750
 9533POPC   C3B65193   0.436  25.763   7.050
 9533POPC   C4B65194   0.441  25.821   7.350
 9534POPC   NC365195  33.004   5.123   5.550
 9534POPC   PO465196  32.978   5.061   5.850
 9534POPC   GL165197  32.982   5.089   6.150
 9534POPC   GL265198  33.089   5.172   6.150
 9534POPC   C1A65199  33.030   5.119   6.450
 9534POPC   D2A65200  33.014   5.090   6.750
 9534POPC   C3A65201  32.998   5.094   7.050
 9534POPC   C4A65202  32.988   5.061   7.350
 9534POPC   C1B65203  33.182   5.236   6.450
 9534POPC   C2B65204  33.239   5.195   6.750
 9534POPC   C3B65205  33.209   5.198   7.050
 9534POPC   C4B65206  33.179   5.272   7.350
 9535POPC   NC365207   8.958  36.912   5.550
 9535POPC   PO465208   8.964  36.924   5.850
 9535POPC   GL165209   9.015  36.887   6.150
 9535POPC   GL265210   8.854  36.891   6.150
 9535POPC   C1A65211   8.961  36.951   6.450
 9535POPC   D2A65212   9.006  36.899   6.750
 9535POPC   C3A65213   8.986  36.866   7.050
 9535POPC   C4A65214   8.965  36.863   7.350
 9535POPC   C1B65215   8.696  36.950   6.450
 9535POPC   C2B65216   8.687  36.990   6.750
 9535POPC   C3B65217   8.779  36.966   7.050
 9535POPC   C4B65218   8.686  36.935   7.350
 9536POPC   NC365219   0.402  14.385   5.550
 9536POPC   PO465220   0.451  14.358   5.850
 9536POPC   GL165221   0.476  14.414   6.150
 9536POPC   GL265222   0.553  14.535   6.150
 9536POPC   C1A65223   0.415  14.354   6.450
 9536POPC   D2A65224   0.471  14.417   6.750
 9536POPC   C3A65225   0.461  14.417   7.050
 9536POPC   C4A65226   0.400  14.388   7.350
 9536POPC   C1B65227   0.606  14.608   6.450
 9536POPC   C2B65228   0.631  14.577   6.750
 9536POPC   C3B65229   0.586  14.633   7.050
 9536POPC   C4B65230   0.588  14.610   7.350
 9537POPC   NC365231  23.679  30.701   5.550
 9537POPC   PO465232  23.748  30.675   5.850
 9537POPC   GL165233  23.686  30.687   6.150
 9537POPC   GL265234  23.816  30.676   6.150
 9537POPC   C1A65235  23.715  30.652   6.450
 9537POPC   D2A65236  23.710  30.742   6.750
 9537POPC   C3A65237  23.715  30.729   7.050
 9537POPC   C4A65238  23.756  30.711   7.350
 9537POPC   C1B65239  23.916  30.547   6.450
 9537POPC   C2B65240  23.952  30.536   6.750
 9537POPC   C3B65241  23.890  30.556   7.050
 9537POPC   C4B65242  23.950  30.589   7.350
 9538POPC   NC365243  29.149  12.047   5.550
 9538POPC   PO465244  29.095  12.089   5.850
 9538POPC   GL165245  29.184  12.089   6.150
 9538POPC   GL265246  29.202  11.971   6.150
 9538POPC   C1A65247  29.155  12.066   6.450
 9538POPC   D2A65248  29.161  12.055   6.750
 9538POPC   C3A65249  29.161  12.071   7.050
 9538POPC   C4A65250  29.158  12.069   7.350
 9538POPC   C1B65251  29.302  11.883   6.450
 9538POPC   C2B65252  29.352  11.967   6.750
 9538POPC   C3B65253  29.372  11.879   7.050
 9538POPC   C4B65254  29.369  11.962   7.350
 9539POPC   NC365255   6.676  33.812   5.550
 9539POPC   PO465256   6.603  33.759   5.850
 9539POPC   GL165257   6.674  33.766   6.150
 9539POPC   GL265258   6.525  33.775   6.150
 9539POPC   C1A65259   6.678  33.831   6.450
 9539POPC   D2A65260   6.614  33.823   6.750
 9539POPC   C3A65261   6.676  33.751   7.050
 9539POPC   C4A65262   6.677  33.768   7.350
 9539POPC   C1B65263   6.398  33.711   6.450
 9539POPC   C2B65264   6.479  33.638   6.750
 9539POPC   C3B65265   6.435  33.635   7.050
 9539POPC   C4B65266   6.400  33.636   7.350
 9540POPC   NC365267  17.550  14.379   5.550
 9540POPC   PO465268  17.468  14.424   5.850
 9540POPC   GL165269  17.484  14.431   6.150
 9540POPC   GL265270  17.568  14.355   6.150
 9540POPC   C1A65271  17.494  14.439   6.450
 9540POPC   D2A65272  17.477  14.433   6.750
 9540POPC   C3A65273  17.465  14.440   7.050
 9540POPC   C4A65274  17.544  14.440   7.350
 9540POPC   C1B65275  17.635  14.256   6.450
 9540POPC   C2B65276  17.708  14.191   6.750
 9540POPC   C3B65277  17.639  14.250   7.050
 9540POPC   C4B65278  17.633  14.226   7.350
 9541POPC   NC365279  44.646   4.326   5.550
 9541POPC   PO465280  44.664   4.308   5.850
 9541POPC   GL165281  44.702   4.312   6.150
 9541POPC   GL265282  44.739   4.389   6.150
 9541POPC   C1A65283  44.658   4.344   6.450
 9541POPC   D2A65284  44.628   4.278   6.750
 9541POPC   C3A65285  44.696   4.313   7.050
 9541POPC   C4A65286  44.654   4.298   7.350
 9541POPC   C1B65287  44.803   4.521   6.450
 9541POPC   C2B65288  44.865   4.548   6.750
 9541POPC   C3B65289  44.844   4.526   7.050
 9541POPC   C4B65290  44.836   4.557   7.350
 9542POPC   NC365291   4.333  15.924   5.550
 9542POPC   PO465292   4.348  15.931   5.850
 9542POPC   GL165293   4.316  15.915   6.150
 9542POPC   GL265294   4.310  16.045   6.150
 9542POPC   C1A65295   4.283  15.951   6.450
 9542POPC   D2A65296   4.307  15.924   6.750
 9542POPC   C3A65297   4.348  15.955   7.050
 9542POPC   C4A65298   4.342  15.950   7.350
 9542POPC   C1B65299   4.420  16.194   6.450
 9542POPC   C2B65300   4.352  16.230   6.750
 9542POPC   C3B65301   4.368  16.152   7.050
 9542POPC   C4B65302   4.426  16.180   7.350
 9543POPC   NC365303   5.105  16.775   5.550
 9543POPC   PO465304   5.093  16.756   5.850
 9543POPC   GL165305   5.138  16.720   6.150
 9543POPC   GL265306   5.036  16.811   6.150
 9543POPC   C1A65307   5.120  16.712   6.450
 9543POPC   D2A65308   5.078  16.745   6.750
 9543POPC   C3A65309   5.079  16.755   7.050
 9543POPC   C4A65310   5.126  16.746   7.350
 9543POPC   C1B65311   4.914  16.963   6.450
 9543POPC   C2B65312   4.926  16.912   6.750
 9543POPC   C3B65313   4.917  16.922   7.050
 9543POPC   C4B65314   4.964  16.881   7.350
 9544POPC   NC365315  30.701  40.770   5.550
 9544POPC   PO465316  30.696  40.811   5.850
 9544POPC   GL165317  30.663  40.805   6.150
 9544POPC   GL265318  30.841  40.747   6.150
 9544POPC   C1A65319  30.663  40.822   6.450
 9544POPC   D2A65320  30.675  40.790   6.750
 9544POPC   C3A65321  30.688  40.773   7.050
 9544POPC   C4A65322  30.677  40.740   7.350
 9544POPC   C1B65323  30.950  40.805   6.450
 9544POPC   C2B65324  30.941  40.832   6.750
 9544POPC   C3B65325  30.900  40.832   7.050
 9544POPC   C4B65326  30.957  40.837   7.350
 9545POPC   NC365327  14.371   8.963   5.550
 9545POPC   PO465328  14.442   8.946   5.850
 9545POPC   GL165329  14.371   9.014   6.150
 9545POPC   GL265330  14.307   8.998   6.150
 9545POPC   C1A65331  14.359   8.991   6.450
 9545POPC   D2A65332  14.443   9.013   6.750
 9545POPC   C3A65333  14.431   9.008   7.050
 9545POPC   C4A65334  14.401   9.001   7.350
 9545POPC   C1B65335  14.167   8.949   6.450
 9545POPC   C2B65336  14.147   8.892   6.750
 9545POPC   C3B65337  14.108   8.904   7.050
 9545POPC   C4B65338  14.136   8.897   7.350
 9546POPC   NC365339  10.539  27.621   5.550
 9546POPC   PO465340  10.515  27.597   5.850
 9546POPC   GL165341  10.560  27.614   6.150
 9546POPC   GL265342  10.584  27.652   6.150
 9546POPC   C1A65343  10.557  27.570   6.450
 9546POPC   D2A65344  10.541  27.622   6.750
 9546POPC   C3A65345  10.558  27.584   7.050
 9546POPC   C4A65346  10.557  27.626   7.350
 9546POPC   C1B65347  10.700  27.811   6.450
 9546POPC   C2B65348  10.646  27.784   6.750
 9546POPC   C3B65349  10.641  27.842   7.050
 9546POPC   C4B65350  10.704  27.756   7.350
 9547POPC   NC365351   8.220  19.052   5.550
 9547POPC   PO465352   8.182  19.033   5.850
 9547POPC   GL165353   8.217  19.014   6.150
 9547POPC   GL265354   8.264  18.981   6.150
 9547POPC   C1A65355   8.156  19.017   6.450
 9547POPC   D2A65356   8.175  19.102   6.750
 9547POPC   C3A65357   8.238  19.012   7.050
 9547POPC   C4A65358   8.160  19.064   7.350
 9547POPC   C1B65359   8.221  18.799   6.450
 9547POPC   C2B65360   8.288  18.817   6.750
 9547POPC   C3B65361   8.214  18.813   7.050
 9547POPC   C4B65362   8.214  18.821   7.350
 9548POPC   NC365363   4.358  43.106   5.550
 9548POPC   PO465364   4.347  43.068   5.850
 9548POPC   GL165365   4.285  43.111   6.150
 9548POPC   GL265366   4.470  43.068   6.150
 9548POPC   C1A65367   4.343  43.141   6.450
 9548POPC   D2A65368   4.278  43.142   6.750
 9548POPC   C3A65369   4.286  43.134   7.050
 9548POPC   C4A65370   4.297  43.075   7.350
 9548POPC   C1B65371   4.550  43.021   6.450
 9548POPC   C2B65372   4.554  42.998   6.750
 9548POPC   C3B65373   4.509  43.080   7.050
 9548POPC   C4B65374   4.526  43.066   7.350
 9549POPC   NC365375  10.571  15.961   5.550
 9549POPC   PO465376  10.521  15.932   5.850
 9549POPC   GL165377  10.505  15.972   6.150
 9549POPC   GL265378  10.522  16.033   6.150
 9549POPC   C1A65379  10.535  15.914   6.450
 9549POPC   D2A65380  10.525  16.004   6.750
 9549POPC   C3A65381  10.478  15.926   7.050
 9549POPC   C4A65382  10.574  15.940   7.350
 9549POPC   C1B65383  10.468  16.155   6.450
 9549POPC   C2B65384  10.505  16.163   6.750
 9549POPC   C3B65385  10.487  16.230   7.050
 9549POPC   C4B65386  10.423  16.152   7.350
 9550POPC   NC365387  14.399   5.090   5.550
 9550POPC   PO465388  14.380   5.065   5.850
 9550POPC   GL165389  14.374   5.052   6.150
 9550POPC   GL265390  14.568   5.085   6.150
 9550POPC   C1A65391  14.433   5.074   6.450
 9550POPC   D2A65392  14.363   5.126   6.750
 9550POPC   C3A65393  14.418   5.118   7.050
 9550POPC   C4A65394  14.361   5.122   7.350
 9550POPC   C1B65395  14.651   5.011   6.450
 9550POPC   C2B65396  14.635   5.006   6.750
 9550POPC   C3B65397  14.633   5.032   7.050
 9550POPC   C4B65398  14.627   4.971   7.350
 9551POPC   NC365399  22.981  31.443   5.550
 9551POPC   PO465400  22.934  31.480   5.850
 9551POPC   GL165401  22.910  31.483   6.150
 9551POPC   GL265402  23.035  31.577   6.150
 9551POPC   C1A65403  22.905  31.518   6.450
 9551POPC   D2A65404  22.899  31.522   6.750
 9551POPC   C3A65405  22.972  31.451   7.050
 9551POPC   C4A65406  22.974  31.444   7.350
 9551POPC   C1B65407  23.049  31.682   6.450
 9551POPC   C2B65408  23.111  31.656   6.750
 9551POPC   C3B65409  23.131  31.632   7.050
 9551POPC   C4B65410  23.127  31.703   7.350
 9552POPC   NC365411   5.105  43.107   5.550
 9552POPC   PO465412   5.114  43.083   5.850
 9552POPC   GL165413   5.060  43.140   6.150
 9552POPC   GL265414   5.208  43.059   6.150
 9552POPC   C1A65415   5.056  43.136   6.450
 9552POPC   D2A65416   5.128  43.148   6.750
 9552POPC   C3A65417   5.061  43.077   7.050
 9552POPC   C4A65418   5.085  43.085   7.350
 9552POPC   C1B65419   5.298  42.983   6.450
 9552POPC   C2B65420   5.293  43.014   6.750
 9552POPC   C3B65421   5.303  43.016   7.050
 9552POPC   C4B65422   5.348  43.016   7.350
 9553POPC   NC365423  36.929  40.007   5.550
 9553POPC   PO465424  36.857  40.007   5.850
 9553POPC   GL165425  36.860  39.962   6.150
 9553POPC   GL265426  36.906  39.861   6.150
 9553POPC   C1A65427  36.878  40.012   6.450
 9553POPC   D2A65428  36.912  40.006   6.750
 9553POPC   C3A65429  36.886  39.969   7.050
 9553POPC   C4A65430  36.951  40.054   7.350
 9553POPC   C1B65431  36.934  39.807   6.450
 9553POPC   C2B65432  37.017  39.738   6.750
 9553POPC   C3B65433  37.018  39.769   7.050
 9553POPC   C4B65434  36.961  39.776   7.350
 9554POPC   NC365435  17.465  27.551   5.550
 9554POPC   PO465436  17.521  27.578   5.850
 9554POPC   GL165437  17.460  27.585   6.150
 9554POPC   GL265438  17.660  27.606   6.150
 9554POPC   C1A65439  17.521  27.547   6.450
 9554POPC   D2A65440  17.488  27.612   6.750
 9554POPC   C3A65441  17.488  27.639   7.050
 9554POPC   C4A65442  17.520  27.632   7.350
 9554POPC   C1B65443  17.745  27.562   6.450
 9554POPC   C2B65444  17.754  27.525   6.750
 9554POPC   C3B65445  17.754  27.555   7.050
 9554POPC   C4B65446  17.803  27.614   7.350
 9555POPC   NC365447   8.967  28.342   5.550
 9555POPC   PO465448   9.022  28.379   5.850
 9555POPC   GL165449   8.970  28.395   6.150
 9555POPC   GL265450   9.057  28.511   6.150
 9555POPC   C1A65451   9.008  28.321   6.450
 9555POPC   D2A65452   9.000  28.412   6.750
 9555POPC   C3A65453   9.012  28.392   7.050
 9555POPC   C4A65454   8.995  28.329   7.350
 9555POPC   C1B65455   9.124  28.617   6.450
 9555POPC   C2B65456   9.034  28.581   6.750
 9555POPC   C3B65457   9.109  28.625   7.050
 9555POPC   C4B65458   9.125  28.611   7.350
 9556POPC   NC365459  42.285  26.038   5.550
 9556POPC   PO465460  42.305  26.087   5.850
 9556POPC   GL165461  42.375  26.037   6.150
 9556POPC   GL265462  42.310  26.165   6.150
 9556POPC   C1A65463  42.316  26.029   6.450
 9556POPC   D2A65464  42.379  26.044   6.750
 9556POPC   C3A65465  42.308  26.057   7.050
 9556POPC   C4A65466  42.296  25.994   7.350
 9556POPC   C1B65467  42.188  26.288   6.450
 9556POPC   C2B65468  42.244  26.230   6.750
 9556POPC   C3B65469  42.223  26.226   7.050
 9556POPC   C4B65470  42.245  26.237   7.350
 9557POPC   NC365471  15.147  33.814   5.550
 9557POPC   PO465472  15.169  33.818   5.850
 9557POPC   GL165473  15.135  33.797   6.150
 9557POPC   GL265474  15.229  33.858   6.150
 9557POPC   C1A65475  15.180  33.767   6.450
 9557POPC   D2A65476  15.144  33.765   6.750
 9557POPC   C3A65477  15.168  33.815   7.050
 9557POPC   C4A65478  15.173  33.846   7.350
 9557POPC   C1B65479  15.405  33.983   6.450
 9557POPC   C2B65480  15.372  33.930   6.750
 9557POPC   C3B65481  15.357  34.018   7.050
 9557POPC   C4B65482  15.406  33.984   7.350
 9558POPC   NC365483  23.759  25.237   5.550
 9558POPC   PO465484  23.759  25.267   5.850
 9558POPC   GL165485  23.672  25.294   6.150
 9558POPC   GL265486  23.632  25.196   6.150
 9558POPC   C1A65487  23.724  25.267   6.450
 9558POPC   D2A65488  23.762  25.244   6.750
 9558POPC   C3A65489  23.669  25.310   7.050
 9558POPC   C4A65490  23.733  25.306   7.350
 9558POPC   C1B65491  23.461  25.152   6.450
 9558POPC   C2B65492  23.496  25.134   6.750
 9558POPC   C3B65493  23.489  25.112   7.050
 9558POPC   C4B65494  23.498  25.118   7.350
 9559POPC   NC365495   6.595  43.074   5.550
 9559POPC   PO465496   6.599  43.118   5.850
 9559POPC   GL165497   6.650  43.125   6.150
 9559POPC   GL265498   6.721  43.265   6.150
 9559POPC   C1A65499   6.680  43.122   6.450
 9559POPC   D2A65500   6.661  43.108   6.750
 9559POPC   C3A65501   6.639  43.119   7.050
 9559POPC   C4A65502   6.674  43.123   7.350
 9559POPC   C1B65503   6.731  43.289   6.450
 9559POPC   C2B65504   6.779  43.290   6.750
 9559POPC   C3B65505   6.736  43.310   7.050
 9559POPC   C4B65506   6.809  43.274   7.350
 9560POPC   NC365507  32.270  33.029   5.550
 9560POPC   PO465508  32.269  33.065   5.850
 9560POPC   GL165509  32.277  33.018   6.150
 9560POPC   GL265510  32.153  33.066   6.150
 9560POPC   C1A65511  32.251  33.020   6.450
 9560POPC   D2A65512  32.248  33.053   6.750
 9560POPC   C3A65513  32.223  33.001   7.050
 9560POPC   C4A65514  32.240  33.025   7.350
 9560POPC   C1B65515  32.015  33.034   6.450
 9560POPC   C2B65516  32.010  33.010   6.750
 9560POPC   C3B65517  32.008  32.990   7.050
 9560POPC   C4B65518  31.986  33.011   7.350
 9561POPC   NC365519  43.061  12.105   5.550
 9561POPC   PO465520  43.099  12.070   5.850
 9561POPC   GL165521  43.155  12.056   6.150
 9561POPC   GL265522  43.256  12.067   6.150
 9561POPC   C1A65523  43.101  12.035   6.450
 9561POPC   D2A65524  43.130  12.088   6.750
 9561POPC   C3A65525  43.070  12.113   7.050
 9561POPC   C4A65526  43.076  12.084   7.350
 9561POPC   C1B65527  43.322  12.110   6.450
 9561POPC   C2B65528  43.329  12.122   6.750
 9561POPC   C3B65529  43.409  12.067   7.050
 9561POPC   C4B65530  43.405  12.035   7.350
 9562POPC   NC365531  35.366  22.210   5.550
 9562POPC   PO465532  35.397  22.114   5.850
 9562POPC   GL165533  35.365  22.118   6.150
 9562POPC   GL265534  35.351  22.056   6.150
 9562POPC   C1A65535  35.346  22.195   6.450
 9562POPC   D2A65536  35.347  22.184   6.750
 9562POPC   C3A65537  35.311  22.124   7.050
 9562POPC   C4A65538  35.302  22.195   7.350
 9562POPC   C1B65539  35.390  21.928   6.450
 9562POPC   C2B65540  35.431  21.917   6.750
 9562POPC   C3B65541  35.407  21.867   7.050
 9562POPC   C4B65542  35.417  21.963   7.350
 9563POPC   NC365543  43.893  42.382   5.550
 9563POPC   PO465544  43.906  42.345   5.850
 9563POPC   GL165545  43.855  42.334   6.150
 9563POPC   GL265546  44.037  42.391   6.150
 9563POPC   C1A65547  43.838  42.337   6.450
 9563POPC   D2A65548  43.926  42.333   6.750
 9563POPC   C3A65549  43.931  42.377   7.050
 9563POPC   C4A65550  43.914  42.300   7.350
 9563POPC   C1B65551  44.093  42.513   6.450
 9563POPC   C2B65552  44.068  42.470   6.750
 9563POPC   C3B65553  44.057  42.444   7.050
 9563POPC   C4B65554  44.064  42.451   7.350
 9564POPC   NC365555  15.962  40.778   5.550
 9564POPC   PO465556  15.940  40.760   5.850
 9564POPC   GL165557  15.925  40.766   6.150
 9564POPC   GL265558  15.868  40.854   6.150
 9564POPC   C1A65559  15.985  40.771   6.450
 9564POPC   D2A65560  15.969  40.763   6.750
 9564POPC   C3A65561  15.954  40.754   7.050
 9564POPC   C4A65562  15.990  40.762   7.350
 9564POPC   C1B65563  15.729  40.946   6.450
 9564POPC   C2B65564  15.793  40.910   6.750
 9564POPC   C3B65565  15.711  40.889   7.050
 9564POPC   C4B65566  15.778  40.952   7.350
 9565POPC   NC365567   8.934  13.601   5.550
 9565POPC   PO465568   9.002  13.607   5.850
 9565POPC   GL165569   8.959  13.649   6.150
 9565POPC   GL265570   8.944  13.477   6.150
 9565POPC   C1A65571   8.925  13.588   6.450
 9565POPC   D2A65572   9.021  13.628   6.750
 9565POPC   C3A65573   8.932  13.647   7.050
 9565POPC   C4A65574   9.016  13.593   7.350
 9565POPC   C1B65575   8.933  13.369   6.450
 9565POPC   C2B65576   8.927  13.358   6.750
 9565POPC   C3B65577   8.958  13.377   7.050
 9565POPC   C4B65578   8.958  13.402   7.350
 9566POPC   NC365579  40.797   7.422   5.550
 9566POPC   PO465580  40.752   7.390   5.850
 9566POPC   GL165581  40.788   7.435   6.150
 9566POPC   GL265582  40.804   7.338   6.150
 9566POPC   C1A65583  40.793   7.377   6.450
 9566POPC   D2A65584  40.765   7.448   6.750
 9566POPC   C3A65585  40.770   7.398   7.050
 9566POPC   C4A65586  40.763   7.392   7.350
 9566POPC   C1B65587  40.785   7.207   6.450
 9566POPC   C2B65588  40.792   7.133   6.750
 9566POPC   C3B65589  40.786   7.187   7.050
 9566POPC   C4B65590  40.726   7.222   7.350
 9567POPC   NC365591   2.009  21.420   5.550
 9567POPC   PO465592   1.957  21.337   5.850
 9567POPC   GL165593   2.007  21.415   6.150
 9567POPC   GL265594   1.951  21.465   6.150
 9567POPC   C1A65595   2.028  21.423   6.450
 9567POPC   D2A65596   2.016  21.342   6.750
 9567POPC   C3A65597   1.943  21.383   7.050
 9567POPC   C4A65598   1.992  21.427   7.350
 9567POPC   C1B65599   1.811  21.610   6.450
 9567POPC   C2B65600   1.826  21.534   6.750
 9567POPC   C3B65601   1.815  21.579   7.050
 9567POPC   C4B65602   1.883  21.574   7.350
 9568POPC   NC365603  38.428  42.299   5.550
 9568POPC   PO465604  38.412  42.356   5.850
 9568POPC   GL165605  38.459  42.316   6.150
 9568POPC   GL265606  38.319  42.349   6.150
 9568POPC   C1A65607  38.414  42.355   6.450
 9568POPC   D2A65608  38.468  42.335   6.750
 9568POPC   C3A65609  38.420  42.384   7.050
 9568POPC   C4A65610  38.496  42.346   7.350
 9568POPC   C1B65611  38.212  42.329   6.450
 9568POPC   C2B65612  38.182  42.392   6.750
 9568POPC   C3B65613  38.202  42.315   7.050
 9568POPC   C4B65614  38.235  42.328   7.350
 9569POPC   NC365615  22.159  43.102   5.550
 9569POPC   PO465616  22.150  43.136   5.850
 9569POPC   GL165617  22.124  43.093   6.150
 9569POPC   GL265618  22.086  43.104   6.150
 9569POPC   C1A65619  22.121  43.134   6.450
 9569POPC   D2A65620  22.205  43.110   6.750
 9569POPC   C3A65621  22.139  43.114   7.050
 9569POPC   C4A65622  22.132  43.129   7.350
 9569POPC   C1B65623  21.914  43.097   6.450
 9569POPC   C2B65624  21.869  43.087   6.750
 9569POPC   C3B65625  21.876  43.127   7.050
 9569POPC   C4B65626  21.929  43.124   7.350
 9570POPC   NC365627   3.523   3.536   5.550
 9570POPC   PO465628   3.555   3.529   5.850
 9570POPC   GL165629   3.495   3.586   6.150
 9570POPC   GL265630   3.395   3.505   6.150
 9570POPC   C1A65631   3.582   3.532   6.450
 9570POPC   D2A65632   3.557   3.505   6.750
 9570POPC   C3A65633   3.581   3.573   7.050
 9570POPC   C4A65634   3.579   3.509   7.350
 9570POPC   C1B65635   3.302   3.528   6.450
 9570POPC   C2B65636   3.289   3.515   6.750
 9570POPC   C3B65637   3.304   3.488   7.050
 9570POPC   C4B65638   3.263   3.523   7.350
 9571POPC   NC365639  29.928  23.687   5.550
 9571POPC   PO465640  29.937  23.704   5.850
 9571POPC   GL165641  29.924  23.706   6.150
 9571POPC   GL265642  29.994  23.707   6.150
 9571POPC   C1A65643  29.960  23.737   6.450
 9571POPC   D2A65644  29.872  23.755   6.750
 9571POPC   C3A65645  29.896  23.739   7.050
 9571POPC   C4A65646  29.922  23.757   7.350
 9571POPC   C1B65647  30.134  23.663   6.450
 9571POPC   C2B65648  30.172  23.590   6.750
 9571POPC   C3B65649  30.189  23.617   7.050
 9571POPC   C4B65650  30.112  23.659   7.350
 9572POPC   NC365651  43.089  26.852   5.550
 9572POPC   PO465652  43.109  26.799   5.850
 9572POPC   GL165653  43.143  26.798   6.150
 9572POPC   GL265654  43.186  26.973   6.150
 9572POPC   C1A65655  43.159  26.845   6.450
 9572POPC   D2A65656  43.085  26.826   6.750
 9572POPC   C3A65657  43.131  26.838   7.050
 9572POPC   C4A65658  43.108  26.806   7.350
 9572POPC   C1B65659  43.181  27.100   6.450
 9572POPC   C2B65660  43.181  27.035   6.750
 9572POPC   C3B65661  43.196  27.102   7.050
 9572POPC   C4B65662  43.199  27.073   7.350
 9573POPC   NC365663  31.488  42.337   5.550
 9573POPC   PO465664  31.459  42.359   5.850
 9573POPC   GL165665  31.469  42.303   6.150
 9573POPC   GL265666  31.480  42.489   6.150
 9573POPC   C1A65667  31.472  42.380   6.450
 9573POPC   D2A65668  31.501  42.315   6.750
 9573POPC   C3A65669  31.429  42.297   7.050
 9573POPC   C4A65670  31.436  42.294   7.350
 9573POPC   C1B65671  31.446  42.595   6.450
 9573POPC   C2B65672  31.397  42.622   6.750
 9573POPC   C3B65673  31.417  42.581   7.050
 9573POPC   C4B65674  31.416  42.616   7.350
 9574POPC   NC365675   9.018   8.231   5.550
 9574POPC   PO465676   8.954   8.210   5.850
 9574POPC   GL165677   8.924   8.154   6.150
 9574POPC   GL265678   8.940   8.328   6.150
 9574POPC   C1A65679   8.982   8.206   6.450
 9574POPC   D2A65680   8.988   8.160   6.750
 9574POPC   C3A65681   8.980   8.156   7.050
 9574POPC   C4A65682   8.981   8.166   7.350
 9574POPC   C1B65683   8.842   8.457   6.450
 9574POPC   C2B65684   8.813   8.456   6.750
 9574POPC   C3B65685   8.833   8.403   7.050
 9574POPC   C4B65686   8.889   8.403   7.350
 9575POPC   NC365687   5.127   7.410   5.550
 9575POPC   PO465688   5.094   7.445   5.850
 9575POPC   GL165689   5.057   7.394   6.150
 9575POPC   GL265690   5.067   7.538   6.150
 9575POPC   C1A65691   5.055   7.444   6.450
 9575POPC   D2A65692   5.100   7.372   6.750
 9575POPC   C3A65693   5.063   7.416   7.050
 9575POPC   C4A65694   5.103   7.376   7.350
 9575POPC   C1B65695   5.101   7.676   6.450
 9575POPC   C2B65696   5.080   7.618   6.750
 9575POPC   C3B65697   5.074   7.687   7.050
 9575POPC   C4B65698   5.031   7.662   7.350
 9576POPC   NC365699  28.368   3.567   5.550
 9576POPC   PO465700  28.342   3.531   5.850
 9576POPC   GL165701  28.382   3.543   6.150
 9576POPC   GL265702  28.370   3.445   6.150
 9576POPC   C1A65703  28.344   3.560   6.450
 9576POPC   D2A65704  28.411   3.562   6.750
 9576POPC   C3A65705  28.361   3.502   7.050
 9576POPC   C4A65706  28.365   3.543   7.350
 9576POPC   C1B65707  28.331   3.339   6.450
 9576POPC   C2B65708  28.407   3.244   6.750
 9576POPC   C3B65709  28.328   3.273   7.050
 9576POPC   C4B65710  28.340   3.251   7.350
 9577POPC   NC365711  29.960  33.789   5.550
 9577POPC   PO465712  29.915  33.823   5.850
 9577POPC   GL165713  29.887  33.757   6.150
 9577POPC   GL265714  29.806  33.831   6.150
 9577POPC   C1A65715  29.901  33.849   6.450
 9577POPC   D2A65716  29.941  33.767   6.750
 9577POPC   C3A65717  29.887  33.807   7.050
 9577POPC   C4A65718  29.875  33.831   7.350
 9577POPC   C1B65719  29.701  33.838   6.450
 9577POPC   C2B65720  29.683  33.927   6.750
 9577POPC   C3B65721  29.667  33.872   7.050
 9577POPC   C4B65722  29.654  33.860   7.350
 9578POPC   NC365723  26.073   7.404   5.550
 9578POPC   PO465724  25.997   7.461   5.850
 9578POPC   GL165725  25.995   7.457   6.150
 9578POPC   GL265726  26.200   7.345   6.150
 9578POPC   C1A65727  26.075   7.417   6.450
 9578POPC   D2A65728  26.005   7.384   6.750
 9578POPC   C3A65729  26.075   7.396   7.050
 9578POPC   C4A65730  26.008   7.406   7.350
 9578POPC   C1B65731  26.292   7.302   6.450
 9578POPC   C2B65732  26.313   7.335   6.750
 9578POPC   C3B65733  26.262   7.301   7.050
 9578POPC   C4B65734  26.318   7.300   7.350
 9579POPC   NC365735  32.995  22.952   5.550
 9579POPC   PO465736  33.007  22.917   5.850
 9579POPC   GL165737  33.072  22.902   6.150
 9579POPC   GL265738  32.933  22.854   6.150
 9579POPC   C1A65739  32.999  22.963   6.450
 9579POPC   D2A65740  33.069  22.966   6.750
 9579POPC   C3A65741  33.015  22.980   7.050
 9579POPC   C4A65742  32.993  22.974   7.350
 9579POPC   C1B65743  32.918  22.696   6.450
 9579POPC   C2B65744  32.917  22.768   6.750
 9579POPC   C3B65745  32.894  22.687   7.050
 9579POPC   C4B65746  32.925  22.771   7.350
 9580POPC   NC365747  22.986   7.439   5.550
 9580POPC   PO465748  22.906   7.388   5.850
 9580POPC   GL165749  22.898   7.406   6.150
 9580POPC   GL265750  22.970   7.549   6.150
 9580POPC   C1A65751  22.907   7.413   6.450
 9580POPC   D2A65752  22.983   7.398   6.750
 9580POPC   C3A65753  22.912   7.383   7.050
 9580POPC   C4A65754  22.983   7.373   7.350
 9580POPC   C1B65755  23.008   7.636   6.450
 9580POPC   C2B65756  23.006   7.675   6.750
 9580POPC   C3B65757  22.997   7.647   7.050
 9580POPC   C4B65758  22.960   7.619   7.350
 9581POPC   NC365759  12.877   5.079   5.550
 9581POPC   PO465760  12.826   5.047   5.850
 9581POPC   GL165761  12.860   5.128   6.150
 9581POPC   GL265762  12.882   5.245   6.150
 9581POPC   C1A65763  12.883   5.049   6.450
 9581POPC   D2A65764  12.853   5.107   6.750
 9581POPC   C3A65765  12.843   5.102   7.050
 9581POPC   C4A65766  12.852   5.074   7.350
 9581POPC   C1B65767  12.969   5.277   6.450
 9581POPC   C2B65768  12.931   5.306   6.750
 9581POPC   C3B65769  12.944   5.354   7.050
 9581POPC   C4B65770  12.929   5.316   7.350
 9582POPC   NC365771  19.078  40.770   5.550
 9582POPC   PO465772  19.037  40.748   5.850
 9582POPC   GL165773  19.092  40.770   6.150
 9582POPC   GL265774  19.209  40.800   6.150
 9582POPC   C1A65775  19.018  40.734   6.450
 9582POPC   D2A65776  19.106  40.756   6.750
 9582POPC   C3A65777  19.046  40.771   7.050
 9582POPC   C4A65778  19.050  40.816   7.350
 9582POPC   C1B65779  19.307  40.831   6.450
 9582POPC   C2B65780  19.344  40.835   6.750
 9582POPC   C3B65781  19.291  40.849   7.050
 9582POPC   C4B65782  19.305  40.805   7.350
 9583POPC   NC365783  22.123  44.693   5.550
 9583POPC   PO465784  22.116  44.644   5.850
 9583POPC   GL165785  22.123  44.681   6.150
 9583POPC   GL265786  21.993  44.674   6.150
 9583POPC   C1A65787  22.196  44.619   6.450
 9583POPC   D2A65788  22.145  44.622   6.750
 9583POPC   C3A65789  22.192  44.660   7.050
 9583POPC   C4A65790  22.134  44.702   7.350
 9583POPC   C1B65791  21.947  44.680   6.450
 9583POPC   C2B65792  21.923  44.731   6.750
 9583POPC   C3B65793  21.930  44.669   7.050
 9583POPC   C4B65794  21.894  44.731   7.350
 9584POPC   NC365795  41.605  29.168   5.550
 9584POPC   PO465796  41.545  29.157   5.850
 9584POPC   GL165797  41.554  29.163   6.150
 9584POPC   GL265798  41.540  29.032   6.150
 9584POPC   C1A65799  41.598  29.108   6.450
 9584POPC   D2A65800  41.572  29.150   6.750
 9584POPC   C3A65801  41.565  29.194   7.050
 9584POPC   C4A65802  41.545  29.156   7.350
 9584POPC   C1B65803  41.556  28.922   6.450
 9584POPC   C2B65804  41.527  28.914   6.750
 9584POPC   C3B65805  41.552  28.922   7.050
 9584POPC   C4B65806  41.543  28.873   7.350
 9585POPC   NC365807   4.292  27.610   5.550
 9585POPC   PO465808   4.314  27.586   5.850
 9585POPC   GL165809   4.310  27.604   6.150
 9585POPC   GL265810   4.213  27.450   6.150
 9585POPC   C1A65811   4.345  27.560   6.450
 9585POPC   D2A65812   4.360  27.584   6.750
 9585POPC   C3A65813   4.353  27.559   7.050
 9585POPC   C4A65814   4.327  27.592   7.350
 9585POPC   C1B65815   4.162  27.365   6.450
 9585POPC   C2B65816   4.158  27.370   6.750
 9585POPC   C3B65817   4.150  27.419   7.050
 9585POPC   C4B65818   4.174  27.363   7.350
 9586POPC   NC365819  29.967  26.072   5.550
 9586POPC   PO465820  29.877  26.046   5.850
 9586POPC   GL165821  29.904  26.016   6.150
 9586POPC   GL265822  30.031  25.979   6.150
 9586POPC   C1A65823  29.905  26.022   6.450
 9586POPC   D2A65824  29.953  26.011   6.750
 9586POPC   C3A65825  29.953  25.992   7.050
 9586POPC   C4A65826  29.887  26.064   7.350
 9586POPC   C1B65827  30.212  25.988   6.450
 9586POPC   C2B65828  30.179  25.982   6.750
 9586POPC   C3B65829  30.179  25.969   7.050
 9586POPC   C4B65830  30.201  26.020   7.350
 9587POPC   NC365831  33.779  25.254   5.550
 9587POPC   PO465832  33.818  25.231   5.850
 9587POPC   GL165833  33.813  25.256   6.150
 9587POPC   GL265834  33.785  25.165   6.150
 9587POPC   C1A65835  33.819  25.276   6.450
 9587POPC   D2A65836  33.813  25.222   6.750
 9587POPC   C3A65837  33.757  25.216   7.050
 9587POPC   C4A65838  33.779  25.239   7.350
 9587POPC   C1B65839  33.782  25.028   6.450
 9587POPC   C2B65840  33.702  25.074   6.750
 9587POPC   C3B65841  33.732  24.986   7.050
 9587POPC   C4B65842  33.781  25.057   7.350
 9588POPC   NC365843  34.547  27.573   5.550
 9588POPC   PO465844  34.586  27.626   5.850
 9588POPC   GL165845  34.555  27.548   6.150
 9588POPC   GL265846  34.691  27.728   6.150
 9588POPC   C1A65847  34.573  27.633   6.450
 9588POPC   D2A65848  34.590  27.588   6.750
 9588POPC   C3A65849  34.616  27.590   7.050
 9588POPC   C4A65850  34.601  27.571   7.350
 9588POPC   C1B65851  34.760  27.773   6.450
 9588POPC   C2B65852  34.734  27.741   6.750
 9588POPC   C3B65853  34.726  27.834   7.050
 9588POPC   C4B65854  34.723  27.753   7.350
 9589POPC   NC365855  28.408  24.529   5.550
 9589POPC   PO465856  28.374  24.499   5.850
 9589POPC   GL165857  28.407  24.442   6.150
 9589POPC   GL265858  28.442  24.625   6.150
 9589POPC   C1A65859  28.379  24.512   6.450
 9589POPC   D2A65860  28.411  24.456   6.750
 9589POPC   C3A65861  28.333  24.448   7.050
 9589POPC   C4A65862  28.381  24.467   7.350
 9589POPC   C1B65863  28.433  24.736   6.450
 9589POPC   C2B65864  28.468  24.756   6.750
 9589POPC   C3B65865  28.451  24.712   7.050
 9589POPC   C4B65866  28.495  24.691   7.350
 9590POPC   NC365867  33.802   9.005   5.550
 9590POPC   PO465868  33.756   8.991   5.850
 9590POPC   GL165869  33.838   8.925   6.150
 9590POPC   GL265870  33.747   9.065   6.150
 9590POPC   C1A65871  33.831   8.941   6.450
 9590POPC   D2A65872  33.753   8.977   6.750
 9590POPC   C3A65873  33.797   8.958   7.050
 9590POPC   C4A65874  33.825   9.021   7.350
 9590POPC   C1B65875  33.605   9.096   6.450
 9590POPC   C2B65876  33.635   9.164   6.750
 9590POPC   C3B65877  33.649   9.106   7.050
 9590POPC   C4B65878  33.644   9.140   7.350
 9591POPC   NC365879  15.171   7.451   5.550
 9591POPC   PO465880  15.153   7.436   5.850
 9591POPC   GL165881  15.193   7.443   6.150
 9591POPC   GL265882  15.074   7.450   6.150
 9591POPC   C1A65883  15.146   7.403   6.450
 9591POPC   D2A65884  15.150   7.373   6.750
 9591POPC   C3A65885  15.222   7.424   7.050
 9591POPC   C4A65886  15.198   7.424   7.350
 9591POPC   C1B65887  14.910   7.332   6.450
 9591POPC   C2B65888  14.952   7.413   6.750
 9591POPC   C3B65889  14.942   7.418   7.050
 9591POPC   C4B65890  14.925   7.402   7.350
 9592POPC   NC365891  24.528  30.654   5.550
 9592POPC   PO465892  24.488  30.720   5.850
 9592POPC   GL165893  24.455  30.731   6.150
 9592POPC   GL265894  24.488  30.576   6.150
 9592POPC   C1A65895  24.535  30.650   6.450
 9592POPC   D2A65896  24.488  30.720   6.750
 9592POPC   C3A65897  24.503  30.685   7.050
 9592POPC   C4A65898  24.474  30.692   7.350
 9592POPC   C1B65899  24.506  30.498   6.450
 9592POPC   C2B65900  24.561  30.422   6.750
 9592POPC   C3B65901  24.513  30.485   7.050
 9592POPC   C4B65902  24.564  30.413   7.350
 9593POPC   NC365903   8.996  26.040   5.550
 9593POPC   PO465904   8.963  26.067   5.850
 9593POPC   GL165905   8.932  26.058   6.150
 9593POPC   GL265906   8.935  25.883   6.150
 9593POPC   C1A65907   9.003  26.045   6.450
 9593POPC   D2A65908   8.969  26.032   6.750
 9593POPC   C3A65909   8.930  26.046   7.050
 9593POPC   C4A65910   8.944  26.039   7.350
 9593POPC   C1B65911   8.923  25.830   6.450
 9593POPC   C2B65912   8.909  25.847   6.750
 9593POPC   C3B65913   8.913  25.770   7.050
 9593POPC   C4B65914   8.850  25.811   7.350
 9594POPC   NC365915  30.706  12.063   5.550
 9594POPC   PO465916  30.701  12.053   5.850
 9594POPC   GL165917  30.670  12.053   6.150
 9594POPC   GL265918  30.677  12.173   6.150
 9594POPC   C1A65919  30.672  12.116   6.450
 9594POPC   D2A65920  30.701  12.062   6.750
 9594POPC   C3A65921  30.671  12.039   7.050
 9594POPC   C4A65922  30.667  12.074   7.350
 9594POPC   C1B65923  30.600  12.262   6.450
 9594POPC   C2B65924  30.584  12.290   6.750
 9594POPC   C3B65925  30.602  12.280   7.050
 9594POPC   C4B65926  30.526  12.254   7.350
 9595POPC   NC365927  10.531  37.721   5.550
 9595POPC   PO465928  10.528  37.721   5.850
 9595POPC   GL165929  10.538  37.661   6.150
 9595POPC   GL265930  10.489  37.559   6.150
 9595POPC   C1A65931  10.543  37.645   6.450
 9595POPC   D2A65932  10.555  37.632   6.750
 9595POPC   C3A65933  10.524  37.716   7.050
 9595POPC   C4A65934  10.529  37.701   7.350
 9595POPC   C1B65935  10.399  37.450   6.450
 9595POPC   C2B65936  10.386  37.495   6.750
 9595POPC   C3B65937  10.365  37.435   7.050
 9595POPC   C4B65938  10.384  37.512   7.350
 9596POPC   NC365939  18.308  12.065   5.550
 9596POPC   PO465940  18.255  12.029   5.850
 9596POPC   GL165941  18.247  12.044   6.150
 9596POPC   GL265942  18.301  12.170   6.150
 9596POPC   C1A65943  18.326  12.112   6.450
 9596POPC   D2A65944  18.323  12.116   6.750
 9596POPC   C3A65945  18.294  12.053   7.050
 9596POPC   C4A65946  18.262  12.109   7.350
 9596POPC   C1B65947  18.261  12.347   6.450
 9596POPC   C2B65948  18.224  12.346   6.750
 9596POPC   C3B65949  18.239  12.358   7.050
 9596POPC   C4B65950  18.193  12.363   7.350
 9597POPC   NC365951  22.947   5.848   5.550
 9597POPC   PO465952  22.943   5.855   5.850
 9597POPC   GL165953  22.982   5.907   6.150
 9597POPC   GL265954  23.082   5.887   6.150
 9597POPC   C1A65955  22.950   5.832   6.450
 9597POPC   D2A65956  22.931   5.846   6.750
 9597POPC   C3A65957  22.927   5.869   7.050
 9597POPC   C4A65958  22.985   5.888   7.350
 9597POPC   C1B65959  23.202   6.010   6.450
 9597POPC   C2B65960  23.176   5.945   6.750
 9597POPC   C3B65961  23.161   6.012   7.050
 9597POPC   C4B65962  23.138   6.004   7.350
 9598POPC   NC365963  30.708   0.420   5.550
 9598POPC   PO465964  30.675   0.395   5.850
 9598POPC   GL165965  30.714   0.427   6.150
 9598POPC   GL265966  30.624   0.426   6.150
 9598POPC   C1A65967  30.717   0.471   6.450
 9598POPC   D2A65968  30.670   0.419   6.750
 9598POPC   C3A65969  30.697   0.466   7.050
 9598POPC   C4A65970  30.741   0.403   7.350
 9598POPC   C1B65971  30.444   0.555   6.450
 9598POPC   C2B65972  30.471   0.550   6.750
 9598POPC   C3B65973  30.453   0.472   7.050
 9598POPC   C4B65974  30.500   0.543   7.350
 9599POPC   NC365975  44.626  25.218   5.550
 9599POPC   PO465976  44.655  25.258   5.850
 9599POPC   GL165977  44.655  25.261   6.150
 9599POPC   GL265978  44.697  25.391   6.150
 9599POPC   C1A65979  44.640  25.250   6.450
 9599POPC   D2A65980  44.632  25.283   6.750
 9599POPC   C3A65981  44.659  25.311   7.050
 9599POPC   C4A65982  44.688  25.234   7.350
 9599POPC   C1B65983  44.726  25.463   6.450
 9599POPC   C2B65984  44.755  25.525   6.750
 9599POPC   C3B65985  44.730  25.510   7.050
 9599POPC   C4B65986  44.727  25.502   7.350
 9600POPC   NC365987  14.435  20.612   5.550
 9600POPC   PO465988  14.375  20.590   5.850
 9600POPC   GL165989  14.435  20.602   6.150
 9600POPC   GL265990  14.492  20.522   6.150
 9600POPC   C1A65991  14.399  20.613   6.450
 9600POPC   D2A65992  14.401  20.570   6.750
 9600POPC   C3A65993  14.425  20.572   7.050
 9600POPC   C4A65994  14.415  20.648   7.350
 9600POPC   C1B65995  14.513  20.416   6.450
 9600POPC   C2B65996  14.487  20.425   6.750
 9600POPC   C3B65997  14.530  20.362   7.050
 9600POPC   C4B65998  14.475  20.329   7.350
 9601POPC   NC365999  28.378  22.971   5.550
 9601POPC   PO466000  28.374  22.889   5.850
 9601POPC   GL166001  28.334  22.979   6.150
 9601POPC   GL266002  28.433  23.064   6.150
 9601POPC   C1A66003  28.380  22.905   6.450
 9601POPC   D2A66004  28.384  22.957   6.750
 9601POPC   C3A66005  28.362  22.973   7.050
 9601POPC   C4A66006  28.356  22.977   7.350
 9601POPC   C1B66007  28.483  23.173   6.450
 9601POPC   C2B66008  28.480  23.150   6.750
 9601POPC   C3B66009  28.414  23.219   7.050
 9601POPC   C4B66010  28.452  23.131   7.350
 9602POPC   NC366011   5.831  15.154   5.550
 9602POPC   PO466012   5.889  15.197   5.850
 9602POPC   GL166013   5.912  15.151   6.150
 9602POPC   GL266014   5.963  15.167   6.150
 9602POPC   C1A66015   5.821  15.196   6.450
 9602POPC   D2A66016   5.837  15.185   6.750
 9602POPC   C3A66017   5.897  15.198   7.050
 9602POPC   C4A66018   5.898  15.140   7.350
 9602POPC   C1B66019   6.108  15.091   6.450
 9602POPC   C2B66020   6.068  15.040   6.750
 9602POPC   C3B66021   6.124  15.112   7.050
 9602POPC   C4B66022   6.083  15.034   7.350
 9603POPC   NC366023  12.056  17.470   5.550
 9603POPC   PO466024  12.037  17.526   5.850
 9603POPC   GL166025  12.047  17.480   6.150
 9603POPC   GL266026  12.182  17.465   6.150
 9603POPC   C1A66027  12.098  17.492   6.450
 9603POPC   D2A66028  12.056  17.457   6.750
 9603POPC   C3A66029  12.124  17.470   7.050
 9603POPC   C4A66030  12.069  17.545   7.350
 9603POPC   C1B66031  12.281  17.470   6.450
 9603POPC   C2B66032  12.318  17.502   6.750
 9603POPC   C3B66033  12.319  17.416   7.050
 9603POPC   C4B66034  12.340  17.488   7.350
 9604POPC   NC366035   6.641  19.080   5.550
 9604POPC   PO466036   6.665  19.091   5.850
 9604POPC   GL166037   6.633  19.016   6.150
 9604POPC   GL266038   6.755  19.091   6.150
 9604POPC   C1A66039   6.673  19.031   6.450
 9604POPC   D2A66040   6.657  19.073   6.750
 9604POPC   C3A66041   6.694  19.073   7.050
 9604POPC   C4A66042   6.663  19.071   7.350
 9604POPC   C1B66043   6.886  18.986   6.450
 9604POPC   C2B66044   6.875  19.017   6.750
 9604POPC   C3B66045   6.923  19.058   7.050
 9604POPC   C4B66046   6.897  19.060   7.350
 9605POPC   NC366047  27.623   8.186   5.550
 9605POPC   PO466048  27.544   8.150   5.850
 9605POPC   GL166049  27.566   8.172   6.150
 9605POPC   GL266050  27.630   8.278   6.150
 9605POPC   C1A66051  27.627   8.160   6.450
 9605POPC   D2A66052  27.606   8.246   6.750
 9605POPC   C3A66053  27.549   8.214   7.050
 9605POPC   C4A66054  27.604   8.170   7.350
 9605POPC   C1B66055  27.678   8.399   6.450
 9605POPC   C2B66056  27.666   8.436   6.750
 9605POPC   C3B66057  27.683   8.408   7.050
 9605POPC   C4B66058  27.743   8.394   7.350
 9606POPC   NC366059  28.407  16.709   5.550
 9606POPC   PO466060  28.351  16.749   5.850
 9606POPC   GL166061  28.382  16.775   6.150
 9606POPC   GL266062  28.372  16.590   6.150
 9606POPC   C1A66063  28.386  16.757   6.450
 9606POPC   D2A66064  28.324  16.762   6.750
 9606POPC   C3A66065  28.328  16.709   7.050
 9606POPC   C4A66066  28.378  16.731   7.350
 9606POPC   C1B66067  28.392  16.498   6.450
 9606POPC   C2B66068  28.315  16.471   6.750
 9606POPC   C3B66069  28.375  16.529   7.050
 9606POPC   C4B66070  28.324  16.483   7.350
 9607POPC   NC366071  20.634  38.494   5.550
 9607POPC   PO466072  20.631  38.414   5.850
 9607POPC   GL166073  20.615  38.484   6.150
 9607POPC   GL266074  20.773  38.400   6.150
 9607POPC   C1A66075  20.574  38.485   6.450
 9607POPC   D2A66076  20.596  38.464   6.750
 9607POPC   C3A66077  20.562  38.473   7.050
 9607POPC   C4A66078  20.648  38.437   7.350
 9607POPC   C1B66079  20.825  38.375   6.450
 9607POPC   C2B66080  20.907  38.410   6.750
 9607POPC   C3B66081  20.855  38.414   7.050
 9607POPC   C4B66082  20.887  38.464   7.350
 9608POPC   NC366083  29.135   6.647   5.550
 9608POPC   PO466084  29.168   6.669   5.850
 9608POPC   GL166085  29.161   6.689   6.150
 9608POPC   GL266086  29.119   6.720   6.150
 9608POPC   C1A66087  29.098   6.614   6.450
 9608POPC   D2A66088  29.122   6.682   6.750
 9608POPC   C3A66089  29.179   6.695   7.050
 9608POPC   C4A66090  29.137   6.636   7.350
 9608POPC   C1B66091  29.026   6.826   6.450
 9608POPC   C2B66092  29.035   6.851   6.750
 9608POPC   C3B66093  29.003   6.895   7.050
 9608POPC   C4B66094  29.000   6.837   7.350
 9609POPC   NC366095   6.610   8.935   5.550
 9609POPC   PO466096   6.672   9.000   5.850
 9609POPC   GL166097   6.609   8.997   6.150
 9609POPC   GL266098   6.689   8.882   6.150
 9609POPC   C1A66099   6.600   8.927   6.450
 9609POPC   D2A66100   6.663   8.940   6.750
 9609POPC   C3A66101   6.605   9.016   7.050
 9609POPC   C4A66102   6.658   8.981   7.350
 9609POPC   C1B66103   6.718   8.788   6.450
 9609POPC   C2B66104   6.778   8.740   6.750
 9609POPC   C3B66105   6.808   8.756   7.050
 9609POPC   C4B66106   6.751   8.774   7.350
 9610POPC   NC366107   7.433  31.483   5.550
 9610POPC   PO466108   7.411  31.456   5.850
 9610POPC   GL166109   7.421  31.496   6.150
 9610POPC   GL266110   7.458  31.598   6.150
 9610POPC   C1A66111   7.466  31.451   6.450
 9610POPC   D2A66112   7.429  31.479   6.750
 9610POPC   C3A66113   7.460  31.428   7.050
 9610POPC   C4A66114   7.410  31.464   7.350
 9610POPC   C1B66115   7.548  31.683   6.450
 9610POPC   C2B66116   7.600  31.684   6.750
 9610POPC   C3B66117   7.600  31.623   7.050
 9610POPC   C4B66118   7.552  31.709   7.350
 9611POPC   NC366119   2.790  15.955   5.550
 9611POPC   PO466120   2.753  15.957   5.850
 9611POPC   GL166121   2.717  16.002   6.150
 9611POPC   GL266122   2.695  15.876   6.150
 9611POPC   C1A66123   2.716  15.960   6.450
 9611POPC   D2A66124   2.726  15.993   6.750
 9611POPC   C3A66125   2.809  16.004   7.050
 9611POPC   C4A66126   2.789  16.001   7.350
 9611POPC   C1B66127   2.513  15.831   6.450
 9611POPC   C2B66128   2.492  15.885   6.750
 9611POPC   C3B66129   2.563  15.824   7.050
 9611POPC   C4B66130   2.495  15.838   7.350
 9612POPC   NC366131  34.569  12.084   5.550
 9612POPC   PO466132  34.541  12.077   5.850
 9612POPC   GL166133  34.599  12.027   6.150
 9612POPC   GL266134  34.506  12.004   6.150
 9612POPC   C1A66135  34.590  12.112   6.450
 9612POPC   D2A66136  34.549  12.066   6.750
 9612POPC   C3A66137  34.580  12.121   7.050
 9612POPC   C4A66138  34.542  12.084   7.350
 9612POPC   C1B66139  34.404  11.938   6.450
 9612POPC   C2B66140  34.312  11.964   6.750
 9612POPC   C3B66141  34.352  11.946   7.050
 9612POPC   C4B66142  34.337  11.966   7.350
 9613POPC   NC366143   5.099  15.970   5.550
 9613POPC   PO466144   5.107  15.954   5.850
 9613POPC   GL166145   5.120  15.992   6.150
 9613POPC   GL266146   4.971  15.902   6.150
 9613POPC   C1A66147   5.078  16.004   6.450
 9613POPC   D2A66148   5.111  15.970   6.750
 9613POPC   C3A66149   5.074  15.915   7.050
 9613POPC   C4A66150   5.133  15.908   7.350
 9613POPC   C1B66151   4.880  15.974   6.450
 9613POPC   C2B66152   4.820  15.959   6.750
 9613POPC   C3B66153   4.823  15.964   7.050
 9613POPC   C4B66154   4.892  15.922   7.350
 9614POPC   NC366155  41.544  19.046   5.550
 9614POPC   PO466156  41.533  19.040   5.850
 9614POPC   GL166157  41.511  19.050   6.150
 9614POPC   GL266158  41.626  18.972   6.150
 9614POPC   C1A66159  41.578  19.084   6.450
 9614POPC   D2A66160  41.547  19.091   6.750
 9614POPC   C3A66161  41.591  19.104   7.050
 9614POPC   C4A66162  41.555  19.081   7.350
 9614POPC   C1B66163  41.829  18.975   6.450
 9614POPC   C2B66164  41.829  18.946   6.750
 9614POPC   C3B66165  41.775  18.990   7.050
 9614POPC   C4B66166  41.741  18.950   7.350
 9615POPC   NC366167  43.137  35.320   5.550
 9615POPC   PO466168  43.136  35.351   5.850
 9615POPC   GL166169  43.148  35.321   6.150
 9615POPC   GL266170  43.248  35.381   6.150
 9615POPC   C1A66171  43.131  35.325   6.450
 9615POPC   D2A66172  43.077  35.395   6.750
 9615POPC   C3A66173  43.156  35.325   7.050
 9615POPC   C4A66174  43.149  35.351   7.350
 9615POPC   C1B66175  43.319  35.342   6.450
 9615POPC   C2B66176  43.335  35.355   6.750
 9615POPC   C3B66177  43.327  35.310   7.050
 9615POPC   C4B66178  43.355  35.399   7.350
 9616POPC   NC366179  22.895  18.244   5.550
 9616POPC   PO466180  22.911  18.269   5.850
 9616POPC   GL166181  22.943  18.244   6.150
 9616POPC   GL266182  22.809  18.236   6.150
 9616POPC   C1A66183  22.944  18.263   6.450
 9616POPC   D2A66184  22.951  18.269   6.750
 9616POPC   C3A66185  22.955  18.310   7.050
 9616POPC   C4A66186  22.889  18.320   7.350
 9616POPC   C1B66187  22.722  18.149   6.450
 9616POPC   C2B66188  22.744  18.164   6.750
 9616POPC   C3B66189  22.687  18.156   7.050
 9616POPC   C4B66190  22.713  18.190   7.350
 9617POPC   NC366191   2.717  40.735   5.550
 9617POPC   PO466192   2.811  40.745   5.850
 9617POPC   GL166193   2.804  40.753   6.150
 9617POPC   GL266194   2.854  40.752   6.150
 9617POPC   C1A66195   2.734  40.787   6.450
 9617POPC   D2A66196   2.761  40.815   6.750
 9617POPC   C3A66197   2.765  40.736   7.050
 9617POPC   C4A66198   2.725  40.760   7.350
 9617POPC   C1B66199   3.007  40.665   6.450
 9617POPC   C2B66200   3.045  40.644   6.750
 9617POPC   C3B66201   2.984  40.707   7.050
 9617POPC   C4B66202   2.989  40.732   7.350
 9618POPC   NC366203  13.651  19.805   5.550
 9618POPC   PO466204  13.647  19.880   5.850
 9618POPC   GL166205  13.655  19.873   6.150
 9618POPC   GL266206  13.557  19.945   6.150
 9618POPC   C1A66207  13.666  19.812   6.450
 9618POPC   D2A66208  13.618  19.832   6.750
 9618POPC   C3A66209  13.672  19.827   7.050
 9618POPC   C4A66210  13.585  19.831   7.350
 9618POPC   C1B66211  13.491  19.993   6.450
 9618POPC   C2B66212  13.454  19.961   6.750
 9618POPC   C3B66213  13.465  19.981   7.050
 9618POPC   C4B66214  13.411  19.958   7.350
 9619POPC   NC366215  31.491   3.590   5.550
 9619POPC   PO466216  31.483   3.575   5.850
 9619POPC   GL166217  31.453   3.590   6.150
 9619POPC   GL266218  31.306   3.569   6.150
 9619POPC   C1A66219  31.502   3.499   6.450
 9619POPC   D2A66220  31.516   3.561   6.750
 9619POPC   C3A66221  31.470   3.552   7.050
 9619POPC   C4A66222  31.508   3.506   7.350
 9619POPC   C1B66223  31.231   3.572   6.450
 9619POPC   C2B66224  31.220   3.611   6.750
 9619POPC   C3B66225  31.197   3.616   7.050
 9619POPC   C4B66226  31.226   3.608   7.350
 9620POPC   NC366227  27.551   2.771   5.550
 9620POPC   PO466228  27.556   2.785   5.850
 9620POPC   GL166229  27.563   2.726   6.150
 9620POPC   GL266230  27.746   2.784   6.150
 9620POPC   C1A66231  27.562   2.720   6.450
 9620POPC   D2A66232  27.604   2.744   6.750
 9620POPC   C3A66233  27.563   2.746   7.050
 9620POPC   C4A66234  27.584   2.724   7.350
 9620POPC   C1B66235  27.874   2.774   6.450
 9620POPC   C2B66236  27.890   2.768   6.750
 9620POPC   C3B66237  27.882   2.709   7.050
 9620POPC   C4B66238  27.805   2.747   7.350
 9621POPC   NC366239   8.942  22.905   5.550
 9621POPC   PO466240   8.931  22.894   5.850
 9621POPC   GL166241   8.981  22.960   6.150
 9621POPC   GL266242   8.891  23.019   6.150
 9621POPC   C1A66243   8.925  22.917   6.450
 9621POPC   D2A66244   8.944  22.941   6.750
 9621POPC   C3A66245   9.002  22.901   7.050
 9621POPC   C4A66246   8.965  22.972   7.350
 9621POPC   C1B66247   8.748  23.034   6.450
 9621POPC   C2B66248   8.707  22.984   6.750
 9621POPC   C3B66249   8.759  23.052   7.050
 9621POPC   C4B66250   8.786  23.039   7.350
 9622POPC   NC366251  17.464  41.547   5.550
 9622POPC   PO466252  17.534  41.539   5.850
 9622POPC   GL166253  17.532  41.541   6.150
 9622POPC   GL266254  17.443  41.656   6.150
 9622POPC   C1A66255  17.521  41.571   6.450
 9622POPC   D2A66256  17.515  41.577   6.750
 9622POPC   C3A66257  17.556  41.525   7.050
 9622POPC   C4A66258  17.526  41.536   7.350
 9622POPC   C1B66259  17.348  41.698   6.450
 9622POPC   C2B66260  17.309  41.741   6.750
 9622POPC   C3B66261  17.342  41.743   7.050
 9622POPC   C4B66262  17.295  41.661   7.350
 9623POPC   NC366263   1.260  39.265   5.550
 9623POPC   PO466264   1.178  39.276   5.850
 9623POPC   GL166265   1.211  39.209   6.150
 9623POPC   GL266266   1.365  39.171   6.150
 9623POPC   C1A66267   1.202  39.226   6.450
 9623POPC   D2A66268   1.208  39.277   6.750
 9623POPC   C3A66269   1.201  39.211   7.050
 9623POPC   C4A66270   1.186  39.247   7.350
 9623POPC   C1B66271   1.454  39.184   6.450
 9623POPC   C2B66272   1.444  39.239   6.750
 9623POPC   C3B66273   1.448  39.238   7.050
 9623POPC   C4B66274   1.413  39.248   7.350
 9624POPC   NC366275  33.031  12.856   5.550
 9624POPC   PO466276  32.985  12.863   5.850
 9624POPC   GL166277  33.027  12.868   6.150
 9624POPC   GL266278  33.027  12.694   6.150
 9624POPC   C1A66279  33.038  12.814   6.450
 9624POPC   D2A66280  33.032  12.859   6.750
 9624POPC   C3A66281  33.021  12.844   7.050
 9624POPC   C4A66282  33.048  12.859   7.350
 9624POPC   C1B66283  32.975  12.601   6.450
 9624POPC   C2B66284  32.981  12.607   6.750
 9624POPC   C3B66285  32.968  12.649   7.050
 9624POPC   C4B66286  32.987  12.636   7.350
 9625POPC   NC366287  22.153   9.012   5.550
 9625POPC   PO466288  22.165   8.977   5.850
 9625POPC   GL166289  22.121   8.957   6.150
 9625POPC   GL266290  22.290   9.043   6.150
 9625POPC   C1A66291  22.121   8.975   6.450
 9625POPC   D2A66292  22.169   8.945   6.750
 9625POPC   C3A66293  22.188   8.979   7.050
 9625POPC   C4A66294  22.132   9.009   7.350
 9625POPC   C1B66295  22.384   9.081   6.450
 9625POPC   C2B66296  22.354   9.021   6.750
 9625POPC   C3B66297  22.355   9.097   7.050
 9625POPC   C4B66298  22.361   9.059   7.350
 9626POPC   NC366299  22.988  15.951   5.550
 9626POPC   PO466300  22.897  15.907   5.850
 9626POPC   GL166301  22.903  15.945   6.150
 9626POPC   GL266302  22.876  16.035   6.150
 9626POPC   C1A66303  22.900  15.999   6.450
 9626POPC   D2A66304  22.936  15.970   6.750
 9626POPC   C3A66305  22.965  15.994   7.050
 9626POPC   C4A66306  22.954  15.940   7.350
 9626POPC   C1B66307  22.894  16.179   6.450
 9626POPC   C2B66308  22.847  16.204   6.750
 9626POPC   C3B66309  22.831  16.177   7.050
 9626POPC   C4B66310  22.912  16.166   7.350
 9627POPC   NC366311  42.354  31.519   5.550
 9627POPC   PO466312  42.334  31.477   5.850
 9627POPC   GL166313  42.368  31.436   6.150
 9627POPC   GL266314  42.349  31.601   6.150
 9627POPC   C1A66315  42.309  31.428   6.450
 9627POPC   D2A66316  42.372  31.521   6.750
 9627POPC   C3A66317  42.287  31.486   7.050
 9627POPC   C4A66318  42.337  31.512   7.350
 9627POPC   C1B66319  42.264  31.710   6.450
 9627POPC   C2B66320  42.260  31.683   6.750
 9627POPC   C3B66321  42.266  31.671   7.050
 9627POPC   C4B66322  42.225  31.719   7.350
 9628POPC   NC366323  35.401  24.442   5.550
 9628POPC   PO466324  35.350  24.538   5.850
 9628POPC   GL166325  35.334  24.533   6.150
 9628POPC   GL266326  35.450  24.615   6.150
 9628POPC   C1A66327  35.351  24.526   6.450
 9628POPC   D2A66328  35.317  24.512   6.750
 9628POPC   C3A66329  35.337  24.512   7.050
 9628POPC   C4A66330  35.341  24.507   7.350
 9628POPC   C1B66331  35.512  24.693   6.450
 9628POPC   C2B66332  35.487  24.651   6.750
 9628POPC   C3B66333  35.510  24.665   7.050
 9628POPC   C4B66334  35.516  24.719   7.350
 9629POPC   NC366335  22.933  22.205   5.550
 9629POPC   PO466336  22.929  22.142   5.850
 9629POPC   GL166337  22.891  22.192   6.150
 9629POPC   GL266338  22.851  22.044   6.150
 9629POPC   C1A66339  22.943  22.146   6.450
 9629POPC   D2A66340  22.956  22.166   6.750
 9629POPC   C3A66341  22.960  22.199   7.050
 9629POPC   C4A66342  22.963  22.131   7.350
 9629POPC   C1B66343  22.787  21.946   6.450
 9629POPC   C2B66344  22.733  21.952   6.750
 9629POPC   C3B66345  22.730  21.965   7.050
 9629POPC   C4B66346  22.774  21.949   7.350
 9630POPC   NC366347  40.759  15.960   5.550
 9630POPC   PO466348  40.754  15.965   5.850
 9630POPC   GL166349  40.787  15.970   6.150
 9630POPC   GL266350  40.748  15.881   6.150
 9630POPC   C1A66351  40.831  15.976   6.450
 9630POPC   D2A66352  40.792  15.980   6.750
 9630POPC   C3A66353  40.738  15.944   7.050
 9630POPC   C4A66354  40.777  15.965   7.350
 9630POPC   C1B66355  40.623  15.723   6.450
 9630POPC   C2B66356  40.638  15.728   6.750
 9630POPC   C3B66357  40.696  15.694   7.050
 9630POPC   C4B66358  40.611  15.742   7.350
 9631POPC   NC366359  13.647  34.560   5.550
 9631POPC   PO466360  13.612  34.564   5.850
 9631POPC   GL166361  13.580  34.541   6.150
 9631POPC   GL266362  13.614  34.738   6.150
 9631POPC   C1A66363  13.663  34.567   6.450
 9631POPC   D2A66364  13.651  34.546   6.750
 9631POPC   C3A66365  13.590  34.622   7.050
 9631POPC   C4A66366  13.663  34.596   7.350
 9631POPC   C1B66367  13.674  34.790   6.450
 9631POPC   C2B66368  13.647  34.796   6.750
 9631POPC   C3B66369  13.680  34.874   7.050
 9631POPC   C4B66370  13.610  34.813   7.350
 9632POPC   NC366371   1.250   5.833   5.550
 9632POPC   PO466372   1.168   5.899   5.850
 9632POPC   GL166373   1.203   5.864   6.150
 9632POPC   GL266374   1.127   5.833   6.150
 9632POPC   C1A66375   1.198   5.869   6.450
 9632POPC   D2A66376   1.238   5.910   6.750
 9632POPC   C3A66377   1.238   5.832   7.050
 9632POPC   C4A66378   1.201   5.895   7.350
 9632POPC   C1B66379   1.066   5.696   6.450
 9632POPC   C2B66380   1.002   5.748   6.750
 9632POPC   C3B66381   0.987   5.707   7.050
 9632POPC   C4B66382   1.074   5.689   7.350
 9633POPC   NC366383  41.523  25.287   5.550
 9633POPC   PO466384  41.604  25.242   5.850
 9633POPC   GL166385  41.586  25.273   6.150
 9633POPC   GL266386  41.622  25.145   6.150
 9633POPC   C1A66387  41.600  25.309   6.450
 9633POPC   D2A66388  41.597  25.260   6.750
 9633POPC   C3A66389  41.600  25.287   7.050
 9633POPC   C4A66390  41.516  25.255   7.350
 9633POPC   C1B66391  41.585  25.029   6.450
 9633POPC   C2B66392  41.628  25.030   6.750
 9633POPC   C3B66393  41.658  25.020   7.050
 9633POPC   C4B66394  41.619  24.996   7.350
 9634POPC   NC366395  21.399  43.130   5.550
 9634POPC   PO466396  21.365  43.160   5.850
 9634POPC   GL166397  21.434  43.074   6.150
 9634POPC   GL266398  21.530  43.054   6.150
 9634POPC   C1A66399  21.370  43.131   6.450
 9634POPC   D2A66400  21.353  43.073   6.750
 9634POPC   C3A66401  21.338  43.077   7.050
 9634POPC   C4A66402  21.353  43.122   7.350
 9634POPC   C1B66403  21.616  43.035   6.450
 9634POPC   C2B66404  21.602  43.015   6.750
 9634POPC   C3B66405  21.637  42.999   7.050
 9634POPC   C4B66406  21.600  43.025   7.350
 9635POPC   NC366407  10.506  29.948   5.550
 9635POPC   PO466408  10.516  29.943   5.850
 9635POPC   GL166409  10.492  29.959   6.150
 9635POPC   GL266410  10.456  30.039   6.150
 9635POPC   C1A66411  10.501  29.881   6.450
 9635POPC   D2A66412  10.566  29.966   6.750
 9635POPC   C3A66413  10.545  29.959   7.050
 9635POPC   C4A66414  10.536  29.937   7.350
 9635POPC   C1B66415  10.384  30.123   6.450
 9635POPC   C2B66416  10.342  30.144   6.750
 9635POPC   C3B66417  10.307  30.047   7.050
 9635POPC   C4B66418  10.351  30.141   7.350
 9636POPC   NC366419  31.441  21.339   5.550
 9636POPC   PO466420  31.435  21.424   5.850
 9636POPC   GL166421  31.463  21.433   6.150
 9636POPC   GL266422  31.616  21.370   6.150
 9636POPC   C1A66423  31.481  21.362   6.450
 9636POPC   D2A66424  31.493  21.362   6.750
 9636POPC   C3A66425  31.477  21.378   7.050
 9636POPC   C4A66426  31.483  21.434   7.350
 9636POPC   C1B66427  31.699  21.340   6.450
 9636POPC   C2B66428  31.764  21.305   6.750
 9636POPC   C3B66429  31.690  21.352   7.050
 9636POPC   C4B66430  31.722  21.309   7.350
 9637POPC   NC366431   2.807   8.192   5.550
 9637POPC   PO466432   2.767   8.204   5.850
 9637POPC   GL166433   2.718   8.179   6.150
 9637POPC   GL266434   2.864   8.356   6.150
 9637POPC   C1A66435   2.781   8.199   6.450
 9637POPC   D2A66436   2.810   8.207   6.750
 9637POPC   C3A66437   2.740   8.164   7.050
 9637POPC   C4A66438   2.780   8.208   7.350
 9637POPC   C1B66439   2.919   8.455   6.450
 9637POPC   C2B66440   2.910   8.452   6.750
 9637POPC   C3B66441   2.908   8.467   7.050
 9637POPC   C4B66442   2.923   8.432   7.350
 9638POPC   NC366443  10.536   1.186   5.550
 9638POPC   PO466444  10.500   1.240   5.850
 9638POPC   GL166445  10.516   1.182   6.150
 9638POPC   GL266446  10.369   1.237   6.150
 9638POPC   C1A66447  10.519   1.190   6.450
 9638POPC   D2A66448  10.478   1.247   6.750
 9638POPC   C3A66449  10.536   1.184   7.050
 9638POPC   C4A66450  10.538   1.219   7.350
 9638POPC   C1B66451  10.260   1.352   6.450
 9638POPC   C2B66452  10.313   1.335   6.750
 9638POPC   C3B66453  10.340   1.349   7.050
 9638POPC   C4B66454  10.335   1.288   7.350
 9639POPC   NC366455   2.754  24.443   5.550
 9639POPC   PO466456   2.757  24.465   5.850
 9639POPC   GL166457   2.727  24.524   6.150
 9639POPC   GL266458   2.700  24.371   6.150
 9639POPC   C1A66459   2.786  24.535   6.450
 9639POPC   D2A66460   2.812  24.482   6.750
 9639POPC   C3A66461   2.774  24.468   7.050
 9639POPC   C4A66462   2.778  24.452   7.350
 9639POPC   C1B66463   2.624  24.362   6.450
 9639POPC   C2B66464   2.538  24.367   6.750
 9639POPC   C3B66465   2.562  24.293   7.050
 9639POPC   C4B66466   2.595  24.279   7.350
 9640POPC   NC366467   5.106   6.664   5.550
 9640POPC   PO466468   5.082   6.657   5.850
 9640POPC   GL166469   5.050   6.681   6.150
 9640POPC   GL266470   5.201   6.779   6.150
 9640POPC   C1A66471   5.141   6.601   6.450
 9640POPC   D2A66472   5.109   6.656   6.750
 9640POPC   C3A66473   5.103   6.662   7.050
 9640POPC   C4A66474   5.086   6.637   7.350
 9640POPC   C1B66475   5.240   6.777   6.450
 9640POPC   C2B66476   5.290   6.846   6.750
 9640POPC   C3B66477   5.302   6.820   7.050
 9640POPC   C4B66478   5.222   6.865   7.350
 9641POPC   NC366479  26.013  41.525   5.550
 9641POPC   PO466480  26.056  41.535   5.850
 9641POPC   GL166481  26.072  41.574   6.150
 9641POPC   GL266482  25.918  41.506   6.150
 9641POPC   C1A66483  26.053  41.564   6.450
 9641POPC   D2A66484  26.062  41.595   6.750
 9641POPC   C3A66485  26.000  41.524   7.050
 9641POPC   C4A66486  26.030  41.569   7.350
 9641POPC   C1B66487  25.842  41.465   6.450
 9641POPC   C2B66488  25.853  41.429   6.750
 9641POPC   C3B66489  25.789  41.417   7.050
 9641POPC   C4B66490  25.816  41.425   7.350
 9642POPC   NC366491   3.568  17.508   5.550
 9642POPC   PO466492   3.492  17.554   5.850
 9642POPC   GL166493   3.554  17.467   6.150
 9642POPC   GL266494   3.504  17.629   6.150
 9642POPC   C1A66495   3.583  17.476   6.450
 9642POPC   D2A66496   3.507  17.501   6.750
 9642POPC   C3A66497   3.591  17.538   7.050
 9642POPC   C4A66498   3.562  17.539   7.350
 9642POPC   C1B66499   3.505  17.785   6.450
 9642POPC   C2B66500   3.530  17.733   6.750
 9642POPC   C3B66501   3.536  17.726   7.050
 9642POPC   C4B66502   3.555  17.779   7.350
 9643POPC   NC366503   3.503  11.320   5.550
 9643POPC   PO466504   3.530  11.350   5.850
 9643POPC   GL166505   3.548  11.284   6.150
 9643POPC   GL266506   3.484  11.174   6.150
 9643POPC   C1A66507   3.497  11.276   6.450
 9643POPC   D2A66508   3.543  11.279   6.750
 9643POPC   C3A66509   3.562  11.272   7.050
 9643POPC   C4A66510   3.536  11.287   7.350
 9643POPC   C1B66511   3.527  11.044   6.450
 9643POPC   C2B66512   3.541  11.087   6.750
 9643POPC   C3B66513   3.477  11.031   7.050
 9643POPC   C4B66514   3.492  11.070   7.350
 9644POPC   NC366515  29.954  36.094   5.550
 9644POPC   PO466516  29.953  36.092   5.850
 9644POPC   GL166517  29.888  36.109   6.150
 9644POPC   GL266518  30.075  36.056   6.150
 9644POPC   C1A66519  29.882  36.139   6.450
 9644POPC   D2A66520  29.885  36.155   6.750
 9644POPC   C3A66521  29.872  36.129   7.050
 9644POPC   C4A66522  29.943  36.105   7.350
 9644POPC   C1B66523  30.178  36.031   6.450
 9644POPC   C2B66524  30.162  36.060   6.750
 9644POPC   C3B66525  30.124  36.116   7.050
 9644POPC   C4B66526  30.126  36.109   7.350
 9645POPC   NC366527  33.769  14.431   5.550
 9645POPC   PO466528  33.826  14.365   5.850
 9645POPC   GL166529  33.754  14.393   6.150
 9645POPC   GL266530  33.809  14.493   6.150
 9645POPC   C1A66531  33.840  14.395   6.450
 9645POPC   D2A66532  33.802  14.421   6.750
 9645POPC   C3A66533  33.835  14.400   7.050
 9645POPC   C4A66534  33.815  14.432   7.350
 9645POPC   C1B66535  33.927  14.658   6.450
 9645POPC   C2B66536  33.879  14.655   6.750
 9645POPC   C3B66537  33.947  14.607   7.050
 9645POPC   C4B66538  33.937  14.674   7.350
 9646POPC   NC366539  41.534   6.609   5.550
 9646POPC   PO466540  41.577   6.679   5.850
 9646POPC   GL166541  41.537   6.602   6.150
 9646POPC   GL266542  41.501   6.800   6.150
 9646POPC   C1A66543  41.589   6.658   6.450
 9646POPC   D2A66544  41.530   6.663   6.750
 9646POPC   C3A66545  41.521   6.618   7.050
 9646POPC   C4A66546  41.560   6.625   7.350
 9646POPC   C1B66547  41.471   6.819   6.450
 9646POPC   C2B66548  41.400   6.899   6.750
 9646POPC   C3B66549  41.423   6.909   7.050
 9646POPC   C4B66550  41.452   6.847   7.350
 9647POPC   NC366551  21.407   3.562   5.550
 9647POPC   PO466552  21.369   3.569   5.850
 9647POPC   GL166553  21.382   3.525   6.150
 9647POPC   GL266554  21.435   3.663   6.150
 9647POPC   C1A66555  21.345   3.535   6.450
 9647POPC   D2A66556  21.397   3.534   6.750
 9647POPC   C3A66557  21.343   3.524   7.050
 9647POPC   C4A66558  21.397   3.563   7.350
 9647POPC   C1B66559  21.493   3.787   6.450
 9647POPC   C2B66560  21.503   3.728   6.750
 9647POPC   C3B66561  21.522   3.728   7.050
 9647POPC   C4B66562  21.482   3.713   7.350
 9648POPC   NC366563  25.255  42.359   5.550
 9648POPC   PO466564  25.274  42.373   5.850
 9648POPC   GL166565  25.308  42.306   6.150
 9648POPC   GL266566  25.297  42.188   6.150
 9648POPC   C1A66567  25.306  42.348   6.450
 9648POPC   D2A66568  25.242  42.366   6.750
 9648POPC   C3A66569  25.243  42.309   7.050
 9648POPC   C4A66570  25.292  42.316   7.350
 9648POPC   C1B66571  25.285  42.041   6.450
 9648POPC   C2B66572  25.216  42.084   6.750
 9648POPC   C3B66573  25.265  42.046   7.050
 9648POPC   C4B66574  25.286  42.129   7.350
 9649POPC   NC366575   5.909  19.020   5.550
 9649POPC   PO466576   5.894  19.035   5.850
 9649POPC   GL166577   5.833  19.072   6.150
 9649POPC   GL266578   5.959  19.125   6.150
 9649POPC   C1A66579   5.861  19.063   6.450
 9649POPC   D2A66580   5.919  19.048   6.750
 9649POPC   C3A66581   5.854  19.046   7.050
 9649POPC   C4A66582   5.865  19.082   7.350
 9649POPC   C1B66583   6.047  19.209   6.450
 9649POPC   C2B66584   6.039  19.151   6.750
 9649POPC   C3B66585   6.115  19.185   7.050
 9649POPC   C4B66586   6.087  19.240   7.350
 9650POPC   NC366587  26.066  25.290   5.550
 9650POPC   PO466588  26.054  25.307   5.850
 9650POPC   GL166589  26.068  25.254   6.150
 9650POPC   GL266590  26.136  25.130   6.150
 9650POPC   C1A66591  26.083  25.287   6.450
 9650POPC   D2A66592  26.090  25.290   6.750
 9650POPC   C3A66593  26.049  25.260   7.050
 9650POPC   C4A66594  26.008  25.282   7.350
 9650POPC   C1B66595  26.143  25.048   6.450
 9650POPC   C2B66596  26.224  25.028   6.750
 9650POPC   C3B66597  26.218  25.044   7.050
 9650POPC   C4B66598  26.180  25.024   7.350
 9651POPC   NC366599  21.354  34.622   5.550
 9651POPC   PO466600  21.401  34.613   5.850
 9651POPC   GL166601  21.401  34.563   6.150
 9651POPC   GL266602  21.442  34.500   6.150
 9651POPC   C1A66603  21.378  34.578   6.450
 9651POPC   D2A66604  21.394  34.579   6.750
 9651POPC   C3A66605  21.428  34.595   7.050
 9651POPC   C4A66606  21.386  34.526   7.350
 9651POPC   C1B66607  21.619  34.422   6.450
 9651POPC   C2B66608  21.571  34.435   6.750
 9651POPC   C3B66609  21.575  34.471   7.050
 9651POPC   C4B66610  21.578  34.393   7.350
 9652POPC   NC366611  17.488  28.330   5.550
 9652POPC   PO466612  17.526  28.321   5.850
 9652POPC   GL166613  17.459  28.389   6.150
 9652POPC   GL266614  17.484  28.503   6.150
 9652POPC   C1A66615  17.479  28.355   6.450
 9652POPC   D2A66616  17.458  28.405   6.750
 9652POPC   C3A66617  17.486  28.348   7.050
 9652POPC   C4A66618  17.484  28.347   7.350
 9652POPC   C1B66619  17.481  28.654   6.450
 9652POPC   C2B66620  17.448  28.658   6.750
 9652POPC   C3B66621  17.499  28.616   7.050
 9652POPC   C4B66622  17.467  28.656   7.350
 9653POPC   NC366623   0.410   0.429   5.550
 9653POPC   PO466624   0.422   0.390   5.850
 9653POPC   GL166625   0.404   0.430   6.150
 9653POPC   GL266626   0.298   0.508   6.150
 9653POPC   C1A66627   0.475   0.487   6.450
 9653POPC   D2A66628   0.440   0.422   6.750
 9653POPC   C3A66629   0.442   0.413   7.050
 9653POPC   C4A66630   0.416   0.451   7.350
 9653POPC   C1B66631   0.230   0.603   6.450
 9653POPC   C2B66632   0.208   0.618   6.750
 9653POPC   C3B66633   0.195   0.613   7.050
 9653POPC   C4B66634   0.238   0.522   7.350
 9654POPC   NC366635  34.527  32.238   5.550
 9654POPC   PO466636  34.590  32.263   5.850
 9654POPC   GL166637  34.618  32.205   6.150
 9654POPC   GL266638  34.460  32.233   6.150
 9654POPC   C1A66639  34.533  32.261   6.450
 9654POPC   D2A66640  34.546  32.215   6.750
 9654POPC   C3A66641  34.550  32.266   7.050
 9654POPC   C4A66642  34.538  32.230   7.350
 9654POPC   C1B66643  34.355  32.099   6.450
 9654POPC   C2B66644  34.375  32.111   6.750
 9654POPC   C3B66645  34.331  32.191   7.050
 9654POPC   C4B66646  34.319  32.191   7.350
 9655POPC   NC366647  26.834  39.980   5.550
 9655POPC   PO466648  26.854  40.016   5.850
 9655POPC   GL166649  26.860  39.997   6.150
 9655POPC   GL266650  26.743  39.978   6.150
 9655POPC   C1A66651  26.782  39.993   6.450
 9655POPC   D2A66652  26.776  40.020   6.750
 9655POPC   C3A66653  26.866  39.962   7.050
 9655POPC   C4A66654  26.853  40.013   7.350
 9655POPC   C1B66655  26.532  39.911   6.450
 9655POPC   C2B66656  26.570  39.921   6.750
 9655POPC   C3B66657  26.618  39.972   7.050
 9655POPC   C4B66658  26.529  39.934   7.350
 9656POPC   NC366659   6.664  18.318   5.550
 9656POPC   PO466660   6.674  18.259   5.850
 9656POPC   GL166661   6.598  18.320   6.150
 9656POPC   GL266662   6.681  18.395   6.150
 9656POPC   C1A66663   6.602  18.332   6.450
 9656POPC   D2A66664   6.634  18.328   6.750
 9656POPC   C3A66665   6.608  18.308   7.050
 9656POPC   C4A66666   6.609  18.245   7.350
 9656POPC   C1B66667   6.742  18.493   6.450
 9656POPC   C2B66668   6.732  18.497   6.750
 9656POPC   C3B66669   6.777  18.531   7.050
 9656POPC   C4B66670   6.742  18.516   7.350
 9657POPC   NC366671  18.263  17.502   5.550
 9657POPC   PO466672  18.236  17.512   5.850
 9657POPC   GL166673  18.240  17.486   6.150
 9657POPC   GL266674  18.189  17.554   6.150
 9657POPC   C1A66675  18.286  17.496   6.450
 9657POPC   D2A66676  18.314  17.484   6.750
 9657POPC   C3A66677  18.276  17.514   7.050
 9657POPC   C4A66678  18.279  17.515   7.350
 9657POPC   C1B66679  18.093  17.640   6.450
 9657POPC   C2B66680  18.053  17.691   6.750
 9657POPC   C3B66681  18.094  17.645   7.050
 9657POPC   C4B66682  18.141  17.696   7.350
 9658POPC   NC366683  26.835  15.172   5.550
 9658POPC   PO466684  26.810  15.160   5.850
 9658POPC   GL166685  26.784  15.144   6.150
 9658POPC   GL266686  26.705  15.075   6.150
 9658POPC   C1A66687  26.768  15.155   6.450
 9658POPC   D2A66688  26.769  15.186   6.750
 9658POPC   C3A66689  26.859  15.180   7.050
 9658POPC   C4A66690  26.848  15.194   7.350
 9658POPC   C1B66691  26.736  15.015   6.450
 9658POPC   C2B66692  26.726  14.932   6.750
 9658POPC   C3B66693  26.677  14.966   7.050
 9658POPC   C4B66694  26.669  14.956   7.350
 9659POPC   NC366695   7.372  26.027   5.550
 9659POPC   PO466696   7.384  26.087   5.850
 9659POPC   GL166697   7.431  26.011   6.150
 9659POPC   GL266698   7.436  25.930   6.150
 9659POPC   C1A66699   7.404  26.014   6.450
 9659POPC   D2A66700   7.462  26.028   6.750
 9659POPC   C3A66701   7.386  26.030   7.050
 9659POPC   C4A66702   7.405  26.048   7.350
 9659POPC   C1B66703   7.439  25.763   6.450
 9659POPC   C2B66704   7.389  25.806   6.750
 9659POPC   C3B66705   7.430  25.814   7.050
 9659POPC   C4B66706   7.447  25.798   7.350
 9660POPC   NC366707   0.410  32.204   5.550
 9660POPC   PO466708   0.393  32.243   5.850
 9660POPC   GL166709   0.437  32.298   6.150
 9660POPC   GL266710   0.582  32.200   6.150
 9660POPC   C1A66711   0.441  32.297   6.450
 9660POPC   D2A66712   0.486  32.274   6.750
 9660POPC   C3A66713   0.394  32.259   7.050
 9660POPC   C4A66714   0.429  32.292   7.350
 9660POPC   C1B66715   0.692  32.110   6.450
 9660POPC   C2B66716   0.694  32.161   6.750
 9660POPC   C3B66717   0.668  32.099   7.050
 9660POPC   C4B66718   0.613  32.110   7.350
 9661POPC   NC366719  18.321  29.129   5.550
 9661POPC   PO466720  18.331  29.133   5.850
 9661POPC   GL166721  18.258  29.148   6.150
 9661POPC   GL266722  18.439  29.153   6.150
 9661POPC   C1A66723  18.281  29.125   6.450
 9661POPC   D2A66724  18.330  29.185   6.750
 9661POPC   C3A66725  18.288  29.191   7.050
 9661POPC   C4A66726  18.294  29.175   7.350
 9661POPC   C1B66727  18.537  29.215   6.450
 9661POPC   C2B66728  18.459  29.286   6.750
 9661POPC   C3B66729  18.506  29.297   7.050
 9661POPC   C4B66730  18.551  29.285   7.350
 9662POPC   NC366731   7.379  19.811   5.550
 9662POPC   PO466732   7.462  19.852   5.850
 9662POPC   GL166733   7.429  19.839   6.150
 9662POPC   GL266734   7.433  19.723   6.150
 9662POPC   C1A66735   7.462  19.820   6.450
 9662POPC   D2A66736   7.398  19.830   6.750
 9662POPC   C3A66737   7.424  19.865   7.050
 9662POPC   C4A66738   7.426  19.864   7.350
 9662POPC   C1B66739   7.423  19.568   6.450
 9662POPC   C2B66740   7.426  19.580   6.750
 9662POPC   C3B66741   7.473  19.553   7.050
 9662POPC   C4B66742   7.510  19.575   7.350
 9663POPC   NC366743  12.859  37.670   5.550
 9663POPC   PO466744  12.807  37.671   5.850
 9663POPC   GL166745  12.894  37.722   6.150
 9663POPC   GL266746  12.776  37.826   6.150
 9663POPC   C1A66747  12.856  37.635   6.450
 9663POPC   D2A66748  12.818  37.694   6.750
 9663POPC   C3A66749  12.872  37.703   7.050
 9663POPC   C4A66750  12.862  37.709   7.350
 9663POPC   C1B66751  12.772  37.946   6.450
 9663POPC   C2B66752  12.774  37.870   6.750
 9663POPC   C3B66753  12.712  37.900   7.050
 9663POPC   C4B66754  12.690  37.920   7.350
 9664POPC   NC366755  16.001  14.386   5.550
 9664POPC   PO466756  15.916  14.365   5.850
 9664POPC   GL166757  15.961  14.421   6.150
 9664POPC   GL266758  15.870  14.332   6.150
 9664POPC   C1A66759  15.968  14.450   6.450
 9664POPC   D2A66760  15.924  14.354   6.750
 9664POPC   C3A66761  15.974  14.355   7.050
 9664POPC   C4A66762  15.917  14.410   7.350
 9664POPC   C1B66763  15.825  14.260   6.450
 9664POPC   C2B66764  15.773  14.170   6.750
 9664POPC   C3B66765  15.817  14.206   7.050
 9664POPC   C4B66766  15.742  14.256   7.350
 9665POPC   NC366767  21.350  23.699   5.550
 9665POPC   PO466768  21.397  23.741   5.850
 9665POPC   GL166769  21.408  23.703   6.150
 9665POPC   GL266770  21.319  23.665   6.150
 9665POPC   C1A66771  21.363  23.680   6.450
 9665POPC   D2A66772  21.392  23.687   6.750
 9665POPC   C3A66773  21.418  23.728   7.050
 9665POPC   C4A66774  21.382  23.720   7.350
 9665POPC   C1B66775  21.191  23.564   6.450
 9665POPC   C2B66776  21.153  23.613   6.750
 9665POPC   C3B66777  21.226  23.615   7.050
 9665POPC   C4B66778  21.184  23.588   7.350
 9666POPC   NC366779  11.262  25.216   5.550
 9666POPC   PO466780  11.298  25.283   5.850
 9666POPC   GL166781  11.282  25.259   6.150
 9666POPC   GL266782  11.331  25.399   6.150
 9666POPC   C1A66783  11.298  25.228   6.450
 9666POPC   D2A66784  11.255  25.228   6.750
 9666POPC   C3A66785  11.286  25.262   7.050
 9666POPC   C4A66786  11.300  25.245   7.350
 9666POPC   C1B66787  11.341  25.547   6.450
 9666POPC   C2B66788  11.346  25.468   6.750
 9666POPC   C3B66789  11.358  25.478   7.050
 9666POPC   C4B66790  11.359  25.513   7.350
 9667POPC   NC366791  31.463  26.768   5.550
 9667POPC   PO466792  31.462  26.827   5.850
 9667POPC   GL166793  31.431  26.829   6.150
 9667POPC   GL266794  31.516  26.710   6.150
 9667POPC   C1A66795  31.477  26.866   6.450
 9667POPC   D2A66796  31.458  26.789   6.750
 9667POPC   C3A66797  31.456  26.827   7.050
 9667POPC   C4A66798  31.516  26.820   7.350
 9667POPC   C1B66799  31.669  26.652   6.450
 9667POPC   C2B66800  31.575  26.641   6.750
 9667POPC   C3B66801  31.587  26.566   7.050
 9667POPC   C4B66802  31.616  26.643   7.350
 9668POPC   NC366803  32.257  30.721   5.550
 9668POPC   PO466804  32.253  30.730   5.850
 9668POPC   GL166805  32.221  30.715   6.150
 9668POPC   GL266806  32.197  30.855   6.150
 9668POPC   C1A66807  32.273  30.708   6.450
 9668POPC   D2A66808  32.270  30.671   6.750
 9668POPC   C3A66809  32.217  30.718   7.050
 9668POPC   C4A66810  32.225  30.664   7.350
 9668POPC   C1B66811  32.221  30.953   6.450
 9668POPC   C2B66812  32.228  30.925   6.750
 9668POPC   C3B66813  32.236  30.918   7.050
 9668POPC   C4B66814  32.242  30.958   7.350
 9669POPC   NC366815  20.613  11.309   5.550
 9669POPC   PO466816  20.622  11.341   5.850
 9669POPC   GL166817  20.630  11.332   6.150
 9669POPC   GL266818  20.538  11.156   6.150
 9669POPC   C1A66819  20.563  11.265   6.450
 9669POPC   D2A66820  20.638  11.305   6.750
 9669POPC   C3A66821  20.637  11.265   7.050
 9669POPC   C4A66822  20.628  11.265   7.350
 9669POPC   C1B66823  20.549  11.060   6.450
 9669POPC   C2B66824  20.504  11.063   6.750
 9669POPC   C3B66825  20.491  11.109   7.050
 9669POPC   C4B66826  20.500  11.057   7.350
 9670POPC   NC366827  39.188  44.621   5.550
 9670POPC   PO466828  39.212  44.639   5.850
 9670POPC   GL166829  39.206  44.679   6.150
 9670POPC   GL266830  39.387  44.632   6.150
 9670POPC   C1A66831  39.237  44.658   6.450
 9670POPC   D2A66832  39.268  44.640   6.750
 9670POPC   C3A66833  39.218  44.659   7.050
 9670POPC   C4A66834  39.239  44.635   7.350
 9670POPC   C1B66835  39.499  44.603   6.450
 9670POPC   C2B66836  39.466  44.630   6.750
 9670POPC   C3B66837  39.437  44.645   7.050
 9670POPC   C4B66838  39.456  44.584   7.350
 9671POPC   NC366839  43.074  33.793   5.550
 9671POPC   PO466840  43.160  33.758   5.850
 9671POPC   GL166841  43.155  33.810   6.150
 9671POPC   GL266842  43.016  33.650   6.150
 9671POPC   C1A66843  43.095  33.802   6.450
 9671POPC   D2A66844  43.117  33.821   6.750
 9671POPC   C3A66845  43.085  33.843   7.050
 9671POPC   C4A66846  43.104  33.792   7.350
 9671POPC   C1B66847  42.997  33.526   6.450
 9671POPC   C2B66848  43.047  33.563   6.750
 9671POPC   C3B66849  42.959  33.544   7.050
 9671POPC   C4B66850  43.041  33.621   7.350
 9672POPC   NC366851   0.474  19.086   5.550
 9672POPC   PO466852   0.390  19.091   5.850
 9672POPC   GL166853   0.424  19.013   6.150
 9672POPC   GL266854   0.574  19.052   6.150
 9672POPC   C1A66855   0.424  19.017   6.450
 9672POPC   D2A66856   0.437  19.010   6.750
 9672POPC   C3A66857   0.436  19.071   7.050
 9672POPC   C4A66858   0.424  19.026   7.350
 9672POPC   C1B66859   0.681  19.118   6.450
 9672POPC   C2B66860   0.644  19.123   6.750
 9672POPC   C3B66861   0.668  19.100   7.050
 9672POPC   C4B66862   0.657  19.137   7.350
 9673POPC   NC366863  16.685  41.605   5.550
 9673POPC   PO466864  16.766  41.559   5.850
 9673POPC   GL166865  16.758  41.555   6.150
 9673POPC   GL266866  16.802  41.456   6.150
 9673POPC   C1A66867  16.741  41.542   6.450
 9673POPC   D2A66868  16.685  41.532   6.750
 9673POPC   C3A66869  16.771  41.544   7.050
 9673POPC   C4A66870  16.698  41.568   7.350
 9673POPC   C1B66871  16.846  41.354   6.450
 9673POPC   C2B66872  16.804  41.320   6.750
 9673POPC   C3B66873  16.853  41.289   7.050
 9673POPC   C4B66874  16.847  41.315   7.350
 9674POPC   NC366875   2.791   2.801   5.550
 9674POPC   PO466876   2.774   2.765   5.850
 9674POPC   GL166877   2.734   2.779   6.150
 9674POPC   GL266878   2.708   2.652   6.150
 9674POPC   C1A66879   2.737   2.752   6.450
 9674POPC   D2A66880   2.797   2.814   6.750
 9674POPC   C3A66881   2.732   2.796   7.050
 9674POPC   C4A66882   2.802   2.755   7.350
 9674POPC   C1B66883   2.716   2.509   6.450
 9674POPC   C2B66884   2.741   2.562   6.750
 9674POPC   C3B66885   2.702   2.539   7.050
 9674POPC   C4B66886   2.800   2.506   7.350
 9675POPC   NC366887  38.412  22.899   5.550
 9675POPC   PO466888  38.490  22.951   5.850
 9675POPC   GL166889  38.430  22.913   6.150
 9675POPC   GL266890  38.459  23.102   6.150
 9675POPC   C1A66891  38.482  22.941   6.450
 9675POPC   D2A66892  38.458  22.919   6.750
 9675POPC   C3A66893  38.483  22.952   7.050
 9675POPC   C4A66894  38.429  22.977   7.350
 9675POPC   C1B66895  38.414  23.223   6.450
 9675POPC   C2B66896  38.413  23.213   6.750
 9675POPC   C3B66897  38.431  23.200   7.050
 9675POPC   C4B66898  38.414  23.190   7.350
 9676POPC   NC366899  12.895  36.119   5.550
 9676POPC   PO466900  12.859  36.156   5.850
 9676POPC   GL166901  12.869  36.099   6.150
 9676POPC   GL266902  12.941  36.226   6.150
 9676POPC   C1A66903  12.850  36.171   6.450
 9676POPC   D2A66904  12.902  36.153   6.750
 9676POPC   C3A66905  12.890  36.169   7.050
 9676POPC   C4A66906  12.821  36.154   7.350
 9676POPC   C1B66907  13.026  36.209   6.450
 9676POPC   C2B66908  13.092  36.256   6.750
 9676POPC   C3B66909  13.088  36.275   7.050
 9676POPC   C4B66910  13.017  36.299   7.350
 9677POPC   NC366911   8.933   1.948   5.550
 9677POPC   PO466912   8.991   1.981   5.850
 9677POPC   GL166913   8.982   2.020   6.150
 9677POPC   GL266914   8.887   2.021   6.150
 9677POPC   C1A66915   9.001   1.984   6.450
 9677POPC   D2A66916   8.957   1.971   6.750
 9677POPC   C3A66917   8.959   1.966   7.050
 9677POPC   C4A66918   8.938   1.962   7.350
 9677POPC   C1B66919   8.777   2.092   6.450
 9677POPC   C2B66920   8.743   2.053   6.750
 9677POPC   C3B66921   8.798   2.078   7.050
 9677POPC   C4B66922   8.765   2.071   7.350
 9678POPC   NC366923  25.269   8.190   5.550
 9678POPC   PO466924  25.221   8.204   5.850
 9678POPC   GL166925  25.247   8.239   6.150
 9678POPC   GL266926  25.288   8.039   6.150
 9678POPC   C1A66927  25.267   8.189   6.450
 9678POPC   D2A66928  25.310   8.154   6.750
 9678POPC   C3A66929  25.305   8.180   7.050
 9678POPC   C4A66930  25.278   8.163   7.350
 9678POPC   C1B66931  25.337   7.967   6.450
 9678POPC   C2B66932  25.386   7.952   6.750
 9678POPC   C3B66933  25.368   7.997   7.050
 9678POPC   C4B66934  25.326   8.001   7.350
 9679POPC   NC366935  38.476  17.467   5.550
 9679POPC   PO466936  38.411  17.464   5.850
 9679POPC   GL166937  38.471  17.537   6.150
 9679POPC   GL266938  38.572  17.534   6.150
 9679POPC   C1A66939  38.480  17.516   6.450
 9679POPC   D2A66940  38.421  17.542   6.750
 9679POPC   C3A66941  38.456  17.478   7.050
 9679POPC   C4A66942  38.466  17.504   7.350
 9679POPC   C1B66943  38.678  17.584   6.450
 9679POPC   C2B66944  38.645  17.555   6.750
 9679POPC   C3B66945  38.709  17.621   7.050
 9679POPC   C4B66946  38.682  17.585   7.350
 9680POPC   NC366947  20.612   9.703   5.550
 9680POPC   PO466948  20.563   9.731   5.850
 9680POPC   GL166949  20.649   9.741   6.150
 9680POPC   GL266950  20.519   9.792   6.150
 9680POPC   C1A66951  20.586   9.749   6.450
 9680POPC   D2A66952  20.569   9.754   6.750
 9680POPC   C3A66953  20.621   9.729   7.050
 9680POPC   C4A66954  20.631   9.739   7.350
 9680POPC   C1B66955  20.366   9.776   6.450
 9680POPC   C2B66956  20.407   9.827   6.750
 9680POPC   C3B66957  20.380   9.834   7.050
 9680POPC   C4B66958  20.379   9.849   7.350
 9681POPC   NC366959  15.151  20.602   5.550
 9681POPC   PO466960  15.227  20.605   5.850
 9681POPC   GL166961  15.154  20.654   6.150
 9681POPC   GL266962  15.288  20.725   6.150
 9681POPC   C1A66963  15.221  20.623   6.450
 9681POPC   D2A66964  15.222  20.566   6.750
 9681POPC   C3A66965  15.206  20.626   7.050
 9681POPC   C4A66966  15.199  20.588   7.350
 9681POPC   C1B66967  15.342  20.757   6.450
 9681POPC   C2B66968  15.422  20.714   6.750
 9681POPC   C3B66969  15.397  20.798   7.050
 9681POPC   C4B66970  15.346  20.768   7.350
 9682POPC   NC366971   4.350  32.218   5.550
 9682POPC   PO466972   4.305  32.297   5.850
 9682POPC   GL166973   4.306  32.213   6.150
 9682POPC   GL266974   4.393  32.334   6.150
 9682POPC   C1A66975   4.332  32.248   6.450
 9682POPC   D2A66976   4.293  32.281   6.750
 9682POPC   C3A66977   4.309  32.282   7.050
 9682POPC   C4A66978   4.306  32.232   7.350
 9682POPC   C1B66979   4.507  32.426   6.450
 9682POPC   C2B66980   4.569  32.422   6.750
 9682POPC   C3B66981   4.570  32.398   7.050
 9682POPC   C4B66982   4.521  32.336   7.350
 9683POPC   NC366983   5.885  21.384   5.550
 9683POPC   PO466984   5.821  21.379   5.850
 9683POPC   GL166985   5.837  21.419   6.150
 9683POPC   GL266986   5.937  21.491   6.150
 9683POPC   C1A66987   5.839  21.432   6.450
 9683POPC   D2A66988   5.891  21.421   6.750
 9683POPC   C3A66989   5.904  21.359   7.050
 9683POPC   C4A66990   5.859  21.367   7.350
 9683POPC   C1B66991   6.134  21.469   6.450
 9683POPC   C2B66992   6.119  21.501   6.750
 9683POPC   C3B66993   6.113  21.553   7.050
 9683POPC   C4B66994   6.104  21.491   7.350
 9684POPC   NC366995  35.343  39.214   5.550
 9684POPC   PO466996  35.397  39.247   5.850
 9684POPC   GL166997  35.344  39.231   6.150
 9684POPC   GL266998  35.294  39.305   6.150
 9684POPC   C1A66999  35.322  39.189   6.450
 9684POPC   D2A67000  35.333  39.233   6.750
 9684POPC   C3A67001  35.357  39.246   7.050
 9684POPC   C4A67002  35.344  39.277   7.350
 9684POPC   C1B67003  35.166  39.399   6.450
 9684POPC   C2B67004  35.228  39.457   6.750
 9684POPC   C3B67005  35.175  39.436   7.050
 9684POPC   C4B67006  35.203  39.422   7.350
 9685POPC   NC367007  18.237   5.826   5.550
 9685POPC   PO467008  18.314   5.877   5.850
 9685POPC   GL167009  18.278   5.829   6.150
 9685POPC   GL267010  18.366   5.990   6.150
 9685POPC   C1A67011  18.315   5.850   6.450
 9685POPC   D2A67012  18.277   5.904   6.750
 9685POPC   C3A67013  18.314   5.901   7.050
 9685POPC   C4A67014  18.320   5.876   7.350
 9685POPC   C1B67015  18.422   6.039   6.450
 9685POPC   C2B67016  18.441   6.040   6.750
 9685POPC   C3B67017  18.404   6.083   7.050
 9685POPC   C4B67018  18.442   6.106   7.350
 9686POPC   NC367019  41.530  27.563   5.550
 9686POPC   PO467020  41.578  27.606   5.850
 9686POPC   GL167021  41.523  27.546   6.150
 9686POPC   GL267022  41.655  27.533   6.150
 9686POPC   C1A67023  41.568  27.603   6.450
 9686POPC   D2A67024  41.522  27.632   6.750
 9686POPC   C3A67025  41.541  27.594   7.050
 9686POPC   C4A67026  41.525  27.586   7.350
 9686POPC   C1B67027  41.850  27.517   6.450
 9686POPC   C2B67028  41.792  27.526   6.750
 9686POPC   C3B67029  41.806  27.534   7.050
 9686POPC   C4B67030  41.783  27.554   7.350
 9687POPC   NC367031  19.014  43.068   5.550
 9687POPC   PO467032  19.100  43.138   5.850
 9687POPC   GL167033  19.073  43.155   6.150
 9687POPC   GL267034  19.171  43.202   6.150
 9687POPC   C1A67035  19.019  43.152   6.450
 9687POPC   D2A67036  19.033  43.143   6.750
 9687POPC   C3A67037  19.015  43.093   7.050
 9687POPC   C4A67038  19.091  43.131   7.350
 9687POPC   C1B67039  19.216  43.223   6.450
 9687POPC   C2B67040  19.214  43.219   6.750
 9687POPC   C3B67041  19.211  43.219   7.050
 9687POPC   C4B67042  19.239  43.283   7.350
 9688POPC   NC367043  29.167  43.886   5.550
 9688POPC   PO467044  29.163  43.934   5.850
 9688POPC   GL167045  29.103  43.878   6.150
 9688POPC   GL267046  29.202  43.759   6.150
 9688POPC   C1A67047  29.194  43.913   6.450
 9688POPC   D2A67048  29.161  43.863   6.750
 9688POPC   C3A67049  29.147  43.893   7.050
 9688POPC   C4A67050  29.110  43.872   7.350
 9688POPC   C1B67051  29.289  43.705   6.450
 9688POPC   C2B67052  29.312  43.659   6.750
 9688POPC   C3B67053  29.326  43.673   7.050
 9688POPC   C4B67054  29.245  43.657   7.350
 9689POPC   NC367055  19.847  10.477   5.550
 9689POPC   PO467056  19.805  10.551   5.850
 9689POPC   GL167057  19.844  10.561   6.150
 9689POPC   GL267058  19.751  10.563   6.150
 9689POPC   C1A67059  19.847  10.507   6.450
 9689POPC   D2A67060  19.810  10.549   6.750
 9689POPC   C3A67061  19.821  10.479   7.050
 9689POPC   C4A67062  19.820  10.551   7.350
 9689POPC   C1B67063  19.619  10.470   6.450
 9689POPC   C2B67064  19.609  10.462   6.750
 9689POPC   C3B67065  19.586  10.524   7.050
 9689POPC   C4B67066  19.600  10.488   7.350
 9690POPC   NC367067  32.242  11.253   5.550
 9690POPC   PO467068  32.259  11.312   5.850
 9690POPC   GL167069  32.274  11.271   6.150
 9690POPC   GL267070  32.200  11.179   6.150
 9690POPC   C1A67071  32.243  11.287   6.450
 9690POPC   D2A67072  32.228  11.251   6.750
 9690POPC   C3A67073  32.271  11.293   7.050
 9690POPC   C4A67074  32.247  11.308   7.350
 9690POPC   C1B67075  32.039  11.081   6.450
 9690POPC   C2B67076  32.057  11.146   6.750
 9690POPC   C3B67077  32.095  11.155   7.050
 9690POPC   C4B67078  32.023  11.119   7.350
 9691POPC   NC367079  15.209  10.549   5.550
 9691POPC   PO467080  15.137  10.566   5.850
 9691POPC   GL167081  15.198  10.527   6.150
 9691POPC   GL267082  15.348  10.559   6.150
 9691POPC   C1A67083  15.157  10.573   6.450
 9691POPC   D2A67084  15.135  10.548   6.750
 9691POPC   C3A67085  15.156  10.561   7.050
 9691POPC   C4A67086  15.205  10.563   7.350
 9691POPC   C1B67087  15.408  10.560   6.450
 9691POPC   C2B67088  15.472  10.505   6.750
 9691POPC   C3B67089  15.445  10.507   7.050
 9691POPC   C4B67090  15.391  10.519   7.350
 9692POPC   NC367091  16.702  44.626   5.550
 9692POPC   PO467092  16.699  44.678   5.850
 9692POPC   GL167093  16.765  44.629   6.150
 9692POPC   GL267094  16.769  44.739   6.150
 9692POPC   C1A67095  16.689  44.665   6.450
 9692POPC   D2A67096  16.778  44.629   6.750
 9692POPC   C3A67097  16.690  44.649   7.050
 9692POPC   C4A67098  16.734  44.693   7.350
 9692POPC   C1B67099  16.841  44.908   6.450
 9692POPC   C2B67100  16.812  44.930   6.750
 9692POPC   C3B67101  16.809  44.926   7.050
 9692POPC   C4B67102  16.822  44.872   7.350
 9693POPC   NC367103  33.846  19.853   5.550
 9693POPC   PO467104  33.818  19.883   5.850
 9693POPC   GL167105  33.752  19.826   6.150
 9693POPC   GL267106  33.790  19.931   6.150
 9693POPC   C1A67107  33.772  19.863   6.450
 9693POPC   D2A67108  33.800  19.856   6.750
 9693POPC   C3A67109  33.813  19.859   7.050
 9693POPC   C4A67110  33.790  19.827   7.350
 9693POPC   C1B67111  33.812  20.133   6.450
 9693POPC   C2B67112  33.791  20.133   6.750
 9693POPC   C3B67113  33.828  20.129   7.050
 9693POPC   C4B67114  33.843  20.093   7.350
 9694POPC   NC367115  33.754  38.488   5.550
 9694POPC   PO467116  33.836  38.470   5.850
 9694POPC   GL167117  33.789  38.494   6.150
 9694POPC   GL267118  33.686  38.462   6.150
 9694POPC   C1A67119  33.821  38.464   6.450
 9694POPC   D2A67120  33.837  38.411   6.750
 9694POPC   C3A67121  33.800  38.496   7.050
 9694POPC   C4A67122  33.779  38.472   7.350
 9694POPC   C1B67123  33.528  38.413   6.450
 9694POPC   C2B67124  33.542  38.457   6.750
 9694POPC   C3B67125  33.538  38.448   7.050
 9694POPC   C4B67126  33.533  38.487   7.350
 9695POPC   NC367127  26.849  23.666   5.550
 9695POPC   PO467128  26.775  23.687   5.850
 9695POPC   GL167129  26.812  23.746   6.150
 9695POPC   GL267130  26.882  23.670   6.150
 9695POPC   C1A67131  26.853  23.748   6.450
 9695POPC   D2A67132  26.835  23.740   6.750
 9695POPC   C3A67133  26.789  23.711   7.050
 9695POPC   C4A67134  26.864  23.724   7.350
 9695POPC   C1B67135  27.013  23.559   6.450
 9695POPC   C2B67136  27.027  23.529   6.750
 9695POPC   C3B67137  27.020  23.535   7.050
 9695POPC   C4B67138  26.995  23.539   7.350
 9696POPC   NC367139  38.448  22.207   5.550
 9696POPC   PO467140  38.483  22.128   5.850
 9696POPC   GL167141  38.413  22.198   6.150
 9696POPC   GL267142  38.516  22.043   6.150
 9696POPC   C1A67143  38.469  22.177   6.450
 9696POPC   D2A67144  38.445  22.166   6.750
 9696POPC   C3A67145  38.475  22.116   7.050
 9696POPC   C4A67146  38.445  22.150   7.350
 9696POPC   C1B67147  38.522  21.947   6.450
 9696POPC   C2B67148  38.521  21.887   6.750
 9696POPC   C3B67149  38.533  21.898   7.050
 9696POPC   C4B67150  38.545  21.961   7.350
 9697POPC   NC367151  37.696  12.111   5.550
 9697POPC   PO467152  37.674  12.076   5.850
 9697POPC   GL167153  37.647  12.079   6.150
 9697POPC   GL267154  37.680  12.159   6.150
 9697POPC   C1A67155  37.695  12.032   6.450
 9697POPC   D2A67156  37.664  12.092   6.750
 9697POPC   C3A67157  37.700  12.033   7.050
 9697POPC   C4A67158  37.703  12.041   7.350
 9697POPC   C1B67159  37.754  12.262   6.450
 9697POPC   C2B67160  37.766  12.338   6.750
 9697POPC   C3B67161  37.787  12.310   7.050
 9697POPC   C4B67162  37.737  12.321   7.350
 9698POPC   NC367163  42.315  10.520   5.550
 9698POPC   PO467164  42.329  10.475   5.850
 9698POPC   GL167165  42.313  10.570   6.150
 9698POPC   GL267166  42.188  10.563   6.150
 9698POPC   C1A67167  42.382  10.475   6.450
 9698POPC   D2A67168  42.336  10.478   6.750
 9698POPC   C3A67169  42.379  10.490   7.050
 9698POPC   C4A67170  42.338  10.572   7.350
 9698POPC   C1B67171  42.102  10.476   6.450
 9698POPC   C2B67172  42.082  10.506   6.750
 9698POPC   C3B67173  42.096  10.552   7.050
 9698POPC   C4B67174  42.100  10.506   7.350
 9699POPC   NC367175  40.050  39.252   5.550
 9699POPC   PO467176  40.007  39.193   5.850
 9699POPC   GL167177  39.967  39.195   6.150
 9699POPC   GL267178  39.942  39.286   6.150
 9699POPC   C1A67179  40.019  39.227   6.450
 9699POPC   D2A67180  39.972  39.191   6.750
 9699POPC   C3A67181  40.031  39.219   7.050
 9699POPC   C4A67182  39.989  39.222   7.350
 9699POPC   C1B67183  39.782  39.406   6.450
 9699POPC   C2B67184  39.844  39.380   6.750
 9699POPC   C3B67185  39.773  39.422   7.050
 9699POPC   C4B67186  39.814  39.402   7.350
 9700POPC   NC367187   9.705  42.362   5.550
 9700POPC   PO467188   9.779  42.349   5.850
 9700POPC   GL167189   9.738  42.342   6.150
 9700POPC   GL267190   9.663  42.382   6.150
 9700POPC   C1A67191   9.727  42.345   6.450
 9700POPC   D2A67192   9.770  42.331   6.750
 9700POPC   C3A67193   9.742  42.347   7.050
 9700POPC   C4A67194   9.723  42.378   7.350
 9700POPC   C1B67195   9.524  42.460   6.450
 9700POPC   C2B67196   9.489  42.432   6.750
 9700POPC   C3B67197   9.486  42.453   7.050
 9700POPC   C4B67198   9.549  42.429   7.350
 9701POPC   NC367199  20.563  28.338   5.550
 9701POPC   PO467200  20.608  28.360   5.850
 9701POPC   GL167201  20.574  28.388   6.150
 9701POPC   GL267202  20.681  28.436   6.150
 9701POPC   C1A67203  20.656  28.377   6.450
 9701POPC   D2A67204  20.620  28.344   6.750
 9701POPC   C3A67205  20.614  28.329   7.050
 9701POPC   C4A67206  20.617  28.367   7.350
 9701POPC   C1B67207  20.718  28.591   6.450
 9701POPC   C2B67208  20.808  28.523   6.750
 9701POPC   C3B67209  20.769  28.563   7.050
 9701POPC   C4B67210  20.757  28.581   7.350
 9702POPC   NC367211  21.344  13.647   5.550
 9702POPC   PO467212  21.398  13.651   5.850
 9702POPC   GL167213  21.364  13.594   6.150
 9702POPC   GL267214  21.307  13.740   6.150
 9702POPC   C1A67215  21.362  13.659   6.450
 9702POPC   D2A67216  21.338  13.622   6.750
 9702POPC   C3A67217  21.352  13.579   7.050
 9702POPC   C4A67218  21.415  13.608   7.350
 9702POPC   C1B67219  21.198  13.788   6.450
 9702POPC   C2B67220  21.168  13.786   6.750
 9702POPC   C3B67221  21.175  13.837   7.050
 9702POPC   C4B67222  21.202  13.771   7.350
 9703POPC   NC367223   5.857  36.923   5.550
 9703POPC   PO467224   5.912  36.925   5.850
 9703POPC   GL167225   5.866  36.871   6.150
 9703POPC   GL267226   5.822  36.830   6.150
 9703POPC   C1A67227   5.877  36.856   6.450
 9703POPC   D2A67228   5.895  36.932   6.750
 9703POPC   C3A67229   5.885  36.862   7.050
 9703POPC   C4A67230   5.885  36.857   7.350
 9703POPC   C1B67231   5.717  36.681   6.450
 9703POPC   C2B67232   5.654  36.749   6.750
 9703POPC   C3B67233   5.705  36.748   7.050
 9703POPC   C4B67234   5.736  36.721   7.350
 9704POPC   NC367235  29.959  12.039   5.550
 9704POPC   PO467236  29.895  12.027   5.850
 9704POPC   GL167237  29.879  12.060   6.150
 9704POPC   GL267238  30.010  12.074   6.150
 9704POPC   C1A67239  29.923  12.057   6.450
 9704POPC   D2A67240  29.950  12.118   6.750
 9704POPC   C3A67241  29.956  12.040   7.050
 9704POPC   C4A67242  29.894  12.122   7.350
 9704POPC   C1B67243  30.116  12.131   6.450
 9704POPC   C2B67244  30.171  12.106   6.750
 9704POPC   C3B67245  30.119  12.177   7.050
 9704POPC   C4B67246  30.126  12.086   7.350
 9705POPC   NC367247  15.946  26.783   5.550
 9705POPC   PO467248  15.908  26.828   5.850
 9705POPC   GL167249  15.926  26.816   6.150
 9705POPC   GL267250  15.914  26.890   6.150
 9705POPC   C1A67251  15.978  26.781   6.450
 9705POPC   D2A67252  15.918  26.787   6.750
 9705POPC   C3A67253  15.952  26.819   7.050
 9705POPC   C4A67254  16.000  26.846   7.350
 9705POPC   C1B67255  15.810  26.969   6.450
 9705POPC   C2B67256  15.824  27.029   6.750
 9705POPC   C3B67257  15.799  26.960   7.050
 9705POPC   C4B67258  15.817  27.009   7.350
 9706POPC   NC367259  35.365  26.081   5.550
 9706POPC   PO467260  35.396  26.039   5.850
 9706POPC   GL167261  35.310  26.082   6.150
 9706POPC   GL267262  35.426  26.161   6.150
 9706POPC   C1A67263  35.328  26.014   6.450
 9706POPC   D2A67264  35.339  26.008   6.750
 9706POPC   C3A67265  35.328  26.000   7.050
 9706POPC   C4A67266  35.309  26.009   7.350
 9706POPC   C1B67267  35.460  26.256   6.450
 9706POPC   C2B67268  35.494  26.224   6.750
 9706POPC   C3B67269  35.435  26.306   7.050
 9706POPC   C4B67270  35.409  26.254   7.350
 9707POPC   NC367271  24.530  27.566   5.550
 9707POPC   PO467272  24.501  27.585   5.850
 9707POPC   GL167273  24.536  27.566   6.150
 9707POPC   GL267274  24.431  27.718   6.150
 9707POPC   C1A67275  24.499  27.555   6.450
 9707POPC   D2A67276  24.531  27.603   6.750
 9707POPC   C3A67277  24.447  27.622   7.050
 9707POPC   C4A67278  24.526  27.562   7.350
 9707POPC   C1B67279  24.426  27.868   6.450
 9707POPC   C2B67280  24.493  27.873   6.750
 9707POPC   C3B67281  24.488  27.859   7.050
 9707POPC   C4B67282  24.431  27.873   7.350
 9708POPC   NC367283   2.010  44.697   5.550
 9708POPC   PO467284   2.007  44.656   5.850
 9708POPC   GL167285   1.954  44.711   6.150
 9708POPC   GL267286   2.024  44.574   6.150
 9708POPC   C1A67287   1.952  44.664   6.450
 9708POPC   D2A67288   2.026  44.682   6.750
 9708POPC   C3A67289   1.996  44.635   7.050
 9708POPC   C4A67290   2.006  44.649   7.350
 9708POPC   C1B67291   2.077  44.406   6.450
 9708POPC   C2B67292   2.105  44.483   6.750
 9708POPC   C3B67293   2.051  44.399   7.050
 9708POPC   C4B67294   2.051  44.401   7.350
 9709POPC   NC367295  17.538  21.399   5.550
 9709POPC   PO467296  17.542  21.415   5.850
 9709POPC   GL167297  17.516  21.349   6.150
 9709POPC   GL267298  17.423  21.324   6.150
 9709POPC   C1A67299  17.467  21.434   6.450
 9709POPC   D2A67300  17.508  21.405   6.750
 9709POPC   C3A67301  17.458  21.347   7.050
 9709POPC   C4A67302  17.551  21.340   7.350
 9709POPC   C1B67303  17.389  21.163   6.450
 9709POPC   C2B67304  17.330  21.181   6.750
 9709POPC   C3B67305  17.395  21.196   7.050
 9709POPC   C4B67306  17.371  21.210   7.350
 9710POPC   NC367307   9.721   8.925   5.550
 9710POPC   PO467308   9.771   9.005   5.850
 9710POPC   GL167309   9.756   8.983   6.150
 9710POPC   GL267310   9.621   8.996   6.150
 9710POPC   C1A67311   9.724   8.960   6.450
 9710POPC   D2A67312   9.700   8.942   6.750
 9710POPC   C3A67313   9.754   8.948   7.050
 9710POPC   C4A67314   9.756   8.994   7.350
 9710POPC   C1B67315   9.474   8.984   6.450
 9710POPC   C2B67316   9.536   8.982   6.750
 9710POPC   C3B67317   9.534   9.008   7.050
 9710POPC   C4B67318   9.490   9.004   7.350
 9711POPC   NC367319  31.469  24.488   5.550
 9711POPC   PO467320  31.470  24.464   5.850
 9711POPC   GL167321  31.444  24.506   6.150
 9711POPC   GL267322  31.408  24.626   6.150
 9711POPC   C1A67323  31.458  24.441   6.450
 9711POPC   D2A67324  31.454  24.509   6.750
 9711POPC   C3A67325  31.471  24.501   7.050
 9711POPC   C4A67326  31.501  24.539   7.350
 9711POPC   C1B67327  31.360  24.677   6.450
 9711POPC   C2B67328  31.368  24.708   6.750
 9711POPC   C3B67329  31.299  24.669   7.050
 9711POPC   C4B67330  31.363  24.715   7.350
 9712POPC   NC367331  24.486   2.734   5.550
 9712POPC   PO467332  24.452   2.737   5.850
 9712POPC   GL167333  24.530   2.726   6.150
 9712POPC   GL267334  24.658   2.707   6.150
 9712POPC   C1A67335  24.503   2.755   6.450
 9712POPC   D2A67336  24.450   2.778   6.750
 9712POPC   C3A67337  24.497   2.748   7.050
 9712POPC   C4A67338  24.508   2.814   7.350
 9712POPC   C1B67339  24.771   2.689   6.450
 9712POPC   C2B67340  24.780   2.707   6.750
 9712POPC   C3B67341  24.784   2.675   7.050
 9712POPC   C4B67342  24.709   2.770   7.350
 9713POPC   NC367343  19.852  21.401   5.550
 9713POPC   PO467344  19.794  21.376   5.850
 9713POPC   GL167345  19.842  21.426   6.150
 9713POPC   GL267346  19.760  21.399   6.150
 9713POPC   C1A67347  19.821  21.374   6.450
 9713POPC   D2A67348  19.800  21.431   6.750
 9713POPC   C3A67349  19.847  21.359   7.050
 9713POPC   C4A67350  19.809  21.386   7.350
 9713POPC   C1B67351  19.581  21.428   6.450
 9713POPC   C2B67352  19.632  21.404   6.750
 9713POPC   C3B67353  19.552  21.455   7.050
 9713POPC   C4B67354  19.544  21.454   7.350
 9714POPC   NC367355  41.569  33.012   5.550
 9714POPC   PO467356  41.573  32.999   5.850
 9714POPC   GL167357  41.597  32.988   6.150
 9714POPC   GL267358  41.626  32.946   6.150
 9714POPC   C1A67359  41.531  32.989   6.450
 9714POPC   D2A67360  41.535  33.032   6.750
 9714POPC   C3A67361  41.510  33.043   7.050
 9714POPC   C4A67362  41.565  33.052   7.350
 9714POPC   C1B67363  41.692  32.813   6.450
 9714POPC   C2B67364  41.732  32.860   6.750
 9714POPC   C3B67365  41.702  32.807   7.050
 9714POPC   C4B67366  41.727  32.802   7.350
 9715POPC   NC367367  29.186  32.226   5.550
 9715POPC   PO467368  29.162  32.217   5.850
 9715POPC   GL167369  29.191  32.296   6.150
 9715POPC   GL267370  29.178  32.118   6.150
 9715POPC   C1A67371  29.118  32.247   6.450
 9715POPC   D2A67372  29.108  32.285   6.750
 9715POPC   C3A67373  29.175  32.253   7.050
 9715POPC   C4A67374  29.110  32.235   7.350
 9715POPC   C1B67375  29.308  32.102   6.450
 9715POPC   C2B67376  29.260  32.064   6.750
 9715POPC   C3B67377  29.295  32.052   7.050
 9715POPC   C4B67378  29.355  32.032   7.350
 9716POPC   NC367379  28.333  20.642   5.550
 9716POPC   PO467380  28.387  20.642   5.850
 9716POPC   GL167381  28.340  20.635   6.150
 9716POPC   GL267382  28.543  20.633   6.150
 9716POPC   C1A67383  28.404  20.575   6.450
 9716POPC   D2A67384  28.343  20.624   6.750
 9716POPC   C3A67385  28.409  20.625   7.050
 9716POPC   C4A67386  28.364  20.566   7.350
 9716POPC   C1B67387  28.611  20.615   6.450
 9716POPC   C2B67388  28.636  20.627   6.750
 9716POPC   C3B67389  28.643  20.645   7.050
 9716POPC   C4B67390  28.626  20.629   7.350
 9717POPC   NC367391   0.452  18.323   5.550
 9717POPC   PO467392   0.410  18.257   5.850
 9717POPC   GL167393   0.392  18.328   6.150
 9717POPC   GL267394   0.356  18.289   6.150
 9717POPC   C1A67395   0.458  18.286   6.450
 9717POPC   D2A67396   0.412  18.325   6.750
 9717POPC   C3A67397   0.424  18.244   7.050
 9717POPC   C4A67398   0.477  18.272   7.350
 9717POPC   C1B67399   0.218  18.328   6.450
 9717POPC   C2B67400   0.205  18.320   6.750
 9717POPC   C3B67401   0.202  18.396   7.050
 9717POPC   C4B67402   0.236  18.354   7.350
 9718POPC   NC367403  41.545  12.867   5.550
 9718POPC   PO467404  41.598  12.856   5.850
 9718POPC   GL167405  41.534  12.845   6.150
 9718POPC   GL267406  41.656  12.815   6.150
 9718POPC   C1A67407  41.511  12.849   6.450
 9718POPC   D2A67408  41.559  12.858   6.750
 9718POPC   C3A67409  41.605  12.811   7.050
 9718POPC   C4A67410  41.575  12.822   7.350
 9718POPC   C1B67411  41.697  12.660   6.450
 9718POPC   C2B67412  41.725  12.696   6.750
 9718POPC   C3B67413  41.733  12.693   7.050
 9718POPC   C4B67414  41.746  12.671   7.350
 9719POPC   NC367415  41.561   3.561   5.550
 9719POPC   PO467416  41.518   3.569   5.850
 9719POPC   GL167417  41.570   3.552   6.150
 9719POPC   GL267418  41.584   3.644   6.150
 9719POPC   C1A67419  41.546   3.521   6.450
 9719POPC   D2A67420  41.583   3.582   6.750
 9719POPC   C3A67421  41.531   3.526   7.050
 9719POPC   C4A67422  41.546   3.569   7.350
 9719POPC   C1B67423  41.590   3.732   6.450
 9719POPC   C2B67424  41.632   3.800   6.750
 9719POPC   C3B67425  41.642   3.788   7.050
 9719POPC   C4B67426  41.592   3.755   7.350
 9720POPC   NC367427  14.431   4.307   5.550
 9720POPC   PO467428  14.393   4.318   5.850
 9720POPC   GL167429  14.405   4.313   6.150
 9720POPC   GL267430  14.520   4.443   6.150
 9720POPC   C1A67431  14.413   4.342   6.450
 9720POPC   D2A67432  14.384   4.276   6.750
 9720POPC   C3A67433  14.429   4.330   7.050
 9720POPC   C4A67434  14.453   4.304   7.350
 9720POPC   C1B67435  14.587   4.471   6.450
 9720POPC   C2B67436  14.520   4.490   6.750
 9720POPC   C3B67437  14.536   4.554   7.050
 9720POPC   C4B67438  14.599   4.509   7.350
 9721POPC   NC367439   5.846   5.892   5.550
 9721POPC   PO467440   5.845   5.829   5.850
 9721POPC   GL167441   5.823   5.860   6.150
 9721POPC   GL267442   5.740   5.971   6.150
 9721POPC   C1A67443   5.820   5.880   6.450
 9721POPC   D2A67444   5.829   5.882   6.750
 9721POPC   C3A67445   5.862   5.820   7.050
 9721POPC   C4A67446   5.823   5.915   7.350
 9721POPC   C1B67447   5.599   5.995   6.450
 9721POPC   C2B67448   5.595   5.981   6.750
 9721POPC   C3B67449   5.627   5.988   7.050
 9721POPC   C4B67450   5.632   6.020   7.350
 9722POPC   NC367451  31.491  39.190   5.550
 9722POPC   PO467452  31.467  39.219   5.850
 9722POPC   GL167453  31.424  39.270   6.150
 9722POPC   GL267454  31.369  39.080   6.150
 9722POPC   C1A67455  31.472  39.254   6.450
 9722POPC   D2A67456  31.490  39.262   6.750
 9722POPC   C3A67457  31.448  39.244   7.050
 9722POPC   C4A67458  31.445  39.191   7.350
 9722POPC   C1B67459  31.375  39.037   6.450
 9722POPC   C2B67460  31.319  39.014   6.750
 9722POPC   C3B67461  31.305  39.041   7.050
 9722POPC   C4B67462  31.317  38.996   7.350
 9723POPC   NC367463  14.416  28.333   5.550
 9723POPC   PO467464  14.386  28.403   5.850
 9723POPC   GL167465  14.432  28.416   6.150
 9723POPC   GL267466  14.268  28.249   6.150
 9723POPC   C1A67467  14.453  28.380   6.450
 9723POPC   D2A67468  14.393  28.354   6.750
 9723POPC   C3A67469  14.417  28.359   7.050
 9723POPC   C4A67470  14.358  28.326   7.350
 9723POPC   C1B67471  14.161  28.199   6.450
 9723POPC   C2B67472  14.159  28.240   6.750
 9723POPC   C3B67473  14.230  28.238   7.050
 9723POPC   C4B67474  14.235  28.256   7.350
 9724POPC   NC367475  10.499   6.612   5.550
 9724POPC   PO467476  10.528   6.611   5.850
 9724POPC   GL167477  10.517   6.618   6.150
 9724POPC   GL267478  10.523   6.525   6.150
 9724POPC   C1A67479  10.568   6.595   6.450
 9724POPC   D2A67480  10.549   6.597   6.750
 9724POPC   C3A67481  10.546   6.596   7.050
 9724POPC   C4A67482  10.556   6.674   7.350
 9724POPC   C1B67483  10.524   6.402   6.450
 9724POPC   C2B67484  10.501   6.360   6.750
 9724POPC   C3B67485  10.547   6.432   7.050
 9724POPC   C4B67486  10.512   6.392   7.350
 9725POPC   NC367487  26.838  40.833   5.550
 9725POPC   PO467488  26.779  40.829   5.850
 9725POPC   GL167489  26.802  40.779   6.150
 9725POPC   GL267490  26.779  40.624   6.150
 9725POPC   C1A67491  26.812  40.827   6.450
 9725POPC   D2A67492  26.846  40.817   6.750
 9725POPC   C3A67493  26.797  40.754   7.050
 9725POPC   C4A67494  26.861  40.735   7.350
 9725POPC   C1B67495  26.843  40.535   6.450
 9725POPC   C2B67496  26.829  40.572   6.750
 9725POPC   C3B67497  26.801  40.526   7.050
 9725POPC   C4B67498  26.845  40.572   7.350
 9726POPC   NC367499   3.564  15.215   5.550
 9726POPC   PO467500   3.492  15.228   5.850
 9726POPC   GL167501   3.496  15.134   6.150
 9726POPC   GL267502   3.682  15.096   6.150
 9726POPC   C1A67503   3.552  15.220   6.450
 9726POPC   D2A67504   3.586  15.172   6.750
 9726POPC   C3A67505   3.539  15.153   7.050
 9726POPC   C4A67506   3.508  15.184   7.350
 9726POPC   C1B67507   3.714  15.072   6.450
 9726POPC   C2B67508   3.733  15.003   6.750
 9726POPC   C3B67509   3.783  15.054   7.050
 9726POPC   C4B67510   3.724  15.067   7.350
 9727POPC   NC367511  15.926  41.527   5.550
 9727POPC   PO467512  15.939  41.599   5.850
 9727POPC   GL167513  15.995  41.550   6.150
 9727POPC   GL267514  16.108  41.515   6.150
 9727POPC   C1A67515  15.923  41.598   6.450
 9727POPC   D2A67516  15.918  41.545   6.750
 9727POPC   C3A67517  15.992  41.588   7.050
 9727POPC   C4A67518  15.914  41.555   7.350
 9727POPC   C1B67519  16.233  41.495   6.450
 9727POPC   C2B67520  16.183  41.465   6.750
 9727POPC   C3B67521  16.202  41.472   7.050
 9727POPC   C4B67522  16.173  41.468   7.350
 9728POPC   NC367523  25.260   2.750   5.550
 9728POPC   PO467524  25.238   2.774   5.850
 9728POPC   GL167525  25.283   2.759   6.150
 9728POPC   GL267526  25.160   2.885   6.150
 9728POPC   C1A67527  25.245   2.786   6.450
 9728POPC   D2A67528  25.307   2.777   6.750
 9728POPC   C3A67529  25.241   2.723   7.050
 9728POPC   C4A67530  25.313   2.726   7.350
 9728POPC   C1B67531  25.050   2.922   6.450
 9728POPC   C2B67532  25.077   2.940   6.750
 9728POPC   C3B67533  25.066   2.951   7.050
 9728POPC   C4B67534  25.063   2.921   7.350
 9729POPC   NC367535  30.651  25.268   5.550
 9729POPC   PO467536  30.712  25.264   5.850
 9729POPC   GL167537  30.652  25.258   6.150
 9729POPC   GL267538  30.737  25.415   6.150
 9729POPC   C1A67539  30.679  25.230   6.450
 9729POPC   D2A67540  30.712  25.289   6.750
 9729POPC   C3A67541  30.717  25.252   7.050
 9729POPC   C4A67542  30.653  25.266   7.350
 9729POPC   C1B67543  30.688  25.547   6.450
 9729POPC   C2B67544  30.681  25.535   6.750
 9729POPC   C3B67545  30.712  25.527   7.050
 9729POPC   C4B67546  30.701  25.484   7.350
 9730POPC   NC367547  31.509   4.289   5.550
 9730POPC   PO467548  31.441   4.284   5.850
 9730POPC   GL167549  31.430   4.283   6.150
 9730POPC   GL267550  31.561   4.312   6.150
 9730POPC   C1A67551  31.510   4.304   6.450
 9730POPC   D2A67552  31.469   4.278   6.750
 9730POPC   C3A67553  31.516   4.314   7.050
 9730POPC   C4A67554  31.478   4.278   7.350
 9730POPC   C1B67555  31.751   4.390   6.450
 9730POPC   C2B67556  31.730   4.314   6.750
 9730POPC   C3B67557  31.728   4.357   7.050
 9730POPC   C4B67558  31.704   4.377   7.350
 9731POPC   NC367559  30.709   2.761   5.550
 9731POPC   PO467560  30.676   2.811   5.850
 9731POPC   GL167561  30.713   2.752   6.150
 9731POPC   GL267562  30.759   2.853   6.150
 9731POPC   C1A67563  30.648   2.729   6.450
 9731POPC   D2A67564  30.665   2.733   6.750
 9731POPC   C3A67565  30.692   2.791   7.050
 9731POPC   C4A67566  30.707   2.779   7.350
 9731POPC   C1B67567  30.848   2.915   6.450
 9731POPC   C2B67568  30.926   2.925   6.750
 9731POPC   C3B67569  30.912   2.948   7.050
 9731POPC   C4B67570  30.863   2.963   7.350
 9732POPC   NC367571  11.252   1.963   5.550
 9732POPC   PO467572  11.297   2.009   5.850
 9732POPC   GL167573  11.317   2.006   6.150
 9732POPC   GL267574  11.184   1.936   6.150
 9732POPC   C1A67575  11.268   1.997   6.450
 9732POPC   D2A67576  11.275   1.965   6.750
 9732POPC   C3A67577  11.343   2.018   7.050
 9732POPC   C4A67578  11.307   1.953   7.350
 9732POPC   C1B67579  11.085   1.925   6.450
 9732POPC   C2B67580  11.088   1.862   6.750
 9732POPC   C3B67581  11.086   1.843   7.050
 9732POPC   C4B67582  11.073   1.844   7.350
 9733POPC   NC367583   8.238  37.646   5.550
 9733POPC   PO467584   8.218  37.721   5.850
 9733POPC   GL167585   8.189  37.639   6.150
 9733POPC   GL267586   8.083  37.632   6.150
 9733POPC   C1A67587   8.204  37.631   6.450
 9733POPC   D2A67588   8.182  37.684   6.750
 9733POPC   C3A67589   8.208  37.639   7.050
 9733POPC   C4A67590   8.245  37.704   7.350
 9733POPC   C1B67591   7.991  37.533   6.450
 9733POPC   C2B67592   7.962  37.479   6.750
 9733POPC   C3B67593   7.999  37.509   7.050
 9733POPC   C4B67594   8.013  37.543   7.350
 9734POPC   NC367595   7.434  25.303   5.550
 9734POPC   PO467596   7.405  25.239   5.850
 9734POPC   GL167597   7.445  25.259   6.150
 9734POPC   GL267598   7.273  25.270   6.150
 9734POPC   C1A67599   7.425  25.271   6.450
 9734POPC   D2A67600   7.379  25.281   6.750
 9734POPC   C3A67601   7.406  25.256   7.050
 9734POPC   C4A67602   7.434  25.218   7.350
 9734POPC   C1B67603   7.220  25.306   6.450
 9734POPC   C2B67604   7.190  25.339   6.750
 9734POPC   C3B67605   7.196  25.338   7.050
 9734POPC   C4B67606   7.220  25.348   7.350
 9735POPC   NC367607   9.726  19.786   5.550
 9735POPC   PO467608   9.769  19.829   5.850
 9735POPC   GL167609   9.767  19.860   6.150
 9735POPC   GL267610   9.905  19.832   6.150
 9735POPC   C1A67611   9.758  19.862   6.450
 9735POPC   D2A67612   9.779  19.877   6.750
 9735POPC   C3A67613   9.762  19.871   7.050
 9735POPC   C4A67614   9.753  19.794   7.350
 9735POPC   C1B67615   9.994  19.813   6.450
 9735POPC   C2B67616   9.996  19.829   6.750
 9735POPC   C3B67617   9.963  19.851   7.050
 9735POPC   C4B67618   9.990  19.839   7.350
 9736POPC   NC367619  29.878   2.034   5.550
 9736POPC   PO467620  29.921   2.015   5.850
 9736POPC   GL167621  29.903   2.029   6.150
 9736POPC   GL267622  29.901   2.105   6.150
 9736POPC   C1A67623  29.950   1.994   6.450
 9736POPC   D2A67624  29.915   1.945   6.750
 9736POPC   C3A67625  29.888   2.011   7.050
 9736POPC   C4A67626  29.918   1.995   7.350
 9736POPC   C1B67627  29.838   2.253   6.450
 9736POPC   C2B67628  29.915   2.202   6.750
 9736POPC   C3B67629  29.877   2.264   7.050
 9736POPC   C4B67630  29.920   2.272   7.350
 9737POPC   NC367631  43.099   5.822   5.550
 9737POPC   PO467632  43.081   5.876   5.850
 9737POPC   GL167633  43.064   5.915   6.150
 9737POPC   GL267634  43.046   5.767   6.150
 9737POPC   C1A67635  43.152   5.883   6.450
 9737POPC   D2A67636  43.104   5.827   6.750
 9737POPC   C3A67637  43.108   5.839   7.050
 9737POPC   C4A67638  43.132   5.915   7.350
 9737POPC   C1B67639  42.979   5.675   6.450
 9737POPC   C2B67640  42.948   5.646   6.750
 9737POPC   C3B67641  42.996   5.682   7.050
 9737POPC   C4B67642  42.992   5.632   7.350
 9738POPC   NC367643  39.223  23.666   5.550
 9738POPC   PO467644  39.181  23.750   5.850
 9738POPC   GL167645  39.233  23.702   6.150
 9738POPC   GL267646  39.156  23.845   6.150
 9738POPC   C1A67647  39.265  23.761   6.450
 9738POPC   D2A67648  39.188  23.739   6.750
 9738POPC   C3A67649  39.225  23.698   7.050
 9738POPC   C4A67650  39.217  23.740   7.350
 9738POPC   C1B67651  39.090  23.894   6.450
 9738POPC   C2B67652  39.045  23.870   6.750
 9738POPC   C3B67653  39.076  23.897   7.050
 9738POPC   C4B67654  39.123  23.900   7.350
 9739POPC   NC367655   5.889  42.309   5.550
 9739POPC   PO467656   5.908  42.327   5.850
 9739POPC   GL167657   5.870  42.331   6.150
 9739POPC   GL267658   5.725  42.289   6.150
 9739POPC   C1A67659   5.890  42.329   6.450
 9739POPC   D2A67660   5.877  42.381   6.750
 9739POPC   C3A67661   5.912  42.353   7.050
 9739POPC   C4A67662   5.851  42.321   7.350
 9739POPC   C1B67663   5.681  42.204   6.450
 9739POPC   C2B67664   5.653  42.211   6.750
 9739POPC   C3B67665   5.657  42.194   7.050
 9739POPC   C4B67666   5.628  42.197   7.350
 9740POPC   NC367667  24.531  31.501   5.550
 9740POPC   PO467668  24.477  31.513   5.850
 9740POPC   GL167669  24.528  31.497   6.150
 9740POPC   GL267670  24.383  31.553   6.150
 9740POPC   C1A67671  24.482  31.497   6.450
 9740POPC   D2A67672  24.471  31.444   6.750
 9740POPC   C3A67673  24.498  31.445   7.050
 9740POPC   C4A67674  24.496  31.441   7.350
 9740POPC   C1B67675  24.309  31.614   6.450
 9740POPC   C2B67676  24.352  31.621   6.750
 9740POPC   C3B67677  24.320  31.635   7.050
 9740POPC   C4B67678  24.333  31.658   7.350
 9741POPC   NC367679  43.860   1.242   5.550
 9741POPC   PO467680  43.936   1.251   5.850
 9741POPC   GL167681  43.876   1.181   6.150
 9741POPC   GL267682  43.967   1.330   6.150
 9741POPC   C1A67683  43.908   1.218   6.450
 9741POPC   D2A67684  43.899   1.262   6.750
 9741POPC   C3A67685  43.903   1.215   7.050
 9741POPC   C4A67686  43.847   1.204   7.350
 9741POPC   C1B67687  44.017   1.461   6.450
 9741POPC   C2B67688  44.014   1.392   6.750
 9741POPC   C3B67689  43.993   1.406   7.050
 9741POPC   C4B67690  43.991   1.419   7.350
 9742POPC   NC367691   5.917  36.119   5.550
 9742POPC   PO467692   5.853  36.094   5.850
 9742POPC   GL167693   5.902  36.159   6.150
 9742POPC   GL267694   5.728  36.099   6.150
 9742POPC   C1A67695   5.904  36.099   6.450
 9742POPC   D2A67696   5.893  36.135   6.750
 9742POPC   C3A67697   5.911  36.134   7.050
 9742POPC   C4A67698   5.883  36.086   7.350
 9742POPC   C1B67699   5.668  36.073   6.450
 9742POPC   C2B67700   5.587  36.024   6.750
 9742POPC   C3B67701   5.652  36.036   7.050
 9742POPC   C4B67702   5.675  36.081   7.350
 9743POPC   NC367703   8.207  44.677   5.550
 9743POPC   PO467704   8.205  44.625   5.850
 9743POPC   GL167705   8.231  44.635   6.150
 9743POPC   GL267706   8.277  44.792   6.150
 9743POPC   C1A67707   8.163  44.654   6.450
 9743POPC   D2A67708   8.226  44.712   6.750
 9743POPC   C3A67709   8.150  44.613   7.050
 9743POPC   C4A67710   8.228  44.667   7.350
 9743POPC   C1B67711   8.331  44.944   6.450
 9743POPC   C2B67712   8.266  44.849   6.750
 9743POPC   C3B67713   8.252  44.872   7.050
 9743POPC   C4B67714   8.236  44.910   7.350
 9744POPC   NC367715  29.928  32.244   5.550
 9744POPC   PO467716  29.949  32.245   5.850
 9744POPC   GL167717  29.965  32.207   6.150
 9744POPC   GL267718  30.033  32.330   6.150
 9744POPC   C1A67719  29.880  32.206   6.450
 9744POPC   D2A67720  29.926  32.229   6.750
 9744POPC   C3A67721  29.962  32.220   7.050
 9744POPC   C4A67722  29.922  32.246   7.350
 9744POPC   C1B67723  30.186  32.356   6.450
 9744POPC   C2B67724  30.099  32.338   6.750
 9744POPC   C3B67725  30.188  32.337   7.050
 9744POPC   C4B67726  30.105  32.406   7.350
 9745POPC   NC367727  13.595  30.734   5.550
 9745POPC   PO467728  13.675  30.687   5.850
 9745POPC   GL167729  13.625  30.650   6.150
 9745POPC   GL267730  13.633  30.821   6.150
 9745POPC   C1A67731  13.664  30.670   6.450
 9745POPC   D2A67732  13.657  30.675   6.750
 9745POPC   C3A67733  13.633  30.691   7.050
 9745POPC   C4A67734  13.599  30.681   7.350
 9745POPC   C1B67735  13.549  30.913   6.450
 9745POPC   C2B67736  13.618  30.955   6.750
 9745POPC   C3B67737  13.548  30.922   7.050
 9745POPC   C4B67738  13.565  30.943   7.350
 9746POPC   NC367739  15.991  43.128   5.550
 9746POPC   PO467740  15.983  43.079   5.850
 9746POPC   GL167741  15.907  43.075   6.150
 9746POPC   GL267742  16.078  43.159   6.150
 9746POPC   C1A67743  15.935  43.106   6.450
 9746POPC   D2A67744  15.941  43.116   6.750
 9746POPC   C3A67745  15.931  43.138   7.050
 9746POPC   C4A67746  15.940  43.091   7.350
 9746POPC   C1B67747  16.130  43.256   6.450
 9746POPC   C2B67748  16.201  43.211   6.750
 9746POPC   C3B67749  16.168  43.275   7.050
 9746POPC   C4B67750  16.184  43.243   7.350
 9747POPC   NC367751  36.094  25.305   5.550
 9747POPC   PO467752  36.117  25.244   5.850
 9747POPC   GL167753  36.124  25.304   6.150
 9747POPC   GL267754  36.128  25.384   6.150
 9747POPC   C1A67755  36.170  25.312   6.450
 9747POPC   D2A67756  36.170  25.305   6.750
 9747POPC   C3A67757  36.089  25.248   7.050
 9747POPC   C4A67758  36.145  25.262   7.350
 9747POPC   C1B67759  36.142  25.495   6.450
 9747POPC   C2B67760  36.149  25.505   6.750
 9747POPC   C3B67761  36.202  25.556   7.050
 9747POPC   C4B67762  36.173  25.520   7.350
 9748POPC   NC367763  43.904  15.955   5.550
 9748POPC   PO467764  43.929  15.992   5.850
 9748POPC   GL167765  43.910  15.913   6.150
 9748POPC   GL267766  43.998  15.995   6.150
 9748POPC   C1A67767  43.859  15.991   6.450
 9748POPC   D2A67768  43.900  16.003   6.750
 9748POPC   C3A67769  43.876  15.934   7.050
 9748POPC   C4A67770  43.935  15.999   7.350
 9748POPC   C1B67771  44.063  16.092   6.450
 9748POPC   C2B67772  44.083  16.168   6.750
 9748POPC   C3B67773  44.079  16.137   7.050
 9748POPC   C4B67774  44.094  16.151   7.350
 9749POPC   NC367775  12.866  34.545   5.550
 9749POPC   PO467776  12.850  34.559   5.850
 9749POPC   GL167777  12.871  34.570   6.150
 9749POPC   GL267778  12.729  34.569   6.150
 9749POPC   C1A67779  12.875  34.620   6.450
 9749POPC   D2A67780  12.897  34.539   6.750
 9749POPC   C3A67781  12.831  34.533   7.050
 9749POPC   C4A67782  12.839  34.588   7.350
 9749POPC   C1B67783  12.580  34.563   6.450
 9749POPC   C2B67784  12.621  34.552   6.750
 9749POPC   C3B67785  12.641  34.588   7.050
 9749POPC   C4B67786  12.574  34.555   7.350
 9750POPC   NC367787  20.634   0.417   5.550
 9750POPC   PO467788  20.637   0.419   5.850
 9750POPC   GL167789  20.561   0.443   6.150
 9750POPC   GL267790  20.499   0.508   6.150
 9750POPC   C1A67791  20.639   0.463   6.450
 9750POPC   D2A67792  20.599   0.457   6.750
 9750POPC   C3A67793  20.580   0.449   7.050
 9750POPC   C4A67794  20.629   0.475   7.350
 9750POPC   C1B67795  20.464   0.626   6.450
 9750POPC   C2B67796  20.497   0.675   6.750
 9750POPC   C3B67797  20.463   0.605   7.050
 9750POPC   C4B67798  20.489   0.681   7.350
 9751POPC   NC367799  32.277   5.856   5.550
 9751POPC   PO467800  32.239   5.826   5.850
 9751POPC   GL167801  32.260   5.862   6.150
 9751POPC   GL267802  32.369   5.810   6.150
 9751POPC   C1A67803  32.208   5.850   6.450
 9751POPC   D2A67804  32.225   5.843   6.750
 9751POPC   C3A67805  32.298   5.829   7.050
 9751POPC   C4A67806  32.277   5.859   7.350
 9751POPC   C1B67807  32.422   5.716   6.450
 9751POPC   C2B67808  32.394   5.681   6.750
 9751POPC   C3B67809  32.407   5.738   7.050
 9751POPC   C4B67810  32.473   5.721   7.350
 9752POPC   NC367811  30.669  26.857   5.550
 9752POPC   PO467812  30.724  26.783   5.850
 9752POPC   GL167813  30.714  26.813   6.150
 9752POPC   GL267814  30.810  26.865   6.150
 9752POPC   C1A67815  30.712  26.823   6.450
 9752POPC   D2A67816  30.658  26.863   6.750
 9752POPC   C3A67817  30.657  26.778   7.050
 9752POPC   C4A67818  30.714  26.777   7.350
 9752POPC   C1B67819  30.851  27.027   6.450
 9752POPC   C2B67820  30.872  27.059   6.750
 9752POPC   C3B67821  30.844  27.042   7.050
 9752POPC   C4B67822  30.901  26.980   7.350
 9753POPC   NC367823  17.480   2.803   5.550
 9753POPC   PO467824  17.494   2.718   5.850
 9753POPC   GL167825  17.457   2.750   6.150
 9753POPC   GL267826  17.411   2.711   6.150
 9753POPC   C1A67827  17.554   2.746   6.450
 9753POPC   D2A67828  17.464   2.815   6.750
 9753POPC   C3A67829  17.493   2.753   7.050
 9753POPC   C4A67830  17.557   2.804   7.350
 9753POPC   C1B67831  17.308   2.610   6.450
 9753POPC   C2B67832  17.258   2.585   6.750
 9753POPC   C3B67833  17.286   2.637   7.050
 9753POPC   C4B67834  17.318   2.643   7.350
 9754POPC   NC367835  23.688  41.583   5.550
 9754POPC   PO467836  23.712  41.515   5.850
 9754POPC   GL167837  23.667  41.599   6.150
 9754POPC   GL267838  23.793  41.571   6.150
 9754POPC   C1A67839  23.734  41.527   6.450
 9754POPC   D2A67840  23.716  41.531   6.750
 9754POPC   C3A67841  23.722  41.511   7.050
 9754POPC   C4A67842  23.740  41.586   7.350
 9754POPC   C1B67843  23.935  41.477   6.450
 9754POPC   C2B67844  23.942  41.445   6.750
 9754POPC   C3B67845  23.999  41.532   7.050
 9754POPC   C4B67846  23.929  41.496   7.350
 9755POPC   NC367847  14.366  38.414   5.550
 9755POPC   PO467848  14.433  38.468   5.850
 9755POPC   GL167849  14.432  38.410   6.150
 9755POPC   GL267850  14.382  38.365   6.150
 9755POPC   C1A67851  14.424  38.466   6.450
 9755POPC   D2A67852  14.409  38.459   6.750
 9755POPC   C3A67853  14.398  38.469   7.050
 9755POPC   C4A67854  14.404  38.499   7.350
 9755POPC   C1B67855  14.273  38.290   6.450
 9755POPC   C2B67856  14.255  38.254   6.750
 9755POPC   C3B67857  14.256  38.194   7.050
 9755POPC   C4B67858  14.261  38.242   7.350
 9756POPC   NC367859  24.524  41.599   5.550
 9756POPC   PO467860  24.474  41.514   5.850
 9756POPC   GL167861  24.532  41.537   6.150
 9756POPC   GL267862  24.462  41.689   6.150
 9756POPC   C1A67863  24.485  41.599   6.450
 9756POPC   D2A67864  24.536  41.551   6.750
 9756POPC   C3A67865  24.504  41.585   7.050
 9756POPC   C4A67866  24.493  41.560   7.350
 9756POPC   C1B67867  24.420  41.809   6.450
 9756POPC   C2B67868  24.445  41.804   6.750
 9756POPC   C3B67869  24.424  41.779   7.050
 9756POPC   C4B67870  24.432  41.774   7.350
 9757POPC   NC367871  21.431  11.300   5.550
 9757POPC   PO467872  21.435  11.261   5.850
 9757POPC   GL167873  21.391  11.329   6.150
 9757POPC   GL267874  21.558  11.301   6.150
 9757POPC   C1A67875  21.361  11.341   6.450
 9757POPC   D2A67876  21.429  11.285   6.750
 9757POPC   C3A67877  21.346  11.262   7.050
 9757POPC   C4A67878  21.355  11.299   7.350
 9757POPC   C1B67879  21.629  11.323   6.450
 9757POPC   C2B67880  21.651  11.307   6.750
 9757POPC   C3B67881  21.640  11.300   7.050
 9757POPC   C4B67882  21.635  11.298   7.350
 9758POPC   NC367883  35.370  26.797   5.550
 9758POPC   PO467884  35.368  26.823   5.850
 9758POPC   GL167885  35.370  26.808   6.150
 9758POPC   GL267886  35.515  26.746   6.150
 9758POPC   C1A67887  35.386  26.781   6.450
 9758POPC   D2A67888  35.333  26.774   6.750
 9758POPC   C3A67889  35.361  26.857   7.050
 9758POPC   C4A67890  35.308  26.818   7.350
 9758POPC   C1B67891  35.626  26.758   6.450
 9758POPC   C2B67892  35.608  26.758   6.750
 9758POPC   C3B67893  35.565  26.722   7.050
 9758POPC   C4B67894  35.595  26.758   7.350
 9759POPC   NC367895  31.474   2.728   5.550
 9759POPC   PO467896  31.506   2.806   5.850
 9759POPC   GL167897  31.511   2.734   6.150
 9759POPC   GL267898  31.601   2.723   6.150
 9759POPC   C1A67899  31.501   2.766   6.450
 9759POPC   D2A67900  31.472   2.765   6.750
 9759POPC   C3A67901  31.496   2.793   7.050
 9759POPC   C4A67902  31.474   2.808   7.350
 9759POPC   C1B67903  31.760   2.756   6.450
 9759POPC   C2B67904  31.718   2.725   6.750
 9759POPC   C3B67905  31.760   2.715   7.050
 9759POPC   C4B67906  31.704   2.758   7.350
 9760POPC   NC367907  18.320  14.405   5.550
 9760POPC   PO467908  18.317  14.387   5.850
 9760POPC   GL167909  18.246  14.441   6.150
 9760POPC   GL267910  18.251  14.487   6.150
 9760POPC   C1A67911  18.272  14.358   6.450
 9760POPC   D2A67912  18.311  14.411   6.750
 9760POPC   C3A67913  18.326  14.368   7.050
 9760POPC   C4A67914  18.277  14.418   7.350
 9760POPC   C1B67915  18.122  14.607   6.450
 9760POPC   C2B67916  18.161  14.572   6.750
 9760POPC   C3B67917  18.186  14.616   7.050
 9760POPC   C4B67918  18.176  14.596   7.350
 9761POPC   NC367919  30.724  11.263   5.550
 9761POPC   PO467920  30.687  11.322   5.850
 9761POPC   GL167921  30.696  11.287   6.150
 9761POPC   GL267922  30.772  11.415   6.150
 9761POPC   C1A67923  30.716  11.331   6.450
 9761POPC   D2A67924  30.670  11.264   6.750
 9761POPC   C3A67925  30.743  11.327   7.050
 9761POPC   C4A67926  30.744  11.344   7.350
 9761POPC   C1B67927  30.885  11.444   6.450
 9761POPC   C2B67928  30.847  11.519   6.750
 9761POPC   C3B67929  30.834  11.503   7.050
 9761POPC   C4B67930  30.855  11.527   7.350
 9762POPC   NC367931  36.111  43.929   5.550
 9762POPC   PO467932  36.157  43.909   5.850
 9762POPC   GL167933  36.116  43.895   6.150
 9762POPC   GL267934  36.029  43.948   6.150
 9762POPC   C1A67935  36.139  43.839   6.450
 9762POPC   D2A67936  36.079  43.909   6.750
 9762POPC   C3A67937  36.153  43.871   7.050
 9762POPC   C4A67938  36.118  43.847   7.350
 9762POPC   C1B67939  35.927  44.004   6.450
 9762POPC   C2B67940  35.893  44.050   6.750
 9762POPC   C3B67941  35.930  43.977   7.050
 9762POPC   C4B67942  35.951  43.999   7.350
 9763POPC   NC367943   8.934  16.004   5.550
 9763POPC   PO467944   8.928  15.938   5.850
 9763POPC   GL167945   8.985  15.979   6.150
 9763POPC   GL267946   9.092  16.014   6.150
 9763POPC   C1A67947   8.973  15.992   6.450
 9763POPC   D2A67948   9.020  15.973   6.750
 9763POPC   C3A67949   8.925  15.949   7.050
 9763POPC   C4A67950   8.988  15.969   7.350
 9763POPC   C1B67951   9.230  16.007   6.450
 9763POPC   C2B67952   9.187  16.023   6.750
 9763POPC   C3B67953   9.204  16.067   7.050
 9763POPC   C4B67954   9.166  16.048   7.350
 9764POPC   NC367955  35.317  29.185   5.550
 9764POPC   PO467956  35.345  29.186   5.850
 9764POPC   GL167957  35.394  29.170   6.150
 9764POPC   GL267958  35.446  29.306   6.150
 9764POPC   C1A67959  35.306  29.150   6.450
 9764POPC   D2A67960  35.319  29.154   6.750
 9764POPC   C3A67961  35.394  29.187   7.050
 9764POPC   C4A67962  35.324  29.163   7.350
 9764POPC   C1B67963  35.504  29.364   6.450
 9764POPC   C2B67964  35.420  29.378   6.750
 9764POPC   C3B67965  35.461  29.412   7.050
 9764POPC   C4B67966  35.411  29.337   7.350
 9765POPC   NC367967  28.344  26.809   5.550
 9765POPC   PO467968  28.382  26.865   5.850
 9765POPC   GL167969  28.363  26.864   6.150
 9765POPC   GL267970  28.336  26.941   6.150
 9765POPC   C1A67971  28.372  26.838   6.450
 9765POPC   D2A67972  28.359  26.771   6.750
 9765POPC   C3A67973  28.387  26.773   7.050
 9765POPC   C4A67974  28.343  26.854   7.350
 9765POPC   C1B67975  28.362  27.015   6.450
 9765POPC   C2B67976  28.325  27.037   6.750
 9765POPC   C3B67977  28.367  27.037   7.050
 9765POPC   C4B67978  28.319  27.106   7.350
 9766POPC   NC367979  43.077   2.727   5.550
 9766POPC   PO467980  43.093   2.761   5.850
 9766POPC   GL167981  43.105   2.773   6.150
 9766POPC   GL267982  43.248   2.821   6.150
 9766POPC   C1A67983  43.148   2.800   6.450
 9766POPC   D2A67984  43.125   2.758   6.750
 9766POPC   C3A67985  43.095   2.727   7.050
 9766POPC   C4A67986  43.089   2.753   7.350
 9766POPC   C1B67987  43.347   2.808   6.450
 9766POPC   C2B67988  43.330   2.808   6.750
 9766POPC   C3B67989  43.322   2.876   7.050
 9766POPC   C4B67990  43.294   2.821   7.350
 9767POPC   NC367991  35.359  43.898   5.550
 9767POPC   PO467992  35.341  43.917   5.850
 9767POPC   GL167993  35.369  43.893   6.150
 9767POPC   GL267994  35.210  43.857   6.150
 9767POPC   C1A67995  35.350  43.874   6.450
 9767POPC   D2A67996  35.322  43.917   6.750
 9767POPC   C3A67997  35.397  43.865   7.050
 9767POPC   C4A67998  35.370  43.870   7.350
 9767POPC   C1B67999  35.125  43.879   6.450
 9767POPC   C2B68000  35.067  43.816   6.750
 9767POPC   C3B68001  35.085  43.848   7.050
 9767POPC   C4B68002  35.138  43.823   7.350
 9768POPC   NC368003  29.936  21.428   5.550
 9768POPC   PO468004  29.896  21.354   5.850
 9768POPC   GL168005  29.910  21.345   6.150
 9768POPC   GL268006  30.002  21.336   6.150
 9768POPC   C1A68007  29.958  21.348   6.450
 9768POPC   D2A68008  29.964  21.375   6.750
 9768POPC   C3A68009  29.888  21.421   7.050
 9768POPC   C4A68010  29.900  21.352   7.350
 9768POPC   C1B68011  30.124  21.275   6.450
 9768POPC   C2B68012  30.182  21.364   6.750
 9768POPC   C3B68013  30.204  21.339   7.050
 9768POPC   C4B68014  30.153  21.267   7.350
 9769POPC   NC368015  12.103  22.161   5.550
 9769POPC   PO468016  12.090  22.199   5.850
 9769POPC   GL168017  12.090  22.147   6.150
 9769POPC   GL268018  11.981  22.211   6.150
 9769POPC   C1A68019  12.069  22.160   6.450
 9769POPC   D2A68020  12.076  22.179   6.750
 9769POPC   C3A68021  12.103  22.135   7.050
 9769POPC   C4A68022  12.029  22.207   7.350
 9769POPC   C1B68023  11.883  22.198   6.450
 9769POPC   C2B68024  11.883  22.265   6.750
 9769POPC   C3B68025  11.817  22.259   7.050
 9769POPC   C4B68026  11.800  22.270   7.350
 9770POPC   NC368027  22.926  28.379   5.550
 9770POPC   PO468028  22.892  28.415   5.850
 9770POPC   GL168029  22.897  28.378   6.150
 9770POPC   GL268030  22.951  28.539   6.150
 9770POPC   C1A68031  22.905  28.320   6.450
 9770POPC   D2A68032  22.958  28.375   6.750
 9770POPC   C3A68033  22.982  28.349   7.050
 9770POPC   C4A68034  22.890  28.356   7.350
 9770POPC   C1B68035  23.005  28.637   6.450
 9770POPC   C2B68036  22.972  28.622   6.750
 9770POPC   C3B68037  23.008  28.649   7.050
 9770POPC   C4B68038  22.979  28.604   7.350
 9771POPC   NC368039  28.351   2.775   5.550
 9771POPC   PO468040  28.375   2.717   5.850
 9771POPC   GL168041  28.414   2.770   6.150
 9771POPC   GL268042  28.517   2.823   6.150
 9771POPC   C1A68043  28.343   2.754   6.450
 9771POPC   D2A68044  28.402   2.754   6.750
 9771POPC   C3A68045  28.381   2.728   7.050
 9771POPC   C4A68046  28.416   2.765   7.350
 9771POPC   C1B68047  28.530   2.949   6.450
 9771POPC   C2B68048  28.544   2.929   6.750
 9771POPC   C3B68049  28.618   2.929   7.050
 9771POPC   C4B68050  28.538   2.952   7.350
 9772POPC   NC368051   7.460  22.147   5.550
 9772POPC   PO468052   7.468  22.133   5.850
 9772POPC   GL168053   7.376  22.156   6.150
 9772POPC   GL268054   7.364  22.014   6.150
 9772POPC   C1A68055   7.439  22.125   6.450
 9772POPC   D2A68056   7.425  22.159   6.750
 9772POPC   C3A68057   7.419  22.166   7.050
 9772POPC   C4A68058   7.371  22.142   7.350
 9772POPC   C1B68059   7.350  21.889   6.450
 9772POPC   C2B68060   7.408  21.874   6.750
 9772POPC   C3B68061   7.401  21.934   7.050
 9772POPC   C4B68062   7.372  21.907   7.350
 9773POPC   NC368063  18.233   3.571   5.550
 9773POPC   PO468064  18.264   3.588   5.850
 9773POPC   GL168065  18.266   3.585   6.150
 9773POPC   GL268066  18.366   3.689   6.150
 9773POPC   C1A68067  18.318   3.587   6.450
 9773POPC   D2A68068  18.249   3.505   6.750
 9773POPC   C3A68069  18.249   3.569   7.050
 9773POPC   C4A68070  18.305   3.579   7.350
 9773POPC   C1B68071  18.427   3.759   6.450
 9773POPC   C2B68072  18.433   3.801   6.750
 9773POPC   C3B68073  18.452   3.766   7.050
 9773POPC   C4B68074  18.364   3.725   7.350
 9774POPC   NC368075  44.617  39.973   5.550
 9774POPC   PO468076  44.617  40.055   5.850
 9774POPC   GL168077  44.680  40.040   6.150
 9774POPC   GL268078  44.525  40.035   6.150
 9774POPC   C1A68079  44.665  40.040   6.450
 9774POPC   D2A68080  44.704  40.019   6.750
 9774POPC   C3A68081  44.613  40.030   7.050
 9774POPC   C4A68082  44.624  40.031   7.350
 9774POPC   C1B68083  44.427  40.041   6.450
 9774POPC   C2B68084  44.432  40.049   6.750
 9774POPC   C3B68085  44.441  40.075   7.050
 9774POPC   C4B68086  44.441  40.021   7.350
 9775POPC   NC368087  33.831  31.499   5.550
 9775POPC   PO468088  33.782  31.458   5.850
 9775POPC   GL168089  33.782  31.439   6.150
 9775POPC   GL268090  33.706  31.596   6.150
 9775POPC   C1A68091  33.758  31.488   6.450
 9775POPC   D2A68092  33.847  31.468   6.750
 9775POPC   C3A68093  33.754  31.515   7.050
 9775POPC   C4A68094  33.798  31.437   7.350
 9775POPC   C1B68095  33.678  31.647   6.450
 9775POPC   C2B68096  33.716  31.641   6.750
 9775POPC   C3B68097  33.667  31.634   7.050
 9775POPC   C4B68098  33.713  31.723   7.350
 9776POPC   NC368099  30.664   8.180   5.550
 9776POPC   PO468100  30.664   8.190   5.850
 9776POPC   GL168101  30.711   8.209   6.150
 9776POPC   GL268102  30.722   8.045   6.150
 9776POPC   C1A68103  30.702   8.198   6.450
 9776POPC   D2A68104  30.684   8.205   6.750
 9776POPC   C3A68105  30.692   8.179   7.050
 9776POPC   C4A68106  30.727   8.228   7.350
 9776POPC   C1B68107  30.847   7.998   6.450
 9776POPC   C2B68108  30.872   7.934   6.750
 9776POPC   C3B68109  30.822   8.000   7.050
 9776POPC   C4B68110  30.829   7.955   7.350
 9777POPC   NC368111   8.967  19.787   5.550
 9777POPC   PO468112   9.013  19.818   5.850
 9777POPC   GL168113   9.021  19.840   6.150
 9777POPC   GL268114   9.091  19.920   6.150
 9777POPC   C1A68115   9.002  19.792   6.450
 9777POPC   D2A68116   8.980  19.829   6.750
 9777POPC   C3A68117   9.006  19.865   7.050
 9777POPC   C4A68118   8.933  19.823   7.350
 9777POPC   C1B68119   9.139  19.967   6.450
 9777POPC   C2B68120   9.148  19.948   6.750
 9777POPC   C3B68121   9.178  19.982   7.050
 9777POPC   C4B68122   9.175  19.991   7.350
 9778POPC   NC368123  26.044  19.796   5.550
 9778POPC   PO468124  26.073  19.866   5.850
 9778POPC   GL168125  26.085  19.828   6.150
 9778POPC   GL268126  26.036  19.760   6.150
 9778POPC   C1A68127  26.011  19.805   6.450
 9778POPC   D2A68128  26.091  19.815   6.750
 9778POPC   C3A68129  26.028  19.810   7.050
 9778POPC   C4A68130  26.012  19.830   7.350
 9778POPC   C1B68131  26.105  19.612   6.450
 9778POPC   C2B68132  26.130  19.585   6.750
 9778POPC   C3B68133  26.100  19.611   7.050
 9778POPC   C4B68134  26.165  19.620   7.350
 9779POPC   NC368135  19.870  27.551   5.550
 9779POPC   PO468136  19.848  27.568   5.850
 9779POPC   GL168137  19.789  27.610   6.150
 9779POPC   GL268138  19.843  27.677   6.150
 9779POPC   C1A68139  19.846  27.575   6.450
 9779POPC   D2A68140  19.856  27.639   6.750
 9779POPC   C3A68141  19.837  27.572   7.050
 9779POPC   C4A68142  19.851  27.621   7.350
 9779POPC   C1B68143  19.848  27.805   6.450
 9779POPC   C2B68144  19.806  27.860   6.750
 9779POPC   C3B68145  19.879  27.865   7.050
 9779POPC   C4B68146  19.833  27.829   7.350
 9780POPC   NC368147   4.282  12.085   5.550
 9780POPC   PO468148   4.337  12.089   5.850
 9780POPC   GL168149   4.350  12.060   6.150
 9780POPC   GL268150   4.343  12.004   6.150
 9780POPC   C1A68151   4.349  12.118   6.450
 9780POPC   D2A68152   4.295  12.034   6.750
 9780POPC   C3A68153   4.341  12.098   7.050
 9780POPC   C4A68154   4.321  12.033   7.350
 9780POPC   C1B68155   4.480  11.830   6.450
 9780POPC   C2B68156   4.416  11.821   6.750
 9780POPC   C3B68157   4.493  11.837   7.050
 9780POPC   C4B68158   4.427  11.834   7.350
 9781POPC   NC368159  20.566  24.461   5.550
 9781POPC   PO468160  20.627  24.472   5.850
 9781POPC   GL168161  20.649  24.479   6.150
 9781POPC   GL268162  20.499  24.444   6.150
 9781POPC   C1A68163  20.585  24.499   6.450
 9781POPC   D2A68164  20.582  24.491   6.750
 9781POPC   C3A68165  20.642  24.498   7.050
 9781POPC   C4A68166  20.563  24.506   7.350
 9781POPC   C1B68167  20.353  24.341   6.450
 9781POPC   C2B68168  20.439  24.329   6.750
 9781POPC   C3B68169  20.440  24.371   7.050
 9781POPC   C4B68170  20.378  24.399   7.350
 9782POPC   NC368171  23.673  38.469   5.550
 9782POPC   PO468172  23.683  38.433   5.850
 9782POPC   GL168173  23.693  38.489   6.150
 9782POPC   GL268174  23.574  38.402   6.150
 9782POPC   C1A68175  23.749  38.412   6.450
 9782POPC   D2A68176  23.712  38.457   6.750
 9782POPC   C3A68177  23.731  38.429   7.050
 9782POPC   C4A68178  23.722  38.456   7.350
 9782POPC   C1B68179  23.432  38.416   6.450
 9782POPC   C2B68180  23.444  38.457   6.750
 9782POPC   C3B68181  23.448  38.379   7.050
 9782POPC   C4B68182  23.417  38.405   7.350
 9783POPC   NC368183  36.882  21.401   5.550
 9783POPC   PO468184  36.869  21.341   5.850
 9783POPC   GL168185  36.900  21.392   6.150
 9783POPC   GL268186  37.041  21.312   6.150
 9783POPC   C1A68187  36.885  21.422   6.450
 9783POPC   D2A68188  36.870  21.351   6.750
 9783POPC   C3A68189  36.926  21.344   7.050
 9783POPC   C4A68190  36.880  21.339   7.350
 9783POPC   C1B68191  37.117  21.325   6.450
 9783POPC   C2B68192  37.164  21.326   6.750
 9783POPC   C3B68193  37.108  21.361   7.050
 9783POPC   C4B68194  37.177  21.287   7.350
 9784POPC   NC368195   9.714  25.257   5.550
 9784POPC   PO468196   9.758  25.270   5.850
 9784POPC   GL168197   9.754  25.232   6.150
 9784POPC   GL268198   9.856  25.386   6.150
 9784POPC   C1A68199   9.751  25.315   6.450
 9784POPC   D2A68200   9.780  25.226   6.750
 9784POPC   C3A68201   9.710  25.310   7.050
 9784POPC   C4A68202   9.700  25.300   7.350
 9784POPC   C1B68203   9.879  25.496   6.450
 9784POPC   C2B68204   9.936  25.433   6.750
 9784POPC   C3B68205   9.838  25.488   7.050
 9784POPC   C4B68206   9.911  25.463   7.350
 9785POPC   NC368207  31.442   8.148   5.550
 9785POPC   PO468208  31.434   8.187   5.850
 9785POPC   GL168209  31.487   8.156   6.150
 9785POPC   GL268210  31.445   8.328   6.150
 9785POPC   C1A68211  31.490   8.188   6.450
 9785POPC   D2A68212  31.486   8.195   6.750
 9785POPC   C3A68213  31.521   8.153   7.050
 9785POPC   C4A68214  31.490   8.153   7.350
 9785POPC   C1B68215  31.447   8.444   6.450
 9785POPC   C2B68216  31.484   8.431   6.750
 9785POPC   C3B68217  31.492   8.465   7.050
 9785POPC   C4B68218  31.446   8.401   7.350
 9786POPC   NC368219  43.107  29.183   5.550
 9786POPC   PO468220  43.130  29.149   5.850
 9786POPC   GL168221  43.143  29.135   6.150
 9786POPC   GL268222  42.990  29.023   6.150
 9786POPC   C1A68223  43.078  29.143   6.450
 9786POPC   D2A68224  43.122  29.176   6.750
 9786POPC   C3A68225  43.117  29.111   7.050
 9786POPC   C4A68226  43.064  29.111   7.350
 9786POPC   C1B68227  42.918  28.979   6.450
 9786POPC   C2B68228  42.951  29.013   6.750
 9786POPC   C3B68229  42.893  29.005   7.050
 9786POPC   C4B68230  42.943  28.958   7.350
 9787POPC   NC368231  36.156  15.931   5.550
 9787POPC   PO468232  36.095  15.987   5.850
 9787POPC   GL168233  36.133  16.000   6.150
 9787POPC   GL268234  36.223  15.869   6.150
 9787POPC   C1A68235  36.094  15.908   6.450
 9787POPC   D2A68236  36.168  15.970   6.750
 9787POPC   C3A68237  36.150  15.981   7.050
 9787POPC   C4A68238  36.153  15.954   7.350
 9787POPC   C1B68239  36.341  15.797   6.450
 9787POPC   C2B68240  36.358  15.830   6.750
 9787POPC   C3B68241  36.330  15.781   7.050
 9787POPC   C4B68242  36.365  15.771   7.350
 9788POPC   NC368243   0.445  17.477   5.550
 9788POPC   PO468244   0.397  17.512   5.850
 9788POPC   GL168245   0.408  17.474   6.150
 9788POPC   GL268246   0.312  17.455   6.150
 9788POPC   C1A68247   0.465  17.546   6.450
 9788POPC   D2A68248   0.486  17.535   6.750
 9788POPC   C3A68249   0.406  17.470   7.050
 9788POPC   C4A68250   0.399  17.518   7.350
 9788POPC   C1B68251   0.218  17.478   6.450
 9788POPC   C2B68252   0.199  17.434   6.750
 9788POPC   C3B68253   0.183  17.407   7.050
 9788POPC   C4B68254   0.213  17.495   7.350
 9789POPC   NC368255   1.254  14.376   5.550
 9789POPC   PO468256   1.245  14.358   5.850
 9789POPC   GL168257   1.227  14.354   6.150
 9789POPC   GL268258   1.087  14.327   6.150
 9789POPC   C1A68259   1.192  14.406   6.450
 9789POPC   D2A68260   1.246  14.363   6.750
 9789POPC   C3A68261   1.187  14.446   7.050
 9789POPC   C4A68262   1.230  14.448   7.350
 9789POPC   C1B68263   1.058  14.264   6.450
 9789POPC   C2B68264   1.091  14.247   6.750
 9789POPC   C3B68265   1.068  14.253   7.050
 9789POPC   C4B68266   1.053  14.245   7.350
 9790POPC   NC368267   7.411  28.342   5.550
 9790POPC   PO468268   7.425  28.347   5.850
 9790POPC   GL168269   7.423  28.364   6.150
 9790POPC   GL268270   7.413  28.511   6.150
 9790POPC   C1A68271   7.447  28.340   6.450
 9790POPC   D2A68272   7.430  28.367   6.750
 9790POPC   C3A68273   7.398  28.376   7.050
 9790POPC   C4A68274   7.406  28.369   7.350
 9790POPC   C1B68275   7.454  28.572   6.450
 9790POPC   C2B68276   7.453  28.601   6.750
 9790POPC   C3B68277   7.439  28.589   7.050
 9790POPC   C4B68278   7.477  28.648   7.350
 9791POPC   NC368279  24.496  32.266   5.550
 9791POPC   PO468280  24.440  32.276   5.850
 9791POPC   GL168281  24.529  32.239   6.150
 9791POPC   GL268282  24.510  32.329   6.150
 9791POPC   C1A68283  24.494  32.289   6.450
 9791POPC   D2A68284  24.514  32.268   6.750
 9791POPC   C3A68285  24.443  32.230   7.050
 9791POPC   C4A68286  24.447  32.259   7.350
 9791POPC   C1B68287  24.450  32.513   6.450
 9791POPC   C2B68288  24.418  32.490   6.750
 9791POPC   C3B68289  24.422  32.459   7.050
 9791POPC   C4B68290  24.497  32.475   7.350
 9792POPC   NC368291  22.947  39.230   5.550
 9792POPC   PO468292  22.940  39.257   5.850
 9792POPC   GL168293  22.914  39.223   6.150
 9792POPC   GL268294  23.005  39.166   6.150
 9792POPC   C1A68295  22.918  39.240   6.450
 9792POPC   D2A68296  22.892  39.269   6.750
 9792POPC   C3A68297  22.939  39.232   7.050
 9792POPC   C4A68298  22.905  39.225   7.350
 9792POPC   C1B68299  23.095  38.982   6.450
 9792POPC   C2B68300  23.053  39.067   6.750
 9792POPC   C3B68301  23.037  39.057   7.050
 9792POPC   C4B68302  23.102  39.005   7.350
 9793POPC   NC368303  43.855   6.679   5.550
 9793POPC   PO468304  43.925   6.596   5.850
 9793POPC   GL168305  43.910   6.675   6.150
 9793POPC   GL268306  43.808   6.688   6.150
 9793POPC   C1A68307  43.906   6.657   6.450
 9793POPC   D2A68308  43.867   6.628   6.750
 9793POPC   C3A68309  43.853   6.683   7.050
 9793POPC   C4A68310  43.916   6.681   7.350
 9793POPC   C1B68311  43.598   6.635   6.450
 9793POPC   C2B68312  43.655   6.628   6.750
 9793POPC   C3B68313  43.659   6.646   7.050
 9793POPC   C4B68314  43.652   6.689   7.350
 9794POPC   NC368315   1.254  12.089   5.550
 9794POPC   PO468316   1.183  12.068   5.850
 9794POPC   GL168317   1.167  12.055   6.150
 9794POPC   GL268318   1.082  12.122   6.150
 9794POPC   C1A68319   1.215  12.038   6.450
 9794POPC   D2A68320   1.213  12.027   6.750
 9794POPC   C3A68321   1.234  12.109   7.050
 9794POPC   C4A68322   1.198  12.102   7.350
 9794POPC   C1B68323   1.041  12.248   6.450
 9794POPC   C2B68324   1.014  12.166   6.750
 9794POPC   C3B68325   0.960  12.246   7.050
 9794POPC   C4B68326   0.973  12.233   7.350
 9795POPC   NC368327  36.953  17.535   5.550
 9795POPC   PO468328  36.860  17.541   5.850
 9795POPC   GL168329  36.908  17.482   6.150
 9795POPC   GL268330  36.924  17.395   6.150
 9795POPC   C1A68331  36.857  17.520   6.450
 9795POPC   D2A68332  36.911  17.460   6.750
 9795POPC   C3A68333  36.874  17.546   7.050
 9795POPC   C4A68334  36.913  17.461   7.350
 9795POPC   C1B68335  37.028  17.283   6.450
 9795POPC   C2B68336  37.059  17.306   6.750
 9795POPC   C3B68337  37.052  17.241   7.050
 9795POPC   C4B68338  37.026  17.281   7.350
 9796POPC   NC368339  36.166  36.881   5.550
 9796POPC   PO468340  36.168  36.907   5.850
 9796POPC   GL168341  36.158  36.873   6.150
 9796POPC   GL268342  36.000  37.042   6.150
 9796POPC   C1A68343  36.124  36.935   6.450
 9796POPC   D2A68344  36.176  36.855   6.750
 9796POPC   C3A68345  36.085  36.906   7.050
 9796POPC   C4A68346  36.136  36.863   7.350
 9796POPC   C1B68347  35.964  37.059   6.450
 9796POPC   C2B68348  35.978  37.069   6.750
 9796POPC   C3B68349  36.004  37.122   7.050
 9796POPC   C4B68350  35.997  37.067   7.350
 9797POPC   NC368351  13.652  42.314   5.550
 9797POPC   PO468352  13.584  42.300   5.850
 9797POPC   GL168353  13.587  42.321   6.150
 9797POPC   GL268354  13.716  42.182   6.150
 9797POPC   C1A68355  13.619  42.325   6.450
 9797POPC   D2A68356  13.590  42.285   6.750
 9797POPC   C3A68357  13.631  42.291   7.050
 9797POPC   C4A68358  13.639  42.354   7.350
 9797POPC   C1B68359  13.801  42.092   6.450
 9797POPC   C2B68360  13.770  42.137   6.750
 9797POPC   C3B68361  13.725  42.172   7.050
 9797POPC   C4B68362  13.739  42.127   7.350
 9798POPC   NC368363   8.933  25.290   5.550
 9798POPC   PO468364   8.990  25.243   5.850
 9798POPC   GL168365   8.928  25.256   6.150
 9798POPC   GL268366   8.815  25.321   6.150
 9798POPC   C1A68367   8.933  25.242   6.450
 9798POPC   D2A68368   8.947  25.254   6.750
 9798POPC   C3A68369   8.956  25.255   7.050
 9798POPC   C4A68370   8.946  25.265   7.350
 9798POPC   C1B68371   8.702  25.340   6.450
 9798POPC   C2B68372   8.703  25.376   6.750
 9798POPC   C3B68373   8.761  25.316   7.050
 9798POPC   C4B68374   8.756  25.294   7.350
 9799POPC   NC368375  37.666  25.275   5.550
 9799POPC   PO468376  37.654  25.298   5.850
 9799POPC   GL168377  37.695  25.297   6.150
 9799POPC   GL268378  37.675  25.431   6.150
 9799POPC   C1A68379  37.672  25.268   6.450
 9799POPC   D2A68380  37.648  25.263   6.750
 9799POPC   C3A68381  37.654  25.308   7.050
 9799POPC   C4A68382  37.721  25.250   7.350
 9799POPC   C1B68383  37.623  25.504   6.450
 9799POPC   C2B68384  37.646  25.478   6.750
 9799POPC   C3B68385  37.617  25.555   7.050
 9799POPC   C4B68386  37.574  25.466   7.350
 9800POPC   NC368387   0.475  19.825   5.550
 9800POPC   PO468388   0.393  19.859   5.850
 9800POPC   GL168389   0.458  19.870   6.150
 9800POPC   GL268390   0.424  19.925   6.150
 9800POPC   C1A68391   0.438  19.864   6.450
 9800POPC   D2A68392   0.466  19.860   6.750
 9800POPC   C3A68393   0.454  19.799   7.050
 9800POPC   C4A68394   0.442  19.879   7.350
 9800POPC   C1B68395   0.406  20.043   6.450
 9800POPC   C2B68396   0.345  20.059   6.750
 9800POPC   C3B68397   0.354  20.090   7.050
 9800POPC   C4B68398   0.350  20.046   7.350
 9801POPC   NC368399   9.729  37.660   5.550
 9801POPC   PO468400   9.707  37.688   5.850
 9801POPC   GL168401   9.760  37.683   6.150
 9801POPC   GL268402   9.896  37.701   6.150
 9801POPC   C1A68403   9.701  37.727   6.450
 9801POPC   D2A68404   9.718  37.711   6.750
 9801POPC   C3A68405   9.768  37.717   7.050
 9801POPC   C4A68406   9.714  37.673   7.350
 9801POPC   C1B68407  10.005  37.656   6.450
 9801POPC   C2B68408   9.985  37.726   6.750
 9801POPC   C3B68409  10.041  37.645   7.050
 9801POPC   C4B68410   9.967  37.671   7.350
 9802POPC   NC368411   5.058   9.010   5.550
 9802POPC   PO468412   5.116   8.957   5.850
 9802POPC   GL168413   5.138   9.019   6.150
 9802POPC   GL268414   5.017   8.875   6.150
 9802POPC   C1A68415   5.051   8.927   6.450
 9802POPC   D2A68416   5.053   8.967   6.750
 9802POPC   C3A68417   5.071   8.975   7.050
 9802POPC   C4A68418   5.140   8.962   7.350
 9802POPC   C1B68419   4.976   8.765   6.450
 9802POPC   C2B68420   4.956   8.810   6.750
 9802POPC   C3B68421   5.003   8.780   7.050
 9802POPC   C4B68422   4.925   8.759   7.350
 9803POPC   NC368423  18.235  13.606   5.550
 9803POPC   PO468424  18.325  13.609   5.850
 9803POPC   GL168425  18.303  13.583   6.150
 9803POPC   GL268426  18.284  13.526   6.150
 9803POPC   C1A68427  18.326  13.622   6.450
 9803POPC   D2A68428  18.233  13.669   6.750
 9803POPC   C3A68429  18.261  13.605   7.050
 9803POPC   C4A68430  18.325  13.658   7.350
 9803POPC   C1B68431  18.239  13.334   6.450
 9803POPC   C2B68432  18.269  13.334   6.750
 9803POPC   C3B68433  18.303  13.375   7.050
 9803POPC   C4B68434  18.250  13.426   7.350
 9804POPC   NC368435   6.664  20.602   5.550
 9804POPC   PO468436   6.615  20.616   5.850
 9804POPC   GL168437   6.647  20.635   6.150
 9804POPC   GL268438   6.768  20.716   6.150
 9804POPC   C1A68439   6.601  20.645   6.450
 9804POPC   D2A68440   6.642  20.607   6.750
 9804POPC   C3A68441   6.665  20.607   7.050
 9804POPC   C4A68442   6.661  20.590   7.350
 9804POPC   C1B68443   6.819  20.804   6.450
 9804POPC   C2B68444   6.788  20.764   6.750
 9804POPC   C3B68445   6.808  20.797   7.050
 9804POPC   C4B68446   6.771  20.813   7.350
 9805POPC   NC368447   8.241   1.203   5.550
 9805POPC   PO468448   8.190   1.216   5.850
 9805POPC   GL168449   8.166   1.194   6.150
 9805POPC   GL268450   8.104   1.129   6.150
 9805POPC   C1A68451   8.208   1.189   6.450
 9805POPC   D2A68452   8.182   1.204   6.750
 9805POPC   C3A68453   8.148   1.194   7.050
 9805POPC   C4A68454   8.204   1.256   7.350
 9805POPC   C1B68455   8.104   0.988   6.450
 9805POPC   C2B68456   8.063   1.001   6.750
 9805POPC   C3B68457   8.054   1.036   7.050
 9805POPC   C4B68458   8.015   1.000   7.350
 9806POPC   NC368459  38.481  36.929   5.550
 9806POPC   PO468460  38.488  36.886   5.850
 9806POPC   GL168461  38.409  36.902   6.150
 9806POPC   GL268462  38.613  36.856   6.150
 9806POPC   C1A68463  38.502  36.921   6.450
 9806POPC   D2A68464  38.440  36.926   6.750
 9806POPC   C3A68465  38.453  36.950   7.050
 9806POPC   C4A68466  38.417  36.868   7.350
 9806POPC   C1B68467  38.679  36.791   6.450
 9806POPC   C2B68468  38.650  36.799   6.750
 9806POPC   C3B68469  38.712  36.806   7.050
 9806POPC   C4B68470  38.702  36.774   7.350
 9807POPC   NC368471  26.038  40.827   5.550
 9807POPC   PO468472  26.080  40.779   5.850
 9807POPC   GL168473  26.030  40.816   6.150
 9807POPC   GL268474  25.903  40.820   6.150
 9807POPC   C1A68475  26.063  40.758   6.450
 9807POPC   D2A68476  26.079  40.757   6.750
 9807POPC   C3A68477  26.078  40.760   7.050
 9807POPC   C4A68478  26.039  40.798   7.350
 9807POPC   C1B68479  25.757  40.839   6.450
 9807POPC   C2B68480  25.766  40.787   6.750
 9807POPC   C3B68481  25.761  40.832   7.050
 9807POPC   C4B68482  25.798  40.840   7.350
 9808POPC   NC368483  39.264  36.110   5.550
 9808POPC   PO468484  39.276  36.099   5.850
 9808POPC   GL168485  39.220  36.160   6.150
 9808POPC   GL268486  39.103  36.084   6.150
 9808POPC   C1A68487  39.261  36.106   6.450
 9808POPC   D2A68488  39.194  36.123   6.750
 9808POPC   C3A68489  39.229  36.125   7.050
 9808POPC   C4A68490  39.199  36.096   7.350
 9808POPC   C1B68491  38.977  36.119   6.450
 9808POPC   C2B68492  39.024  36.119   6.750
 9808POPC   C3B68493  38.943  36.083   7.050
 9808POPC   C4B68494  39.035  36.103   7.350
 9809POPC   NC368495  12.878   6.684   5.550
 9809POPC   PO468496  12.871   6.603   5.850
 9809POPC   GL168497  12.898   6.670   6.150
 9809POPC   GL268498  12.940   6.728   6.150
 9809POPC   C1A68499  12.866   6.674   6.450
 9809POPC   D2A68500  12.850   6.599   6.750
 9809POPC   C3A68501  12.844   6.672   7.050
 9809POPC   C4A68502  12.832   6.611   7.350
 9809POPC   C1B68503  12.973   6.842   6.450
 9809POPC   C2B68504  12.979   6.859   6.750
 9809POPC   C3B68505  13.016   6.861   7.050
 9809POPC   C4B68506  13.018   6.897   7.350
 9810POPC   NC368507  42.355  27.563   5.550
 9810POPC   PO468508  42.291  27.640   5.850
 9810POPC   GL168509  42.318  27.564   6.150
 9810POPC   GL268510  42.418  27.725   6.150
 9810POPC   C1A68511  42.311  27.621   6.450
 9810POPC   D2A68512  42.320  27.578   6.750
 9810POPC   C3A68513  42.356  27.549   7.050
 9810POPC   C4A68514  42.384  27.608   7.350
 9810POPC   C1B68515  42.459  27.771   6.450
 9810POPC   C2B68516  42.463  27.773   6.750
 9810POPC   C3B68517  42.438  27.826   7.050
 9810POPC   C4B68518  42.470  27.788   7.350
 9811POPC   NC368519  22.963   9.020   5.550
 9811POPC   PO468520  22.942   8.978   5.850
 9811POPC   GL168521  22.916   8.965   6.150
 9811POPC   GL268522  22.788   8.939   6.150
 9811POPC   C1A68523  22.982   8.940   6.450
 9811POPC   D2A68524  22.940   8.990   6.750
 9811POPC   C3A68525  22.967   8.982   7.050
 9811POPC   C4A68526  22.937   8.931   7.350
 9811POPC   C1B68527  22.653   9.022   6.450
 9811POPC   C2B68528  22.661   8.945   6.750
 9811POPC   C3B68529  22.639   9.018   7.050
 9811POPC   C4B68530  22.649   9.009   7.350
 9812POPC   NC368531  12.105  43.842   5.550
 9812POPC   PO468532  12.114  43.928   5.850
 9812POPC   GL168533  12.064  43.839   6.150
 9812POPC   GL268534  12.032  43.744   6.150
 9812POPC   C1A68535  12.033  43.890   6.450
 9812POPC   D2A68536  12.096  43.886   6.750
 9812POPC   C3A68537  12.071  43.861   7.050
 9812POPC   C4A68538  12.050  43.886   7.350
 9812POPC   C1B68539  12.032  43.656   6.450
 9812POPC   C2B68540  12.107  43.652   6.750
 9812POPC   C3B68541  12.111  43.676   7.050
 9812POPC   C4B68542  12.115  43.606   7.350
 9813POPC   NC368543  43.894   4.305   5.550
 9813POPC   PO468544  43.925   4.310   5.850
 9813POPC   GL168545  43.874   4.277   6.150
 9813POPC   GL268546  43.876   4.197   6.150
 9813POPC   C1A68547  43.846   4.322   6.450
 9813POPC   D2A68548  43.889   4.316   6.750
 9813POPC   C3A68549  43.906   4.315   7.050
 9813POPC   C4A68550  43.909   4.336   7.350
 9813POPC   C1B68551  43.859   4.117   6.450
 9813POPC   C2B68552  43.833   4.027   6.750
 9813POPC   C3B68553  43.885   4.062   7.050
 9813POPC   C4B68554  43.831   4.101   7.350
 9814POPC   NC368555   8.993  24.466   5.550
 9814POPC   PO468556   8.996  24.461   5.850
 9814POPC   GL168557   8.954  24.441   6.150
 9814POPC   GL268558   8.841  24.466   6.150
 9814POPC   C1A68559   8.933  24.448   6.450
 9814POPC   D2A68560   8.922  24.488   6.750
 9814POPC   C3A68561   8.978  24.499   7.050
 9814POPC   C4A68562   8.993  24.451   7.350
 9814POPC   C1B68563   8.700  24.431   6.450
 9814POPC   C2B68564   8.778  24.429   6.750
 9814POPC   C3B68565   8.759  24.454   7.050
 9814POPC   C4B68566   8.746  24.444   7.350
 9815POPC   NC368567   1.945  27.610   5.550
 9815POPC   PO468568   2.012  27.635   5.850
 9815POPC   GL168569   2.028  27.565   6.150
 9815POPC   GL268570   2.125  27.492   6.150
 9815POPC   C1A68571   1.980  27.584   6.450
 9815POPC   D2A68572   1.985  27.552   6.750
 9815POPC   C3A68573   1.981  27.595   7.050
 9815POPC   C4A68574   2.012  27.622   7.350
 9815POPC   C1B68575   2.218  27.445   6.450
 9815POPC   C2B68576   2.184  27.403   6.750
 9815POPC   C3B68577   2.130  27.443   7.050
 9815POPC   C4B68578   2.215  27.449   7.350
 9816POPC   NC368579   6.677  15.986   5.550
 9816POPC   PO468580   6.639  15.994   5.850
 9816POPC   GL168581   6.636  15.936   6.150
 9816POPC   GL268582   6.711  15.885   6.150
 9816POPC   C1A68583   6.613  15.987   6.450
 9816POPC   D2A68584   6.630  15.957   6.750
 9816POPC   C3A68585   6.596  15.976   7.050
 9816POPC   C4A68586   6.677  15.946   7.350
 9816POPC   C1B68587   6.748  15.706   6.450
 9816POPC   C2B68588   6.760  15.722   6.750
 9816POPC   C3B68589   6.840  15.753   7.050
 9816POPC   C4B68590   6.752  15.719   7.350
 9817POPC   NC368591   9.788  38.438   5.550
 9817POPC   PO468592   9.738  38.446   5.850
 9817POPC   GL168593   9.783  38.466   6.150
 9817POPC   GL268594   9.646  38.411   6.150
 9817POPC   C1A68595   9.744  38.494   6.450
 9817POPC   D2A68596   9.712  38.442   6.750
 9817POPC   C3A68597   9.787  38.406   7.050
 9817POPC   C4A68598   9.724  38.425   7.350
 9817POPC   C1B68599   9.510  38.392   6.450
 9817POPC   C2B68600   9.532  38.314   6.750
 9817POPC   C3B68601   9.532  38.390   7.050
 9817POPC   C4B68602   9.534  38.388   7.350
 9818POPC   NC368603  43.132  15.940   5.550
 9818POPC   PO468604  43.102  15.978   5.850
 9818POPC   GL168605  43.148  15.970   6.150
 9818POPC   GL268606  43.132  16.037   6.150
 9818POPC   C1A68607  43.139  15.979   6.450
 9818POPC   D2A68608  43.077  15.954   6.750
 9818POPC   C3A68609  43.099  15.920   7.050
 9818POPC   C4A68610  43.111  15.934   7.350
 9818POPC   C1B68611  43.155  16.201   6.450
 9818POPC   C2B68612  43.210  16.142   6.750
 9818POPC   C3B68613  43.153  16.212   7.050
 9818POPC   C4B68614  43.176  16.213   7.350
 9819POPC   NC368615  44.630  29.135   5.550
 9819POPC   PO468616  44.655  29.160   5.850
 9819POPC   GL168617  44.701  29.177   6.150
 9819POPC   GL268618  44.648  29.071   6.150
 9819POPC   C1A68619  44.627  29.107   6.450
 9819POPC   D2A68620  44.702  29.123   6.750
 9819POPC   C3A68621  44.695  29.102   7.050
 9819POPC   C4A68622  44.698  29.192   7.350
 9819POPC   C1B68623  44.603  28.931   6.450
 9819POPC   C2B68624  44.591  28.950   6.750
 9819POPC   C3B68625  44.578  28.907   7.050
 9819POPC   C4B68626  44.574  28.881   7.350
 9820POPC   NC368627  30.740  35.351   5.550
 9820POPC   PO468628  30.656  35.304   5.850
 9820POPC   GL168629  30.678  35.340   6.150
 9820POPC   GL268630  30.656  35.512   6.150
 9820POPC   C1A68631  30.666  35.358   6.450
 9820POPC   D2A68632  30.679  35.317   6.750
 9820POPC   C3A68633  30.742  35.364   7.050
 9820POPC   C4A68634  30.691  35.378   7.350
 9820POPC   C1B68635  30.637  35.545   6.450
 9820POPC   C2B68636  30.637  35.630   6.750
 9820POPC   C3B68637  30.617  35.564   7.050
 9820POPC   C4B68638  30.606  35.546   7.350
 9821POPC   NC368639   2.779   8.944   5.550
 9821POPC   PO468640   2.759   8.929   5.850
 9821POPC   GL168641   2.799   9.018   6.150
 9821POPC   GL268642   2.753   8.892   6.150
 9821POPC   C1A68643   2.809   9.000   6.450
 9821POPC   D2A68644   2.791   8.992   6.750
 9821POPC   C3A68645   2.743   8.977   7.050
 9821POPC   C4A68646   2.788   8.987   7.350
 9821POPC   C1B68647   2.780   8.742   6.450
 9821POPC   C2B68648   2.794   8.726   6.750
 9821POPC   C3B68649   2.816   8.717   7.050
 9821POPC   C4B68650   2.783   8.772   7.350
 9822POPC   NC368651  18.309   9.708   5.550
 9822POPC   PO468652  18.331   9.752   5.850
 9822POPC   GL168653  18.326   9.782   6.150
 9822POPC   GL268654  18.351   9.624   6.150
 9822POPC   C1A68655  18.276   9.791   6.450
 9822POPC   D2A68656  18.252   9.701   6.750
 9822POPC   C3A68657  18.330   9.786   7.050
 9822POPC   C4A68658  18.304   9.764   7.350
 9822POPC   C1B68659  18.467   9.588   6.450
 9822POPC   C2B68660  18.455   9.503   6.750
 9822POPC   C3B68661  18.411   9.538   7.050
 9822POPC   C4B68662  18.416   9.506   7.350
 9823POPC   NC368663  43.124  41.529   5.550
 9823POPC   PO468664  43.127  41.528   5.850
 9823POPC   GL168665  43.154  41.548   6.150
 9823POPC   GL268666  42.968  41.602   6.150
 9823POPC   C1A68667  43.116  41.513   6.450
 9823POPC   D2A68668  43.135  41.532   6.750
 9823POPC   C3A68669  43.072  41.579   7.050
 9823POPC   C4A68670  43.129  41.583   7.350
 9823POPC   C1B68671  42.904  41.589   6.450
 9823POPC   C2B68672  42.846  41.571   6.750
 9823POPC   C3B68673  42.816  41.518   7.050
 9823POPC   C4B68674  42.873  41.528   7.350
 9824POPC   NC368675  41.571   9.716   5.550
 9824POPC   PO468676  41.566   9.779   5.850
 9824POPC   GL168677  41.561   9.724   6.150
 9824POPC   GL268678  41.481   9.873   6.150
 9824POPC   C1A68679  41.523   9.724   6.450
 9824POPC   D2A68680  41.558   9.705   6.750
 9824POPC   C3A68681  41.577   9.709   7.050
 9824POPC   C4A68682  41.592   9.786   7.350
 9824POPC   C1B68683  41.392   9.890   6.450
 9824POPC   C2B68684  41.386   9.925   6.750
 9824POPC   C3B68685  41.362   9.944   7.050
 9824POPC   C4B68686  41.404   9.928   7.350
 9825POPC   NC368687  21.338  39.216   5.550
 9825POPC   PO468688  21.433  39.200   5.850
 9825POPC   GL168689  21.408  39.193   6.150
 9825POPC   GL268690  21.484  39.296   6.150
 9825POPC   C1A68691  21.435  39.223   6.450
 9825POPC   D2A68692  21.430  39.191   6.750
 9825POPC   C3A68693  21.359  39.251   7.050
 9825POPC   C4A68694  21.373  39.189   7.350
 9825POPC   C1B68695  21.569  39.339   6.450
 9825POPC   C2B68696  21.545  39.431   6.750
 9825POPC   C3B68697  21.572  39.421   7.050
 9825POPC   C4B68698  21.545  39.361   7.350
 9826POPC   NC368699  29.929  22.944   5.550
 9826POPC   PO468700  29.904  22.969   5.850
 9826POPC   GL168701  29.927  22.987   6.150
 9826POPC   GL268702  30.023  23.030   6.150
 9826POPC   C1A68703  29.925  22.957   6.450
 9826POPC   D2A68704  29.965  22.891   6.750
 9826POPC   C3A68705  29.878  22.941   7.050
 9826POPC   C4A68706  29.878  22.897   7.350
 9826POPC   C1B68707  30.100  23.079   6.450
 9826POPC   C2B68708  30.100  23.076   6.750
 9826POPC   C3B68709  30.172  23.074   7.050
 9826POPC   C4B68710  30.140  23.072   7.350
 9827POPC   NC368711  20.644  25.281   5.550
 9827POPC   PO468712  20.618  25.262   5.850
 9827POPC   GL168713  20.576  25.302   6.150
 9827POPC   GL268714  20.724  25.337   6.150
 9827POPC   C1A68715  20.622  25.283   6.450
 9827POPC   D2A68716  20.573  25.244   6.750
 9827POPC   C3A68717  20.600  25.245   7.050
 9827POPC   C4A68718  20.650  25.289   7.350
 9827POPC   C1B68719  20.790  25.429   6.450
 9827POPC   C2B68720  20.763  25.368   6.750
 9827POPC   C3B68721  20.766  25.400   7.050
 9827POPC   C4B68722  20.811  25.408   7.350
 9828POPC   NC368723   5.100  19.846   5.550
 9828POPC   PO468724   5.140  19.855   5.850
 9828POPC   GL168725   5.125  19.787   6.150
 9828POPC   GL268726   5.100  19.918   6.150
 9828POPC   C1A68727   5.070  19.794   6.450
 9828POPC   D2A68728   5.098  19.876   6.750
 9828POPC   C3A68729   5.107  19.827   7.050
 9828POPC   C4A68730   5.139  19.864   7.350
 9828POPC   C1B68731   5.146  20.064   6.450
 9828POPC   C2B68732   5.093  20.047   6.750
 9828POPC   C3B68733   5.066  20.082   7.050
 9828POPC   C4B68734   5.120  20.124   7.350
 9829POPC   NC368735  43.121  36.097   5.550
 9829POPC   PO468736  43.084  36.078   5.850
 9829POPC   GL168737  43.100  36.122   6.150
 9829POPC   GL268738  43.071  36.289   6.150
 9829POPC   C1A68739  43.128  36.084   6.450
 9829POPC   D2A68740  43.115  36.138   6.750
 9829POPC   C3A68741  43.149  36.105   7.050
 9829POPC   C4A68742  43.151  36.154   7.350
 9829POPC   C1B68743  42.983  36.357   6.450
 9829POPC   C2B68744  42.968  36.367   6.750
 9829POPC   C3B68745  43.002  36.390   7.050
 9829POPC   C4B68746  43.015  36.361   7.350
 9830POPC   NC368747  22.924   2.765   5.550
 9830POPC   PO468748  22.932   2.793   5.850
 9830POPC   GL168749  22.982   2.727   6.150
 9830POPC   GL268750  22.884   2.673   6.150
 9830POPC   C1A68751  22.980   2.719   6.450
 9830POPC   D2A68752  22.985   2.773   6.750
 9830POPC   C3A68753  22.933   2.776   7.050
 9830POPC   C4A68754  22.982   2.718   7.350
 9830POPC   C1B68755  22.830   2.576   6.450
 9830POPC   C2B68756  22.786   2.568   6.750
 9830POPC   C3B68757  22.769   2.570   7.050
 9830POPC   C4B68758  22.852   2.601   7.350
 9831POPC   NC368759  35.400   1.963   5.550
 9831POPC   PO468760  35.309   2.006   5.850
 9831POPC   GL168761  35.364   2.018   6.150
 9831POPC   GL268762  35.317   2.162   6.150
 9831POPC   C1A68763  35.364   2.033   6.450
 9831POPC   D2A68764  35.398   1.991   6.750
 9831POPC   C3A68765  35.336   2.035   7.050
 9831POPC   C4A68766  35.376   1.979   7.350
 9831POPC   C1B68767  35.361   2.205   6.450
 9831POPC   C2B68768  35.414   2.259   6.750
 9831POPC   C3B68769  35.367   2.193   7.050
 9831POPC   C4B68770  35.401   2.277   7.350
 9832POPC   NC368771   5.888  20.603   5.550
 9832POPC   PO468772   5.884  20.622   5.850
 9832POPC   GL168773   5.821  20.590   6.150
 9832POPC   GL268774   6.013  20.613   6.150
 9832POPC   C1A68775   5.864  20.562   6.450
 9832POPC   D2A68776   5.854  20.627   6.750
 9832POPC   C3A68777   5.823  20.563   7.050
 9832POPC   C4A68778   5.848  20.593   7.350
 9832POPC   C1B68779   6.116  20.641   6.450
 9832POPC   C2B68780   6.144  20.728   6.750
 9832POPC   C3B68781   6.141  20.666   7.050
 9832POPC   C4B68782   6.134  20.693   7.350
 9833POPC   NC368783  37.658  34.578   5.550
 9833POPC   PO468784  37.659  34.578   5.850
 9833POPC   GL168785  37.643  34.618   6.150
 9833POPC   GL268786  37.759  34.546   6.150
 9833POPC   C1A68787  37.654  34.580   6.450
 9833POPC   D2A68788  37.691  34.592   6.750
 9833POPC   C3A68789  37.728  34.575   7.050
 9833POPC   C4A68790  37.669  34.539   7.350
 9833POPC   C1B68791  37.920  34.499   6.450
 9833POPC   C2B68792  37.949  34.538   6.750
 9833POPC   C3B68793  37.918  34.443   7.050
 9833POPC   C4B68794  37.912  34.469   7.350
 9834POPC   NC368795  22.186  19.035   5.550
 9834POPC   PO468796  22.163  19.099   5.850
 9834POPC   GL168797  22.183  19.065   6.150
 9834POPC   GL268798  22.142  19.178   6.150
 9834POPC   C1A68799  22.126  19.071   6.450
 9834POPC   D2A68800  22.208  19.054   6.750
 9834POPC   C3A68801  22.123  19.075   7.050
 9834POPC   C4A68802  22.177  19.102   7.350
 9834POPC   C1B68803  22.081  19.324   6.450
 9834POPC   C2B68804  22.066  19.258   6.750
 9834POPC   C3B68805  22.096  19.344   7.050
 9834POPC   C4B68806  22.064  19.259   7.350
 9835POPC   NC368807  21.370   8.942   5.550
 9835POPC   PO468808  21.338   8.954   5.850
 9835POPC   GL168809  21.359   8.957   6.150
 9835POPC   GL268810  21.280   9.054   6.150
 9835POPC   C1A68811  21.378   9.012   6.450
 9835POPC   D2A68812  21.393   8.949   6.750
 9835POPC   C3A68813  21.408   9.003   7.050
 9835POPC   C4A68814  21.360   8.987   7.350
 9835POPC   C1B68815  21.269   9.171   6.450
 9835POPC   C2B68816  21.201   9.206   6.750
 9835POPC   C3B68817  21.261   9.187   7.050
 9835POPC   C4B68818  21.241   9.221   7.350
 9836POPC   NC368819  43.896  18.269   5.550
 9836POPC   PO468820  43.862  18.245   5.850
 9836POPC   GL168821  43.917  18.241   6.150
 9836POPC   GL268822  43.834  18.395   6.150
 9836POPC   C1A68823  43.853  18.284   6.450
 9836POPC   D2A68824  43.935  18.273   6.750
 9836POPC   C3A68825  43.877  18.243   7.050
 9836POPC   C4A68826  43.852  18.316   7.350
 9836POPC   C1B68827  43.858  18.509   6.450
 9836POPC   C2B68828  43.835  18.556   6.750
 9836POPC   C3B68829  43.829  18.513   7.050
 9836POPC   C4B68830  43.813  18.489   7.350
 9837POPC   NC368831  39.183   0.400   5.550
 9837POPC   PO468832  39.197   0.408   5.850
 9837POPC   GL168833  39.197   0.448   6.150
 9837POPC   GL268834  39.104   0.320   6.150
 9837POPC   C1A68835  39.254   0.476   6.450
 9837POPC   D2A68836  39.183   0.442   6.750
 9837POPC   C3A68837  39.186   0.411   7.050
 9837POPC   C4A68838  39.263   0.388   7.350
 9837POPC   C1B68839  39.088   0.255   6.450
 9837POPC   C2B68840  39.015   0.220   6.750
 9837POPC   C3B68841  39.111   0.287   7.050
 9837POPC   C4B68842  39.092   0.285   7.350
 9838POPC   NC368843   9.772  34.541   5.550
 9838POPC   PO468844   9.789  34.598   5.850
 9838POPC   GL168845   9.713  34.549   6.150
 9838POPC   GL268846   9.639  34.480   6.150
 9838POPC   C1A68847   9.700  34.548   6.450
 9838POPC   D2A68848   9.741  34.545   6.750
 9838POPC   C3A68849   9.763  34.553   7.050
 9838POPC   C4A68850   9.753  34.575   7.350
 9838POPC   C1B68851   9.589  34.347   6.450
 9838POPC   C2B68852   9.584  34.422   6.750
 9838POPC   C3B68853   9.635  34.358   7.050
 9838POPC   C4B68854   9.559  34.343   7.350
 9839POPC   NC368855  13.618  21.397   5.550
 9839POPC   PO468856  13.642  21.337   5.850
 9839POPC   GL168857  13.638  21.337   6.150
 9839POPC   GL268858  13.507  21.516   6.150
 9839POPC   C1A68859  13.631  21.408   6.450
 9839POPC   D2A68860  13.623  21.412   6.750
 9839POPC   C3A68861  13.627  21.379   7.050
 9839POPC   C4A68862  13.641  21.402   7.350
 9839POPC   C1B68863  13.510  21.570   6.450
 9839POPC   C2B68864  13.522  21.613   6.750
 9839POPC   C3B68865  13.449  21.600   7.050
 9839POPC   C4B68866  13.457  21.580   7.350
 9840POPC   NC368867  21.376  14.395   5.550
 9840POPC   PO468868  21.345  14.422   5.850
 9840POPC   GL168869  21.427  14.452   6.150
 9840POPC   GL268870  21.362  14.476   6.150
 9840POPC   C1A68871  21.425  14.444   6.450
 9840POPC   D2A68872  21.363  14.391   6.750
 9840POPC   C3A68873  21.356  14.407   7.050
 9840POPC   C4A68874  21.414  14.387   7.350
 9840POPC   C1B68875  21.283  14.634   6.450
 9840POPC   C2B68876  21.265  14.607   6.750
 9840POPC   C3B68877  21.312  14.599   7.050
 9840POPC   C4B68878  21.291  14.622   7.350
 9841POPC   NC368879  12.034  21.349   5.550
 9841POPC   PO468880  12.079  21.392   5.850
 9841POPC   GL168881  12.093  21.372   6.150
 9841POPC   GL268882  12.051  21.544   6.150
 9841POPC   C1A68883  12.070  21.371   6.450
 9841POPC   D2A68884  12.029  21.341   6.750
 9841POPC   C3A68885  12.069  21.436   7.050
 9841POPC   C4A68886  12.031  21.378   7.350
 9841POPC   C1B68887  12.004  21.624   6.450
 9841POPC   C2B68888  12.026  21.606   6.750
 9841POPC   C3B68889  12.050  21.604   7.050
 9841POPC   C4B68890  12.072  21.591   7.350
 9842POPC   NC368891  18.309  38.462   5.550
 9842POPC   PO468892  18.315  38.419   5.850
 9842POPC   GL168893  18.243  38.414   6.150
 9842POPC   GL268894  18.197  38.469   6.150
 9842POPC   C1A68895  18.289  38.462   6.450
 9842POPC   D2A68896  18.252  38.467   6.750
 9842POPC   C3A68897  18.264  38.499   7.050
 9842POPC   C4A68898  18.254  38.434   7.350
 9842POPC   C1B68899  18.042  38.454   6.450
 9842POPC   C2B68900  18.061  38.455   6.750
 9842POPC   C3B68901  18.064  38.464   7.050
 9842POPC   C4B68902  17.993  38.450   7.350
 9843POPC   NC368903  30.705   9.014   5.550
 9843POPC   PO468904  30.731   8.945   5.850
 9843POPC   GL168905  30.662   8.972   6.150
 9843POPC   GL268906  30.579   8.944   6.150
 9843POPC   C1A68907  30.739   9.022   6.450
 9843POPC   D2A68908  30.724   8.946   6.750
 9843POPC   C3A68909  30.659   8.939   7.050
 9843POPC   C4A68910  30.736   8.940   7.350
 9843POPC   C1B68911  30.483   8.875   6.450
 9843POPC   C2B68912  30.434   8.811   6.750
 9843POPC   C3B68913  30.441   8.877   7.050
 9843POPC   C4B68914  30.466   8.867   7.350
 9844POPC   NC368915  19.809  35.336   5.550
 9844POPC   PO468916  19.865  35.384   5.850
 9844POPC   GL168917  19.823  35.362   6.150
 9844POPC   GL268918  19.978  35.340   6.150
 9844POPC   C1A68919  19.870  35.356   6.450
 9844POPC   D2A68920  19.880  35.379   6.750
 9844POPC   C3A68921  19.870  35.304   7.050
 9844POPC   C4A68922  19.843  35.393   7.350
 9844POPC   C1B68923  20.094  35.388   6.450
 9844POPC   C2B68924  20.133  35.389   6.750
 9844POPC   C3B68925  20.109  35.367   7.050
 9844POPC   C4B68926  20.117  35.365   7.350
 9845POPC   NC368927   1.206  42.318   5.550
 9845POPC   PO468928   1.229  42.350   5.850
 9845POPC   GL168929   1.169  42.380   6.150
 9845POPC   GL268930   1.161  42.190   6.150
 9845POPC   C1A68931   1.214  42.322   6.450
 9845POPC   D2A68932   1.185  42.292   6.750
 9845POPC   C3A68933   1.198  42.360   7.050
 9845POPC   C4A68934   1.200  42.315   7.350
 9845POPC   C1B68935   1.067  42.125   6.450
 9845POPC   C2B68936   1.093  42.119   6.750
 9845POPC   C3B68937   1.101  42.139   7.050
 9845POPC   C4B68938   1.010  42.116   7.350
 9846POPC   NC368939  11.348  16.769   5.550
 9846POPC   PO468940  11.280  16.756   5.850
 9846POPC   GL168941  11.280  16.743   6.150
 9846POPC   GL268942  11.353  16.847   6.150
 9846POPC   C1A68943  11.327  16.684   6.450
 9846POPC   D2A68944  11.253  16.718   6.750
 9846POPC   C3A68945  11.256  16.780   7.050
 9846POPC   C4A68946  11.329  16.706   7.350
 9846POPC   C1B68947  11.427  16.898   6.450
 9846POPC   C2B68948  11.447  16.951   6.750
 9846POPC   C3B68949  11.416  16.974   7.050
 9846POPC   C4B68950  11.435  16.890   7.350
 9847POPC   NC368951   6.634  36.937   5.550
 9847POPC   PO468952   6.642  36.878   5.850
 9847POPC   GL168953   6.626  36.866   6.150
 9847POPC   GL268954   6.711  37.004   6.150
 9847POPC   C1A68955   6.597  36.873   6.450
 9847POPC   D2A68956   6.674  36.858   6.750
 9847POPC   C3A68957   6.660  36.882   7.050
 9847POPC   C4A68958   6.602  36.855   7.350
 9847POPC   C1B68959   6.729  37.091   6.450
 9847POPC   C2B68960   6.712  37.118   6.750
 9847POPC   C3B68961   6.756  37.148   7.050
 9847POPC   C4B68962   6.699  37.130   7.350
 9848POPC   NC368963   5.108  41.572   5.550
 9848POPC   PO468964   5.086  41.597   5.850
 9848POPC   GL168965   5.107  41.544   6.150
 9848POPC   GL268966   5.147  41.658   6.150
 9848POPC   C1A68967   5.086  41.562   6.450
 9848POPC   D2A68968   5.091  41.598   6.750
 9848POPC   C3A68969   5.099  41.531   7.050
 9848POPC   C4A68970   5.086  41.534   7.350
 9848POPC   C1B68971   5.253  41.811   6.450
 9848POPC   C2B68972   5.234  41.736   6.750
 9848POPC   C3B68973   5.237  41.749   7.050
 9848POPC   C4B68974   5.179  41.781   7.350
 9849POPC   NC368975   4.332   2.784   5.550
 9849POPC   PO468976   4.317   2.785   5.850
 9849POPC   GL168977   4.319   2.751   6.150
 9849POPC   GL268978   4.418   2.819   6.150
 9849POPC   C1A68979   4.346   2.813   6.450
 9849POPC   D2A68980   4.319   2.814   6.750
 9849POPC   C3A68981   4.295   2.721   7.050
 9849POPC   C4A68982   4.316   2.786   7.350
 9849POPC   C1B68983   4.505   2.986   6.450
 9849POPC   C2B68984   4.540   2.893   6.750
 9849POPC   C3B68985   4.463   2.927   7.050
 9849POPC   C4B68986   4.484   2.905   7.350
 9850POPC   NC368987  27.604  40.816   5.550
 9850POPC   PO468988  27.550  40.819   5.850
 9850POPC   GL168989  27.560  40.741   6.150
 9850POPC   GL268990  27.696  40.825   6.150
 9850POPC   C1A68991  27.571  40.816   6.450
 9850POPC   D2A68992  27.592  40.817   6.750
 9850POPC   C3A68993  27.629  40.779   7.050
 9850POPC   C4A68994  27.565  40.804   7.350
 9850POPC   C1B68995  27.874  40.836   6.450
 9850POPC   C2B68996  27.792  40.834   6.750
 9850POPC   C3B68997  27.813  40.842   7.050
 9850POPC   C4B68998  27.865  40.770   7.350
 9851POPC   NC368999  29.135  35.370   5.550
 9851POPC   PO469000  29.112  35.365   5.850
 9851POPC   GL169001  29.114  35.392   6.150
 9851POPC   GL269002  29.163  35.525   6.150
 9851POPC   C1A69003  29.165  35.378   6.450
 9851POPC   D2A69004  29.107  35.401   6.750
 9851POPC   C3A69005  29.160  35.320   7.050
 9851POPC   C4A69006  29.099  35.381   7.350
 9851POPC   C1B69007  29.187  35.629   6.450
 9851POPC   C2B69008  29.196  35.625   6.750
 9851POPC   C3B69009  29.117  35.615   7.050
 9851POPC   C4B69010  29.189  35.588   7.350
 9852POPC   NC369011  25.239   0.470   5.550
 9852POPC   PO469012  25.284   0.415   5.850
 9852POPC   GL169013  25.264   0.421   6.150
 9852POPC   GL269014  25.196   0.531   6.150
 9852POPC   C1A69015  25.219   0.470   6.450
 9852POPC   D2A69016  25.260   0.438   6.750
 9852POPC   C3A69017  25.233   0.453   7.050
 9852POPC   C4A69018  25.304   0.473   7.350
 9852POPC   C1B69019  25.047   0.647   6.450
 9852POPC   C2B69020  25.114   0.570   6.750
 9852POPC   C3B69021  25.057   0.571   7.050
 9852POPC   C4B69022  25.067   0.630   7.350
 9853POPC   NC369023   0.434  29.913   5.550
 9853POPC   PO469024   0.395  29.934   5.850
 9853POPC   GL169025   0.421  29.905   6.150
 9853POPC   GL269026   0.408  30.043   6.150
 9853POPC   C1A69027   0.464  29.875   6.450
 9853POPC   D2A69028   0.437  29.967   6.750
 9853POPC   C3A69029   0.441  29.926   7.050
 9853POPC   C4A69030   0.449  29.914   7.350
 9853POPC   C1B69031   0.345  30.128   6.450
 9853POPC   C2B69032   0.313  30.121   6.750
 9853POPC   C3B69033   0.262  30.085   7.050
 9853POPC   C4B69034   0.283  30.160   7.350
 9854POPC   NC369035  33.018  24.526   5.550
 9854POPC   PO469036  33.048  24.508   5.850
 9854POPC   GL169037  33.035  24.533   6.150
 9854POPC   GL269038  33.068  24.563   6.150
 9854POPC   C1A69039  33.036  24.453   6.450
 9854POPC   D2A69040  33.035  24.515   6.750
 9854POPC   C3A69041  33.041  24.446   7.050
 9854POPC   C4A69042  33.039  24.537   7.350
 9854POPC   C1B69043  33.094  24.710   6.450
 9854POPC   C2B69044  33.058  24.686   6.750
 9854POPC   C3B69045  33.029  24.696   7.050
 9854POPC   C4B69046  33.104  24.778   7.350
 9855POPC   NC369047  25.285  17.497   5.550
 9855POPC   PO469048  25.293  17.532   5.850
 9855POPC   GL169049  25.277  17.490   6.150
 9855POPC   GL269050  25.278  17.625   6.150
 9855POPC   C1A69051  25.275  17.533   6.450
 9855POPC   D2A69052  25.266  17.547   6.750
 9855POPC   C3A69053  25.227  17.536   7.050
 9855POPC   C4A69054  25.297  17.471   7.350
 9855POPC   C1B69055  25.387  17.774   6.450
 9855POPC   C2B69056  25.341  17.790   6.750
 9855POPC   C3B69057  25.367  17.758   7.050
 9855POPC   C4B69058  25.314  17.749   7.350
 9856POPC   NC369059  40.003  40.032   5.550
 9856POPC   PO469060  40.005  39.982   5.850
 9856POPC   GL169061  39.962  40.008   6.150
 9856POPC   GL269062  40.106  39.916   6.150
 9856POPC   C1A69063  39.970  40.053   6.450
 9856POPC   D2A69064  40.021  39.992   6.750
 9856POPC   C3A69065  39.992  39.980   7.050
 9856POPC   C4A69066  40.038  40.051   7.350
 9856POPC   C1B69067  40.226  39.850   6.450
 9856POPC   C2B69068  40.162  39.836   6.750
 9856POPC   C3B69069  40.233  39.837   7.050
 9856POPC   C4B69070  40.195  39.870   7.350
 9857POPC   NC369071  15.963  10.517   5.550
 9857POPC   PO469072  15.982  10.518   5.850
 9857POPC   GL169073  15.950  10.531   6.150
 9857POPC   GL269074  16.038  10.564   6.150
 9857POPC   C1A69075  15.996  10.527   6.450
 9857POPC   D2A69076  15.910  10.542   6.750
 9857POPC   C3A69077  15.923  10.521   7.050
 9857POPC   C4A69078  15.911  10.512   7.350
 9857POPC   C1B69079  16.159  10.608   6.450
 9857POPC   C2B69080  16.208  10.601   6.750
 9857POPC   C3B69081  16.194  10.583   7.050
 9857POPC   C4B69082  16.180  10.625   7.350
 9858POPC   NC369083  43.899   3.509   5.550
 9858POPC   PO469084  43.849   3.552   5.850
 9858POPC   GL169085  43.926   3.502   6.150
 9858POPC   GL269086  43.809   3.686   6.150
 9858POPC   C1A69087  43.884   3.567   6.450
 9858POPC   D2A69088  43.887   3.496   6.750
 9858POPC   C3A69089  43.905   3.498   7.050
 9858POPC   C4A69090  43.851   3.569   7.350
 9858POPC   C1B69091  43.813   3.760   6.450
 9858POPC   C2B69092  43.793   3.821   6.750
 9858POPC   C3B69093  43.871   3.812   7.050
 9858POPC   C4B69094  43.836   3.801   7.350
 9859POPC   NC369095   3.549  25.314   5.550
 9859POPC   PO469096   3.545  25.224   5.850
 9859POPC   GL169097   3.522  25.221   6.150
 9859POPC   GL269098   3.454  25.297   6.150
 9859POPC   C1A69099   3.521  25.280   6.450
 9859POPC   D2A69100   3.564  25.231   6.750
 9859POPC   C3A69101   3.520  25.217   7.050
 9859POPC   C4A69102   3.543  25.262   7.350
 9859POPC   C1B69103   3.348  25.391   6.450
 9859POPC   C2B69104   3.292  25.414   6.750
 9859POPC   C3B69105   3.348  25.426   7.050
 9859POPC   C4B69106   3.354  25.421   7.350
 9860POPC   NC369107   6.631  26.814   5.550
 9860POPC   PO469108   6.633  26.867   5.850
 9860POPC   GL169109   6.642  26.813   6.150
 9860POPC   GL269110   6.684  26.938   6.150
 9860POPC   C1A69111   6.636  26.850   6.450
 9860POPC   D2A69112   6.656  26.856   6.750
 9860POPC   C3A69113   6.690  26.856   7.050
 9860POPC   C4A69114   6.601  26.787   7.350
 9860POPC   C1B69115   6.647  27.111   6.450
 9860POPC   C2B69116   6.668  27.109   6.750
 9860POPC   C3B69117   6.690  27.054   7.050
 9860POPC   C4B69118   6.629  27.097   7.350
 9861POPC   NC369119  25.262  28.321   5.550
 9861POPC   PO469120  25.243  28.349   5.850
 9861POPC   GL169121  25.250  28.323   6.150
 9861POPC   GL269122  25.350  28.425   6.150
 9861POPC   C1A69123  25.273  28.409   6.450
 9861POPC   D2A69124  25.253  28.411   6.750
 9861POPC   C3A69125  25.257  28.358   7.050
 9861POPC   C4A69126  25.229  28.348   7.350
 9861POPC   C1B69127  25.407  28.531   6.450
 9861POPC   C2B69128  25.431  28.514   6.750
 9861POPC   C3B69129  25.455  28.569   7.050
 9861POPC   C4B69130  25.481  28.557   7.350
 9862POPC   NC369131  22.134  17.532   5.550
 9862POPC   PO469132  22.166  17.476   5.850
 9862POPC   GL169133  22.184  17.474   6.150
 9862POPC   GL269134  22.202  17.447   6.150
 9862POPC   C1A69135  22.129  17.537   6.450
 9862POPC   D2A69136  22.139  17.477   6.750
 9862POPC   C3A69137  22.184  17.497   7.050
 9862POPC   C4A69138  22.123  17.552   7.350
 9862POPC   C1B69139  22.330  17.299   6.450
 9862POPC   C2B69140  22.339  17.309   6.750
 9862POPC   C3B69141  22.294  17.327   7.050
 9862POPC   C4B69142  22.321  17.353   7.350
 9863POPC   NC369143  28.374  21.373   5.550
 9863POPC   PO469144  28.407  21.408   5.850
 9863POPC   GL169145  28.403  21.376   6.150
 9863POPC   GL269146  28.298  21.314   6.150
 9863POPC   C1A69147  28.402  21.353   6.450
 9863POPC   D2A69148  28.380  21.415   6.750
 9863POPC   C3A69149  28.399  21.384   7.050
 9863POPC   C4A69150  28.349  21.381   7.350
 9863POPC   C1B69151  28.283  21.148   6.450
 9863POPC   C2B69152  28.257  21.116   6.750
 9863POPC   C3B69153  28.252  21.156   7.050
 9863POPC   C4B69154  28.323  21.144   7.350
 9864POPC   NC369155  34.581  29.912   5.550
 9864POPC   PO469156  34.618  29.877   5.850
 9864POPC   GL169157  34.612  29.908   6.150
 9864POPC   GL269158  34.496  29.797   6.150
 9864POPC   C1A69159  34.622  29.899   6.450
 9864POPC   D2A69160  34.543  29.929   6.750
 9864POPC   C3A69161  34.586  29.943   7.050
 9864POPC   C4A69162  34.535  29.943   7.350
 9864POPC   C1B69163  34.528  29.656   6.450
 9864POPC   C2B69164  34.482  29.723   6.750
 9864POPC   C3B69165  34.499  29.730   7.050
 9864POPC   C4B69166  34.524  29.672   7.350
 9865POPC   NC369167  44.650  24.449   5.550
 9865POPC   PO469168  44.702  24.472   5.850
 9865POPC   GL169169  44.638  24.510   6.150
 9865POPC   GL269170  44.710  24.558   6.150
 9865POPC   C1A69171  44.701  24.445   6.450
 9865POPC   D2A69172  44.701  24.491   6.750
 9865POPC   C3A69173  44.647  24.534   7.050
 9865POPC   C4A69174  44.703  24.523   7.350
 9865POPC   C1B69175  44.830  24.671   6.450
 9865POPC   C2B69176  44.808  24.697   6.750
 9865POPC   C3B69177  44.891  24.617   7.050
 9865POPC   C4B69178  44.816  24.618   7.350
 9866POPC   NC369179  15.206  38.461   5.550
 9866POPC   PO469180  15.194  38.465   5.850
 9866POPC   GL169181  15.166  38.485   6.150
 9866POPC   GL269182  15.129  38.518   6.150
 9866POPC   C1A69183  15.193  38.487   6.450
 9866POPC   D2A69184  15.207  38.490   6.750
 9866POPC   C3A69185  15.184  38.450   7.050
 9866POPC   C4A69186  15.148  38.493   7.350
 9866POPC   C1B69187  15.091  38.681   6.450
 9866POPC   C2B69188  15.097  38.689   6.750
 9866POPC   C3B69189  15.104  38.722   7.050
 9866POPC   C4B69190  15.077  38.671   7.350
 9867POPC   NC369191   8.948  26.799   5.550
 9867POPC   PO469192   8.971  26.850   5.850
 9867POPC   GL169193   8.934  26.865   6.150
 9867POPC   GL269194   8.815  26.747   6.150
 9867POPC   C1A69195   8.928  26.768   6.450
 9867POPC   D2A69196   8.999  26.838   6.750
 9867POPC   C3A69197   8.990  26.838   7.050
 9867POPC   C4A69198   8.965  26.821   7.350
 9867POPC   C1B69199   8.765  26.729   6.450
 9867POPC   C2B69200   8.747  26.705   6.750
 9867POPC   C3B69201   8.691  26.702   7.050
 9867POPC   C4B69202   8.759  26.719   7.350
 9868POPC   NC369203  20.628  39.232   5.550
 9868POPC   PO469204  20.589  39.258   5.850
 9868POPC   GL169205  20.613  39.235   6.150
 9868POPC   GL269206  20.495  39.158   6.150
 9868POPC   C1A69207  20.567  39.235   6.450
 9868POPC   D2A69208  20.618  39.280   6.750
 9868POPC   C3A69209  20.577  39.245   7.050
 9868POPC   C4A69210  20.568  39.273   7.350
 9868POPC   C1B69211  20.423  39.084   6.450
 9868POPC   C2B69212  20.457  39.034   6.750
 9868POPC   C3B69213  20.437  39.031   7.050
 9868POPC   C4B69214  20.487  39.020   7.350
 9869POPC   NC369215  29.130  21.391   5.550
 9869POPC   PO469216  29.099  21.388   5.850
 9869POPC   GL169217  29.099  21.347   6.150
 9869POPC   GL269218  29.059  21.453   6.150
 9869POPC   C1A69219  29.098  21.426   6.450
 9869POPC   D2A69220  29.187  21.433   6.750
 9869POPC   C3A69221  29.155  21.350   7.050
 9869POPC   C4A69222  29.118  21.428   7.350
 9869POPC   C1B69223  29.016  21.583   6.450
 9869POPC   C2B69224  29.045  21.591   6.750
 9869POPC   C3B69225  29.035  21.613   7.050
 9869POPC   C4B69226  29.004  21.591   7.350
 9870POPC   NC369227  19.010   5.863   5.550
 9870POPC   PO469228  19.059   5.913   5.850
 9870POPC   GL169229  19.077   5.853   6.150
 9870POPC   GL269230  19.123   5.959   6.150
 9870POPC   C1A69231  19.090   5.909   6.450
 9870POPC   D2A69232  19.106   5.879   6.750
 9870POPC   C3A69233  19.102   5.839   7.050
 9870POPC   C4A69234  19.049   5.830   7.350
 9870POPC   C1B69235  19.307   5.947   6.450
 9870POPC   C2B69236  19.311   5.966   6.750
 9870POPC   C3B69237  19.268   6.010   7.050
 9870POPC   C4B69238  19.294   6.010   7.350
 9871POPC   NC369239  21.434  43.853   5.550
 9871POPC   PO469240  21.423  43.935   5.850
 9871POPC   GL169241  21.431  43.849   6.150
 9871POPC   GL269242  21.341  43.967   6.150
 9871POPC   C1A69243  21.399  43.899   6.450
 9871POPC   D2A69244  21.349  43.883   6.750
 9871POPC   C3A69245  21.378  43.925   7.050
 9871POPC   C4A69246  21.371  43.923   7.350
 9871POPC   C1B69247  21.254  44.081   6.450
 9871POPC   C2B69248  21.284  44.055   6.750
 9871POPC   C3B69249  21.246  44.116   7.050
 9871POPC   C4B69250  21.248  44.142   7.350
 9872POPC   NC369251  12.847  30.701   5.550
 9872POPC   PO469252  12.834  30.696   5.850
 9872POPC   GL169253  12.874  30.672   6.150
 9872POPC   GL269254  12.763  30.760   6.150
 9872POPC   C1A69255  12.836  30.659   6.450
 9872POPC   D2A69256  12.816  30.656   6.750
 9872POPC   C3A69257  12.852  30.654   7.050
 9872POPC   C4A69258  12.819  30.719   7.350
 9872POPC   C1B69259  12.627  30.821   6.450
 9872POPC   C2B69260  12.593  30.824   6.750
 9872POPC   C3B69261  12.665  30.864   7.050
 9872POPC   C4B69262  12.597  30.824   7.350
 9873POPC   NC369263   6.629  19.805   5.550
 9873POPC   PO469264   6.616  19.806   5.850
 9873POPC   GL169265   6.608  19.788   6.150
 9873POPC   GL269266   6.497  19.840   6.150
 9873POPC   C1A69267   6.676  19.809   6.450
 9873POPC   D2A69268   6.691  19.794   6.750
 9873POPC   C3A69269   6.639  19.810   7.050
 9873POPC   C4A69270   6.603  19.799   7.350
 9873POPC   C1B69271   6.422  19.793   6.450
 9873POPC   C2B69272   6.353  19.788   6.750
 9873POPC   C3B69273   6.411  19.817   7.050
 9873POPC   C4B69274   6.384  19.815   7.350
 9874POPC   NC369275  27.584  37.711   5.550
 9874POPC   PO469276  27.618  37.646   5.850
 9874POPC   GL169277  27.623  37.652   6.150
 9874POPC   GL269278  27.546  37.512   6.150
 9874POPC   C1A69279  27.603  37.676   6.450
 9874POPC   D2A69280  27.581  37.691   6.750
 9874POPC   C3A69281  27.622  37.665   7.050
 9874POPC   C4A69282  27.584  37.646   7.350
 9874POPC   C1B69283  27.584  37.431   6.450
 9874POPC   C2B69284  27.573  37.426   6.750
 9874POPC   C3B69285  27.596  37.384   7.050
 9874POPC   C4B69286  27.588  37.391   7.350
 9875POPC   NC369287  40.748  18.237   5.550
 9875POPC   PO469288  40.795  18.308   5.850
 9875POPC   GL169289  40.736  18.298   6.150
 9875POPC   GL269290  40.686  18.359   6.150
 9875POPC   C1A69291  40.795  18.255   6.450
 9875POPC   D2A69292  40.810  18.295   6.750
 9875POPC   C3A69293  40.748  18.252   7.050
 9875POPC   C4A69294  40.735  18.298   7.350
 9875POPC   C1B69295  40.559  18.298   6.450
 9875POPC   C2B69296  40.531  18.390   6.750
 9875POPC   C3B69297  40.581  18.311   7.050
 9875POPC   C4B69298  40.519  18.304   7.350
 9876POPC   NC369299  34.550  44.641   5.550
 9876POPC   PO469300  34.612  44.659   5.850
 9876POPC   GL169301  34.614  44.686   6.150
 9876POPC   GL269302  34.727  44.621   6.150
 9876POPC   C1A69303  34.535  44.623   6.450
 9876POPC   D2A69304  34.534  44.627   6.750
 9876POPC   C3A69305  34.537  44.698   7.050
 9876POPC   C4A69306  34.531  44.681   7.350
 9876POPC   C1B69307  34.785  44.587   6.450
 9876POPC   C2B69308  34.763  44.532   6.750
 9876POPC   C3B69309  34.789  44.583   7.050
 9876POPC   C4B69310  34.833  44.577   7.350
 9877POPC   NC369311  36.162  11.333   5.550
 9877POPC   PO469312  36.168  11.321   5.850
 9877POPC   GL169313  36.170  11.317   6.150
 9877POPC   GL269314  36.034  11.223   6.150
 9877POPC   C1A69315  36.126  11.346   6.450
 9877POPC   D2A69316  36.144  11.293   6.750
 9877POPC   C3A69317  36.128  11.257   7.050
 9877POPC   C4A69318  36.078  11.266   7.350
 9877POPC   C1B69319  35.910  11.198   6.450
 9877POPC   C2B69320  35.931  11.228   6.750
 9877POPC   C3B69321  35.927  11.206   7.050
 9877POPC   C4B69322  35.933  11.174   7.350
 9878POPC   NC369323  15.965   5.084   5.550
 9878POPC   PO469324  15.945   5.116   5.850
 9878POPC   GL169325  15.980   5.092   6.150
 9878POPC   GL269326  15.933   4.980   6.150
 9878POPC   C1A69327  15.986   5.044   6.450
 9878POPC   D2A69328  15.985   5.055   6.750
 9878POPC   C3A69329  15.967   5.062   7.050
 9878POPC   C4A69330  15.941   5.076   7.350
 9878POPC   C1B69331  15.953   4.840   6.450
 9878POPC   C2B69332  15.997   4.816   6.750
 9878POPC   C3B69333  16.012   4.847   7.050
 9878POPC   C4B69334  16.037   4.832   7.350
 9879POPC   NC369335   1.965  26.862   5.550
 9879POPC   PO469336   2.015  26.828   5.850
 9879POPC   GL169337   1.963  26.816   6.150
 9879POPC   GL269338   1.869  26.703   6.150
 9879POPC   C1A69339   2.015  26.773   6.450
 9879POPC   D2A69340   2.026  26.848   6.750
 9879POPC   C3A69341   1.999  26.812   7.050
 9879POPC   C4A69342   1.978  26.815   7.350
 9879POPC   C1B69343   1.834  26.685   6.450
 9879POPC   C2B69344   1.777  26.640   6.750
 9879POPC   C3B69345   1.753  26.669   7.050
 9879POPC   C4B69346   1.829  26.664   7.350
 9880POPC   NC369347  13.641  19.090   5.550
 9880POPC   PO469348  13.675  19.019   5.850
 9880POPC   GL169349  13.646  19.018   6.150
 9880POPC   GL269350  13.509  19.133   6.150
 9880POPC   C1A69351  13.585  19.099   6.450
 9880POPC   D2A69352  13.671  19.088   6.750
 9880POPC   C3A69353  13.661  19.038   7.050
 9880POPC   C4A69354  13.608  19.020   7.350
 9880POPC   C1B69355  13.434  19.244   6.450
 9880POPC   C2B69356  13.427  19.213   6.750
 9880POPC   C3B69357  13.402  19.165   7.050
 9880POPC   C4B69358  13.447  19.184   7.350
 9881POPC   NC369359  36.167   1.998   5.550
 9881POPC   PO469360  36.135   2.027   5.850
 9881POPC   GL169361  36.156   1.978   6.150
 9881POPC   GL269362  36.167   1.901   6.150
 9881POPC   C1A69363  36.157   1.972   6.450
 9881POPC   D2A69364  36.118   1.950   6.750
 9881POPC   C3A69365  36.119   2.010   7.050
 9881POPC   C4A69366  36.079   2.023   7.350
 9881POPC   C1B69367  36.067   1.763   6.450
 9881POPC   C2B69368  36.096   1.785   6.750
 9881POPC   C3B69369  36.145   1.711   7.050
 9881POPC   C4B69370  36.060   1.725   7.350
 9882POPC   NC369371  26.850  42.314   5.550
 9882POPC   PO469372  26.781  42.365   5.850
 9882POPC   GL169373  26.790  42.298   6.150
 9882POPC   GL269374  26.899  42.429   6.150
 9882POPC   C1A69375  26.777  42.381   6.450
 9882POPC   D2A69376  26.793  42.319   6.750
 9882POPC   C3A69377  26.781  42.375   7.050
 9882POPC   C4A69378  26.809  42.381   7.350
 9882POPC   C1B69379  26.891  42.525   6.450
 9882POPC   C2B69380  26.875  42.553   6.750
 9882POPC   C3B69381  26.959  42.589   7.050
 9882POPC   C4B69382  26.870  42.524   7.350
 9883POPC   NC369383  44.708  36.147   5.550
 9883POPC   PO469384  44.630  36.152   5.850
 9883POPC   GL169385  44.655  36.106   6.150
 9883POPC   GL269386  44.586  36.048   6.150
 9883POPC   C1A69387  44.657  36.130   6.450
 9883POPC   D2A69388  44.635  36.142   6.750
 9883POPC   C3A69389  44.707  36.165   7.050
 9883POPC   C4A69390  44.682  36.169   7.350
 9883POPC   C1B69391  44.515  35.908   6.450
 9883POPC   C2B69392  44.551  35.915   6.750
 9883POPC   C3B69393  44.511  35.945   7.050
 9883POPC   C4B69394  44.495  35.957   7.350
 9884POPC   NC369395   3.508   4.364   5.550
 9884POPC   PO469396   3.560   4.283   5.850
 9884POPC   GL169397   3.566   4.323   6.150
 9884POPC   GL269398   3.565   4.242   6.150
 9884POPC   C1A69399   3.576   4.361   6.450
 9884POPC   D2A69400   3.583   4.316   6.750
 9884POPC   C3A69401   3.533   4.346   7.050
 9884POPC   C4A69402   3.514   4.350   7.350
 9884POPC   C1B69403   3.649   4.111   6.450
 9884POPC   C2B69404   3.625   4.037   6.750
 9884POPC   C3B69405   3.650   4.135   7.050
 9884POPC   C4B69406   3.625   4.037   7.350
 9885POPC   NC369407  44.696  20.568   5.550
 9885POPC   PO469408  44.656  20.604   5.850
 9885POPC   GL169409  44.623  20.644   6.150
 9885POPC   GL269410  44.746  20.654   6.150
 9885POPC   C1A69411  44.630  20.580   6.450
 9885POPC   D2A69412  44.639  20.590   6.750
 9885POPC   C3A69413  44.618  20.563   7.050
 9885POPC   C4A69414  44.684  20.618   7.350
 9885POPC   C1B69415  44.849  20.725   6.450
 9885POPC   C2B69416  44.878  20.717   6.750
 9885POPC   C3B69417  44.866  20.767   7.050
 9885POPC   C4B69418  44.925  20.759   7.350
 9886POPC   NC369419   8.972  16.779   5.550
 9886POPC   PO469420   8.937  16.684   5.850
 9886POPC   GL169421   8.941  16.735   6.150
 9886POPC   GL269422   8.959  16.826   6.150
 9886POPC   C1A69423   8.988  16.761   6.450
 9886POPC   D2A69424   8.987  16.761   6.750
 9886POPC   C3A69425   8.997  16.734   7.050
 9886POPC   C4A69426   8.933  16.694   7.350
 9886POPC   C1B69427   8.921  17.021   6.450
 9886POPC   C2B69428   8.870  16.932   6.750
 9886POPC   C3B69429   8.937  16.937   7.050
 9886POPC   C4B69430   8.963  16.960   7.350
 9887POPC   NC369431   9.765  41.588   5.550
 9887POPC   PO469432   9.713  41.581   5.850
 9887POPC   GL169433   9.732  41.516   6.150
 9887POPC   GL269434   9.698  41.450   6.150
 9887POPC   C1A69435   9.699  41.590   6.450
 9887POPC   D2A69436   9.746  41.590   6.750
 9887POPC   C3A69437   9.701  41.582   7.050
 9887POPC   C4A69438   9.752  41.524   7.350
 9887POPC   C1B69439   9.688  41.284   6.450
 9887POPC   C2B69440   9.764  41.278   6.750
 9887POPC   C3B69441   9.710  41.306   7.050
 9887POPC   C4B69442   9.735  41.287   7.350
 9888POPC   NC369443  22.205  42.358   5.550
 9888POPC   PO469444  22.167  42.384   5.850
 9888POPC   GL169445  22.185  42.383   6.150
 9888POPC   GL269446  22.125  42.232   6.150
 9888POPC   C1A69447  22.171  42.365   6.450
 9888POPC   D2A69448  22.183  42.307   6.750
 9888POPC   C3A69449  22.174  42.303   7.050
 9888POPC   C4A69450  22.135  42.288   7.350
 9888POPC   C1B69451  22.045  42.139   6.450
 9888POPC   C2B69452  22.047  42.132   6.750
 9888POPC   C3B69453  22.034  42.162   7.050
 9888POPC   C4B69454  21.991  42.179   7.350
 9889POPC   NC369455   3.520  38.503   5.550
 9889POPC   PO469456   3.556  38.475   5.850
 9889POPC   GL169457   3.552  38.416   6.150
 9889POPC   GL269458   3.458  38.539   6.150
 9889POPC   C1A69459   3.501  38.461   6.450
 9889POPC   D2A69460   3.493  38.470   6.750
 9889POPC   C3A69461   3.495  38.416   7.050
 9889POPC   C4A69462   3.525  38.479   7.350
 9889POPC   C1B69463   3.381  38.709   6.450
 9889POPC   C2B69464   3.363  38.713   6.750
 9889POPC   C3B69465   3.393  38.653   7.050
 9889POPC   C4B69466   3.439  38.651   7.350
 9890POPC   NC369467   9.018  37.667   5.550
 9890POPC   PO469468   8.996  37.695   5.850
 9890POPC   GL169469   8.988  37.646   6.150
 9890POPC   GL269470   8.918  37.779   6.150
 9890POPC   C1A69471   8.935  37.709   6.450
 9890POPC   D2A69472   9.011  37.685   6.750
 9890POPC   C3A69473   9.012  37.687   7.050
 9890POPC   C4A69474   8.946  37.651   7.350
 9890POPC   C1B69475   8.896  37.867   6.450
 9890POPC   C2B69476   8.856  37.854   6.750
 9890POPC   C3B69477   8.897  37.855   7.050
 9890POPC   C4B69478   8.852  37.913   7.350
 9891POPC   NC369479  39.256  12.051   5.550
 9891POPC   PO469480  39.231  12.055   5.850
 9891POPC   GL169481  39.222  12.114   6.150
 9891POPC   GL269482  39.189  12.178   6.150
 9891POPC   C1A69483  39.234  12.081   6.450
 9891POPC   D2A69484  39.258  12.081   6.750
 9891POPC   C3A69485  39.197  12.078   7.050
 9891POPC   C4A69486  39.187  12.111   7.350
 9891POPC   C1B69487  39.207  12.333   6.450
 9891POPC   C2B69488  39.204  12.349   6.750
 9891POPC   C3B69489  39.226  12.325   7.050
 9891POPC   C4B69490  39.206  12.364   7.350
 9892POPC   NC369491  25.260  15.978   5.550
 9892POPC   PO469492  25.232  15.910   5.850
 9892POPC   GL169493  25.295  15.980   6.150
 9892POPC   GL269494  25.206  15.839   6.150
 9892POPC   C1A69495  25.239  15.972   6.450
 9892POPC   D2A69496  25.257  15.905   6.750
 9892POPC   C3A69497  25.311  15.929   7.050
 9892POPC   C4A69498  25.304  15.942   7.350
 9892POPC   C1B69499  25.145  15.716   6.450
 9892POPC   C2B69500  25.092  15.775   6.750
 9892POPC   C3B69501  25.124  15.781   7.050
 9892POPC   C4B69502  25.161  15.765   7.350
 9893POPC   NC369503  29.947  43.157   5.550
 9893POPC   PO469504  29.925  43.071   5.850
 9893POPC   GL169505  29.958  43.062   6.150
 9893POPC   GL269506  29.919  43.261   6.150
 9893POPC   C1A69507  29.942  43.111   6.450
 9893POPC   D2A69508  29.963  43.108   6.750
 9893POPC   C3A69509  29.872  43.078   7.050
 9893POPC   C4A69510  29.949  43.150   7.350
 9893POPC   C1B69511  29.886  43.305   6.450
 9893POPC   C2B69512  29.878  43.310   6.750
 9893POPC   C3B69513  29.886  43.392   7.050
 9893POPC   C4B69514  29.835  43.343   7.350
 9894POPC   NC369515   4.287  11.309   5.550
 9894POPC   PO469516   4.313  11.303   5.850
 9894POPC   GL169517   4.329  11.330   6.150
 9894POPC   GL269518   4.359  11.249   6.150
 9894POPC   C1A69519   4.291  11.272   6.450
 9894POPC   D2A69520   4.334  11.289   6.750
 9894POPC   C3A69521   4.271  11.310   7.050
 9894POPC   C4A69522   4.303  11.310   7.350
 9894POPC   C1B69523   4.479  11.151   6.450
 9894POPC   C2B69524   4.463  11.132   6.750
 9894POPC   C3B69525   4.469  11.127   7.050
 9894POPC   C4B69526   4.482  11.136   7.350
 9895POPC   NC369527   4.297  19.039   5.550
 9895POPC   PO469528   4.344  19.078   5.850
 9895POPC   GL169529   4.337  19.058   6.150
 9895POPC   GL269530   4.220  19.047   6.150
 9895POPC   C1A69531   4.277  19.034   6.450
 9895POPC   D2A69532   4.317  19.059   6.750
 9895POPC   C3A69533   4.335  19.099   7.050
 9895POPC   C4A69534   4.327  19.009   7.350
 9895POPC   C1B69535   4.047  18.917   6.450
 9895POPC   C2B69536   4.107  18.943   6.750
 9895POPC   C3B69537   4.070  18.984   7.050
 9895POPC   C4B69538   4.085  18.961   7.350
 9896POPC   NC369539  40.818   3.543   5.550
 9896POPC   PO469540  40.762   3.518   5.850
 9896POPC   GL169541  40.770   3.590   6.150
 9896POPC   GL269542  40.853   3.471   6.150
 9896POPC   C1A69543  40.764   3.495   6.450
 9896POPC   D2A69544  40.752   3.561   6.750
 9896POPC   C3A69545  40.738   3.527   7.050
 9896POPC   C4A69546  40.813   3.492   7.350
 9896POPC   C1B69547  40.999   3.364   6.450
 9896POPC   C2B69548  40.941   3.371   6.750
 9896POPC   C3B69549  41.026   3.361   7.050
 9896POPC   C4B69550  41.021   3.428   7.350
 9897POPC   NC369551   9.698  18.284   5.550
 9897POPC   PO469552   9.790  18.300   5.850
 9897POPC   GL169553   9.708  18.266   6.150
 9897POPC   GL269554   9.677  18.416   6.150
 9897POPC   C1A69555   9.720  18.319   6.450
 9897POPC   D2A69556   9.759  18.315   6.750
 9897POPC   C3A69557   9.742  18.242   7.050
 9897POPC   C4A69558   9.752  18.302   7.350
 9897POPC   C1B69559   9.633  18.508   6.450
 9897POPC   C2B69560   9.563  18.517   6.750
 9897POPC   C3B69561   9.645  18.434   7.050
 9897POPC   C4B69562   9.646  18.504   7.350
 9898POPC   NC369563  27.575   3.562   5.550
 9898POPC   PO469564  27.581   3.505   5.850
 9898POPC   GL169565  27.608   3.530   6.150
 9898POPC   GL269566  27.493   3.635   6.150
 9898POPC   C1A69567  27.624   3.529   6.450
 9898POPC   D2A69568  27.577   3.530   6.750
 9898POPC   C3A69569  27.617   3.526   7.050
 9898POPC   C4A69570  27.557   3.546   7.350
 9898POPC   C1B69571  27.337   3.657   6.450
 9898POPC   C2B69572  27.369   3.641   6.750
 9898POPC   C3B69573  27.335   3.672   7.050
 9898POPC   C4B69574  27.340   3.641   7.350
 9899POPC   NC369575  28.341  29.909   5.550
 9899POPC   PO469576  28.410  29.911   5.850
 9899POPC   GL169577  28.385  29.923   6.150
 9899POPC   GL269578  28.315  29.796   6.150
 9899POPC   C1A69579  28.404  29.904   6.450
 9899POPC   D2A69580  28.341  29.945   6.750
 9899POPC   C3A69581  28.417  29.953   7.050
 9899POPC   C4A69582  28.382  29.902   7.350
 9899POPC   C1B69583  28.364  29.634   6.450
 9899POPC   C2B69584  28.307  29.687   6.750
 9899POPC   C3B69585  28.318  29.689   7.050
 9899POPC   C4B69586  28.291  29.688   7.350
 9900POPC   NC369587  15.200  13.666   5.550
 9900POPC   PO469588  15.148  13.627   5.850
 9900POPC   GL169589  15.191  13.663   6.150
 9900POPC   GL269590  15.329  13.534   6.150
 9900POPC   C1A69591  15.151  13.612   6.450
 9900POPC   D2A69592  15.196  13.632   6.750
 9900POPC   C3A69593  15.154  13.631   7.050
 9900POPC   C4A69594  15.139  13.665   7.350
 9900POPC   C1B69595  15.443  13.512   6.450
 9900POPC   C2B69596  15.422  13.512   6.750
 9900POPC   C3B69597  15.412  13.482   7.050
 9900POPC   C4B69598  15.354  13.503   7.350
 9901POPC   NC369599  40.011   1.952   5.550
 9901POPC   PO469600  40.008   2.014   5.850
 9901POPC   GL169601  39.971   1.943   6.150
 9901POPC   GL269602  40.069   1.891   6.150
 9901POPC   C1A69603  40.055   2.033   6.450
 9901POPC   D2A69604  40.038   2.029   6.750
 9901POPC   C3A69605  39.967   2.001   7.050
 9901POPC   C4A69606  40.046   2.037   7.350
 9901POPC   C1B69607  40.096   1.736   6.450
 9901POPC   C2B69608  40.042   1.727   6.750
 9901POPC   C3B69609  40.109   1.790   7.050
 9901POPC   C4B69610  40.030   1.745   7.350
 9902POPC   NC369611  20.659  26.061   5.550
 9902POPC   PO469612  20.565  26.070   5.850
 9902POPC   GL169613  20.597  26.047   6.150
 9902POPC   GL269614  20.669  26.142   6.150
 9902POPC   C1A69615  20.605  26.086   6.450
 9902POPC   D2A69616  20.652  26.004   6.750
 9902POPC   C3A69617  20.645  26.059   7.050
 9902POPC   C4A69618  20.660  26.082   7.350
 9902POPC   C1B69619  20.722  26.233   6.450
 9902POPC   C2B69620  20.663  26.271   6.750
 9902POPC   C3B69621  20.667  26.312   7.050
 9902POPC   C4B69622  20.717  26.274   7.350
 9903POPC   NC369623   5.076  33.073   5.550
 9903POPC   PO469624   5.076  32.987   5.850
 9903POPC   GL169625   5.101  33.055   6.150
 9903POPC   GL269626   5.163  33.150   6.150
 9903POPC   C1A69627   5.127  33.036   6.450
 9903POPC   D2A69628   5.060  33.035   6.750
 9903POPC   C3A69629   5.074  33.060   7.050
 9903POPC   C4A69630   5.101  32.981   7.350
 9903POPC   C1B69631   5.179  33.209   6.450
 9903POPC   C2B69632   5.234  33.291   6.750
 9903POPC   C3B69633   5.169  33.212   7.050
 9903POPC   C4B69634   5.198  33.258   7.350
 9904POPC   NC369635   5.869   5.084   5.550
 9904POPC   PO469636   5.867   5.073   5.850
 9904POPC   GL169637   5.890   5.136   6.150
 9904POPC   GL269638   5.871   4.958   6.150
 9904POPC   C1A69639   5.869   5.060   6.450
 9904POPC   D2A69640   5.875   5.077   6.750
 9904POPC   C3A69641   5.876   5.121   7.050
 9904POPC   C4A69642   5.834   5.136   7.350
 9904POPC   C1B69643   5.773   4.843   6.450
 9904POPC   C2B69644   5.829   4.826   6.750
 9904POPC   C3B69645   5.823   4.839   7.050
 9904POPC   C4B69646   5.843   4.885   7.350
 9905POPC   NC369647  41.518  41.566   5.550
 9905POPC   PO469648  41.557  41.575   5.850
 9905POPC   GL169649  41.531  41.593   6.150
 9905POPC   GL269650  41.433  41.526   6.150
 9905POPC   C1A69651  41.532  41.572   6.450
 9905POPC   D2A69652  41.512  41.539   6.750
 9905POPC   C3A69653  41.530  41.517   7.050
 9905POPC   C4A69654  41.589  41.575   7.350
 9905POPC   C1B69655  41.291  41.565   6.450
 9905POPC   C2B69656  41.276  41.523   6.750
 9905POPC   C3B69657  41.290  41.543   7.050
 9905POPC   C4B69658  41.283  41.547   7.350
 9906POPC   NC369659  24.502  29.875   5.550
 9906POPC   PO469660  24.444  29.878   5.850
 9906POPC   GL169661  24.474  29.872   6.150
 9906POPC   GL269662  24.407  29.877   6.150
 9906POPC   C1A69663  24.484  29.927   6.450
 9906POPC   D2A69664  24.530  29.954   6.750
 9906POPC   C3A69665  24.451  29.955   7.050
 9906POPC   C4A69666  24.455  29.917   7.350
 9906POPC   C1B69667  24.231  29.797   6.450
 9906POPC   C2B69668  24.262  29.805   6.750
 9906POPC   C3B69669  24.258  29.870   7.050
 9906POPC   C4B69670  24.278  29.821   7.350
 9907POPC   NC369671  28.335  18.320   5.550
 9907POPC   PO469672  28.364  18.265   5.850
 9907POPC   GL169673  28.373  18.275   6.150
 9907POPC   GL269674  28.336  18.360   6.150
 9907POPC   C1A69675  28.357  18.237   6.450
 9907POPC   D2A69676  28.325  18.277   6.750
 9907POPC   C3A69677  28.330  18.244   7.050
 9907POPC   C4A69678  28.363  18.277   7.350
 9907POPC   C1B69679  28.397  18.495   6.450
 9907POPC   C2B69680  28.357  18.568   6.750
 9907POPC   C3B69681  28.419  18.541   7.050
 9907POPC   C4B69682  28.435  18.526   7.350
 9908POPC   NC369683   1.199   3.569   5.550
 9908POPC   PO469684   1.201   3.589   5.850
 9908POPC   GL169685   1.193   3.519   6.150
 9908POPC   GL269686   1.361   3.515   6.150
 9908POPC   C1A69687   1.202   3.517   6.450
 9908POPC   D2A69688   1.257   3.501   6.750
 9908POPC   C3A69689   1.249   3.560   7.050
 9908POPC   C4A69690   1.194   3.532   7.350
 9908POPC   C1B69691   1.414   3.411   6.450
 9908POPC   C2B69692   1.444   3.390   6.750
 9908POPC   C3B69693   1.469   3.372   7.050
 9908POPC   C4B69694   1.392   3.388   7.350
 9909POPC   NC369695  19.786  24.533   5.550
 9909POPC   PO469696  19.836  24.502   5.850
 9909POPC   GL169697  19.811  24.490   6.150
 9909POPC   GL269698  19.850  24.330   6.150
 9909POPC   C1A69699  19.882  24.444   6.450
 9909POPC   D2A69700  19.838  24.521   6.750
 9909POPC   C3A69701  19.810  24.504   7.050
 9909POPC   C4A69702  19.808  24.478   7.350
 9909POPC   C1B69703  19.835  24.215   6.450
 9909POPC   C2B69704  19.798  24.202   6.750
 9909POPC   C3B69705  19.832  24.225   7.050
 9909POPC   C4B69706  19.877  24.198   7.350
 9910POPC   NC369707  31.425  11.292   5.550
 9910POPC   PO469708  31.428  11.333   5.850
 9910POPC   GL169709  31.508  11.262   6.150
 9910POPC   GL269710  31.439  11.456   6.150
 9910POPC   C1A69711  31.426  11.252   6.450
 9910POPC   D2A69712  31.473  11.343   6.750
 9910POPC   C3A69713  31.520  11.302   7.050
 9910POPC   C4A69714  31.478  11.333   7.350
 9910POPC   C1B69715  31.404  11.587   6.450
 9910POPC   C2B69716  31.374  11.561   6.750
 9910POPC   C3B69717  31.378  11.495   7.050
 9910POPC   C4B69718  31.445  11.541   7.350
 9911POPC   NC369719  43.070  14.428   5.550
 9911POPC   PO469720  43.097  14.367   5.850
 9911POPC   GL169721  43.103  14.407   6.150
 9911POPC   GL269722  43.184  14.494   6.150
 9911POPC   C1A69723  43.099  14.365   6.450
 9911POPC   D2A69724  43.122  14.361   6.750
 9911POPC   C3A69725  43.119  14.433   7.050
 9911POPC   C4A69726  43.131  14.359   7.350
 9911POPC   C1B69727  43.264  14.609   6.450
 9911POPC   C2B69728  43.276  14.653   6.750
 9911POPC   C3B69729  43.266  14.585   7.050
 9911POPC   C4B69730  43.234  14.573   7.350
 9912POPC   NC369731  21.404  15.949   5.550
 9912POPC   PO469732  21.348  15.945   5.850
 9912POPC   GL169733  21.375  15.966   6.150
 9912POPC   GL269734  21.285  15.996   6.150
 9912POPC   C1A69735  21.347  15.949   6.450
 9912POPC   D2A69736  21.404  15.999   6.750
 9912POPC   C3A69737  21.422  15.957   7.050
 9912POPC   C4A69738  21.403  15.975   7.350
 9912POPC   C1B69739  21.176  16.071   6.450
 9912POPC   C2B69740  21.229  16.120   6.750
 9912POPC   C3B69741  21.189  16.164   7.050
 9912POPC   C4B69742  21.210  16.139   7.350
 9913POPC   NC369743  29.958  26.776   5.550
 9913POPC   PO469744  29.872  26.852   5.850
 9913POPC   GL169745  29.904  26.836   6.150
 9913POPC   GL269746  30.038  26.757   6.150
 9913POPC   C1A69747  29.923  26.839   6.450
 9913POPC   D2A69748  29.879  26.774   6.750
 9913POPC   C3A69749  29.877  26.837   7.050
 9913POPC   C4A69750  29.951  26.798   7.350
 9913POPC   C1B69751  30.134  26.748   6.450
 9913POPC   C2B69752  30.204  26.818   6.750
 9913POPC   C3B69753  30.188  26.747   7.050
 9913POPC   C4B69754  30.206  26.754   7.350
 9914POPC   NC369755  42.343  36.160   5.550
 9914POPC   PO469756  42.310  36.148   5.850
 9914POPC   GL169757  42.329  36.131   6.150
 9914POPC   GL269758  42.452  36.095   6.150
 9914POPC   C1A69759  42.292  36.142   6.450
 9914POPC   D2A69760  42.295  36.132   6.750
 9914POPC   C3A69761  42.375  36.082   7.050
 9914POPC   C4A69762  42.292  36.135   7.350
 9914POPC   C1B69763  42.546  36.015   6.450
 9914POPC   C2B69764  42.519  36.022   6.750
 9914POPC   C3B69765  42.516  35.969   7.050
 9914POPC   C4B69766  42.526  35.968   7.350
 9915POPC   NC369767  40.006  12.080   5.550
 9915POPC   PO469768  40.013  12.041   5.850
 9915POPC   GL169769  39.966  12.073   6.150
 9915POPC   GL269770  39.965  12.202   6.150
 9915POPC   C1A69771  39.976  12.055   6.450
 9915POPC   D2A69772  39.979  12.053   6.750
 9915POPC   C3A69773  40.053  12.054   7.050
 9915POPC   C4A69774  39.997  12.090   7.350
 9915POPC   C1B69775  39.986  12.366   6.450
 9915POPC   C2B69776  39.943  12.273   6.750
 9915POPC   C3B69777  39.932  12.291   7.050
 9915POPC   C4B69778  39.954  12.329   7.350
 9916POPC   NC369779   3.575  29.969   5.550
 9916POPC   PO469780   3.573  29.935   5.850
 9916POPC   GL169781   3.515  29.907   6.150
 9916POPC   GL269782   3.612  29.869   6.150
 9916POPC   C1A69783   3.520  29.917   6.450
 9916POPC   D2A69784   3.573  29.897   6.750
 9916POPC   C3A69785   3.553  29.950   7.050
 9916POPC   C4A69786   3.504  29.962   7.350
 9916POPC   C1B69787   3.766  29.890   6.450
 9916POPC   C2B69788   3.794  29.842   6.750
 9916POPC   C3B69789   3.791  29.840   7.050
 9916POPC   C4B69790   3.778  29.895   7.350
 9917POPC   NC369791   8.996   1.238   5.550
 9917POPC   PO469792   8.945   1.193   5.850
 9917POPC   GL169793   8.962   1.247   6.150
 9917POPC   GL269794   8.863   1.140   6.150
 9917POPC   C1A69795   8.953   1.165   6.450
 9917POPC   D2A69796   8.927   1.181   6.750
 9917POPC   C3A69797   8.936   1.244   7.050
 9917POPC   C4A69798   8.998   1.167   7.350
 9917POPC   C1B69799   8.799   1.104   6.450
 9917POPC   C2B69800   8.714   1.064   6.750
 9917POPC   C3B69801   8.799   1.147   7.050
 9917POPC   C4B69802   8.701   1.121   7.350
 9918POPC   NC369803  30.734   5.873   5.550
 9918POPC   PO469804  30.714   5.911   5.850
 9918POPC   GL169805  30.720   5.820   6.150
 9918POPC   GL269806  30.732   5.947   6.150
 9918POPC   C1A69807  30.734   5.871   6.450
 9918POPC   D2A69808  30.657   5.865   6.750
 9918POPC   C3A69809  30.744   5.890   7.050
 9918POPC   C4A69810  30.661   5.861   7.350
 9918POPC   C1B69811  30.825   6.092   6.450
 9918POPC   C2B69812  30.816   6.038   6.750
 9918POPC   C3B69813  30.802   6.045   7.050
 9918POPC   C4B69814  30.879   6.053   7.350
 9919POPC   NC369815   9.708  33.000   5.550
 9919POPC   PO469816   9.722  33.023   5.850
 9919POPC   GL169817   9.787  33.073   6.150
 9919POPC   GL269818   9.696  32.935   6.150
 9919POPC   C1A69819   9.798  33.005   6.450
 9919POPC   D2A69820   9.706  33.010   6.750
 9919POPC   C3A69821   9.729  33.040   7.050
 9919POPC   C4A69822   9.703  33.002   7.350
 9919POPC   C1B69823   9.551  32.776   6.450
 9919POPC   C2B69824   9.552  32.836   6.750
 9919POPC   C3B69825   9.551  32.870   7.050
 9919POPC   C4B69826   9.557  32.857   7.350
 9920POPC   NC369827  10.494  42.363   5.550
 9920POPC   PO469828  10.572  42.380   5.850
 9920POPC   GL169829  10.491  42.332   6.150
 9920POPC   GL269830  10.573  42.433   6.150
 9920POPC   C1A69831  10.500  42.327   6.450
 9920POPC   D2A69832  10.539  42.349   6.750
 9920POPC   C3A69833  10.566  42.331   7.050
 9920POPC   C4A69834  10.526  42.314   7.350
 9920POPC   C1B69835  10.522  42.581   6.450
 9920POPC   C2B69836  10.574  42.603   6.750
 9920POPC   C3B69837  10.555  42.546   7.050
 9920POPC   C4B69838  10.518  42.630   7.350
 9921POPC   NC369839  35.325   1.262   5.550
 9921POPC   PO469840  35.323   1.205   5.850
 9921POPC   GL169841  35.325   1.220   6.150
 9921POPC   GL269842  35.449   1.268   6.150
 9921POPC   C1A69843  35.369   1.209   6.450
 9921POPC   D2A69844  35.401   1.212   6.750
 9921POPC   C3A69845  35.372   1.231   7.050
 9921POPC   C4A69846  35.379   1.214   7.350
 9921POPC   C1B69847  35.623   1.338   6.450
 9921POPC   C2B69848  35.551   1.302   6.750
 9921POPC   C3B69849  35.583   1.339   7.050
 9921POPC   C4B69850  35.587   1.272   7.350
 9922POPC   NC369851  19.836  29.106   5.550
 9922POPC   PO469852  19.841  29.171   5.850
 9922POPC   GL169853  19.790  29.160   6.150
 9922POPC   GL269854  19.757  29.038   6.150
 9922POPC   C1A69855  19.828  29.140   6.450
 9922POPC   D2A69856  19.876  29.140   6.750
 9922POPC   C3A69857  19.878  29.140   7.050
 9922POPC   C4A69858  19.866  29.173   7.350
 9922POPC   C1B69859  19.653  29.021   6.450
 9922POPC   C2B69860  19.646  28.981   6.750
 9922POPC   C3B69861  19.628  28.980   7.050
 9922POPC   C4B69862  19.609  28.987   7.350
 9923POPC   NC369863  17.490  10.539   5.550
 9923POPC   PO469864  17.490  10.538   5.850
 9923POPC   GL169865  17.507  10.540   6.150
 9923POPC   GL269866  17.549  10.394   6.150
 9923POPC   C1A69867  17.546  10.496   6.450
 9923POPC   D2A69868  17.552  10.536   6.750
 9923POPC   C3A69869  17.479  10.495   7.050
 9923POPC   C4A69870  17.462  10.539   7.350
 9923POPC   C1B69871  17.566  10.324   6.450
 9923POPC   C2B69872  17.602  10.259   6.750
 9923POPC   C3B69873  17.546  10.267   7.050
 9923POPC   C4B69874  17.544  10.312   7.350
 9924POPC   NC369875   7.436  12.087   5.550
 9924POPC   PO469876   7.400  12.037   5.850
 9924POPC   GL169877   7.430  12.061   6.150
 9924POPC   GL269878   7.536  12.148   6.150
 9924POPC   C1A69879   7.415  12.061   6.450
 9924POPC   D2A69880   7.399  12.092   6.750
 9924POPC   C3A69881   7.390  12.067   7.050
 9924POPC   C4A69882   7.391  12.062   7.350
 9924POPC   C1B69883   7.663  12.196   6.450
 9924POPC   C2B69884   7.598  12.208   6.750
 9924POPC   C3B69885   7.661  12.243   7.050
 9924POPC   C4B69886   7.617  12.230   7.350
 9925POPC   NC369887  33.012   5.904   5.550
 9925POPC   PO469888  33.067   5.902   5.850
 9925POPC   GL169889  32.999   5.854   6.150
 9925POPC   GL269890  32.937   6.001   6.150
 9925POPC   C1A69891  33.048   5.835   6.450
 9925POPC   D2A69892  33.037   5.914   6.750
 9925POPC   C3A69893  33.049   5.913   7.050
 9925POPC   C4A69894  33.039   5.828   7.350
 9925POPC   C1B69895  32.931   6.138   6.450
 9925POPC   C2B69896  32.984   6.147   6.750
 9925POPC   C3B69897  32.913   6.112   7.050
 9925POPC   C4B69898  32.943   6.139   7.350
 9926POPC   NC369899   1.988  31.488   5.550
 9926POPC   PO469900   2.028  31.514   5.850
 9926POPC   GL169901   1.970  31.449   6.150
 9926POPC   GL269902   1.939  31.632   6.150
 9926POPC   C1A69903   2.035  31.499   6.450
 9926POPC   D2A69904   2.028  31.436   6.750
 9926POPC   C3A69905   1.975  31.475   7.050
 9926POPC   C4A69906   1.951  31.437   7.350
 9926POPC   C1B69907   2.003  31.712   6.450
 9926POPC   C2B69908   1.936  31.763   6.750
 9926POPC   C3B69909   1.926  31.713   7.050
 9926POPC   C4B69910   1.946  31.767   7.350
 9927POPC   NC369911   7.386  11.293   5.550
 9927POPC   PO469912   7.459  11.322   5.850
 9927POPC   GL169913   7.415  11.299   6.150
 9927POPC   GL269914   7.523  11.299   6.150
 9927POPC   C1A69915   7.464  11.333   6.450
 9927POPC   D2A69916   7.383  11.288   6.750
 9927POPC   C3A69917   7.373  11.329   7.050
 9927POPC   C4A69918   7.426  11.254   7.350
 9927POPC   C1B69919   7.619  11.223   6.450
 9927POPC   C2B69920   7.669  11.259   6.750
 9927POPC   C3B69921   7.670  11.237   7.050
 9927POPC   C4B69922   7.635  11.190   7.350
 9928POPC   NC369923  33.038  35.376   5.550
 9928POPC   PO469924  32.993  35.325   5.850
 9928POPC   GL169925  33.043  35.379   6.150
 9928POPC   GL269926  33.017  35.182   6.150
 9928POPC   C1A69927  33.006  35.352   6.450
 9928POPC   D2A69928  33.072  35.373   6.750
 9928POPC   C3A69929  33.037  35.318   7.050
 9928POPC   C4A69930  32.995  35.373   7.350
 9928POPC   C1B69931  33.018  35.101   6.450
 9928POPC   C2B69932  33.011  35.140   6.750
 9928POPC   C3B69933  32.989  35.105   7.050
 9928POPC   C4B69934  33.081  35.098   7.350
 9929POPC   NC369935  33.821  20.570   5.550
 9929POPC   PO469936  33.779  20.635   5.850
 9929POPC   GL169937  33.797  20.658   6.150
 9929POPC   GL269938  33.934  20.633   6.150
 9929POPC   C1A69939  33.789  20.628   6.450
 9929POPC   D2A69940  33.795  20.626   6.750
 9929POPC   C3A69941  33.768  20.561   7.050
 9929POPC   C4A69942  33.756  20.645   7.350
 9929POPC   C1B69943  34.011  20.636   6.450
 9929POPC   C2B69944  34.077  20.588   6.750
 9929POPC   C3B69945  34.095  20.590   7.050
 9929POPC   C4B69946  34.026  20.589   7.350
 9930POPC   NC369947   8.169  28.381   5.550
 9930POPC   PO469948   8.230  28.366   5.850
 9930POPC   GL169949   8.227  28.373   6.150
 9930POPC   GL269950   8.331  28.429   6.150
 9930POPC   C1A69951   8.238  28.332   6.450
 9930POPC   D2A69952   8.197  28.387   6.750
 9930POPC   C3A69953   8.159  28.334   7.050
 9930POPC   C4A69954   8.195  28.359   7.350
 9930POPC   C1B69955   8.421  28.543   6.450
 9930POPC   C2B69956   8.421  28.513   6.750
 9930POPC   C3B69957   8.358  28.550   7.050
 9930POPC   C4B69958   8.398  28.471   7.350
 9931POPC   NC369959  19.042  26.044   5.550
 9931POPC   PO469960  19.020  26.017   5.850
 9931POPC   GL169961  19.058  25.999   6.150
 9931POPC   GL269962  19.098  25.913   6.150
 9931POPC   C1A69963  19.087  26.082   6.450
 9931POPC   D2A69964  19.032  26.068   6.750
 9931POPC   C3A69965  19.016  26.007   7.050
 9931POPC   C4A69966  19.035  26.078   7.350
 9931POPC   C1B69967  19.052  25.840   6.450
 9931POPC   C2B69968  19.082  25.830   6.750
 9931POPC   C3B69969  19.112  25.770   7.050
 9931POPC   C4B69970  19.102  25.746   7.350
 9932POPC   NC369971  40.008  26.002   5.550
 9932POPC   PO469972  40.038  26.024   5.850
 9932POPC   GL169973  39.979  26.055   6.150
 9932POPC   GL269974  39.924  26.175   6.150
 9932POPC   C1A69975  40.004  25.998   6.450
 9932POPC   D2A69976  40.053  26.040   6.750
 9932POPC   C3A69977  40.012  26.088   7.050
 9932POPC   C4A69978  39.992  26.009   7.350
 9932POPC   C1B69979  39.873  26.244   6.450
 9932POPC   C2B69980  39.860  26.288   6.750
 9932POPC   C3B69981  39.816  26.262   7.050
 9932POPC   C4B69982  39.825  26.240   7.350
 9933POPC   NC369983   2.764  16.705   5.550
 9933POPC   PO469984   2.776  16.734   5.850
 9933POPC   GL169985   2.734  16.720   6.150
 9933POPC   GL269986   2.853  16.864   6.150
 9933POPC   C1A69987   2.778  16.714   6.450
 9933POPC   D2A69988   2.807  16.745   6.750
 9933POPC   C3A69989   2.758  16.777   7.050
 9933POPC   C4A69990   2.729  16.740   7.350
 9933POPC   C1B69991   2.933  16.940   6.450
 9933POPC   C2B69992   2.959  16.894   6.750
 9933POPC   C3B69993   2.898  16.863   7.050
 9933POPC   C4B69994   2.899  16.923   7.350
 9934POPC   NC369995  15.947  34.544   5.550
 9934POPC   PO469996  15.981  34.614   5.850
 9934POPC   GL169997  15.917  34.530   6.150
 9934POPC   GL269998  15.876  34.708   6.150
 9934POPC   C1A69999  15.931  34.533   6.450
 9934POPC   D2A70000  15.928  34.579   6.750
 9934POPC   C3A70001  15.924  34.529   7.050
 9934POPC   C4A70002  15.907  34.596   7.350
 9934POPC   C1B70003  15.876  34.776   6.450
 9934POPC   C2B70004  15.914  34.804   6.750
 9934POPC   C3B70005  15.843  34.825   7.050
 9934POPC   C4B70006  15.841  34.849   7.350
 9935POPC   NC370007   9.756  26.864   5.550
 9935POPC   PO470008   9.761  26.836   5.850
 9935POPC   GL170009   9.796  26.840   6.150
 9935POPC   GL270010   9.751  26.676   6.150
 9935POPC   C1A70011   9.707  26.862   6.450
 9935POPC   D2A70012   9.723  26.837   6.750
 9935POPC   C3A70013   9.709  26.772   7.050
 9935POPC   C4A70014   9.779  26.833   7.350
 9935POPC   C1B70015   9.774  26.547   6.450
 9935POPC   C2B70016   9.719  26.606   6.750
 9935POPC   C3B70017   9.763  26.539   7.050
 9935POPC   C4B70018   9.762  26.594   7.350
 9936POPC   NC370019  15.947  42.289   5.550
 9936POPC   PO470020  15.915  42.372   5.850
 9936POPC   GL170021  15.962  42.313   6.150
 9936POPC   GL270022  16.030  42.384   6.150
 9936POPC   C1A70023  15.955  42.313   6.450
 9936POPC   D2A70024  15.995  42.319   6.750
 9936POPC   C3A70025  15.988  42.336   7.050
 9936POPC   C4A70026  15.963  42.373   7.350
 9936POPC   C1B70027  16.131  42.549   6.450
 9936POPC   C2B70028  16.096  42.492   6.750
 9936POPC   C3B70029  16.155  42.544   7.050
 9936POPC   C4B70030  16.097  42.542   7.350
 9937POPC   NC370031   8.210  26.782   5.550
 9937POPC   PO470032   8.161  26.812   5.850
 9937POPC   GL170033   8.210  26.812   6.150
 9937POPC   GL270034   8.148  26.939   6.150
 9937POPC   C1A70035   8.235  26.816   6.450
 9937POPC   D2A70036   8.214  26.857   6.750
 9937POPC   C3A70037   8.186  26.777   7.050
 9937POPC   C4A70038   8.156  26.814   7.350
 9937POPC   C1B70039   8.082  27.040   6.450
 9937POPC   C2B70040   8.039  27.052   6.750
 9937POPC   C3B70041   8.060  27.006   7.050
 9937POPC   C4B70042   8.084  27.051   7.350
 9938POPC   NC370043  40.824   2.808   5.550
 9938POPC   PO470044  40.738   2.811   5.850
 9938POPC   GL170045  40.754   2.775   6.150
 9938POPC   GL270046  40.709   2.636   6.150
 9938POPC   C1A70047  40.812   2.738   6.450
 9938POPC   D2A70048  40.819   2.753   6.750
 9938POPC   C3A70049  40.755   2.749   7.050
 9938POPC   C4A70050  40.827   2.767   7.350
 9938POPC   C1B70051  40.714   2.523   6.450
 9938POPC   C2B70052  40.689   2.567   6.750
 9938POPC   C3B70053  40.624   2.562   7.050
 9938POPC   C4B70054  40.701   2.565   7.350
 9939POPC   NC370055   6.677   0.395   5.550
 9939POPC   PO470056   6.614   0.456   5.850
 9939POPC   GL170057   6.658   0.404   6.150
 9939POPC   GL270058   6.480   0.367   6.150
 9939POPC   C1A70059   6.643   0.435   6.450
 9939POPC   D2A70060   6.680   0.483   6.750
 9939POPC   C3A70061   6.605   0.431   7.050
 9939POPC   C4A70062   6.598   0.484   7.350
 9939POPC   C1B70063   6.461   0.329   6.450
 9939POPC   C2B70064   6.437   0.329   6.750
 9939POPC   C3B70065   6.457   0.377   7.050
 9939POPC   C4B70066   6.415   0.294   7.350
 9940POPC   NC370067  39.222  10.488   5.550
 9940POPC   PO470068  39.190  10.540   5.850
 9940POPC   GL170069  39.280  10.494   6.150
 9940POPC   GL270070  39.227  10.429   6.150
 9940POPC   C1A70071  39.264  10.501   6.450
 9940POPC   D2A70072  39.254  10.486   6.750
 9940POPC   C3A70073  39.262  10.503   7.050
 9940POPC   C4A70074  39.187  10.547   7.350
 9940POPC   C1B70075  39.323  10.275   6.450
 9940POPC   C2B70076  39.299  10.295   6.750
 9940POPC   C3B70077  39.337  10.267   7.050
 9940POPC   C4B70078  39.266  10.251   7.350
 9941POPC   NC370079  31.423  33.021   5.550
 9941POPC   PO470080  31.511  33.054   5.850
 9941POPC   GL170081  31.482  33.045   6.150
 9941POPC   GL270082  31.389  33.016   6.150
 9941POPC   C1A70083  31.508  32.992   6.450
 9941POPC   D2A70084  31.435  32.978   6.750
 9941POPC   C3A70085  31.478  33.028   7.050
 9941POPC   C4A70086  31.445  33.004   7.350
 9941POPC   C1B70087  31.179  33.046   6.450
 9941POPC   C2B70088  31.244  32.972   6.750
 9941POPC   C3B70089  31.201  32.965   7.050
 9941POPC   C4B70090  31.201  33.059   7.350
 9942POPC   NC370091  34.566  34.564   5.550
 9942POPC   PO470092  34.529  34.550   5.850
 9942POPC   GL170093  34.595  34.598   6.150
 9942POPC   GL270094  34.540  34.481   6.150
 9942POPC   C1A70095  34.554  34.576   6.450
 9942POPC   D2A70096  34.594  34.554   6.750
 9942POPC   C3A70097  34.593  34.576   7.050
 9942POPC   C4A70098  34.559  34.622   7.350
 9942POPC   C1B70099  34.542  34.304   6.450
 9942POPC   C2B70100  34.565  34.313   6.750
 9942POPC   C3B70101  34.532  34.327   7.050
 9942POPC   C4B70102  34.565  34.326   7.350
 9943POPC   NC370103  22.903  36.078   5.550
 9943POPC   PO470104  22.900  36.162   5.850
 9943POPC   GL170105  22.963  36.149   6.150
 9943POPC   GL270106  22.906  35.965   6.150
 9943POPC   C1A70107  22.925  36.158   6.450
 9943POPC   D2A70108  22.963  36.139   6.750
 9943POPC   C3A70109  22.988  36.144   7.050
 9943POPC   C4A70110  22.891  36.171   7.350
 9943POPC   C1B70111  22.884  35.929   6.450
 9943POPC   C2B70112  22.866  35.841   6.750
 9943POPC   C3B70113  22.897  35.887   7.050
 9943POPC   C4B70114  22.872  35.882   7.350
 9944POPC   NC370115  34.549  19.837   5.550
 9944POPC   PO470116  34.553  19.843   5.850
 9944POPC   GL170117  34.601  19.824   6.150
 9944POPC   GL270118  34.478  19.767   6.150
 9944POPC   C1A70119  34.599  19.785   6.450
 9944POPC   D2A70120  34.609  19.798   6.750
 9944POPC   C3A70121  34.584  19.827   7.050
 9944POPC   C4A70122  34.587  19.837   7.350
 9944POPC   C1B70123  34.470  19.639   6.450
 9944POPC   C2B70124  34.500  19.625   6.750
 9944POPC   C3B70125  34.488  19.569   7.050
 9944POPC   C4B70126  34.498  19.585   7.350
 9945POPC   NC370127  29.165  37.633   5.550
 9945POPC   PO470128  29.175  37.725   5.850
 9945POPC   GL170129  29.168  37.706   6.150
 9945POPC   GL270130  29.239  37.812   6.150
 9945POPC   C1A70131  29.099  37.703   6.450
 9945POPC   D2A70132  29.124  37.699   6.750
 9945POPC   C3A70133  29.175  37.687   7.050
 9945POPC   C4A70134  29.180  37.637   7.350
 9945POPC   C1B70135  29.222  37.918   6.450
 9945POPC   C2B70136  29.270  37.928   6.750
 9945POPC   C3B70137  29.231  37.933   7.050
 9945POPC   C4B70138  29.266  37.924   7.350
 9946POPC   NC370139  32.273  38.472   5.550
 9946POPC   PO470140  32.237  38.425   5.850
 9946POPC   GL170141  32.271  38.428   6.150
 9946POPC   GL270142  32.324  38.441   6.150
 9946POPC   C1A70143  32.200  38.491   6.450
 9946POPC   D2A70144  32.234  38.469   6.750
 9946POPC   C3A70145  32.220  38.466   7.050
 9946POPC   C4A70146  32.211  38.446   7.350
 9946POPC   C1B70147  32.478  38.443   6.450
 9946POPC   C2B70148  32.542  38.516   6.750
 9946POPC   C3B70149  32.511  38.515   7.050
 9946POPC   C4B70150  32.511  38.529   7.350
 9947POPC   NC370151  14.431  33.811   5.550
 9947POPC   PO470152  14.358  33.802   5.850
 9947POPC   GL170153  14.394  33.756   6.150
 9947POPC   GL270154  14.531  33.746   6.150
 9947POPC   C1A70155  14.405  33.825   6.450
 9947POPC   D2A70156  14.371  33.839   6.750
 9947POPC   C3A70157  14.379  33.777   7.050
 9947POPC   C4A70158  14.398  33.790   7.350
 9947POPC   C1B70159  14.617  33.677   6.450
 9947POPC   C2B70160  14.680  33.734   6.750
 9947POPC   C3B70161  14.675  33.685   7.050
 9947POPC   C4B70162  14.600  33.717   7.350
 9948POPC   NC370163   5.135  34.617   5.550
 9948POPC   PO470164   5.087  34.586   5.850
 9948POPC   GL170165   5.092  34.545   6.150
 9948POPC   GL270166   5.188  34.541   6.150
 9948POPC   C1A70167   5.121  34.570   6.450
 9948POPC   D2A70168   5.124  34.577   6.750
 9948POPC   C3A70169   5.086  34.552   7.050
 9948POPC   C4A70170   5.107  34.602   7.350
 9948POPC   C1B70171   5.388  34.529   6.450
 9948POPC   C2B70172   5.372  34.521   6.750
 9948POPC   C3B70173   5.374  34.525   7.050
 9948POPC   C4B70174   5.346  34.543   7.350
 9949POPC   NC370175   9.717  43.926   5.550
 9949POPC   PO470176   9.775  43.896   5.850
 9949POPC   GL170177   9.765  43.852   6.150
 9949POPC   GL270178   9.815  43.764   6.150
 9949POPC   C1A70179   9.721  43.933   6.450
 9949POPC   D2A70180   9.716  43.864   6.750
 9949POPC   C3A70181   9.724  43.857   7.050
 9949POPC   C4A70182   9.789  43.843   7.350
 9949POPC   C1B70183   9.986  43.711   6.450
 9949POPC   C2B70184   9.891  43.753   6.750
 9949POPC   C3B70185   9.974  43.705   7.050
 9949POPC   C4B70186   9.915  43.730   7.350
 9950POPC   NC370187   4.355  26.090   5.550
 9950POPC   PO470188   4.306  26.056   5.850
 9950POPC   GL170189   4.275  26.016   6.150
 9950POPC   GL270190   4.255  26.072   6.150
 9950POPC   C1A70191   4.336  26.082   6.450
 9950POPC   D2A70192   4.297  26.024   6.750
 9950POPC   C3A70193   4.327  26.051   7.050
 9950POPC   C4A70194   4.322  26.059   7.350
 9950POPC   C1B70195   4.074  26.145   6.450
 9950POPC   C2B70196   4.088  26.147   6.750
 9950POPC   C3B70197   4.117  26.122   7.050
 9950POPC   C4B70198   4.095  26.159   7.350
 9951POPC   NC370199  18.287  21.372   5.550
 9951POPC   PO470200  18.326  21.428   5.850
 9951POPC   GL170201  18.314  21.380   6.150
 9951POPC   GL270202  18.395  21.501   6.150
 9951POPC   C1A70203  18.243  21.370   6.450
 9951POPC   D2A70204  18.258  21.393   6.750
 9951POPC   C3A70205  18.233  21.403   7.050
 9951POPC   C4A70206  18.281  21.414   7.350
 9951POPC   C1B70207  18.461  21.588   6.450
 9951POPC   C2B70208  18.413  21.580   6.750
 9951POPC   C3B70209  18.484  21.598   7.050
 9951POPC   C4B70210  18.449  21.559   7.350
 9952POPC   NC370211  34.599  36.146   5.550
 9952POPC   PO470212  34.610  36.131   5.850
 9952POPC   GL170213  34.601  36.121   6.150
 9952POPC   GL270214  34.567  35.997   6.150
 9952POPC   C1A70215  34.601  36.116   6.450
 9952POPC   D2A70216  34.585  36.101   6.750
 9952POPC   C3A70217  34.536  36.164   7.050
 9952POPC   C4A70218  34.540  36.169   7.350
 9952POPC   C1B70219  34.567  35.923   6.450
 9952POPC   C2B70220  34.584  35.872   6.750
 9952POPC   C3B70221  34.524  35.860   7.050
 9952POPC   C4B70222  34.604  35.860   7.350
 9953POPC   NC370223  24.461  16.778   5.550
 9953POPC   PO470224  24.488  16.731   5.850
 9953POPC   GL170225  24.448  16.768   6.150
 9953POPC   GL270226  24.403  16.769   6.150
 9953POPC   C1A70227  24.535  16.685   6.450
 9953POPC   D2A70228  24.441  16.695   6.750
 9953POPC   C3A70229  24.504  16.729   7.050
 9953POPC   C4A70230  24.477  16.778   7.350
 9953POPC   C1B70231  24.293  16.847   6.450
 9953POPC   C2B70232  24.297  16.855   6.750
 9953POPC   C3B70233  24.282  16.927   7.050
 9953POPC   C4B70234  24.281  16.925   7.350
 9954POPC   NC370235  37.654  39.239   5.550
 9954POPC   PO470236  37.673  39.247   5.850
 9954POPC   GL170237  37.659  39.252   6.150
 9954POPC   GL270238  37.540  39.328   6.150
 9954POPC   C1A70239  37.672  39.191   6.450
 9954POPC   D2A70240  37.715  39.184   6.750
 9954POPC   C3A70241  37.643  39.242   7.050
 9954POPC   C4A70242  37.631  39.271   7.350
 9954POPC   C1B70243  37.406  39.314   6.450
 9954POPC   C2B70244  37.472  39.342   6.750
 9954POPC   C3B70245  37.485  39.358   7.050
 9954POPC   C4B70246  37.462  39.340   7.350
 9955POPC   NC370247  16.004   4.367   5.550
 9955POPC   PO470248  15.964   4.305   5.850
 9955POPC   GL170249  15.973   4.272   6.150
 9955POPC   GL270250  15.850   4.329   6.150
 9955POPC   C1A70251  15.906   4.276   6.450
 9955POPC   D2A70252  15.918   4.328   6.750
 9955POPC   C3A70253  15.979   4.316   7.050
 9955POPC   C4A70254  15.923   4.347   7.350
 9955POPC   C1B70255  15.663   4.394   6.450
 9955POPC   C2B70256  15.728   4.350   6.750
 9955POPC   C3B70257  15.677   4.306   7.050
 9955POPC   C4B70258  15.709   4.350   7.350
 9956POPC   NC370259  31.460  19.016   5.550
 9956POPC   PO470260  31.507  19.085   5.850
 9956POPC   GL170261  31.493  19.068   6.150
 9956POPC   GL270262  31.309  19.133   6.150
 9956POPC   C1A70263  31.501  19.101   6.450
 9956POPC   D2A70264  31.459  19.063   6.750
 9956POPC   C3A70265  31.433  19.105   7.050
 9956POPC   C4A70266  31.494  19.040   7.350
 9956POPC   C1B70267  31.266  19.164   6.450
 9956POPC   C2B70268  31.236  19.164   6.750
 9956POPC   C3B70269  31.259  19.152   7.050
 9956POPC   C4B70270  31.201  19.123   7.350
 9957POPC   NC370271  15.969  31.438   5.550
 9957POPC   PO470272  15.939  31.496   5.850
 9957POPC   GL170273  15.908  31.459   6.150
 9957POPC   GL270274  16.067  31.388   6.150
 9957POPC   C1A70275  15.971  31.442   6.450
 9957POPC   D2A70276  15.974  31.457   6.750
 9957POPC   C3A70277  15.933  31.424   7.050
 9957POPC   C4A70278  16.004  31.477   7.350
 9957POPC   C1B70279  16.137  31.378   6.450
 9957POPC   C2B70280  16.200  31.309   6.750
 9957POPC   C3B70281  16.170  31.320   7.050
 9957POPC   C4B70282  16.137  31.379   7.350
 9958POPC   NC370283   6.650  11.295   5.550
 9958POPC   PO470284   6.685  11.266   5.850
 9958POPC   GL170285   6.680  11.301   6.150
 9958POPC   GL270286   6.695  11.147   6.150
 9958POPC   C1A70287   6.629  11.323   6.450
 9958POPC   D2A70288   6.653  11.333   6.750
 9958POPC   C3A70289   6.617  11.292   7.050
 9958POPC   C4A70290   6.613  11.347   7.350
 9958POPC   C1B70291   6.652  11.038   6.450
 9958POPC   C2B70292   6.685  11.073   6.750
 9958POPC   C3B70293   6.692  11.076   7.050
 9958POPC   C4B70294   6.651  11.024   7.350
 9959POPC   NC370295  41.556  24.506   5.550
 9959POPC   PO470296  41.544  24.522   5.850
 9959POPC   GL170297  41.520  24.500   6.150
 9959POPC   GL270298  41.620  24.399   6.150
 9959POPC   C1A70299  41.558  24.512   6.450
 9959POPC   D2A70300  41.604  24.460   6.750
 9959POPC   C3A70301  41.539  24.505   7.050
 9959POPC   C4A70302  41.574  24.450   7.350
 9959POPC   C1B70303  41.796  24.288   6.450
 9959POPC   C2B70304  41.731  24.308   6.750
 9959POPC   C3B70305  41.794  24.301   7.050
 9959POPC   C4B70306  41.705  24.311   7.350
 9960POPC   NC370307  30.719  44.667   5.550
 9960POPC   PO470308  30.706  44.613   5.850
 9960POPC   GL170309  30.654  44.654   6.150
 9960POPC   GL270310  30.670  44.754   6.150
 9960POPC   C1A70311  30.669  44.616   6.450
 9960POPC   D2A70312  30.680  44.699   6.750
 9960POPC   C3A70313  30.653  44.708   7.050
 9960POPC   C4A70314  30.666  44.657   7.350
 9960POPC   C1B70315  30.663  44.907   6.450
 9960POPC   C2B70316  30.685  44.885   6.750
 9960POPC   C3B70317  30.664  44.866   7.050
 9960POPC   C4B70318  30.639  44.925   7.350
 9961POPC   NC370319  23.684   4.359   5.550
 9961POPC   PO470320  23.688   4.350   5.850
 9961POPC   GL170321  23.725   4.317   6.150
 9961POPC   GL270322  23.830   4.308   6.150
 9961POPC   C1A70323  23.723   4.324   6.450
 9961POPC   D2A70324  23.667   4.276   6.750
 9961POPC   C3A70325  23.740   4.330   7.050
 9961POPC   C4A70326  23.695   4.300   7.350
 9961POPC   C1B70327  23.977   4.386   6.450
 9961POPC   C2B70328  23.939   4.340   6.750
 9961POPC   C3B70329  23.946   4.364   7.050
 9961POPC   C4B70330  23.980   4.328   7.350
 9962POPC   NC370331  11.333   2.764   5.550
 9962POPC   PO470332  11.346   2.765   5.850
 9962POPC   GL170333  11.329   2.776   6.150
 9962POPC   GL270334  11.450   2.772   6.150
 9962POPC   C1A70335  11.350   2.748   6.450
 9962POPC   D2A70336  11.332   2.736   6.750
 9962POPC   C3A70337  11.293   2.795   7.050
 9962POPC   C4A70338  11.266   2.744   7.350
 9962POPC   C1B70339  11.529   2.837   6.450
 9962POPC   C2B70340  11.576   2.841   6.750
 9962POPC   C3B70341  11.535   2.864   7.050
 9962POPC   C4B70342  11.515   2.866   7.350
 9963POPC   NC370343  17.519  11.284   5.550
 9963POPC   PO470344  17.528  11.336   5.850
 9963POPC   GL170345  17.555  11.325   6.150
 9963POPC   GL270346  17.568  11.266   6.150
 9963POPC   C1A70347  17.507  11.305   6.450
 9963POPC   D2A70348  17.532  11.250   6.750
 9963POPC   C3A70349  17.517  11.256   7.050
 9963POPC   C4A70350  17.531  11.321   7.350
 9963POPC   C1B70351  17.688  11.103   6.450
 9963POPC   C2B70352  17.701  11.161   6.750
 9963POPC   C3B70353  17.744  11.194   7.050
 9963POPC   C4B70354  17.739  11.167   7.350
 9964POPC   NC370355  29.923   2.752   5.550
 9964POPC   PO470356  29.960   2.795   5.850
 9964POPC   GL170357  29.944   2.772   6.150
 9964POPC   GL270358  29.822   2.870   6.150
 9964POPC   C1A70359  29.948   2.719   6.450
 9964POPC   D2A70360  29.946   2.784   6.750
 9964POPC   C3A70361  29.953   2.734   7.050
 9964POPC   C4A70362  29.873   2.736   7.350
 9964POPC   C1B70363  29.739   2.931   6.450
 9964POPC   C2B70364  29.754   2.972   6.750
 9964POPC   C3B70365  29.764   2.966   7.050
 9964POPC   C4B70366  29.739   2.979   7.350
 9965POPC   NC370367   8.219  12.115   5.550
 9965POPC   PO470368   8.211  12.098   5.850
 9965POPC   GL170369   8.197  12.086   6.150
 9965POPC   GL270370   8.274  12.146   6.150
 9965POPC   C1A70371   8.182  12.031   6.450
 9965POPC   D2A70372   8.211  12.101   6.750
 9965POPC   C3A70373   8.189  12.097   7.050
 9965POPC   C4A70374   8.241  12.087   7.350
 9965POPC   C1B70375   8.300  12.346   6.450
 9965POPC   C2B70376   8.295  12.310   6.750
 9965POPC   C3B70377   8.341  12.286   7.050
 9965POPC   C4B70378   8.342  12.318   7.350
 9966POPC   NC370379  10.529  17.555   5.550
 9966POPC   PO470380  10.515  17.473   5.850
 9966POPC   GL170381  10.500  17.493   6.150
 9966POPC   GL270382  10.364  17.499   6.150
 9966POPC   C1A70383  10.498  17.509   6.450
 9966POPC   D2A70384  10.536  17.539   6.750
 9966POPC   C3A70385  10.536  17.531   7.050
 9966POPC   C4A70386  10.500  17.555   7.350
 9966POPC   C1B70387  10.292  17.536   6.450
 9966POPC   C2B70388  10.281  17.573   6.750
 9966POPC   C3B70389  10.235  17.482   7.050
 9966POPC   C4B70390  10.256  17.538   7.350
 9967POPC   NC370391  39.272   1.194   5.550
 9967POPC   PO470392  39.264   1.229   5.850
 9967POPC   GL170393  39.192   1.168   6.150
 9967POPC   GL270394  39.217   1.045   6.150
 9967POPC   C1A70395  39.228   1.168   6.450
 9967POPC   D2A70396  39.188   1.252   6.750
 9967POPC   C3A70397  39.237   1.172   7.050
 9967POPC   C4A70398  39.232   1.261   7.350
 9967POPC   C1B70399  39.299   0.996   6.450
 9967POPC   C2B70400  39.237   0.995   6.750
 9967POPC   C3B70401  39.303   0.968   7.050
 9967POPC   C4B70402  39.231   0.950   7.350
 9968POPC   NC370403  26.035  22.171   5.550
 9968POPC   PO470404  26.063  22.144   5.850
 9968POPC   GL170405  26.019  22.122   6.150
 9968POPC   GL270406  26.021  22.274   6.150
 9968POPC   C1A70407  26.002  22.188   6.450
 9968POPC   D2A70408  26.050  22.202   6.750
 9968POPC   C3A70409  26.039  22.135   7.050
 9968POPC   C4A70410  26.091  22.116   7.350
 9968POPC   C1B70411  26.022  22.440   6.450
 9968POPC   C2B70412  26.027  22.424   6.750
 9968POPC   C3B70413  26.033  22.409   7.050
 9968POPC   C4B70414  26.049  22.404   7.350
 9969POPC   NC370415  42.374  38.478   5.550
 9969POPC   PO470416  42.382  38.495   5.850
 9969POPC   GL170417  42.327  38.417   6.150
 9969POPC   GL270418  42.362  38.362   6.150
 9969POPC   C1A70419  42.296  38.478   6.450
 9969POPC   D2A70420  42.331  38.499   6.750
 9969POPC   C3A70421  42.306  38.462   7.050
 9969POPC   C4A70422  42.366  38.454   7.350
 9969POPC   C1B70423  42.388  38.230   6.450
 9969POPC   C2B70424  42.403  38.243   6.750
 9969POPC   C3B70425  42.447  38.245   7.050
 9969POPC   C4B70426  42.411  38.197   7.350
 9970POPC   NC370427   8.211  39.261   5.550
 9970POPC   PO470428   8.225  39.226   5.850
 9970POPC   GL170429   8.190  39.271   6.150
 9970POPC   GL270430   8.094  39.223   6.150
 9970POPC   C1A70431   8.197  39.191   6.450
 9970POPC   D2A70432   8.232  39.185   6.750
 9970POPC   C3A70433   8.218  39.188   7.050
 9970POPC   C4A70434   8.190  39.251   7.350
 9970POPC   C1B70435   7.992  39.267   6.450
 9970POPC   C2B70436   7.901  39.285   6.750
 9970POPC   C3B70437   7.912  39.232   7.050
 9970POPC   C4B70438   7.898  39.235   7.350
 9971POPC   NC370439  23.715  21.414   5.550
 9971POPC   PO470440  23.683  21.417   5.850
 9971POPC   GL170441  23.731  21.401   6.150
 9971POPC   GL270442  23.633  21.439   6.150
 9971POPC   C1A70443  23.737  21.404   6.450
 9971POPC   D2A70444  23.666  21.374   6.750
 9971POPC   C3A70445  23.734  21.431   7.050
 9971POPC   C4A70446  23.669  21.354   7.350
 9971POPC   C1B70447  23.463  21.514   6.450
 9971POPC   C2B70448  23.477  21.537   6.750
 9971POPC   C3B70449  23.490  21.511   7.050
 9971POPC   C4B70450  23.469  21.472   7.350
 9972POPC   NC370451  30.704  43.129   5.550
 9972POPC   PO470452  30.663  43.153   5.850
 9972POPC   GL170453  30.741  43.131   6.150
 9972POPC   GL270454  30.702  42.945   6.150
 9972POPC   C1A70455  30.696  43.149   6.450
 9972POPC   D2A70456  30.741  43.135   6.750
 9972POPC   C3A70457  30.653  43.149   7.050
 9972POPC   C4A70458  30.737  43.102   7.350
 9972POPC   C1B70459  30.725  42.821   6.450
 9972POPC   C2B70460  30.732  42.847   6.750
 9972POPC   C3B70461  30.689  42.862   7.050
 9972POPC   C4B70462  30.698  42.815   7.350
 9973POPC   NC370463  35.376   9.794   5.550
 9973POPC   PO470464  35.314   9.725   5.850
 9973POPC   GL170465  35.349   9.727   6.150
 9973POPC   GL270466  35.392   9.888   6.150
 9973POPC   C1A70467  35.352   9.755   6.450
 9973POPC   D2A70468  35.332   9.767   6.750
 9973POPC   C3A70469  35.361   9.719   7.050
 9973POPC   C4A70470  35.392   9.774   7.350
 9973POPC   C1B70471  35.418  10.019   6.450
 9973POPC   C2B70472  35.406   9.942   6.750
 9973POPC   C3B70473  35.361  10.041   7.050
 9973POPC   C4B70474  35.444  10.006   7.350
 9974POPC   NC370475  29.177   4.290   5.550
 9974POPC   PO470476  29.107   4.365   5.850
 9974POPC   GL170477  29.190   4.318   6.150
 9974POPC   GL270478  29.091   4.402   6.150
 9974POPC   C1A70479  29.113   4.289   6.450
 9974POPC   D2A70480  29.101   4.312   6.750
 9974POPC   C3A70481  29.191   4.350   7.050
 9974POPC   C4A70482  29.189   4.301   7.350
 9974POPC   C1B70483  29.056   4.568   6.450
 9974POPC   C2B70484  28.990   4.548   6.750
 9974POPC   C3B70485  29.001   4.515   7.050
 9974POPC   C4B70486  29.020   4.587   7.350
 9975POPC   NC370487  35.351  43.148   5.550
 9975POPC   PO470488  35.305  43.077   5.850
 9975POPC   GL170489  35.318  43.139   6.150
 9975POPC   GL270490  35.434  43.056   6.150
 9975POPC   C1A70491  35.396  43.148   6.450
 9975POPC   D2A70492  35.349  43.140   6.750
 9975POPC   C3A70493  35.400  43.146   7.050
 9975POPC   C4A70494  35.370  43.137   7.350
 9975POPC   C1B70495  35.560  43.042   6.450
 9975POPC   C2B70496  35.625  43.054   6.750
 9975POPC   C3B70497  35.565  43.045   7.050
 9975POPC   C4B70498  35.602  43.026   7.350
 9976POPC   NC370499   9.715   4.283   5.550
 9976POPC   PO470500   9.721   4.336   5.850
 9976POPC   GL170501   9.715   4.356   6.150
 9976POPC   GL270502   9.744   4.239   6.150
 9976POPC   C1A70503   9.713   4.285   6.450
 9976POPC   D2A70504   9.737   4.286   6.750
 9976POPC   C3A70505   9.769   4.276   7.050
 9976POPC   C4A70506   9.739   4.346   7.350
 9976POPC   C1B70507   9.750   4.111   6.450
 9976POPC   C2B70508   9.743   4.096   6.750
 9976POPC   C3B70509   9.757   4.080   7.050
 9976POPC   C4B70510   9.726   4.029   7.350
 9977POPC   NC370511   2.743  31.487   5.550
 9977POPC   PO470512   2.777  31.466   5.850
 9977POPC   GL170513   2.744  31.486   6.150
 9977POPC   GL270514   2.660  31.371   6.150
 9977POPC   C1A70515   2.765  31.494   6.450
 9977POPC   D2A70516   2.734  31.509   6.750
 9977POPC   C3A70517   2.717  31.447   7.050
 9977POPC   C4A70518   2.719  31.479   7.350
 9977POPC   C1B70519   2.616  31.244   6.450
 9977POPC   C2B70520   2.606  31.222   6.750
 9977POPC   C3B70521   2.631  31.292   7.050
 9977POPC   C4B70522   2.627  31.218   7.350
 9978POPC   NC370523  29.964   0.424   5.550
 9978POPC   PO470524  29.899   0.487   5.850
 9978POPC   GL170525  29.936   0.427   6.150
 9978POPC   GL270526  29.785   0.432   6.150
 9978POPC   C1A70527  29.899   0.486   6.450
 9978POPC   D2A70528  29.881   0.399   6.750
 9978POPC   C3A70529  29.960   0.440   7.050
 9978POPC   C4A70530  29.925   0.450   7.350
 9978POPC   C1B70531  29.642   0.525   6.450
 9978POPC   C2B70532  29.705   0.526   6.750
 9978POPC   C3B70533  29.634   0.529   7.050
 9978POPC   C4B70534  29.690   0.554   7.350
 9979POPC   NC370535   3.572  32.274   5.550
 9979POPC   PO470536   3.506  32.270   5.850
 9979POPC   GL170537   3.589  32.254   6.150
 9979POPC   GL270538   3.546  32.167   6.150
 9979POPC   C1A70539   3.521  32.281   6.450
 9979POPC   D2A70540   3.557  32.218   6.750
 9979POPC   C3A70541   3.533  32.249   7.050
 9979POPC   C4A70542   3.542  32.242   7.350
 9979POPC   C1B70543   3.526  31.959   6.450
 9979POPC   C2B70544   3.482  32.050   6.750
 9979POPC   C3B70545   3.462  31.957   7.050
 9979POPC   C4B70546   3.506  32.030   7.350
 9980POPC   NC370547  36.086  22.142   5.550
 9980POPC   PO470548  36.132  22.191   5.850
 9980POPC   GL170549  36.113  22.113   6.150
 9980POPC   GL270550  36.010  22.209   6.150
 9980POPC   C1A70551  36.145  22.178   6.450
 9980POPC   D2A70552  36.123  22.140   6.750
 9980POPC   C3A70553  36.113  22.124   7.050
 9980POPC   C4A70554  36.159  22.154   7.350
 9980POPC   C1B70555  35.909  22.329   6.450
 9980POPC   C2B70556  35.958  22.360   6.750
 9980POPC   C3B70557  35.923  22.383   7.050
 9980POPC   C4B70558  35.909  22.332   7.350
 9981POPC   NC370559  16.689  28.335   5.550
 9981POPC   PO470560  16.751  28.341   5.850
 9981POPC   GL170561  16.766  28.355   6.150
 9981POPC   GL270562  16.761  28.267   6.150
 9981POPC   C1A70563  16.711  28.390   6.450
 9981POPC   D2A70564  16.746  28.398   6.750
 9981POPC   C3A70565  16.733  28.352   7.050
 9981POPC   C4A70566  16.721  28.395   7.350
 9981POPC   C1B70567  16.729  28.128   6.450
 9981POPC   C2B70568  16.790  28.156   6.750
 9981POPC   C3B70569  16.704  28.158   7.050
 9981POPC   C4B70570  16.716  28.089   7.350
 9982POPC   NC370571   3.539  22.200   5.550
 9982POPC   PO470572   3.536  22.193   5.850
 9982POPC   GL170573   3.494  22.162   6.150
 9982POPC   GL270574   3.464  22.307   6.150
 9982POPC   C1A70575   3.527  22.199   6.450
 9982POPC   D2A70576   3.560  22.210   6.750
 9982POPC   C3A70577   3.514  22.135   7.050
 9982POPC   C4A70578   3.557  22.113   7.350
 9982POPC   C1B70579   3.456  22.437   6.450
 9982POPC   C2B70580   3.478  22.375   6.750
 9982POPC   C3B70581   3.492  22.431   7.050
 9982POPC   C4B70582   3.400  22.348   7.350
 9983POPC   NC370583   2.746  18.251   5.550
 9983POPC   PO470584   2.799  18.312   5.850
 9983POPC   GL170585   2.811  18.298   6.150
 9983POPC   GL270586   2.623  18.343   6.150
 9983POPC   C1A70587   2.785  18.295   6.450
 9983POPC   D2A70588   2.765  18.235   6.750
 9983POPC   C3A70589   2.742  18.310   7.050
 9983POPC   C4A70590   2.718  18.326   7.350
 9983POPC   C1B70591   2.548  18.323   6.450
 9983POPC   C2B70592   2.501  18.330   6.750
 9983POPC   C3B70593   2.534  18.318   7.050
 9983POPC   C4B70594   2.544  18.307   7.350
 9984POPC   NC370595  19.815  15.987   5.550
 9984POPC   PO470596  19.862  15.969   5.850
 9984POPC   GL170597  19.796  15.998   6.150
 9984POPC   GL270598  19.898  15.787   6.150
 9984POPC   C1A70599  19.874  15.942   6.450
 9984POPC   D2A70600  19.797  15.990   6.750
 9984POPC   C3A70601  19.842  15.909   7.050
 9984POPC   C4A70602  19.842  15.978   7.350
 9984POPC   C1B70603  19.914  15.733   6.450
 9984POPC   C2B70604  19.899  15.746   6.750
 9984POPC   C3B70605  19.885  15.728   7.050
 9984POPC   C4B70606  19.935  15.680   7.350
 9985POPC   NC370607   2.016   6.687   5.550
 9985POPC   PO470608   1.993   6.651   5.850
 9985POPC   GL170609   2.025   6.630   6.150
 9985POPC   GL270610   2.107   6.716   6.150
 9985POPC   C1A70611   1.949   6.629   6.450
 9985POPC   D2A70612   2.026   6.631   6.750
 9985POPC   C3A70613   2.027   6.601   7.050
 9985POPC   C4A70614   2.012   6.614   7.350
 9985POPC   C1B70615   2.219   6.862   6.450
 9985POPC   C2B70616   2.181   6.850   6.750
 9985POPC   C3B70617   2.207   6.780   7.050
 9985POPC   C4B70618   2.152   6.776   7.350
 9986POPC   NC370619  36.897  38.412   5.550
 9986POPC   PO470620  36.893  38.500   5.850
 9986POPC   GL170621  36.888  38.490   6.150
 9986POPC   GL270622  36.906  38.289   6.150
 9986POPC   C1A70623  36.873  38.470   6.450
 9986POPC   D2A70624  36.895  38.497   6.750
 9986POPC   C3A70625  36.918  38.433   7.050
 9986POPC   C4A70626  36.858  38.461   7.350
 9986POPC   C1B70627  36.994  38.172   6.450
 9986POPC   C2B70628  36.975  38.260   6.750
 9986POPC   C3B70629  37.027  38.250   7.050
 9986POPC   C4B70630  37.005  38.266   7.350
 9987POPC   NC370631   2.754   0.442   5.550
 9987POPC   PO470632   2.776   0.463   5.850
 9987POPC   GL170633   2.791   0.403   6.150
 9987POPC   GL270634   2.691   0.561   6.150
 9987POPC   C1A70635   2.811   0.422   6.450
 9987POPC   D2A70636   2.775   0.435   6.750
 9987POPC   C3A70637   2.748   0.435   7.050
 9987POPC   C4A70638   2.732   0.412   7.350
 9987POPC   C1B70639   2.641   0.630   6.450
 9987POPC   C2B70640   2.689   0.633   6.750
 9987POPC   C3B70641   2.709   0.646   7.050
 9987POPC   C4B70642   2.718   0.640   7.350
 9988POPC   NC370643  36.150  29.169   5.550
 9988POPC   PO470644  36.165  29.148   5.850
 9988POPC   GL170645  36.103  29.099   6.150
 9988POPC   GL270646  36.242  29.181   6.150
 9988POPC   C1A70647  36.148  29.151   6.450
 9988POPC   D2A70648  36.081  29.155   6.750
 9988POPC   C3A70649  36.117  29.111   7.050
 9988POPC   C4A70650  36.155  29.114   7.350
 9988POPC   C1B70651  36.299  29.270   6.450
 9988POPC   C2B70652  36.296  29.271   6.750
 9988POPC   C3B70653  36.304  29.252   7.050
 9988POPC   C4B70654  36.365  29.327   7.350
 9989POPC   NC370655  12.893  27.548   5.550
 9989POPC   PO470656  12.803  27.628   5.850
 9989POPC   GL170657  12.833  27.553   6.150
 9989POPC   GL270658  12.860  27.720   6.150
 9989POPC   C1A70659  12.866  27.566   6.450
 9989POPC   D2A70660  12.854  27.556   6.750
 9989POPC   C3A70661  12.899  27.614   7.050
 9989POPC   C4A70662  12.817  27.596   7.350
 9989POPC   C1B70663  12.801  27.799   6.450
 9989POPC   C2B70664  12.813  27.861   6.750
 9989POPC   C3B70665  12.788  27.833   7.050
 9989POPC   C4B70666  12.856  27.862   7.350
 9990POPC   NC370667  33.031  12.102   5.550
 9990POPC   PO470668  33.040  12.049   5.850
 9990POPC   GL170669  33.032  12.077   6.150
 9990POPC   GL270670  33.012  12.209   6.150
 9990POPC   C1A70671  33.055  12.115   6.450
 9990POPC   D2A70672  33.058  12.076   6.750
 9990POPC   C3A70673  32.990  12.090   7.050
 9990POPC   C4A70674  33.004  12.048   7.350
 9990POPC   C1B70675  32.874  12.333   6.450
 9990POPC   C2B70676  32.931  12.296   6.750
 9990POPC   C3B70677  32.939  12.296   7.050
 9990POPC   C4B70678  32.944  12.285   7.350
 9991POPC   NC370679  28.410  28.367   5.550
 9991POPC   PO470680  28.405  28.406   5.850
 9991POPC   GL170681  28.348  28.412   6.150
 9991POPC   GL270682  28.238  28.446   6.150
 9991POPC   C1A70683  28.374  28.409   6.450
 9991POPC   D2A70684  28.411  28.348   6.750
 9991POPC   C3A70685  28.337  28.384   7.050
 9991POPC   C4A70686  28.346  28.382   7.350
 9991POPC   C1B70687  28.217  28.507   6.450
 9991POPC   C2B70688  28.166  28.569   6.750
 9991POPC   C3B70689  28.237  28.559   7.050
 9991POPC   C4B70690  28.180  28.506   7.350
 9992POPC   NC370691  37.724   1.166   5.550
 9992POPC   PO470692  37.654   1.204   5.850
 9992POPC   GL170693  37.638   1.171   6.150
 9992POPC   GL270694  37.759   1.316   6.150
 9992POPC   C1A70695  37.647   1.229   6.450
 9992POPC   D2A70696  37.659   1.209   6.750
 9992POPC   C3A70697  37.652   1.206   7.050
 9992POPC   C4A70698  37.668   1.234   7.350
 9992POPC   C1B70699  37.835   1.342   6.450
 9992POPC   C2B70700  37.912   1.393   6.750
 9992POPC   C3B70701  37.861   1.417   7.050
 9992POPC   C4B70702  37.838   1.359   7.350
 9993POPC   NC370703  20.614  37.662   5.550
 9993POPC   PO470704  20.610  37.643   5.850
 9993POPC   GL170705  20.605  37.723   6.150
 9993POPC   GL270706  20.480  37.696   6.150
 9993POPC   C1A70707  20.570  37.690   6.450
 9993POPC   D2A70708  20.654  37.717   6.750
 9993POPC   C3A70709  20.585  37.682   7.050
 9993POPC   C4A70710  20.564  37.663   7.350
 9993POPC   C1B70711  20.333  37.609   6.450
 9993POPC   C2B70712  20.397  37.601   6.750
 9993POPC   C3B70713  20.326  37.596   7.050
 9993POPC   C4B70714  20.370  37.681   7.350
 9994POPC   NC370715  33.072   0.401   5.550
 9994POPC   PO470716  32.994   0.460   5.850
 9994POPC   GL170717  33.068   0.423   6.150
 9994POPC   GL270718  33.183   0.418   6.150
 9994POPC   C1A70719  33.022   0.407   6.450
 9994POPC   D2A70720  33.007   0.396   6.750
 9994POPC   C3A70721  33.020   0.393   7.050
 9994POPC   C4A70722  33.054   0.478   7.350
 9994POPC   C1B70723  33.275   0.369   6.450
 9994POPC   C2B70724  33.270   0.381   6.750
 9994POPC   C3B70725  33.272   0.351   7.050
 9994POPC   C4B70726  33.298   0.341   7.350
 9995POPC   NC370727   5.076  36.104   5.550
 9995POPC   PO470728   5.071  36.104   5.850
 9995POPC   GL170729   5.103  36.122   6.150
 9995POPC   GL270730   5.040  36.236   6.150
 9995POPC   C1A70731   5.129  36.176   6.450
 9995POPC   D2A70732   5.143  36.083   6.750
 9995POPC   C3A70733   5.094  36.095   7.050
 9995POPC   C4A70734   5.076  36.139   7.350
 9995POPC   C1B70735   4.958  36.366   6.450
 9995POPC   C2B70736   4.994  36.349   6.750
 9995POPC   C3B70737   5.023  36.393   7.050
 9995POPC   C4B70738   5.031  36.337   7.350
 9996POPC   NC370739  26.041  38.457   5.550
 9996POPC   PO470740  26.076  38.418   5.850
 9996POPC   GL170741  25.995  38.480   6.150
 9996POPC   GL270742  26.096  38.539   6.150
 9996POPC   C1A70743  26.048  38.446   6.450
 9996POPC   D2A70744  25.996  38.487   6.750
 9996POPC   C3A70745  25.998  38.504   7.050
 9996POPC   C4A70746  26.046  38.450   7.350
 9996POPC   C1B70747  26.006  38.659   6.450
 9996POPC   C2B70748  26.076  38.679   6.750
 9996POPC   C3B70749  26.061  38.677   7.050
 9996POPC   C4B70750  26.031  38.679   7.350
 9997POPC   NC370751  14.446   7.410   5.550
 9997POPC   PO470752  14.438   7.465   5.850
 9997POPC   GL170753  14.392   7.468   6.150
 9997POPC   GL270754  14.309   7.274   6.150
 9997POPC   C1A70755  14.445   7.402   6.450
 9997POPC   D2A70756  14.359   7.374   6.750
 9997POPC   C3A70757  14.355   7.410   7.050
 9997POPC   C4A70758  14.410   7.460   7.350
 9997POPC   C1B70759  14.282   7.175   6.450
 9997POPC   C2B70760  14.286   7.186   6.750
 9997POPC   C3B70761  14.245   7.236   7.050
 9997POPC   C4B70762  14.232   7.165   7.350
 9998POPC   NC370763  26.049  28.394   5.550
 9998POPC   PO470764  26.001  28.352   5.850
 9998POPC   GL170765  26.046  28.330   6.150
 9998POPC   GL270766  26.203  28.335   6.150
 9998POPC   C1A70767  26.015  28.416   6.450
 9998POPC   D2A70768  26.029  28.375   6.750
 9998POPC   C3A70769  26.047  28.372   7.050
 9998POPC   C4A70770  26.023  28.355   7.350
 9998POPC   C1B70771  26.273  28.410   6.450
 9998POPC   C2B70772  26.242  28.364   6.750
 9998POPC   C3B70773  26.274  28.409   7.050
 9998POPC   C4B70774  26.317  28.345   7.350
 9999POPC   NC370775  44.674  41.531   5.550
 9999POPC   PO470776  44.693  41.540   5.850
 9999POPC   GL170777  44.673  41.568   6.150
 9999POPC   GL270778  44.758  41.540   6.150
 9999POPC   C1A70779  44.700  41.594   6.450
 9999POPC   D2A70780  44.682  41.510   6.750
 9999POPC   C3A70781  44.696  41.522   7.050
 9999POPC   C4A70782  44.707  41.549   7.350
 9999POPC   C1B70783  44.951  41.611   6.450
 9999POPC   C2B70784  44.869  41.568   6.750
 9999POPC   C3B70785  44.874  41.616   7.050
 9999POPC   C4B70786  44.874  41.598   7.350
10000POPC   NC370787  22.948  32.232   5.550
10000POPC   PO470788  22.977  32.265   5.850
10000POPC   GL170789  22.979  32.260   6.150
10000POPC   GL270790  22.896  32.356   6.150
10000POPC   C1A70791  22.914  32.251   6.450
10000POPC   D2A70792  22.906  32.228   6.750
10000POPC   C3A70793  22.979  32.201   7.050
10000POPC   C4A70794  22.945  32.259   7.350
10000POPC   C1B70795  22.840  32.492   6.450
10000POPC   C2B70796  22.828  32.476   6.750
10000POPC   C3B70797  22.825  32.459   7.050
10000POPC   C4B70798  22.811  32.469   7.350
10001POPC   NC370799  31.476  29.942   5.550
10001POPC   PO470800  31.495  29.878   5.850
10001POPC   GL170801  31.479  29.933   6.150
10001POPC   GL270802  31.512  30.019   6.150
10001POPC   C1A70803  31.464  29.908   6.450
10001POPC   D2A70804  31.488  29.886   6.750
10001POPC   C3A70805  31.433  29.936   7.050
10001POPC   C4A70806  31.487  29.883   7.350
10001POPC   C1B70807  31.532  30.189   6.450
10001POPC   C2B70808  31.605  30.134   6.750
10001POPC   C3B70809  31.577  30.110   7.050
10001POPC   C4B70810  31.532  30.110   7.350
10002POPC   NC370811   2.788  30.702   5.550
10002POPC   PO470812   2.792  30.717   5.850
10002POPC   GL170813   2.806  30.731   6.150
10002POPC   GL270814   2.862  30.817   6.150
10002POPC   C1A70815   2.726  30.700   6.450
10002POPC   D2A70816   2.720  30.731   6.750
10002POPC   C3A70817   2.746  30.684   7.050
10002POPC   C4A70818   2.777  30.657   7.350
10002POPC   C1B70819   2.919  30.873   6.450
10002POPC   C2B70820   2.934  30.866   6.750
10002POPC   C3B70821   2.846  30.950   7.050
10002POPC   C4B70822   2.866  30.935   7.350
10003POPC   NC370823  44.632   5.090   5.550
10003POPC   PO470824  44.660   5.082   5.850
10003POPC   GL170825  44.697   5.085   6.150
10003POPC   GL270826  44.533   5.205   6.150
10003POPC   C1A70827  44.706   5.081   6.450
10003POPC   D2A70828  44.680   5.143   6.750
10003POPC   C3A70829  44.632   5.102   7.050
10003POPC   C4A70830  44.658   5.076   7.350
10003POPC   C1B70831  44.437   5.234   6.450
10003POPC   C2B70832  44.464   5.245   6.750
10003POPC   C3B70833  44.448   5.214   7.050
10003POPC   C4B70834  44.493   5.309   7.350
10004POPC   NC370835  40.749  33.763   5.550
10004POPC   PO470836  40.760  33.821   5.850
10004POPC   GL170837  40.820  33.792   6.150
10004POPC   GL270838  40.882  33.762   6.150
10004POPC   C1A70839  40.827  33.801   6.450
10004POPC   D2A70840  40.742  33.790   6.750
10004POPC   C3A70841  40.775  33.797   7.050
10004POPC   C4A70842  40.772  33.806   7.350
10004POPC   C1B70843  40.999  33.751   6.450
10004POPC   C2B70844  41.011  33.746   6.750
10004POPC   C3B70845  41.014  33.792   7.050
10004POPC   C4B70846  41.024  33.735   7.350
10005POPC   NC370847  28.368   7.394   5.550
10005POPC   PO470848  28.325   7.455   5.850
10005POPC   GL170849  28.371   7.466   6.150
10005POPC   GL270850  28.398   7.496   6.150
10005POPC   C1A70851  28.357   7.433   6.450
10005POPC   D2A70852  28.398   7.390   6.750
10005POPC   C3A70853  28.333   7.385   7.050
10005POPC   C4A70854  28.392   7.457   7.350
10005POPC   C1B70855  28.393   7.713   6.450
10005POPC   C2B70856  28.466   7.635   6.750
10005POPC   C3B70857  28.387   7.636   7.050
10005POPC   C4B70858  28.461   7.689   7.350
10006POPC   NC370859  22.987  22.935   5.550
10006POPC   PO470860  22.938  22.942   5.850
10006POPC   GL170861  22.945  22.965   6.150
10006POPC   GL270862  22.985  23.026   6.150
10006POPC   C1A70863  22.931  22.940   6.450
10006POPC   D2A70864  22.943  22.977   6.750
10006POPC   C3A70865  22.921  22.889   7.050
10006POPC   C4A70866  22.986  22.912   7.350
10006POPC   C1B70867  23.070  23.145   6.450
10006POPC   C2B70868  22.994  23.176   6.750
10006POPC   C3B70869  23.002  23.206   7.050
10006POPC   C4B70870  23.037  23.206   7.350
10007POPC   NC370871  26.087  26.826   5.550
10007POPC   PO470872  26.021  26.866   5.850
10007POPC   GL170873  26.076  26.840   6.150
10007POPC   GL270874  26.142  26.872   6.150
10007POPC   C1A70875  26.017  26.845   6.450
10007POPC   D2A70876  26.045  26.840   6.750
10007POPC   C3A70877  26.022  26.795   7.050
10007POPC   C4A70878  26.021  26.801   7.350
10007POPC   C1B70879  26.178  27.031   6.450
10007POPC   C2B70880  26.260  26.993   6.750
10007POPC   C3B70881  26.179  26.972   7.050
10007POPC   C4B70882  26.206  26.961   7.350
10008POPC   NC370883  37.632   2.776   5.550
10008POPC   PO470884  37.667   2.727   5.850
10008POPC   GL170885  37.677   2.783   6.150
10008POPC   GL270886  37.571   2.706   6.150
10008POPC   C1A70887  37.652   2.737   6.450
10008POPC   D2A70888  37.629   2.719   6.750
10008POPC   C3A70889  37.704   2.786   7.050
10008POPC   C4A70890  37.639   2.754   7.350
10008POPC   C1B70891  37.417   2.641   6.450
10008POPC   C2B70892  37.483   2.660   6.750
10008POPC   C3B70893  37.477   2.668   7.050
10008POPC   C4B70894  37.494   2.595   7.350
10009POPC   NC370895  26.091  24.470   5.550
10009POPC   PO470896  26.037  24.485   5.850
10009POPC   GL170897  26.013  24.522   6.150
10009POPC   GL270898  25.876  24.473   6.150
10009POPC   C1A70899  26.000  24.538   6.450
10009POPC   D2A70900  26.081  24.515   6.750
10009POPC   C3A70901  26.011  24.465   7.050
10009POPC   C4A70902  26.024  24.506   7.350
10009POPC   C1B70903  25.800  24.493   6.450
10009POPC   C2B70904  25.777  24.472   6.750
10009POPC   C3B70905  25.763  24.481   7.050
10009POPC   C4B70906  25.817  24.478   7.350
10010POPC   NC370907  39.990  19.865   5.550
10010POPC   PO470908  40.043  19.787   5.850
10010POPC   GL170909  40.053  19.800   6.150
10010POPC   GL270910  39.917  19.937   6.150
10010POPC   C1A70911  39.980  19.866   6.450
10010POPC   D2A70912  40.013  19.866   6.750
10010POPC   C3A70913  40.032  19.821   7.050
10010POPC   C4A70914  40.035  19.805   7.350
10010POPC   C1B70915  39.830  20.042   6.450
10010POPC   C2B70916  39.890  20.005   6.750
10010POPC   C3B70917  39.813  20.024   7.050
10010POPC   C4B70918  39.805  20.062   7.350
10011POPC   NC370919   2.793  42.312   5.550
10011POPC   PO470920   2.762  42.331   5.850
10011POPC   GL170921   2.791  42.336   6.150
10011POPC   GL270922   2.915  42.318   6.150
10011POPC   C1A70923   2.769  42.287   6.450
10011POPC   D2A70924   2.791  42.324   6.750
10011POPC   C3A70925   2.761  42.342   7.050
10011POPC   C4A70926   2.810  42.310   7.350
10011POPC   C1B70927   2.979  42.330   6.450
10011POPC   C2B70928   3.043  42.351   6.750
10011POPC   C3B70929   3.036  42.342   7.050
10011POPC   C4B70930   3.006  42.367   7.350
10012POPC   NC370931  15.994  37.697   5.550
10012POPC   PO470932  15.970  37.669   5.850
10012POPC   GL170933  15.980  37.646   6.150
10012POPC   GL270934  16.097  37.749   6.150
10012POPC   C1A70935  15.944  37.660   6.450
10012POPC   D2A70936  15.959  37.676   6.750
10012POPC   C3A70937  15.979  37.634   7.050
10012POPC   C4A70938  15.972  37.699   7.350
10012POPC   C1B70939  16.157  37.716   6.450
10012POPC   C2B70940  16.237  37.757   6.750
10012POPC   C3B70941  16.204  37.722   7.050
10012POPC   C4B70942  16.184  37.739   7.350
10013POPC   NC370943  28.323  36.926   5.550
10013POPC   PO470944  28.392  36.864   5.850
10013POPC   GL170945  28.388  36.946   6.150
10013POPC   GL270946  28.356  37.057   6.150
10013POPC   C1A70947  28.388  36.925   6.450
10013POPC   D2A70948  28.333  36.914   6.750
10013POPC   C3A70949  28.332  36.911   7.050
10013POPC   C4A70950  28.378  36.895   7.350
10013POPC   C1B70951  28.379  37.190   6.450
10013POPC   C2B70952  28.438  37.144   6.750
10013POPC   C3B70953  28.397  37.162   7.050
10013POPC   C4B70954  28.403  37.181   7.350
10014POPC   NC370955  44.667  26.777   5.550
10014POPC   PO470956  44.692  26.804   5.850
10014POPC   GL170957  44.649  26.769   6.150
10014POPC   GL270958  44.646  26.920   6.150
10014POPC   C1A70959  44.681  26.820   6.450
10014POPC   D2A70960  44.625  26.806   6.750
10014POPC   C3A70961  44.653  26.864   7.050
10014POPC   C4A70962  44.632  26.798   7.350
10014POPC   C1B70963  44.656  27.108   6.450
10014POPC   C2B70964  44.618  27.052   6.750
10014POPC   C3B70965  44.693  27.106   7.050
10014POPC   C4B70966  44.629  27.096   7.350
10015POPC   NC370967   0.431  12.894   5.550
10015POPC   PO470968   0.435  12.872   5.850
10015POPC   GL170969   0.452  12.845   6.150
10015POPC   GL270970   0.538  12.897   6.150
10015POPC   C1A70971   0.396  12.843   6.450
10015POPC   D2A70972   0.434  12.897   6.750
10015POPC   C3A70973   0.454  12.885   7.050
10015POPC   C4A70974   0.412  12.863   7.350
10015POPC   C1B70975   0.631  13.007   6.450
10015POPC   C2B70976   0.608  13.043   6.750
10015POPC   C3B70977   0.559  13.024   7.050
10015POPC   C4B70978   0.602  13.045   7.350
10016POPC   NC370979  10.531  38.451   5.550
10016POPC   PO470980  10.525  38.422   5.850
10016POPC   GL170981  10.488  38.411   6.150
10016POPC   GL270982  10.595  38.540   6.150
10016POPC   C1A70983  10.485  38.504   6.450
10016POPC   D2A70984  10.568  38.474   6.750
10016POPC   C3A70985  10.510  38.411   7.050
10016POPC   C4A70986  10.492  38.408   7.350
10016POPC   C1B70987  10.677  38.645   6.450
10016POPC   C2B70988  10.725  38.617   6.750
10016POPC   C3B70989  10.632  38.638   7.050
10016POPC   C4B70990  10.725  38.650   7.350
10017POPC   NC370991   5.867  43.148   5.550
10017POPC   PO470992   5.905  43.096   5.850
10017POPC   GL170993   5.888  43.089   6.150
10017POPC   GL270994   5.773  43.028   6.150
10017POPC   C1A70995   5.918  43.093   6.450
10017POPC   D2A70996   5.849  43.146   6.750
10017POPC   C3A70997   5.843  43.158   7.050
10017POPC   C4A70998   5.899  43.101   7.350
10017POPC   C1B70999   5.687  42.968   6.450
10017POPC   C2B71000   5.668  42.994   6.750
10017POPC   C3B71001   5.599  43.001   7.050
10017POPC   C4B71002   5.620  43.034   7.350
10018POPC   NC371003  19.875  38.495   5.550
10018POPC   PO471004  19.815  38.499   5.850
10018POPC   GL171005  19.828  38.412   6.150
10018POPC   GL271006  19.921  38.386   6.150
10018POPC   C1A71007  19.809  38.453   6.450
10018POPC   D2A71008  19.821  38.442   6.750
10018POPC   C3A71009  19.843  38.491   7.050
10018POPC   C4A71010  19.790  38.461   7.350
10018POPC   C1B71011  19.999  38.257   6.450
10018POPC   C2B71012  19.964  38.277   6.750
10018POPC   C3B71013  19.906  38.236   7.050
10018POPC   C4B71014  19.936  38.272   7.350
10019POPC   NC371015   5.885  29.884   5.550
10019POPC   PO471016   5.913  29.889   5.850
10019POPC   GL171017   5.846  29.884   6.150
10019POPC   GL271018   5.810  29.792   6.150
10019POPC   C1A71019   5.919  29.933   6.450
10019POPC   D2A71020   5.891  29.946   6.750
10019POPC   C3A71021   5.904  29.925   7.050
10019POPC   C4A71022   5.869  29.879   7.350
10019POPC   C1B71023   5.711  29.710   6.450
10019POPC   C2B71024   5.743  29.731   6.750
10019POPC   C3B71025   5.721  29.759   7.050
10019POPC   C4B71026   5.697  29.776   7.350
10020POPC   NC371027   7.443  44.665   5.550
10020POPC   PO471028   7.441  44.636   5.850
10020POPC   GL171029   7.422  44.672   6.150
10020POPC   GL271030   7.481  44.766   6.150
10020POPC   C1A71031   7.378  44.681   6.450
10020POPC   D2A71032   7.402  44.678   6.750
10020POPC   C3A71033   7.468  44.617   7.050
10020POPC   C4A71034   7.454  44.673   7.350
10020POPC   C1B71035   7.491  44.870   6.450
10020POPC   C2B71036   7.445  44.939   6.750
10020POPC   C3B71037   7.500  44.916   7.050
10020POPC   C4B71038   7.523  44.887   7.350
10021POPC   NC371039  44.640  11.319   5.550
10021POPC   PO471040  44.643  11.260   5.850
10021POPC   GL171041  44.667  11.326   6.150
10021POPC   GL271042  44.668  11.135   6.150
10021POPC   C1A71043  44.651  11.261   6.450
10021POPC   D2A71044  44.635  11.325   6.750
10021POPC   C3A71045  44.668  11.254   7.050
10021POPC   C4A71046  44.674  11.312   7.350
10021POPC   C1B71047  44.572  11.094   6.450
10021POPC   C2B71048  44.619  11.073   6.750
10021POPC   C3B71049  44.551  11.100   7.050
10021POPC   C4B71050  44.569  11.042   7.350
10022POPC   NC371051   5.856  32.995   5.550
10022POPC   PO471052   5.821  33.001   5.850
10022POPC   GL171053   5.906  33.064   6.150
10022POPC   GL271054   5.930  33.099   6.150
10022POPC   C1A71055   5.913  33.053   6.450
10022POPC   D2A71056   5.840  33.003   6.750
10022POPC   C3A71057   5.829  33.054   7.050
10022POPC   C4A71058   5.857  33.046   7.350
10022POPC   C1B71059   5.947  33.227   6.450
10022POPC   C2B71060   6.020  33.283   6.750
10022POPC   C3B71061   5.946  33.223   7.050
10022POPC   C4B71062   5.977  33.209   7.350
10023POPC   NC371063  37.692  15.170   5.550
10023POPC   PO471064  37.679  15.155   5.850
10023POPC   GL171065  37.651  15.222   6.150
10023POPC   GL271066  37.753  15.049   6.150
10023POPC   C1A71067  37.686  15.169   6.450
10023POPC   D2A71068  37.708  15.209   6.750
10023POPC   C3A71069  37.641  15.228   7.050
10023POPC   C4A71070  37.650  15.154   7.350
10023POPC   C1B71071  37.787  14.997   6.450
10023POPC   C2B71072  37.785  15.012   6.750
10023POPC   C3B71073  37.868  14.985   7.050
10023POPC   C4B71074  37.782  15.005   7.350
10024POPC   NC371075  14.359  40.785   5.550
10024POPC   PO471076  14.429  40.771   5.850
10024POPC   GL171077  14.411  40.801   6.150
10024POPC   GL271078  14.525  40.804   6.150
10024POPC   C1A71079  14.390  40.829   6.450
10024POPC   D2A71080  14.373  40.770   6.750
10024POPC   C3A71081  14.405  40.782   7.050
10024POPC   C4A71082  14.378  40.804   7.350
10024POPC   C1B71083  14.660  40.924   6.450
10024POPC   C2B71084  14.593  40.866   6.750
10024POPC   C3B71085  14.587  40.911   7.050
10024POPC   C4B71086  14.663  40.894   7.350
10025POPC   NC371087   1.981  29.888   5.550
10025POPC   PO471088   2.039  29.875   5.850
10025POPC   GL171089   1.965  29.909   6.150
10025POPC   GL271090   1.958  30.047   6.150
10025POPC   C1A71091   2.035  29.874   6.450
10025POPC   D2A71092   1.955  29.919   6.750
10025POPC   C3A71093   2.015  29.884   7.050
10025POPC   C4A71094   1.970  29.951   7.350
10025POPC   C1B71095   1.869  30.191   6.450
10025POPC   C2B71096   1.889  30.167   6.750
10025POPC   C3B71097   1.912  30.133   7.050
10025POPC   C4B71098   1.867  30.144   7.350
10026POPC   NC371099  20.635   5.862   5.550
10026POPC   PO471100  20.644   5.858   5.850
10026POPC   GL171101  20.596   5.886   6.150
10026POPC   GL271102  20.697   5.888   6.150
10026POPC   C1A71103  20.634   5.878   6.450
10026POPC   D2A71104  20.660   5.918   6.750
10026POPC   C3A71105  20.595   5.879   7.050
10026POPC   C4A71106  20.634   5.915   7.350
10026POPC   C1B71107  20.868   5.964   6.450
10026POPC   C2B71108  20.796   5.938   6.750
10026POPC   C3B71109  20.821   5.974   7.050
10026POPC   C4B71110  20.834   5.964   7.350
10027POPC   NC371111  24.498   8.946   5.550
10027POPC   PO471112  24.465   9.009   5.850
10027POPC   GL171113  24.519   8.947   6.150
10027POPC   GL271114  24.590   8.930   6.150
10027POPC   C1A71115  24.525   8.999   6.450
10027POPC   D2A71116  24.450   8.982   6.750
10027POPC   C3A71117  24.530   8.926   7.050
10027POPC   C4A71118  24.497   9.004   7.350
10027POPC   C1B71119  24.773   8.954   6.450
10027POPC   C2B71120  24.781   8.939   6.750
10027POPC   C3B71121  24.722   8.887   7.050
10027POPC   C4B71122  24.747   8.865   7.350
10028POPC   NC371123   4.365  12.816   5.550
10028POPC   PO471124   4.295  12.883   5.850
10028POPC   GL171125   4.340  12.804   6.150
10028POPC   GL271126   4.404  12.776   6.150
10028POPC   C1A71127   4.323  12.830   6.450
10028POPC   D2A71128   4.333  12.811   6.750
10028POPC   C3A71129   4.332  12.840   7.050
10028POPC   C4A71130   4.311  12.817   7.350
10028POPC   C1B71131   4.540  12.672   6.450
10028POPC   C2B71132   4.526  12.732   6.750
10028POPC   C3B71133   4.521  12.705   7.050
10028POPC   C4B71134   4.514  12.646   7.350
10029POPC   NC371135  39.990  17.459   5.550
10029POPC   PO471136  39.958  17.459   5.850
10029POPC   GL171137  40.033  17.485   6.150
10029POPC   GL271138  40.072  17.342   6.150
10029POPC   C1A71139  40.012  17.486   6.450
10029POPC   D2A71140  40.048  17.555   6.750
10029POPC   C3A71141  39.968  17.499   7.050
10029POPC   C4A71142  40.001  17.480   7.350
10029POPC   C1B71143  40.049  17.300   6.450
10029POPC   C2B71144  40.041  17.276   6.750
10029POPC   C3B71145  40.095  17.266   7.050
10029POPC   C4B71146  40.032  17.234   7.350
10030POPC   NC371147  39.202  14.400   5.550
10030POPC   PO471148  39.252  14.359   5.850
10030POPC   GL171149  39.182  14.355   6.150
10030POPC   GL271150  39.201  14.327   6.150
10030POPC   C1A71151  39.209  14.369   6.450
10030POPC   D2A71152  39.276  14.358   6.750
10030POPC   C3A71153  39.192  14.396   7.050
10030POPC   C4A71154  39.244  14.434   7.350
10030POPC   C1B71155  39.111  14.248   6.450
10030POPC   C2B71156  39.098  14.207   6.750
10030POPC   C3B71157  39.099  14.256   7.050
10030POPC   C4B71158  39.032  14.174   7.350
10031POPC   NC371159   4.357   5.070   5.550
10031POPC   PO471160   4.278   5.102   5.850
10031POPC   GL171161   4.284   5.085   6.150
10031POPC   GL271162   4.192   5.125   6.150
10031POPC   C1A71163   4.355   5.131   6.450
10031POPC   D2A71164   4.277   5.140   6.750
10031POPC   C3A71165   4.313   5.054   7.050
10031POPC   C4A71166   4.348   5.085   7.350
10031POPC   C1B71167   4.082   5.189   6.450
10031POPC   C2B71168   4.131   5.280   6.750
10031POPC   C3B71169   4.105   5.222   7.050
10031POPC   C4B71170   4.146   5.219   7.350
10032POPC   NC371171  39.242  42.313   5.550
10032POPC   PO471172  39.204  42.311   5.850
10032POPC   GL171173  39.209  42.338   6.150
10032POPC   GL271174  39.277  42.423   6.150
10032POPC   C1A71175  39.260  42.314   6.450
10032POPC   D2A71176  39.258  42.307   6.750
10032POPC   C3A71177  39.237  42.378   7.050
10032POPC   C4A71178  39.255  42.320   7.350
10032POPC   C1B71179  39.337  42.558   6.450
10032POPC   C2B71180  39.316  42.587   6.750
10032POPC   C3B71181  39.339  42.593   7.050
10032POPC   C4B71182  39.283  42.564   7.350
10033POPC   NC371183  38.489  35.340   5.550
10033POPC   PO471184  38.476  35.328   5.850
10033POPC   GL171185  38.468  35.343   6.150
10033POPC   GL271186  38.481  35.428   6.150
10033POPC   C1A71187  38.448  35.357   6.450
10033POPC   D2A71188  38.440  35.369   6.750
10033POPC   C3A71189  38.406  35.353   7.050
10033POPC   C4A71190  38.439  35.321   7.350
10033POPC   C1B71191  38.427  35.599   6.450
10033POPC   C2B71192  38.429  35.601   6.750
10033POPC   C3B71193  38.431  35.621   7.050
10033POPC   C4B71194  38.491  35.639   7.350
10034POPC   NC371195   8.168  33.008   5.550
10034POPC   PO471196   8.217  33.073   5.850
10034POPC   GL171197   8.209  33.024   6.150
10034POPC   GL271198   8.285  33.108   6.150
10034POPC   C1A71199   8.155  33.068   6.450
10034POPC   D2A71200   8.185  33.010   6.750
10034POPC   C3A71201   8.172  33.018   7.050
10034POPC   C4A71202   8.148  32.987   7.350
10034POPC   C1B71203   8.475  33.141   6.450
10034POPC   C2B71204   8.461  33.106   6.750
10034POPC   C3B71205   8.459  33.066   7.050
10034POPC   C4B71206   8.479  33.093   7.350
10035POPC   NC371207  11.330  23.701   5.550
10035POPC   PO471208  11.275  23.718   5.850
10035POPC   GL171209  11.251  23.689   6.150
10035POPC   GL271210  11.444  23.780   6.150
10035POPC   C1A71211  11.307  23.718   6.450
10035POPC   D2A71212  11.308  23.694   6.750
10035POPC   C3A71213  11.276  23.713   7.050
10035POPC   C4A71214  11.265  23.703   7.350
10035POPC   C1B71215  11.508  23.836   6.450
10035POPC   C2B71216  11.532  23.842   6.750
10035POPC   C3B71217  11.538  23.798   7.050
10035POPC   C4B71218  11.577  23.812   7.350
10036POPC   NC371219  37.695  15.998   5.550
10036POPC   PO471220  37.689  16.004   5.850
10036POPC   GL171221  37.647  15.939   6.150
10036POPC   GL271222  37.671  15.834   6.150
10036POPC   C1A71223  37.689  15.955   6.450
10036POPC   D2A71224  37.646  15.997   6.750
10036POPC   C3A71225  37.639  15.947   7.050
10036POPC   C4A71226  37.682  15.945   7.350
10036POPC   C1B71227  37.654  15.712   6.450
10036POPC   C2B71228  37.681  15.664   6.750
10036POPC   C3B71229  37.654  15.705   7.050
10036POPC   C4B71230  37.641  15.732   7.350
10037POPC   NC371231  10.492  26.864   5.550
10037POPC   PO471232  10.542  26.781   5.850
10037POPC   GL171233  10.569  26.816   6.150
10037POPC   GL271234  10.404  26.798   6.150
10037POPC   C1A71235  10.501  26.791   6.450
10037POPC   D2A71236  10.508  26.806   6.750
10037POPC   C3A71237  10.551  26.800   7.050
10037POPC   C4A71238  10.498  26.840   7.350
10037POPC   C1B71239  10.248  26.823   6.450
10037POPC   C2B71240  10.312  26.794   6.750
10037POPC   C3B71241  10.265  26.762   7.050
10037POPC   C4B71242  10.232  26.839   7.350
10038POPC   NC371243  22.207  22.191   5.550
10038POPC   PO471244  22.198  22.195   5.850
10038POPC   GL171245  22.167  22.159   6.150
10038POPC   GL271246  22.269  22.249   6.150
10038POPC   C1A71247  22.126  22.116   6.450
10038POPC   D2A71248  22.188  22.124   6.750
10038POPC   C3A71249  22.120  22.118   7.050
10038POPC   C4A71250  22.130  22.158   7.350
10038POPC   C1B71251  22.362  22.294   6.450
10038POPC   C2B71252  22.388  22.335   6.750
10038POPC   C3B71253  22.355  22.301   7.050
10038POPC   C4B71254  22.345  22.295   7.350
10039POPC   NC371255  26.055  44.653   5.550
10039POPC   PO471256  26.055  44.632   5.850
10039POPC   GL171257  26.060  44.671   6.150
10039POPC   GL271258  26.008  44.784   6.150
10039POPC   C1A71259  25.992  44.652   6.450
10039POPC   D2A71260  26.028  44.620   6.750
10039POPC   C3A71261  25.998  44.682   7.050
10039POPC   C4A71262  26.075  44.705   7.350
10039POPC   C1B71263  25.901  44.893   6.450
10039POPC   C2B71264  25.963  44.867   6.750
10039POPC   C3B71265  25.951  44.907   7.050
10039POPC   C4B71266  25.915  44.894   7.350
10040POPC   NC371267  12.085  33.788   5.550
10040POPC   PO471268  12.086  33.833   5.850
10040POPC   GL171269  12.042  33.808   6.150
10040POPC   GL271270  11.922  33.774   6.150
10040POPC   C1A71271  12.048  33.839   6.450
10040POPC   D2A71272  12.123  33.797   6.750
10040POPC   C3A71273  12.061  33.761   7.050
10040POPC   C4A71274  12.118  33.786   7.350
10040POPC   C1B71275  11.853  33.890   6.450
10040POPC   C2B71276  11.798  33.861   6.750
10040POPC   C3B71277  11.797  33.872   7.050
10040POPC   C4B71278  11.818  33.884   7.350
10041POPC   NC371279  34.586  22.172   5.550
10041POPC   PO471280  34.558  22.145   5.850
10041POPC   GL171281  34.587  22.154   6.150
10041POPC   GL271282  34.611  22.315   6.150
10041POPC   C1A71283  34.540  22.204   6.450
10041POPC   D2A71284  34.596  22.133   6.750
10041POPC   C3A71285  34.541  22.211   7.050
10041POPC   C4A71286  34.618  22.161   7.350
10041POPC   C1B71287  34.710  22.429   6.450
10041POPC   C2B71288  34.686  22.383   6.750
10041POPC   C3B71289  34.649  22.410   7.050
10041POPC   C4B71290  34.683  22.398   7.350
10042POPC   NC371291  37.723  40.792   5.550
10042POPC   PO471292  37.669  40.819   5.850
10042POPC   GL171293  37.728  40.801   6.150
10042POPC   GL271294  37.658  40.622   6.150
10042POPC   C1A71295  37.677  40.790   6.450
10042POPC   D2A71296  37.638  40.815   6.750
10042POPC   C3A71297  37.659  40.831   7.050
10042POPC   C4A71298  37.649  40.745   7.350
10042POPC   C1B71299  37.653  40.550   6.450
10042POPC   C2B71300  37.691  40.501   6.750
10042POPC   C3B71301  37.693  40.526   7.050
10042POPC   C4B71302  37.687  40.549   7.350
10043POPC   NC371303  40.740  38.492   5.550
10043POPC   PO471304  40.822  38.475   5.850
10043POPC   GL171305  40.828  38.430   6.150
10043POPC   GL271306  40.803  38.304   6.150
10043POPC   C1A71307  40.794  38.422   6.450
10043POPC   D2A71308  40.805  38.491   6.750
10043POPC   C3A71309  40.826  38.499   7.050
10043POPC   C4A71310  40.750  38.448   7.350
10043POPC   C1B71311  40.774  38.177   6.450
10043POPC   C2B71312  40.774  38.163   6.750
10043POPC   C3B71313  40.775  38.234   7.050
10043POPC   C4B71314  40.816  38.167   7.350
10044POPC   NC371315  44.654   0.462   5.550
10044POPC   PO471316  44.649   0.407   5.850
10044POPC   GL171317  44.709   0.424   6.150
10044POPC   GL271318  44.561   0.406   6.150
10044POPC   C1A71319  44.613   0.477   6.450
10044POPC   D2A71320  44.623   0.396   6.750
10044POPC   C3A71321  44.653   0.469   7.050
10044POPC   C4A71322  44.637   0.419   7.350
10044POPC   C1B71323  44.395   0.292   6.450
10044POPC   C2B71324  44.488   0.370   6.750
10044POPC   C3B71325  44.463   0.295   7.050
10044POPC   C4B71326  44.394   0.298   7.350
10045POPC   NC371327   6.681  38.410   5.550
10045POPC   PO471328   6.661  38.500   5.850
10045POPC   GL171329   6.670  38.458   6.150
10045POPC   GL271330   6.779  38.551   6.150
10045POPC   C1A71331   6.607  38.497   6.450
10045POPC   D2A71332   6.667  38.459   6.750
10045POPC   C3A71333   6.599  38.413   7.050
10045POPC   C4A71334   6.655  38.490   7.350
10045POPC   C1B71335   6.852  38.600   6.450
10045POPC   C2B71336   6.877  38.607   6.750
10045POPC   C3B71337   6.876  38.634   7.050
10045POPC   C4B71338   6.821  38.567   7.350
10046POPC   NC371339  43.088  23.706   5.550
10046POPC   PO471340  43.110  23.697   5.850
10046POPC   GL171341  43.062  23.738   6.150
10046POPC   GL271342  43.024  23.648   6.150
10046POPC   C1A71343  43.127  23.725   6.450
10046POPC   D2A71344  43.103  23.698   6.750
10046POPC   C3A71345  43.075  23.762   7.050
10046POPC   C4A71346  43.110  23.699   7.350
10046POPC   C1B71347  42.981  23.471   6.450
10046POPC   C2B71348  42.957  23.552   6.750
10046POPC   C3B71349  42.931  23.529   7.050
10046POPC   C4B71350  42.949  23.499   7.350
10047POPC   NC371351  22.194  38.442   5.550
10047POPC   PO471352  22.113  38.476   5.850
10047POPC   GL171353  22.123  38.477   6.150
10047POPC   GL271354  22.299  38.501   6.150
10047POPC   C1A71355  22.164  38.498   6.450
10047POPC   D2A71356  22.178  38.460   6.750
10047POPC   C3A71357  22.147  38.497   7.050
10047POPC   C4A71358  22.166  38.444   7.350
10047POPC   C1B71359  22.354  38.585   6.450
10047POPC   C2B71360  22.391  38.502   6.750
10047POPC   C3B71361  22.433  38.537   7.050
10047POPC   C4B71362  22.391  38.552   7.350
10048POPC   NC371363  22.955   9.743   5.550
10048POPC   PO471364  22.927   9.745   5.850
10048POPC   GL171365  22.931   9.786   6.150
10048POPC   GL271366  23.062   9.736   6.150
10048POPC   C1A71367  22.933   9.723   6.450
10048POPC   D2A71368  22.947   9.797   6.750
10048POPC   C3A71369  22.921   9.790   7.050
10048POPC   C4A71370  22.937   9.769   7.350
10048POPC   C1B71371  23.147   9.636   6.450
10048POPC   C2B71372  23.167   9.667   6.750
10048POPC   C3B71373  23.213   9.642   7.050
10048POPC   C4B71374  23.166   9.679   7.350
10049POPC   NC371375  24.457  20.575   5.550
10049POPC   PO471376  24.478  20.640   5.850
10049POPC   GL171377  24.484  20.633   6.150
10049POPC   GL271378  24.567  20.722   6.150
10049POPC   C1A71379  24.537  20.635   6.450
10049POPC   D2A71380  24.492  20.652   6.750
10049POPC   C3A71381  24.451  20.597   7.050
10049POPC   C4A71382  24.505  20.608   7.350
10049POPC   C1B71383  24.562  20.797   6.450
10049POPC   C2B71384  24.554  20.801   6.750
10049POPC   C3B71385  24.578  20.852   7.050
10049POPC   C4B71386  24.619  20.867   7.350
10050POPC   NC371387  12.122   6.598   5.550
10050POPC   PO471388  12.047   6.692   5.850
10050POPC   GL171389  12.116   6.654   6.150
10050POPC   GL271390  11.996   6.734   6.150
10050POPC   C1A71391  12.086   6.677   6.450
10050POPC   D2A71392  12.096   6.664   6.750
10050POPC   C3A71393  12.110   6.656   7.050
10050POPC   C4A71394  12.116   6.599   7.350
10050POPC   C1B71395  11.838   6.764   6.450
10050POPC   C2B71396  11.917   6.765   6.750
10050POPC   C3B71397  11.916   6.787   7.050
10050POPC   C4B71398  11.837   6.808   7.350
10051POPC   NC371399  39.257  36.921   5.550
10051POPC   PO471400  39.223  36.945   5.850
10051POPC   GL171401  39.210  36.921   6.150
10051POPC   GL271402  39.201  36.802   6.150
10051POPC   C1A71403  39.218  36.872   6.450
10051POPC   D2A71404  39.270  36.880   6.750
10051POPC   C3A71405  39.202  36.871   7.050
10051POPC   C4A71406  39.263  36.909   7.350
10051POPC   C1B71407  39.115  36.686   6.450
10051POPC   C2B71408  39.171  36.721   6.750
10051POPC   C3B71409  39.124  36.703   7.050
10051POPC   C4B71410  39.118  36.691   7.350
10052POPC   NC371411  35.392  14.408   5.550
10052POPC   PO471412  35.310  14.370   5.850
10052POPC   GL171413  35.389  14.398   6.150
10052POPC   GL271414  35.373  14.487   6.150
10052POPC   C1A71415  35.325  14.422   6.450
10052POPC   D2A71416  35.391  14.437   6.750
10052POPC   C3A71417  35.315  14.396   7.050
10052POPC   C4A71418  35.345  14.445   7.350
10052POPC   C1B71419  35.485  14.593   6.450
10052POPC   C2B71420  35.486  14.615   6.750
10052POPC   C3B71421  35.434  14.657   7.050
10052POPC   C4B71422  35.465  14.599   7.350
10053POPC   NC371423   5.856   6.598   5.550
10053POPC   PO471424   5.840   6.596   5.850
10053POPC   GL171425   5.915   6.609   6.150
10053POPC   GL271426   5.739   6.707   6.150
10053POPC   C1A71427   5.899   6.615   6.450
10053POPC   D2A71428   5.856   6.636   6.750
10053POPC   C3A71429   5.839   6.647   7.050
10053POPC   C4A71430   5.859   6.629   7.350
10053POPC   C1B71431   5.677   6.787   6.450
10053POPC   C2B71432   5.649   6.703   6.750
10053POPC   C3B71433   5.600   6.766   7.050
10053POPC   C4B71434   5.673   6.698   7.350
10054POPC   NC371435  41.555   5.096   5.550
10054POPC   PO471436  41.542   5.106   5.850
10054POPC   GL171437  41.517   5.124   6.150
10054POPC   GL271438  41.673   4.969   6.150
10054POPC   C1A71439  41.549   5.131   6.450
10054POPC   D2A71440  41.573   5.090   6.750
10054POPC   C3A71441  41.531   5.067   7.050
10054POPC   C4A71442  41.581   5.061   7.350
10054POPC   C1B71443  41.728   4.963   6.450
10054POPC   C2B71444  41.745   4.949   6.750
10054POPC   C3B71445  41.751   4.897   7.050
10054POPC   C4B71446  41.785   4.931   7.350
10055POPC   NC371447  33.797   7.467   5.550
10055POPC   PO471448  33.848   7.464   5.850
10055POPC   GL171449  33.788   7.423   6.150
10055POPC   GL271450  33.698   7.549   6.150
10055POPC   C1A71451  33.760   7.413   6.450
10055POPC   D2A71452  33.792   7.429   6.750
10055POPC   C3A71453  33.818   7.385   7.050
10055POPC   C4A71454  33.774   7.462   7.350
10055POPC   C1B71455  33.639   7.541   6.450
10055POPC   C2B71456  33.640   7.543   6.750
10055POPC   C3B71457  33.598   7.596   7.050
10055POPC   C4B71458  33.650   7.594   7.350
10056POPC   NC371459   8.198   5.822   5.550
10056POPC   PO471460   8.232   5.883   5.850
10056POPC   GL171461   8.156   5.896   6.150
10056POPC   GL271462   8.287   5.843   6.150
10056POPC   C1A71463   8.179   5.843   6.450
10056POPC   D2A71464   8.242   5.882   6.750
10056POPC   C3A71465   8.188   5.882   7.050
10056POPC   C4A71466   8.205   5.912   7.350
10056POPC   C1B71467   8.488   5.927   6.450
10056POPC   C2B71468   8.445   5.866   6.750
10056POPC   C3B71469   8.465   5.879   7.050
10056POPC   C4B71470   8.429   5.882   7.350
10057POPC   NC371471  43.151  26.066   5.550
10057POPC   PO471472  43.088  26.014   5.850
10057POPC   GL171473  43.144  26.051   6.150
10057POPC   GL271474  43.178  26.165   6.150
10057POPC   C1A71475  43.158  26.046   6.450
10057POPC   D2A71476  43.127  26.015   6.750
10057POPC   C3A71477  43.155  26.031   7.050
10057POPC   C4A71478  43.110  26.077   7.350
10057POPC   C1B71479  43.177  26.327   6.450
10057POPC   C2B71480  43.161  26.334   6.750
10057POPC   C3B71481  43.164  26.242   7.050
10057POPC   C4B71482  43.165  26.271   7.350
10058POPC   NC371483   2.727  25.246   5.550
10058POPC   PO471484   2.778  25.224   5.850
10058POPC   GL171485   2.792  25.222   6.150
10058POPC   GL271486   2.635  25.298   6.150
10058POPC   C1A71487   2.802  25.243   6.450
10058POPC   D2A71488   2.800  25.261   6.750
10058POPC   C3A71489   2.781  25.223   7.050
10058POPC   C4A71490   2.805  25.256   7.350
10058POPC   C1B71491   2.467  25.286   6.450
10058POPC   C2B71492   2.494  25.288   6.750
10058POPC   C3B71493   2.492  25.277   7.050
10058POPC   C4B71494   2.549  25.291   7.350
10059POPC   NC371495  32.234  13.629   5.550
10059POPC   PO471496  32.223  13.621   5.850
10059POPC   GL171497  32.235  13.614   6.150
10059POPC   GL271498  32.154  13.617   6.150
10059POPC   C1A71499  32.202  13.589   6.450
10059POPC   D2A71500  32.275  13.588   6.750
10059POPC   C3A71501  32.243  13.590   7.050
10059POPC   C4A71502  32.270  13.644   7.350
10059POPC   C1B71503  32.033  13.664   6.450
10059POPC   C2B71504  32.029  13.750   6.750
10059POPC   C3B71505  32.051  13.702   7.050
10059POPC   C4B71506  32.027  13.719   7.350
10060POPC   NC371507  39.182  12.826   5.550
10060POPC   PO471508  39.181  12.811   5.850
10060POPC   GL171509  39.243  12.852   6.150
10060POPC   GL271510  39.379  12.868   6.150
10060POPC   C1A71511  39.277  12.850   6.450
10060POPC   D2A71512  39.248  12.873   6.750
10060POPC   C3A71513  39.270  12.853   7.050
10060POPC   C4A71514  39.271  12.805   7.350
10060POPC   C1B71515  39.478  12.855   6.450
10060POPC   C2B71516  39.510  12.890   6.750
10060POPC   C3B71517  39.437  12.877   7.050
10060POPC   C4B71518  39.447  12.837   7.350
10061POPC   NC371519   8.178   7.408   5.550
10061POPC   PO471520   8.218   7.407   5.850
10061POPC   GL171521   8.216   7.409   6.150
10061POPC   GL271522   8.052   7.538   6.150
10061POPC   C1A71523   8.227   7.408   6.450
10061POPC   D2A71524   8.179   7.406   6.750
10061POPC   C3A71525   8.197   7.443   7.050
10061POPC   C4A71526   8.215   7.471   7.350
10061POPC   C1B71527   7.985   7.618   6.450
10061POPC   C2B71528   7.960   7.622   6.750
10061POPC   C3B71529   7.951   7.619   7.050
10061POPC   C4B71530   8.023   7.618   7.350
10062POPC   NC371531  43.866  15.157   5.550
10062POPC   PO471532  43.839  15.178   5.850
10062POPC   GL171533  43.903  15.192   6.150
10062POPC   GL271534  43.999  15.206   6.150
10062POPC   C1A71535  43.924  15.149   6.450
10062POPC   D2A71536  43.929  15.169   6.750
10062POPC   C3A71537  43.891  15.176   7.050
10062POPC   C4A71538  43.865  15.151   7.350
10062POPC   C1B71539  44.101  15.108   6.450
10062POPC   C2B71540  44.173  15.087   6.750
10062POPC   C3B71541  44.166  15.149   7.050
10062POPC   C4B71542  44.124  15.087   7.350
10063POPC   NC371543   4.271   9.746   5.550
10063POPC   PO471544   4.333   9.786   5.850
10063POPC   GL171545   4.308   9.726   6.150
10063POPC   GL271546   4.202   9.697   6.150
10063POPC   C1A71547   4.318   9.754   6.450
10063POPC   D2A71548   4.278   9.721   6.750
10063POPC   C3A71549   4.320   9.781   7.050
10063POPC   C4A71550   4.312   9.775   7.350
10063POPC   C1B71551   4.104   9.610   6.450
10063POPC   C2B71552   4.118   9.622   6.750
10063POPC   C3B71553   4.132   9.621   7.050
10063POPC   C4B71554   4.098   9.611   7.350
10064POPC   NC371555  11.323  18.331   5.550
10064POPC   PO471556  11.345  18.329   5.850
10064POPC   GL171557  11.342  18.299   6.150
10064POPC   GL271558  11.220  18.348   6.150
10064POPC   C1A71559  11.340  18.236   6.450
10064POPC   D2A71560  11.311  18.253   6.750
10064POPC   C3A71561  11.326  18.243   7.050
10064POPC   C4A71562  11.275  18.323   7.350
10064POPC   C1B71563  11.086  18.344   6.450
10064POPC   C2B71564  11.023  18.339   6.750
10064POPC   C3B71565  11.066  18.297   7.050
10064POPC   C4B71566  11.062  18.281   7.350
10065POPC   NC371567   1.986  25.279   5.550
10065POPC   PO471568   2.009  25.230   5.850
10065POPC   GL171569   1.977  25.295   6.150
10065POPC   GL271570   2.043  25.304   6.150
10065POPC   C1A71571   1.995  25.219   6.450
10065POPC   D2A71572   1.944  25.288   6.750
10065POPC   C3A71573   2.015  25.236   7.050
10065POPC   C4A71574   1.998  25.309   7.350
10065POPC   C1B71575   2.127  25.486   6.450
10065POPC   C2B71576   2.129  25.455   6.750
10065POPC   C3B71577   2.123  25.480   7.050
10065POPC   C4B71578   2.145  25.474   7.350
10066POPC   NC371579  14.421  27.574   5.550
10066POPC   PO471580  14.387  27.549   5.850
10066POPC   GL171581  14.423  27.625   6.150
10066POPC   GL271582  14.481  27.676   6.150
10066POPC   C1A71583  14.415  27.625   6.450
10066POPC   D2A71584  14.424  27.582   6.750
10066POPC   C3A71585  14.398  27.608   7.050
10066POPC   C4A71586  14.401  27.625   7.350
10066POPC   C1B71587  14.508  27.884   6.450
10066POPC   C2B71588  14.439  27.831   6.750
10066POPC   C3B71589  14.464  27.878   7.050
10066POPC   C4B71590  14.441  27.879   7.350
10067POPC   NC371591  14.367  26.776   5.550
10067POPC   PO471592  14.444  26.782   5.850
10067POPC   GL171593  14.410  26.806   6.150
10067POPC   GL271594  14.313  26.744   6.150
10067POPC   C1A71595  14.402  26.782   6.450
10067POPC   D2A71596  14.395  26.785   6.750
10067POPC   C3A71597  14.425  26.840   7.050
10067POPC   C4A71598  14.388  26.810   7.350
10067POPC   C1B71599  14.123  26.736   6.450
10067POPC   C2B71600  14.197  26.730   6.750
10067POPC   C3B71601  14.127  26.708   7.050
10067POPC   C4B71602  14.156  26.735   7.350
10068POPC   NC371603  36.874   1.958   5.550
10068POPC   PO471604  36.905   1.966   5.850
10068POPC   GL171605  36.862   2.029   6.150
10068POPC   GL271606  36.800   1.987   6.150
10068POPC   C1A71607  36.908   2.005   6.450
10068POPC   D2A71608  36.937   1.982   6.750
10068POPC   C3A71609  36.953   1.966   7.050
10068POPC   C4A71610  36.859   2.030   7.350
10068POPC   C1B71611  36.663   2.066   6.450
10068POPC   C2B71612  36.678   2.080   6.750
10068POPC   C3B71613  36.708   2.056   7.050
10068POPC   C4B71614  36.713   2.019   7.350
10069POPC   NC371615  44.616   1.170   5.550
10069POPC   PO471616  44.639   1.167   5.850
10069POPC   GL171617  44.615   1.193   6.150
10069POPC   GL271618  44.537   1.209   6.150
10069POPC   C1A71619  44.653   1.255   6.450
10069POPC   D2A71620  44.706   1.194   6.750
10069POPC   C3A71621  44.639   1.210   7.050
10069POPC   C4A71622  44.674   1.197   7.350
10069POPC   C1B71623  44.386   1.212   6.450
10069POPC   C2B71624  44.446   1.160   6.750
10069POPC   C3B71625  44.373   1.151   7.050
10069POPC   C4B71626  44.375   1.151   7.350
10070POPC   NC371627   4.345  31.520   5.550
10070POPC   PO471628   4.321  31.466   5.850
10070POPC   GL171629   4.277  31.518   6.150
10070POPC   GL271630   4.202  31.520   6.150
10070POPC   C1A71631   4.344  31.468   6.450
10070POPC   D2A71632   4.300  31.469   6.750
10070POPC   C3A71633   4.350  31.436   7.050
10070POPC   C4A71634   4.331  31.464   7.350
10070POPC   C1B71635   4.122  31.654   6.450
10070POPC   C2B71636   4.169  31.655   6.750
10070POPC   C3B71637   4.124  31.614   7.050
10070POPC   C4B71638   4.140  31.672   7.350
10071POPC   NC371639  36.951  37.645   5.550
10071POPC   PO471640  36.878  37.708   5.850
10071POPC   GL171641  36.878  37.643   6.150
10071POPC   GL271642  36.977  37.712   6.150
10071POPC   C1A71643  36.894  37.691   6.450
10071POPC   D2A71644  36.912  37.723   6.750
10071POPC   C3A71645  36.943  37.654   7.050
10071POPC   C4A71646  36.942  37.700   7.350
10071POPC   C1B71647  37.113  37.752   6.450
10071POPC   C2B71648  37.129  37.749   6.750
10071POPC   C3B71649  37.124  37.780   7.050
10071POPC   C4B71650  37.086  37.775   7.350
10072POPC   NC371651   8.923  34.585   5.550
10072POPC   PO471652   8.964  34.539   5.850
10072POPC   GL171653   9.015  34.575   6.150
10072POPC   GL271654   8.982  34.429   6.150
10072POPC   C1A71655   8.958  34.546   6.450
10072POPC   D2A71656   9.020  34.546   6.750
10072POPC   C3A71657   8.945  34.546   7.050
10072POPC   C4A71658   9.011  34.581   7.350
10072POPC   C1B71659   8.933  34.365   6.450
10072POPC   C2B71660   8.882  34.356   6.750
10072POPC   C3B71661   8.892  34.339   7.050
10072POPC   C4B71662   8.858  34.293   7.350
10073POPC   NC371663  36.110  15.132   5.550
10073POPC   PO471664  36.156  15.135   5.850
10073POPC   GL171665  36.117  15.137   6.150
10073POPC   GL271666  36.161  15.013   6.150
10073POPC   C1A71667  36.087  15.174   6.450
10073POPC   D2A71668  36.138  15.203   6.750
10073POPC   C3A71669  36.098  15.164   7.050
10073POPC   C4A71670  36.144  15.189   7.350
10073POPC   C1B71671  36.186  14.916   6.450
10073POPC   C2B71672  36.167  14.963   6.750
10073POPC   C3B71673  36.221  14.955   7.050
10073POPC   C4B71674  36.186  14.919   7.350
10074POPC   NC371675   8.225  40.758   5.550
10074POPC   PO471676   8.165  40.773   5.850
10074POPC   GL171677   8.150  40.735   6.150
10074POPC   GL271678   8.145  40.827   6.150
10074POPC   C1A71679   8.201  40.818   6.450
10074POPC   D2A71680   8.222  40.786   6.750
10074POPC   C3A71681   8.157  40.740   7.050
10074POPC   C4A71682   8.219  40.825   7.350
10074POPC   C1B71683   8.045  40.925   6.450
10074POPC   C2B71684   8.001  40.998   6.750
10074POPC   C3B71685   8.070  40.965   7.050
10074POPC   C4B71686   7.995  41.010   7.350
10075POPC   NC371687   3.544   5.094   5.550
10075POPC   PO471688   3.566   5.100   5.850
10075POPC   GL171689   3.585   5.137   6.150
10075POPC   GL271690   3.515   4.950   6.150
10075POPC   C1A71691   3.510   5.111   6.450
10075POPC   D2A71692   3.562   5.063   6.750
10075POPC   C3A71693   3.509   5.121   7.050
10075POPC   C4A71694   3.575   5.133   7.350
10075POPC   C1B71695   3.585   4.836   6.450
10075POPC   C2B71696   3.561   4.824   6.750
10075POPC   C3B71697   3.542   4.871   7.050
10075POPC   C4B71698   3.561   4.873   7.350
10076POPC   NC371699  43.144  15.199   5.550
10076POPC   PO471700  43.115  15.137   5.850
10076POPC   GL171701  43.117  15.215   6.150
10076POPC   GL271702  43.200  15.055   6.150
10076POPC   C1A71703  43.114  15.188   6.450
10076POPC   D2A71704  43.148  15.195   6.750
10076POPC   C3A71705  43.123  15.168   7.050
10076POPC   C4A71706  43.095  15.190   7.350
10076POPC   C1B71707  43.339  15.009   6.450
10076POPC   C2B71708  43.288  15.020   6.750
10076POPC   C3B71709  43.330  14.975   7.050
10076POPC   C4B71710  43.292  15.056   7.350
10077POPC   NC371711   2.814  17.550   5.550
10077POPC   PO471712   2.781  17.546   5.850
10077POPC   GL171713   2.781  17.525   6.150
10077POPC   GL271714   2.673  17.520   6.150
10077POPC   C1A71715   2.807  17.544   6.450
10077POPC   D2A71716   2.724  17.546   6.750
10077POPC   C3A71717   2.780  17.470   7.050
10077POPC   C4A71718   2.754  17.556   7.350
10077POPC   C1B71719   2.505  17.544   6.450
10077POPC   C2B71720   2.487  17.493   6.750
10077POPC   C3B71721   2.542  17.513   7.050
10077POPC   C4B71722   2.494  17.513   7.350
10078POPC   NC371723  21.383  42.298   5.550
10078POPC   PO471724  21.361  42.316   5.850
10078POPC   GL171725  21.424  42.337   6.150
10078POPC   GL271726  21.441  42.441   6.150
10078POPC   C1A71727  21.416  42.375   6.450
10078POPC   D2A71728  21.426  42.314   6.750
10078POPC   C3A71729  21.405  42.302   7.050
10078POPC   C4A71730  21.368  42.322   7.350
10078POPC   C1B71731  21.463  42.516   6.450
10078POPC   C2B71732  21.465  42.571   6.750
10078POPC   C3B71733  21.448  42.518   7.050
10078POPC   C4B71734  21.472  42.534   7.350
10079POPC   NC371735  34.596  39.205   5.550
10079POPC   PO471736  34.532  39.237   5.850
10079POPC   GL171737  34.602  39.186   6.150
10079POPC   GL271738  34.702  39.311   6.150
10079POPC   C1A71739  34.575  39.251   6.450
10079POPC   D2A71740  34.545  39.261   6.750
10079POPC   C3A71741  34.566  39.250   7.050
10079POPC   C4A71742  34.609  39.197   7.350
10079POPC   C1B71743  34.745  39.448   6.450
10079POPC   C2B71744  34.701  39.388   6.750
10079POPC   C3B71745  34.735  39.448   7.050
10079POPC   C4B71746  34.761  39.430   7.350
10080POPC   NC371747   1.182   0.473   5.550
10080POPC   PO471748   1.216   0.415   5.850
10080POPC   GL171749   1.182   0.461   6.150
10080POPC   GL271750   1.211   0.320   6.150
10080POPC   C1A71751   1.248   0.443   6.450
10080POPC   D2A71752   1.205   0.487   6.750
10080POPC   C3A71753   1.173   0.401   7.050
10080POPC   C4A71754   1.218   0.487   7.350
10080POPC   C1B71755   1.339   0.169   6.450
10080POPC   C2B71756   1.314   0.172   6.750
10080POPC   C3B71757   1.306   0.205   7.050
10080POPC   C4B71758   1.292   0.154   7.350
10081POPC   NC371759   5.823  34.618   5.550
10081POPC   PO471760   5.900  34.602   5.850
10081POPC   GL171761   5.891  34.538   6.150
10081POPC   GL271762   5.836  34.672   6.150
10081POPC   C1A71763   5.873  34.574   6.450
10081POPC   D2A71764   5.853  34.600   6.750
10081POPC   C3A71765   5.867  34.618   7.050
10081POPC   C4A71766   5.834  34.616   7.350
10081POPC   C1B71767   5.784  34.785   6.450
10081POPC   C2B71768   5.746  34.804   6.750
10081POPC   C3B71769   5.760  34.753   7.050
10081POPC   C4B71770   5.719  34.757   7.350
10082POPC   NC371771  19.799  42.311   5.550
10082POPC   PO471772  19.806  42.381   5.850
10082POPC   GL171773  19.807  42.335   6.150
10082POPC   GL271774  19.975  42.418   6.150
10082POPC   C1A71775  19.860  42.375   6.450
10082POPC   D2A71776  19.804  42.347   6.750
10082POPC   C3A71777  19.867  42.382   7.050
10082POPC   C4A71778  19.876  42.352   7.350
10082POPC   C1B71779  20.001  42.484   6.450
10082POPC   C2B71780  20.023  42.500   6.750
10082POPC   C3B71781  20.071  42.468   7.050
10082POPC   C4B71782  19.979  42.494   7.350
10083POPC   NC371783  32.219  42.379   5.550
10083POPC   PO471784  32.202  42.341   5.850
10083POPC   GL171785  32.207  42.327   6.150
10083POPC   GL271786  32.156  42.307   6.150
10083POPC   C1A71787  32.218  42.379   6.450
10083POPC   D2A71788  32.217  42.303   6.750
10083POPC   C3A71789  32.237  42.323   7.050
10083POPC   C4A71790  32.231  42.314   7.350
10083POPC   C1B71791  31.990  42.322   6.450
10083POPC   C2B71792  31.996  42.350   6.750
10083POPC   C3B71793  31.987  42.331   7.050
10083POPC   C4B71794  32.027  42.370   7.350
10084POPC   NC371795  30.710  39.234   5.550
10084POPC   PO471796  30.667  39.214   5.850
10084POPC   GL171797  30.672  39.269   6.150
10084POPC   GL271798  30.782  39.298   6.150
10084POPC   C1A71799  30.662  39.239   6.450
10084POPC   D2A71800  30.706  39.211   6.750
10084POPC   C3A71801  30.702  39.247   7.050
10084POPC   C4A71802  30.738  39.194   7.350
10084POPC   C1B71803  30.908  39.403   6.450
10084POPC   C2B71804  30.960  39.365   6.750
10084POPC   C3B71805  30.919  39.333   7.050
10084POPC   C4B71806  30.948  39.387   7.350
10085POPC   NC371807  24.459  17.516   5.550
10085POPC   PO471808  24.528  17.515   5.850
10085POPC   GL171809  24.485  17.542   6.150
10085POPC   GL271810  24.508  17.350   6.150
10085POPC   C1A71811  24.519  17.528   6.450
10085POPC   D2A71812  24.527  17.500   6.750
10085POPC   C3A71813  24.516  17.534   7.050
10085POPC   C4A71814  24.465  17.524   7.350
10085POPC   C1B71815  24.484  17.232   6.450
10085POPC   C2B71816  24.553  17.296   6.750
10085POPC   C3B71817  24.533  17.227   7.050
10085POPC   C4B71818  24.476  17.263   7.350
10086POPC   NC371819  29.951  15.138   5.550
10086POPC   PO471820  29.933  15.197   5.850
10086POPC   GL171821  29.971  15.184   6.150
10086POPC   GL271822  29.845  15.320   6.150
10086POPC   C1A71823  29.970  15.143   6.450
10086POPC   D2A71824  29.928  15.212   6.750
10086POPC   C3A71825  29.877  15.187   7.050
10086POPC   C4A71826  29.881  15.212   7.350
10086POPC   C1B71827  29.762  15.345   6.450
10086POPC   C2B71828  29.748  15.389   6.750
10086POPC   C3B71829  29.726  15.414   7.050
10086POPC   C4B71830  29.748  15.368   7.350
10087POPC   NC371831  39.233   5.076   5.550
10087POPC   PO471832  39.225   5.127   5.850
10087POPC   GL171833  39.254   5.120   6.150
10087POPC   GL271834  39.311   5.065   6.150
10087POPC   C1A71835  39.274   5.118   6.450
10087POPC   D2A71836  39.245   5.114   6.750
10087POPC   C3A71837  39.207   5.064   7.050
10087POPC   C4A71838  39.250   5.071   7.350
10087POPC   C1B71839  39.503   5.089   6.450
10087POPC   C2B71840  39.433   5.122   6.750
10087POPC   C3B71841  39.459   5.099   7.050
10087POPC   C4B71842  39.444   5.125   7.350
10088POPC   NC371843  32.254  22.986   5.550
10088POPC   PO471844  32.251  22.983   5.850
10088POPC   GL171845  32.213  22.944   6.150
10088POPC   GL271846  32.361  22.967   6.150
10088POPC   C1A71847  32.254  22.950   6.450
10088POPC   D2A71848  32.286  22.979   6.750
10088POPC   C3A71849  32.268  22.975   7.050
10088POPC   C4A71850  32.208  22.951   7.350
10088POPC   C1B71851  32.503  23.070   6.450
10088POPC   C2B71852  32.490  23.068   6.750
10088POPC   C3B71853  32.427  23.079   7.050
10088POPC   C4B71854  32.482  23.081   7.350
10089POPC   NC371855  13.675  29.956   5.550
10089POPC   PO471856  13.610  29.955   5.850
10089POPC   GL171857  13.662  29.923   6.150
10089POPC   GL271858  13.673  29.758   6.150
10089POPC   C1A71859  13.614  29.945   6.450
10089POPC   D2A71860  13.646  29.965   6.750
10089POPC   C3A71861  13.643  29.875   7.050
10089POPC   C4A71862  13.632  29.873   7.350
10089POPC   C1B71863  13.708  29.639   6.450
10089POPC   C2B71864  13.658  29.669   6.750
10089POPC   C3B71865  13.678  29.687   7.050
10089POPC   C4B71866  13.686  29.660   7.350
10090POPC   NC371867   8.218  24.483   5.550
10090POPC   PO471868   8.237  24.460   5.850
10090POPC   GL171869   8.195  24.480   6.150
10090POPC   GL271870   8.088  24.526   6.150
10090POPC   C1A71871   8.162  24.460   6.450
10090POPC   D2A71872   8.226  24.518   6.750
10090POPC   C3A71873   8.153  24.483   7.050
10090POPC   C4A71874   8.218  24.453   7.350
10090POPC   C1B71875   7.979  24.551   6.450
10090POPC   C2B71876   7.917  24.568   6.750
10090POPC   C3B71877   7.940  24.539   7.050
10090POPC   C4B71878   7.951  24.579   7.350
10091POPC   NC371879  19.811  39.986   5.550
10091POPC   PO471880  19.827  39.962   5.850
10091POPC   GL171881  19.837  40.013   6.150
10091POPC   GL271882  19.713  40.021   6.150
10091POPC   C1A71883  19.816  40.045   6.450
10091POPC   D2A71884  19.866  40.018   6.750
10091POPC   C3A71885  19.853  39.968   7.050
10091POPC   C4A71886  19.808  39.982   7.350
10091POPC   C1B71887  19.615  39.976   6.450
10091POPC   C2B71888  19.552  39.961   6.750
10091POPC   C3B71889  19.590  39.979   7.050
10091POPC   C4B71890  19.623  39.982   7.350
10092POPC   NC371891  36.952  36.892   5.550
10092POPC   PO471892  36.933  36.904   5.850
10092POPC   GL171893  36.891  36.937   6.150
10092POPC   GL271894  36.926  37.044   6.150
10092POPC   C1A71895  36.943  36.898   6.450
10092POPC   D2A71896  36.944  36.864   6.750
10092POPC   C3A71897  36.908  36.865   7.050
10092POPC   C4A71898  36.854  36.952   7.350
10092POPC   C1B71899  36.886  37.162   6.450
10092POPC   C2B71900  36.877  37.185   6.750
10092POPC   C3B71901  36.878  37.125   7.050
10092POPC   C4B71902  36.887  37.152   7.350
10093POPC   NC371903  13.638  24.499   5.550
10093POPC   PO471904  13.632  24.508   5.850
10093POPC   GL171905  13.657  24.496   6.150
10093POPC   GL271906  13.733  24.466   6.150
10093POPC   C1A71907  13.595  24.494   6.450
10093POPC   D2A71908  13.634  24.516   6.750
10093POPC   C3A71909  13.638  24.456   7.050
10093POPC   C4A71910  13.647  24.525   7.350
10093POPC   C1B71911  13.898  24.377   6.450
10093POPC   C2B71912  13.881  24.420   6.750
10093POPC   C3B71913  13.831  24.434   7.050
10093POPC   C4B71914  13.904  24.430   7.350
10094POPC   NC371915   3.584  41.521   5.550
10094POPC   PO471916   3.565  41.558   5.850
10094POPC   GL171917   3.526  41.515   6.150
10094POPC   GL271918   3.390  41.531   6.150
10094POPC   C1A71919   3.533  41.578   6.450
10094POPC   D2A71920   3.529  41.542   6.750
10094POPC   C3A71921   3.499  41.550   7.050
10094POPC   C4A71922   3.552  41.555   7.350
10094POPC   C1B71923   3.294  41.499   6.450
10094POPC   C2B71924   3.322  41.447   6.750
10094POPC   C3B71925   3.334  41.481   7.050
10094POPC   C4B71926   3.324  41.437   7.350
10095POPC   NC371927  32.978   9.761   5.550
10095POPC   PO471928  33.045   9.703   5.850
10095POPC   GL171929  33.052   9.726   6.150
10095POPC   GL271930  33.018   9.672   6.150
10095POPC   C1A71931  33.011   9.726   6.450
10095POPC   D2A71932  33.047   9.707   6.750
10095POPC   C3A71933  33.002   9.717   7.050
10095POPC   C4A71934  33.042   9.773   7.350
10095POPC   C1B71935  32.976   9.514   6.450
10095POPC   C2B71936  33.026   9.500   6.750
10095POPC   C3B71937  32.993   9.462   7.050
10095POPC   C4B71938  32.983   9.477   7.350
10096POPC   NC371939  10.554   8.964   5.550
10096POPC   PO471940  10.550   9.001   5.850
10096POPC   GL171941  10.490   8.925   6.150
10096POPC   GL271942  10.661   9.042   6.150
10096POPC   C1A71943  10.519   8.941   6.450
10096POPC   D2A71944  10.565   8.995   6.750
10096POPC   C3A71945  10.533   8.938   7.050
10096POPC   C4A71946  10.540   8.942   7.350
10096POPC   C1B71947  10.716   9.067   6.450
10096POPC   C2B71948  10.740   9.001   6.750
10096POPC   C3B71949  10.782   9.086   7.050
10096POPC   C4B71950  10.769   9.026   7.350
10097POPC   NC371951   8.968   5.848   5.550
10097POPC   PO471952   9.012   5.885   5.850
10097POPC   GL171953   8.998   5.855   6.150
10097POPC   GL271954   9.061   5.767   6.150
10097POPC   C1A71955   8.930   5.855   6.450
10097POPC   D2A71956   8.925   5.837   6.750
10097POPC   C3A71957   9.001   5.851   7.050
10097POPC   C4A71958   8.952   5.849   7.350
10097POPC   C1B71959   9.186   5.737   6.450
10097POPC   C2B71960   9.178   5.720   6.750
10097POPC   C3B71961   9.178   5.646   7.050
10097POPC   C4B71962   9.187   5.691   7.350
10098POPC   NC371963  31.491  23.744   5.550
10098POPC   PO471964  31.437  23.735   5.850
10098POPC   GL171965  31.445  23.741   6.150
10098POPC   GL271966  31.529  23.590   6.150
10098POPC   C1A71967  31.435  23.709   6.450
10098POPC   D2A71968  31.444  23.693   6.750
10098POPC   C3A71969  31.507  23.743   7.050
10098POPC   C4A71970  31.520  23.711   7.350
10098POPC   C1B71971  31.634  23.516   6.450
10098POPC   C2B71972  31.637  23.524   6.750
10098POPC   C3B71973  31.640  23.564   7.050
10098POPC   C4B71974  31.669  23.499   7.350
10099POPC   NC371975  19.105  10.526   5.550
10099POPC   PO471976  19.025  10.558   5.850
10099POPC   GL171977  19.074  10.568   6.150
10099POPC   GL271978  19.120  10.389   6.150
10099POPC   C1A71979  19.014  10.484   6.450
10099POPC   D2A71980  19.102  10.551   6.750
10099POPC   C3A71981  19.087  10.549   7.050
10099POPC   C4A71982  19.023  10.510   7.350
10099POPC   C1B71983  19.181  10.300   6.450
10099POPC   C2B71984  19.126  10.246   6.750
10099POPC   C3B71985  19.129  10.276   7.050
10099POPC   C4B71986  19.096  10.288   7.350
10100POPC   NC371987   5.115  11.321   5.550
10100POPC   PO471988   5.097  11.342   5.850
10100POPC   GL171989   5.081  11.283   6.150
10100POPC   GL271990   5.266  11.296   6.150
10100POPC   C1A71991   5.094  11.301   6.450
10100POPC   D2A71992   5.110  11.258   6.750
10100POPC   C3A71993   5.049  11.349   7.050
10100POPC   C4A71994   5.051  11.293   7.350
10100POPC   C1B71995   5.387  11.353   6.450
10100POPC   C2B71996   5.356  11.332   6.750
10100POPC   C3B71997   5.335  11.343   7.050
10100POPC   C4B71998   5.329  11.323   7.350
10101POPC   NC371999   0.408  41.552   5.550
10101POPC   PO472000   0.412  41.542   5.850
10101POPC   GL172001   0.406  41.569   6.150
10101POPC   GL272002   0.365  41.462   6.150
10101POPC   C1A72003   0.395  41.565   6.450
10101POPC   D2A72004   0.405  41.557   6.750
10101POPC   C3A72005   0.396  41.600   7.050
10101POPC   C4A72006   0.457  41.528   7.350
10101POPC   C1B72007   0.231  41.423   6.450
10101POPC   C2B72008   0.176  41.498   6.750
10101POPC   C3B72009   0.239  41.408   7.050
10101POPC   C4B72010   0.204  41.449   7.350
10102POPC   NC372011  34.614  43.106   5.550
10102POPC   PO472012  34.625  43.149   5.850
10102POPC   GL172013  34.554  43.078   6.150
10102POPC   GL272014  34.513  43.031   6.150
10102POPC   C1A72015  34.574  43.063   6.450
10102POPC   D2A72016  34.578  43.136   6.750
10102POPC   C3A72017  34.533  43.126   7.050
10102POPC   C4A72018  34.622  43.109   7.350
10102POPC   C1B72019  34.460  42.919   6.450
10102POPC   C2B72020  34.478  42.865   6.750
10102POPC   C3B72021  34.477  42.872   7.050
10102POPC   C4B72022  34.417  42.937   7.350
10103POPC   NC372023  41.545   9.003   5.550
10103POPC   PO472024  41.568   8.990   5.850
10103POPC   GL172025  41.568   8.923   6.150
10103POPC   GL272026  41.415   9.023   6.150
10103POPC   C1A72027  41.601   8.965   6.450
10103POPC   D2A72028  41.514   8.977   6.750
10103POPC   C3A72029  41.552   8.988   7.050
10103POPC   C4A72030  41.577   8.968   7.350
10103POPC   C1B72031  41.332   9.136   6.450
10103POPC   C2B72032  41.314   9.100   6.750
10103POPC   C3B72033  41.362   9.143   7.050
10103POPC   C4B72034  41.314   9.124   7.350
10104POPC   NC372035  30.679   3.525   5.550
10104POPC   PO472036  30.735   3.583   5.850
10104POPC   GL172037  30.741   3.558   6.150
10104POPC   GL272038  30.613   3.553   6.150
10104POPC   C1A72039  30.740   3.561   6.450
10104POPC   D2A72040  30.672   3.501   6.750
10104POPC   C3A72041  30.687   3.569   7.050
10104POPC   C4A72042  30.697   3.565   7.350
10104POPC   C1B72043  30.472   3.545   6.450
10104POPC   C2B72044  30.442   3.453   6.750
10104POPC   C3B72045  30.408   3.484   7.050
10104POPC   C4B72046  30.433   3.499   7.350
10105POPC   NC372047  18.262  12.822   5.550
10105POPC   PO472048  18.238  12.806   5.850
10105POPC   GL172049  18.316  12.815   6.150
10105POPC   GL272050  18.366  12.850   6.150
10105POPC   C1A72051  18.263  12.885   6.450
10105POPC   D2A72052  18.244  12.850   6.750
10105POPC   C3A72053  18.304  12.864   7.050
10105POPC   C4A72054  18.314  12.828   7.350
10105POPC   C1B72055  18.507  12.836   6.450
10105POPC   C2B72056  18.544  12.861   6.750
10105POPC   C3B72057  18.526  12.788   7.050
10105POPC   C4B72058  18.566  12.823   7.350
10106POPC   NC372059   2.789  10.528   5.550
10106POPC   PO472060   2.724  10.533   5.850
10106POPC   GL172061   2.778  10.523   6.150
10106POPC   GL272062   2.715  10.642   6.150
10106POPC   C1A72063   2.721  10.542   6.450
10106POPC   D2A72064   2.730  10.556   6.750
10106POPC   C3A72065   2.800  10.520   7.050
10106POPC   C4A72066   2.771  10.530   7.350
10106POPC   C1B72067   2.705  10.752   6.450
10106POPC   C2B72068   2.701  10.747   6.750
10106POPC   C3B72069   2.732  10.790   7.050
10106POPC   C4B72070   2.720  10.721   7.350
10107POPC   NC372071  43.107  31.431   5.550
10107POPC   PO472072  43.157  31.484   5.850
10107POPC   GL172073  43.151  31.496   6.150
10107POPC   GL272074  43.188  31.361   6.150
10107POPC   C1A72075  43.116  31.467   6.450
10107POPC   D2A72076  43.083  31.500   6.750
10107POPC   C3A72077  43.112  31.504   7.050
10107POPC   C4A72078  43.086  31.493   7.350
10107POPC   C1B72079  43.194  31.280   6.450
10107POPC   C2B72080  43.267  31.261   6.750
10107POPC   C3B72081  43.236  31.216   7.050
10107POPC   C4B72082  43.181  31.245   7.350
10108POPC   NC372083  24.507  39.240   5.550
10108POPC   PO472084  24.516  39.254   5.850
10108POPC   GL172085  24.484  39.215   6.150
10108POPC   GL272086  24.450  39.078   6.150
10108POPC   C1A72087  24.537  39.234   6.450
10108POPC   D2A72088  24.449  39.262   6.750
10108POPC   C3A72089  24.456  39.185   7.050
10108POPC   C4A72090  24.465  39.239   7.350
10108POPC   C1B72091  24.359  39.046   6.450
10108POPC   C2B72092  24.423  39.041   6.750
10108POPC   C3B72093  24.385  38.947   7.050
10108POPC   C4B72094  24.411  38.976   7.350
10109POPC   NC372095  38.439  20.588   5.550
10109POPC   PO472096  38.453  20.593   5.850
10109POPC   GL172097  38.466  20.583   6.150
10109POPC   GL272098  38.383  20.568   6.150
10109POPC   C1A72099  38.409  20.652   6.450
10109POPC   D2A72100  38.489  20.612   6.750
10109POPC   C3A72101  38.446  20.610   7.050
10109POPC   C4A72102  38.445  20.629   7.350
10109POPC   C1B72103  38.198  20.582   6.450
10109POPC   C2B72104  38.172  20.504   6.750
10109POPC   C3B72105  38.211  20.524   7.050
10109POPC   C4B72106  38.217  20.494   7.350
10110POPC   NC372107  17.546  29.172   5.550
10110POPC   PO472108  17.509  29.105   5.850
10110POPC   GL172109  17.538  29.166   6.150
10110POPC   GL272110  17.417  29.045   6.150
10110POPC   C1A72111  17.517  29.124   6.450
10110POPC   D2A72112  17.537  29.191   6.750
10110POPC   C3A72113  17.486  29.140   7.050
10110POPC   C4A72114  17.461  29.170   7.350
10110POPC   C1B72115  17.420  28.962   6.450
10110POPC   C2B72116  17.424  28.925   6.750
10110POPC   C3B72117  17.391  28.883   7.050
10110POPC   C4B72118  17.418  28.959   7.350
10111POPC   NC372119  44.615  16.766   5.550
10111POPC   PO472120  44.632  16.742   5.850
10111POPC   GL172121  44.621  16.733   6.150
10111POPC   GL272122  44.679  16.574   6.150
10111POPC   C1A72123  44.639  16.772   6.450
10111POPC   D2A72124  44.677  16.752   6.750
10111POPC   C3A72125  44.658  16.760   7.050
10111POPC   C4A72126  44.646  16.716   7.350
10111POPC   C1B72127  44.649  16.520   6.450
10111POPC   C2B72128  44.593  16.450   6.750
10111POPC   C3B72129  44.677  16.449   7.050
10111POPC   C4B72130  44.625  16.480   7.350
10112POPC   NC372131  28.401  31.457   5.550
10112POPC   PO472132  28.334  31.479   5.850
10112POPC   GL172133  28.414  31.485   6.150
10112POPC   GL272134  28.490  31.524   6.150
10112POPC   C1A72135  28.405  31.480   6.450
10112POPC   D2A72136  28.321  31.517   6.750
10112POPC   C3A72137  28.386  31.515   7.050
10112POPC   C4A72138  28.417  31.519   7.350
10112POPC   C1B72139  28.649  31.515   6.450
10112POPC   C2B72140  28.644  31.478   6.750
10112POPC   C3B72141  28.598  31.545   7.050
10112POPC   C4B72142  28.584  31.533   7.350
10113POPC   NC372143   0.451  30.742   5.550
10113POPC   PO472144   0.430  30.668   5.850
10113POPC   GL172145   0.456  30.677   6.150
10113POPC   GL272146   0.411  30.813   6.150
10113POPC   C1A72147   0.399  30.738   6.450
10113POPC   D2A72148   0.440  30.657   6.750
10113POPC   C3A72149   0.419  30.699   7.050
10113POPC   C4A72150   0.395  30.733   7.350
10113POPC   C1B72151   0.462  30.920   6.450
10113POPC   C2B72152   0.488  30.966   6.750
10113POPC   C3B72153   0.416  30.925   7.050
10113POPC   C4B72154   0.438  30.906   7.350
10114POPC   NC372155  27.627  21.430   5.550
10114POPC   PO472156  27.588  21.361   5.850
10114POPC   GL172157  27.582  21.399   6.150
10114POPC   GL272158  27.487  21.461   6.150
10114POPC   C1A72159  27.617  21.396   6.450
10114POPC   D2A72160  27.568  21.339   6.750
10114POPC   C3A72161  27.545  21.341   7.050
10114POPC   C4A72162  27.631  21.361   7.350
10114POPC   C1B72163  27.408  21.479   6.450
10114POPC   C2B72164  27.376  21.499   6.750
10114POPC   C3B72165  27.362  21.476   7.050
10114POPC   C4B72166  27.329  21.478   7.350
10115POPC   NC372167   1.974  18.292   5.550
10115POPC   PO472168   1.989  18.236   5.850
10115POPC   GL172169   2.005  18.280   6.150
10115POPC   GL272170   2.102  18.154   6.150
10115POPC   C1A72171   1.983  18.256   6.450
10115POPC   D2A72172   2.037  18.267   6.750
10115POPC   C3A72173   1.990  18.323   7.050
10115POPC   C4A72174   1.946  18.275   7.350
10115POPC   C1B72175   2.130  18.068   6.450
10115POPC   C2B72176   2.142  18.128   6.750
10115POPC   C3B72177   2.168  18.098   7.050
10115POPC   C4B72178   2.174  18.090   7.350
10116POPC   NC372179  22.203  34.535   5.550
10116POPC   PO472180  22.157  34.565   5.850
10116POPC   GL172181  22.157  34.609   6.150
10116POPC   GL272182  22.246  34.674   6.150
10116POPC   C1A72183  22.134  34.557   6.450
10116POPC   D2A72184  22.196  34.544   6.750
10116POPC   C3A72185  22.211  34.546   7.050
10116POPC   C4A72186  22.113  34.620   7.350
10116POPC   C1B72187  22.387  34.711   6.450
10116POPC   C2B72188  22.340  34.693   6.750
10116POPC   C3B72189  22.397  34.744   7.050
10116POPC   C4B72190  22.328  34.725   7.350
10117POPC   NC372191  10.550  22.957   5.550
10117POPC   PO472192  10.491  22.975   5.850
10117POPC   GL172193  10.536  22.976   6.150
10117POPC   GL272194  10.411  22.915   6.150
10117POPC   C1A72195  10.533  22.913   6.450
10117POPC   D2A72196  10.515  22.966   6.750
10117POPC   C3A72197  10.547  22.945   7.050
10117POPC   C4A72198  10.520  22.943   7.350
10117POPC   C1B72199  10.286  22.907   6.450
10117POPC   C2B72200  10.256  22.942   6.750
10117POPC   C3B72201  10.291  22.932   7.050
10117POPC   C4B72202  10.273  22.889   7.350
10118POPC   NC372203  43.857  40.014   5.550
10118POPC   PO472204  43.854  39.961   5.850
10118POPC   GL172205  43.894  40.023   6.150
10118POPC   GL272206  43.814  39.941   6.150
10118POPC   C1A72207  43.890  39.969   6.450
10118POPC   D2A72208  43.928  40.034   6.750
10118POPC   C3A72209  43.917  40.004   7.050
10118POPC   C4A72210  43.847  39.991   7.350
10118POPC   C1B72211  43.702  39.907   6.450
10118POPC   C2B72212  43.615  39.880   6.750
10118POPC   C3B72213  43.700  39.933   7.050
10118POPC   C4B72214  43.645  39.908   7.350
10119POPC   NC372215   1.962  23.698   5.550
10119POPC   PO472216   2.004  23.763   5.850
10119POPC   GL172217   1.953  23.742   6.150
10119POPC   GL272218   1.897  23.727   6.150
10119POPC   C1A72219   1.972  23.670   6.450
10119POPC   D2A72220   2.009  23.676   6.750
10119POPC   C3A72221   2.028  23.740   7.050
10119POPC   C4A72222   1.979  23.671   7.350
10119POPC   C1B72223   1.728  23.697   6.450
10119POPC   C2B72224   1.740  23.717   6.750
10119POPC   C3B72225   1.710  23.708   7.050
10119POPC   C4B72226   1.741  23.656   7.350
10120POPC   NC372227  27.550  18.264   5.550
10120POPC   PO472228  27.563  18.319   5.850
10120POPC   GL172229  27.623  18.237   6.150
10120POPC   GL272230  27.578  18.435   6.150
10120POPC   C1A72231  27.614  18.265   6.450
10120POPC   D2A72232  27.576  18.282   6.750
10120POPC   C3A72233  27.564  18.238   7.050
10120POPC   C4A72234  27.557  18.245   7.350
10120POPC   C1B72235  27.546  18.490   6.450
10120POPC   C2B72236  27.621  18.542   6.750
10120POPC   C3B72237  27.593  18.514   7.050
10120POPC   C4B72238  27.578  18.487   7.350
10121POPC   NC372239  27.598  27.584   5.550
10121POPC   PO472240  27.585  27.598   5.850
10121POPC   GL172241  27.546  27.636   6.150
10121POPC   GL272242  27.495  27.441   6.150
10121POPC   C1A72243  27.572  27.581   6.450
10121POPC   D2A72244  27.551  27.576   6.750
10121POPC   C3A72245  27.573  27.621   7.050
10121POPC   C4A72246  27.557  27.559   7.350
10121POPC   C1B72247  27.459  27.426   6.450
10121POPC   C2B72248  27.450  27.429   6.750
10121POPC   C3B72249  27.427  27.408   7.050
10121POPC   C4B72250  27.431  27.348   7.350
10122POPC   NC372251  40.786   1.237   5.550
10122POPC   PO472252  40.788   1.165   5.850
10122POPC   GL172253  40.810   1.240   6.150
10122POPC   GL272254  40.850   1.245   6.150
10122POPC   C1A72255  40.775   1.200   6.450
10122POPC   D2A72256  40.820   1.260   6.750
10122POPC   C3A72257  40.792   1.175   7.050
10122POPC   C4A72258  40.813   1.194   7.350
10122POPC   C1B72259  41.022   1.358   6.450
10122POPC   C2B72260  40.967   1.308   6.750
10122POPC   C3B72261  40.998   1.333   7.050
10122POPC   C4B72262  41.027   1.280   7.350
10123POPC   NC372263   9.006  29.102   5.550
10123POPC   PO472264   8.924  29.150   5.850
10123POPC   GL172265   8.960  29.125   6.150
10123POPC   GL272266   9.064  29.036   6.150
10123POPC   C1A72267   8.977  29.126   6.450
10123POPC   D2A72268   8.944  29.193   6.750
10123POPC   C3A72269   8.962  29.113   7.050
10123POPC   C4A72270   8.984  29.190   7.350
10123POPC   C1B72271   9.199  28.989   6.450
10123POPC   C2B72272   9.195  29.034   6.750
10123POPC   C3B72273   9.189  28.982   7.050
10123POPC   C4B72274   9.201  28.983   7.350
10124POPC   NC372275  37.647  27.589   5.550
10124POPC   PO472276  37.653  27.618   5.850
10124POPC   GL172277  37.722  27.641   6.150
10124POPC   GL272278  37.754  27.516   6.150
10124POPC   C1A72279  37.649  27.555   6.450
10124POPC   D2A72280  37.631  27.600   6.750
10124POPC   C3A72281  37.724  27.622   7.050
10124POPC   C4A72282  37.630  27.567   7.350
10124POPC   C1B72283  37.875  27.428   6.450
10124POPC   C2B72284  37.858  27.392   6.750
10124POPC   C3B72285  37.894  27.457   7.050
10124POPC   C4B72286  37.864  27.439   7.350
10125POPC   NC372287  40.738  41.522   5.550
10125POPC   PO472288  40.791  41.598   5.850
10125POPC   GL172289  40.790  41.580   6.150
10125POPC   GL272290  40.787  41.727   6.150
10125POPC   C1A72291  40.771  41.520   6.450
10125POPC   D2A72292  40.790  41.599   6.750
10125POPC   C3A72293  40.778  41.579   7.050
10125POPC   C4A72294  40.736  41.553   7.350
10125POPC   C1B72295  40.823  41.833   6.450
10125POPC   C2B72296  40.754  41.778   6.750
10125POPC   C3B72297  40.796  41.827   7.050
10125POPC   C4B72298  40.746  41.783   7.350
10126POPC   NC372299  23.692   2.807   5.550
10126POPC   PO472300  23.737   2.760   5.850
10126POPC   GL172301  23.756   2.769   6.150
10126POPC   GL272302  23.667   2.818   6.150
10126POPC   C1A72303  23.688   2.721   6.450
10126POPC   D2A72304  23.707   2.727   6.750
10126POPC   C3A72305  23.712   2.740   7.050
10126POPC   C4A72306  23.674   2.735   7.350
10126POPC   C1B72307  23.480   2.887   6.450
10126POPC   C2B72308  23.547   2.884   6.750
10126POPC   C3B72309  23.491   2.943   7.050
10126POPC   C4B72310  23.485   2.939   7.350
10127POPC   NC372311  41.552  12.064   5.550
10127POPC   PO472312  41.559  12.104   5.850
10127POPC   GL172313  41.558  12.102   6.150
10127POPC   GL272314  41.456  12.045   6.150
10127POPC   C1A72315  41.581  12.116   6.450
10127POPC   D2A72316  41.526  12.078   6.750
10127POPC   C3A72317  41.519  12.091   7.050
10127POPC   C4A72318  41.566  12.083   7.350
10127POPC   C1B72319  41.313  12.078   6.450
10127POPC   C2B72320  41.299  12.095   6.750
10127POPC   C3B72321  41.267  12.091   7.050
10127POPC   C4B72322  41.315  12.066   7.350
10128POPC   NC372323  39.241   3.572   5.550
10128POPC   PO472324  39.261   3.579   5.850
10128POPC   GL172325  39.276   3.570   6.150
10128POPC   GL272326  39.311   3.629   6.150
10128POPC   C1A72327  39.199   3.494   6.450
10128POPC   D2A72328  39.230   3.582   6.750
10128POPC   C3A72329  39.256   3.561   7.050
10128POPC   C4A72330  39.265   3.559   7.350
10128POPC   C1B72331  39.354   3.773   6.450
10128POPC   C2B72332  39.332   3.749   6.750
10128POPC   C3B72333  39.346   3.783   7.050
10128POPC   C4B72334  39.295   3.750   7.350
10129POPC   NC372335  15.229   3.506   5.550
10129POPC   PO472336  15.224   3.493   5.850
10129POPC   GL172337  15.185   3.544   6.150
10129POPC   GL272338  15.312   3.540   6.150
10129POPC   C1A72339  15.225   3.513   6.450
10129POPC   D2A72340  15.138   3.551   6.750
10129POPC   C3A72341  15.138   3.557   7.050
10129POPC   C4A72342  15.171   3.501   7.350
10129POPC   C1B72343  15.453   3.592   6.450
10129POPC   C2B72344  15.448   3.602   6.750
10129POPC   C3B72345  15.431   3.541   7.050
10129POPC   C4B72346  15.471   3.532   7.350
10130POPC   NC372347  19.807   1.212   5.550
10130POPC   PO472348  19.836   1.178   5.850
10130POPC   GL172349  19.827   1.248   6.150
10130POPC   GL272350  19.950   1.367   6.150
10130POPC   C1A72351  19.805   1.227   6.450
10130POPC   D2A72352  19.863   1.238   6.750
10130POPC   C3A72353  19.793   1.259   7.050
10130POPC   C4A72354  19.866   1.219   7.350
10130POPC   C1B72355  19.969   1.450   6.450
10130POPC   C2B72356  19.948   1.406   6.750
10130POPC   C3B72357  20.001   1.472   7.050
10130POPC   C4B72358  20.003   1.422   7.350
10131POPC   NC372359   3.583  19.811   5.550
10131POPC   PO472360   3.522  19.875   5.850
10131POPC   GL172361   3.498  19.821   6.150
10131POPC   GL272362   3.458  19.839   6.150
10131POPC   C1A72363   3.550  19.824   6.450
10131POPC   D2A72364   3.537  19.826   6.750
10131POPC   C3A72365   3.566  19.820   7.050
10131POPC   C4A72366   3.506  19.871   7.350
10131POPC   C1B72367   3.256  19.726   6.450
10131POPC   C2B72368   3.284  19.794   6.750
10131POPC   C3B72369   3.281  19.707   7.050
10131POPC   C4B72370   3.283  19.784   7.350
10132POPC   NC372371  34.579  19.034   5.550
10132POPC   PO472372  34.597  19.057   5.850
10132POPC   GL172373  34.552  19.011   6.150
10132POPC   GL272374  34.554  18.926   6.150
10132POPC   C1A72375  34.534  19.053   6.450
10132POPC   D2A72376  34.602  19.072   6.750
10132POPC   C3A72377  34.571  19.010   7.050
10132POPC   C4A72378  34.618  19.056   7.350
10132POPC   C1B72379  34.537  18.782   6.450
10132POPC   C2B72380  34.551  18.808   6.750
10132POPC   C3B72381  34.475  18.767   7.050
10132POPC   C4B72382  34.472  18.820   7.350
10133POPC   NC372383  34.577   6.685   5.550
10133POPC   PO472384  34.541   6.600   5.850
10133POPC   GL172385  34.574   6.657   6.150
10133POPC   GL272386  34.520   6.776   6.150
10133POPC   C1A72387  34.581   6.653   6.450
10133POPC   D2A72388  34.568   6.691   6.750
10133POPC   C3A72389  34.548   6.666   7.050
10133POPC   C4A72390  34.563   6.621   7.350
10133POPC   C1B72391  34.468   6.872   6.450
10133POPC   C2B72392  34.483   6.843   6.750
10133POPC   C3B72393  34.541   6.846   7.050
10133POPC   C4B72394  34.493   6.931   7.350
10134POPC   NC372395  10.562  39.969   5.550
10134POPC   PO472396  10.533  40.043   5.850
10134POPC   GL172397  10.489  40.003   6.150
10134POPC   GL272398  10.488  40.139   6.150
10134POPC   C1A72399  10.510  40.054   6.450
10134POPC   D2A72400  10.561  40.004   6.750
10134POPC   C3A72401  10.510  40.036   7.050
10134POPC   C4A72402  10.532  39.996   7.350
10134POPC   C1B72403  10.385  40.177   6.450
10134POPC   C2B72404  10.384  40.187   6.750
10134POPC   C3B72405  10.364  40.204   7.050
10134POPC   C4B72406  10.408  40.159   7.350
10135POPC   NC372407  27.577   0.394   5.550
10135POPC   PO472408  27.640   0.478   5.850
10135POPC   GL172409  27.600   0.431   6.150
10135POPC   GL272410  27.509   0.327   6.150
10135POPC   C1A72411  27.552   0.418   6.450
10135POPC   D2A72412  27.549   0.465   6.750
10135POPC   C3A72413  27.611   0.444   7.050
10135POPC   C4A72414  27.602   0.449   7.350
10135POPC   C1B72415  27.477   0.248   6.450
10135POPC   C2B72416  27.539   0.180   6.750
10135POPC   C3B72417  27.454   0.160   7.050
10135POPC   C4B72418  27.541   0.207   7.350
10136POPC   NC372419  36.121  30.696   5.550
10136POPC   PO472420  36.149  30.725   5.850
10136POPC   GL172421  36.101  30.729   6.150
10136POPC   GL272422  36.262  30.659   6.150
10136POPC   C1A72423  36.097  30.731   6.450
10136POPC   D2A72424  36.177  30.664   6.750
10136POPC   C3A72425  36.141  30.730   7.050
10136POPC   C4A72426  36.133  30.743   7.350
10136POPC   C1B72427  36.330  30.549   6.450
10136POPC   C2B72428  36.399  30.634   6.750
10136POPC   C3B72429  36.344  30.614   7.050
10136POPC   C4B72430  36.314  30.594   7.350
10137POPC   NC372431  33.843  41.524   5.550
10137POPC   PO472432  33.784  41.514   5.850
10137POPC   GL172433  33.837  41.572   6.150
10137POPC   GL272434  33.700  41.540   6.150
10137POPC   C1A72435  33.814  41.602   6.450
10137POPC   D2A72436  33.754  41.591   6.750
10137POPC   C3A72437  33.757  41.558   7.050
10137POPC   C4A72438  33.833  41.536   7.350
10137POPC   C1B72439  33.556  41.415   6.450
10137POPC   C2B72440  33.536  41.400   6.750
10137POPC   C3B72441  33.534  41.477   7.050
10137POPC   C4B72442  33.620  41.414   7.350
10138POPC   NC372443  43.128   6.611   5.550
10138POPC   PO472444  43.147   6.624   5.850
10138POPC   GL172445  43.077   6.614   6.150
10138POPC   GL272446  43.204   6.730   6.150
10138POPC   C1A72447  43.098   6.669   6.450
10138POPC   D2A72448  43.084   6.658   6.750
10138POPC   C3A72449  43.069   6.660   7.050
10138POPC   C4A72450  43.155   6.690   7.350
10138POPC   C1B72451  43.310   6.788   6.450
10138POPC   C2B72452  43.351   6.809   6.750
10138POPC   C3B72453  43.317   6.781   7.050
10138POPC   C4B72454  43.371   6.757   7.350
10139POPC   NC372455   8.158   0.419   5.550
10139POPC   PO472456   8.198   0.459   5.850
10139POPC   GL172457   8.179   0.429   6.150
10139POPC   GL272458   8.110   0.345   6.150
10139POPC   C1A72459   8.221   0.405   6.450
10139POPC   D2A72460   8.235   0.474   6.750
10139POPC   C3A72461   8.159   0.391   7.050
10139POPC   C4A72462   8.160   0.414   7.350
10139POPC   C1B72463   8.010   0.307   6.450
10139POPC   C2B72464   7.994   0.306   6.750
10139POPC   C3B72465   8.010   0.265   7.050
10139POPC   C4B72466   8.004   0.288   7.350
10140POPC   NC372467  38.467  43.061   5.550
10140POPC   PO472468  38.415  43.109   5.850
10140POPC   GL172469  38.458  43.159   6.150
10140POPC   GL272470  38.385  43.080   6.150
10140POPC   C1A72471  38.491  43.072   6.450
10140POPC   D2A72472  38.488  43.104   6.750
10140POPC   C3A72473  38.486  43.151   7.050
10140POPC   C4A72474  38.462  43.101   7.350
10140POPC   C1B72475  38.202  43.070   6.450
10140POPC   C2B72476  38.254  43.032   6.750
10140POPC   C3B72477  38.194  43.017   7.050
10140POPC   C4B72478  38.226  43.057   7.350
10141POPC   NC372479  39.999  38.502   5.550
10141POPC   PO472480  39.986  38.461   5.850
10141POPC   GL172481  39.968  38.467   6.150
10141POPC   GL272482  39.917  38.317   6.150
10141POPC   C1A72483  40.041  38.436   6.450
10141POPC   D2A72484  39.990  38.407   6.750
10141POPC   C3A72485  40.055  38.502   7.050
10141POPC   C4A72486  40.043  38.455   7.350
10141POPC   C1B72487  39.824  38.243   6.450
10141POPC   C2B72488  39.857  38.220   6.750
10141POPC   C3B72489  39.811  38.279   7.050
10141POPC   C4B72490  39.831  38.270   7.350
10142POPC   NC372491  44.700  22.114   5.550
10142POPC   PO472492  44.652  22.176   5.850
10142POPC   GL172493  44.649  22.123   6.150
10142POPC   GL272494  44.758  22.013   6.150
10142POPC   C1A72495  44.700  22.170   6.450
10142POPC   D2A72496  44.637  22.151   6.750
10142POPC   C3A72497  44.694  22.205   7.050
10142POPC   C4A72498  44.668  22.192   7.350
10142POPC   C1B72499  44.843  21.909   6.450
10142POPC   C2B72500  44.756  21.913   6.750
10142POPC   C3B72501  44.840  21.914   7.050
10142POPC   C4B72502  44.824  21.993   7.350
10143POPC   NC372503  26.073  18.298   5.550
10143POPC   PO472504  26.043  18.279   5.850
10143POPC   GL172505  26.046  18.235   6.150
10143POPC   GL272506  26.172  18.302   6.150
10143POPC   C1A72507  26.078  18.318   6.450
10143POPC   D2A72508  26.077  18.321   6.750
10143POPC   C3A72509  26.021  18.245   7.050
10143POPC   C4A72510  26.059  18.309   7.350
10143POPC   C1B72511  26.285  18.338   6.450
10143POPC   C2B72512  26.254  18.311   6.750
10143POPC   C3B72513  26.247  18.338   7.050
10143POPC   C4B72514  26.280  18.350   7.350
10144POPC   NC372515  20.658   8.181   5.550
10144POPC   PO472516  20.618   8.202   5.850
10144POPC   GL172517  20.641   8.147   6.150
10144POPC   GL272518  20.679   8.337   6.150
10144POPC   C1A72519  20.570   8.224   6.450
10144POPC   D2A72520  20.606   8.216   6.750
10144POPC   C3A72521  20.649   8.172   7.050
10144POPC   C4A72522  20.603   8.186   7.350
10144POPC   C1B72523  20.724   8.455   6.450
10144POPC   C2B72524  20.732   8.483   6.750
10144POPC   C3B72525  20.724   8.411   7.050
10144POPC   C4B72526  20.718   8.395   7.350
10145POPC   NC372527  15.998  11.298   5.550
10145POPC   PO472528  15.933  11.333   5.850
10145POPC   GL172529  15.939  11.283   6.150
10145POPC   GL272530  15.879  11.238   6.150
10145POPC   C1A72531  16.003  11.346   6.450
10145POPC   D2A72532  15.905  11.300   6.750
10145POPC   C3A72533  15.957  11.309   7.050
10145POPC   C4A72534  15.918  11.259   7.350
10145POPC   C1B72535  15.699  11.148   6.450
10145POPC   C2B72536  15.754  11.228   6.750
10145POPC   C3B72537  15.713  11.188   7.050
10145POPC   C4B72538  15.741  11.139   7.350
10146POPC   NC372539  42.347  23.726   5.550
10146POPC   PO472540  42.370  23.675   5.850
10146POPC   GL172541  42.381  23.685   6.150
10146POPC   GL272542  42.388  23.570   6.150
10146POPC   C1A72543  42.364  23.698   6.450
10146POPC   D2A72544  42.342  23.728   6.750
10146POPC   C3A72545  42.354  23.726   7.050
10146POPC   C4A72546  42.372  23.720   7.350
10146POPC   C1B72547  42.430  23.521   6.450
10146POPC   C2B72548  42.452  23.460   6.750
10146POPC   C3B72549  42.486  23.447   7.050
10146POPC   C4B72550  42.410  23.469   7.350
10147POPC   NC372551  24.532  42.320   5.550
10147POPC   PO472552  24.530  42.364   5.850
10147POPC   GL172553  24.501  42.290   6.150
10147POPC   GL272554  24.572  42.348   6.150
10147POPC   C1A72555  24.523  42.349   6.450
10147POPC   D2A72556  24.455  42.353   6.750
10147POPC   C3A72557  24.446  42.310   7.050
10147POPC   C4A72558  24.484  42.379   7.350
10147POPC   C1B72559  24.696  42.362   6.450
10147POPC   C2B72560  24.722  42.361   6.750
10147POPC   C3B72561  24.731  42.338   7.050
10147POPC   C4B72562  24.703  42.323   7.350
10148POPC   NC372563  22.204  24.490   5.550
10148POPC   PO472564  22.121  24.485   5.850
10148POPC   GL172565  22.167  24.532   6.150
10148POPC   GL272566  22.270  24.552   6.150
10148POPC   C1A72567  22.120  24.514   6.450
10148POPC   D2A72568  22.169  24.536   6.750
10148POPC   C3A72569  22.160  24.481   7.050
10148POPC   C4A72570  22.133  24.495   7.350
10148POPC   C1B72571  22.391  24.638   6.450
10148POPC   C2B72572  22.339  24.603   6.750
10148POPC   C3B72573  22.354  24.583   7.050
10148POPC   C4B72574  22.424  24.646   7.350
10149POPC   NC372575  39.262  22.150   5.550
10149POPC   PO472576  39.227  22.176   5.850
10149POPC   GL172577  39.191  22.157   6.150
10149POPC   GL272578  39.279  22.057   6.150
10149POPC   C1A72579  39.192  22.199   6.450
10149POPC   D2A72580  39.233  22.142   6.750
10149POPC   C3A72581  39.205  22.157   7.050
10149POPC   C4A72582  39.201  22.160   7.350
10149POPC   C1B72583  39.337  21.979   6.450
10149POPC   C2B72584  39.373  21.987   6.750
10149POPC   C3B72585  39.419  21.962   7.050
10149POPC   C4B72586  39.410  21.938   7.350
10150POPC   NC372587  20.562  29.894   5.550
10150POPC   PO472588  20.568  29.904   5.850
10150POPC   GL172589  20.658  29.877   6.150
10150POPC   GL272590  20.479  29.968   6.150
10150POPC   C1A72591  20.624  29.914   6.450
10150POPC   D2A72592  20.650  29.899   6.750
10150POPC   C3A72593  20.573  29.966   7.050
10150POPC   C4A72594  20.607  29.874   7.350
10150POPC   C1B72595  20.351  30.034   6.450
10150POPC   C2B72596  20.387  30.030   6.750
10150POPC   C3B72597  20.372  29.988   7.050
10150POPC   C4B72598  20.369  29.995   7.350
10151POPC   NC372599  21.361  29.919   5.550
10151POPC   PO472600  21.369  29.936   5.850
10151POPC   GL172601  21.369  29.930   6.150
10151POPC   GL272602  21.340  29.842   6.150
10151POPC   C1A72603  21.385  29.942   6.450
10151POPC   D2A72604  21.370  29.951   6.750
10151POPC   C3A72605  21.348  29.959   7.050
10151POPC   C4A72606  21.416  29.911   7.350
10151POPC   C1B72607  21.322  29.694   6.450
10151POPC   C2B72608  21.343  29.699   6.750
10151POPC   C3B72609  21.362  29.658   7.050
10151POPC   C4B72610  21.318  29.657   7.350
10152POPC   NC372611  14.357  30.721   5.550
10152POPC   PO472612  14.432  30.684   5.850
10152POPC   GL172613  14.384  30.703   6.150
10152POPC   GL272614  14.315  30.724   6.150
10152POPC   C1A72615  14.413  30.705   6.450
10152POPC   D2A72616  14.442  30.655   6.750
10152POPC   C3A72617  14.422  30.660   7.050
10152POPC   C4A72618  14.371  30.731   7.350
10152POPC   C1B72619  14.172  30.765   6.450
10152POPC   C2B72620  14.146  30.726   6.750
10152POPC   C3B72621  14.186  30.716   7.050
10152POPC   C4B72622  14.164  30.710   7.350
10153POPC   NC372623  38.442  13.583   5.550
10153POPC   PO472624  38.480  13.633   5.850
10153POPC   GL172625  38.440  13.613   6.150
10153POPC   GL272626  38.621  13.616   6.150
10153POPC   C1A72627  38.478  13.631   6.450
10153POPC   D2A72628  38.430  13.674   6.750
10153POPC   C3A72629  38.428  13.658   7.050
10153POPC   C4A72630  38.443  13.674   7.350
10153POPC   C1B72631  38.666  13.651   6.450
10153POPC   C2B72632  38.704  13.644   6.750
10153POPC   C3B72633  38.662  13.674   7.050
10153POPC   C4B72634  38.689  13.681   7.350
10154POPC   NC372635   5.873  12.875   5.550
10154POPC   PO472636   5.836  12.880   5.850
10154POPC   GL172637   5.869  12.829   6.150
10154POPC   GL272638   5.954  12.853   6.150
10154POPC   C1A72639   5.825  12.804   6.450
10154POPC   D2A72640   5.883  12.869   6.750
10154POPC   C3A72641   5.824  12.877   7.050
10154POPC   C4A72642   5.858  12.894   7.350
10154POPC   C1B72643   6.136  12.822   6.450
10154POPC   C2B72644   6.112  12.894   6.750
10154POPC   C3B72645   6.126  12.822   7.050
10154POPC   C4B72646   6.138  12.827   7.350
10155POPC   NC372647  16.704  11.340   5.550
10155POPC   PO472648  16.693  11.324   5.850
10155POPC   GL172649  16.739  11.322   6.150
10155POPC   GL272650  16.838  11.331   6.150
10155POPC   C1A72651  16.687  11.311   6.450
10155POPC   D2A72652  16.725  11.277   6.750
10155POPC   C3A72653  16.730  11.323   7.050
10155POPC   C4A72654  16.707  11.282   7.350
10155POPC   C1B72655  17.017  11.394   6.450
10155POPC   C2B72656  16.996  11.398   6.750
10155POPC   C3B72657  16.967  11.365   7.050
10155POPC   C4B72658  16.955  11.410   7.350
10156POPC   NC372659  12.829  29.964   5.550
10156POPC   PO472660  12.828  29.890   5.850
10156POPC   GL172661  12.803  29.954   6.150
10156POPC   GL272662  12.947  29.852   6.150
10156POPC   C1A72663  12.896  29.909   6.450
10156POPC   D2A72664  12.836  29.904   6.750
10156POPC   C3A72665  12.804  29.885   7.050
10156POPC   C4A72666  12.857  29.969   7.350
10156POPC   C1B72667  13.045  29.747   6.450
10156POPC   C2B72668  12.993  29.778   6.750
10156POPC   C3B72669  13.049  29.788   7.050
10156POPC   C4B72670  12.999  29.717   7.350
10157POPC   NC372671  44.661   2.773   5.550
10157POPC   PO472672  44.619   2.778   5.850
10157POPC   GL172673  44.698   2.763   6.150
10157POPC   GL272674  44.768   2.785   6.150
10157POPC   C1A72675  44.622   2.815   6.450
10157POPC   D2A72676  44.657   2.740   6.750
10157POPC   C3A72677  44.688   2.804   7.050
10157POPC   C4A72678  44.646   2.770   7.350
10157POPC   C1B72679  44.942   2.814   6.450
10157POPC   C2B72680  44.912   2.811   6.750
10157POPC   C3B72681  44.916   2.766   7.050
10157POPC   C4B72682  44.911   2.730   7.350
10158POPC   NC372683  33.013  22.153   5.550
10158POPC   PO472684  33.010  22.141   5.850
10158POPC   GL172685  33.031  22.199   6.150
10158POPC   GL272686  33.097  22.106   6.150
10158POPC   C1A72687  32.982  22.118   6.450
10158POPC   D2A72688  32.997  22.172   6.750
10158POPC   C3A72689  32.984  22.177   7.050
10158POPC   C4A72690  33.074  22.118   7.350
10158POPC   C1B72691  33.261  22.037   6.450
10158POPC   C2B72692  33.271  22.018   6.750
10158POPC   C3B72693  33.288  22.028   7.050
10158POPC   C4B72694  33.204  22.095   7.350
10159POPC   NC372695  38.497  18.233   5.550
10159POPC   PO472696  38.503  18.310   5.850
10159POPC   GL172697  38.462  18.274   6.150
10159POPC   GL272698  38.525  18.378   6.150
10159POPC   C1A72699  38.493  18.296   6.450
10159POPC   D2A72700  38.422  18.287   6.750
10159POPC   C3A72701  38.456  18.237   7.050
10159POPC   C4A72702  38.414  18.253   7.350
10159POPC   C1B72703  38.572  18.538   6.450
10159POPC   C2B72704  38.548  18.530   6.750
10159POPC   C3B72705  38.624  18.482   7.050
10159POPC   C4B72706  38.543  18.539   7.350
10160POPC   NC372707  18.300   7.459   5.550
10160POPC   PO472708  18.245   7.409   5.850
10160POPC   GL172709  18.304   7.449   6.150
10160POPC   GL272710  18.289   7.508   6.150
10160POPC   C1A72711  18.278   7.457   6.450
10160POPC   D2A72712  18.300   7.375   6.750
10160POPC   C3A72713  18.298   7.389   7.050
10160POPC   C4A72714  18.246   7.422   7.350
10160POPC   C1B72715  18.417   7.642   6.450
10160POPC   C2B72716  18.361   7.601   6.750
10160POPC   C3B72717  18.390   7.681   7.050
10160POPC   C4B72718  18.351   7.621   7.350
10161POPC   NC372719  29.128  29.938   5.550
10161POPC   PO472720  29.169  29.946   5.850
10161POPC   GL172721  29.114  29.942   6.150
10161POPC   GL272722  29.268  29.996   6.150
10161POPC   C1A72723  29.144  29.934   6.450
10161POPC   D2A72724  29.132  29.897   6.750
10161POPC   C3A72725  29.157  29.948   7.050
10161POPC   C4A72726  29.188  29.930   7.350
10161POPC   C1B72727  29.355  29.978   6.450
10161POPC   C2B72728  29.401  30.022   6.750
10161POPC   C3B72729  29.370  29.972   7.050
10161POPC   C4B72730  29.352  30.031   7.350
10162POPC   NC372731   8.998   6.609   5.550
10162POPC   PO472732   8.943   6.677   5.850
10162POPC   GL172733   8.989   6.687   6.150
10162POPC   GL272734   9.103   6.749   6.150
10162POPC   C1A72735   8.954   6.677   6.450
10162POPC   D2A72736   8.982   6.634   6.750
10162POPC   C3A72737   8.980   6.619   7.050
10162POPC   C4A72738   8.959   6.631   7.350
10162POPC   C1B72739   9.167   6.832   6.450
10162POPC   C2B72740   9.191   6.773   6.750
10162POPC   C3B72741   9.200   6.762   7.050
10162POPC   C4B72742   9.154   6.757   7.350
10163POPC   NC372743   5.084  31.516   5.550
10163POPC   PO472744   5.055  31.487   5.850
10163POPC   GL172745   5.090  31.439   6.150
10163POPC   GL272746   5.083  31.562   6.150
10163POPC   C1A72747   5.119  31.493   6.450
10163POPC   D2A72748   5.111  31.461   6.750
10163POPC   C3A72749   5.135  31.482   7.050
10163POPC   C4A72750   5.118  31.509   7.350
10163POPC   C1B72751   5.041  31.683   6.450
10163POPC   C2B72752   5.052  31.725   6.750
10163POPC   C3B72753   5.085  31.745   7.050
10163POPC   C4B72754   5.102  31.710   7.350
10164POPC   NC372755  26.846   7.445   5.550
10164POPC   PO472756  26.796   7.452   5.850
10164POPC   GL172757  26.811   7.437   6.150
10164POPC   GL272758  26.916   7.456   6.150
10164POPC   C1A72759  26.823   7.469   6.450
10164POPC   D2A72760  26.840   7.403   6.750
10164POPC   C3A72761  26.788   7.467   7.050
10164POPC   C4A72762  26.821   7.421   7.350
10164POPC   C1B72763  27.101   7.482   6.450
10164POPC   C2B72764  27.108   7.440   6.750
10164POPC   C3B72765  27.084   7.455   7.050
10164POPC   C4B72766  27.110   7.491   7.350
10165POPC   NC372767   3.516  23.665   5.550
10165POPC   PO472768   3.557  23.727   5.850
10165POPC   GL172769   3.518  23.668   6.150
10165POPC   GL272770   3.386  23.745   6.150
10165POPC   C1A72771   3.576  23.690   6.450
10165POPC   D2A72772   3.530  23.754   6.750
10165POPC   C3A72773   3.516  23.755   7.050
10165POPC   C4A72774   3.499  23.696   7.350
10165POPC   C1B72775   3.254  23.809   6.450
10165POPC   C2B72776   3.314  23.772   6.750
10165POPC   C3B72777   3.347  23.807   7.050
10165POPC   C4B72778   3.285  23.773   7.350
10166POPC   NC372779  19.884  19.867   5.550
10166POPC   PO472780  19.820  19.877   5.850
10166POPC   GL172781  19.816  19.882   6.150
10166POPC   GL272782  19.953  19.744   6.150
10166POPC   C1A72783  19.871  19.834   6.450
10166POPC   D2A72784  19.866  19.793   6.750
10166POPC   C3A72785  19.790  19.836   7.050
10166POPC   C4A72786  19.878  19.801   7.350
10166POPC   C1B72787  20.063  19.699   6.450
10166POPC   C2B72788  20.102  19.746   6.750
10166POPC   C3B72789  20.085  19.741   7.050
10166POPC   C4B72790  20.034  19.681   7.350
10167POPC   NC372791   7.394   0.477   5.550
10167POPC   PO472792   7.407   0.423   5.850
10167POPC   GL172793   7.432   0.391   6.150
10167POPC   GL272794   7.310   0.394   6.150
10167POPC   C1A72795   7.456   0.439   6.450
10167POPC   D2A72796   7.421   0.390   6.750
10167POPC   C3A72797   7.440   0.421   7.050
10167POPC   C4A72798   7.466   0.402   7.350
10167POPC   C1B72799   7.128   0.389   6.450
10167POPC   C2B72800   7.213   0.446   6.750
10167POPC   C3B72801   7.169   0.390   7.050
10167POPC   C4B72802   7.219   0.422   7.350
10168POPC   NC372803  11.338  36.875   5.550
10168POPC   PO472804  11.340  36.938   5.850
10168POPC   GL172805  11.308  36.890   6.150
10168POPC   GL272806  11.391  36.924   6.150
10168POPC   C1A72807  11.297  36.854   6.450
10168POPC   D2A72808  11.331  36.921   6.750
10168POPC   C3A72809  11.260  36.906   7.050
10168POPC   C4A72810  11.287  36.911   7.350
10168POPC   C1B72811  11.578  36.959   6.450
10168POPC   C2B72812  11.532  37.027   6.750
10168POPC   C3B72813  11.539  37.047   7.050
10168POPC   C4B72814  11.562  37.004   7.350
10169POPC   NC372815  31.513  31.423   5.550
10169POPC   PO472816  31.432  31.477   5.850
10169POPC   GL172817  31.460  31.495   6.150
10169POPC   GL272818  31.542  31.341   6.150
10169POPC   C1A72819  31.469  31.485   6.450
10169POPC   D2A72820  31.471  31.450   6.750
10169POPC   C3A72821  31.479  31.508   7.050
10169POPC   C4A72822  31.425  31.426   7.350
10169POPC   C1B72823  31.645  31.323   6.450
10169POPC   C2B72824  31.668  31.250   6.750
10169POPC   C3B72825  31.598  31.265   7.050
10169POPC   C4B72826  31.608  31.289   7.350
10170POPC   NC372827  42.347  40.832   5.550
10170POPC   PO472828  42.333  40.822   5.850
10170POPC   GL172829  42.306  40.798   6.150
10170POPC   GL272830  42.419  40.675   6.150
10170POPC   C1A72831  42.333  40.754   6.450
10170POPC   D2A72832  42.365  40.799   6.750
10170POPC   C3A72833  42.349  40.785   7.050
10170POPC   C4A72834  42.308  40.819   7.350
10170POPC   C1B72835  42.531  40.589   6.450
10170POPC   C2B72836  42.457  40.635   6.750
10170POPC   C3B72837  42.487  40.600   7.050
10170POPC   C4B72838  42.522  40.607   7.350
10171POPC   NC372839  42.383   1.942   5.550
10171POPC   PO472840  42.313   2.027   5.850
10171POPC   GL172841  42.329   2.038   6.150
10171POPC   GL272842  42.207   2.119   6.150
10171POPC   C1A72843  42.332   2.030   6.450
10171POPC   D2A72844  42.362   1.967   6.750
10171POPC   C3A72845  42.326   2.002   7.050
10171POPC   C4A72846  42.332   2.000   7.350
10171POPC   C1B72847  42.148   2.164   6.450
10171POPC   C2B72848  42.150   2.183   6.750
10171POPC   C3B72849  42.168   2.208   7.050
10171POPC   C4B72850  42.137   2.139   7.350
10172POPC   NC372851   5.864  44.697   5.550
10172POPC   PO472852   5.902  44.666   5.850
10172POPC   GL172853   5.886  44.619   6.150
10172POPC   GL272854   5.941  44.587   6.150
10172POPC   C1A72855   5.882  44.651   6.450
10172POPC   D2A72856   5.878  44.709   6.750
10172POPC   C3A72857   5.877  44.637   7.050
10172POPC   C4A72858   5.855  44.695   7.350
10172POPC   C1B72859   5.895  44.410   6.450
10172POPC   C2B72860   5.922  44.435   6.750
10172POPC   C3B72861   5.943  44.447   7.050
10172POPC   C4B72862   5.906  44.454   7.350
10173POPC   NC372863  39.227  24.462   5.550
10173POPC   PO472864  39.250  24.507   5.850
10173POPC   GL172865  39.248  24.464   6.150
10173POPC   GL272866  39.169  24.347   6.150
10173POPC   C1A72867  39.265  24.479   6.450
10173POPC   D2A72868  39.207  24.455   6.750
10173POPC   C3A72869  39.218  24.452   7.050
10173POPC   C4A72870  39.187  24.478   7.350
10173POPC   C1B72871  39.159  24.260   6.450
10173POPC   C2B72872  39.154  24.282   6.750
10173POPC   C3B72873  39.156  24.276   7.050
10173POPC   C4B72874  39.158  24.257   7.350
10174POPC   NC372875   1.206  31.429   5.550
10174POPC   PO472876   1.263  31.476   5.850
10174POPC   GL172877   1.223  31.501   6.150
10174POPC   GL272878   1.248  31.583   6.150
10174POPC   C1A72879   1.250  31.486   6.450
10174POPC   D2A72880   1.183  31.492   6.750
10174POPC   C3A72881   1.192  31.467   7.050
10174POPC   C4A72882   1.252  31.471   7.350
10174POPC   C1B72883   1.358  31.660   6.450
10174POPC   C2B72884   1.266  31.741   6.750
10174POPC   C3B72885   1.306  31.680   7.050
10174POPC   C4B72886   1.337  31.661   7.350
10175POPC   NC372887   8.194  12.861   5.550
10175POPC   PO472888   8.160  12.833   5.850
10175POPC   GL172889   8.210  12.895   6.150
10175POPC   GL272890   8.136  12.927   6.150
10175POPC   C1A72891   8.173  12.897   6.450
10175POPC   D2A72892   8.209  12.880   6.750
10175POPC   C3A72893   8.229  12.881   7.050
10175POPC   C4A72894   8.238  12.832   7.350
10175POPC   C1B72895   8.050  13.121   6.450
10175POPC   C2B72896   8.087  13.031   6.750
10175POPC   C3B72897   8.118  13.068   7.050
10175POPC   C4B72898   8.107  13.032   7.350
10176POPC   NC372899  23.726  29.934   5.550
10176POPC   PO472900  23.716  29.875   5.850
10176POPC   GL172901  23.724  29.874   6.150
10176POPC   GL272902  23.812  29.927   6.150
10176POPC   C1A72903  23.733  29.916   6.450
10176POPC   D2A72904  23.741  29.942   6.750
10176POPC   C3A72905  23.738  29.888   7.050
10176POPC   C4A72906  23.729  29.947   7.350
10176POPC   C1B72907  23.963  29.900   6.450
10176POPC   C2B72908  23.963  29.943   6.750
10176POPC   C3B72909  23.991  29.956   7.050
10176POPC   C4B72910  24.001  29.907   7.350
10177POPC   NC372911   1.192  44.632   5.550
10177POPC   PO472912   1.262  44.653   5.850
10177POPC   GL172913   1.174  44.699   6.150
10177POPC   GL272914   1.277  44.726   6.150
10177POPC   C1A72915   1.247  44.656   6.450
10177POPC   D2A72916   1.186  44.634   6.750
10177POPC   C3A72917   1.248  44.630   7.050
10177POPC   C4A72918   1.257  44.675   7.350
10177POPC   C1B72919   1.387  44.840   6.450
10177POPC   C2B72920   1.413  44.858   6.750
10177POPC   C3B72921   1.428  44.776   7.050
10177POPC   C4B72922   1.449  44.808   7.350
10178POPC   NC372923   1.997  15.201   5.550
10178POPC   PO472924   2.019  15.214   5.850
10178POPC   GL172925   2.012  15.168   6.150
10178POPC   GL272926   1.955  15.304   6.150
10178POPC   C1A72927   1.983  15.183   6.450
10178POPC   D2A72928   1.971  15.180   6.750
10178POPC   C3A72929   2.021  15.220   7.050
10178POPC   C4A72930   1.969  15.176   7.350
10178POPC   C1B72931   1.996  15.424   6.450
10178POPC   C2B72932   2.022  15.447   6.750
10178POPC   C3B72933   1.959  15.478   7.050
10178POPC   C4B72934   1.985  15.396   7.350
10179POPC   NC372935  12.827   0.397   5.550
10179POPC   PO472936  12.901   0.394   5.850
10179POPC   GL172937  12.872   0.474   6.150
10179POPC   GL272938  12.812   0.334   6.150
10179POPC   C1A72939  12.866   0.462   6.450
10179POPC   D2A72940  12.811   0.416   6.750
10179POPC   C3A72941  12.833   0.431   7.050
10179POPC   C4A72942  12.852   0.455   7.350
10179POPC   C1B72943  12.772   0.161   6.450
10179POPC   C2B72944  12.770   0.158   6.750
10179POPC   C3B72945  12.767   0.172   7.050
10179POPC   C4B72946  12.745   0.244   7.350
10180POPC   NC372947   9.777  39.234   5.550
10180POPC   PO472948   9.699  39.257   5.850
10180POPC   GL172949   9.747  39.200   6.150
10180POPC   GL272950   9.700  39.382   6.150
10180POPC   C1A72951   9.715  39.240   6.450
10180POPC   D2A72952   9.759  39.210   6.750
10180POPC   C3A72953   9.764  39.258   7.050
10180POPC   C4A72954   9.703  39.203   7.350
10180POPC   C1B72955   9.686  39.463   6.450
10180POPC   C2B72956   9.692  39.524   6.750
10180POPC   C3B72957   9.710  39.511   7.050
10180POPC   C4B72958   9.642  39.519   7.350
10181POPC   NC372959  18.302   4.280   5.550
10181POPC   PO472960  18.236   4.307   5.850
10181POPC   GL172961  18.301   4.363   6.150
10181POPC   GL272962  18.187   4.250   6.150
10181POPC   C1A72963  18.235   4.342   6.450
10181POPC   D2A72964  18.259   4.341   6.750
10181POPC   C3A72965  18.315   4.363   7.050
10181POPC   C4A72966  18.234   4.331   7.350
10181POPC   C1B72967  18.069   4.140   6.450
10181POPC   C2B72968  18.098   4.126   6.750
10181POPC   C3B72969  18.138   4.181   7.050
10181POPC   C4B72970  18.050   4.188   7.350
10182POPC   NC372971  39.245  21.363   5.550
10182POPC   PO472972  39.244  21.411   5.850
10182POPC   GL172973  39.199  21.391   6.150
10182POPC   GL272974  39.115  21.259   6.150
10182POPC   C1A72975  39.245  21.382   6.450
10182POPC   D2A72976  39.226  21.421   6.750
10182POPC   C3A72977  39.233  21.431   7.050
10182POPC   C4A72978  39.212  21.369   7.350
10182POPC   C1B72979  39.065  21.175   6.450
10182POPC   C2B72980  39.039  21.173   6.750
10182POPC   C3B72981  39.032  21.189   7.050
10182POPC   C4B72982  39.084  21.230   7.350
10183POPC   NC372983  20.632  43.146   5.550
10183POPC   PO472984  20.593  43.113   5.850
10183POPC   GL172985  20.597  43.109   6.150
10183POPC   GL272986  20.486  43.078   6.150
10183POPC   C1A72987  20.632  43.159   6.450
10183POPC   D2A72988  20.587  43.085   6.750
10183POPC   C3A72989  20.595  43.138   7.050
10183POPC   C4A72990  20.584  43.139   7.350
10183POPC   C1B72991  20.330  43.160   6.450
10183POPC   C2B72992  20.369  43.156   6.750
10183POPC   C3B72993  20.325  43.149   7.050
10183POPC   C4B72994  20.348  43.124   7.350
10184POPC   NC372995  44.652   8.213   5.550
10184POPC   PO472996  44.621   8.164   5.850
10184POPC   GL172997  44.703   8.219   6.150
10184POPC   GL272998  44.591   8.125   6.150
10184POPC   C1A72999  44.621   8.195   6.450
10184POPC   D2A73000  44.681   8.226   6.750
10184POPC   C3A73001  44.646   8.241   7.050
10184POPC   C4A73002  44.630   8.246   7.350
10184POPC   C1B73003  44.418   8.100   6.450
10184POPC   C2B73004  44.466   8.019   6.750
10184POPC   C3B73005  44.417   8.081   7.050
10184POPC   C4B73006  44.411   8.037   7.350
10185POPC   NC373007   8.941  42.383   5.550
10185POPC   PO473008   8.923  42.338   5.850
10185POPC   GL173009   8.935  42.351   6.150
10185POPC   GL273010   8.820  42.322   6.150
10185POPC   C1A73011   9.010  42.306   6.450
10185POPC   D2A73012   8.959  42.334   6.750
10185POPC   C3A73013   8.963  42.331   7.050
10185POPC   C4A73014   8.976  42.287   7.350
10185POPC   C1B73015   8.784  42.211   6.450
10185POPC   C2B73016   8.776  42.270   6.750
10185POPC   C3B73017   8.758  42.250   7.050
10185POPC   C4B73018   8.732  42.205   7.350
10186POPC   NC373019  12.890  32.248   5.550
10186POPC   PO473020  12.813  32.229   5.850
10186POPC   GL173021  12.877  32.253   6.150
10186POPC   GL273022  12.899  32.179   6.150
10186POPC   C1A73023  12.809  32.269   6.450
10186POPC   D2A73024  12.872  32.216   6.750
10186POPC   C3A73025  12.894  32.220   7.050
10186POPC   C4A73026  12.873  32.239   7.350
10186POPC   C1B73027  12.933  32.030   6.450
10186POPC   C2B73028  13.019  32.064   6.750
10186POPC   C3B73029  13.001  32.066   7.050
10186POPC   C4B73030  13.012  32.067   7.350
10187POPC   NC373031  24.482   5.882   5.550
10187POPC   PO473032  24.532   5.841   5.850
10187POPC   GL173033  24.521   5.836   6.150
10187POPC   GL273034  24.366   5.954   6.150
10187POPC   C1A73035  24.449   5.853   6.450
10187POPC   D2A73036  24.533   5.913   6.750
10187POPC   C3A73037  24.504   5.911   7.050
10187POPC   C4A73038  24.500   5.824   7.350
10187POPC   C1B73039  24.299   5.930   6.450
10187POPC   C2B73040  24.269   5.917   6.750
10187POPC   C3B73041  24.234   5.970   7.050
10187POPC   C4B73042  24.211   5.994   7.350
10188POPC   NC373043   2.720  26.851   5.550
10188POPC   PO473044   2.731  26.827   5.850
10188POPC   GL173045   2.735  26.841   6.150
10188POPC   GL273046   2.859  26.871   6.150
10188POPC   C1A73047   2.790  26.834   6.450
10188POPC   D2A73048   2.756  26.851   6.750
10188POPC   C3A73049   2.793  26.778   7.050
10188POPC   C4A73050   2.815  26.789   7.350
10188POPC   C1B73051   2.982  26.920   6.450
10188POPC   C2B73052   2.953  26.914   6.750
10188POPC   C3B73053   3.000  26.945   7.050
10188POPC   C4B73054   2.945  26.970   7.350
10189POPC   NC373055  44.664   9.754   5.550
10189POPC   PO473056  44.652   9.761   5.850
10189POPC   GL173057  44.709   9.738   6.150
10189POPC   GL273058  44.591   9.681   6.150
10189POPC   C1A73059  44.652   9.769   6.450
10189POPC   D2A73060  44.695   9.753   6.750
10189POPC   C3A73061  44.694   9.753   7.050
10189POPC   C4A73062  44.691   9.733   7.350
10189POPC   C1B73063  44.485   9.562   6.450
10189POPC   C2B73064  44.417   9.623   6.750
10189POPC   C3B73065  44.506   9.583   7.050
10189POPC   C4B73066  44.466   9.579   7.350
10190POPC   NC373067  22.952  42.380   5.550
10190POPC   PO473068  22.934  42.384   5.850
10190POPC   GL173069  22.967  42.340   6.150
10190POPC   GL273070  22.893  42.218   6.150
10190POPC   C1A73071  22.911  42.357   6.450
10190POPC   D2A73072  22.943  42.320   6.750
10190POPC   C3A73073  22.920  42.334   7.050
10190POPC   C4A73074  22.981  42.321   7.350
10190POPC   C1B73075  22.884  42.136   6.450
10190POPC   C2B73076  22.945  42.134   6.750
10190POPC   C3B73077  22.876  42.107   7.050
10190POPC   C4B73078  22.923  42.074   7.350
10191POPC   NC373079  11.322  22.976   5.550
10191POPC   PO473080  11.275  22.889   5.850
10191POPC   GL173081  11.305  22.918   6.150
10191POPC   GL273082  11.364  22.836   6.150
10191POPC   C1A73083  11.342  22.964   6.450
10191POPC   D2A73084  11.327  22.983   6.750
10191POPC   C3A73085  11.260  22.939   7.050
10191POPC   C4A73086  11.347  22.940   7.350
10191POPC   C1B73087  11.461  22.801   6.450
10191POPC   C2B73088  11.553  22.779   6.750
10191POPC   C3B73089  11.530  22.819   7.050
10191POPC   C4B73090  11.550  22.784   7.350
10192POPC   NC373091  34.584   9.719   5.550
10192POPC   PO473092  34.526   9.729   5.850
10192POPC   GL173093  34.550   9.728   6.150
10192POPC   GL273094  34.651   9.843   6.150
10192POPC   C1A73095  34.596   9.732   6.450
10192POPC   D2A73096  34.608   9.728   6.750
10192POPC   C3A73097  34.574   9.741   7.050
10192POPC   C4A73098  34.573   9.719   7.350
10192POPC   C1B73099  34.634   9.957   6.450
10192POPC   C2B73100  34.672  10.036   6.750
10192POPC   C3B73101  34.589   9.998   7.050
10192POPC   C4B73102  34.664   9.968   7.350
10193POPC   NC373103   6.685  29.880   5.550
10193POPC   PO473104   6.680  29.912   5.850
10193POPC   GL173105   6.639  29.887   6.150
10193POPC   GL273106   6.748  29.835   6.150
10193POPC   C1A73107   6.694  29.954   6.450
10193POPC   D2A73108   6.638  29.900   6.750
10193POPC   C3A73109   6.625  29.913   7.050
10193POPC   C4A73110   6.664  29.909   7.350
10193POPC   C1B73111   6.768  29.705   6.450
10193POPC   C2B73112   6.754  29.711   6.750
10193POPC   C3B73113   6.804  29.675   7.050
10193POPC   C4B73114   6.820  29.675   7.350
10194POPC   NC373115  27.581  28.366   5.550
10194POPC   PO473116  27.613  28.319   5.850
10194POPC   GL173117  27.630  28.378   6.150
10194POPC   GL273118  27.754  28.393   6.150
10194POPC   C1A73119  27.622  28.338   6.450
10194POPC   D2A73120  27.604  28.398   6.750
10194POPC   C3A73121  27.601  28.359   7.050
10194POPC   C4A73122  27.584  28.337   7.350
10194POPC   C1B73123  27.851  28.432   6.450
10194POPC   C2B73124  27.868  28.450   6.750
10194POPC   C3B73125  27.869  28.452   7.050
10194POPC   C4B73126  27.847  28.397   7.350
10195POPC   NC373127  39.229  40.043   5.550
10195POPC   PO473128  39.259  39.993   5.850
10195POPC   GL173129  39.266  40.047   6.150
10195POPC   GL273130  39.129  40.089   6.150
10195POPC   C1A73131  39.263  40.044   6.450
10195POPC   D2A73132  39.191  40.055   6.750
10195POPC   C3A73133  39.247  40.006   7.050
10195POPC   C4A73134  39.254  39.967   7.350
10195POPC   C1B73135  39.123  40.270   6.450
10195POPC   C2B73136  39.142  40.248   6.750
10195POPC   C3B73137  39.065  40.215   7.050
10195POPC   C4B73138  39.120  40.217   7.350
10196POPC   NC373139  11.328   5.875   5.550
10196POPC   PO473140  11.331   5.845   5.850
10196POPC   GL173141  11.267   5.845   6.150
10196POPC   GL273142  11.373   5.802   6.150
10196POPC   C1A73143  11.267   5.902   6.450
10196POPC   D2A73144  11.331   5.835   6.750
10196POPC   C3A73145  11.324   5.838   7.050
10196POPC   C4A73146  11.303   5.884   7.350
10196POPC   C1B73147  11.578   5.749   6.450
10196POPC   C2B73148  11.543   5.779   6.750
10196POPC   C3B73149  11.504   5.804   7.050
10196POPC   C4B73150  11.518   5.724   7.350
10197POPC   NC373151  39.991   7.393   5.550
10197POPC   PO473152  39.961   7.457   5.850
10197POPC   GL173153  39.994   7.437   6.150
10197POPC   GL273154  39.839   7.441   6.150
10197POPC   C1A73155  40.045   7.468   6.450
10197POPC   D2A73156  39.971   7.376   6.750
10197POPC   C3A73157  40.038   7.428   7.050
10197POPC   C4A73158  40.000   7.409   7.350
10197POPC   C1B73159  39.728   7.360   6.450
10197POPC   C2B73160  39.782   7.349   6.750
10197POPC   C3B73161  39.776   7.399   7.050
10197POPC   C4B73162  39.755   7.376   7.350
10198POPC   NC373163  22.200  32.276   5.550
10198POPC   PO473164  22.121  32.284   5.850
10198POPC   GL173165  22.162  32.293   6.150
10198POPC   GL273166  22.318  32.178   6.150
10198POPC   C1A73167  22.170  32.200   6.450
10198POPC   D2A73168  22.151  32.290   6.750
10198POPC   C3A73169  22.184  32.212   7.050
10198POPC   C4A73170  22.147  32.241   7.350
10198POPC   C1B73171  22.425  32.130   6.450
10198POPC   C2B73172  22.439  32.195   6.750
10198POPC   C3B73173  22.426  32.205   7.050
10198POPC   C4B73174  22.418  32.185   7.350
10199POPC   NC373175  15.997   8.236   5.550
10199POPC   PO473176  15.989   8.173   5.850
10199POPC   GL173177  16.004   8.157   6.150
10199POPC   GL273178  16.073   8.135   6.150
10199POPC   C1A73179  16.000   8.210   6.450
10199POPC   D2A73180  15.916   8.180   6.750
10199POPC   C3A73181  15.945   8.153   7.050
10199POPC   C4A73182  15.958   8.164   7.350
10199POPC   C1B73183  16.207   8.205   6.450
10199POPC   C2B73184  16.176   8.175   6.750
10199POPC   C3B73185  16.172   8.206   7.050
10199POPC   C4B73186  16.185   8.186   7.350
10200POPC   NC373187   3.493  26.816   5.550
10200POPC   PO473188   3.562  26.858   5.850
10200POPC   GL173189   3.557  26.770   6.150
10200POPC   GL273190   3.432  26.831   6.150
10200POPC   C1A73191   3.556  26.812   6.450
10200POPC   D2A73192   3.506  26.805   6.750
10200POPC   C3A73193   3.518  26.792   7.050
10200POPC   C4A73194   3.554  26.834   7.350
10200POPC   C1B73195   3.332  26.820   6.450
10200POPC   C2B73196   3.302  26.878   6.750
10200POPC   C3B73197   3.270  26.821   7.050
10200POPC   C4B73198   3.347  26.893   7.350
10201POPC   NC373199  40.807  42.332   5.550
10201POPC   PO473200  40.757  42.328   5.850
10201POPC   GL173201  40.767  42.333   6.150
10201POPC   GL273202  40.880  42.424   6.150
10201POPC   C1A73203  40.766  42.372   6.450
10201POPC   D2A73204  40.745  42.384   6.750
10201POPC   C3A73205  40.768  42.343   7.050
10201POPC   C4A73206  40.789  42.335   7.350
10201POPC   C1B73207  41.011  42.490   6.450
10201POPC   C2B73208  41.010  42.442   6.750
10201POPC   C3B73209  41.025  42.498   7.050
10201POPC   C4B73210  40.952  42.513   7.350
10202POPC   NC373211  30.715   9.699   5.550
10202POPC   PO473212  30.692   9.739   5.850
10202POPC   GL173213  30.675   9.778   6.150
10202POPC   GL273214  30.636   9.706   6.150
10202POPC   C1A73215  30.729   9.773   6.450
10202POPC   D2A73216  30.684   9.741   6.750
10202POPC   C3A73217  30.663   9.712   7.050
10202POPC   C4A73218  30.650   9.731   7.350
10202POPC   C1B73219  30.461   9.577   6.450
10202POPC   C2B73220  30.498   9.643   6.750
10202POPC   C3B73221  30.446   9.576   7.050
10202POPC   C4B73222  30.477   9.603   7.350
10203POPC   NC373223  43.926  36.927   5.550
10203POPC   PO473224  43.850  36.857   5.850
10203POPC   GL173225  43.881  36.872   6.150
10203POPC   GL273226  43.948  36.827   6.150
10203POPC   C1A73227  43.839  36.895   6.450
10203POPC   D2A73228  43.898  36.941   6.750
10203POPC   C3A73229  43.930  36.880   7.050
10203POPC   C4A73230  43.873  36.938   7.350
10203POPC   C1B73231  44.067  36.710   6.450
10203POPC   C2B73232  44.040  36.704   6.750
10203POPC   C3B73233  44.112  36.693   7.050
10203POPC   C4B73234  44.081  36.751   7.350
10204POPC   NC373235  27.591  17.501   5.550
10204POPC   PO473236  27.615  17.517   5.850
10204POPC   GL173237  27.629  17.530   6.150
10204POPC   GL273238  27.576  17.640   6.150
10204POPC   C1A73239  27.590  17.504   6.450
10204POPC   D2A73240  27.591  17.518   6.750
10204POPC   C3A73241  27.557  17.457   7.050
10204POPC   C4A73242  27.570  17.508   7.350
10204POPC   C1B73243  27.468  17.670   6.450
10204POPC   C2B73244  27.452  17.690   6.750
10204POPC   C3B73245  27.444  17.758   7.050
10204POPC   C4B73246  27.444  17.753   7.350
10205POPC   NC373247   5.048  44.690   5.550
10205POPC   PO473248   5.088  44.682   5.850
10205POPC   GL173249   5.088  44.690   6.150
10205POPC   GL273250   5.096  44.498   6.150
10205POPC   C1A73251   5.110  44.652   6.450
10205POPC   D2A73252   5.056  44.644   6.750
10205POPC   C3A73253   5.128  44.652   7.050
10205POPC   C4A73254   5.105  44.637   7.350
10205POPC   C1B73255   5.029  44.478   6.450
10205POPC   C2B73256   4.996  44.380   6.750
10205POPC   C3B73257   5.032  44.454   7.050
10205POPC   C4B73258   5.007  44.443   7.350
10206POPC   NC373259  22.954  39.971   5.550
10206POPC   PO473260  22.961  39.958   5.850
10206POPC   GL173261  22.902  40.015   6.150
10206POPC   GL273262  23.092  39.980   6.150
10206POPC   C1A73263  22.918  39.973   6.450
10206POPC   D2A73264  22.924  39.962   6.750
10206POPC   C3A73265  22.893  40.014   7.050
10206POPC   C4A73266  22.926  40.017   7.350
10206POPC   C1B73267  23.147  39.981   6.450
10206POPC   C2B73268  23.219  39.923   6.750
10206POPC   C3B73269  23.231  39.985   7.050
10206POPC   C4B73270  23.146  39.973   7.350
10207POPC   NC373271   1.241   2.800   5.550
10207POPC   PO473272   1.198   2.803   5.850
10207POPC   GL173273   1.198   2.803   6.150
10207POPC   GL273274   1.280   2.914   6.150
10207POPC   C1A73275   1.199   2.812   6.450
10207POPC   D2A73276   1.197   2.747   6.750
10207POPC   C3A73277   1.168   2.787   7.050
10207POPC   C4A73278   1.168   2.717   7.350
10207POPC   C1B73279   1.370   2.929   6.450
10207POPC   C2B73280   1.334   2.969   6.750
10207POPC   C3B73281   1.380   3.006   7.050
10207POPC   C4B73282   1.379   2.961   7.350
10208POPC   NC373283   8.977  31.463   5.550
10208POPC   PO473284   8.982  31.437   5.850
10208POPC   GL173285   8.954  31.452   6.150
10208POPC   GL273286   9.019  31.565   6.150
10208POPC   C1A73287   9.020  31.456   6.450
10208POPC   D2A73288   9.001  31.490   6.750
10208POPC   C3A73289   8.997  31.430   7.050
10208POPC   C4A73290   8.943  31.466   7.350
10208POPC   C1B73291   9.162  31.628   6.450
10208POPC   C2B73292   9.156  31.659   6.750
10208POPC   C3B73293   9.207  31.609   7.050
10208POPC   C4B73294   9.167  31.683   7.350
10209POPC   NC373295  27.615  12.048   5.550
10209POPC   PO473296  27.570  12.111   5.850
10209POPC   GL173297  27.622  12.045   6.150
10209POPC   GL273298  27.437  12.070   6.150
10209POPC   C1A73299  27.550  12.125   6.450
10209POPC   D2A73300  27.602  12.103   6.750
10209POPC   C3A73301  27.549  12.118   7.050
10209POPC   C4A73302  27.578  12.034   7.350
10209POPC   C1B73303  27.301  12.089   6.450
10209POPC   C2B73304  27.344  12.097   6.750
10209POPC   C3B73305  27.316  12.084   7.050
10209POPC   C4B73306  27.337  12.075   7.350
10210POPC   NC373307   7.440  23.720   5.550
10210POPC   PO473308   7.400  23.711   5.850
10210POPC   GL173309   7.438  23.687   6.150
10210POPC   GL273310   7.432  23.540   6.150
10210POPC   C1A73311   7.450  23.712   6.450
10210POPC   D2A73312   7.394  23.716   6.750
10210POPC   C3A73313   7.429  23.727   7.050
10210POPC   C4A73314   7.403  23.750   7.350
10210POPC   C1B73315   7.419  23.513   6.450
10210POPC   C2B73316   7.415  23.513   6.750
10210POPC   C3B73317   7.446  23.495   7.050
10210POPC   C4B73318   7.403  23.436   7.350
10211POPC   NC373319   6.599  12.846   5.550
10211POPC   PO473320   6.684  12.863   5.850
10211POPC   GL173321   6.601  12.883   6.150
10211POPC   GL273322   6.630  12.693   6.150
10211POPC   C1A73323   6.669  12.813   6.450
10211POPC   D2A73324   6.623  12.869   6.750
10211POPC   C3A73325   6.633  12.875   7.050
10211POPC   C4A73326   6.615  12.844   7.350
10211POPC   C1B73327   6.616  12.562   6.450
10211POPC   C2B73328   6.568  12.621   6.750
10211POPC   C3B73329   6.565  12.600   7.050
10211POPC   C4B73330   6.598  12.558   7.350
10212POPC   NC373331  32.202  22.140   5.550
10212POPC   PO473332  32.261  22.150   5.850
10212POPC   GL173333  32.277  22.154   6.150
10212POPC   GL273334  32.218  22.244   6.150
10212POPC   C1A73335  32.258  22.127   6.450
10212POPC   D2A73336  32.229  22.181   6.750
10212POPC   C3A73337  32.290  22.124   7.050
10212POPC   C4A73338  32.283  22.196   7.350
10212POPC   C1B73339  32.259  22.361   6.450
10212POPC   C2B73340  32.262  22.431   6.750
10212POPC   C3B73341  32.320  22.406   7.050
10212POPC   C4B73342  32.247  22.366   7.350
10213POPC   NC373343   3.521  15.997   5.550
10213POPC   PO473344   3.566  15.920   5.850
10213POPC   GL173345   3.580  16.004   6.150
10213POPC   GL273346   3.644  15.995   6.150
10213POPC   C1A73347   3.570  15.988   6.450
10213POPC   D2A73348   3.561  15.917   6.750
10213POPC   C3A73349   3.518  15.985   7.050
10213POPC   C4A73350   3.497  15.948   7.350
10213POPC   C1B73351   3.702  16.121   6.450
10213POPC   C2B73352   3.735  16.083   6.750
10213POPC   C3B73353   3.743  16.083   7.050
10213POPC   C4B73354   3.705  16.155   7.350
10214POPC   NC373355  22.181   2.805   5.550
10214POPC   PO473356  22.174   2.716   5.850
10214POPC   GL173357  22.135   2.729   6.150
10214POPC   GL273358  22.046   2.721   6.150
10214POPC   C1A73359  22.176   2.811   6.450
10214POPC   D2A73360  22.203   2.800   6.750
10214POPC   C3A73361  22.125   2.738   7.050
10214POPC   C4A73362  22.136   2.762   7.350
10214POPC   C1B73363  21.952   2.777   6.450
10214POPC   C2B73364  21.872   2.704   6.750
10214POPC   C3B73365  21.959   2.765   7.050
10214POPC   C4B73366  21.951   2.777   7.350
10215POPC   NC373367  42.344  30.698   5.550
10215POPC   PO473368  42.351  30.739   5.850
10215POPC   GL173369  42.335  30.726   6.150
10215POPC   GL273370  42.250  30.821   6.150
10215POPC   C1A73371  42.302  30.731   6.450
10215POPC   D2A73372  42.320  30.652   6.750
10215POPC   C3A73373  42.351  30.681   7.050
10215POPC   C4A73374  42.352  30.661   7.350
10215POPC   C1B73375  42.217  30.911   6.450
10215POPC   C2B73376  42.196  30.893   6.750
10215POPC   C3B73377  42.201  30.904   7.050
10215POPC   C4B73378  42.177  30.932   7.350
10216POPC   NC373379  23.757   9.769   5.550
10216POPC   PO473380  23.740   9.729   5.850
10216POPC   GL173381  23.749   9.777   6.150
10216POPC   GL273382  23.822   9.806   6.150
10216POPC   C1A73383  23.697   9.738   6.450
10216POPC   D2A73384  23.744   9.762   6.750
10216POPC   C3A73385  23.712   9.739   7.050
10216POPC   C4A73386  23.734   9.767   7.350
10216POPC   C1B73387  23.962   9.825   6.450
10216POPC   C2B73388  23.947   9.903   6.750
10216POPC   C3B73389  23.885   9.922   7.050
10216POPC   C4B73390  23.902   9.833   7.350
10217POPC   NC373391  37.707  36.946   5.550
10217POPC   PO473392  37.637  36.856   5.850
10217POPC   GL173393  37.632  36.862   6.150
10217POPC   GL273394  37.731  36.822   6.150
10217POPC   C1A73395  37.646  36.864   6.450
10217POPC   D2A73396  37.716  36.902   6.750
10217POPC   C3A73397  37.650  36.864   7.050
10217POPC   C4A73398  37.631  36.951   7.350
10217POPC   C1B73399  37.913  36.723   6.450
10217POPC   C2B73400  37.838  36.796   6.750
10217POPC   C3B73401  37.901  36.772   7.050
10217POPC   C4B73402  37.834  36.762   7.350
10218POPC   NC373403   5.837  40.773   5.550
10218POPC   PO473404   5.833  40.807   5.850
10218POPC   GL173405   5.820  40.768   6.150
10218POPC   GL273406   5.922  40.626   6.150
10218POPC   C1A73407   5.916  40.810   6.450
10218POPC   D2A73408   5.831  40.765   6.750
10218POPC   C3A73409   5.863  40.772   7.050
10218POPC   C4A73410   5.831  40.744   7.350
10218POPC   C1B73411   5.981  40.510   6.450
10218POPC   C2B73412   5.988  40.524   6.750
10218POPC   C3B73413   5.971  40.507   7.050
10218POPC   C4B73414   5.927  40.604   7.350
10219POPC   NC373415  26.845  39.225   5.550
10219POPC   PO473416  26.836  39.210   5.850
10219POPC   GL173417  26.865  39.265   6.150
10219POPC   GL273418  26.900  39.164   6.150
10219POPC   C1A73419  26.864  39.274   6.450
10219POPC   D2A73420  26.805  39.274   6.750
10219POPC   C3A73421  26.843  39.256   7.050
10219POPC   C4A73422  26.798  39.219   7.350
10219POPC   C1B73423  26.986  39.132   6.450
10219POPC   C2B73424  27.005  39.088   6.750
10219POPC   C3B73425  27.080  39.132   7.050
10219POPC   C4B73426  27.046  39.101   7.350
10220POPC   NC373427   7.386  13.597   5.550
10220POPC   PO473428   7.387  13.616   5.850
10220POPC   GL173429   7.413  13.631   6.150
10220POPC   GL273430   7.269  13.549   6.150
10220POPC   C1A73431   7.373  13.657   6.450
10220POPC   D2A73432   7.372  13.606   6.750
10220POPC   C3A73433   7.375  13.655   7.050
10220POPC   C4A73434   7.426  13.598   7.350
10220POPC   C1B73435   7.174  13.503   6.450
10220POPC   C2B73436   7.166  13.484   6.750
10220POPC   C3B73437   7.201  13.545   7.050
10220POPC   C4B73438   7.176  13.531   7.350
10221POPC   NC373439  23.706   3.542   5.550
10221POPC   PO473440  23.746   3.552   5.850
10221POPC   GL173441  23.725   3.519   6.150
10221POPC   GL273442  23.808   3.565   6.150
10221POPC   C1A73443  23.695   3.511   6.450
10221POPC   D2A73444  23.711   3.565   6.750
10221POPC   C3A73445  23.690   3.552   7.050
10221POPC   C4A73446  23.698   3.562   7.350
10221POPC   C1B73447  23.943   3.518   6.450
10221POPC   C2B73448  23.925   3.515   6.750
10221POPC   C3B73449  23.968   3.525   7.050
10221POPC   C4B73450  23.931   3.461   7.350
10222POPC   NC373451  33.066  43.925   5.550
10222POPC   PO473452  32.997  43.916   5.850
10222POPC   GL173453  33.059  43.900   6.150
10222POPC   GL273454  33.012  43.798   6.150
10222POPC   C1A73455  32.979  43.875   6.450
10222POPC   D2A73456  33.046  43.909   6.750
10222POPC   C3A73457  33.045  43.878   7.050
10222POPC   C4A73458  33.043  43.846   7.350
10222POPC   C1B73459  33.093  43.637   6.450
10222POPC   C2B73460  33.065  43.633   6.750
10222POPC   C3B73461  33.040  43.621   7.050
10222POPC   C4B73462  33.069  43.616   7.350
10223POPC   NC373463   8.967  15.208   5.550
10223POPC   PO473464   8.982  15.187   5.850
10223POPC   GL173465   8.990  15.156   6.150
10223POPC   GL273466   8.973  15.248   6.150
10223POPC   C1A73467   8.993  15.222   6.450
10223POPC   D2A73468   8.973  15.204   6.750
10223POPC   C3A73469   8.938  15.151   7.050
10223POPC   C4A73470   9.017  15.200   7.350
10223POPC   C1B73471   8.904  15.456   6.450
10223POPC   C2B73472   8.855  15.421   6.750
10223POPC   C3B73473   8.928  15.439   7.050
10223POPC   C4B73474   8.895  15.423   7.350
10224POPC   NC373475   1.990   9.727   5.550
10224POPC   PO473476   2.004   9.781   5.850
10224POPC   GL173477   1.947   9.772   6.150
10224POPC   GL273478   1.850   9.770   6.150
10224POPC   C1A73479   1.965   9.701   6.450
10224POPC   D2A73480   1.992   9.704   6.750
10224POPC   C3A73481   2.002   9.735   7.050
10224POPC   C4A73482   2.009   9.741   7.350
10224POPC   C1B73483   1.741   9.785   6.450
10224POPC   C2B73484   1.743   9.745   6.750
10224POPC   C3B73485   1.693   9.740   7.050
10224POPC   C4B73486   1.726   9.726   7.350
10225POPC   NC373487   2.775   4.318   5.550
10225POPC   PO473488   2.722   4.288   5.850
10225POPC   GL173489   2.725   4.295   6.150
10225POPC   GL273490   2.870   4.382   6.150
10225POPC   C1A73491   2.756   4.282   6.450
10225POPC   D2A73492   2.775   4.341   6.750
10225POPC   C3A73493   2.730   4.353   7.050
10225POPC   C4A73494   2.718   4.360   7.350
10225POPC   C1B73495   2.974   4.540   6.450
10225POPC   C2B73496   2.990   4.457   6.750
10225POPC   C3B73497   2.989   4.476   7.050
10225POPC   C4B73498   2.954   4.502   7.350
10226POPC   NC373499  15.153  31.470   5.550
10226POPC   PO473500  15.207  31.446   5.850
10226POPC   GL173501  15.216  31.449   6.150
10226POPC   GL273502  15.279  31.352   6.150
10226POPC   C1A73503  15.205  31.487   6.450
10226POPC   D2A73504  15.137  31.480   6.750
10226POPC   C3A73505  15.214  31.470   7.050
10226POPC   C4A73506  15.216  31.468   7.350
10226POPC   C1B73507  15.321  31.251   6.450
10226POPC   C2B73508  15.369  31.334   6.750
10226POPC   C3B73509  15.394  31.306   7.050
10226POPC   C4B73510  15.370  31.335   7.350
10227POPC   NC373511  29.101  36.131   5.550
10227POPC   PO473512  29.135  36.168   5.850
10227POPC   GL173513  29.165  36.133   6.150
10227POPC   GL273514  29.159  36.022   6.150
10227POPC   C1A73515  29.121  36.169   6.450
10227POPC   D2A73516  29.194  36.089   6.750
10227POPC   C3A73517  29.109  36.085   7.050
10227POPC   C4A73518  29.184  36.146   7.350
10227POPC   C1B73519  29.114  35.922   6.450
10227POPC   C2B73520  29.080  35.841   6.750
10227POPC   C3B73521  29.154  35.902   7.050
10227POPC   C4B73522  29.069  35.831   7.350
10228POPC   NC373523  28.392  15.993   5.550
10228POPC   PO473524  28.340  15.970   5.850
10228POPC   GL173525  28.327  16.002   6.150
10228POPC   GL273526  28.447  15.976   6.150
10228POPC   C1A73527  28.362  15.969   6.450
10228POPC   D2A73528  28.326  15.986   6.750
10228POPC   C3A73529  28.356  15.979   7.050
10228POPC   C4A73530  28.324  15.938   7.350
10228POPC   C1B73531  28.580  15.951   6.450
10228POPC   C2B73532  28.608  15.884   6.750
10228POPC   C3B73533  28.597  15.966   7.050
10228POPC   C4B73534  28.573  15.945   7.350
10229POPC   NC373535   9.722  31.500   5.550
10229POPC   PO473536   9.777  31.499   5.850
10229POPC   GL173537   9.708  31.490   6.150
10229POPC   GL273538   9.640  31.577   6.150
10229POPC   C1A73539   9.769  31.436   6.450
10229POPC   D2A73540   9.725  31.472   6.750
10229POPC   C3A73541   9.735  31.477   7.050
10229POPC   C4A73542   9.744  31.430   7.350
10229POPC   C1B73543   9.645  31.716   6.450
10229POPC   C2B73544   9.634  31.624   6.750
10229POPC   C3B73545   9.562  31.646   7.050
10229POPC   C4B73546   9.569  31.691   7.350
10230POPC   NC373547  44.618  43.931   5.550
10230POPC   PO473548  44.710  43.922   5.850
10230POPC   GL173549  44.640  43.934   6.150
10230POPC   GL273550  44.718  43.763   6.150
10230POPC   C1A73551  44.648  43.884   6.450
10230POPC   D2A73552  44.642  43.869   6.750
10230POPC   C3A73553  44.696  43.929   7.050
10230POPC   C4A73554  44.620  43.850   7.350
10230POPC   C1B73555  44.847  43.653   6.450
10230POPC   C2B73556  44.781  43.684   6.750
10230POPC   C3B73557  44.829  43.721   7.050
10230POPC   C4B73558  44.851  43.685   7.350
10231POPC   NC373559  23.665  27.618   5.550
10231POPC   PO473560  23.692  27.619   5.850
10231POPC   GL173561  23.722  27.598   6.150
10231POPC   GL273562  23.730  27.724   6.150
10231POPC   C1A73563  23.734  27.564   6.450
10231POPC   D2A73564  23.708  27.630   6.750
10231POPC   C3A73565  23.687  27.588   7.050
10231POPC   C4A73566  23.671  27.570   7.350
10231POPC   C1B73567  23.670  27.883   6.450
10231POPC   C2B73568  23.674  27.875   6.750
10231POPC   C3B73569  23.683  27.888   7.050
10231POPC   C4B73570  23.639  27.817   7.350
10232POPC   NC373571  23.664  43.928   5.550
10232POPC   PO473572  23.674  43.896   5.850
10232POPC   GL173573  23.698  43.901   6.150
10232POPC   GL273574  23.603  43.888   6.150
10232POPC   C1A73575  23.679  43.932   6.450
10232POPC   D2A73576  23.678  43.898   6.750
10232POPC   C3A73577  23.754  43.893   7.050
10232POPC   C4A73578  23.674  43.912   7.350
10232POPC   C1B73579  23.480  43.921   6.450
10232POPC   C2B73580  23.440  43.978   6.750
10232POPC   C3B73581  23.452  43.946   7.050
10232POPC   C4B73582  23.442  43.974   7.350
10233POPC   NC373583  27.619   7.425   5.550
10233POPC   PO473584  27.627   7.453   5.850
10233POPC   GL173585  27.551   7.373   6.150
10233POPC   GL273586  27.610   7.513   6.150
10233POPC   C1A73587  27.607   7.373   6.450
10233POPC   D2A73588  27.619   7.403   6.750
10233POPC   C3A73589  27.621   7.378   7.050
10233POPC   C4A73590  27.605   7.444   7.350
10233POPC   C1B73591  27.632   7.674   6.450
10233POPC   C2B73592  27.576   7.668   6.750
10233POPC   C3B73593  27.598   7.681   7.050
10233POPC   C4B73594  27.631   7.630   7.350
10234POPC   NC373595  22.961  23.686   5.550
10234POPC   PO473596  22.929  23.751   5.850
10234POPC   GL173597  22.986  23.686   6.150
10234POPC   GL273598  22.801  23.773   6.150
10234POPC   C1A73599  22.926  23.749   6.450
10234POPC   D2A73600  22.900  23.762   6.750
10234POPC   C3A73601  22.935  23.752   7.050
10234POPC   C4A73602  22.919  23.758   7.350
10234POPC   C1B73603  22.703  23.835   6.450
10234POPC   C2B73604  22.712  23.823   6.750
10234POPC   C3B73605  22.748  23.751   7.050
10234POPC   C4B73606  22.704  23.815   7.350
10235POPC   NC373607  30.733  36.079   5.550
10235POPC   PO473608  30.659  36.154   5.850
10235POPC   GL173609  30.675  36.099   6.150
10235POPC   GL273610  30.623  36.035   6.150
10235POPC   C1A73611  30.720  36.154   6.450
10235POPC   D2A73612  30.691  36.147   6.750
10235POPC   C3A73613  30.707  36.130   7.050
10235POPC   C4A73614  30.694  36.088   7.350
10235POPC   C1B73615  30.668  35.872   6.450
10235POPC   C2B73616  30.614  35.920   6.750
10235POPC   C3B73617  30.618  35.895   7.050
10235POPC   C4B73618  30.572  35.860   7.350
10236POPC   NC373619  29.946  20.650   5.550
10236POPC   PO473620  29.889  20.606   5.850
10236POPC   GL173621  29.885  20.637   6.150
10236POPC   GL273622  30.004  20.614   6.150
10236POPC   C1A73623  29.964  20.581   6.450
10236POPC   D2A73624  29.904  20.606   6.750
10236POPC   C3A73625  29.968  20.590   7.050
10236POPC   C4A73626  29.902  20.577   7.350
10236POPC   C1B73627  30.206  20.521   6.450
10236POPC   C2B73628  30.206  20.504   6.750
10236POPC   C3B73629  30.119  20.490   7.050
10236POPC   C4B73630  30.117  20.565   7.350
10237POPC   NC373631  29.189   0.413   5.550
10237POPC   PO473632  29.110   0.424   5.850
10237POPC   GL173633  29.114   0.455   6.150
10237POPC   GL273634  29.237   0.302   6.150
10237POPC   C1A73635  29.174   0.391   6.450
10237POPC   D2A73636  29.163   0.394   6.750
10237POPC   C3A73637  29.156   0.466   7.050
10237POPC   C4A73638  29.183   0.463   7.350
10237POPC   C1B73639  29.258   0.227   6.450
10237POPC   C2B73640  29.277   0.231   6.750
10237POPC   C3B73641  29.276   0.193   7.050
10237POPC   C4B73642  29.292   0.197   7.350
10238POPC   NC373643  26.005  22.982   5.550
10238POPC   PO473644  26.082  22.894   5.850
10238POPC   GL173645  26.038  22.950   6.150
10238POPC   GL273646  26.109  22.907   6.150
10238POPC   C1A73647  26.071  22.925   6.450
10238POPC   D2A73648  26.003  22.902   6.750
10238POPC   C3A73649  26.032  22.906   7.050
10238POPC   C4A73650  26.035  22.910   7.350
10238POPC   C1B73651  26.197  22.751   6.450
10238POPC   C2B73652  26.283  22.800   6.750
10238POPC   C3B73653  26.291  22.757   7.050
10238POPC   C4B73654  26.286  22.805   7.350
10239POPC   NC373655  21.384  33.050   5.550
10239POPC   PO473656  21.384  33.010   5.850
10239POPC   GL173657  21.400  33.064   6.150
10239POPC   GL273658  21.379  33.195   6.150
10239POPC   C1A73659  21.396  33.047   6.450
10239POPC   D2A73660  21.412  33.015   6.750
10239POPC   C3A73661  21.424  33.070   7.050
10239POPC   C4A73662  21.413  33.000   7.350
10239POPC   C1B73663  21.370  33.221   6.450
10239POPC   C2B73664  21.332  33.261   6.750
10239POPC   C3B73665  21.335  33.223   7.050
10239POPC   C4B73666  21.302  33.255   7.350
10240POPC   NC373667  37.649  20.633   5.550
10240POPC   PO473668  37.638  20.659   5.850
10240POPC   GL173669  37.663  20.579   6.150
10240POPC   GL273670  37.555  20.658   6.150
10240POPC   C1A73671  37.665  20.561   6.450
10240POPC   D2A73672  37.675  20.575   6.750
10240POPC   C3A73673  37.650  20.635   7.050
10240POPC   C4A73674  37.729  20.574   7.350
10240POPC   C1B73675  37.441  20.781   6.450
10240POPC   C2B73676  37.418  20.701   6.750
10240POPC   C3B73677  37.485  20.695   7.050
10240POPC   C4B73678  37.511  20.746   7.350
10241POPC   NC373679  41.605   7.380   5.550
10241POPC   PO473680  41.554   7.437   5.850
10241POPC   GL173681  41.607   7.387   6.150
10241POPC   GL273682  41.676   7.466   6.150
10241POPC   C1A73683  41.558   7.451   6.450
10241POPC   D2A73684  41.536   7.443   6.750
10241POPC   C3A73685  41.582   7.453   7.050
10241POPC   C4A73686  41.558   7.437   7.350
10241POPC   C1B73687  41.732   7.612   6.450
10241POPC   C2B73688  41.800   7.618   6.750
10241POPC   C3B73689  41.715   7.581   7.050
10241POPC   C4B73690  41.801   7.524   7.350
10242POPC   NC373691  22.975   6.605   5.550
10242POPC   PO473692  22.929   6.596   5.850
10242POPC   GL173693  22.907   6.680   6.150
10242POPC   GL273694  23.039   6.749   6.150
10242POPC   C1A73695  22.948   6.606   6.450
10242POPC   D2A73696  22.918   6.683   6.750
10242POPC   C3A73697  22.956   6.655   7.050
10242POPC   C4A73698  22.969   6.644   7.350
10242POPC   C1B73699  23.134   6.753   6.450
10242POPC   C2B73700  23.180   6.806   6.750
10242POPC   C3B73701  23.117   6.735   7.050
10242POPC   C4B73702  23.155   6.786   7.350
10243POPC   NC373703  43.152  12.836   5.550
10243POPC   PO473704  43.119  12.888   5.850
10243POPC   GL173705  43.120  12.901   6.150
10243POPC   GL273706  43.033  12.876   6.150
10243POPC   C1A73707  43.134  12.811   6.450
10243POPC   D2A73708  43.123  12.887   6.750
10243POPC   C3A73709  43.074  12.878   7.050
10243POPC   C4A73710  43.116  12.861   7.350
10243POPC   C1B73711  42.866  12.906   6.450
10243POPC   C2B73712  42.845  12.837   6.750
10243POPC   C3B73713  42.831  12.868   7.050
10243POPC   C4B73714  42.869  12.838   7.350
10244POPC   NC373715   6.620  25.217   5.550
10244POPC   PO473716   6.653  25.260   5.850
10244POPC   GL173717   6.676  25.282   6.150
10244POPC   GL273718   6.594  25.342   6.150
10244POPC   C1A73719   6.619  25.308   6.450
10244POPC   D2A73720   6.663  25.218   6.750
10244POPC   C3A73721   6.693  25.230   7.050
10244POPC   C4A73722   6.642  25.312   7.350
10244POPC   C1B73723   6.513  25.495   6.450
10244POPC   C2B73724   6.572  25.454   6.750
10244POPC   C3B73725   6.562  25.464   7.050
10244POPC   C4B73726   6.501  25.518   7.350
10245POPC   NC373727  22.124  19.786   5.550
10245POPC   PO473728  22.133  19.812   5.850
10245POPC   GL173729  22.165  19.839   6.150
10245POPC   GL273730  22.183  19.966   6.150
10245POPC   C1A73731  22.143  19.830   6.450
10245POPC   D2A73732  22.117  19.814   6.750
10245POPC   C3A73733  22.117  19.815   7.050
10245POPC   C4A73734  22.209  19.842   7.350
10245POPC   C1B73735  22.266  20.097   6.450
10245POPC   C2B73736  22.262  20.079   6.750
10245POPC   C3B73737  22.324  20.018   7.050
10245POPC   C4B73738  22.315  20.014   7.350
10246POPC   NC373739   0.403  44.695   5.550
10246POPC   PO473740   0.431  44.634   5.850
10246POPC   GL173741   0.483  44.633   6.150
10246POPC   GL273742   0.326  44.720   6.150
10246POPC   C1A73743   0.448  44.634   6.450
10246POPC   D2A73744   0.432  44.673   6.750
10246POPC   C3A73745   0.388  44.630   7.050
10246POPC   C4A73746   0.420  44.657   7.350
10246POPC   C1B73747   0.230  44.661   6.450
10246POPC   C2B73748   0.215  44.721   6.750
10246POPC   C3B73749   0.161  44.720   7.050
10246POPC   C4B73750   0.156  44.714   7.350
10247POPC   NC373751  10.547  39.244   5.550
10247POPC   PO473752  10.563  39.187   5.850
10247POPC   GL173753  10.552  39.200   6.150
10247POPC   GL273754  10.653  39.311   6.150
10247POPC   C1A73755  10.512  39.194   6.450
10247POPC   D2A73756  10.516  39.259   6.750
10247POPC   C3A73757  10.520  39.265   7.050
10247POPC   C4A73758  10.552  39.181   7.350
10247POPC   C1B73759  10.784  39.405   6.450
10247POPC   C2B73760  10.746  39.338   6.750
10247POPC   C3B73761  10.733  39.384   7.050
10247POPC   C4B73762  10.740  39.362   7.350
10248POPC   NC373763  12.880  43.136   5.550
10248POPC   PO473764  12.887  43.071   5.850
10248POPC   GL173765  12.854  43.073   6.150
10248POPC   GL273766  12.967  43.125   6.150
10248POPC   C1A73767  12.826  43.065   6.450
10248POPC   D2A73768  12.858  43.151   6.750
10248POPC   C3A73769  12.833  43.117   7.050
10248POPC   C4A73770  12.889  43.070   7.350
10248POPC   C1B73771  13.132  43.201   6.450
10248POPC   C2B73772  13.145  43.168   6.750
10248POPC   C3B73773  13.120  43.122   7.050
10248POPC   C4B73774  13.091  43.142   7.350
10249POPC   NC373775  15.191   5.864   5.550
10249POPC   PO473776  15.139   5.914   5.850
10249POPC   GL173777  15.151   5.827   6.150
10249POPC   GL273778  15.108   5.950   6.150
10249POPC   C1A73779  15.184   5.902   6.450
10249POPC   D2A73780  15.198   5.851   6.750
10249POPC   C3A73781  15.159   5.826   7.050
10249POPC   C4A73782  15.205   5.915   7.350
10249POPC   C1B73783  15.042   6.052   6.450
10249POPC   C2B73784  15.043   6.040   6.750
10249POPC   C3B73785  15.097   6.063   7.050
10249POPC   C4B73786  15.107   6.063   7.350
10250POPC   NC373787  14.398   2.020   5.550
10250POPC   PO473788  14.392   1.947   5.850
10250POPC   GL173789  14.417   1.992   6.150
10250POPC   GL273790  14.501   2.095   6.150
10250POPC   C1A73791  14.412   2.023   6.450
10250POPC   D2A73792  14.412   1.944   6.750
10250POPC   C3A73793  14.416   1.981   7.050
10250POPC   C4A73794  14.383   1.998   7.350
10250POPC   C1B73795  14.653   2.090   6.450
10250POPC   C2B73796  14.569   2.162   6.750
10250POPC   C3B73797  14.585   2.178   7.050
10250POPC   C4B73798  14.606   2.148   7.350
10251POPC   NC373799   7.404  36.903   5.550
10251POPC   PO473800   7.372  36.941   5.850
10251POPC   GL173801   7.399  36.863   6.150
10251POPC   GL273802   7.404  36.746   6.150
10251POPC   C1A73803   7.437  36.865   6.450
10251POPC   D2A73804   7.399  36.859   6.750
10251POPC   C3A73805   7.435  36.931   7.050
10251POPC   C4A73806   7.411  36.914   7.350
10251POPC   C1B73807   7.320  36.719   6.450
10251POPC   C2B73808   7.317  36.641   6.750
10251POPC   C3B73809   7.307  36.628   7.050
10251POPC   C4B73810   7.301  36.656   7.350
10252POPC   NC373811  13.663   7.459   5.550
10252POPC   PO473812  13.641   7.450   5.850
10252POPC   GL173813  13.666   7.410   6.150
10252POPC   GL273814  13.705   7.503   6.150
10252POPC   C1A73815  13.655   7.463   6.450
10252POPC   D2A73816  13.610   7.398   6.750
10252POPC   C3A73817  13.649   7.460   7.050
10252POPC   C4A73818  13.591   7.394   7.350
10252POPC   C1B73819  13.764   7.623   6.450
10252POPC   C2B73820  13.775   7.594   6.750
10252POPC   C3B73821  13.823   7.638   7.050
10252POPC   C4B73822  13.726   7.617   7.350
10253POPC   NC373823   7.419   7.398   5.550
10253POPC   PO473824   7.423   7.375   5.850
10253POPC   GL173825   7.427   7.439   6.150
10253POPC   GL273826   7.472   7.342   6.150
10253POPC   C1A73827   7.383   7.446   6.450
10253POPC   D2A73828   7.443   7.436   6.750
10253POPC   C3A73829   7.374   7.455   7.050
10253POPC   C4A73830   7.431   7.398   7.350
10253POPC   C1B73831   7.522   7.177   6.450
10253POPC   C2B73832   7.521   7.216   6.750
10253POPC   C3B73833   7.584   7.238   7.050
10253POPC   C4B73834   7.584   7.205   7.350
10254POPC   NC373835  26.806  22.981   5.550
10254POPC   PO473836  26.814  22.981   5.850
10254POPC   GL173837  26.801  22.944   6.150
10254POPC   GL273838  26.769  22.770   6.150
10254POPC   C1A73839  26.823  22.975   6.450
10254POPC   D2A73840  26.809  22.967   6.750
10254POPC   C3A73841  26.842  22.923   7.050
10254POPC   C4A73842  26.804  22.901   7.350
10254POPC   C1B73843  26.705  22.727   6.450
10254POPC   C2B73844  26.693  22.699   6.750
10254POPC   C3B73845  26.755  22.650   7.050
10254POPC   C4B73846  26.760  22.701   7.350
10255POPC   NC373847   4.306  15.196   5.550
10255POPC   PO473848   4.324  15.163   5.850
10255POPC   GL173849   4.282  15.138   6.150
10255POPC   GL273850   4.410  15.114   6.150
10255POPC   C1A73851   4.353  15.178   6.450
10255POPC   D2A73852   4.278  15.159   6.750
10255POPC   C3A73853   4.286  15.177   7.050
10255POPC   C4A73854   4.300  15.200   7.350
10255POPC   C1B73855   4.532  15.019   6.450
10255POPC   C2B73856   4.498  14.953   6.750
10255POPC   C3B73857   4.458  14.960   7.050
10255POPC   C4B73858   4.487  14.993   7.350
10256POPC   NC373859  30.709  34.614   5.550
10256POPC   PO473860  30.674  34.624   5.850
10256POPC   GL173861  30.738  34.583   6.150
10256POPC   GL273862  30.738  34.655   6.150
10256POPC   C1A73863  30.653  34.571   6.450
10256POPC   D2A73864  30.654  34.563   6.750
10256POPC   C3A73865  30.725  34.565   7.050
10256POPC   C4A73866  30.727  34.546   7.350
10256POPC   C1B73867  30.894  34.788   6.450
10256POPC   C2B73868  30.863  34.788   6.750
10256POPC   C3B73869  30.922  34.756   7.050
10256POPC   C4B73870  30.856  34.736   7.350
10257POPC   NC373871  26.015   5.049   5.550
10257POPC   PO473872  26.003   5.102   5.850
10257POPC   GL173873  26.054   5.122   6.150
10257POPC   GL273874  26.047   5.210   6.150
10257POPC   C1A73875  26.049   5.062   6.450
10257POPC   D2A73876  26.053   5.137   6.750
10257POPC   C3A73877  26.039   5.049   7.050
10257POPC   C4A73878  26.012   5.090   7.350
10257POPC   C1B73879  25.976   5.302   6.450
10257POPC   C2B73880  26.047   5.325   6.750
10257POPC   C3B73881  25.992   5.319   7.050
10257POPC   C4B73882  26.041   5.315   7.350
10258POPC   NC373883  16.697   1.224   5.550
10258POPC   PO473884  16.713   1.177   5.850
10258POPC   GL173885  16.704   1.219   6.150
10258POPC   GL273886  16.810   1.091   6.150
10258POPC   C1A73887  16.737   1.201   6.450
10258POPC   D2A73888  16.716   1.227   6.750
10258POPC   C3A73889  16.707   1.169   7.050
10258POPC   C4A73890  16.715   1.207   7.350
10258POPC   C1B73891  16.871   0.978   6.450
10258POPC   C2B73892  16.898   0.980   6.750
10258POPC   C3B73893  16.859   1.005   7.050
10258POPC   C4B73894  16.873   1.033   7.350
10259POPC   NC373895  39.274  39.195   5.550
10259POPC   PO473896  39.280  39.232   5.850
10259POPC   GL173897  39.212  39.199   6.150
10259POPC   GL273898  39.149  39.258   6.150
10259POPC   C1A73899  39.196  39.249   6.450
10259POPC   D2A73900  39.234  39.203   6.750
10259POPC   C3A73901  39.237  39.244   7.050
10259POPC   C4A73902  39.232  39.228   7.350
10259POPC   C1B73903  39.044  39.273   6.450
10259POPC   C2B73904  38.988  39.293   6.750
10259POPC   C3B73905  39.034  39.290   7.050
10259POPC   C4B73906  38.990  39.344   7.350
10260POPC   NC373907  37.639  32.982   5.550
10260POPC   PO473908  37.697  33.070   5.850
10260POPC   GL173909  37.666  33.044   6.150
10260POPC   GL273910  37.784  33.071   6.150
10260POPC   C1A73911  37.687  33.043   6.450
10260POPC   D2A73912  37.712  32.994   6.750
10260POPC   C3A73913  37.716  33.051   7.050
10260POPC   C4A73914  37.641  33.051   7.350
10260POPC   C1B73915  37.893  33.070   6.450
10260POPC   C2B73916  37.936  33.021   6.750
10260POPC   C3B73917  37.957  33.044   7.050
10260POPC   C4B73918  37.917  33.039   7.350
10261POPC   NC373919  32.258  27.605   5.550
10261POPC   PO473920  32.213  27.561   5.850
10261POPC   GL173921  32.253  27.571   6.150
10261POPC   GL273922  32.115  27.637   6.150
10261POPC   C1A73923  32.231  27.585   6.450
10261POPC   D2A73924  32.254  27.562   6.750
10261POPC   C3A73925  32.211  27.556   7.050
10261POPC   C4A73926  32.231  27.545   7.350
10261POPC   C1B73927  31.998  27.662   6.450
10261POPC   C2B73928  31.982  27.697   6.750
10261POPC   C3B73929  31.987  27.664   7.050
10261POPC   C4B73930  31.996  27.698   7.350
10262POPC   NC373931  27.589  15.144   5.550
10262POPC   PO473932  27.640  15.225   5.850
10262POPC   GL173933  27.556  15.159   6.150
10262POPC   GL273934  27.577  15.021   6.150
10262POPC   C1A73935  27.604  15.191   6.450
10262POPC   D2A73936  27.634  15.163   6.750
10262POPC   C3A73937  27.599  15.207   7.050
10262POPC   C4A73938  27.578  15.207   7.350
10262POPC   C1B73939  27.629  14.971   6.450
10262POPC   C2B73940  27.620  14.936   6.750
10262POPC   C3B73941  27.650  14.975   7.050
10262POPC   C4B73942  27.668  14.936   7.350
10263POPC   NC373943  33.775  34.589   5.550
10263POPC   PO473944  33.843  34.578   5.850
10263POPC   GL173945  33.767  34.527   6.150
10263POPC   GL273946  33.712  34.433   6.150
10263POPC   C1A73947  33.838  34.534   6.450
10263POPC   D2A73948  33.803  34.598   6.750
10263POPC   C3A73949  33.824  34.574   7.050
10263POPC   C4A73950  33.844  34.542   7.350
10263POPC   C1B73951  33.678  34.367   6.450
10263POPC   C2B73952  33.625  34.323   6.750
10263POPC   C3B73953  33.701  34.332   7.050
10263POPC   C4B73954  33.635  34.402   7.350
10264POPC   NC373955  11.277  34.561   5.550
10264POPC   PO473956  11.334  34.532   5.850
10264POPC   GL173957  11.350  34.585   6.150
10264POPC   GL273958  11.361  34.616   6.150
10264POPC   C1A73959  11.346  34.560   6.450
10264POPC   D2A73960  11.251  34.563   6.750
10264POPC   C3A73961  11.328  34.588   7.050
10264POPC   C4A73962  11.279  34.533   7.350
10264POPC   C1B73963  11.433  34.746   6.450
10264POPC   C2B73964  11.495  34.782   6.750
10264POPC   C3B73965  11.455  34.708   7.050
10264POPC   C4B73966  11.474  34.751   7.350
10265POPC   NC373967   5.843   7.377   5.550
10265POPC   PO473968   5.834   7.440   5.850
10265POPC   GL173969   5.826   7.417   6.150
10265POPC   GL273970   5.952   7.469   6.150
10265POPC   C1A73971   5.873   7.437   6.450
10265POPC   D2A73972   5.859   7.458   6.750
10265POPC   C3A73973   5.862   7.379   7.050
10265POPC   C4A73974   5.878   7.425   7.350
10265POPC   C1B73975   6.142   7.374   6.450
10265POPC   C2B73976   6.130   7.426   6.750
10265POPC   C3B73977   6.149   7.461   7.050
10265POPC   C4B73978   6.106   7.375   7.350
10266POPC   NC373979  30.681  38.410   5.550
10266POPC   PO473980  30.691  38.446   5.850
10266POPC   GL173981  30.708  38.428   6.150
10266POPC   GL273982  30.573  38.379   6.150
10266POPC   C1A73983  30.669  38.453   6.450
10266POPC   D2A73984  30.660  38.447   6.750
10266POPC   C3A73985  30.683  38.406   7.050
10266POPC   C4A73986  30.671  38.499   7.350
10266POPC   C1B73987  30.487  38.352   6.450
10266POPC   C2B73988  30.457  38.347   6.750
10266POPC   C3B73989  30.495  38.354   7.050
10266POPC   C4B73990  30.467  38.420   7.350
10267POPC   NC373991  40.008  26.778   5.550
10267POPC   PO473992  39.968  26.828   5.850
10267POPC   GL173993  40.021  26.842   6.150
10267POPC   GL273994  39.998  26.967   6.150
10267POPC   C1A73995  40.031  26.845   6.450
10267POPC   D2A73996  40.055  26.785   6.750
10267POPC   C3A73997  39.958  26.793   7.050
10267POPC   C4A73998  40.041  26.787   7.350
10267POPC   C1B73999  39.991  27.060   6.450
10267POPC   C2B74000  40.025  27.085   6.750
10267POPC   C3B74001  39.985  27.089   7.050
10267POPC   C4B74002  39.989  27.072   7.350
10268POPC   NC374003  43.875  21.345   5.550
10268POPC   PO474004  43.897  21.402   5.850
10268POPC   GL174005  43.838  21.356   6.150
10268POPC   GL274006  43.999  21.331   6.150
10268POPC   C1A74007  43.885  21.354   6.450
10268POPC   D2A74008  43.904  21.338   6.750
10268POPC   C3A74009  43.907  21.337   7.050
10268POPC   C4A74010  43.850  21.422   7.350
10268POPC   C1B74011  44.137  21.343   6.450
10268POPC   C2B74012  44.147  21.302   6.750
10268POPC   C3B74013  44.172  21.301   7.050
10268POPC   C4B74014  44.098  21.330   7.350
10269POPC   NC374015  27.591  43.930   5.550
10269POPC   PO474016  27.642  43.926   5.850
10269POPC   GL174017  27.633  43.918   6.150
10269POPC   GL274018  27.736  43.861   6.150
10269POPC   C1A74019  27.627  43.924   6.450
10269POPC   D2A74020  27.565  43.917   6.750
10269POPC   C3A74021  27.547  43.916   7.050
10269POPC   C4A74022  27.562  43.898   7.350
10269POPC   C1B74023  27.834  43.865   6.450
10269POPC   C2B74024  27.826  43.897   6.750
10269POPC   C3B74025  27.829  43.849   7.050
10269POPC   C4B74026  27.872  43.820   7.350
10270POPC   NC374027  44.666  23.737   5.550
10270POPC   PO474028  44.627  23.678   5.850
10270POPC   GL174029  44.649  23.730   6.150
10270POPC   GL274030  44.792  23.619   6.150
10270POPC   C1A74031  44.688  23.744   6.450
10270POPC   D2A74032  44.705  23.689   6.750
10270POPC   C3A74033  44.689  23.691   7.050
10270POPC   C4A74034  44.659  23.665   7.350
10270POPC   C1B74035  44.927  23.582   6.450
10270POPC   C2B74036  44.922  23.598   6.750
10270POPC   C3B74037  44.885  23.647   7.050
10270POPC   C4B74038  44.905  23.621   7.350
10271W        W74039  21.175   2.795   4.602
10272W        W74040  15.246  43.849  10.431
10273W        W74041  24.072  31.025  13.970
10274W        W74042   3.218  44.326  11.903
10275W        W74043  33.541   5.391   0.248
10276W        W74044  16.614  15.587  14.988
10277W        W74045  44.375   8.813   0.967
10278W        W74046  17.779  39.495  14.837
10279W        W74047  18.632  18.722  11.871
10280W        W74048   3.758  16.117  14.763
10281W        W74049  38.956  26.492  12.561
10282W        W74050  28.156  10.269   4.190
10283W        W74051  36.040   2.760  14.987
10284W        W74052  44.359   4.836   2.770
10285W        W74053   9.860  32.621  10.621
10286W        W74054  40.328  14.236   4.659
10287W        W74055  11.673  22.595   2.400
10288W        W74056   2.878  21.526  13.400
10289W        W74057  41.023  31.113   1.360
10290W        W74058  21.230   2.746   3.856
10291W        W74059  13.765  38.444  10.947
10292W        W74060   8.887  30.560  13.311
10293W        W74061   6.787   4.304   3.282
10294W        W74062  11.372   3.351   3.729
10295W        W74063   3.335  38.913   1.368
10296W        W74064  17.224  21.651   1.738
10297W        W74065  35.020  16.605  11.926
10298W        W74066  11.250  10.771  13.981
10299W        W74067  27.991   1.409  14.348
10300W        W74068  21.570  33.080   4.662
10301W        W74069  15.732  43.907   2.263
10302W        W74070  42.978  22.019  14.507
10303W        W74071  12.794  12.148  12.048
10304W        W74072  21.039  33.974   1.913
10305W        W74073  20.648   2.950   1.319
10306W        W74074  20.029  43.392  12.849
10307W        W74075  39.343   6.912   4.336
10308W        W74076   1.283  41.010  11.871
10309W        W74077   3.947   3.273   0.774
10310W        W74078  18.790  44.488   4.820
10311W        W74079  41.314   8.329  12.355
10312W        W74080  38.519  13.657   2.740
10313W        W74081   7.675  32.927   3.738
10314W        W74082  18.255  29.664  13.938
10315W        W74083  20.729  26.508   3.730
10316W        W74084  33.429  34.991  13.523
10317W        W74085   1.339   7.859  13.847
10318W        W74086  33.912  10.307  14.297
10319W        W74087   6.849   2.915   2.794
10320W        W74088  24.108  12.337  13.542
10321W        W74089  32.993  29.036  11.868
10322W        W74090  26.044  31.636   4.611
10323W        W74091  10.803  31.527   3.805
10324W        W74092  32.021  21.224   1.441
10325W        W74093  11.674  32.406  11.377
10326W        W74094   6.922   5.908  12.388
10327W        W74095  26.001  12.175   1.933
10328W        W74096  40.417   0.988   2.300
10329W        W74097  36.461  32.634  12.496
10330W        W74098   0.351  25.993   2.869
10331W        W74099  10.290  36.417   0.419
10332W        W74100  19.668   3.712  12.401
10333W        W74101   1.269   9.665   1.916
10334W        W74102   3.381  21.696  13.333
10335W        W74103  12.731  21.162  10.414
10336W        W74104   6.372  37.386   1.794
10337W        W74105  43.358  42.004   0.255
10338W        W74106  19.218   7.391  12.037
10339W        W74107  28.970  23.588   0.914
10340W        W74108   3.264   4.738  13.441
10341W        W74109  31.492   6.699   1.849
10342W        W74110   0.904   6.900   2.794
10343W        W74111  28.943  44.380   1.715
10344W        W74112  35.939   7.371  14.880
10345W        W74113   4.889  42.822  14.964
10346W        W74114   2.396   8.869  12.393
10347W        W74115  11.772  29.613  11.940
10348W        W74116  16.702   3.273   0.866
10349W        W74117  32.987  44.009  11.899
10350W        W74118  21.553  20.171   2.297
10351W        W74119  40.932  32.433   3.662
10352W        W74120  10.833   0.317   1.361
10353W        W74121   4.345  17.088   1.348
10354W        W74122  16.687  39.971   0.835
10355W        W74123  14.665  28.125   1.224
10356W        W74124  22.077  11.846  13.061
10357W        W74125  30.602  12.145  14.361
10358W        W74126  17.589  31.928   2.724
10359W        W74127  41.024   7.673   1.869
10360W        W74128   7.289  19.780  11.587
10361W        W74129  15.694   4.207  11.447
10362W        W74130  33.088  42.298  13.794
10363W        W74131  17.125  17.559   1.714
10364W        W74132   5.841   0.983   2.820
10365W        W74133  24.666  38.017  12.410
10366W        W74134  34.992  40.934   2.249
10367W        W74135  17.097  32.080   0.864
10368W        W74136  36.869  25.095   2.249
10369W        W74137  44.786  43.988   2.665
10370W        W74138  29.086   2.962   4.829
10371W        W74139  10.841   3.241   5.177
10372W        W74140  14.591  36.034  10.133
10373W        W74141  22.218  14.808  12.997
10374W        W74142  41.848   2.728  12.491
10375W        W74143  29.110  17.149   2.676
10376W        W74144  12.623   4.446  13.369
10377W        W74145  25.002  43.821  13.356
10378W        W74146   9.354  42.973  13.835
10379W        W74147  37.569  37.086   1.869
10380W        W74148  39.844  36.989   1.930
10381W        W74149  34.439  18.693   3.803
10382W        W74150  25.702  18.780  12.383
10383W        W74151  23.729   8.353   3.158
10384W        W74152   0.854  13.813   4.700
10385W        W74153  23.050  23.125  13.004
10386W        W74154  12.794   3.341   2.180
10387W        W74155  20.258  13.770   4.264
10388W        W74156  33.006  34.494   2.402
10389W        W74157  37.040  41.324   1.805
10390W        W74158  31.946   3.887  12.958
10391W        W74159  28.645  26.589   0.381
10392W        W74160  23.210  33.129   1.777
10393W        W74161  41.998  18.129  10.475
10394W        W74162  21.749   6.350  10.031
10395W        W74163  11.206  12.637   4.183
10396W        W74164   7.721  11.248   2.414
10397W        W74165  23.538  18.166   4.713
10398W        W74166  28.018  27.580  13.321
10399W        W74167   9.351  40.818   3.712
10400W        W74168  29.561  42.313  13.002
10401W        W74169   9.300  32.466  12.089
10402W        W74170  24.167   7.214  11.879
10403W        W74171  33.117  39.884   4.309
10404W        W74172   9.797  10.159   1.698
10405W        W74173  26.573  21.601   3.318
10406W        W74174  37.342  13.112   4.800
10407W        W74175  16.112  29.648   0.897
10408W        W74176  14.729  24.482  14.348
10409W        W74177  11.201  26.567  14.884
10410W        W74178   2.468  25.706   0.963
10411W        W74179  26.198   9.246  11.465
10412W        W74180   7.741  28.566  10.983
10413W        W74181  24.164  42.806   2.797
10414W        W74182   5.341   5.302  12.483
10415W        W74183  43.458  13.268  14.311
10416W        W74184  17.216  25.556   3.661
10417W        W74185  18.232  32.094  13.495
10418W        W74186  43.930  44.943   0.919
10419W        W74187  12.852  19.208   2.859
10420W        W74188  18.108  42.812   3.387
10421W        W74189  31.940  30.449  12.897
10422W        W74190  26.983  30.075  12.360
10423W        W74191  31.466  40.460   4.353
10424W        W74192  27.518  29.433  10.906
10425W        W74193  28.060  24.140  10.585
10426W        W74194  30.947  28.464  12.365
10427W        W74195  36.001   3.865  14.306
10428W        W74196   9.228  22.102   2.899
10429W        W74197  38.030  36.903   2.735
10430W        W74198   0.778  10.680   0.887
10431W        W74199  37.415  33.085   3.790
10432W        W74200  33.967   6.419   3.158
10433W        W74201  16.178  44.279  11.381
10434W        W74202  40.816  39.502   4.247
10435W        W74203  38.434   8.168   3.332
10436W        W74204  22.162   5.870   0.374
10437W        W74205  22.059  27.491   1.362
10438W        W74206  44.790  30.026   0.464
10439W        W74207  34.115  24.604  13.438
10440W        W74208   9.874  33.401  14.897
10441W        W74209  20.590  44.826  11.017
10442W        W74210  16.279  15.211  11.012
10443W        W74211  26.520  33.425  13.051
10444W        W74212  10.171  11.685  11.601
10445W        W74213   0.365  40.361   0.795
10446W        W74214  18.593  16.587   0.248
10447W        W74215  13.664  24.224   4.306
10448W        W74216   5.213   9.149  12.342
10449W        W74217   2.744  15.642   2.754
10450W        W74218  13.682  25.518  10.589
10451W        W74219  24.662  10.708   9.518
10452W        W74220  38.513  20.199   4.230
10453W        W74221  14.729   7.301   1.373
10454W        W74222  34.601  34.072   1.838
10455W        W74223  24.641  11.854  11.459
10456W        W74224  12.662  23.680  10.414
10457W        W74225   9.808  15.598  14.018
10458W        W74226  14.643  36.076  13.446
10459W        W74227   7.899  23.615  11.547
10460W        W74228   6.902  40.811   3.673
10461W        W74229  44.498   1.384   3.340
10462W        W74230  34.607  38.471  11.384
10463W        W74231  43.901  39.455  11.985
10464W        W74232  40.887  44.288   0.386
10465W        W74233   3.285  22.676   3.199
10466W        W74234  10.210  28.967   4.308
10467W        W74235  30.418  31.629   2.686
10468W        W74236  15.189   1.772   1.338
10469W        W74237  11.241  42.373   3.685
10470W        W74238  35.922  26.006   4.346
10471W        W74239   9.760  19.086  14.424
10472W        W74240  28.490   7.879   2.774
10473W        W74241  24.636  14.148  13.383
10474W        W74242  27.968  24.509   1.898
10475W        W74243  18.195  17.652  13.871
10476W        W74244   7.194   7.234   2.221
10477W        W74245   6.274  25.677   2.770
10478W        W74246   5.372  10.777   1.806
10479W        W74247  11.724   9.805   4.229
10480W        W74248   2.245  24.591   4.323
10481W        W74249  38.463  20.537  11.887
10482W        W74250   0.815   7.767  13.459
10483W        W74251  37.479  36.377  13.360
10484W        W74252  29.518  15.823  12.997
10485W        W74253   9.191   4.878   0.434
10486W        W74254  13.793  32.434  13.434
10487W        W74255   6.246  27.684   0.378
10488W        W74256  30.075  27.112   3.633
10489W        W74257  36.373  17.758   0.266
10490W        W74258   0.978  32.033  14.027
10491W        W74259  29.124  22.236  10.560
10492W        W74260  23.681  41.332  14.952
10493W        W74261   7.801  34.515  13.791
10494W        W74262  21.752   5.270  14.338
10495W        W74263  32.546  14.808   1.897
10496W        W74264  15.724  19.075  11.509
10497W        W74265  17.088   9.728  11.034
10498W        W74266   1.385  13.113   2.240
10499W        W74267   9.723   4.297   0.744
10500W        W74268  31.500  31.954  14.852
10501W        W74269   8.359  41.384  14.775
10502W        W74270   4.229  32.506   4.131
10503W        W74271   3.888  14.684  14.957
10504W        W74272  21.189  17.693  12.056
10505W        W74273  25.124  41.999   0.375
10506W        W74274  25.474  29.064  11.440
10507W        W74275  11.745  16.298  12.502
10508W        W74276   3.754  33.024   1.859
10509W        W74277   7.850  29.057   3.656
10510W        W74278  29.042  24.658  14.984
10511W        W74279  31.607  25.219  10.955
10512W        W74280  30.538  39.518   2.896
10513W        W74281  35.488   8.174  10.630
10514W        W74282  44.498  19.724   0.264
10515W        W74283  22.068   5.793  12.469
10516W        W74284   7.751   5.363  11.407
10517W        W74285  33.056  18.616   5.211
10518W        W74286  25.145  38.507  10.083
10519W        W74287   8.818  14.807   4.115
10520W        W74288  15.226  31.992  11.462
10521W        W74289  33.386  43.976  12.841
10522W        W74290  40.839  39.833  11.429
10523W        W74291  21.134   8.166  11.948
10524W        W74292  18.575   4.850   0.959
10525W        W74293  18.619  10.194   2.733
10526W        W74294   7.296   6.211  13.857
10527W        W74295  17.102   1.379  13.403
10528W        W74296  30.432  31.031  11.500
10529W        W74297  27.954  43.965   2.872
10530W        W74298  29.137  20.561   0.960
10531W        W74299   6.906   7.822   3.695
10532W        W74300  17.651  10.192   0.481
10533W        W74301  37.392   8.305  10.902
10534W        W74302  34.878  38.458  10.934
10535W        W74303  12.207  31.603   1.802
10536W        W74304  30.013  21.520  13.481
10537W        W74305  20.131   9.249  13.324
10538W        W74306  21.712   4.853  10.593
10539W        W74307  18.086  21.743   3.818
10540W        W74308  21.073   1.379   1.287
10541W        W74309   5.383  38.005  13.318
10542W        W74310  20.095  30.430   0.306
10543W        W74311   6.313  43.906   0.795
10544W        W74312  32.398   3.895   4.347
10545W        W74313  41.009   6.912   0.356
10546W        W74314  34.009  32.122  10.540
10547W        W74315  23.208  28.937   1.299
10548W        W74316  10.347   6.360   3.354
10549W        W74317  30.656  36.369   0.744
10550W        W74318  21.231  20.570  12.548
10551W        W74319  35.925  22.080   2.732
10552W        W74320  20.135   9.737  14.426
10553W        W74321  21.095  20.216  11.959
10554W        W74322  42.527  34.431  11.478
10555W        W74323  23.070  41.355   4.778
10556W        W74324   9.865  21.042  14.944
10557W        W74325  22.249  10.779  11.911
10558W        W74326  18.596  11.315   4.656
10559W        W74327  25.150  12.315   0.316
10560W        W74328  17.077  27.084   3.245
10561W        W74329  26.655  24.584  10.586
10562W        W74330   3.825  10.166   4.776
10563W        W74331  33.130  28.972   3.637
10564W        W74332  30.422  10.141   2.708
10565W        W74333   3.456  14.706  11.074
10566W        W74334  42.355  27.573   0.446
10567W        W74335  43.880  12.330   3.636
10568W        W74336  20.636  26.516  13.954
10569W        W74337  12.784  27.109   1.277
10570W        W74338   2.454  31.487  14.976
10571W        W74339   5.881  11.697   0.472
10572W        W74340   0.815  26.184   0.255
10573W        W74341  40.826   5.314   3.346
10574W        W74342   2.951  44.310   1.789
10575W        W74343  24.514  44.266  11.597
10576W        W74344  10.743   6.387   4.806
10577W        W74345  44.451  44.417  11.532
10578W        W74346  32.971  22.604  14.484
10579W        W74347  19.211  41.424   1.888
10580W        W74348  43.966  19.262  10.421
10581W        W74349   5.794  17.261  13.853
10582W        W74350   9.783  26.157   1.374
10583W        W74351   9.241  20.719   0.817
10584W        W74352  21.218  19.704  14.431
10585W        W74353  17.778  25.528  10.910
10586W        W74354  20.656  28.499  11.007
10587W        W74355  40.863  31.559   3.364
10588W        W74356  38.017  28.677   4.643
10589W        W74357  40.930   1.814  10.955
10590W        W74358  23.121  31.120   3.780
10591W        W74359  39.824  39.933  11.388
10592W        W74360   7.194  27.100  13.491
10593W        W74361  32.061  29.523   3.254
10594W        W74362   3.342  10.652  12.458
10595W        W74363  24.695  12.786   2.724
10596W        W74364  44.861  26.037  11.980
10597W        W74365  11.729  31.449  14.447
10598W        W74366  22.225  44.431   3.155
10599W        W74367  17.792  19.234  11.956
10600W        W74368  37.469  27.011  10.473
10601W        W74369  22.516   7.864   3.844
10602W        W74370  29.167  32.075  11.051
10603W        W74371   1.368  34.534   5.130
10604W        W74372  44.790  29.131  12.047
10605W        W74373  20.547  24.635  12.360
10606W        W74374  12.801  24.637  10.435
10607W        W74375  14.654  32.962  10.561
10608W        W74376  44.331  18.244  10.013
10609W        W74377  18.550  35.031  14.287
10610W        W74378  32.505  18.082  12.433
10611W        W74379   7.186  29.067   3.646
10612W        W74380  12.749  34.887  11.065
10613W        W74381  11.239  20.134  14.915
10614W        W74382  39.956  28.986   4.620
10615W        W74383   1.799  27.649  11.433
10616W        W74384  33.468  33.944   1.795
10617W        W74385  33.448  38.332   2.292
10618W        W74386  25.623  39.868  10.077
10619W        W74387  14.822  34.504   2.793
10620W        W74388  32.429  36.895   3.227
10621W        W74389  17.763   6.721   3.852
10622W        W74390  43.780  13.206  12.853
10623W        W74391  15.613  38.934   5.118
10624W        W74392  10.371  20.084  12.492
10625W        W74393   3.896  40.491  14.438
10626W        W74394  12.270  29.947  10.533
10627W        W74395   8.864  28.443   2.393
10628W        W74396  27.112   3.238   0.438
10629W        W74397  32.549  29.456  14.333
10630W        W74398  37.940  35.518   4.299
10631W        W74399   3.727   0.974   0.383
10632W        W74400  22.562  26.172  13.532
10633W        W74401   0.971  26.193   1.299
10634W        W74402   7.248  26.538   1.761
10635W        W74403  36.487  29.476   0.390
10636W        W74404  11.713   8.894  12.081
10637W        W74405   3.352  23.109   3.178
10638W        W74406  29.135  17.602   2.834
10639W        W74407  33.442  26.172  13.964
10640W        W74408  22.564  24.216   1.401
10641W        W74409   2.944  18.150  13.359
10642W        W74410   8.254  36.084  14.370
10643W        W74411   3.892   0.434  14.805
10644W        W74412  25.990  35.389   3.367
10645W        W74413  25.467   4.762  12.481
10646W        W74414  31.918  42.027   3.855
10647W        W74415  27.149  24.003  12.362
10648W        W74416   0.933  40.402   1.379
10649W        W74417  36.359   7.730   3.698
10650W        W74418   3.719  40.019  12.580
10651W        W74419  39.888  16.238   1.855
10652W        W74420   8.801   9.338   2.242
10653W        W74421  14.796  10.342  13.809
10654W        W74422   8.895  13.140  14.511
10655W        W74423  26.015  20.636   0.277
10656W        W74424  32.901  14.271   2.840
10657W        W74425  24.977  12.188  10.904
10658W        W74426   0.851  40.809  13.829
10659W        W74427  11.249  23.215  10.937
10660W        W74428  24.178  39.971   1.696
10661W        W74429   1.318  22.235   4.256
10662W        W74430  43.321  33.611   1.374
10663W        W74431   2.302  23.717   1.839
10664W        W74432  19.249  26.033   3.698
10665W        W74433  35.902  32.901   0.394
10666W        W74434   5.917   8.770   4.638
10667W        W74435  16.640  43.327  13.412
10668W        W74436  26.649  12.248  11.060
10669W        W74437  19.556  27.042   0.798
10670W        W74438  22.722  35.979  12.845
10671W        W74439  31.645  14.592  14.886
10672W        W74440   8.236  32.417  11.576
10673W        W74441  25.619  20.088   0.267
10674W        W74442  38.940  32.899   9.938
10675W        W74443   9.271   7.362  13.027
10676W        W74444  28.108  16.272   1.384
10677W        W74445  37.436  11.714  14.493
10678W        W74446   4.843  35.910  11.446
10679W        W74447  22.092  10.822  14.799
10680W        W74448  36.443  31.616   2.330
10681W        W74449  14.189   9.803  10.897
10682W        W74450  11.863  11.246  11.991
10683W        W74451  10.207   4.401  12.870
10684W        W74452  32.065   2.304  11.500
10685W        W74453  43.890  31.944  14.904
10686W        W74454  27.124  14.712   5.738
10687W        W74455  15.683  41.819   1.344
10688W        W74456  40.929  24.526  14.795
10689W        W74457  44.761  41.347  12.554
10690W        W74458  17.562  15.740   3.351
10691W        W74459  34.885  13.123   1.369
10692W        W74460   5.372  33.435   2.210
10693W        W74461  27.575  17.093   4.722
10694W        W74462  44.810  26.984  13.492
10695W        W74463   7.326  20.105  11.397
10696W        W74464  30.461  36.496   2.720
10697W        W74465  10.198  10.364  13.846
10698W        W74466  36.913   1.315   4.759
10699W        W74467  39.422   9.308   4.150
10700W        W74468  15.137   1.332  12.873
10701W        W74469  43.810  28.571  11.582
10702W        W74470  18.197   6.727   4.728
10703W        W74471  20.595  23.161  14.501
10704W        W74472  21.654  14.223   4.689
10705W        W74473  36.963  40.305   0.790
10706W        W74474  21.594   2.831   4.776
10707W        W74475  25.543   0.904   3.818
10708W        W74476  11.197  26.972  13.526
10709W        W74477  19.183   4.721  14.339
10710W        W74478  20.069   3.793   2.854
10711W        W74479  24.555  25.655   1.333
10712W        W74480  43.311   6.751  13.904
10713W        W74481  38.475  36.367  14.514
10714W        W74482  28.978  23.531   2.266
10715W        W74483  32.074  12.346   0.440
10716W        W74484  37.510  17.568   1.381
10717W        W74485  38.509   2.468  10.504
10718W        W74486  34.984  37.924   3.173
10719W        W74487  11.661  30.456   3.777
10720W        W74488  15.220  43.406   0.769
10721W        W74489  27.504   2.912  10.499
10722W        W74490  30.948  25.625  14.866
10723W        W74491   4.745  40.950  11.094
10724W        W74492  33.064  38.886  10.433
10725W        W74493  35.960  38.451   1.332
10726W        W74494  44.783  22.716  12.824
10727W        W74495  13.289  20.225  14.809
10728W        W74496   0.866   2.311  11.466
10729W        W74497  39.365   0.862  13.911
10730W        W74498  40.884   3.327   0.384
10731W        W74499  13.222  11.804   2.789
10732W        W74500  20.242  32.398   4.220
10733W        W74501   1.414  38.017   0.278
10734W        W74502  35.861  19.142  12.466
10735W        W74503  29.468  13.644  11.515
10736W        W74504  24.536  31.414  13.424
10737W        W74505  35.569  11.838   0.963
10738W        W74506  15.133  42.971  14.855
10739W        W74507  11.187  28.062   3.316
10740W        W74508  38.506  20.688   0.296
10741W        W74509  37.571   2.313  12.871
10742W        W74510  39.487  38.500  12.438
10743W        W74511  36.433  30.138  13.315
10744W        W74512  25.116  35.457  13.334
10745W        W74513  18.757   0.310   2.247
10746W        W74514  34.497  22.031  10.495
10747W        W74515  30.427  21.724   3.174
10748W        W74516  24.074  44.871   3.256
10749W        W74517  42.944  16.311   1.705
10750W        W74518   4.754   7.406  10.427
10751W        W74519  43.012  14.762  12.857
10752W        W74520  21.184   8.792  13.492
10753W        W74521  35.493   0.945  11.581
10754W        W74522  42.026  20.173   3.732
10755W        W74523   8.322  13.702   0.910
10756W        W74524   3.242  28.127   3.775
10757W        W74525  11.824  14.754  11.572
10758W        W74526  28.666  29.134   3.226
10759W        W74527  14.604  23.696   0.427
10760W        W74528  44.450  20.616   0.347
10761W        W74529  36.995  11.715   3.777
10762W        W74530  12.309  13.809  10.458
10763W        W74531  21.212  28.074  12.928
10764W        W74532  11.295   4.922   1.351
10765W        W74533  35.476  13.840   2.884
10766W        W74534  16.569   0.401  13.995
10767W        W74535  32.613  28.019   4.132
10768W        W74536   4.220  11.155   3.195
10769W        W74537  22.206  13.273   1.840
10770W        W74538  17.704  44.799  11.588
10771W        W74539  10.816  36.062   2.669
10772W        W74540   9.204  11.650   0.866
10773W        W74541  24.484  40.002   2.756
10774W        W74542  28.542  13.635   0.463
10775W        W74543  10.356  25.174   2.179
10776W        W74544  37.832  34.050   4.601
10777W        W74545  37.030  23.594  13.896
10778W        W74546  36.346  31.964  14.970
10779W        W74547  12.749  23.681  12.006
10780W        W74548   5.908  21.018   3.851
10781W        W74549  28.988  18.601   2.776
10782W        W74550  36.021  25.215  12.482
10783W        W74551   6.901  44.827  12.530
10784W        W74552  15.710  40.415   4.295
10785W        W74553  13.754   3.780  11.545
10786W        W74554  10.869  40.323   3.281
10787W        W74555  36.527  43.960   0.796
10788W        W74556  38.518  20.645  12.940
10789W        W74557  36.473  14.683   2.858
10790W        W74558  29.578  18.281   0.364
10791W        W74559  19.676  11.176  10.973
10792W        W74560  10.192   4.323   3.207
10793W        W74561  12.254  29.017   4.645
10794W        W74562  29.984  38.820  10.922
10795W        W74563   1.339  22.158   4.707
10796W        W74564  30.445  28.944   2.187
10797W        W74565   1.882  39.553  11.116
10798W        W74566  18.079  22.093   3.739
10799W        W74567  35.096  40.949  14.442
10800W        W74568  42.520  26.599  12.417
10801W        W74569  25.042  31.572   1.758
10802W        W74570  41.375  22.742  11.518
10803W        W74571  28.046  20.761   3.757
10804W        W74572  23.671  35.468   2.352
10805W        W74573  33.556  43.953   2.899
10806W        W74574   3.951   8.854   3.856
10807W        W74575  12.244  39.413   1.815
10808W        W74576  16.783  40.973   3.325
10809W        W74577  43.942   3.803  10.621
10810W        W74578  40.323  43.512   4.786
10811W        W74579  22.689  34.048  14.338
10812W        W74580  39.461  32.531   1.811
10813W        W74581   2.751  33.591   5.097
10814W        W74582  36.477  26.687   4.264
10815W        W74583   2.781  19.563  14.944
10816W        W74584  34.043  38.876   3.863
10817W        W74585  14.317   1.769   1.709
10818W        W74586   0.756  22.580   2.286
10819W        W74587  35.584   1.350  14.029
10820W        W74588  23.011  32.946   3.846
10821W        W74589  21.559  27.657   2.832
10822W        W74590  25.508   3.396  14.380
10823W        W74591  44.983  23.654  14.496
10824W        W74592  22.741  17.762   4.188
10825W        W74593   2.746  13.179   4.750
10826W        W74594  31.076  16.731  10.963
10827W        W74595  12.849  40.465  11.374
10828W        W74596   2.402  36.376  12.492
10829W        W74597  22.164  21.108  12.427
10830W        W74598  38.034  41.810   0.329
10831W        W74599  14.260  11.786  12.878
10832W        W74600  37.533   7.687  14.963
10833W        W74601  44.908  35.370  12.479
10834W        W74602  20.580  28.649   0.864
10835W        W74603  41.817  32.921  12.526
10836W        W74604   7.722  20.262  13.364
10837W        W74605   9.718   7.681  12.379
10838W        W74606  15.773  17.669  14.275
10839W        W74607  24.187   0.479   4.822
10840W        W74608  44.312   2.276  13.934
10841W        W74609  18.764  31.563   0.265
10842W        W74610  29.550  33.418   2.725
10843W        W74611  33.537  11.835   4.731
10844W        W74612  22.216  11.183   1.222
10845W        W74613   2.281   8.812   0.389
10846W        W74614  33.574   2.874  12.986
10847W        W74615  35.591   6.922  10.919
10848W        W74616   6.836  36.944   2.828
10849W        W74617  23.061  17.225  13.053
10850W        W74618  21.743  11.777  11.429
10851W        W74619   7.762   8.391   1.774
10852W        W74620  32.574  29.950   4.281
10853W        W74621   2.315  24.672  12.544
10854W        W74622   6.381   0.345  11.040
10855W        W74623  29.594  13.261  14.834
10856W        W74624  44.809  38.910   1.750
10857W        W74625  44.332  24.001  12.445
10858W        W74626   3.323  11.812   2.223
10859W        W74627  43.409   0.457  12.471
10860W        W74628  31.979   4.420  11.981
10861W        W74629  10.178  11.772   2.390
10862W        W74630  28.133   0.277   3.777
10863W        W74631  32.472  41.482  12.400
10864W        W74632  36.449   3.362  14.014
10865W        W74633  28.461  12.167   2.881
10866W        W74634  23.523  14.276   4.754
10867W        W74635  41.463   3.432   1.358
10868W        W74636  16.729  39.963  10.446
10869W        W74637  40.957  31.055   3.723
10870W        W74638   2.760   9.182   0.331
10871W        W74639  12.305  44.979   2.223
10872W        W74640  26.179  36.536   1.267
10873W        W74641  39.353   9.252   0.770
10874W        W74642  44.007  27.178   0.883
10875W        W74643  35.514   2.326  12.552
10876W        W74644   2.257  25.040   5.109
10877W        W74645  27.075   1.811   4.786
10878W        W74646   3.337  40.833   0.889
10879W        W74647  26.691  24.109   1.903
10880W        W74648  40.832  20.692  13.864
10881W        W74649  38.896  26.956   3.648
10882W        W74650  15.102  17.572   2.816
10883W        W74651   2.727  17.595   0.735
10884W        W74652  19.663  26.003  11.880
10885W        W74653  14.638  28.946   3.822
10886W        W74654  38.887  17.642   4.601
10887W        W74655  35.411  26.512  10.536
10888W        W74656  31.103  15.255   3.814
10889W        W74657   8.346   2.320  10.951
10890W        W74658  28.628   8.872  14.961
10891W        W74659  25.622   1.762   4.684
10892W        W74660   1.970  27.945  14.889
10893W        W74661  16.604  17.758  13.510
10894W        W74662  22.544  24.530   0.881
10895W        W74663  15.656  41.876  11.048
10896W        W74664  19.631  11.709   4.351
10897W        W74665   3.730   8.822   2.198
10898W        W74666   6.380  22.209  14.349
10899W        W74667  31.555  20.262  14.913
10900W        W74668   8.815   7.341   2.257
10901W        W74669  29.060  33.481   2.870
10902W        W74670  39.885   5.846  12.506
10903W        W74671   6.830  13.307   0.862
10904W        W74672   8.847  16.248   4.237
10905W        W74673  40.482  37.474  10.433
10906W        W74674   0.281  28.017   0.935
10907W        W74675  28.959   1.791   0.902
10908W        W74676  36.553   1.476   1.836
10909W        W74677  13.641  23.579  14.774
10910W        W74678  37.438  39.356   4.787
10911W        W74679  43.021   8.678  10.503
10912W        W74680  41.330   8.805  10.465
10913W        W74681  15.753  35.446  13.956
10914W        W74682  10.233  42.401  11.912
10915W        W74683  10.186  28.018   2.215
10916W        W74684  33.543  43.768   4.731
10917W        W74685   6.254  10.643  12.884
10918W        W74686  27.168  26.559  12.454
10919W        W74687   2.848  14.301   0.726
10920W        W74688  16.781  38.482   4.653
10921W        W74689  15.237  43.512  12.993
10922W        W74690   8.402  44.844   1.326
10923W        W74691  36.505  22.623   4.802
10924W        W74692   0.478   2.365   1.756
10925W        W74693  19.634   1.732  12.940
10926W        W74694  10.754  17.172  13.829
10927W        W74695  34.934   9.803   0.301
10928W        W74696  40.342   1.883  11.925
10929W        W74697  27.642  26.960  12.851
10930W        W74698  32.937  35.949  10.444
10931W        W74699  25.543  40.878   3.733
10932W        W74700  43.423  23.727  14.002
10933W        W74701  34.585  14.236  14.430
10934W        W74702  15.793  34.565  11.014
10935W        W74703  34.943  28.566   3.785
10936W        W74704  41.005   7.336  14.431
10937W        W74705   4.856   0.388   0.853
10938W        W74706  10.361  35.380  10.515
10939W        W74707  12.812  41.510   2.210
10940W        W74708  16.100  19.743  10.116
10941W        W74709  23.138   6.738   0.800
10942W        W74710  24.069  41.457   4.707
10943W        W74711  19.574  24.169   1.821
10944W        W74712  38.954  15.250   4.748
10945W        W74713  24.080  36.030   4.353
10946W        W74714  15.282  13.344  13.827
10947W        W74715  36.081   4.404  13.041
10948W        W74716  10.851  40.316  11.984
10949W        W74717   3.335  30.451  13.444
10950W        W74718   4.300  44.839   4.335
10951W        W74719  19.537  33.976  14.877
10952W        W74720  14.652   3.269  12.433
10953W        W74721  14.312   5.844   3.201
10954W        W74722  10.326  34.985  12.825
10955W        W74723   9.749  10.635  12.364
10956W        W74724  43.410   8.382  10.501
10957W        W74725   4.727  11.629  12.493
10958W        W74726  36.586   1.345   0.291
10959W        W74727  25.505  43.896   2.791
10960W        W74728   4.216  23.631   4.164
10961W        W74729   2.858   8.305   4.185
10962W        W74730  13.702  11.809   3.265
10963W        W74731   0.821  40.910  11.978
10964W        W74732  13.781  24.718   3.241
10965W        W74733  15.194  14.719  13.797
10966W        W74734  16.758  43.313  13.911
10967W        W74735  36.053  20.751  11.964
10968W        W74736   9.890  41.855  10.573
10969W        W74737   7.752  41.423   3.660
10970W        W74738  42.359  43.779   2.854
10971W        W74739  13.198   0.824  13.798
10972W        W74740   3.913  17.740   1.731
10973W        W74741  10.249  11.755   1.349
10974W        W74742  19.566  12.768  13.897
10975W        W74743  26.655   2.385   0.283
10976W        W74744   1.308  16.710   2.755
10977W        W74745  37.342  17.781   0.812
10978W        W74746  21.724  43.419  14.501
10979W        W74747  27.028  41.447   0.758
10980W        W74748  38.973   0.276   2.184
10981W        W74749  38.005   7.820   4.225
10982W        W74750   1.321  33.935   3.378
10983W        W74751  43.470  44.363   0.455
10984W        W74752  41.794  37.383   3.274
10985W        W74753  38.840   3.434   3.701
10986W        W74754  36.414  31.604   3.716
10987W        W74755  11.704  23.999  13.957
10988W        W74756  33.503  39.042  11.549
10989W        W74757  24.483  13.686   3.850
10990W        W74758  19.597  16.705  11.582
10991W        W74759  39.042   6.413  12.915
10992W        W74760  19.067  30.484   4.807
10993W        W74761  18.187   6.412   1.882
10994W        W74762   4.929  37.940  11.520
10995W        W74763   3.456  34.096  13.905
10996W        W74764  13.323  39.973   5.137
10997W        W74765  15.643  39.388  11.964
10998W        W74766  26.161  44.341  12.570
10999W        W74767  26.997   5.817  14.786
11000W        W74768  26.971   4.216  11.511
11001W        W74769  23.072  37.831  11.979
11002W        W74770   1.843  16.674   2.399
11003W        W74771  16.694  44.811  11.123
11004W        W74772  41.376  40.843  13.927
11005W        W74773  39.458  34.547   4.611
11006W        W74774  28.072  11.263   1.244
11007W        W74775  38.390  33.877   9.536
11008W        W74776   5.908   5.284  10.453
11009W        W74777  40.532   2.885   4.784
11010W        W74778  14.808  27.995  10.613
11011W        W74779  37.948  12.783  11.923
11012W        W74780   3.222  13.134  13.528
11013W        W74781  25.553  42.321   4.210
11014W        W74782  21.263  23.620  12.391
11015W        W74783  13.207  36.851  11.451
11016W        W74784   8.226   9.836   4.730
11017W        W74785   7.278  23.503   4.821
11018W        W74786  20.190  43.440   1.298
11019W        W74787  39.325  44.306  13.495
11020W        W74788  17.110  39.360   3.745
11021W        W74789  11.363  22.146   2.219
11022W        W74790  38.567   9.738   1.383
11023W        W74791   7.329   6.889  11.873
11024W        W74792  11.859  23.668   0.845
11025W        W74793  19.157   8.697   1.342
11026W        W74794  25.510  19.630   1.705
11027W        W74795   0.441   8.295   0.413
11028W        W74796  34.956  16.212  11.056
11029W        W74797  29.592  14.299   9.967
11030W        W74798  29.082  36.516  11.459
11031W        W74799  29.513   3.327  13.310
11032W        W74800  31.024  32.570   0.809
11033W        W74801  34.117   3.802  10.549
11034W        W74802  12.791  38.954   1.908
11035W        W74803  33.497  22.579  11.951
11036W        W74804  15.207  19.122  10.419
11037W        W74805  21.091  12.207  12.084
11038W        W74806  37.067  18.732  11.871
11039W        W74807  14.101  18.552   3.809
11040W        W74808  19.280   7.732   3.259
11041W        W74809  40.884   7.290   2.885
11042W        W74810  31.963   2.467  10.416
11043W        W74811  44.307  24.525  11.582
11044W        W74812   2.815  27.152   4.650
11045W        W74813   5.917  15.141   1.751
11046W        W74814   1.480  16.740   0.761
11047W        W74815  36.933   6.240   0.273
11048W        W74816   3.401  21.243   4.116
11049W        W74817  16.704  18.676   1.240
11050W        W74818  31.431   2.843  11.128
11051W        W74819   3.716  43.438   0.267
11052W        W74820   2.290  20.242   2.670
11053W        W74821  29.472  28.639  12.910
11054W        W74822   2.317  21.127   3.374
11055W        W74823  28.176  41.864  11.908
11056W        W74824  18.088  11.186   2.768
11057W        W74825  30.964  35.559   2.865
11058W        W74826  42.983  14.601  13.845
11059W        W74827  42.865  29.481  10.502
11060W        W74828  43.425  43.827   1.926
11061W        W74829   7.902  14.816   1.883
11062W        W74830  24.229  43.344   2.738
11063W        W74831  42.958  40.335   4.825
11064W        W74832  32.572  18.152  11.403
11065W        W74833  10.139  32.459  14.361
11066W        W74834  11.371  21.147   0.331
11067W        W74835  18.176  20.046  10.933
11068W        W74836  18.642  13.136   0.828
11069W        W74837  37.404   8.659  11.984
11070W        W74838  42.369   3.877  11.974
11071W        W74839  25.652  13.334  13.839
11072W        W74840  27.671  20.607  14.913
11073W        W74841   4.365  36.419  13.853
11074W        W74842  41.848  19.180   4.328
11075W        W74843  34.546  13.169   2.723
11076W        W74844  43.422  42.411  11.389
11077W        W74845  16.259  40.053  14.392
11078W        W74846  42.918  14.144   0.411
11079W        W74847  38.496  28.157  10.144
11080W        W74848  36.392  10.187   3.322
11081W        W74849  37.065   7.219   1.834
11082W        W74850  20.242  39.513  13.523
11083W        W74851  40.039   8.886   2.227
11084W        W74852   7.838  15.220  11.454
11085W        W74853  14.270  30.613  10.128
11086W        W74854   1.898   3.750  11.508
11087W        W74855  39.428   4.800   0.951
11088W        W74856  33.031  33.127   4.719
11089W        W74857  27.196  23.056  12.052
11090W        W74858  37.837  41.947  13.339
11091W        W74859  39.883   3.888   3.212
11092W        W74860  43.910   1.942  10.470
11093W        W74861   5.269   7.213   0.900
11094W        W74862   3.219  40.921  11.497
11095W        W74863  34.914  18.789  10.519
11096W        W74864  36.960  35.469  13.853
11097W        W74865  26.166  18.271   4.836
11098W        W74866  12.286  37.463   1.802
11099W        W74867   4.941   9.164   2.216
11100W        W74868  18.169  26.968   2.852
11101W        W74869  26.606  15.712  13.934
11102W        W74870  34.537  27.970  11.952
11103W        W74871  10.181  12.203  13.996
11104W        W74872  22.624  34.454   2.686
11105W        W74873  43.995  36.531   4.261
11106W        W74874   3.931  27.461   2.819
11107W        W74875  43.784   1.930   4.196
11108W        W74876   3.220  29.054   0.350
11109W        W74877  38.525  30.549   1.371
11110W        W74878  24.725  20.095   0.872
11111W        W74879  11.810  13.775   0.455
11112W        W74880  38.931  29.073   5.315
11113W        W74881  17.306  38.544   2.886
11114W        W74882  44.368   7.673  10.565
11115W        W74883  36.957   5.282  14.399
11116W        W74884  35.943  38.475   3.146
11117W        W74885  26.568  41.446   3.834
11118W        W74886   2.748   9.385  13.028
11119W        W74887  33.009  21.066  12.536
11120W        W74888  42.330  28.181   3.690
11121W        W74889  34.057  27.113  14.808
11122W        W74890  27.560  37.476   2.344
11123W        W74891  33.904  26.979   4.605
11124W        W74892  15.320   5.231  11.083
11125W        W74893   6.745  25.489  14.010
11126W        W74894   1.384  28.047   4.295
11127W        W74895  30.470   3.355   0.812
11128W        W74896  22.616  19.118   0.890
11129W        W74897  14.690  23.202  13.541
11130W        W74898  31.094  16.706  13.817
11131W        W74899  19.145  12.803   1.869
11132W        W74900  44.315  30.970  11.604
11133W        W74901  26.584  34.011   0.810
11134W        W74902  28.958  44.446   0.412
11135W        W74903   0.347  26.638   4.730
11136W        W74904  21.129  22.120  13.338
11137W        W74905  33.387  44.895  10.011
11138W        W74906   5.906  30.029  11.547
11139W        W74907   6.719  41.806  14.454
11140W        W74908  40.310   1.450   3.656
11141W        W74909   4.304  36.529   1.901
11142W        W74910  34.370  40.052  13.972
11143W        W74911   3.318  12.680  10.532
11144W        W74912  24.708   9.328  10.553
11145W        W74913  37.399  22.510  10.577
11146W        W74914  40.847  12.128   4.674
11147W        W74915  11.351  24.223   2.371
11148W        W74916  41.355  44.761  10.900
11149W        W74917  44.810  24.721   2.763
11150W        W74918  27.551  32.059   9.955
11151W        W74919   1.283  31.980   1.847
11152W        W74920  18.607  33.551   2.837
11153W        W74921  38.866  37.073   4.612
11154W        W74922  40.371  29.965   1.436
11155W        W74923   8.788  16.735   3.775
11156W        W74924  38.059  16.613  13.311
11157W        W74925   1.365  17.228   1.411
11158W        W74926  32.034   8.320  13.529
11159W        W74927  32.113  40.523  12.978
11160W        W74928  37.537  38.565  10.567
11161W        W74929   6.320  25.195  12.555
11162W        W74930  29.133  22.192  14.300
11163W        W74931  44.468  12.249  13.945
11164W        W74932  25.532  27.967  12.376
11165W        W74933  36.082  10.777   1.848
11166W        W74934  28.029  23.532  14.908
11167W        W74935  28.082  28.097  13.858
11168W        W74936   6.364  11.358  13.326
11169W        W74937  39.829  15.796  11.056
11170W        W74938  44.408  20.766   3.811
11171W        W74939  30.085  39.009  11.419
11172W        W74940  22.505  27.593  10.641
11173W        W74941  15.582   3.294   1.800
11174W        W74942   9.334  31.648   4.299
11175W        W74943  37.424  18.220  13.056
11176W        W74944  34.009  26.645  12.886
11177W        W74945   0.843  13.782  14.018
11178W        W74946  17.587  31.139   9.991
11179W        W74947   1.351   4.918   1.346
11180W        W74948  26.114  14.106   9.633
11181W        W74949   9.183  21.698  12.826
11182W        W74950  21.157   8.813  10.969
11183W        W74951  39.056  23.984   2.395
11184W        W74952  21.658  26.577  14.996
11185W        W74953  42.472   9.385  11.885
11186W        W74954  42.474  28.948  10.472
11187W        W74955  22.174  40.962   3.734
11188W        W74956   5.206  21.605  11.410
11189W        W74957   2.828  38.949  12.377
11190W        W74958  30.467  17.224  14.505
11191W        W74959  20.741  38.542   3.184
11192W        W74960  43.467  11.310  13.795
11193W        W74961  25.970   8.356  14.893
11194W        W74962   2.236  11.634   2.194
11195W        W74963   1.475  34.495  14.916
11196W        W74964  19.117  38.845  11.037
11197W        W74965  27.529  12.222   1.362
11198W        W74966  14.607   7.171  12.868
11199W        W74967   2.762  21.019  12.418
11200W        W74968   2.387  26.595   1.781
11201W        W74969  17.148  17.720   0.391
11202W        W74970  29.471  17.170   3.193
11203W        W74971  22.700  14.172  14.840
11204W        W74972  40.458   8.199   3.817
11205W        W74973  17.680  24.658  13.310
11206W        W74974  26.119   0.839  14.477
11207W        W74975   0.438  16.796  14.288
11208W        W74976  29.439  38.028  10.991
11209W        W74977  41.837  32.622   3.254
11210W        W74978  28.950  16.593  11.605
11211W        W74979  11.252   4.920  12.368
11212W        W74980   3.376  17.179   3.715
11213W        W74981  28.079  25.059  11.991
11214W        W74982  13.820  23.174   4.340
11215W        W74983  29.551  37.392   9.925
11216W        W74984   5.745  39.023   3.834
11217W        W74985  19.093   7.881   2.292
11218W        W74986  40.341  33.568  10.419
11219W        W74987   4.380   4.310  13.864
11220W        W74988  43.770   6.312  11.531
11221W        W74989   2.283  35.366  12.062
11222W        W74990  26.634  17.627   1.323
11223W        W74991  42.374  41.326   2.333
11224W        W74992  33.571  11.718  11.937
11225W        W74993  44.413  10.311  12.906
11226W        W74994  16.634  20.652   2.665
11227W        W74995  19.237  40.966   3.214
11228W        W74996  32.091   0.402  13.395
11229W        W74997  30.439  19.149   2.262
11230W        W74998   7.349  26.121   0.851
11231W        W74999  43.923   2.405  13.854
11232W        W75000   3.906  25.009  13.502
11233W        W75001  24.203   0.850   3.740
11234W        W75002  11.217  15.207  11.062
11235W        W75003  44.348  26.140  12.983
11236W        W75004  21.636  18.680  13.342
11237W        W75005   9.766  29.993  11.866
11238W        W75006   5.830  27.659  12.987
11239W        W75007   8.689  16.291   3.199
11240W        W75008   3.878  22.124   1.746
11241W        W75009  42.465  11.759   1.228
11242W        W75010  15.237   0.313   2.313
11243W        W75011  39.470   5.325  14.954
11244W        W75012  19.247  33.989   3.787
11245W        W75013  16.718  37.439   2.700
11246W        W75014  44.342  37.039  13.843
11247W        W75015  11.175  14.719   1.883
11248W        W75016   5.843   1.777   1.263
11249W        W75017   1.465  30.537   2.691
11250W        W75018  18.638  32.585  12.345
11251W        W75019  35.951   0.283   3.732
11252W        W75020   3.377  15.586  10.032
11253W        W75021  29.517  26.970   4.805
11254W        W75022  39.486  37.577  13.854
11255W        W75023  26.533  25.692   4.201
11256W        W75024  18.598  22.589   1.802
11257W        W75025  41.320  21.049  13.949
11258W        W75026  30.980  40.368  13.000
11259W        W75027   1.463  20.552  13.018
11260W        W75028  11.234  36.393  13.344
11261W        W75029  33.459  12.307  11.027
11262W        W75030  40.022  29.489  11.574
11263W        W75031   2.891  42.316   1.913
11264W        W75032  42.382  30.036   2.676
11265W        W75033  26.983  43.395  13.027
11266W        W75034   0.433  44.865  14.921
11267W        W75035  29.523   6.226   1.412
11268W        W75036  28.101  12.291  14.872
11269W        W75037  30.038  32.116   4.748
11270W        W75038  33.389  10.161   5.211
11271W        W75039  23.643  34.938   1.240
11272W        W75040  32.955  17.785  13.446
11273W        W75041  32.538  33.054  13.372
11274W        W75042  14.610  17.661  12.050
11275W        W75043  26.597  31.035  11.956
11276W        W75044  24.667   9.764   4.598
11277W        W75045   8.832  30.010   4.177
11278W        W75046  20.651  39.965  12.967
11279W        W75047  16.595  41.358   3.791
11280W        W75048   5.916  37.979   1.289
11281W        W75049  26.589   5.834  12.562
11282W        W75050  44.911   3.955  12.389
11283W        W75051  44.438  29.596   0.860
11284W        W75052  26.650  38.537   3.686
11285W        W75053  18.731  26.009  11.883
11286W        W75054   3.216  19.656  12.996
11287W        W75055  40.521   3.292   2.214
11288W        W75056  11.275  25.534  13.043
11289W        W75057  31.949  25.614   0.834
11290W        W75058   8.696  24.584   3.378
11291W        W75059  27.649   4.375  12.534
11292W        W75060  18.600   6.325  14.012
11293W        W75061  30.919  43.455   2.214
11294W        W75062  18.192  28.937   2.300
11295W        W75063  10.251  40.524   1.771
11296W        W75064  21.139  21.515   2.683
11297W        W75065   3.345   6.413  12.996
11298W        W75066  19.061  14.711   3.666
11299W        W75067  20.706   3.779   0.246
11300W        W75068  32.529  32.105   0.372
11301W        W75069  21.056  12.809  11.559
11302W        W75070   2.316  29.564   0.748
11303W        W75071  31.135  36.060  12.456
11304W        W75072   7.852  10.170   5.204
11305W        W75073  31.645  15.125  11.966
11306W        W75074   6.216  23.510   1.828
11307W        W75075  30.657  11.748   1.888
11308W        W75076  39.315  16.745   1.310
11309W        W75077  23.604  16.751  11.890
11310W        W75078  12.710  27.635   3.841
11311W        W75079   6.314  41.292   3.748
11312W        W75080  17.801  37.990   4.308
11313W        W75081   9.686  44.492   3.720
11314W        W75082  22.558  27.188  13.469
11315W        W75083  19.746   6.891   0.958
11316W        W75084   4.731  24.480  12.382
11317W        W75085  39.880  32.977  12.503
11318W        W75086  28.042  21.696  14.312
11319W        W75087  28.158  25.174   2.768
11320W        W75088  32.448  14.649  13.459
11321W        W75089  27.529  37.361  13.940
11322W        W75090  12.120   3.952  13.796
11323W        W75091  14.672  13.168   4.670
11324W        W75092  30.029   5.217  13.465
11325W        W75093  21.703  14.176  12.892
11326W        W75094  17.790   4.701  12.967
11327W        W75095  26.492  12.707  13.945
11328W        W75096   9.382   1.741  13.002
11329W        W75097   2.440  43.855  10.473
11330W        W75098   4.333   1.957   3.745
11331W        W75099  29.127  44.006  12.481
11332W        W75100  21.643  22.639  11.371
11333W        W75101  43.829  34.385  13.389
11334W        W75102  38.911  27.627   1.436
11335W        W75103  24.187  15.085  14.824
11336W        W75104  26.472  25.540   0.823
11337W        W75105  13.746   9.832  13.800
11338W        W75106  18.662   9.839   4.715
11339W        W75107   9.789   8.375  12.402
11340W        W75108   8.306  22.998   2.360
11341W        W75109  22.705  24.985   2.782
11342W        W75110   6.853  38.035  10.623
11343W        W75111   3.415  31.983  10.606
11344W        W75112  25.105  10.644   4.598
11345W        W75113  10.794  42.503   1.441
11346W        W75114  37.893  19.602  12.930
11347W        W75115  16.765  44.957  14.460
11348W        W75116  33.403  38.895   4.198
11349W        W75117  31.118  17.561  10.990
11350W        W75118  20.744  21.055  10.029
11351W        W75119  31.151  20.616  11.950
11352W        W75120  30.523  12.712  11.413
11353W        W75121   9.381  16.702   4.783
11354W        W75122  18.560  30.946   2.269
11355W        W75123   7.258  44.870  11.396
11356W        W75124  16.072  21.148  11.952
11357W        W75125  21.719  18.195  14.410
11358W        W75126  14.758  10.679   3.770
11359W        W75127  19.609  34.424   5.180
11360W        W75128  17.203   5.439   3.320
11361W        W75129   7.724  23.234   2.334
11362W        W75130   0.920  21.160   0.960
11363W        W75131  21.026   8.775  13.017
11364W        W75132   3.288  26.611  10.949
11365W        W75133  43.807  41.361   1.884
11366W        W75134   9.868  41.388   3.799
11367W        W75135  20.238   6.210  13.475
11368W        W75136  28.484  13.701   4.693
11369W        W75137  43.417   6.694   4.320
11370W        W75138  41.986  15.133   2.282
11371W        W75139  20.644  20.530  11.128
11372W        W75140   7.792  25.983   3.641
11373W        W75141  16.566  30.079   4.720
11374W        W75142   0.899  23.064  11.564
11375W        W75143  41.509  36.982  14.030
11376W        W75144  10.663   7.241  12.544
11377W        W75145   2.800   6.835  14.433
11378W        W75146  34.498  43.424   1.911
11379W        W75147   5.818  40.021  11.930
11380W        W75148  25.016  28.114   0.319
11381W        W75149  16.261  29.438  14.311
11382W        W75150  17.648  11.328  14.004
11383W        W75151  24.546  17.130   2.182
11384W        W75152   8.827  23.009   1.740
11385W        W75153  26.026  30.597  14.298
11386W        W75154  37.879  33.442  12.367
11387W        W75155  19.133  11.189  12.937
11388W        W75156  12.624  28.499   2.765
11389W        W75157  36.083   6.833  14.321
11390W        W75158  30.099  30.431   2.300
11391W        W75159  20.554   2.892  12.928
11392W        W75160  38.497  38.361  11.404
11393W        W75161  10.206  23.073   3.742
11394W        W75162   7.895  18.286  11.003
11395W        W75163  44.341  20.703  13.795
11396W        W75164  32.600  15.199  12.850
11397W        W75165  24.070  35.961  11.408
11398W        W75166  43.846  27.047   3.866
11399W        W75167  34.531  34.603   0.390
11400W        W75168  41.809   8.846  11.876
11401W        W75169  15.650  28.517   4.813
11402W        W75170  15.721  29.158  14.383
11403W        W75171  28.134   2.336   4.261
11404W        W75172  11.762  31.105   2.816
11405W        W75173   5.420  28.519   0.317
11406W        W75174   1.868  13.230  14.983
11407W        W75175   0.477  26.952   4.344
11408W        W75176  20.059  25.549  12.023
11409W        W75177  27.542  25.662   3.367
11410W        W75178  30.601  22.677  13.057
11411W        W75179  15.218   6.782   2.313
11412W        W75180  38.539  40.326  13.976
11413W        W75181  15.303   5.911   3.652
11414W        W75182  32.497  23.081  14.393
11415W        W75183   8.380  14.210   4.156
11416W        W75184  13.727  14.758  10.443
11417W        W75185  14.125  10.161  13.385
11418W        W75186   3.759  38.035   1.781
11419W        W75187  12.220  43.834   2.292
11420W        W75188  18.670  32.010  13.509
11421W        W75189  15.329  21.705   3.355
11422W        W75190  28.510  30.604  14.369
11423W        W75191  42.898  36.389   2.333
11424W        W75192  25.197  37.984   3.842
11425W        W75193   3.737  17.573   3.153
11426W        W75194  19.249  38.374   0.731
11427W        W75195   3.938  19.591  14.404
11428W        W75196  38.369  33.099  14.879
11429W        W75197  13.240  34.434  14.276
11430W        W75198  18.183  41.823   0.802
11431W        W75199  22.009   3.788  14.321
11432W        W75200  37.921  17.797  11.542
11433W        W75201  34.578  20.660  14.846
11434W        W75202  11.279  12.831   2.220
11435W        W75203  35.896  34.434   4.312
11436W        W75204  19.542  18.244  11.895
11437W        W75205   1.955   2.882   3.869
11438W        W75206  28.139   5.420   4.228
11439W        W75207  15.267  28.997  14.464
11440W        W75208  25.003  18.770   3.731
11441W        W75209  10.728  24.976  11.964
11442W        W75210   2.743  19.701   0.304
11443W        W75211  31.907  14.668   3.245
11444W        W75212  43.273   8.840   4.254
11445W        W75213  38.363  20.097   3.150
11446W        W75214   3.359  10.275  14.284
11447W        W75215  17.690  25.145  12.473
11448W        W75216  19.107  35.079   3.234
11449W        W75217  26.500  38.002   1.432
11450W        W75218  22.250  23.672   1.396
11451W        W75219  41.882  34.451  13.796
11452W        W75220  28.948  30.984   4.636
11453W        W75221   3.909  10.780  14.920
11454W        W75222  41.845  19.236  14.765
11455W        W75223   9.683  21.600   2.304
11456W        W75224  16.080  23.637  13.358
11457W        W75225  11.635  37.911  12.394
11458W        W75226   9.300   9.855   0.254
11459W        W75227  24.172  19.272  13.362
11460W        W75228  19.047  42.811  13.342
11461W        W75229   4.264   9.377   1.745
11462W        W75230  44.774   9.743   3.661
11463W        W75231   4.831  11.785   5.219
11464W        W75232  37.494  16.614   1.378
11465W        W75233  18.158  13.126  13.310
11466W        W75234   1.315  31.467  14.893
11467W        W75235  38.537  27.662  12.094
11468W        W75236  14.217   1.819  10.968
11469W        W75237  41.521  12.360  12.418
11470W        W75238   7.896   9.227   1.922
11471W        W75239  14.102  26.572   0.833
11472W        W75240  13.339  39.529   0.852
11473W        W75241  35.575  30.964  14.510
11474W        W75242  38.960  24.168  13.940
11475W        W75243   6.198  35.055   4.232
11476W        W75244  14.591  39.458  10.600
11477W        W75245   6.815  23.057   0.913
11478W        W75246  19.187  11.155  14.326
11479W        W75247   5.921  14.135   0.373
11480W        W75248  25.207  12.157  14.294
11481W        W75249  36.883  20.759   4.639
11482W        W75250  42.865  21.238  10.609
11483W        W75251  25.073  10.362   3.701
11484W        W75252   6.789  15.674  14.948
11485W        W75253   4.878  22.034  11.067
11486W        W75254  22.100   3.953   2.245
11487W        W75255  40.519   8.678   1.352
11488W        W75256  37.537  39.393   1.744
11489W        W75257   8.763   2.956   3.301
11490W        W75258  40.930  15.158  13.489
11491W        W75259  32.981  12.269  10.624
11492W        W75260   6.859  19.047  12.887
11493W        W75261  31.938  30.511   0.417
11494W        W75262  23.687  31.574  13.896
11495W        W75263  32.021  15.163  12.361
11496W        W75264  34.916  28.562   1.765
11497W        W75265  37.366   7.389   3.238
11498W        W75266  20.096   4.395   2.807
11499W        W75267   9.803  42.886   4.293
11500W        W75268  26.486  13.652   3.824
11501W        W75269  18.736  16.728  13.419
11502W        W75270  42.830  18.710   3.681
11503W        W75271  34.613  28.503  12.555
11504W        W75272  17.262  21.753   4.248
11505W        W75273  17.616  41.387  10.987
11506W        W75274  21.621   3.721   2.832
11507W        W75275   9.658   3.758   3.828
11508W        W75276  19.166  12.227  12.952
11509W        W75277  43.813  44.952   4.760
11510W        W75278   0.848  32.976   1.932
11511W        W75279  41.032  35.995   0.862
11512W        W75280  24.617  24.503   4.735
11513W        W75281  35.463  21.630   2.819
11514W        W75282  18.246   3.937   1.789
11515W        W75283  41.919   0.452  12.525
11516W        W75284   8.206  19.633   2.198
11517W        W75285  15.651  23.071  13.986
11518W        W75286   5.349  22.621   1.218
11519W        W75287   7.773   5.870   3.853
11520W        W75288  11.623  27.618  10.602
11521W        W75289  22.181   6.909   4.633
11522W        W75290  43.991  18.100  14.305
11523W        W75291  14.147   3.940  11.583
11524W        W75292  40.833  14.185   3.680
11525W        W75293  20.049  15.297   0.955
11526W        W75294  18.567  15.294   4.240
11527W        W75295  14.757  20.171  11.877
11528W        W75296  38.371   8.828   2.860
11529W        W75297   2.287  26.040  11.125
11530W        W75298  41.935  30.481   1.336
11531W        W75299  16.593  44.966   4.725
11532W        W75300  15.136  35.914   0.272
11533W        W75301   0.881   2.394  13.816
11534W        W75302   8.813  42.494  14.838
11535W        W75303  34.401  14.595   2.392
11536W        W75304  42.482  33.023   2.778
11537W        W75305  38.917   7.710  14.299
11538W        W75306  32.525  38.386  14.973
11539W        W75307  25.640  43.980   3.795
11540W        W75308  30.052  24.119  10.643
11541W        W75309  42.453  28.572   3.814
11542W        W75310  21.758  44.841  13.418
11543W        W75311  42.414  12.712  12.069
11544W        W75312  16.776  35.371   0.283
11545W        W75313  37.532  17.764  12.365
11546W        W75314  34.414  25.692  10.940
11547W        W75315  31.130   1.452  12.426
11548W        W75316   4.269  19.141  13.842
11549W        W75317  19.188   5.743   1.427
11550W        W75318   9.185  31.963   1.413
11551W        W75319  13.717  28.447   4.220
11552W        W75320   2.327  12.639   1.299
11553W        W75321  25.516  33.131   1.308
11554W        W75322  27.970  14.640   0.245
11555W        W75323  39.490   2.782   4.600
11556W        W75324  24.520  29.581   1.874
11557W        W75325  42.346  18.090  13.977
11558W        W75326  33.123  38.828   1.710
11559W        W75327  43.288  11.809   0.868
11560W        W75328  19.164  23.021  14.314
11561W        W75329  25.109   2.763   1.386
11562W        W75330  21.655  38.566  10.951
11563W        W75331  26.644  42.379   2.837
11564W        W75332  13.229  16.726  13.812
11565W        W75333   4.821  44.953   0.871
11566W        W75334  31.911   4.270   4.323
11567W        W75335  27.553  44.490  11.044
11568W        W75336  37.853  32.089  11.565
11569W        W75337  22.117  23.178   3.180
11570W        W75338  41.968  26.058   3.237
11571W        W75339  30.069  32.114  12.428
11572W        W75340  19.125   6.818   2.899
11573W        W75341  35.096  17.757   0.463
11574W        W75342  25.571   4.302   2.844
11575W        W75343   9.234  26.166   4.614
11576W        W75344  22.569  11.828   2.818
11577W        W75345  23.134   3.800  13.964
11578W        W75346  30.058   9.876  14.807
11579W        W75347   3.941  19.636  13.015
11580W        W75348  22.097   9.873   2.733
11581W        W75349  22.033  31.946   3.676
11582W        W75350  37.050  38.454   2.206
11583W        W75351  18.576  44.887  11.479
11584W        W75352   6.316   3.909  13.956
11585W        W75353   8.205   4.943  11.031
11586W        W75354  35.577  20.618   0.834
11587W        W75355  40.983  30.492  11.924
11588W        W75356   8.330  32.510   4.257
11589W        W75357   5.798  33.555  10.453
11590W        W75358   5.252  12.624   3.702
11591W        W75359  17.640  22.029  13.448
11592W        W75360  16.606  44.373   0.785
11593W        W75361  16.570  11.278   3.317
11594W        W75362   4.707   6.309  14.296
11595W        W75363  37.490  25.184  13.517
11596W        W75364  29.963  27.633   3.847
11597W        W75365  40.814   0.385   1.341
11598W        W75366   7.817  38.361  14.451
11599W        W75367  41.911   6.354   1.852
11600W        W75368  33.395  27.654   3.360
11601W        W75369  31.150  31.474  12.069
11602W        W75370  37.431  23.618   0.386
11603W        W75371   9.802  15.134  11.430
11604W        W75372  20.558  30.959  14.309
11605W        W75373  15.663  25.209  13.847
11606W        W75374  12.744   4.940  13.830
11607W        W75375  18.559  38.960  10.427
11608W        W75376   3.724  38.526  11.909
11609W        W75377  14.243  40.390   2.729
11610W        W75378  33.969  10.771  10.558
11611W        W75379   6.887  36.476   3.305
11612W        W75380  25.638  36.929  12.399
11613W        W75381   6.231  41.495   4.644
11614W        W75382  42.795  23.555  10.552
11615W        W75383   0.962  17.134   1.356
11616W        W75384   8.894  43.439   1.752
11617W        W75385   6.726  37.480   4.653
11618W        W75386   3.372  38.921  13.386
11619W        W75387  29.454   0.859   4.349
11620W        W75388   9.326  35.590  11.498
11621W        W75389  28.168  15.749  13.824
11622W        W75390   2.740  36.990  13.512
11623W        W75391  24.696   2.764   2.747
11624W        W75392  17.272  22.543  14.777
11625W        W75393   0.973  22.104   3.193
11626W        W75394  16.781  32.101   1.322
11627W        W75395  39.908  44.973   0.386
11628W        W75396   8.259  26.499  14.893
11629W        W75397  32.569  12.228   3.739
11630W        W75398   9.342  37.496  11.575
11631W        W75399  31.001  11.239   3.702
11632W        W75400  19.128  24.158   0.328
11633W        W75401  14.212  15.234   4.256
11634W        W75402   5.370   0.382  11.006
11635W        W75403  40.943  18.141   2.241
11636W        W75404  36.379  33.543   4.667
11637W        W75405  21.194  31.562  14.820
11638W        W75406  43.936  42.313   3.708
11639W        W75407  17.558   0.266  11.482
11640W        W75408  36.002   0.261  13.452
11641W        W75409  22.135  38.489  12.474
11642W        W75410  34.417  44.442   2.272
11643W        W75411  38.936  10.767   2.255
11644W        W75412  11.265  35.410   0.254
11645W        W75413   1.888  10.182   1.848
11646W        W75414  43.963   3.908   2.761
11647W        W75415  14.095   5.365  12.020
11648W        W75416  19.716  42.409  10.912
11649W        W75417  13.703  40.824   0.369
11650W        W75418  24.513   2.333   4.223
11651W        W75419  11.321  16.087  11.983
11652W        W75420  17.080   9.875  11.442
11653W        W75421   4.782  18.664   2.349
11654W        W75422  24.524  43.339  12.832
11655W        W75423   8.807  13.624   1.335
11656W        W75424   1.962   0.974  14.901
11657W        W75425  37.470   6.291   1.873
11658W        W75426  19.751  19.645  11.973
11659W        W75427   3.222  21.057  12.451
11660W        W75428  21.590  23.180   3.223
11661W        W75429   0.419  26.580   1.366
11662W        W75430   1.411  11.276   3.775
11663W        W75431   5.827  24.197   1.845
11664W        W75432  16.093  32.096   0.439
11665W        W75433  28.580  32.438  13.969
11666W        W75434  44.357  16.603   4.675
11667W        W75435   4.942   1.777  10.037
11668W        W75436  11.736  14.153   0.958
11669W        W75437  44.863   4.896  10.642
11670W        W75438  30.946  12.299  14.800
11671W        W75439   3.244  15.240   0.900
11672W        W75440  11.827  29.556  10.059
11673W        W75441   6.828   2.322   4.304
11674W        W75442  22.240  34.006  11.034
11675W        W75443   6.832  39.999  11.954
11676W        W75444   5.824   7.784  13.476
11677W        W75445  26.573   5.348  12.525
11678W        W75446   3.766  34.096  11.547
11679W        W75447  25.048  23.668  12.466
11680W        W75448  15.246  22.151  11.923
11681W        W75449   5.377  15.160   0.912
11682W        W75450  42.975  10.728   4.617
11683W        W75451  32.606  21.120  12.856
11684W        W75452  29.061   8.400   0.837
11685W        W75453  32.443   7.751  14.310
11686W        W75454  43.990  30.132  13.814
11687W        W75455  23.119  31.041   3.150
11688W        W75456   1.294   3.908   4.310
11689W        W75457  28.122  34.030   3.770
11690W        W75458   5.298  32.633  13.349
11691W        W75459  37.408  34.943   0.937
11692W        W75460  20.246  29.030   2.896
11693W        W75461  25.006   5.256  11.557
11694W        W75462  31.018  34.560  11.077
11695W        W75463  12.178   4.823   2.779
11696W        W75464  25.613   3.897   2.741
11697W        W75465  35.374  38.449   0.279
11698W        W75466  22.693  11.239   0.468
11699W        W75467   7.363   5.339   0.450
11700W        W75468   1.367  33.960   4.225
11701W        W75469  29.970  33.100  11.470
11702W        W75470  24.141  21.679  13.904
11703W        W75471  44.376  12.631  14.928
11704W        W75472   0.745  34.922   4.813
11705W        W75473  31.028  43.417  12.938
11706W        W75474   3.717  38.014  11.399
11707W        W75475   8.179  43.955  12.055
11708W        W75476  16.689  21.017  11.082
11709W        W75477  41.361  20.227   2.863
11710W        W75478  41.526   0.289  13.444
11711W        W75479   8.764  31.923  12.917
11712W        W75480  39.922  26.674  12.836
11713W        W75481  22.711   5.780   2.678
11714W        W75482  15.618  13.313  14.443
11715W        W75483   7.827   7.226   0.469
11716W        W75484   2.443  35.031   0.476
11717W        W75485   4.795  20.155   0.768
11718W        W75486  11.292  28.667   2.750
11719W        W75487   4.865  30.555  10.094
11720W        W75488  44.362  22.210   4.120
11721W        W75489   0.428  36.072   4.301
11722W        W75490  38.941  13.333  14.470
11723W        W75491  27.071  15.118  14.834
11724W        W75492  43.330   0.418   1.423
11725W        W75493  39.383  21.141   3.818
11726W        W75494  23.692  44.918   4.184
11727W        W75495  14.159   4.939   5.096
11728W        W75496   3.751  18.552  11.408
11729W        W75497  25.016   8.872   1.250
11730W        W75498  31.939  19.733   3.645
11731W        W75499  12.680  39.918   2.766
11732W        W75500  20.765  18.637   2.870
11733W        W75501   5.851  23.004  14.922
11734W        W75502  18.132  40.372   2.748
11735W        W75503  44.308   5.914   0.785
11736W        W75504  30.441   9.670   2.681
11737W        W75505  20.684   9.799  14.489
11738W        W75506  33.126  37.340  14.787
11739W        W75507  43.791  30.996  11.537
11740W        W75508  24.586  20.236  10.598
11741W        W75509  20.073  18.771  12.958
11742W        W75510  11.312  19.284   3.270
11743W        W75511   6.300  26.544  14.499
11744W        W75512   4.941  31.946   2.252
11745W        W75513   0.849  37.475  11.115
11746W        W75514  35.884  11.858   1.264
11747W        W75515  32.994  15.315   4.655
11748W        W75516  21.087  42.990  14.890
11749W        W75517  29.447   8.868  14.507
11750W        W75518   4.417   1.770  13.964
11751W        W75519  12.718  33.020  14.949
11752W        W75520  27.493  40.855   0.749
11753W        W75521  10.193   8.316  13.895
11754W        W75522  24.090  37.431  12.394
11755W        W75523  20.712  23.672   2.316
11756W        W75524  25.999  37.506  10.419
11757W        W75525  16.128  19.778   5.315
11758W        W75526  33.619   0.953   2.877
11759W        W75527  10.802  10.383   1.907
11760W        W75528  29.081  11.254   1.402
11761W        W75529  27.667  19.734  14.852
11762W        W75530  43.851  32.601  11.530
11763W        W75531  42.785  30.637  11.097
11764W        W75532  32.407  12.217   1.818
11765W        W75533  22.182  21.547   0.476
11766W        W75534  37.035  19.749   0.437
11767W        W75535  18.280  10.184  13.984
11768W        W75536  35.504   2.878  13.493
11769W        W75537  31.996  31.927   2.774
11770W        W75538  13.795  28.170   3.648
11771W        W75539   8.302  27.679   1.405
11772W        W75540   7.807  13.215  11.866
11773W        W75541  17.595  20.578   0.796
11774W        W75542   1.756  38.899  13.827
11775W        W75543  14.094  42.375  11.558
11776W        W75544  35.968   1.839   2.405
11777W        W75545  31.510  38.560   4.183
11778W        W75546  26.512  40.922   0.905
11779W        W75547   3.334  29.482   0.365
11780W        W75548  24.196  31.961  11.869
11781W        W75549  26.176  39.028   0.370
11782W        W75550  26.674   1.782  14.287
11783W        W75551  12.172   1.430  14.839
11784W        W75552  43.850   4.400  14.390
11785W        W75553  18.708  11.779  12.903
11786W        W75554  44.993  39.409   4.159
11787W        W75555   6.829  18.070  11.012
11788W        W75556  27.460   5.694   2.804
11789W        W75557  38.922  28.548   9.617
11790W        W75558  35.052  23.509  11.533
11791W        W75559  37.874  34.557   0.298
11792W        W75560  35.540  19.219  13.976
11793W        W75561  44.371   2.900   2.210
11794W        W75562  20.603  10.307   2.179
11795W        W75563   8.869   7.213   3.220
11796W        W75564  44.378  25.495  10.579
11797W        W75565  18.084   0.813   1.236
11798W        W75566  16.641  23.516   1.740
11799W        W75567  42.399  36.387   1.700
11800W        W75568  11.690   5.852   3.342
11801W        W75569  15.123  14.095   3.347
11802W        W75570  18.769   4.348   1.335
11803W        W75571  37.384   6.747   2.192
11804W        W75572   8.227  42.985   1.702
11805W        W75573  37.863  33.597  14.378
11806W        W75574  39.869  17.111  13.438
11807W        W75575  10.364  15.689   3.801
11808W        W75576  26.191  43.464   0.863
11809W        W75577  16.635  22.746  14.882
11810W        W75578  12.755  20.100  12.992
11811W        W75579  27.604  32.528  14.325
11812W        W75580  44.431   8.307  10.917
11813W        W75581  15.301  24.055   4.288
11814W        W75582   7.318  18.759   0.886
11815W        W75583  23.236  12.270  10.951
11816W        W75584   2.946  23.710   4.277
11817W        W75585   3.354   0.438   3.341
11818W        W75586   0.405  36.389  13.897
11819W        W75587  17.772  29.929  12.353
11820W        W75588  32.903  16.204   0.819
11821W        W75589  28.034  20.200   4.347
11822W        W75590  22.085   8.192   4.602
11823W        W75591   9.789   7.360   3.634
11824W        W75592  26.496   3.807  12.017
11825W        W75593  31.073  30.950  14.285
11826W        W75594  11.316  14.226  14.773
11827W        W75595   2.790  44.991   0.877
11828W        W75596  16.097  30.462  13.377
11829W        W75597  16.278  28.583  13.012
11830W        W75598  33.106  41.869  11.483
11831W        W75599   8.683  25.032   4.673
11832W        W75600  38.848  21.720  14.930
11833W        W75601  13.211  16.579  14.327
11834W        W75602   4.405   2.899   1.900
11835W        W75603  21.253  22.028   4.320
11836W        W75604   6.409  25.145   3.227
11837W        W75605   5.781  33.055   0.728
11838W        W75606  22.021  28.114  13.947
11839W        W75607  30.631  34.472  13.446
11840W        W75608  36.952  32.090  13.408
11841W        W75609  34.057  22.717  14.383
11842W        W75610  23.690  27.176   0.841
11843W        W75611   0.336  26.556  12.515
11844W        W75612  16.161   3.820   0.792
11845W        W75613  35.083  20.635  10.632
11846W        W75614   7.356   1.821  14.371
11847W        W75615  34.993  15.126   4.324
11848W        W75616  32.450  33.912   0.842
11849W        W75617  22.018   4.292   0.275
11850W        W75618  26.090  22.187  13.430
11851W        W75619  28.986   1.933   1.705
11852W        W75620  15.148  43.350   2.405
11853W        W75621  18.767   0.909   3.296
11854W        W75622  41.930  21.144   4.756
11855W        W75623   9.386  39.415  12.909
11856W        W75624  18.716  29.558  10.428
11857W        W75625  14.716  14.650   4.648
11858W        W75626   1.457  18.077   4.803
11859W        W75627  35.558  15.716  13.875
11860W        W75628  39.405  38.912   0.441
11861W        W75629  28.071  20.140   2.199
11862W        W75630  40.801  13.718   3.869
11863W        W75631  15.650  41.041  13.471
11864W        W75632  22.053  40.544  11.859
11865W        W75633  11.187  21.569   4.172
11866W        W75634  38.378  38.967  12.858
11867W        W75635  28.449   0.916   3.864
11868W        W75636   0.945  12.131  10.415
11869W        W75637  25.706  35.059   1.392
11870W        W75638  31.483  14.655  11.435
11871W        W75639  39.383  19.665  11.402
11872W        W75640   0.336  10.732  12.948
11873W        W75641   8.804   0.822   4.195
11874W        W75642   9.309  31.411  13.937
11875W        W75643   9.282  39.836   4.643
11876W        W75644  41.914  32.078  11.071
11877W        W75645  37.875  23.708  14.794
11878W        W75646  24.566   4.856  11.013
11879W        W75647  25.155  21.689  12.399
11880W        W75648  13.286  31.988  10.038
11881W        W75649  13.628   2.226   4.272
11882W        W75650  11.699  14.252  10.964
11883W        W75651  41.926  43.992   2.739
11884W        W75652  25.675  25.624   3.303
11885W        W75653  32.499  41.921   0.885
11886W        W75654  15.673  21.600   1.796
11887W        W75655  37.880  17.763  12.383
11888W        W75656  30.429  10.849   4.608
11889W        W75657   9.854  14.127   0.265
11890W        W75658  26.649  29.467   2.857
11891W        W75659   8.824   9.164  11.034
11892W        W75660  33.044  36.560   1.325
11893W        W75661   0.785  21.055   4.661
11894W        W75662  12.739   7.790  10.500
11895W        W75663  34.518  34.399   1.791
11896W        W75664   5.858  10.636   2.288
11897W        W75665  29.559  27.176   2.877
11898W        W75666  37.410   4.931  11.467
11899W        W75667   8.231  18.695  13.965
11900W        W75668   2.470   3.783   0.304
11901W        W75669  23.573  39.035  14.442
11902W        W75670  28.575  18.587   4.249
11903W        W75671  38.450   9.290   0.948
11904W        W75672   9.769  31.028  11.541
11905W        W75673  29.437  22.572  12.906
11906W        W75674  23.226  15.091  13.813
11907W        W75675  19.160  25.190   3.857
11908W        W75676   9.842  27.471  13.545
11909W        W75677  31.519  30.964  12.017
11910W        W75678  30.021  18.219   0.786
11911W        W75679  40.804   0.249  12.860
11912W        W75680  40.008  38.973   0.341
11913W        W75681  34.613  16.078  14.836
11914W        W75682   1.307  24.018  13.447
11915W        W75683  30.589  44.942  13.976
11916W        W75684  34.927  26.116  12.034
11917W        W75685  14.097   0.492   4.243
11918W        W75686  22.559  36.996   4.600
11919W        W75687   3.891   6.830   3.763
11920W        W75688  34.051  11.272  14.879
11921W        W75689  16.677  14.785   2.191
11922W        W75690  17.247  14.715  11.112
11923W        W75691  33.439   0.369  10.984
11924W        W75692  41.355  29.528   3.723
11925W        W75693  40.956  32.516  12.524
11926W        W75694  19.556  18.701   4.816
11927W        W75695  16.623  11.326   0.949
11928W        W75696  43.775  35.430   0.336
11929W        W75697   0.962  28.006  13.831
11930W        W75698  21.679  43.414  10.412
11931W        W75699  26.607   0.931   3.268
11932W        W75700   6.397   2.348  13.347
11933W        W75701  38.859  17.177  14.400
11934W        W75702  22.725  14.198   0.411
11935W        W75703  37.362  11.862  13.917
11936W        W75704  41.924   3.317  13.957
11937W        W75705  19.277  18.760   1.371
11938W        W75706   8.211  37.431   3.711
11939W        W75707  25.008  20.260  10.532
11940W        W75708  35.498  19.220   2.794
11941W        W75709  22.664   9.202   3.631
11942W        W75710  37.850  29.155  14.810
11943W        W75711   2.781  40.337   1.382
11944W        W75712  31.431  33.014  11.519
11945W        W75713  31.485   8.177  13.331
11946W        W75714  30.477  26.026   0.327
11947W        W75715   2.327  23.069  12.920
11948W        W75716   2.369   6.688  11.962
11949W        W75717  14.305  35.490  11.522
11950W        W75718  30.116  39.506  11.035
11951W        W75719   1.429   2.793  13.521
11952W        W75720  22.697   2.877   4.164
11953W        W75721  26.206  30.580   4.259
11954W        W75722  35.090  42.964  11.567
11955W        W75723  15.626   2.252   3.641
11956W        W75724   7.750  14.302  12.347
11957W        W75725  41.877   6.190  12.913
11958W        W75726  41.802  28.074  14.411
11959W        W75727  14.704  33.491   0.432
11960W        W75728  26.039  25.533  12.353
11961W        W75729  27.612   4.710  14.858
11962W        W75730  31.902  20.269   0.471
11963W        W75731  44.793  39.043  12.052
11964W        W75732  18.578   1.865  10.986
11965W        W75733  11.371  30.913  13.465
11966W        W75734  35.587   6.846  11.957
11967W        W75735  20.192  28.561  14.467
11968W        W75736  43.384  28.454   4.192
11969W        W75737  18.193   7.406  14.761
11970W        W75738  36.512  22.625   1.849
11971W        W75739   0.774  15.760   4.815
11972W        W75740  41.341  23.554   0.898
11973W        W75741  10.367  30.039  11.612
11974W        W75742  30.045  42.499  10.442
11975W        W75743  31.902   9.363   4.153
11976W        W75744  17.591  29.668   2.190
11977W        W75745  19.101  27.544  14.907
11978W        W75746  21.648  14.689  12.464
11979W        W75747   9.173   1.464  14.389
11980W        W75748  24.605  18.642   2.280
11981W        W75749  27.178   5.745  13.891
11982W        W75750  16.621  26.600  10.067
11983W        W75751  21.173  17.182   4.338
11984W        W75752   2.758  40.422  11.396
11985W        W75753   6.839  20.572   1.935
11986W        W75754   0.453  18.151  14.324
11987W        W75755  23.009  31.133  12.059
11988W        W75756  10.356  10.876   2.246
11989W        W75757  34.531  40.950  12.857
11990W        W75758  30.131  43.912  11.423
11991W        W75759  39.886  32.413  13.046
11992W        W75760  39.323  37.865   4.333
11993W        W75761   1.766   2.936   0.946
11994W        W75762  21.124   5.852   0.921
11995W        W75763  11.802  29.500   2.353
11996W        W75764   2.344  25.971   2.668
11997W        W75765   6.812   0.456   3.347
11998W        W75766  25.060   5.206  10.489
11999W        W75767  10.225  25.495  12.957
12000W        W75768  35.379  34.982  10.538
12001W        W75769  44.409   6.855  14.483
12002W        W75770  37.040  42.399   2.863
12003W        W75771  19.264  26.563  11.886
12004W        W75772   8.683  13.617   2.857
12005W        W75773   7.279  22.537   0.288
12006W        W75774  32.618  33.493   2.881
12007W        W75775  31.452  16.756  14.354
12008W        W75776  40.048  17.695   0.751
12009W        W75777  30.924  14.590  11.078
12010W        W75778  38.946  31.566   9.519
12011W        W75779   8.737  25.468  10.936
12012W        W75780  29.991  28.964  14.006
12013W        W75781   7.863  17.790  12.033
12014W        W75782  21.160  10.877  12.847
12015W        W75783  29.588  15.158  11.099
12016W        W75784   2.359  21.733  12.380
12017W        W75785   4.943  21.631  11.449
12018W        W75786  35.435   4.901  11.371
12019W        W75787  35.107  41.503   0.312
12020W        W75788  28.043  38.540   4.252
12021W        W75789  28.532  19.757   2.364
12022W        W75790  18.078  31.941  11.996
12023W        W75791  40.446  20.138   3.826
12024W        W75792  36.081  40.829  12.514
12025W        W75793  12.215  22.068   0.882
12026W        W75794  19.164  42.491   4.653
12027W        W75795  22.714  14.139   1.246
12028W        W75796  14.136  42.945  12.911
12029W        W75797  16.129  40.325  11.877
12030W        W75798  25.644  10.217  10.133
12031W        W75799  37.345   7.851  10.918
12032W        W75800  30.538  19.272  12.901
12033W        W75801  35.430  18.598   0.438
12034W        W75802  27.177   8.300  11.015
12035W        W75803  24.581  30.065  11.908
12036W        W75804  44.970  43.421   0.469
12037W        W75805  23.162   3.355   4.615
12038W        W75806  40.937  10.313  11.433
12039W        W75807  29.031   1.329   4.313
12040W        W75808  17.226  30.916   3.247
12041W        W75809  42.402  42.806   1.445
12042W        W75810  34.579   1.246   0.782
12043W        W75811   6.208   4.413  11.050
12044W        W75812  11.868  10.853   4.768
12045W        W75813  28.130  23.630   2.702
12046W        W75814  14.684   3.427  13.945
12047W        W75815   5.857  39.886  10.595
12048W        W75816  13.114  21.186   5.151
12049W        W75817  13.715  12.802  11.425
12050W        W75818  12.807  18.665  12.863
12051W        W75819  44.756  44.407  11.448
12052W        W75820  37.841  30.970   2.287
12053W        W75821  20.579  38.059  12.043
12054W        W75822  13.237   3.887   3.795
12055W        W75823   1.337  34.589   2.813
12056W        W75824  20.582  43.002   1.831
12057W        W75825  44.842  36.967  12.976
12058W        W75826  44.297  35.088   4.114
12059W        W75827  16.252   8.889   1.256
12060W        W75828  31.499  34.914   2.348
12061W        W75829   2.905  38.916   5.620
12062W        W75830  31.905  17.156  10.934
12063W        W75831  41.331  40.956  10.896
12064W        W75832  36.867   2.248   1.857
12065W        W75833  33.038  30.642  10.497
12066W        W75834  23.719   4.214   4.151
12067W        W75835  28.458   3.348   1.401
12068W        W75836  31.901  37.066  14.445
12069W        W75837  44.285  16.123  11.464
12070W        W75838   3.910  22.644  11.120
12071W        W75839  13.639  31.641  14.495
12072W        W75840  35.400   0.827  14.291
12073W        W75841   7.715  17.785   2.704
12074W        W75842  16.712  37.836  12.522
12075W        W75843  19.575  41.966   2.359
12076W        W75844  22.094  28.673   2.381
12077W        W75845  31.081  41.947   3.846
12078W        W75846  18.605  22.576   1.402
12079W        W75847  23.610  13.822  14.935
12080W        W75848   3.792  19.735   3.382
12081W        W75849  10.365  11.847  11.129
12082W        W75850  22.197  33.923   3.818
12083W        W75851  14.786   1.272   0.342
12084W        W75852  29.504   5.884  14.826
12085W        W75853  35.044  19.677  12.876
12086W        W75854   6.704  39.510  14.420
12087W        W75855   9.388  35.359   2.388
12088W        W75856  42.438  22.207   2.880
12089W        W75857  24.186  13.284   3.262
12090W        W75858  25.470  36.565  14.852
12091W        W75859  13.342  12.166   3.756
12092W        W75860  26.955  34.959  13.493
12093W        W75861  17.609  33.488  14.955
12094W        W75862  25.638  36.015   5.119
12095W        W75863  28.541  29.069  14.031
12096W        W75864  40.839  14.815  13.485
12097W        W75865  37.528  10.851   4.336
12098W        W75866  23.524  11.329  11.916
12099W        W75867  26.520   0.334   4.302
12100W        W75868  27.482   9.237   0.349
12101W        W75869  36.375  34.547   4.626
12102W        W75870  23.499  35.360   0.371
12103W        W75871  14.337  40.805  14.998
12104W        W75872  43.496  23.706  14.329
12105W        W75873  21.096   9.341   1.235
12106W        W75874  21.610  28.103  14.288
12107W        W75875  32.078  35.381   1.700
12108W        W75876  37.946  16.683   0.853
12109W        W75877  43.958  40.521  14.439
12110W        W75878  38.876  27.654   3.834
12111W        W75879   9.792   8.678   2.736
12112W        W75880  40.464  31.116  14.975
12113W        W75881  36.006   3.293   2.331
12114W        W75882  43.976  18.613   3.149
12115W        W75883  20.756  43.810   2.804
12116W        W75884   6.705   6.279  11.405
12117W        W75885   5.853  42.375   0.320
12118W        W75886  13.808  33.407   0.421
12119W        W75887  36.018  16.111   4.214
12120W        W75888  38.415  21.080  13.949
12121W        W75889  21.263  33.956   1.324
12122W        W75890  11.724   7.703   2.394
12123W        W75891  28.028   1.419   3.212
12124W        W75892  10.741  34.546  14.399
12125W        W75893   8.691   3.742   2.870
12126W        W75894   9.673  43.794  14.507
12127W        W75895  29.502  15.587   1.898
12128W        W75896  13.739  33.485  13.864
12129W        W75897  44.769  10.351  13.863
12130W        W75898   5.849  32.079   2.184
12131W        W75899  33.911  34.513  10.444
12132W        W75900  36.950   2.881  12.071
12133W        W75901  20.549  23.224   1.350
12134W        W75902  20.039  29.113  13.371
12135W        W75903  14.614  13.208   2.194
12136W        W75904  26.054  40.925  13.924
12137W        W75905  31.981  34.442   3.840
12138W        W75906  16.796  19.058   5.306
12139W        W75907  27.511   9.359   4.648
12140W        W75908   9.655  29.991  12.393
12141W        W75909  36.896  29.922  13.963
12142W        W75910  21.551  26.583  11.956
12143W        W75911  26.994  29.498   4.176
12144W        W75912  23.655  25.709  10.930
12145W        W75913   4.761   0.473   4.217
12146W        W75914  29.023  20.085   1.771
12147W        W75915  19.200   5.832   0.804
12148W        W75916  22.639  29.548   2.253
12149W        W75917  32.516   6.365  14.843
12150W        W75918  18.205   7.399   3.168
12151W        W75919  24.500   4.210   2.729
12152W        W75920   1.814  36.456  12.396
12153W        W75921  44.842  19.780  13.979
12154W        W75922  17.101  37.555  10.907
12155W        W75923  19.076  38.959  14.864
12156W        W75924  15.647  14.182  10.947
12157W        W75925  37.930  19.762  13.311
12158W        W75926  34.555   3.402   2.801
12159W        W75927  14.672  23.715  11.887
12160W        W75928  16.732  27.641  12.861
12161W        W75929   5.284  25.085   2.214
12162W        W75930  39.389   9.844   1.394
12163W        W75931  17.234  14.689  10.506
12164W        W75932  40.991  30.440   1.744
12165W        W75933   9.816  31.607   1.352
12166W        W75934  29.614   9.817  13.930
12167W        W75935  14.703   7.836   4.228
12168W        W75936  28.675   0.402   3.262
12169W        W75937  44.365  29.061   1.354
12170W        W75938  30.523  37.073   2.400
12171W        W75939  22.631  42.458  10.992
12172W        W75940  31.000  34.387  12.365
12173W        W75941  40.430   3.228  11.868
12174W        W75942  29.922  16.574   4.233
12175W        W75943  21.529   8.831  13.945
12176W        W75944  23.553  21.680  14.348
12177W        W75945  23.147  38.855  14.365
12178W        W75946   2.889   2.815  13.996
12179W        W75947  12.686  41.498  11.003
12180W        W75948   2.431   7.863  12.894
12181W        W75949  23.579  21.096  11.091
12182W        W75950   5.894  11.211   0.947
12183W        W75951  31.466  23.551  13.543
12184W        W75952  26.074  27.070  12.003
12185W        W75953  42.517  21.576   0.374
12186W        W75954   0.370  32.562  12.050
12187W        W75955  16.290   4.391  12.857
12188W        W75956  22.206   8.843   4.218
12189W        W75957  36.508  14.333   0.959
12190W        W75958  33.598   5.917  14.401
12191W        W75959  34.607  11.680   2.678
12192W        W75960  19.612  35.976   4.811
12193W        W75961  39.445   9.339   0.467
12194W        W75962  33.455  19.766  14.853
12195W        W75963   4.921  15.310   1.338
12196W        W75964  16.175   3.338  14.341
12197W        W75965  43.451  22.599   0.289
12198W        W75966  29.474  40.353  12.378
12199W        W75967  32.055   1.890   3.768
12200W        W75968   4.727  32.488  11.462
12201W        W75969  15.133  26.108   3.816
12202W        W75970  37.401  41.499  11.920
12203W        W75971  44.813   1.767  13.325
12204W        W75972  14.212  11.363   0.371
12205W        W75973  12.237  13.217   9.446
12206W        W75974  29.012  14.141   0.463
12207W        W75975  20.157  22.232   3.747
12208W        W75976  14.182  28.440  11.565
12209W        W75977   9.829  35.585  14.485
12210W        W75978   9.802  40.477   2.729
12211W        W75979  16.729   3.355  10.583
12212W        W75980  34.089  32.962  11.459
12213W        W75981   5.743  21.141   0.279
12214W        W75982  18.081   1.311  12.472
12215W        W75983  26.483  11.225   5.273
12216W        W75984  21.168   3.456   3.753
12217W        W75985  44.402  35.058  12.354
12218W        W75986  36.917   8.356   3.317
12219W        W75987  42.952  21.592  10.917
12220W        W75988  34.890  32.451   1.832
12221W        W75989  33.431  42.910  13.829
12222W        W75990  20.261  35.041  13.401
12223W        W75991  24.538  18.283  14.969
12224W        W75992   3.238  31.090  14.027
12225W        W75993  26.154  39.332   4.118
12226W        W75994  42.449  43.936  13.999
12227W        W75995  44.362  42.975  14.445
12228W        W75996   6.682  41.498  10.474
12229W        W75997  23.176  37.500   1.814
12230W        W75998  16.232   7.190   0.242
12231W        W75999  24.161  38.513  11.386
12232W        W76000   3.233  37.519  13.887
12233W        W76001  37.041  39.848   4.821
12234W        W76002  36.525  27.039   1.759
12235W        W76003   1.873  13.829   3.164
12236W        W76004  23.518   1.789  14.402
12237W        W76005  39.976   5.899   3.191
12238W        W76006   1.778  10.708  13.915
12239W        W76007   6.861  27.998  14.925
12240W        W76008  17.595  34.054  11.459
12241W        W76009  30.117  36.348  10.504
12242W        W76010  12.844  21.570   3.148
12243W        W76011  10.222  22.634  10.479
12244W        W76012  34.445  38.830  13.999
12245W        W76013  15.250  12.148  10.543
12246W        W76014  13.237  26.492  10.415
12247W        W76015  39.880  11.178  14.503
12248W        W76016  22.704  13.805   5.567
12249W        W76017  12.223  17.561  12.835
12250W        W76018  26.969   2.367  12.397
12251W        W76019   7.323  40.806  13.022
12252W        W76020  40.454   8.164  13.051
12253W        W76021  13.172  17.720   3.226
12254W        W76022  17.145  38.869  11.516
12255W        W76023   1.862  40.947  11.929
12256W        W76024  15.584  22.146   0.277
12257W        W76025  43.277  22.747  11.540
12258W        W76026  28.143  38.556  12.846
12259W        W76027  18.650  37.894   2.184
12260W        W76028   2.785  19.729  13.879
12261W        W76029  11.864  37.522  12.405
12262W        W76030  18.587  12.314   2.239
12263W        W76031  15.810  39.334  10.623
12264W        W76032   0.837   5.202  13.839
12265W        W76033   5.313  42.859  12.870
12266W        W76034  11.255  10.144   0.401
12267W        W76035   0.364   1.771  13.417
12268W        W76036  10.143  44.263   4.687
12269W        W76037  18.263   0.989  14.887
12270W        W76038   4.414  31.442   3.694
12271W        W76039   1.740  34.099  13.954
12272W        W76040  20.215  39.410  14.441
12273W        W76041  39.815  28.171   2.253
12274W        W76042   6.753   8.884  11.527
12275W        W76043  12.340   9.176   1.797
12276W        W76044   7.767   7.247   2.668
12277W        W76045  32.066  27.985   3.263
12278W        W76046  39.353   7.405   3.661
12279W        W76047  37.578  20.149   3.861
12280W        W76048  17.556   6.905   2.710
12281W        W76049   2.272   2.878  13.528
12282W        W76050   8.287   7.709  12.394
12283W        W76051  29.019  14.204   4.673
12284W        W76052  40.024  43.355   4.243
12285W        W76053  16.802  39.869   2.209
12286W        W76054   4.721   0.858   1.401
12287W        W76055   9.271  44.500  10.953
12288W        W76056  15.763  11.698   1.291
12289W        W76057  23.641  32.081   0.728
12290W        W76058  38.969  43.306  10.612
12291W        W76059  37.043  35.854  11.511
12292W        W76060  35.097   9.726  14.285
12293W        W76061   2.437  43.293  11.533
12294W        W76062  10.678   3.743   0.928
12295W        W76063  26.681  23.233  13.501
12296W        W76064  22.219   8.389  11.426
12297W        W76065   2.856  34.960  14.759
12298W        W76066  31.919  31.623   0.444
12299W        W76067  14.614  32.978   0.873
12300W        W76068  34.440  43.801  12.044
12301W        W76069   9.151  23.159  13.476
12302W        W76070   4.375  16.680   2.695
12303W        W76071   7.868  15.777   4.308
12304W        W76072  20.089  41.830   4.644
12305W        W76073  41.292   9.853   3.186
12306W        W76074   6.868  26.992  13.371
12307W        W76075  21.165  41.966   0.730
12308W        W76076  10.325  16.128  12.973
12309W        W76077  42.930   8.333  13.317
12310W        W76078  20.600   8.300   0.820
12311W        W76079   4.364  43.430  11.508
12312W        W76080  33.610   5.300  12.068
12313W        W76081  26.032  36.889  13.834
12314W        W76082  35.916  40.859  10.898
12315W        W76083  11.814  21.070   3.650
12316W        W76084  24.110  19.267  14.391
12317W        W76085   7.886   8.293   0.300
12318W        W76086  36.518  32.532   2.893
12319W        W76087   8.875  41.406   4.219
12320W        W76088  18.734  41.432   3.797
12321W        W76089   1.358  22.535  14.944
12322W        W76090  32.550  18.713   4.626
12323W        W76091  26.699  13.233  13.849
12324W        W76092  34.012  10.647   2.313
12325W        W76093  16.151   5.731   1.346
12326W        W76094  44.470  35.016  12.940
12327W        W76095  36.480  41.789   1.323
12328W        W76096   9.705  28.157   1.430
12329W        W76097   8.772  36.060  10.579
12330W        W76098  13.181  30.165  11.540
12331W        W76099  26.590   2.331  11.121
12332W        W76100  21.207   9.763  14.907
12333W        W76101  38.524  39.900  13.933
12334W        W76102  15.281  21.125   1.817
12335W        W76103  33.886  28.008   1.413
12336W        W76104  20.740  38.841  11.078
12337W        W76105  40.801  19.254   3.301
12338W        W76106  12.809  36.574   5.121
12339W        W76107  10.175  26.097   5.201
12340W        W76108  31.979  23.595  10.916
12341W        W76109  18.089   8.275  13.421
12342W        W76110  35.107   5.722   0.379
12343W        W76111  20.077   0.435   1.445
12344W        W76112   5.794  30.472   1.228
12345W        W76113  34.585  22.174   0.292
12346W        W76114  35.901  13.313  11.430
12347W        W76115  30.096  33.085  12.999
12348W        W76116   5.920  23.490  13.511
12349W        W76117  23.056  15.688  14.934
12350W        W76118  37.948  43.022   2.331
12351W        W76119  38.471   3.369   4.816
12352W        W76120   7.302   6.687  10.436
12353W        W76121  33.062  42.912  11.576
12354W        W76122  15.677  24.001   1.305
12355W        W76123   2.862   5.931  11.596
12356W        W76124  27.552  12.832  11.860
12357W        W76125   1.413  24.611   0.296
12358W        W76126   1.922  43.903  11.000
12359W        W76127   4.827   6.864   0.848
12360W        W76128  32.621   2.955   1.280
12361W        W76129   6.777  29.656  13.461
12362W        W76130   6.752  24.552  13.838
12363W        W76131  22.521  38.034   2.187
12364W        W76132  26.179  34.428   2.273
12365W        W76133  15.149  40.421   1.244
12366W        W76134  35.959   7.808   3.306
12367W        W76135   1.349  41.014   4.632
12368W        W76136  19.648  32.038  12.562
12369W        W76137  28.050  33.553  11.013
12370W        W76138   7.405  36.041  14.299
12371W        W76139  30.133  21.133  10.482
12372W        W76140  12.238   8.299   3.650
12373W        W76141   2.314  29.148  13.817
12374W        W76142  19.554  31.896   2.778
12375W        W76143   5.246   5.709   3.748
12376W        W76144  31.126  30.932  10.610
12377W        W76145  29.494  15.595   4.721
12378W        W76146  44.279  11.857  14.028
12379W        W76147  32.939   8.877   1.450
12380W        W76148   6.727  41.390  12.379
12381W        W76149  32.994  15.643   3.178
12382W        W76150   2.747  30.582  12.066
12383W        W76151  28.116  26.028   1.225
12384W        W76152  14.790  30.559  13.953
12385W        W76153  33.462   0.945  14.474
12386W        W76154  17.615  19.675   1.323
12387W        W76155  41.491  42.515  10.978
12388W        W76156  29.483  27.461   1.837
12389W        W76157  26.606  31.432  11.596
12390W        W76158  16.595   5.711  12.558
12391W        W76159   6.731  17.761   3.637
12392W        W76160  37.558  11.813   1.213
12393W        W76161  42.293   8.798   0.477
12394W        W76162   4.932  22.681  10.979
12395W        W76163   5.312  41.038  12.942
12396W        W76164  33.532  44.471  10.993
12397W        W76165  15.610   5.273   1.412
12398W        W76166   6.280  42.448  14.397
12399W        W76167  22.165   6.384   1.766
12400W        W76168  42.334  12.145  11.920
12401W        W76169  36.033  35.088   1.418
12402W        W76170  21.170  10.186  13.541
12403W        W76171  29.497   1.441   0.329
12404W        W76172   4.745  19.109   4.338
12405W        W76173  13.225  10.177   2.216
12406W        W76174  25.061  10.777  13.463
12407W        W76175  21.715  12.760  13.367
12408W        W76176  11.667  36.895  12.360
12409W        W76177  12.673  19.276  12.535
12410W        W76178  38.444  24.198   3.336
12411W        W76179  36.892  11.722   2.330
12412W        W76180  16.687  24.016   2.698
12413W        W76181  36.885  40.038  13.003
12414W        W76182  26.051   9.744   1.817
12415W        W76183  36.490  25.209  13.043
12416W        W76184  10.204  44.314   5.214
12417W        W76185  16.301  38.056  13.847
12418W        W76186  20.610  41.000  12.358
12419W        W76187  17.071  44.473   2.688
12420W        W76188  38.958  16.082   2.287
12421W        W76189   8.683  32.418  11.860
12422W        W76190   9.157  37.360   0.395
12423W        W76191  25.172  41.305  14.889
12424W        W76192  28.620  19.256  11.896
12425W        W76193   7.696   2.406   2.881
12426W        W76194  18.167  33.574   0.448
12427W        W76195  32.557  29.074   3.337
12428W        W76196  28.466  30.016  13.829
12429W        W76197  30.581  14.730  14.430
12430W        W76198  31.646  39.892  12.910
12431W        W76199   5.212   5.342   2.705
12432W        W76200  26.956  15.282  13.043
12433W        W76201  31.997   0.924  12.344
12434W        W76202   5.422   8.170  13.411
12435W        W76203  30.642  26.539  11.946
12436W        W76204  18.237  32.442  12.945
12437W        W76205  26.647  37.368  12.345
12438W        W76206   6.240   4.704  12.914
12439W        W76207   1.745  12.190  11.416
12440W        W76208  44.318  36.356  12.364
12441W        W76209   6.897  29.497   2.219
12442W        W76210  28.574  21.212  12.375
12443W        W76211   0.966  26.474  14.935
12444W        W76212  44.375  29.925   4.210
12445W        W76213  31.511  14.340  11.127
12446W        W76214  26.107  25.175  14.901
12447W        W76215  31.050  23.087  14.464
12448W        W76216  27.128  13.268   2.847
12449W        W76217  28.625   8.657  11.387
12450W        W76218  38.570  14.614   2.689
12451W        W76219  33.588  43.283   3.636
12452W        W76220  31.006  44.355   3.298
12453W        W76221  21.231  31.115   2.294
12454W        W76222  44.441  34.440  11.042
12455W        W76223  26.702  26.615  12.345
12456W        W76224  35.381  39.855  12.512
12457W        W76225   7.417  15.163  12.516
12458W        W76226  24.182  21.598   1.424
12459W        W76227  43.330  40.824  12.482
12460W        W76228  40.900   0.294  13.445
12461W        W76229  38.946  36.386   3.725
12462W        W76230  37.566  11.845  11.075
12463W        W76231  37.389   5.798  14.988
12464W        W76232   3.771   8.324  11.455
12465W        W76233  18.287  11.764   3.645
12466W        W76234  42.861  27.453   4.184
12467W        W76235  30.010   7.732   1.349
12468W        W76236  42.446  25.025   2.704
12469W        W76237   5.923  24.720  13.802
12470W        W76238  22.534  17.596   3.719
12471W        W76239  37.849  40.518   4.157
12472W        W76240  42.805  22.631   3.853
12473W        W76241  28.971  42.854  11.114
12474W        W76242  14.182  20.249   1.373
12475W        W76243  21.089  20.649   1.255
12476W        W76244   9.241  24.609   3.201
12477W        W76245  11.226  44.763  12.947
12478W        W76246  30.994  29.555   3.274
12479W        W76247  21.035   3.231  12.378
12480W        W76248  13.718  35.475   0.894
12481W        W76249  23.500   4.826  10.634
12482W        W76250   8.256  13.840   4.265
12483W        W76251  32.064   6.872   4.828
12484W        W76252  44.316  16.171   1.253
12485W        W76253  20.546  44.901  10.584
12486W        W76254   1.281  22.142   1.374
12487W        W76255  12.212   2.726   2.202
12488W        W76256   6.250  23.514  11.956
12489W        W76257  44.361  13.804  12.954
12490W        W76258  34.532   4.233   3.764
12491W        W76259  15.226   2.747  14.986
12492W        W76260  21.746   8.281   0.879
12493W        W76261   7.285  26.179   4.158
12494W        W76262  19.078  25.685   1.344
12495W        W76263  30.908  18.066  13.411
12496W        W76264  20.599   1.767   0.384
12497W        W76265  37.944  13.690  13.492
12498W        W76266  12.625   3.712  11.075
12499W        W76267  21.549   8.854   4.207
12500W        W76268  44.280  32.458   5.248
12501W        W76269  18.566  21.135   2.337
12502W        W76270   0.856  19.046  10.471
12503W        W76271  20.560  12.726  10.991
12504W        W76272  27.031  11.181   0.834
12505W        W76273  20.552  19.763   5.291
12506W        W76274   7.254  30.472  11.124
12507W        W76275  25.556  31.909   3.857
12508W        W76276  18.690  23.542  12.466
12509W        W76277  32.457  39.320  14.491
12510W        W76278   1.476  37.382   0.473
12511W        W76279  43.960  21.112   9.964
12512W        W76280   7.748   8.169   0.804
12513W        W76281   2.358   8.196  13.948
12514W        W76282   5.214  44.483  14.951
12515W        W76283   5.400  40.924  11.528
12516W        W76284  26.078  38.508   1.301
12517W        W76285  13.720  36.347   2.314
12518W        W76286  15.311  15.774   3.296
12519W        W76287   3.264  13.121   4.298
12520W        W76288  14.110   2.462  14.406
12521W        W76289  32.132  43.282  10.521
12522W        W76290  36.094   0.418  14.780
12523W        W76291   5.339  31.942  14.901
12524W        W76292  43.356  14.207  14.307
12525W        W76293  39.450  21.644  12.077
12526W        W76294   0.966  12.737   2.263
12527W        W76295  15.176  33.891  11.940
12528W        W76296   0.830   6.817  12.468
12529W        W76297  35.069   8.298  12.500
12530W        W76298   7.844  14.617  10.528
12531W        W76299  21.721  23.608   1.916
12532W        W76300  23.653  40.834   0.408
12533W        W76301  18.093  22.682   4.212
12534W        W76302  34.507  35.063   2.282
12535W        W76303   4.732  29.647   2.677
12536W        W76304  44.342  33.535  12.994
12537W        W76305  11.785  27.175  10.410
12538W        W76306  44.911  43.894   2.366
12539W        W76307  37.884  27.138   0.275
12540W        W76308  25.142  42.322  11.512
12541W        W76309  33.933  13.283   0.458
12542W        W76310  23.215  32.013  11.506
12543W        W76311  33.960  41.990   3.772
12544W        W76312  33.953   5.241  13.881
12545W        W76313  19.552  17.180   2.845
12546W        W76314  40.406  23.057   4.627
12547W        W76315  28.106  34.597  10.970
12548W        W76316   8.691   5.749   4.224
12549W        W76317  38.972  26.102  12.362
12550W        W76318  29.663  20.125  10.924
12551W        W76319  13.290  12.709  13.363
12552W        W76320   9.760   7.724  14.004
12553W        W76321  34.075  16.136   4.680
12554W        W76322  35.571  16.143  11.466
12555W        W76323  14.300  23.172   4.779
12556W        W76324  16.575   8.257   0.378
12557W        W76325  38.539  15.782   1.289
12558W        W76326  20.181  18.686   4.350
12559W        W76327  30.564  24.542  12.940
12560W        W76328   7.815  19.075  11.939
12561W        W76329  13.629   1.791   1.297
12562W        W76330   1.746   7.888   4.611
12563W        W76331  40.335  35.514   1.701
12564W        W76332  34.440  13.701   0.353
12565W        W76333  12.783   3.326  11.098
12566W        W76334   6.912  20.242   3.185
12567W        W76335  25.626  31.515   1.291
12568W        W76336  44.909  36.918  14.510
12569W        W76337  33.589  34.090   3.232
12570W        W76338  32.465   7.687   1.404
12571W        W76339  26.127  16.249  14.342
12572W        W76340  16.311  14.649  13.344
12573W        W76341  27.686   0.751  11.591
12574W        W76342  30.018  32.120  13.412
12575W        W76343   3.443  15.781   0.325
12576W        W76344  41.411  39.885   0.891
12577W        W76345  24.981  38.007  10.120
12578W        W76346  37.372   1.332   1.736
12579W        W76347  10.873   4.737   3.161
12580W        W76348   7.340  12.131  13.057
12581W        W76349  30.931  44.416  10.109
12582W        W76350  27.652  33.054   1.731
12583W        W76351   0.444   9.837   3.848
12584W        W76352  28.617  41.455  13.028
12585W        W76353  43.435  10.365  13.521
12586W        W76354  17.299  11.371   3.648
12587W        W76355  25.965   0.902   0.327
12588W        W76356  44.259  40.304  11.590
12589W        W76357  23.496  27.037  14.285
12590W        W76358  33.559   3.374   1.374
12591W        W76359  43.291  31.148  11.371
12592W        W76360  17.687   0.969   0.937
12593W        W76361   3.908  42.982   1.733
12594W        W76362  35.526  32.446   0.816
12595W        W76363  40.008  41.908  14.372
12596W        W76364   9.836  12.686  11.412
12597W        W76365  31.495  35.050  10.538
12598W        W76366  15.659  28.094   4.341
12599W        W76367  44.371  15.302   5.137
12600W        W76368  18.284  40.431   2.301
12601W        W76369  41.887  13.150  12.826
12602W        W76370  43.764  41.519  13.445
12603W        W76371  13.257  18.684   2.702
12604W        W76372  38.409  35.073  13.427
12605W        W76373   2.321  11.359  10.642
12606W        W76374  12.812  44.773  11.016
12607W        W76375  23.726  34.966  13.542
12608W        W76376   3.430  24.028   4.780
12609W        W76377   1.264   1.252   4.232
12610W        W76378   3.437  18.063   1.779
12611W        W76379  30.495  12.743  12.403
12612W        W76380  30.566  37.551  13.821
12613W        W76381  15.182   0.858   3.237
12614W        W76382  42.480   1.780   4.257
12615W        W76383   0.889  41.360  11.026
12616W        W76384   3.265   4.700  12.007
12617W        W76385  41.422  35.475  11.411
12618W        W76386  23.529  27.568   0.814
12619W        W76387  11.319  44.465  13.825
12620W        W76388  36.520  41.498  14.953
12621W        W76389   5.855   4.789  11.414
12622W        W76390  30.007  42.890  12.575
12623W        W76391  26.489   5.367  11.522
12624W        W76392  11.315   8.333  11.896
12625W        W76393  28.656  19.258  10.511
12626W        W76394   6.231  39.438   1.697
12627W        W76395  16.586  22.573  12.085
12628W        W76396  18.222  14.118  12.360
12629W        W76397  11.137  43.508  12.458
12630W        W76398  22.239  11.627   2.241
12631W        W76399  43.987  27.980   2.244
12632W        W76400  34.895   0.278  14.793
12633W        W76401   1.840  11.757   4.170
12634W        W76402  19.225  38.485   4.742
12635W        W76403  33.456  12.307  10.411
12636W        W76404  33.456  30.967  14.882
12637W        W76405  11.695   9.704  12.503
12638W        W76406  12.277  41.822   0.794
12639W        W76407  10.774  31.027   1.325
12640W        W76408  33.965  33.492  13.005
12641W        W76409  15.156  11.270  14.471
12642W        W76410  13.686  41.472   0.880
12643W        W76411   8.683  28.631  10.991
12644W        W76412  39.552  22.088   1.321
12645W        W76413  25.611   2.258   4.642
12646W        W76414  29.594  35.418   1.930
12647W        W76415  25.963  13.619   2.262
12648W        W76416  10.691  41.021   1.744
12649W        W76417  19.687  21.235   4.676
12650W        W76418  23.698  14.780   9.626
12651W        W76419   5.342  21.019  11.977
12652W        W76420   1.476  17.117   4.693
12653W        W76421   2.269   5.236   4.760
12654W        W76422   2.921  13.716   3.310
12655W        W76423  28.943  23.097  14.807
12656W        W76424  10.245  24.164   4.727
12657W        W76425  22.171  37.843  14.376
12658W        W76426   1.813  27.488   3.783
12659W        W76427  18.118  30.014  14.417
12660W        W76428  23.509  31.497  11.030
12661W        W76429  15.268  20.531  13.324
12662W        W76430  27.113  10.265  11.039
12663W        W76431  22.689  39.324   4.325
12664W        W76432   9.776  44.486   1.900
12665W        W76433  27.536  41.463  12.369
12666W        W76434  13.686  39.035   1.862
12667W        W76435   0.373   9.814   1.257
12668W        W76436  19.248   3.738   2.736
12669W        W76437  32.052  31.901   4.729
12670W        W76438  36.464  24.131   1.394
12671W        W76439  25.665   5.796  13.920
12672W        W76440  15.322  44.907  11.941
12673W        W76441  43.513  19.572   1.401
12674W        W76442  31.471   7.711   4.292
12675W        W76443  38.571  12.646   2.858
12676W        W76444  19.693   2.750  11.493
12677W        W76445  43.987  43.882  12.488
12678W        W76446  26.036  30.418  14.821
12679W        W76447  14.275  41.042   1.420
12680W        W76448  13.795  14.292  12.366
12681W        W76449  37.541  41.379   1.848
12682W        W76450  44.956  39.409  10.617
12683W        W76451  42.796  29.585  11.899
12684W        W76452  10.795  11.645  14.800
12685W        W76453   7.849  35.977   3.162
12686W        W76454  30.585  21.259  14.925
12687W        W76455  10.374  15.722  14.862
12688W        W76456  26.584   8.268  13.048
12689W        W76457  39.333  10.823   2.355
12690W        W76458   8.677  21.110  12.068
12691W        W76459  18.642  21.599   2.840
12692W        W76460  13.211   7.201   0.481
12693W        W76461   1.828  22.500   3.255
12694W        W76462  12.705   5.859   0.307
12695W        W76463  41.393  40.483  10.999
12696W        W76464  33.596  27.564   2.843
12697W        W76465  39.510  16.800   4.198
12698W        W76466   5.783  43.796   0.813
12699W        W76467  16.202  24.161   4.237
12700W        W76468   4.445  28.624  11.013
12701W        W76469   5.895   4.436  13.790
12702W        W76470   6.203  33.499  14.480
12703W        W76471  17.195  37.976  10.997
12704W        W76472  35.976  43.415   3.655
12705W        W76473  37.467   9.284  12.561
12706W        W76474   4.411  36.906  11.407
12707W        W76475  36.353  12.801  13.965
12708W        W76476  20.129   6.819  13.795
12709W        W76477   1.942  42.451   4.650
12710W        W76478   5.267   3.796  11.444
12711W        W76479  32.624  35.962  12.493
12712W        W76480  42.436  38.377  11.950
12713W        W76481  22.050  25.580   0.776
12714W        W76482  27.678   3.762  13.935
12715W        W76483   5.901  28.641  14.318
12716W        W76484  28.007  18.787   3.242
12717W        W76485  32.019  25.487  12.491
12718W        W76486  10.836  43.467   4.218
12719W        W76487  11.289  28.130   1.696
12720W        W76488  26.524  19.695  12.897
12721W        W76489  39.460  37.844  14.794
12722W        W76490   1.262   6.841  13.492
12723W        W76491   4.310  25.512   1.764
12724W        W76492   9.827   7.309   4.684
12725W        W76493  17.690  39.405   1.255
12726W        W76494  44.363  22.194   2.880
12727W        W76495   8.330  40.970   4.725
12728W        W76496  12.633  12.634   0.749
12729W        W76497  18.279   1.442   0.953
12730W        W76498  21.704  20.099  12.420
12731W        W76499  37.581   7.809  11.465
12732W        W76500   2.333  25.531  11.874
12733W        W76501  37.945  26.027  12.472
12734W        W76502  43.420  36.975   0.386
12735W        W76503  27.183  29.503  13.524
12736W        W76504  18.740  29.935   4.806
12737W        W76505  14.649  30.428  13.413
12738W        W76506   3.403   2.842  14.806
12739W        W76507  31.480   4.273   3.807
12740W        W76508  17.657   0.407   1.815
12741W        W76509   1.283  21.728  10.997
12742W        W76510  21.074   6.291   3.243
12743W        W76511  38.071  24.521   2.861
12744W        W76512  15.763  42.479   2.257
12745W        W76513  24.174   1.327   1.363
12746W        W76514  24.219  35.396  11.599
12747W        W76515  36.387  40.895  14.938
12748W        W76516  27.600  15.648  10.566
12749W        W76517   5.313  42.486   3.325
12750W        W76518  35.494  15.197  12.538
12751W        W76519  39.558  13.780  11.916
12752W        W76520  39.324  42.013  12.513
12753W        W76521  36.856  14.615  13.481
12754W        W76522   6.360  33.514  12.858
12755W        W76523  36.931  44.381  11.005
12756W        W76524  17.193  35.985   2.307
12757W        W76525  38.566  30.074  11.551
12758W        W76526   0.982  29.652   3.212
12759W        W76527   0.302   6.736   0.892
12760W        W76528  39.842  27.052  12.353
12761W        W76529  12.162   1.268  11.889
12762W        W76530   0.386   2.467  14.939
12763W        W76531  12.847  13.703   1.323
12764W        W76532  22.621  32.045  12.917
12765W        W76533  22.146  32.110  12.476
12766W        W76534  35.896  23.605   4.223
12767W        W76535  44.459  43.886  12.387
12768W        W76536  15.222  29.467   1.813
12769W        W76537  34.446  28.679  14.277
12770W        W76538   5.786  32.899  11.374
12771W        W76539  41.018   7.842   1.424
12772W        W76540  40.806   2.774   2.829
12773W        W76541  17.182  30.617   3.263
12774W        W76542   3.895  16.147  11.449
12775W        W76543  30.568  29.064   3.659
12776W        W76544  16.717  27.477  12.342
12777W        W76545  24.589   5.205   4.199
12778W        W76546   1.418  34.474  14.338
12779W        W76547  18.672  35.438   3.680
12780W        W76548   5.362  27.591  11.587
12781W        W76549   5.309  14.636  12.416
12782W        W76550  12.723  25.646  11.452
12783W        W76551  35.369  21.109   0.377
12784W        W76552  38.828  25.964  11.054
12785W        W76553  12.211  12.279  10.533
12786W        W76554   0.481  34.075  14.470
12787W        W76555   2.304   7.237   3.209
12788W        W76556  17.293  42.426  12.392
12789W        W76557  22.663  37.997   3.711
12790W        W76558  27.586  12.663   0.254
12791W        W76559  20.035  37.436  13.437
12792W        W76560   5.883  29.465   0.442
12793W        W76561  32.018  30.031   2.256
12794W        W76562  35.491   6.207  13.880
12795W        W76563  19.132  36.491  13.831
12796W        W76564   8.341   1.367  12.971
12797W        W76565   6.713  37.365  11.045
12798W        W76566  33.528  21.646  10.404
12799W        W76567  22.648  21.124   2.194
12800W        W76568  15.137  23.054   1.283
12801W        W76569  12.633  34.999   0.282
12802W        W76570   9.224   3.310  12.459
12803W        W76571  15.623   4.244  11.015
12804W        W76572  33.479   8.823  11.912
12805W        W76573  42.513  28.487  12.838
12806W        W76574   7.224  29.134   1.356
12807W        W76575  37.923  31.993  13.912
12808W        W76576  27.465  33.918  11.067
12809W        W76577  27.068  23.153   2.874
12810W        W76578  32.606  38.949  12.385
12811W        W76579  41.373  36.848  12.545
12812W        W76580  28.466  33.065  11.371
12813W        W76581  43.935  33.428   1.842
12814W        W76582  20.726  43.987  12.871
12815W        W76583  42.399  31.546   1.760
12816W        W76584  40.054   2.938  13.395
12817W        W76585  38.918  30.976   3.172
12818W        W76586  40.980  40.422  12.363
12819W        W76587  20.526  12.764   1.727
12820W        W76588  12.254  28.438   4.166
12821W        W76589  13.180   7.288   0.873
12822W        W76590  44.863  21.076   9.989
12823W        W76591  38.839  37.050  10.892
12824W        W76592  16.743  22.721   1.413
12825W        W76593  35.498  18.052  11.868
12826W        W76594   6.844  18.208   2.187
12827W        W76595   9.775  37.486  12.388
12828W        W76596  10.138   9.852   3.692
12829W        W76597  18.598  22.515  14.435
12830W        W76598   7.372  27.500  10.524
12831W        W76599   1.469  44.990  12.828
12832W        W76600  13.220   1.894   4.312
12833W        W76601   5.345  23.180  11.423
12834W        W76602  16.804   9.845  14.020
12835W        W76603  42.398  44.329   3.713
12836W        W76604   9.367   0.966  13.435
12837W        W76605  31.025  23.731   0.437
12838W        W76606  41.849  10.807   1.304
12839W        W76607  26.083  25.486  13.892
12840W        W76608   1.408  30.036   2.212
12841W        W76609  14.670  36.026   4.134
12842W        W76610  39.045   6.395   2.364
12843W        W76611  19.564   3.365   2.885
12844W        W76612   7.351  35.493  12.427
12845W        W76613   1.321   9.810  14.415
12846W        W76614  10.641  37.338  12.841
12847W        W76615  35.459  43.951  12.888
12848W        W76616  11.706  16.165   3.776
12849W        W76617  16.108  36.991  11.040
12850W        W76618  35.970  33.418  10.422
12851W        W76619  33.098  35.539   4.150
12852W        W76620  13.318  13.294   1.920
12853W        W76621  10.314  18.730   0.766
12854W        W76622   6.696  33.560  14.406
12855W        W76623  44.882  25.197  11.390
12856W        W76624  30.983   8.307  10.480
12857W        W76625  21.704  21.123   1.772
12858W        W76626  43.445   7.739  10.492
12859W        W76627  10.686   3.855   1.718
12860W        W76628  16.683  38.009   3.686
12861W        W76629  32.070  14.721  14.774
12862W        W76630  26.687  11.213  13.960
12863W        W76631   5.859  35.461  13.915
12864W        W76632  20.763  13.254  13.032
12865W        W76633  17.093  34.541  12.855
12866W        W76634  39.948  11.218   4.160
12867W        W76635  38.030  12.617   4.675
12868W        W76636  28.998   4.873  12.028
12869W        W76637  44.422  18.222   2.663
12870W        W76638  35.069  35.909  10.064
12871W        W76639  10.842  16.670  14.814
12872W        W76640  24.541  39.828   4.754
12873W        W76641  12.131  26.026  11.501
12874W        W76642  39.984  30.656  12.509
12875W        W76643  33.008  11.700   0.246
12876W        W76644   6.250   8.166   4.684
12877W        W76645  28.654   6.718   3.298
12878W        W76646   4.205   9.246  11.864
12879W        W76647   7.795  28.129  11.513
12880W        W76648  42.844  32.558   4.662
12881W        W76649   9.227  38.552  12.397
12882W        W76650  24.222  22.205   1.699
12883W        W76651  25.710  29.612   2.683
12884W        W76652  12.319   3.222   5.243
12885W        W76653   1.402  13.733  14.428
12886W        W76654  29.940   3.356  11.478
12887W        W76655  32.109  30.596  14.386
12888W        W76656  40.501  27.088   1.354
12889W        W76657   5.854  12.149   2.224
12890W        W76658  18.695  39.972   1.852
12891W        W76659  27.963  29.004   4.747
12892W        W76660   0.257  32.499   3.344
12893W        W76661  14.724  39.920  10.944
12894W        W76662  19.709  23.215   3.656
12895W        W76663  40.447  20.559   0.898
12896W        W76664  43.941   0.432   0.245
12897W        W76665  17.253  17.093  13.866
12898W        W76666  17.692  20.083  11.443
12899W        W76667  40.985  14.695  12.863
12900W        W76668  23.606  43.945  13.959
12901W        W76669   4.318   5.284  13.794
12902W        W76670   0.792  21.734   0.739
12903W        W76671  11.788   6.769  14.919
12904W        W76672  41.340  27.073   4.708
12905W        W76673  20.098  23.131   1.249
12906W        W76674  11.738  26.109  12.902
12907W        W76675  21.103  11.697   3.232
12908W        W76676  30.990  34.917   3.247
12909W        W76677  31.619  28.071  14.006
12910W        W76678   5.919   2.239  13.953
12911W        W76679  41.366  24.607  11.522
12912W        W76680  41.955   2.381   0.780
12913W        W76681  35.901  36.472   4.725
12914W        W76682  26.115  31.514  11.909
12915W        W76683  11.667  11.253   1.383
12916W        W76684  20.124   0.250   9.938
12917W        W76685  14.148  39.901  10.421
12918W        W76686  12.787   5.263  11.942
12919W        W76687  31.942   7.391  14.912
12920W        W76688  28.670  21.584  13.993
12921W        W76689  27.686  32.003  11.029
12922W        W76690  30.975  36.909  13.371
12923W        W76691  20.109  43.985  12.061
12924W        W76692   7.830   4.734  12.466
12925W        W76693  23.213  36.455   2.297
12926W        W76694   5.701  28.460   0.953
12927W        W76695  41.996  31.970   0.941
12928W        W76696   0.412  12.198  11.431
12929W        W76697  30.976   9.735  13.435
12930W        W76698  20.703  24.036  12.046
12931W        W76699  15.085  27.101   5.657
12932W        W76700  38.918   7.738  13.885
12933W        W76701  25.008  38.546  12.527
12934W        W76702  41.989   0.825   3.272
12935W        W76703  35.028  30.517   1.893
12936W        W76704  38.473  27.554   5.154
12937W        W76705  39.382  17.691  11.488
12938W        W76706  31.551   1.346   2.349
12939W        W76707  13.651   2.261   2.356
12940W        W76708  41.309  10.833   4.214
12941W        W76709  19.049  16.636  12.032
12942W        W76710  27.188  43.011  10.567
12943W        W76711  36.395   4.242  13.028
12944W        W76712  40.427   2.328   1.720
12945W        W76713  16.743  35.965  11.870
12946W        W76714  29.575  18.103  14.995
12947W        W76715  17.560  29.556   4.138
12948W        W76716  35.940  36.468   2.873
12949W        W76717  30.102   4.736  11.934
12950W        W76718  40.026  27.636  13.010
12951W        W76719   0.759  35.017   0.314
12952W        W76720  12.255   8.822  11.399
12953W        W76721  11.819   9.342   0.785
12954W        W76722  22.119  36.588  13.887
12955W        W76723  43.333  22.562  14.447
12956W        W76724  32.477  17.623  14.992
12957W        W76725  28.560  44.866   2.727
12958W        W76726  25.026   1.747  10.105
12959W        W76727   4.780   3.409  14.781
12960W        W76728   7.712   1.292   4.343
12961W        W76729   0.843  10.319  11.386
12962W        W76730  33.087  36.899  11.066
12963W        W76731  29.562  26.108  10.946
12964W        W76732  32.398  21.648  13.994
12965W        W76733  22.712  31.018   0.406
12966W        W76734  21.660   7.253   4.614
12967W        W76735   4.418  20.716  13.327
12968W        W76736  27.471  33.932  11.607
12969W        W76737   8.785  40.308   3.309
12970W        W76738  24.598  23.518   0.466
12971W        W76739   1.395  30.457  11.539
12972W        W76740  32.475  26.470   2.323
12973W        W76741   0.413  39.470   4.158
12974W        W76742  24.119  38.444  14.317
12975W        W76743  22.579  38.915  10.433
12976W        W76744  16.665  21.232  13.386
12977W        W76745  29.455  31.524  11.508
12978W        W76746  27.067  27.471  14.815
12979W        W76747  19.570   6.884  11.376
12980W        W76748  25.639  16.189   2.833
12981W        W76749  40.380  38.455  13.017
12982W        W76750  18.052   3.267   2.274
12983W        W76751  42.925   4.708   2.791
12984W        W76752   1.275  14.328   1.922
12985W        W76753  18.778  24.994  13.846
12986W        W76754   9.304  14.793   0.407
12987W        W76755  17.181   2.342   3.653
12988W        W76756  21.604  40.503  11.391
12989W        W76757  29.159  26.632   3.791
12990W        W76758   8.687  29.956   0.855
12991W        W76759  26.626  23.231  11.396
12992W        W76760   4.757  35.384  11.576
12993W        W76761   6.184  43.846   4.222
12994W        W76762   1.892   5.751   4.303
12995W        W76763  14.821  17.572   3.235
12996W        W76764  43.856  32.086   4.149
12997W        W76765  43.474  16.277  13.032
12998W        W76766   3.759  29.031   3.731
12999W        W76767  20.070  43.925  14.998
13000W        W76768  11.705  40.890   1.433
13001W        W76769  43.359  21.648  13.884
13002W        W76770  19.218  44.314   4.650
13003W        W76771  26.545   6.890   1.426
13004W        W76772  41.791   1.420  11.979
13005W        W76773   1.856   8.807   3.162
13006W        W76774   4.400  44.344   1.888
13007W        W76775  28.546  21.113   2.862
13008W        W76776   0.488   0.441   1.872
13009W        W76777   0.254  19.765   2.262
13010W        W76778  25.070   4.333   1.445
13011W        W76779  10.226  15.175  13.007
13012W        W76780  11.220  37.952   2.819
13013W        W76781  19.272  28.563  12.393
13014W        W76782  28.084  15.789  14.380
13015W        W76783  36.476   0.838   5.242
13016W        W76784   0.392  44.003   1.313
13017W        W76785  40.964   2.290  12.444
13018W        W76786   1.813  29.009  13.039
13019W        W76787   3.772  26.531  12.342
13020W        W76788  43.896  39.405  12.876
13021W        W76789  23.716   9.743  11.542
13022W        W76790   0.804  13.649   4.155
13023W        W76791  14.725  22.046  11.524
13024W        W76792  41.975  25.166  13.823
13025W        W76793  13.200  44.821  12.451
13026W        W76794  33.448  12.199   0.411
13027W        W76795  25.662  33.592   3.288
13028W        W76796  12.320  40.996   0.299
13029W        W76797  23.521  28.493  12.848
13030W        W76798   8.242  36.980  14.309
13031W        W76799   7.772  35.543  11.578
13032W        W76800  10.700  17.630  14.815
13033W        W76801  11.174  13.135   3.695
13034W        W76802  44.864  40.429   1.326
13035W        W76803  29.495   9.755  10.994
13036W        W76804   9.669   3.330  14.952
13037W        W76805  35.525  27.008  11.029
13038W        W76806  37.480  37.340   0.422
13039W        W76807  14.767  38.476   3.345
13040W        W76808   4.738  24.071   3.634
13041W        W76809  34.090  35.922  14.420
13042W        W76810   3.253  43.346  13.881
13043W        W76811  28.540  35.360  14.874
13044W        W76812   0.951   0.275   9.936
13045W        W76813  24.196  43.367  11.576
13046W        W76814  32.936  39.040  14.922
13047W        W76815  10.382   5.373   2.268
13048W        W76816   3.303  14.246   3.367
13049W        W76817  12.267  32.616  11.937
13050W        W76818  13.230  13.815  13.934
13051W        W76819  25.153   4.941  11.504
13052W        W76820  41.343  40.018   3.163
13053W        W76821  21.665   1.276  11.462
13054W        W76822  38.399  25.024  13.374
13055W        W76823  23.663   3.349  14.512
13056W        W76824   3.947  39.025   2.831
13057W        W76825  34.393   0.250   3.714
13058W        W76826  20.140  21.679   1.282
13059W        W76827  17.200  31.906   1.751
13060W        W76828  14.241  14.675   1.323
13061W        W76829  37.341  30.138   0.292
13062W        W76830  10.693  34.508  12.554
13063W        W76831  37.900  35.490   2.184
13064W        W76832  35.422  42.417   1.410
13065W        W76833  37.508  29.533   5.188
13066W        W76834  19.130   9.831   1.298
13067W        W76835   1.344  27.671   1.318
13068W        W76836  19.059  13.632   2.779
13069W        W76837  14.655  42.979   2.364
13070W        W76838  16.185   2.865   1.379
13071W        W76839  16.629   3.765  12.002
13072W        W76840  10.167  44.925  13.308
13073W        W76841  39.812  15.663   3.699
13074W        W76842  37.004   2.730   0.439
13075W        W76843   7.373  32.131   2.215
13076W        W76844  19.071  41.525   4.200
13077W        W76845  10.824  32.505   3.251
13078W        W76846  20.590   4.296   3.175
13079W        W76847   4.789   7.751   3.823
13080W        W76848  15.117  32.558   4.703
13081W        W76849   2.840  34.964  11.575
13082W        W76850  15.238  37.544  11.001
13083W        W76851  42.794  23.709  14.794
13084W        W76852  15.091  17.274   2.747
13085W        W76853  43.298  24.509  11.583
13086W        W76854   7.769  30.498   9.957
13087W        W76855  29.423   8.855  12.478
13088W        W76856  18.608  10.247  14.392
13089W        W76857  35.087  14.758   2.278
13090W        W76858  42.419  25.213  12.400
13091W        W76859  32.069   0.420  13.797
13092W        W76860  24.207  42.910   5.262
13093W        W76861  34.972  20.067  14.366
13094W        W76862  33.058   3.755  12.850
13095W        W76863  28.444  26.160  13.419
13096W        W76864   8.339  28.131   0.760
13097W        W76865  42.933   3.737   4.597
13098W        W76866  36.060  11.359  14.297
13099W        W76867  13.221  33.582  14.470
13100W        W76868  26.625   6.387   3.759
13101W        W76869  22.607   1.824   3.214
13102W        W76870  32.464  28.672   2.235
13103W        W76871  25.482  40.916   2.267
13104W        W76872  40.473  19.182  13.406
13105W        W76873  38.341  35.534  14.789
13106W        W76874  24.976  30.417  13.442
13107W        W76875  17.682   7.848  14.883
13108W        W76876  32.499  10.875  10.448
13109W        W76877  11.818  43.310   0.383
13110W        W76878  25.710   1.891   1.216
13111W        W76879  15.693  37.434  12.960
13112W        W76880   3.294   5.746   1.388
13113W        W76881  44.861  38.925  11.445
13114W        W76882  25.069  30.636   3.249
13115W        W76883  37.966   5.766  14.353
13116W        W76884  26.193  31.487  14.982
13117W        W76885  34.456  42.814  13.976
13118W        W76886  35.463  43.456   3.753
13119W        W76887   1.300  18.103  14.394
13120W        W76888   5.781   1.404   1.293
13121W        W76889  10.731  21.031  12.942
13122W        W76890  18.679  39.057   0.749
13123W        W76891  39.918   0.421  10.521
13124W        W76892   1.295  30.939  13.347
13125W        W76893  26.507  22.129   0.396
13126W        W76894  44.276  20.535   1.299
13127W        W76895  13.317  22.212  12.998
13128W        W76896  44.352   8.667   9.967
13129W        W76897   0.873  23.663   2.385
13130W        W76898   6.209  29.931  10.911
13131W        W76899  21.146  35.577   3.765
13132W        W76900   3.292  44.902   2.182
13133W        W76901  30.078  43.303   3.782
13134W        W76902  40.436  28.609  10.422
13135W        W76903   0.468  13.649  14.364
13136W        W76904  31.908  11.358   4.807
13137W        W76905  20.268  28.662   1.357
13138W        W76906  18.785   0.471   4.139
13139W        W76907  41.475   2.420  11.394
13140W        W76908  22.740  10.370  13.991
13141W        W76909  15.268   5.274   2.310
13142W        W76910   4.923  20.684   4.623
13143W        W76911  38.511  41.476   2.902
13144W        W76912  39.832  30.916  11.905
13145W        W76913  31.006  10.727   4.834
13146W        W76914  14.257   7.805   0.327
13147W        W76915  18.121  41.883  11.411
13148W        W76916   2.888   6.707  14.800
13149W        W76917  33.432  40.343   2.276
13150W        W76918  18.733  36.406  12.917
13151W        W76919  17.067  14.677   0.860
13152W        W76920  25.007  17.575  11.571
13153W        W76921   2.792  32.095  14.979
13154W        W76922  36.056  40.038  11.903
13155W        W76923  34.609  33.544   2.672
13156W        W76924  42.825   3.883  11.568
13157W        W76925  37.569  32.959  13.420
13158W        W76926  37.352  34.382   2.205
13159W        W76927  30.555  26.477   1.843
13160W        W76928  12.274  25.006   4.697
13161W        W76929   4.889  12.210  11.079
13162W        W76930  30.972  39.363   4.744
13163W        W76931  14.194  44.398  10.592
13164W        W76932  10.340  11.214  11.483
13165W        W76933  22.671  18.667  14.304
13166W        W76934  18.209   0.423   2.748
13167W        W76935  40.450  19.194  14.333
13168W        W76936   8.656  38.986  10.543
13169W        W76937  25.117  19.551  11.016
13170W        W76938  20.567  37.349  13.037
13171W        W76939  17.088  11.745   2.800
13172W        W76940  20.160  27.021   2.705
13173W        W76941  14.184   5.260   4.659
13174W        W76942   8.280   1.479   0.391
13175W        W76943  36.062  36.577   2.237
13176W        W76944  13.205   6.360  11.464
13177W        W76945  27.170   5.813  11.049
13178W        W76946  36.982   9.691   2.832
13179W        W76947  21.158  27.640   1.791
13180W        W76948   7.264  20.230   2.344
13181W        W76949  42.468  41.986  14.388
13182W        W76950   3.234  35.906  11.113
13183W        W76951  43.440   6.870  11.568
13184W        W76952   5.911  27.974   4.217
13185W        W76953  23.511  32.576   3.722
13186W        W76954  21.739  22.686   4.173
13187W        W76955   9.267  16.742   0.250
13188W        W76956  26.686  21.180  11.982
13189W        W76957   9.213   4.442   4.303
13190W        W76958   0.420  16.671   0.295
13191W        W76959  44.862  42.827  14.477
13192W        W76960  35.960   4.386  12.394
13193W        W76961  18.644  40.050  14.397
13194W        W76962  31.073  21.536  14.941
13195W        W76963  35.913  15.129  10.594
13196W        W76964   5.437  32.947  13.870
13197W        W76965   7.170  13.642  13.412
13198W        W76966  34.560   5.727   3.806
13199W        W76967  11.264  23.667   4.633
13200W        W76968  44.345  38.021  14.816
13201W        W76969  28.569  35.375  11.480
13202W        W76970  33.971   7.382   2.858
13203W        W76971  34.032   0.430   3.305
13204W        W76972  40.344   0.986  14.981
13205W        W76973  11.826  42.826  14.969
13206W        W76974  35.932  40.472   5.233
13207W        W76975  44.845  30.444   0.277
13208W        W76976  19.645   3.866   0.736
13209W        W76977  41.426  11.842  14.383
13210W        W76978  30.545  44.907  14.350
13211W        W76979   5.274   6.214   0.846
13212W        W76980   3.795  27.059  11.022
13213W        W76981  37.522  33.555   3.309
13214W        W76982  23.110  22.199  12.562
13215W        W76983   4.402  22.659   1.843
13216W        W76984  30.539  42.429  10.573
13217W        W76985  26.617  35.376  11.423
13218W        W76986  25.056  42.859  12.480
13219W        W76987  28.963  21.054  13.877
13220W        W76988  29.571   4.366  14.896
13221W        W76989  43.797   8.343  11.380
13222W        W76990  14.608   0.917   3.761
13223W        W76991   9.766   4.305  10.529
13224W        W76992   4.280  20.166   4.277
13225W        W76993  14.322  39.020   1.705
13226W        W76994  13.216  10.835   1.349
13227W        W76995  37.960  18.122  11.065
13228W        W76996  44.308   1.760  13.011
13229W        W76997  33.487  18.247   3.804
13230W        W76998  32.400  37.522   0.967
13231W        W76999  27.969   8.312   4.833
13232W        W77000  44.462  43.351   4.274
13233W        W77001  41.490  30.504  12.843
13234W        W77002  12.673  44.896  13.379
13235W        W77003  22.676   7.906  10.494
13236W        W77004  12.796  16.281  13.040
13237W        W77005  20.523   6.318   0.441
13238W        W77006  28.962  10.746  12.527
13239W        W77007  41.023  11.772   4.333
13240W        W77008   0.881   3.892  13.833
13241W        W77009  23.130  21.175   1.286
13242W        W77010  36.003  41.431  13.533
13243W        W77011  39.017  17.602   0.760
13244W        W77012  31.617  20.107   0.302
13245W        W77013   8.871  12.281  13.049
13246W        W77014   8.692  25.579  14.401
13247W        W77015   8.688  11.262   9.988
13248W        W77016   3.226   0.360  14.979
13249W        W77017  12.764   8.848   3.766
13250W        W77018   8.228   8.830   4.601
13251W        W77019  33.443   0.276   3.709
13252W        W77020   5.382  41.415   2.834
13253W        W77021   7.215  44.443   0.367
13254W        W77022  34.971  25.480  14.759
13255W        W77023  13.758  20.732  14.925
13256W        W77024   4.934  37.374  14.940
13257W        W77025  31.095   3.951  13.464
13258W        W77026  37.055   2.869  13.331
13259W        W77027  37.964   8.863  13.988
13260W        W77028  18.270  10.313   1.757
13261W        W77029   5.360  43.842  12.971
13262W        W77030  14.795  15.205   3.360
13263W        W77031  14.321  34.053   1.392
13264W        W77032  23.093  41.833   3.174
13265W        W77033  41.368  42.395   3.787
13266W        W77034  17.774  19.743   3.348
13267W        W77035  25.652  15.265  14.914
13268W        W77036   4.433   7.288   1.895
13269W        W77037  16.788  16.654   3.270
13270W        W77038  20.037   1.880   3.193
13271W        W77039  34.064   9.391  10.538
13272W        W77040   9.685  34.458   1.873
13273W        W77041   0.747  38.007  13.862
13274W        W77042  20.204  42.355  14.472
13275W        W77043  38.364   4.941   0.799
13276W        W77044  34.511  31.505   2.413
13277W        W77045  35.491   8.389  11.613
13278W        W77046  38.409  32.992  11.124
13279W        W77047  29.077  28.035  14.396
13280W        W77048  20.700  42.473   0.758
13281W        W77049  31.469  15.779  11.881
13282W        W77050  23.188  28.459  11.092
13283W        W77051  14.239   4.736   1.901
13284W        W77052  23.184   0.929  11.054
13285W        W77053  22.608  39.461   3.263
13286W        W77054   0.284  40.925  13.333
13287W        W77055  29.087  32.901  14.765
13288W        W77056  18.787  36.371   2.399
13289W        W77057  37.942  11.723   3.658
13290W        W77058  24.490  38.370  11.453
13291W        W77059  11.262  13.292  14.397
13292W        W77060  38.562  24.228  11.603
13293W        W77061  10.284   8.790   3.229
13294W        W77062  44.327  26.458   2.864
13295W        W77063  36.355  41.864  14.330
13296W        W77064  25.043  21.137   1.715
13297W        W77065  43.890   2.308  10.604
13298W        W77066  20.665  31.109   1.797
13299W        W77067  35.434  32.997   2.340
13300W        W77068  24.696  10.332  12.443
13301W        W77069  43.455  43.975  14.283
13302W        W77070  11.247  25.206  12.423
13303W        W77071  14.603  32.422   1.697
13304W        W77072   8.879   0.481   2.363
13305W        W77073   6.401  27.483  11.872
13306W        W77074  11.720   7.907  11.569
13307W        W77075  29.443  15.139   4.144
13308W        W77076   2.869  18.618  12.013
13309W        W77077  25.104  25.117  10.509
13310W        W77078  25.681  25.065  12.014
13311W        W77079  21.551  34.398   0.433
13312W        W77080  32.076  29.532   2.352
13313W        W77081  42.025   6.894  12.096
13314W        W77082  27.169  12.837   4.184
13315W        W77083  11.201  20.611  10.448
13316W        W77084  21.572  27.100   3.342
13317W        W77085  30.933  10.203   1.826
13318W        W77086  20.251  44.883   1.842
13319W        W77087  25.208  32.912   2.317
13320W        W77088   4.434  23.118  10.626
13321W        W77089  11.758  17.785  10.457
13322W        W77090   8.282  29.137  11.521
13323W        W77091  28.029  12.300   3.682
13324W        W77092  40.833  36.420  14.351
13325W        W77093  15.234  36.003   0.848
13326W        W77094  24.651  17.104   3.670
13327W        W77095  34.874   1.426   1.226
13328W        W77096   6.382  37.075   3.665
13329W        W77097  14.652   1.264  12.028
13330W        W77098  36.915  15.142   1.241
13331W        W77099   7.773   6.906   0.260
13332W        W77100  14.222  40.494   1.791
13333W        W77101   5.304   5.790   1.828
13334W        W77102  15.206  23.146   3.760
13335W        W77103  13.822  33.551  12.077
13336W        W77104  34.922  28.597  11.559
13337W        W77105  26.123  14.680  12.989
13338W        W77106  24.697  12.201   0.914
13339W        W77107   6.222  17.145  10.419
13340W        W77108  19.142  39.002  11.446
13341W        W77109  19.153   1.337  13.056
13342W        W77110  39.541  44.454  11.519
13343W        W77111  37.512  33.415   4.674
13344W        W77112  26.463  33.977   3.671
13345W        W77113  39.065  34.990  13.890
13346W        W77114  41.352  10.692  14.466
13347W        W77115  30.992  10.329  10.068
13348W        W77116  37.036  18.648   2.322
13349W        W77117  21.656  27.005   2.687
13350W        W77118  41.536  23.513  14.811
13351W        W77119  42.390  25.668  10.485
13352W        W77120   4.394  10.774   1.818
13353W        W77121   5.807   4.702  10.892
13354W        W77122  40.470  35.971  14.900
13355W        W77123  33.130  27.026  14.773
13356W        W77124  12.664   2.424   3.262
13357W        W77125  42.810   7.727  13.427
13358W        W77126  32.604   6.761  14.797
13359W        W77127  23.563   1.427  12.014
13360W        W77128  28.029  41.449  13.017
13361W        W77129  36.023   9.885  11.021
13362W        W77130  22.009  22.116  11.902
13363W        W77131  18.782   8.832   1.328
13364W        W77132  13.632  18.143  13.993
13365W        W77133  33.410   0.446   2.857
13366W        W77134  31.425   5.403  13.837
13367W        W77135  14.704  12.268   9.940
13368W        W77136  12.330  38.520   2.338
13369W        W77137   7.766  11.698   4.341
13370W        W77138  25.048  29.010  12.010
13371W        W77139  28.478  24.590  13.026
13372W        W77140  44.316  34.008  11.608
13373W        W77141  10.352  38.569  12.377
13374W        W77142  40.494   6.196   4.293
13375W        W77143  37.892   8.288  12.397
13376W        W77144   0.409  14.184  14.327
13377W        W77145  22.746  16.105   0.953
13378W        W77146  14.776  23.142   4.129
13379W        W77147  35.481   2.797   3.189
13380W        W77148   2.931  12.194   2.270
13381W        W77149  27.498  20.117  11.594
13382W        W77150   3.870  11.835   1.706
13383W        W77151  17.596  24.699   1.313
13384W        W77152  11.303  23.059   3.865
13385W        W77153  19.669  31.064   4.232
13386W        W77154   7.870   6.758   3.753
13387W        W77155  28.161  13.162   5.726
13388W        W77156   8.741  28.467  10.540
13389W        W77157   4.904  10.209   4.312
13390W        W77158  12.315   8.693   0.924
13391W        W77159  11.863  13.642  13.477
13392W        W77160   7.698   2.437  13.325
13393W        W77161  33.433  41.862  14.789
13394W        W77162  37.032  25.059  11.920
13395W        W77163  15.734  37.938  12.899
13396W        W77164   8.252  28.482  10.983
13397W        W77165  27.573  11.803   0.930
13398W        W77166   2.895   5.280  10.447
13399W        W77167  37.927   8.264  11.548
13400W        W77168  41.870  28.081  12.057
13401W        W77169  20.087   8.198   3.271
13402W        W77170  18.705  38.901  12.577
13403W        W77171  40.974  35.083  13.055
13404W        W77172   1.790  43.845   0.913
13405W        W77173  22.745  31.491  13.801
13406W        W77174  16.188  15.714   3.151
13407W        W77175  21.570  21.204  11.071
13408W        W77176   0.471  38.006   1.856
13409W        W77177  22.250   2.250  14.991
13410W        W77178   8.831  37.042   0.908
13411W        W77179  29.127  32.490  13.876
13412W        W77180  10.690  19.635   1.924
13413W        W77181  17.184  17.693   3.197
13414W        W77182  37.362  25.058  14.494
13415W        W77183   4.833   9.170  10.461
13416W        W77184  22.126  43.808  10.948
13417W        W77185   9.770  38.567  14.283
13418W        W77186  34.380  30.624   4.235
13419W        W77187  11.745  12.348   3.359
13420W        W77188   9.200  28.072   1.805
13421W        W77189   2.404  41.346   4.802
13422W        W77190  22.101  12.727  12.053
13423W        W77191  37.557  10.846   2.832
13424W        W77192  36.023  16.125  11.094
13425W        W77193  19.188  34.386   1.373
13426W        W77194   8.402  26.509   2.900
13427W        W77195  30.073  39.020   3.376
13428W        W77196  31.923  19.546  11.941
13429W        W77197  19.275  18.107   0.811
13430W        W77198  41.859   9.780  14.895
13431W        W77199  28.142  44.793  13.383
13432W        W77200  33.529  33.927  11.570
13433W        W77201  44.966  25.479   4.165
13434W        W77202  43.889  11.297   0.914
13435W        W77203  13.798  42.394  13.380
13436W        W77204  15.180   9.848  11.101
13437W        W77205  31.031  31.451  14.507
13438W        W77206   5.710  42.940  14.481
13439W        W77207  34.936  44.989  14.950
13440W        W77208  28.490  36.964  14.833
13441W        W77209  20.187  44.846  10.444
13442W        W77210   8.374  44.452   0.781
13443W        W77211  18.561  13.607   3.270
13444W        W77212  27.584  18.734   0.941
13445W        W77213  35.886  34.562   2.232
13446W        W77214  43.501  31.908   2.701
13447W        W77215   8.775   9.694  12.530
13448W        W77216  12.677  29.023   1.858
13449W        W77217   3.293  27.087   4.708
13450W        W77218   2.318   0.483  11.472
13451W        W77219  23.047  35.404  11.997
13452W        W77220  19.169  42.842   1.752
13453W        W77221  36.511  17.294   2.192
13454W        W77222  16.807  11.305  12.951
13455W        W77223  30.013   8.683   2.350
13456W        W77224  14.162  20.234  13.448
13457W        W77225  22.032   2.460  12.530
13458W        W77226   3.348  33.589   2.389
13459W        W77227   8.336  28.167   1.225
13460W        W77228   6.336   1.965  10.596
13461W        W77229  44.890  39.388   3.194
13462W        W77230  34.927  21.654  14.966
13463W        W77231   5.901  36.402   1.224
13464W        W77232  36.899  42.323  14.930
13465W        W77233  26.640  30.921   0.319
13466W        W77234  31.054  26.077  11.602
13467W        W77235   2.238  32.060   4.148
13468W        W77236  18.072  44.454  10.489
13469W        W77237  18.110  22.105   0.880
13470W        W77238  24.603  25.073  14.457
13471W        W77239  33.577   0.940  13.529
13472W        W77240  37.498  44.422  14.390
13473W        W77241  26.568  37.399   5.231
13474W        W77242  34.599  13.163  13.390
13475W        W77243  38.954  37.405  10.487
13476W        W77244  32.445  19.219  10.530
13477W        W77245  32.397  18.762   2.232
13478W        W77246  17.280  39.054  14.014
13479W        W77247  39.394  13.262  12.828
13480W        W77248  23.225  43.325   4.156
13481W        W77249  41.422  26.082   1.934
13482W        W77250   1.972  31.963  13.490
13483W        W77251   7.876   4.747   0.966
13484W        W77252   4.347  40.010  13.968
13485W        W77253   9.772  12.324   4.724
13486W        W77254   7.875  17.069  12.383
13487W        W77255   7.346  21.706   4.747
13488W        W77256  42.463  37.005  14.846
13489W        W77257  28.532  32.061  12.512
13490W        W77258   7.325  14.253   4.770
13491W        W77259  15.671  16.281   2.383
13492W        W77260  37.540  36.541  12.888
13493W        W77261  19.628  29.461  10.973
13494W        W77262  36.974  36.350   3.797
13495W        W77263   8.760  38.474   0.857
13496W        W77264   7.858  11.657  12.357
13497W        W77265  34.614   3.808  11.544
13498W        W77266  16.198  30.054   3.794
13499W        W77267  22.531  18.741  12.339
13500W        W77268  11.147   3.743   0.953
13501W        W77269  25.126  32.396  10.032
13502W        W77270  28.435  10.657  13.859
13503W        W77271  14.252  43.496   3.204
13504W        W77272  39.030  36.057  13.846
13505W        W77273  17.062  11.844   1.804
13506W        W77274  22.581   0.291  13.964
13507W        W77275  22.103   5.431  12.543
13508W        W77276   3.326  43.401   3.801
13509W        W77277  26.072   0.339  10.524
13510W        W77278  39.488  30.649   0.779
13511W        W77279   0.428  44.290   1.416
13512W        W77280  13.334  17.641  11.909
13513W        W77281  14.619  12.260   1.402
13514W        W77282  23.051  13.140  12.421
13515W        W77283  28.116  33.602  14.811
13516W        W77284  36.576  25.035   3.659
13517W        W77285   9.210  38.501  13.479
13518W        W77286  10.292  10.334   1.770
13519W        W77287  40.901   1.245  12.458
13520W        W77288  41.338  10.314   0.836
13521W        W77289   3.338  13.780  10.504
13522W        W77290  42.484  38.993   0.894
13523W        W77291  12.315  28.546   3.712
13524W        W77292  40.389   5.247   2.368
13525W        W77293   0.327  18.274  11.398
13526W        W77294  36.502  27.568  14.305
13527W        W77295  11.750  40.929   0.391
13528W        W77296  40.986  20.540  11.090
13529W        W77297  40.431  29.956   0.423
13530W        W77298  25.653  11.260   3.772
13531W        W77299  39.013  11.705  11.414
13532W        W77300  41.317  13.302  12.839
13533W        W77301  16.677  40.976   4.260
13534W        W77302  29.541  31.539  10.888
13535W        W77303  44.954  12.692   2.695
13536W        W77304  38.956  10.695   5.109
13537W        W77305  16.755  44.295  10.452
13538W        W77306  33.418   6.367   0.467
13539W        W77307  28.172  22.619  10.510
13540W        W77308  25.988  25.962   0.910
13541W        W77309  26.130   6.688   1.774
13542W        W77310  20.701  24.032   0.251
13543W        W77311   9.220  24.641  11.488
13544W        W77312  32.620  32.429  12.410
13545W        W77313  43.816  10.310  14.478
13546W        W77314  17.636  34.418  10.909
13547W        W77315  40.829  32.893  13.450
13548W        W77316  40.427  37.509   4.662
13549W        W77317   0.822  14.622   0.434
13550W        W77318  36.967   8.674  14.367
13551W        W77319  19.058  23.227  12.340
13552W        W77320  29.034  19.561  10.935
13553W        W77321  16.749  41.372  14.422
13554W        W77322   4.408   0.919  12.899
13555W        W77323   2.842  42.291   4.702
13556W        W77324  44.360  11.226  13.440
13557W        W77325   0.417  22.133   3.748
13558W        W77326  28.099  14.107   3.236
13559W        W77327  20.257  33.899   4.137
13560W        W77328   7.410  29.087  12.467
13561W        W77329   5.267   6.859   3.236
13562W        W77330  17.195  38.886  10.945
13563W        W77331  31.526  39.389  12.937
13564W        W77332   9.371  17.077   4.127
13565W        W77333  11.673  29.042  12.486
13566W        W77334  38.494  33.017  10.561
13567W        W77335  32.569   2.276  14.011
13568W        W77336  34.424  44.479   3.662
13569W        W77337  20.208  42.841  13.812
13570W        W77338  16.675   3.810  14.856
13571W        W77339   7.414  20.127  10.542
13572W        W77340  10.234  14.598  14.854
13573W        W77341   8.338  23.540   2.265
13574W        W77342  31.927   4.863  11.497
13575W        W77343  22.021  25.978   2.270
13576W        W77344   7.798  13.206   2.883
13577W        W77345  40.948   8.877   3.701
13578W        W77346  28.633  17.745   3.202
13579W        W77347  18.214  42.874  14.351
13580W        W77348  10.712   3.321  12.982
13581W        W77349  20.225  30.022  10.459
13582W        W77350  38.442   1.808   1.213
13583W        W77351  23.630  34.110  11.603
13584W        W77352  31.108  24.546  13.488
13585W        W77353  42.516  40.460   3.382
13586W        W77354  31.071  19.072   2.717
13587W        W77355  36.875  26.646   5.273
13588W        W77356  21.247   7.310  14.026
13589W        W77357  40.821  32.898  14.413
13590W        W77358   7.255  15.262  11.004
13591W        W77359  14.273  12.642  10.928
13592W        W77360  24.977   7.379  13.428
13593W        W77361  29.001  11.316   0.440
13594W        W77362  17.753   3.915  12.843
13595W        W77363  15.273  34.471   4.628
13596W        W77364  19.582  36.019   3.828
13597W        W77365  38.563  21.017   0.389
13598W        W77366   5.838  30.618  11.879
13599W        W77367   9.376  11.200  13.449
13600W        W77368   3.242  26.610  12.970
13601W        W77369  35.918   5.405  11.447
13602W        W77370  26.191  43.807   1.229
13603W        W77371  43.935  33.593  10.430
13604W        W77372   5.787  20.522   4.264
13605W        W77373  28.586  44.447   4.783
13606W        W77374  23.596  38.433   4.285
13607W        W77375  39.514  23.138  14.945
13608W        W77376   6.192  33.489  11.431
13609W        W77377  40.500  19.651  10.422
13610W        W77378  31.456  22.670   0.284
13611W        W77379  27.941  38.001   2.843
13612W        W77380  39.369   7.176   1.779
13613W        W77381  31.996  22.232   1.360
13614W        W77382  15.819  19.142  14.895
13615W        W77383  24.593  12.702   2.366
13616W        W77384  26.104   2.762   3.182
13617W        W77385  41.357  17.193   1.442
13618W        W77386  23.722  10.335   2.243
13619W        W77387  21.158  14.765   3.217
13620W        W77388  28.576  22.738   1.375
13621W        W77389  37.853  35.106  13.338
13622W        W77390  16.107  39.051   1.702
13623W        W77391  18.745  16.641  14.844
13624W        W77392  22.585  30.932  13.996
13625W        W77393   6.225   9.261  12.885
13626W        W77394  20.716  41.972  13.438
13627W        W77395  24.597  10.180   5.241
13628W        W77396  39.980  24.611   1.342
13629W        W77397  32.934  20.630  13.488
13630W        W77398  12.191  19.566  12.060
13631W        W77399  29.570   6.825   4.741
13632W        W77400  41.390  15.814   0.324
13633W        W77401  39.062  14.825  13.879
13634W        W77402  18.167  14.270  13.887
13635W        W77403  34.598   0.873  13.988
13636W        W77404  36.377  17.686   0.835
13637W        W77405  20.232  12.301   1.443
13638W        W77406  18.707   5.696   1.221
13639W        W77407   5.719   7.323  12.403
13640W        W77408  27.585  44.449   0.908
13641W        W77409  43.364   9.207   2.665
13642W        W77410  10.359  36.089  12.523
13643W        W77411  34.462  34.556   2.789
13644W        W77412  30.087   6.852   2.316
13645W        W77413  44.928  35.869  14.414
13646W        W77414   4.432   9.739   3.346
13647W        W77415  34.544   4.436   0.455
13648W        W77416   8.350   3.795   2.296
13649W        W77417  36.034  25.142   0.431
13650W        W77418   6.690   2.231  11.405
13651W        W77419   4.927  37.486  12.492
13652W        W77420  16.104  11.293  12.454
13653W        W77421  30.462  33.585  12.040
13654W        W77422  42.992  27.446   1.283
13655W        W77423  30.469  44.912  12.904
13656W        W77424  19.540   2.448  11.579
13657W        W77425   2.953  16.238  12.840
13658W        W77426  18.254  42.944  13.535
13659W        W77427  13.697  36.509   0.905
13660W        W77428  20.720  39.873  13.530
13661W        W77429   9.339  36.039   3.190
13662W        W77430  15.795  12.301   0.894
13663W        W77431  32.022  24.139   0.760
13664W        W77432  35.961  12.611  11.426
13665W        W77433  33.983  17.676  12.070
13666W        W77434  15.165  36.525  11.975
13667W        W77435   8.787  35.456  11.031
13668W        W77436  42.973  22.194  13.533
13669W        W77437  31.076  27.047  14.418
13670W        W77438  16.184   1.837  11.512
13671W        W77439  13.175  31.468   1.811
13672W        W77440  15.739   5.863   2.185
13673W        W77441  40.495  41.903   2.856
13674W        W77442  13.185  39.489   1.254
13675W        W77443  28.474  11.319   4.236
13676W        W77444  23.033  26.200  14.508
13677W        W77445  29.086  43.432  10.508
13678W        W77446   4.863  30.154   2.776
13679W        W77447  42.404   8.386   0.759
13680W        W77448  26.600   9.275   0.941
13681W        W77449  28.518  31.967  12.092
13682W        W77450  32.489  32.409   0.924
13683W        W77451  31.090  28.495   0.394
13684W        W77452   9.711  10.166  12.546
13685W        W77453  14.276  23.589  10.070
13686W        W77454  28.050   7.803   2.787
13687W        W77455  14.191  10.338   3.233
13688W        W77456  30.041  32.986   4.119
13689W        W77457  25.708  14.196  12.984
13690W        W77458  24.179  41.384  11.931
13691W        W77459  27.055   7.408  14.822
13692W        W77460  32.129   0.817  14.767
13693W        W77461  31.901  38.480  14.919
13694W        W77462  23.035   7.272  13.011
13695W        W77463  37.909  13.677  13.845
13696W        W77464  17.676  31.079   3.381
13697W        W77465  10.254  40.809  14.777
13698W        W77466  28.457   2.414   3.319
13699W        W77467  17.273  38.477   1.774
13700W        W77468  13.239  32.948   2.784
13701W        W77469   9.682  33.884   4.199
13702W        W77470  17.233  29.953   4.698
13703W        W77471  23.669  28.067  14.768
13704W        W77472  11.724  44.426   4.261
13705W        W77473  44.000   4.752   3.378
13706W        W77474  23.171  44.829   3.682
13707W        W77475  40.362  28.179   4.772
13708W        W77476  17.795  25.698   4.743
13709W        W77477  44.827  41.991  14.917
13710W        W77478  22.006  14.707   0.450
13711W        W77479   5.765   5.930  14.987
13712W        W77480  26.004   4.226   3.259
13713W        W77481  31.951   4.793   4.753
13714W        W77482  20.581  25.664   3.777
13715W        W77483  32.622  21.171  11.471
13716W        W77484  37.528   7.175   1.788
13717W        W77485  13.717  11.276   5.186
13718W        W77486  25.529  28.123   3.735
13719W        W77487  11.683   7.751   0.744
13720W        W77488  30.086  44.817   3.786
13721W        W77489   4.861  26.545  13.833
13722W        W77490  44.326  27.674   0.812
13723W        W77491  34.384  23.531  12.000
13724W        W77492  40.800  19.575   3.849
13725W        W77493  41.522  18.789  11.032
13726W        W77494  43.332  32.519  12.875
13727W        W77495  29.143  37.484   4.206
13728W        W77496  10.348  19.699  11.523
13729W        W77497  21.124  39.481  11.003
13730W        W77498  11.737  35.481  10.160
13731W        W77499  36.513  10.287  12.495
13732W        W77500  42.473   2.851   1.749
13733W        W77501  18.088  33.477  14.862
13734W        W77502   5.276  21.660  13.348
13735W        W77503  29.634   1.241   1.827
13736W        W77504  13.193  32.036   5.306
13737W        W77505  30.142  36.566   3.156
13738W        W77506  23.040  10.179  12.954
13739W        W77507  20.038   3.326   1.305
13740W        W77508   2.234  30.528  14.875
13741W        W77509  20.671  32.906   1.933
13742W        W77510   6.207  14.190  11.085
13743W        W77511  17.291   6.693   1.772
13744W        W77512   8.842  10.229  10.053
13745W        W77513   0.874  36.589  11.420
13746W        W77514  12.735  32.101  14.485
13747W        W77515  43.821  44.868  14.813
13748W        W77516  27.613  36.452   5.211
13749W        W77517  11.840  28.037   0.366
13750W        W77518  31.976  41.375  13.905
13751W        W77519  43.005  26.484   5.248
13752W        W77520  31.112   8.206   1.859
13753W        W77521   1.746  15.179  13.031
13754W        W77522   9.363  33.490  11.935
13755W        W77523  22.128  36.910  13.541
13756W        W77524   9.846  44.882   3.302
13757W        W77525  21.031   5.293  13.498
13758W        W77526  32.043  22.524  11.065
13759W        W77527  11.225  26.684   1.928
13760W        W77528   7.306  10.268  13.361
13761W        W77529  28.155  29.133  13.853
13762W        W77530  30.522  24.072  11.444
13763W        W77531   1.748  38.407   5.090
13764W        W77532  21.037  26.144   1.740
13765W        W77533  39.883  30.935   1.726
13766W        W77534  20.751   9.802   0.762
13767W        W77535   4.749   7.720  11.536
13768W        W77536  23.692  19.543   2.340
13769W        W77537  15.584   2.228  13.524
13770W        W77538  32.975   7.405   4.624
13771W        W77539  20.769   5.860  13.860
13772W        W77540  12.826  33.424  11.605
13773W        W77541  24.093  23.652  12.436
13774W        W77542  21.615  15.810  13.307
13775W        W77543  34.056  30.116  11.954
13776W        W77544  33.959   5.730  10.441
13777W        W77545  30.636  19.536  10.947
13778W        W77546  10.171   1.794  10.039
13779W        W77547  40.393  24.535   4.272
13780W        W77548   0.346  40.014   3.800
13781W        W77549  33.578  21.063   0.798
13782W        W77550  24.216   3.888  11.969
13783W        W77551  36.886   1.925   1.392
13784W        W77552  31.999   0.779   4.259
13785W        W77553  28.109   3.455   3.303
13786W        W77554  27.677   0.851   4.638
13787W        W77555   4.332  40.429   2.355
13788W        W77556  35.889  37.878  11.126
13789W        W77557  18.144   5.317   0.844
13790W        W77558   2.793  43.494   1.406
13791W        W77559  26.493   5.359   3.346
13792W        W77560  34.056  11.267   4.643
13793W        W77561  17.073  21.708  11.031
13794W        W77562  39.364  21.693  14.804
13795W        W77563  13.211   5.928   0.400
13796W        W77564  33.078   3.243   0.481
13797W        W77565  16.724   9.670  10.535
13798W        W77566  12.333  34.435  12.496
13799W        W77567  27.618  14.692  10.894
13800W        W77568  38.332  37.832   3.334
13801W        W77569  17.194  26.155   2.311
13802W        W77570  10.733  33.900  11.003
13803W        W77571  23.624  29.956   1.846
13804W        W77572  29.164  18.221   0.294
13805W        W77573  44.304  11.666   3.298
13806W        W77574  33.450  10.218  14.337
13807W        W77575  15.088   7.408  10.588
13808W        W77576  25.497   8.876   3.382
13809W        W77577   1.376  37.051   0.787
13810W        W77578  19.226   6.881   2.252
13811W        W77579  22.063  24.592  13.005
13812W        W77580  22.601  42.333  14.901
13813W        W77581  31.011  39.830  11.125
13814W        W77582  37.444  17.261   3.149
13815W        W77583  20.047  18.154   0.479
13816W        W77584  34.575  33.384  12.937
13817W        W77585  18.122  31.640  10.630
13818W        W77586  34.544  26.171  11.394
13819W        W77587  28.167  27.010   4.306
13820W        W77588  14.166  27.623   0.968
13821W        W77589  17.216   6.309   9.991
13822W        W77590  34.086  29.973  13.046
13823W        W77591   0.836  17.217  13.881
13824W        W77592  37.068   7.829   0.260
13825W        W77593  34.422  19.659   2.703
13826W        W77594  26.169   5.929  14.997
13827W        W77595   1.883  36.987   4.696
13828W        W77596  43.469   4.435  10.444
13829W        W77597  13.203   2.417   0.420
13830W        W77598  19.089  20.216   4.629
13831W        W77599  18.686  17.566   3.812
13832W        W77600  31.606  33.588  11.108
13833W        W77601   7.184  41.929   3.146
13834W        W77602  31.437   1.763   1.407
13835W        W77603  14.772   0.787   4.630
13836W        W77604  26.002  20.154   4.312
13837W        W77605  21.572  11.335   3.729
13838W        W77606  18.608  42.991  13.481
13839W        W77607  37.375  35.512   1.715
13840W        W77608   9.302  13.653   4.186
13841W        W77609  17.276  18.162   2.840
13842W        W77610  44.985  16.757  13.935
13843W        W77611  33.380   4.840   1.230
13844W        W77612  28.480  39.815   4.730
13845W        W77613   5.759  34.565  11.967
13846W        W77614  18.148  37.391  14.360
13847W        W77615  44.427  11.636   0.741
13848W        W77616  21.079  16.093  11.959
13849W        W77617  35.986  22.176   4.281
13850W        W77618  33.608  25.219   4.656
13851W        W77619  30.487  32.061  14.486
13852W        W77620  42.984  42.970   4.784
13853W        W77621  41.039  35.852   1.272
13854W        W77622  18.745  41.959   1.296
13855W        W77623  17.107  10.719  13.903
13856W        W77624   8.325  13.808   2.773
13857W        W77625  10.268  31.951   3.820
13858W        W77626  34.979  10.853  14.315
13859W        W77627   7.333   2.933   4.749
13860W        W77628   1.382  20.619   3.352
13861W        W77629  36.036  42.938  10.519
13862W        W77630  38.049  22.533  12.072
13863W        W77631   2.342  39.986   1.291
13864W        W77632  24.001  37.898  12.358
13865W        W77633  43.289   9.292   4.727
13866W        W77634  44.955  24.509  14.900
13867W        W77635   2.804  13.665  14.007
13868W        W77636   4.921  24.191   2.239
13869W        W77637  30.966   9.157   1.212
13870W        W77638   4.911  43.892  11.434
13871W        W77639  15.288   0.297   0.453
13872W        W77640  21.123   4.302  13.529
13873W        W77641  25.187  37.074   3.858
13874W        W77642  37.564   7.838   3.238
13875W        W77643  26.974   5.398  13.478
13876W        W77644  27.599  37.964  13.505
13877W        W77645  43.847  30.576   0.286
13878W        W77646  44.781   5.934  11.116
13879W        W77647   7.368  12.186  10.557
13880W        W77648  20.161  41.794  14.843
13881W        W77649  15.145  36.427   2.819
13882W        W77650  43.309  40.819  13.536
13883W        W77651  34.383  35.368   3.662
13884W        W77652  44.950  36.554   4.709
13885W        W77653  13.797   4.244   2.670
13886W        W77654  22.662  20.123   4.833
13887W        W77655  41.482  13.315   3.845
13888W        W77656  22.168   3.461   2.346
13889W        W77657  18.655  14.763  10.602
13890W        W77658  38.888  24.094  14.859
13891W        W77659   1.322   7.758   4.663
13892W        W77660  42.448  24.714   1.435
13893W        W77661  12.225  21.624   3.151
13894W        W77662  28.482  12.733   0.359
13895W        W77663  16.145  12.766   4.718
13896W        W77664  26.702  31.914   3.207
13897W        W77665  18.249  11.286  11.385
13898W        W77666  22.508   6.251  13.975
13899W        W77667  13.194  35.446  14.356
13900W        W77668  16.771  33.617  14.285
13901W        W77669   2.892  22.622   0.391
13902W        W77670  34.030  17.086  11.035
13903W        W77671  38.915  38.982   4.714
13904W        W77672  18.214  32.456   3.289
13905W        W77673  23.061  37.427   4.216
13906W        W77674  32.011  44.372   3.722
13907W        W77675  40.030  40.889   4.163
13908W        W77676  11.286  18.788  10.903
13909W        W77677  19.695  31.601  12.056
13910W        W77678  32.099   4.443   0.398
13911W        W77679  22.583  24.021   2.813
13912W        W77680  40.908  33.931  12.057
13913W        W77681  44.327   9.307   2.799
13914W        W77682  25.612  16.798   2.746
13915W        W77683  38.530  12.122  12.565
13916W        W77684  44.961   7.899   0.363
13917W        W77685   4.822  18.185   3.667
13918W        W77686  40.003  24.026   4.332
13919W        W77687  20.182  34.579  12.409
13920W        W77688  33.000   4.231  12.011
13921W        W77689  43.327  32.072   0.930
13922W        W77690  30.493  38.405   2.811
13923W        W77691  42.856  33.069   0.804
13924W        W77692  28.974  15.652   1.377
13925W        W77693   8.873  41.480  14.773
13926W        W77694  28.091  44.874   5.152
13927W        W77695  27.006  22.204   0.791
13928W        W77696  25.524  20.657  14.763
13929W        W77697  21.187  11.801   4.619
13930W        W77698   4.215  14.113   4.836
13931W        W77699   8.658  41.865   5.086
13932W        W77700  35.400  28.078  13.981
13933W        W77701   7.372  39.811  12.946
13934W        W77702  18.640  37.336   4.286
13935W        W77703   1.798  29.535   3.167
13936W        W77704  11.693  17.736   4.800
13937W        W77705  16.633  34.006   5.291
13938W        W77706  32.081   8.305   2.334
13939W        W77707  39.894  21.089   3.724
13940W        W77708  35.979  16.187   3.357
13941W        W77709  12.627  34.427   1.764
13942W        W77710  24.587  41.911  12.532
13943W        W77711   6.719   8.740  13.873
13944W        W77712  40.475   2.293   5.299
13945W        W77713  28.461  13.623   3.748
13946W        W77714   1.426  42.876   4.125
13947W        W77715  43.509   4.405   1.443
13948W        W77716  43.973   0.418  13.327
13949W        W77717  28.018  23.549   3.364
13950W        W77718   4.365   2.815   1.277
13951W        W77719  35.021  38.510  13.025
13952W        W77720   6.427  20.728   2.881
13953W        W77721  13.297   6.187  13.466
13954W        W77722  29.935  37.577  14.281
13955W        W77723  42.781  15.605  13.314
13956W        W77724  11.243  20.090   4.307
13957W        W77725  28.498   4.382  12.015
13958W        W77726  30.596  37.085   0.345
13959W        W77727  42.508   0.253  11.959
13960W        W77728  32.562   2.744   3.331
13961W        W77729  41.375  36.499   3.690
13962W        W77730  26.166  15.679  11.890
13963W        W77731  18.600   6.814   1.412
13964W        W77732  42.951  27.641  12.855
13965W        W77733  43.293  25.136   4.705
13966W        W77734   3.810  36.459   1.743
13967W        W77735  44.328   8.801  11.589
13968W        W77736  19.634  21.576  14.780
13969W        W77737  21.687  21.118   2.681
13970W        W77738  19.104  21.211  12.413
13971W        W77739  24.050  16.567   3.225
13972W        W77740  36.054  25.677   3.815
13973W        W77741  43.020  20.251   2.864
13974W        W77742  42.304  24.490   1.879
13975W        W77743   7.289  10.687  14.887
13976W        W77744  23.554  42.857   1.783
13977W        W77745  38.882  37.023  13.446
13978W        W77746   2.229  37.471  13.810
13979W        W77747  37.511   1.910   1.422
13980W        W77748  20.215  13.198  12.041
13981W        W77749   4.442  43.502  10.898
13982W        W77750  16.746  35.943   0.267
13983W        W77751   8.210  20.036   0.888
13984W        W77752  30.419   3.254  11.036
13985W        W77753  31.956  13.685   3.713
13986W        W77754  36.846  11.643   4.676
13987W        W77755  23.221  41.931  13.441
13988W        W77756  36.003  37.365   2.691
13989W        W77757   0.438  11.729   3.280
13990W        W77758  15.768  35.960  13.990
13991W        W77759  38.013  17.768   2.338
13992W        W77760   8.256  23.507   3.757
13993W        W77761  34.889  28.171  13.476
13994W        W77762  42.288  31.550   4.833
13995W        W77763   9.886  31.948  14.368
13996W        W77764  14.692  30.131   1.815
13997W        W77765  22.705   9.843  13.954
13998W        W77766  17.566   0.402  13.818
13999W        W77767  17.166  41.292  13.884
14000W        W77768  36.446   1.450   2.865
14001W        W77769  36.416  41.313   1.749
14002W        W77770  16.157  13.749  13.944
14003W        W77771  34.099  37.409   2.884
14004W        W77772  30.124  37.572   2.382
14005W        W77773  19.543  28.456   4.802
14006W        W77774  19.273  29.054  10.421
14007W        W77775  38.849  25.676   3.154
14008W        W77776  25.476   7.374  11.372
14009W        W77777  43.016  16.621   3.147
14010W        W77778   4.276   6.750   3.863
14011W        W77779  29.575  39.879  14.328
14012W        W77780  11.660  31.435   2.801
14013W        W77781   2.749  13.719   4.123
14014W        W77782  33.895  28.084   0.415
14015W        W77783  24.642   3.298   1.346
14016W        W77784  36.353  18.545  11.896
14017W        W77785  11.718  40.963   4.213
14018W        W77786  14.280  29.147  12.867
14019W        W77787   7.676  24.098  11.461
14020W        W77788  19.147  33.954   5.696
14021W        W77789  32.629  25.157   4.296
14022W        W77790  32.445  15.186   9.921
14023W        W77791  15.098   6.738   3.674
14024W        W77792  29.001  41.423  10.919
14025W        W77793  22.548  28.679   4.762
14026W        W77794  14.295   4.891   4.701
14027W        W77795   7.682  44.925  14.928
14028W        W77796  42.492  36.473   3.792
14029W        W77797  43.408   1.361   4.352
14030W        W77798  34.398  43.007   0.961
14031W        W77799  19.777  44.448   0.252
14032W        W77800  26.492   8.833   3.172
14033W        W77801   6.780   8.166   3.771
14034W        W77802   1.837  24.706   4.702
14035W        W77803  16.229   1.970  13.905
14036W        W77804  19.231  42.486   2.789
14037W        W77805  21.036  15.591   0.776
14038W        W77806   0.478  11.266  11.906
14039W        W77807  31.523  43.967   3.317
14040W        W77808  12.667   8.201  13.391
14041W        W77809  44.857  35.572   9.975
14042W        W77810  30.085  35.532   4.238
14043W        W77811  21.105  15.816  14.836
14044W        W77812   5.363  33.010   0.913
14045W        W77813  41.990  40.911  13.859
14046W        W77814  32.988   1.815   2.261
14047W        W77815  22.207  11.190   2.184
14048W        W77816  19.535  40.975  13.532
14049W        W77817  12.805   0.777   3.303
14050W        W77818  40.383  39.863  13.528
14051W        W77819  27.666  16.174  13.545
14052W        W77820  37.462  23.646  12.470
14053W        W77821   1.308  15.639  11.858
14054W        W77822  39.978   8.372   1.353
14055W        W77823  24.060  19.259  10.417
14056W        W77824  36.012   9.228  11.559
14057W        W77825  38.483  10.854   3.723
14058W        W77826  36.869  30.917  14.809
14059W        W77827  38.449   1.267  13.418
14060W        W77828   7.213  18.688  13.546
14061W        W77829  44.413  29.565  12.544
14062W        W77830  43.443  27.515  11.949
14063W        W77831  34.057   9.754  13.875
14064W        W77832  22.615  38.921  13.810
14065W        W77833  12.332  23.044  10.926
14066W        W77834  18.203  15.779   1.919
14067W        W77835  35.405   6.236  14.822
14068W        W77836  13.171  31.625   0.806
14069W        W77837  14.209  13.205   2.887
14070W        W77838  37.863  32.976   0.378
14071W        W77839  33.993  30.642   3.297
14072W        W77840  38.569  19.252  11.571
14073W        W77841   9.347  34.917   1.351
14074W        W77842   0.855  24.081  13.945
14075W        W77843  29.005   2.773  11.940
14076W        W77844  35.469   1.252   2.775
14077W        W77845  38.034  30.985   9.628
14078W        W77846  36.024  42.840  13.919
14079W        W77847   0.445  37.533  12.942
14080W        W77848  43.329  37.939  11.456
14081W        W77849  36.455  44.395  10.537
14082W        W77850  22.195   0.978  14.858
14083W        W77851  17.121   4.326  14.514
14084W        W77852   3.395  42.499  13.359
14085W        W77853  18.104  23.136   3.844
14086W        W77854  21.145  39.470   2.221
14087W        W77855  20.539  39.529  14.803
14088W        W77856  10.647  41.349  11.561
14089W        W77857  21.649  38.980  10.627
14090W        W77858   9.388  18.292   0.772
14091W        W77859  34.967  13.638  10.975
14092W        W77860  37.979  43.447   4.242
14093W        W77861  41.824  29.059  11.875
14094W        W77862  32.392  33.993  14.964
14095W        W77863  23.675  39.345  14.480
14096W        W77864  33.926  34.910   0.859
14097W        W77865  33.893  34.610  14.764
14098W        W77866   1.777  20.572   1.374
14099W        W77867  44.441   9.239   1.906
14100W        W77868  33.575   8.328   2.885
14101W        W77869   0.478  10.664  10.414
14102W        W77870  26.607   8.166  12.080
14103W        W77871  39.895  23.094  12.028
14104W        W77872  31.929  25.640   2.205
14105W        W77873  22.246  11.773  14.402
14106W        W77874  17.112  43.376   2.218
14107W        W77875  26.545  23.060   3.856
14108W        W77876  18.757  43.952  14.382
14109W        W77877   3.943  42.301  14.972
14110W        W77878  29.173  40.430   0.393
14111W        W77879  26.647   4.853  10.991
14112W        W77880  24.004  11.290   2.396
14113W        W77881   6.890  42.848  14.011
14114W        W77882  41.860  39.504  14.431
14115W        W77883  42.940  39.901  14.355
14116W        W77884  33.971   3.362  14.945
14117W        W77885  37.547  41.469   3.718
14118W        W77886  16.084  20.158  10.468
14119W        W77887  32.062   4.280   2.247
14120W        W77888  10.705   1.360  13.929
14121W        W77889  15.796  41.971  14.003
14122W        W77890  17.648  40.373  11.449
14123W        W77891  36.494   2.262   0.945
14124W        W77892  15.788  12.344   2.709
14125W        W77893  35.046  44.297   4.161
14126W        W77894  18.571  21.041   0.833
14127W        W77895  33.937  39.476  10.404
14128W        W77896   8.185  43.324  12.989
14129W        W77897  18.621  37.424  14.500
14130W        W77898  39.315  36.558  14.945
14131W        W77899   7.740  19.746  11.923
14132W        W77900  25.549  40.421  12.991
14133W        W77901  16.604  20.231   1.265
14134W        W77902  11.207  43.516  12.883
14135W        W77903  29.086  27.187   1.451
14136W        W77904  31.129  38.510  11.922
14137W        W77905  36.447  17.131  13.464
14138W        W77906  30.482  24.211  10.579
14139W        W77907  19.210  21.205   3.711
14140W        W77908  34.513   3.902   4.710
14141W        W77909  12.327   2.810  13.990
14142W        W77910   9.746  35.859  14.938
14143W        W77911  13.279  36.452   4.316
14144W        W77912  30.908   1.390   4.679
14145W        W77913  30.644   9.860   1.284
14146W        W77914   9.800  27.549   3.732
14147W        W77915  15.665  32.503   0.736
14148W        W77916  23.124  42.935  14.453
14149W        W77917  41.008   5.712   1.779
14150W        W77918  34.375  20.544   4.120
14151W        W77919  33.400   9.810   2.862
14152W        W77920   8.864  22.076   2.710
14153W        W77921  40.037  37.527   1.336
14154W        W77922  10.364  35.026  11.070
14155W        W77923   2.904  25.702   2.221
14156W        W77924   8.195   4.715   1.254
14157W        W77925  44.820  15.668   3.312
14158W        W77926  25.131  40.919  12.005
14159W        W77927  33.582  18.782   2.761
14160W        W77928  29.491  14.657  12.926
14161W        W77929  29.051   0.266   0.822
14162W        W77930   8.803  29.124  12.540
14163W        W77931  35.044  38.034  12.853
14164W        W77932  10.327  13.307  11.061
14165W        W77933  18.676   0.262  10.567
14166W        W77934   3.750  39.353   1.758
14167W        W77935   1.946  42.985  10.530
14168W        W77936  28.177  10.667  11.099
14169W        W77937  16.078  11.179   0.854
14170W        W77938  28.529  25.134   1.760
14171W        W77939  14.834  28.498   2.710
14172W        W77940  36.478  30.636  11.959
14173W        W77941  31.611   0.264  10.914
14174W        W77942  26.474   1.864  12.035
14175W        W77943  42.370  19.701   0.804
14176W        W77944  14.602  38.904   0.392
14177W        W77945   9.844  39.886  10.464
14178W        W77946  36.528  38.439  10.901
14179W        W77947   3.371  20.228  13.445
14180W        W77948  13.749   0.962   0.813
14181W        W77949   6.286  30.942   4.760
14182W        W77950  25.036  28.535  13.046
14183W        W77951  20.542  27.166   2.351
14184W        W77952  23.080  21.188   3.166
14185W        W77953  23.064  31.490  13.372
14186W        W77954  19.213  28.646   0.779
14187W        W77955  43.492   8.772  12.398
14188W        W77956  27.050  17.567   4.321
14189W        W77957  23.519  34.113  13.898
14190W        W77958  22.606  27.647  13.033
14191W        W77959  39.325   7.215   2.759
14192W        W77960   3.741  14.735   0.818
14193W        W77961  44.341  21.665   0.420
14194W        W77962  16.776  41.526   3.269
14195W        W77963   4.327  40.536   1.264
14196W        W77964  13.302  14.222   0.839
14197W        W77965  40.492  37.337  13.438
14198W        W77966  43.781  20.648   0.744
14199W        W77967  16.072  28.011  12.351
14200W        W77968   1.735  29.655   4.296
14201W        W77969  20.246  40.869   0.910
14202W        W77970  24.140  37.447   0.413
14203W        W77971  30.557   5.279  11.474
14204W        W77972  36.548  32.131   3.148
14205W        W77973  28.095  23.205   0.312
14206W        W77974   8.355  29.101   3.224
14207W        W77975   4.715  43.838   0.907
14208W        W77976  32.057  14.628   3.826
14209W        W77977  16.158  20.240   4.294
14210W        W77978  36.582  20.080   4.792
14211W        W77979  39.005  35.091   1.312
14212W        W77980   9.643  20.115  11.077
14213W        W77981  41.420  15.724  12.508
14214W        W77982  35.467  39.462  14.292
14215W        W77983  24.623  33.915   4.173
14216W        W77984  25.053  27.988   2.198
14217W        W77985  39.968  15.316  14.772
14218W        W77986  29.166  43.450  14.932
14219W        W77987  17.083  28.046  10.539
14220W        W77988  27.098  25.700  13.364
14221W        W77989  22.627  21.254   4.727
14222W        W77990  34.885  41.446   2.352
14223W        W77991  36.546  43.781  14.954
14224W        W77992   4.715  13.115  14.845
14225W        W77993   7.747  10.689  14.500
14226W        W77994  30.655  26.507  10.491
14227W        W77995  27.098  33.083   4.661
14228W        W77996   2.353  26.530   2.870
14229W        W77997   8.832  11.746  14.437
14230W        W77998   1.766  23.233  10.621
14231W        W77999  40.813  30.023   2.324
14232W        W78000  44.946  11.739  11.920
14233W        W78001  13.284   8.838  11.494
14234W        W78002  14.235  13.159  10.472
14235W        W78003  41.952  29.564  13.447
14236W        W78004   1.748  30.046  14.303
14237W        W78005  11.861  12.856  12.997
14238W        W78006  20.705  42.445   4.825
14239W        W78007  10.348  38.851   4.255
14240W        W78008  31.923  38.832   1.435
14241W        W78009  14.633  39.377   0.429
14242W        W78010  24.533  41.322  11.607
14243W        W78011  12.300  29.536   3.224
14244W        W78012  27.137  28.670   4.781
14245W        W78013  36.906  23.032   3.633
14246W        W78014  30.431  11.148  14.944
14247W        W78015   4.804   9.844   2.385
14248W        W78016   0.385  29.097   0.746
14249W        W78017  38.538  27.473   0.876
14250W        W78018   8.846  41.500   0.794
14251W        W78019  29.531  41.458  11.535
14252W        W78020  34.386  20.592  12.559
14253W        W78021  37.854  33.000  14.320
14254W        W78022  43.500  27.602  12.357
14255W        W78023  28.130  15.771  11.031
14256W        W78024  35.857  40.857  14.511
14257W        W78025  27.066  43.899   3.717
14258W        W78026   8.731  44.346  12.471
14259W        W78027  40.886   7.313   4.672
14260W        W78028  11.819  11.853   1.306
14261W        W78029  29.530  13.238  10.467
14262W        W78030   9.231  27.113   1.252
14263W        W78031  23.671  10.378   1.301
14264W        W78032  32.619  41.352   0.301
14265W        W78033  20.616   0.376  12.478
14266W        W78034  36.001  23.172  14.312
14267W        W78035   6.898  34.477  14.308
14268W        W78036   0.793  11.147  14.759
14269W        W78037  35.943   0.352  12.515
14270W        W78038   8.842  19.118  11.084
14271W        W78039  44.990   5.427  10.633
14272W        W78040  23.145  38.372   1.816
14273W        W78041  18.273  36.912   3.201
14274W        W78042  37.509  20.756   2.347
14275W        W78043  26.695  14.124  12.880
14276W        W78044  23.986  41.799  12.857
14277W        W78045  14.096  14.262  12.912
14278W        W78046  37.454  31.499  13.964
14279W        W78047  41.922  29.632   1.214
14280W        W78048   9.861  13.704  14.888
14281W        W78049   3.884  31.463  13.338
14282W        W78050   7.228  29.600  14.905
14283W        W78051  32.545  13.717  13.353
14284W        W78052  14.167  11.141  11.499
14285W        W78053  14.743  17.771  13.011
14286W        W78054  19.631  32.625  13.424
14287W        W78055   1.779  15.162  12.451
14288W        W78056   6.689  23.039  12.918
14289W        W78057  20.635  25.600  14.461
14290W        W78058   5.906  13.144  12.078
14291W        W78059  20.571  27.997   3.303
14292W        W78060   1.462   7.889  12.542
14293W        W78061  28.586  14.105   2.899
14294W        W78062  29.051  13.663   0.269
14295W        W78063  17.630  19.070  14.424
14296W        W78064  12.816  22.584   4.676
14297W        W78065  30.005   0.281   1.733
14298W        W78066  30.623   1.313  14.515
14299W        W78067  37.495   0.855   1.867
14300W        W78068  42.427  13.707  12.988
14301W        W78069  19.629  11.662   4.600
14302W        W78070  25.668  11.768   0.774
14303W        W78071  13.177  37.514  13.469
14304W        W78072  24.229  34.509  14.511
14305W        W78073   6.235   2.329  11.377
14306W        W78074  42.471  37.856   4.209
14307W        W78075  20.162  16.232  13.370
14308W        W78076  25.656  34.602   2.751
14309W        W78077  42.472  20.251   1.440
14310W        W78078   4.225   9.873   4.306
14311W        W78079  10.768  12.310  12.548
14312W        W78080  36.475  41.410  10.586
14313W        W78081  40.443  36.505  13.060
14314W        W78082  32.924  26.651  11.936
14315W        W78083  11.331  10.694   4.746
14316W        W78084  43.381  43.492  11.384
14317W        W78085   5.930  44.361   3.251
14318W        W78086  23.054   8.678   1.327
14319W        W78087   8.390  10.638  13.428
14320W        W78088  13.728  39.960   3.814
14321W        W78089   1.423  41.506   0.830
14322W        W78090  41.494  29.468   5.218
14323W        W78091  35.993  17.280   2.311
14324W        W78092  17.221   5.371  11.488
14325W        W78093  27.656  22.694  11.527
14326W        W78094  36.962  13.789  12.962
14327W        W78095  37.511   0.484  13.796
14328W        W78096  43.898  11.732   1.390
14329W        W78097   1.351  34.384   9.956
14330W        W78098  11.834   5.310   4.695
14331W        W78099   6.901  13.664   1.390
14332W        W78100  39.940  37.481   1.900
14333W        W78101  39.871  40.541  11.376
14334W        W78102  16.614  28.546  13.844
14335W        W78103  14.706  14.789  12.458
14336W        W78104  26.029   0.765  14.918
14337W        W78105   6.885  32.043   0.420
14338W        W78106  22.579  11.840  12.955
14339W        W78107  12.628   8.232  12.053
14340W        W78108  34.903  42.787   3.272
14341W        W78109   9.332  15.187   1.803
14342W        W78110  17.163   8.165  11.099
14343W        W78111  36.496  25.636  13.882
14344W        W78112  11.323  42.857  12.049
14345W        W78113  34.401   1.903  13.894
14346W        W78114  39.388  12.271   1.931
14347W        W78115  34.477   7.861  13.987
14348W        W78116  23.235  19.563   0.243
14349W        W78117  17.154  31.112   1.834
14350W        W78118  24.553  34.077  11.576
14351W        W78119  38.500   6.792   3.266
14352W        W78120  40.981   4.260   1.782
14353W        W78121  10.768  33.110   0.355
14354W        W78122  24.513  32.949  10.553
14355W        W78123  42.357  14.186  14.788
14356W        W78124  24.125  32.499   3.295
14357W        W78125  17.587  31.562  12.395
14358W        W78126  31.604  44.000  12.436
14359W        W78127  43.324  20.703   1.262
14360W        W78128  21.637  14.590   3.831
14361W        W78129  36.386   1.896  12.423
14362W        W78130  26.677  10.264   1.260
14363W        W78131  23.985   7.785   4.349
14364W        W78132  37.030   1.349  13.324
14365W        W78133  39.381  28.163  11.061
14366W        W78134  27.682  14.714  12.379
14367W        W78135  42.372  33.915   1.867
14368W        W78136  12.245  43.791   3.245
14369W        W78137  20.552  31.056  10.509
14370W        W78138  14.673  17.745  14.380
14371W        W78139  42.318   8.258   1.926
14372W        W78140  43.319   1.765  13.344
14373W        W78141   8.379  18.074  11.513
14374W        W78142   5.697  33.383  11.555
14375W        W78143  35.981  31.100  11.906
14376W        W78144  21.618  16.233   2.372
14377W        W78145  40.806  19.595   2.783
14378W        W78146   0.836   5.261  14.499
14379W        W78147  35.604   1.387  14.803
14380W        W78148   6.778  32.603   1.876
14381W        W78149  33.516   8.783   3.777
14382W        W78150  21.698   9.300   4.233
14383W        W78151  16.299  39.366  13.399
14384W        W78152  29.554  31.038   2.698
14385W        W78153  19.565  30.614  10.625
14386W        W78154  25.105  35.969  12.494
14387W        W78155  13.236  42.832  13.409
14388W        W78156  29.968  42.500   0.949
14389W        W78157  18.768  41.405   2.353
14390W        W78158  28.036  37.521   3.332
14391W        W78159   9.221   7.186  14.029
14392W        W78160  13.167  38.570   0.336
14393W        W78161  19.141  23.158   4.196
14394W        W78162  16.115   7.685  13.920
14395W        W78163   7.343  41.422   3.350
14396W        W78164  36.963   0.906   4.165
14397W        W78165  23.059  16.155   0.952
14398W        W78166   0.747   7.295  12.856
14399W        W78167  20.172   6.845  10.999
14400W        W78168   2.772   8.212  12.834
14401W        W78169  28.006  23.638  10.999
14402W        W78170  44.950  41.992   2.877
14403W        W78171  33.432  38.454  10.139
14404W        W78172   5.760  29.029  12.376
14405W        W78173  39.061  21.143  12.086
14406W        W78174  13.111  43.337   4.828
14407W        W78175   5.432  36.882  13.328
14408W        W78176  30.455   8.884  12.927
14409W        W78177   7.352  16.592  12.079
14410W        W78178  19.168   2.738   3.769
14411W        W78179  28.097  30.650   3.309
14412W        W78180  34.903  26.002   0.312
14413W        W78181  37.918  42.894   4.731
14414W        W78182   1.372  36.455   1.764
14415W        W78183  10.345  10.287   5.215
14416W        W78184  22.578  18.729  13.852
14417W        W78185  30.414  11.858  11.069
14418W        W78186   2.329  14.601   3.190
14419W        W78187  44.876  44.406  13.397
14420W        W78188  16.216  30.137   2.211
14421W        W78189   8.880   0.394   4.630
14422W        W78190  32.074   0.907   0.367
14423W        W78191  37.520  35.436  13.518
14424W        W78192  16.131   3.408  11.465
14425W        W78193  17.231  41.903  14.368
14426W        W78194   5.422   7.269  14.002
14427W        W78195  12.689  18.668  12.571
14428W        W78196  24.718  20.174  12.881
14429W        W78197  40.461   2.861  12.368
14430W        W78198  41.443   1.406  10.596
14431W        W78199  35.993  30.573   2.759
14432W        W78200  34.574  20.687   2.407
14433W        W78201  36.536  17.158  12.482
14434W        W78202  14.807  39.849  13.923
14435W        W78203  36.491  34.593  10.465
14436W        W78204  31.069  27.557  12.954
14437W        W78205   8.880   1.945  10.581
14438W        W78206  14.668  42.420   1.908
14439W        W78207  33.432  29.491  11.508
14440W        W78208  25.053  32.909   3.198
14441W        W78209   5.405  23.612   4.267
14442W        W78210   6.372  30.144   1.414
14443W        W78211  37.043  25.528  13.032
14444W        W78212  34.375  10.305  10.986
14445W        W78213  18.206  42.285   4.127
14446W        W78214   7.323  15.237  14.862
14447W        W78215  36.554  11.159   4.158
14448W        W78216  42.963  39.926   1.840
14449W        W78217  26.027  42.850  13.543
14450W        W78218  17.066  23.619  12.909
14451W        W78219  24.578   6.830   1.360
14452W        W78220   1.285  26.205  12.047
14453W        W78221  17.779  16.723  10.106
14454W        W78222  21.123   0.829   1.918
14455W        W78223  40.843  22.068   0.816
14456W        W78224  36.889  26.575   3.239
14457W        W78225   0.464  24.634   0.368
14458W        W78226   4.850  25.598  12.933
14459W        W78227  20.742  14.127   3.646
14460W        W78228  42.326  22.539   4.663
14461W        W78229  44.449  27.013   2.389
14462W        W78230  38.854   2.463   2.270
14463W        W78231  23.120  10.699   0.761
14464W        W78232  15.697  44.927  13.442
14465W        W78233  13.782  23.093  11.385
14466W        W78234   2.430  39.852   2.278
14467W        W78235  23.576  20.593  12.087
14468W        W78236  39.488  36.077  10.957
14469W        W78237  27.476  24.691   4.204
14470W        W78238  34.499  26.049   4.135
14471W        W78239  35.475  10.820   3.854
14472W        W78240  11.372   3.287   4.771
14473W        W78241   2.849   0.283  13.052
14474W        W78242  15.265  11.238  13.366
14475W        W78243   5.427  31.920   0.875
14476W        W78244  38.485  32.105  10.023
14477W        W78245  14.143  25.110  10.618
14478W        W78246  27.171  30.557   3.853
14479W        W78247  25.995  26.488   2.200
14480W        W78248  15.272  14.279  10.925
14481W        W78249  21.702   1.892  12.012
14482W        W78250   6.264  24.693   3.708
14483W        W78251  13.163  16.714   0.915
14484W        W78252  31.432  37.545   4.644
14485W        W78253   3.360  23.549   2.665
14486W        W78254  32.133  24.663  13.963
14487W        W78255  15.133   5.807   4.713
14488W        W78256  37.992  41.371   2.244
14489W        W78257  36.521  24.039   0.271
14490W        W78258  23.183  34.479   3.184
14491W        W78259  24.019  22.060  14.013
14492W        W78260   0.285   7.905   3.374
14493W        W78261  28.034   6.847   3.847
14494W        W78262  11.348  18.755  11.504
14495W        W78263   2.242  14.217  14.404
14496W        W78264  17.186   2.758   4.274
14497W        W78265  35.975   3.798   5.262
14498W        W78266  31.457   6.814  12.977
14499W        W78267  11.257  44.434   4.129
14500W        W78268  27.049  25.472  12.934
14501W        W78269  27.628  20.064   3.643
14502W        W78270  20.170   0.351   2.416
14503W        W78271   0.494  23.167   1.920
14504W        W78272  15.294  32.588  13.816
14505W        W78273   9.849  32.565   2.795
14506W        W78274  44.875  28.958   0.347
14507W        W78275  12.782  32.451   3.275
14508W        W78276  38.962   5.906  12.092
14509W        W78277  27.068  13.610  12.426
14510W        W78278  27.019  16.281  13.048
14511W        W78279  20.179  31.019   3.198
14512W        W78280  23.623   1.375   0.902
14513W        W78281   0.465   7.328  13.841
14514W        W78282  20.105   6.679  10.627
14515W        W78283   5.216   1.286  12.947
14516W        W78284  11.795  27.058  14.404
14517W        W78285  20.158  37.412  10.581
14518W        W78286  30.439  36.381   3.684
14519W        W78287  23.523   9.830  14.826
14520W        W78288   7.907  12.327   2.722
14521W        W78289  30.458  37.360   0.770
14522W        W78290  35.412   5.241  11.858
14523W        W78291  10.148  33.986   3.335
14524W        W78292  44.963  26.483   2.847
14525W        W78293  30.162  30.999   3.257
14526W        W78294  17.574  29.051  14.314
14527W        W78295   1.915  16.811   1.726
14528W        W78296   1.238  10.775  10.983
14529W        W78297  34.600  36.590   3.227
14530W        W78298   0.332  17.724   2.221
14531W        W78299  31.080  38.331  12.578
14532W        W78300  16.574  33.624   2.227
14533W        W78301  43.020   5.833  13.467
14534W        W78302   7.384  10.740  11.032
14535W        W78303  20.190  14.742  13.016
14536W        W78304  42.291  36.042   1.819
14537W        W78305  36.506   5.216  14.363
14538W        W78306  33.417  44.900   1.235
14539W        W78307   9.851  10.293   2.814
14540W        W78308  13.263  10.230  11.498
14541W        W78309  15.251  33.564  14.302
14542W        W78310  11.771  37.997   2.415
14543W        W78311   7.315  17.581   1.768
14544W        W78312   7.689   5.853   4.753
14545W        W78313   4.892  28.437   0.459
14546W        W78314  43.424   1.896  10.568
14547W        W78315   3.243  27.495   3.306
14548W        W78316  40.528  40.494  14.407
14549W        W78317  15.583   8.663  10.084
14550W        W78318  11.171   2.839   3.843
14551W        W78319  20.676  41.869   2.376
14552W        W78320  28.148  39.374   4.633
14553W        W78321  36.371  44.908   0.771
14554W        W78322  37.085  19.141  11.089
14555W        W78323  11.168   7.361   0.748
14556W        W78324   8.376  15.605  12.460
14557W        W78325  21.526  39.995   3.349
14558W        W78326  36.965   3.321   0.890
14559W        W78327  38.897  17.230   1.428
14560W        W78328  31.455  14.198   1.870
14561W        W78329  11.324   6.226   0.781
14562W        W78330  42.813   7.391   2.359
14563W        W78331  20.670   8.739   1.274
14564W        W78332  41.419  16.081  12.547
14565W        W78333   1.887  40.511   0.809
14566W        W78334   2.290  14.821  13.891
14567W        W78335  22.238   8.213   2.805
14568W        W78336  39.489  40.334  10.537
14569W        W78337  30.137  13.169   3.328
14570W        W78338  33.101  25.078  12.345
14571W        W78339  39.898  28.655  11.483
14572W        W78340  10.286  18.758  12.350
14573W        W78341  22.168   3.830  11.582
14574W        W78342  30.019  29.000  12.838
14575W        W78343  28.653   1.957   4.309
14576W        W78344  12.671  38.412   3.862
14577W        W78345   7.287  11.635  13.544
14578W        W78346  32.598  41.491   4.174
14579W        W78347  15.728  30.112  10.640
14580W        W78348   8.219  29.452   3.777
14581W        W78349  19.142  32.925  12.394
14582W        W78350   0.367   2.260  14.386
14583W        W78351  39.994  15.687  11.950
14584W        W78352  18.772   7.371  11.027
14585W        W78353  18.676  40.930   1.332
14586W        W78354   0.757  18.777   0.370
14587W        W78355   5.256  14.735   3.749
14588W        W78356   5.911   0.318   0.261
14589W        W78357  30.053  13.818  12.850
14590W        W78358  36.472  33.536   5.213
14591W        W78359  26.565  25.138   3.338
14592W        W78360  14.632  33.397  12.478
14593W        W78361  25.176  21.671  11.559
14594W        W78362  14.765  19.169  12.367
14595W        W78363  38.875  17.684   0.395
14596W        W78364   9.281  25.133  11.569
14597W        W78365  15.327  38.479   1.409
14598W        W78366  24.111  19.537  14.906
14599W        W78367   2.313  32.904   1.793
14600W        W78368   1.952   8.206   4.747
14601W        W78369  30.585  28.000   2.893
14602W        W78370   2.289  18.697   3.180
14603W        W78371  14.103   2.228   0.335
14604W        W78372   8.333  24.700  14.798
14605W        W78373   3.219   6.405  14.483
14606W        W78374  12.664  22.677   4.337
14607W        W78375   9.692  39.490   2.220
14608W        W78376   6.843  12.326   3.196
14609W        W78377  27.192  30.476  14.941
14610W        W78378  33.958  16.582  11.423
14611W        W78379  18.119  28.152   3.331
14612W        W78380  34.956  36.966  11.570
14613W        W78381  42.829  34.062   3.212
14614W        W78382  30.496  10.758  10.514
14615W        W78383  29.457  17.285   1.274
14616W        W78384  32.538  26.110  11.021
14617W        W78385  29.649  37.874  13.376
14618W        W78386  39.993  43.002   4.811
14619W        W78387  28.459  21.724  14.918
14620W        W78388  41.964  12.240   2.868
14621W        W78389  22.221   3.271   0.458
14622W        W78390  13.706   2.402  10.477
14623W        W78391  40.427  30.548   0.964
14624W        W78392  25.110  13.791   2.245
14625W        W78393  18.568  36.439   5.750
14626W        W78394  21.176  20.568  13.470
14627W        W78395  29.445   2.392  13.368
14628W        W78396  13.624  29.964  13.985
14629W        W78397  31.586  44.891   4.640
14630W        W78398   9.295  29.152  12.968
14631W        W78399  25.628  24.106  13.832
14632W        W78400   5.843  13.838   4.347
14633W        W78401  19.736  35.057  12.871
14634W        W78402  34.467   9.379   9.921
14635W        W78403  44.378  25.069   0.965
14636W        W78404  26.645  41.934   3.755
14637W        W78405   9.888   1.256  14.353
14638W        W78406  19.760  13.232  12.388
14639W        W78407  36.008  10.877   0.858
14640W        W78408   2.255   8.275   1.728
14641W        W78409   2.958  19.199   1.814
14642W        W78410   8.332  28.500   4.271
14643W        W78411   1.296  22.737  12.446
14644W        W78412  33.623  22.174  13.015
14645W        W78413  11.791  11.844   2.769
14646W        W78414   4.356  18.720   1.449
14647W        W78415  16.714   1.932   1.703
14648W        W78416  17.301  41.364  10.576
14649W        W78417  26.179  42.508   2.180
14650W        W78418   6.244  40.952  12.469
14651W        W78419  19.143   1.772  10.995
14652W        W78420  38.025  38.388  13.041
14653W        W78421  18.071  34.962  13.823
14654W        W78422  42.818  40.517   0.855
14655W        W78423  24.127   2.730  14.879
14656W        W78424  16.694  28.125   4.785
14657W        W78425  32.012  22.599   0.384
14658W        W78426  29.531   7.872  13.006
14659W        W78427  28.598  40.508   4.689
14660W        W78428  35.852  15.270   2.345
14661W        W78429   2.946   0.845   1.400
14662W        W78430  33.877  17.700  14.399
14663W        W78431   6.396  41.798  11.049
14664W        W78432  36.537  44.006   2.225
14665W        W78433  15.140  17.650  14.450
14666W        W78434  41.011  34.040   1.224
14667W        W78435   5.319  24.700   1.699
14668W        W78436  41.383  43.511   0.282
14669W        W78437  21.597  41.942  14.296
14670W        W78438   4.210  24.511   2.349
14671W        W78439  29.932  11.661   0.781
14672W        W78440  17.187  32.040  13.340
14673W        W78441  11.281  16.619   0.796
14674W        W78442  25.519  31.421   9.538
14675W        W78443  10.725  39.999  12.057
14676W        W78444  39.355  23.107   2.786
14677W        W78445  40.347  26.164   1.251
14678W        W78446  35.416   9.182  11.076
14679W        W78447   3.920  35.084  14.420
14680W        W78448  37.508   3.948   4.185
14681W        W78449   4.719  44.936  14.030
14682W        W78450   2.733  13.611  10.430
14683W        W78451  25.705  44.280   1.930
14684W        W78452   1.876  14.759  12.926
14685W        W78453  36.503  20.673  12.907
14686W        W78454  16.298   4.217  14.483
14687W        W78455  26.488  14.302  10.529
14688W        W78456   4.869  11.228   0.322
14689W        W78457   4.434  10.278  10.606
14690W        W78458   5.920  18.280  12.542
14691W        W78459  20.231  43.888  13.472
14692W        W78460   9.777   8.183  12.083
14693W        W78461   0.493   8.707  14.818
14694W        W78462  15.731  16.610   3.636
14695W        W78463  15.286  23.109  14.787
14696W        W78464  17.731  13.799   3.649
14697W        W78465  33.524  40.995  10.077
14698W        W78466  10.686   2.326  14.988
14699W        W78467  32.593  34.422  10.440
14700W        W78468   6.304  11.358   4.256
14701W        W78469  12.162  21.606  13.496
14702W        W78470  36.391   4.384   0.431
14703W        W78471  25.990  13.107   1.749
14704W        W78472   9.366   3.434  13.436
14705W        W78473  27.616  21.713   0.817
14706W        W78474  16.217  13.276   3.257
14707W        W78475  25.062  17.244   0.248
14708W        W78476  10.329  14.773   5.214
14709W        W78477  36.572  41.516  13.313
14710W        W78478  15.263  28.452   2.770
14711W        W78479  36.944  41.480  12.342
14712W        W78480  19.676  20.044   1.897
14713W        W78481  44.996  44.981   2.416
14714W        W78482   8.874   9.151  11.966
14715W        W78483  41.535   1.911  14.952
14716W        W78484  16.077  14.613  11.536
14717W        W78485  20.158  35.600   3.811
14718W        W78486   3.868  40.958  14.019
14719W        W78487  40.412  42.919  14.411
14720W        W78488   7.244  23.057   3.734
14721W        W78489  23.076   3.298   3.248
14722W        W78490  11.698  44.423   3.696
14723W        W78491  43.902  27.687  11.597
14724W        W78492  14.189   7.271   3.356
14725W        W78493  38.985  11.131  14.360
14726W        W78494  16.136   4.412  14.927
14727W        W78495  40.398  31.473   1.417
14728W        W78496  42.019  27.141  10.894
14729W        W78497  42.850  15.625  11.478
14730W        W78498   1.958   9.720   1.287
14731W        W78499   9.803  43.846   3.846
14732W        W78500  15.689  18.211   0.966
14733W        W78501   8.380  34.096  12.415
14734W        W78502  18.231  22.508   1.762
14735W        W78503  15.644  42.929  10.974
14736W        W78504   3.949  14.319  13.320
14737W        W78505  30.115  21.219  13.014
14738W        W78506  14.766  10.273   2.401
14739W        W78507  38.940  14.105  11.026
14740W        W78508  39.840  25.658   0.352
14741W        W78509  32.921   4.229   2.184
14742W        W78510   1.287  36.372  14.384
14743W        W78511  38.881  32.956   5.115
14744W        W78512  12.750  14.729   3.236
14745W        W78513  37.014  26.190  12.864
14746W        W78514   0.924   2.919   1.913
14747W        W78515  42.408   4.811   4.240
14748W        W78516  34.387   2.296   1.379
14749W        W78517  21.755  35.530  11.861
14750W        W78518  40.341  28.076  10.066
14751W        W78519  38.050   4.914   0.857
14752W        W78520  16.605  27.535   2.219
14753W        W78521   7.345   7.771   2.826
14754W        W78522  40.009   0.386  11.484
14755W        W78523  44.010  25.593   0.968
14756W        W78524  38.859  10.636  13.439
14757W        W78525  13.305  40.377   3.373
14758W        W78526  33.118  11.685   1.402
14759W        W78527   7.707  19.546   3.193
14760W        W78528  27.640  41.329   0.868
14761W        W78529  36.417  32.099  10.567
14762W        W78530  30.931  25.642   4.726
14763W        W78531   4.882  18.581  12.938
14764W        W78532  38.539  14.200  13.460
14765W        W78533  24.982  28.672  12.508
14766W        W78534  28.467   9.366   4.669
14767W        W78535  13.140  40.437   1.361
14768W        W78536  21.536  38.821  13.870
14769W        W78537  40.948  38.862   1.249
14770W        W78538  10.685  31.001   4.780
14771W        W78539  23.620  36.900   9.957
14772W        W78540   2.858   4.930   0.299
14773W        W78541  21.167  15.128  14.409
14774W        W78542   0.383  21.245  13.906
14775W        W78543   0.392  42.027  11.974
14776W        W78544   4.325  34.004  12.079
14777W        W78545   7.688  35.048   2.677
14778W        W78546  33.399  30.152   2.875
14779W        W78547  33.573  42.880   5.147
14780W        W78548  44.442  41.353   1.407
14781W        W78549   4.360  43.899   4.251
14782W        W78550  10.645  32.509  10.429
14783W        W78551  34.930  24.583  10.433
14784W        W78552  23.191  33.970   3.236
14785W        W78553   6.275  33.946   1.700
14786W        W78554  26.664   2.789  14.792
14787W        W78555  30.596  38.414  12.968
14788W        W78556  24.515   3.836  12.356
14789W        W78557  26.613  42.524   1.700
14790W        W78558   5.327  14.222   2.276
14791W        W78559  25.645  27.950  11.409
14792W        W78560  32.426   5.777  11.397
14793W        W78561   7.371  36.958  12.453
14794W        W78562  19.566  20.748  13.529
14795W        W78563  27.600   6.881  13.477
14796W        W78564  28.445   0.821   2.901
14797W        W78565   2.350  20.197   2.197
14798W        W78566  21.740  28.544  14.760
14799W        W78567  21.566  44.486   3.292
14800W        W78568  31.009  19.601  12.533
14801W        W78569  14.692  21.679   2.393
14802W        W78570   6.884  37.903   0.734
14803W        W78571  32.938  28.126   1.895
14804W        W78572  23.121  31.004  12.558
14805W        W78573   9.213   8.227   3.315
14806W        W78574  44.879  29.038  13.354
14807W        W78575  44.761  20.231  12.053
14808W        W78576   3.215  32.422  14.784
14809W        W78577   2.931  34.382   1.273
14810W        W78578  44.845  30.093  13.834
14811W        W78579  38.391  14.155   3.824
14812W        W78580  41.875  15.695  10.004
14813W        W78581  28.435  26.081  14.345
14814W        W78582  12.261  16.721  14.414
14815W        W78583  34.985  36.938   2.845
14816W        W78584  23.505  44.884  13.359
14817W        W78585  19.237   4.795  11.608
14818W        W78586  35.961  22.156  13.368
14819W        W78587  16.636  14.773   4.635
14820W        W78588  11.781   1.796  12.033
14821W        W78589  44.377  33.598  13.438
14822W        W78590  40.958  31.035  12.963
14823W        W78591  13.682  24.541  12.529
14824W        W78592  19.239   3.253   3.691
14825W        W78593  44.460   8.301  11.407
14826W        W78594  40.989  38.902  12.377
14827W        W78595   1.432  42.969  12.910
14828W        W78596  34.376  35.465  14.795
14829W        W78597  16.259  18.217  10.902
14830W        W78598  44.822  34.061   3.156
14831W        W78599  35.498   9.719  12.414
14832W        W78600   4.738  36.388  12.924
14833W        W78601  27.689  35.872   1.384
14834W        W78602   3.265  28.578  14.412
14835W        W78603  35.872  13.275   3.834
14836W        W78604  29.649   8.776   4.828
14837W        W78605   9.164  38.510   3.855
14838W        W78606  23.721   7.897  12.512
14839W        W78607   1.471  33.024  10.010
14840W        W78608  17.611   5.372  10.507
14841W        W78609  30.459  33.391  14.342
14842W        W78610  16.747  20.649   0.384
14843W        W78611   5.347  35.003   4.236
14844W        W78612  43.766  25.673   2.849
14845W        W78613  36.947  33.546  10.565
14846W        W78614  30.117   8.746  11.044
14847W        W78615  11.146  23.077  11.519
14848W        W78616  28.674  40.366   2.205
14849W        W78617  36.885  12.629  10.601
14850W        W78618  12.699  16.699   1.259
14851W        W78619  31.491  38.971  14.385
14852W        W78620  22.581  38.404  14.999
14853W        W78621  34.411  10.145   0.263
14854W        W78622  27.128  44.898   1.386
14855W        W78623  28.541  35.464   4.606
14856W        W78624   2.925  18.779  14.374
14857W        W78625   5.410  25.166   1.844
14858W        W78626  44.438  38.524  10.562
14859W        W78627  11.264   2.378  11.412
14860W        W78628  10.638  28.026  13.018
14861W        W78629  22.615  16.626  13.941
14862W        W78630  35.553  16.772  11.417
14863W        W78631   6.382   6.699   0.432
14864W        W78632  32.130  42.803   2.884
14865W        W78633  44.337  30.136  13.926
14866W        W78634   4.433   2.399  11.950
14867W        W78635  19.589  24.223  11.938
14868W        W78636  41.456  40.982   0.465
14869W        W78637  41.967  37.577  10.130
14870W        W78638  18.619  35.985   2.417
14871W        W78639  41.533  28.479   4.731
14872W        W78640   3.840  20.627   3.241
14873W        W78641  19.168  23.184   4.600
14874W        W78642  35.438   1.948   3.756
14875W        W78643   6.315  12.151  14.997
14876W        W78644  22.552   0.816   1.412
14877W        W78645   1.321   5.335   1.804
14878W        W78646   5.904  19.164  10.411
14879W        W78647  11.279  43.515   2.689
14880W        W78648  14.642   1.942   4.260
14881W        W78649  34.041   0.449   0.384
14882W        W78650  23.004  23.634  11.077
14883W        W78651  42.869  12.681  11.436
14884W        W78652  17.598  40.461   2.849
14885W        W78653  38.532  20.710   3.709
14886W        W78654  34.007  24.490   1.785
14887W        W78655   8.282  25.181  14.416
14888W        W78656  27.479  22.050  12.431
14889W        W78657  14.334   6.694  13.537
14890W        W78658   2.320  43.877  11.860
14891W        W78659  31.414  21.134   3.339
14892W        W78660  23.131  34.593   0.836
14893W        W78661   0.949  43.417  14.781
14894W        W78662   3.741  11.738  10.584
14895W        W78663  37.576  28.586  11.452
14896W        W78664  31.915   2.231   2.829
14897W        W78665   6.264  44.994  13.379
14898W        W78666  32.567   0.354  14.467
14899W        W78667  25.038   4.301   0.867
14900W        W78668  16.087  21.690  11.601
14901W        W78669  43.928  36.536   2.849
14902W        W78670  25.644   1.447  11.507
14903W        W78671   5.396  22.042   2.275
14904W        W78672  39.461  22.723  14.936
14905W        W78673  38.406  28.625  10.946
14906W        W78674  11.266  11.808   2.725
14907W        W78675   8.725  44.821  14.823
14908W        W78676  29.613  29.459  13.934
14909W        W78677   8.266  21.716  13.320
14910W        W78678  30.426   0.467  12.510
14911W        W78679  31.565  10.636  12.379
14912W        W78680  41.903   9.822   0.891
14913W        W78681   5.439  11.716  14.299
14914W        W78682  35.430  20.103  11.969
14915W        W78683  37.511   1.741  13.489
14916W        W78684   9.777   2.306  10.606
14917W        W78685   3.803  31.647   1.322
14918W        W78686  26.590  14.107   1.694
14919W        W78687  14.252   0.434   1.714
14920W        W78688  13.670  18.191   3.161
14921W        W78689   1.466   0.422  10.613
14922W        W78690  35.983  44.968   3.655
14923W        W78691  37.068  37.479  14.802
14924W        W78692  30.569   3.220   1.436
14925W        W78693  42.407  16.229   3.727
14926W        W78694  35.057  34.969   3.632
14927W        W78695  40.454  21.722   4.193
14928W        W78696  14.303  12.758   5.249
14929W        W78697  28.986  10.734   3.824
14930W        W78698   3.262  38.362  12.408
14931W        W78699  23.151   1.298  12.022
14932W        W78700  21.073  41.988  12.043
14933W        W78701  41.835  24.631  10.588
14934W        W78702  43.868   9.387  11.091
14935W        W78703  10.849  11.771  11.017
14936W        W78704   1.741   2.788   3.262
14937W        W78705  20.184  40.849   3.769
14938W        W78706  31.050  13.302   2.875
14939W        W78707  15.284   1.364  14.820
14940W        W78708  33.905  24.121  14.417
14941W        W78709  16.742  28.034  12.970
14942W        W78710  14.299  26.995   4.267
14943W        W78711  10.838  27.652   0.918
14944W        W78712  26.613  10.364   3.862
14945W        W78713  32.503   2.363   1.739
14946W        W78714   6.703  44.819   1.767
14947W        W78715  37.869  24.632   0.400
14948W        W78716   3.304  25.099  13.961
14949W        W78717  11.791  14.172   2.246
14950W        W78718  20.147  41.320  13.337
14951W        W78719   7.717  17.067  13.008
14952W        W78720  29.435  34.047  11.372
14953W        W78721   6.334  12.309   0.824
14954W        W78722   3.360   2.776   4.824
14955W        W78723   9.381  30.034   3.298
14956W        W78724  25.531   5.249  14.872
14957W        W78725  22.086  39.056   3.654
14958W        W78726  13.166  15.689  10.945
14959W        W78727  43.804  12.194   0.821
14960W        W78728  30.910  36.557  13.986
14961W        W78729  20.718  35.427   5.186
14962W        W78730  12.172  22.747   0.954
14963W        W78731  20.176  26.643   0.279
14964W        W78732  11.720  13.201   4.772
14965W        W78733   1.344  14.620  13.031
14966W        W78734   1.955  20.273   0.269
14967W        W78735  31.645  16.219   3.220
14968W        W78736  31.126   8.666  13.520
14969W        W78737  19.680  32.393  14.456
14970W        W78738  10.336  41.985   0.800
14971W        W78739  37.003  20.109   2.249
14972W        W78740  26.677  29.438  10.475
14973W        W78741  29.567  21.169  14.945
14974W        W78742   9.669  32.113   2.887
14975W        W78743  24.528  29.983   4.151
14976W        W78744   9.229  44.418   4.715
14977W        W78745  17.767   9.877  14.320
14978W        W78746  28.048   7.248  14.779
14979W        W78747  44.924  24.614  10.497
14980W        W78748  44.332   8.270   3.702
14981W        W78749  14.293  35.897   0.302
14982W        W78750  31.153  35.923   1.777
14983W        W78751  13.284  26.604   1.932
14984W        W78752  43.876  19.113   2.858
14985W        W78753  22.076   4.259   2.716
14986W        W78754  22.095  31.950  14.460
14987W        W78755   8.384   6.894   1.271
14988W        W78756  19.201  41.532  13.503
14989W        W78757  14.176   0.900   0.822
14990W        W78758  43.507  15.143   4.827
14991W        W78759  34.595   5.196   1.391
14992W        W78760  40.541  36.528   4.618
14993W        W78761   5.243  41.333  12.510
14994W        W78762  22.093   0.978   4.253
14995W        W78763  19.551   6.353  12.842
14996W        W78764   4.913  13.338  11.418
14997W        W78765   7.873  40.303   1.278
14998W        W78766  14.149  40.382   0.760
14999W        W78767   2.386  33.078  14.858
15000W        W78768  11.334   0.893  10.417
15001W        W78769  22.570  43.392   3.164
15002W        W78770  34.561  11.756  10.414
15003W        W78771  34.992  11.198  11.524
15004W        W78772  40.331  30.504   4.140
15005W        W78773  38.024  31.629   3.269
15006W        W78774  36.494  36.448   3.256
15007W        W78775  35.412  16.674   0.444
15008W        W78776  19.748  36.976  13.307
15009W        W78777  27.952  18.148  11.046
15010W        W78778  18.661  37.496   5.146
15011W        W78779  25.042  10.215   2.249
15012W        W78780   2.798  10.748  13.821
15013W        W78781  26.688  43.845   0.379
15014W        W78782  41.039  18.083   3.234
15015W        W78783  14.631  33.936   2.855
15016W        W78784  22.577  43.413   1.833
15017W        W78785  36.459  22.694   3.157
15018W        W78786   1.317  11.800  14.943
15019W        W78787  35.379  36.029  13.951
15020W        W78788  28.524  23.633  14.497
15021W        W78789  21.670  11.862   1.743
15022W        W78790   4.255  27.172   0.826
15023W        W78791  13.833  24.111  10.019
15024W        W78792  13.837  16.171   2.803
15025W        W78793   7.341  44.428  10.953
15026W        W78794  20.578   8.402   4.659
15027W        W78795  41.996   4.705  12.092
15028W        W78796  25.555  35.946  13.516
15029W        W78797  43.488  18.247   1.337
15030W        W78798  17.230   8.853  13.823
15031W        W78799  43.301  40.445  14.974
15032W        W78800  30.989   0.322   1.226
15033W        W78801  13.730  30.598   2.253
15034W        W78802  43.961   9.354   3.810
15035W        W78803   4.255  40.432  11.956
15036W        W78804  39.389  35.395  14.004
15037W        W78805   2.943   8.659  11.900
15038W        W78806  17.561  29.441  12.841
15039W        W78807  15.722  15.771   3.793
15040W        W78808  20.078  35.442   2.728
15041W        W78809  15.760   9.709   1.698
15042W        W78810  31.947  10.844   0.296
15043W        W78811  20.121  38.489  12.483
15044W        W78812   4.321  27.660  14.465
15045W        W78813   5.251  40.025  13.542
15046W        W78814  32.614   4.783   4.624
15047W        W78815  37.007   5.214  14.869
15048W        W78816   3.248  32.446   1.366
15049W        W78817  19.241   9.337  12.007
15050W        W78818  10.731  33.621  11.873
15051W        W78819  35.100  23.232  13.033
15052W        W78820  16.808  10.876   0.749
15053W        W78821  12.657  17.609  10.644
15054W        W78822  42.351   4.444   1.759
15055W        W78823  38.855  24.121  12.838
15056W        W78824  31.990  19.073   1.243
15057W        W78825  28.647  22.683  14.939
15058W        W78826  30.022  41.837   2.392
15059W        W78827  34.540  33.031   4.276
15060W        W78828  12.729  20.631   4.716
15061W        W78829  26.992  26.514  14.819
15062W        W78830   0.356  10.357  14.838
15063W        W78831  34.896   3.227  10.992
15064W        W78832  23.203  14.594  14.429
15065W        W78833  26.182  27.507  11.405
15066W        W78834  38.825   2.314  12.431
15067W        W78835  39.824  40.985   2.884
15068W        W78836   4.353  31.143   2.409
15069W        W78837   9.852  35.494  11.999
15070W        W78838   5.380  15.584  14.785
15071W        W78839  21.102   2.453   4.210
15072W        W78840  39.894  29.947  11.375
15073W        W78841  43.405  19.730   2.199
15074W        W78842  27.539   5.243  13.348
15075W        W78843  36.414  43.818   0.370
15076W        W78844  23.681  29.962   3.692
15077W        W78845   6.683  39.462  12.844
15078W        W78846   2.744  38.924   5.226
15079W        W78847  27.131  44.885   4.237
15080W        W78848  33.552   6.390  10.930
15081W        W78849  16.097  21.070  12.560
15082W        W78850  24.504  36.955  12.886
15083W        W78851  31.968  33.444  12.031
15084W        W78852  38.943   4.775  11.929
15085W        W78853  32.041  23.198   2.248
15086W        W78854  30.959  17.590  13.851
15087W        W78855  11.177  19.624  12.404
15088W        W78856   2.271  28.589   1.808
15089W        W78857  12.187  30.918  11.914
15090W        W78858  23.056  42.809  11.404
15091W        W78859  42.957  22.612  14.881
15092W        W78860  35.918  23.578   3.308
15093W        W78861   5.772   2.338   0.956
15094W        W78862   1.898  43.944   2.268
15095W        W78863  15.297   5.741   2.360
15096W        W78864  42.008  18.227   2.799
15097W        W78865  12.277   7.234   2.224
15098W        W78866  34.552  33.426  13.937
15099W        W78867  14.594  26.568   3.208
15100W        W78868  12.122  30.520  10.547
15101W        W78869  35.558  39.372  14.949
15102W        W78870   9.865  31.959  12.050
15103W        W78871  15.161  35.906   3.225
15104W        W78872   6.865  34.899   1.927
15105W        W78873  18.623  35.463  14.508
15106W        W78874  24.593  14.297  12.547
15107W        W78875  11.672  31.502   4.236
15108W        W78876  35.033  18.207   4.726
15109W        W78877  43.792  23.491   4.813
15110W        W78878  29.053  29.045   3.809
15111W        W78879  22.675  12.660   1.881
15112W        W78880  23.578  33.560  13.903
15113W        W78881   0.279  29.144  12.536
15114W        W78882  12.255  29.950  13.324
15115W        W78883  41.453   7.857  14.369
15116W        W78884   6.711  25.962   3.243
15117W        W78885  33.889  19.156   1.746
15118W        W78886  10.716  18.783  10.585
15119W        W78887  30.568  15.186   1.869
15120W        W78888  38.839  39.976  13.798
15121W        W78889  27.038  17.624  14.851
15122W        W78890   3.231  17.616   2.761
15123W        W78891   2.856   9.835   2.330
15124W        W78892  34.990  35.875   2.881
15125W        W78893  27.599  36.001  14.873
15126W        W78894  22.070  12.169   4.730
15127W        W78895  33.991   8.737  13.853
15128W        W78896  26.690  43.296  13.932
15129W        W78897  22.687  17.565   4.630
15130W        W78898  39.541  25.028  12.547
15131W        W78899  14.334  31.629  14.411
15132W        W78900   8.189  11.143   3.691
15133W        W78901  34.554  43.902  12.416
15134W        W78902   9.705  27.504  11.576
15135W        W78903  42.351  14.713  14.945
15136W        W78904   6.196  33.013   3.288
15137W        W78905  41.991   5.917   1.337
15138W        W78906  25.114   5.304   1.749
15139W        W78907   9.826  23.138   0.898
15140W        W78908  23.144  10.338   4.827
15141W        W78909  30.412  17.203   0.435
15142W        W78910  28.030  41.996  14.291
15143W        W78911   7.762  44.477  11.501
15144W        W78912  23.687   1.856  12.831
15145W        W78913   0.960  29.008   3.668
15146W        W78914   4.896  43.469   3.719
15147W        W78915   2.310  14.210  12.851
15148W        W78916  13.162  40.003  14.413
15149W        W78917  18.673  27.453  12.826
15150W        W78918  25.489  28.163   0.416
15151W        W78919  19.285  13.198  10.484
15152W        W78920  11.249   9.169   3.828
15153W        W78921   3.261  19.590  10.058
15154W        W78922   2.430   1.778  12.930
15155W        W78923  30.961  30.057  14.886
15156W        W78924  19.768  39.983  10.550
15157W        W78925   3.798  16.240   2.183
15158W        W78926  24.182  15.146  12.845
15159W        W78927  27.192  11.796   0.842
15160W        W78928  38.849   4.922  14.905
15161W        W78929  32.020   0.785  12.833
15162W        W78930  24.025  28.632  10.422
15163W        W78931  17.675  38.843   1.356
15164W        W78932   0.477  14.681  12.409
15165W        W78933  34.428  15.659   0.250
15166W        W78934  23.994   8.277   4.763
15167W        W78935  21.111  23.989  13.892
15168W        W78936   5.291  40.044   4.619
15169W        W78937  24.586  21.720   3.670
15170W        W78938  12.238  29.431   0.294
15171W        W78939   7.241  27.623  12.575
15172W        W78940  42.967  36.482   3.825
15173W        W78941   1.748  22.207  10.599
15174W        W78942  22.145   7.805  13.936
15175W        W78943  35.582  39.005  13.064
15176W        W78944  18.112  15.118   2.202
15177W        W78945  34.980   1.866   1.840
15178W        W78946   4.416  32.947  13.324
15179W        W78947   1.252  26.589   3.348
15180W        W78948   2.878  34.089  10.578
15181W        W78949  31.965  15.657  11.114
15182W        W78950  10.206   7.178  13.063
15183W        W78951  12.192  38.515   4.286
15184W        W78952  21.038  35.867   4.612
15185W        W78953   3.878   4.433   3.758
15186W        W78954  35.949   9.789   4.778
15187W        W78955  34.614  39.402   0.450
15188W        W78956  12.333  24.977   3.753
15189W        W78957  33.995  22.638   1.445
15190W        W78958   7.360  24.998   2.862
15191W        W78959  34.437  32.453  11.882
15192W        W78960   7.254  44.821  13.971
15193W        W78961   4.785  37.414  11.042
15194W        W78962  25.208  29.068   4.318
15195W        W78963  26.487  21.666  12.064
15196W        W78964  31.998  12.849   1.759
15197W        W78965  40.916  28.669   4.210
15198W        W78966   0.932  36.567  13.841
15199W        W78967  21.512  19.151   0.364
15200W        W78968  31.898   9.760   3.302
15201W        W78969  37.978  14.753  10.404
15202W        W78970   4.826  16.676  13.415
15203W        W78971  32.395  16.204  11.922
15204W        W78972  31.914  22.010  13.518
15205W        W78973  18.636  28.538  10.636
15206W        W78974   4.926  17.600   3.238
15207W        W78975  31.949  22.742  14.016
15208W        W78976  42.299  21.681  11.450
15209W        W78977   0.430  31.537   4.739
15210W        W78978  36.585   8.877  12.407
15211W        W78979  33.045  17.261   3.287
15212W        W78980  27.041  43.372   0.824
15213W        W78981  10.199   3.275   0.837
15214W        W78982  22.705  31.945  11.382
15215W        W78983  26.167  33.464  11.971
15216W        W78984   9.255  44.466   0.942
15217W        W78985  35.424  28.661  11.897
15218W        W78986  17.731  31.111  11.981
15219W        W78987  25.547  35.446   3.383
15220W        W78988  21.049  28.514   4.800
15221W        W78989  22.657  43.496   3.788
15222W        W78990  20.251  17.774  14.354
15223W        W78991   3.403  10.785  11.109
15224W        W78992  11.866   0.437  10.615
15225W        W78993  35.028  11.789  11.087
15226W        W78994  13.300  23.150  11.117
15227W        W78995   0.903  38.554   1.915
15228W        W78996  32.439  23.546  10.055
15229W        W78997  12.793  24.529  11.917
15230W        W78998  14.319  37.019   4.737
15231W        W78999   0.800  44.856  10.595
15232W        W79000  34.082   9.374   4.751
15233W        W79001  43.986  15.618  14.439
15234W        W79002   8.239  40.938  12.038
15235W        W79003  36.031  22.202  14.881
15236W        W79004  38.471  40.949   2.300
15237W        W79005   4.356  41.386   2.379
15238W        W79006  22.623  14.143  11.901
15239W        W79007  44.380   3.818  10.621
15240W        W79008   5.856  42.404  11.018
15241W        W79009  29.095  21.539  11.497
15242W        W79010  22.695  34.522  10.420
15243W        W79011  20.622  24.576  11.990
15244W        W79012  17.186  17.613   2.792
15245W        W79013  17.767   3.843   1.778
15246W        W79014  12.725  16.211   4.200
15247W        W79015  39.066  10.819   2.751
15248W        W79016   9.250  11.669   3.719
15249W        W79017  15.800   5.309  14.767
15250W        W79018  21.018  16.182   4.161
15251W        W79019  33.124  10.777  13.867
15252W        W79020  11.143  36.449  14.986
15253W        W79021  25.173   1.892  12.527
15254W        W79022  12.847  37.402   2.200
15255W        W79023   3.878  30.452  14.377
15256W        W79024   0.819   2.461   1.798
15257W        W79025  29.425  40.043   1.427
15258W        W79026  15.222   2.444   1.452
15259W        W79027  25.672   5.194   1.325
15260W        W79028  26.113  37.848  11.556
15261W        W79029  11.135  15.795  11.577
15262W        W79030  10.171  26.517   4.812
15263W        W79031  22.063  32.541  13.945
15264W        W79032  18.067   8.401  10.916
15265W        W79033  22.638  33.444   5.215
15266W        W79034  13.692  10.201  12.090
15267W        W79035  44.787  27.966  10.051
15268W        W79036   1.284  29.109   0.830
15269W        W79037  20.175  28.990  14.463
15270W        W79038   0.355  22.153   0.896
15271W        W79039  10.231  42.835  10.889
15272W        W79040  35.554  29.118  13.990
15273W        W79041   8.197   3.726  13.490
15274W        W79042  23.040  31.909  12.413
15275W        W79043  26.206  44.996   3.378
15276W        W79044  22.240  15.271  14.413
15277W        W79045  43.010   9.705  10.443
15278W        W79046  40.549   4.210  11.379
15279W        W79047  10.383  32.601  10.474
15280W        W79048  28.151  19.042  10.034
15281W        W79049   2.746   6.722   4.632
15282W        W79050  21.727   0.905   0.827
15283W        W79051  14.158  12.807   0.858
15284W        W79052  32.961  44.441   1.748
15285W        W79053  21.261   4.702   1.866
15286W        W79054   3.853  30.601  14.985
15287W        W79055  11.786  38.562   0.930
15288W        W79056  31.473   1.883  12.017
15289W        W79057  44.279   8.749   1.849
15290W        W79058  25.984  11.649  11.870
15291W        W79059  23.990   3.383   2.312
15292W        W79060  41.808  15.655  10.574
15293W        W79061   3.414  10.737   0.425
15294W        W79062  13.668   1.743  11.436
15295W        W79063   8.823  41.337   0.276
15296W        W79064  34.390  30.992  13.009
15297W        W79065   7.176  42.031   5.246
15298W        W79066  12.282  20.723  10.578
15299W        W79067  18.565  30.060   2.728
15300W        W79068  30.558  13.613   2.734
15301W        W79069   0.913   3.361  13.842
15302W        W79070  44.285  21.208   2.368
15303W        W79071   1.825  44.997   3.150
15304W        W79072  42.029  36.423  12.386
15305W        W79073  41.414  30.595   1.269
15306W        W79074   7.728   9.703  13.922
15307W        W79075   3.330  17.772   0.334
15308W        W79076  36.553  23.555   2.866
15309W        W79077  31.023  19.232   3.261
15310W        W79078   2.805  32.423  13.399
15311W        W79079  35.498  39.337   2.687
15312W        W79080   0.392  41.835   0.759
15313W        W79081  42.936  34.060   2.326
15314W        W79082  23.028  16.656   0.967
15315W        W79083   2.252   4.445  12.523
15316W        W79084  44.491  28.047  11.525
15317W        W79085   6.344   4.872   2.401
15318W        W79086   4.422  26.505   0.767
15319W        W79087  11.765  31.141   3.319
15320W        W79088  21.697  29.533  11.019
15321W        W79089   6.341  10.280  13.003
15322W        W79090  20.100  16.285  11.553
15323W        W79091  30.473  37.990  12.846
15324W        W79092  18.078  38.829   0.352
15325W        W79093  28.668  26.670   4.236
15326W        W79094  32.421   7.187   3.845
15327W        W79095  13.108  40.982   2.802
15328W        W79096   7.857  39.386  11.371
15329W        W79097  22.735  21.585  11.576
15330W        W79098  37.931   5.690  13.840
15331W        W79099  13.747  35.068   0.434
15332W        W79100   3.277  34.934  12.004
15333W        W79101   8.815  34.582  14.843
15334W        W79102  27.133  42.864   5.163
15335W        W79103  29.172   1.811  10.924
15336W        W79104  30.614  31.022  13.493
15337W        W79105   5.830  37.540  13.411
15338W        W79106  17.785  13.689  11.101
15339W        W79107  43.362  28.576   0.865
15340W        W79108  42.447  33.493  10.438
15341W        W79109  36.062   2.367  12.051
15342W        W79110  35.036   1.970   2.268
15343W        W79111  20.649  27.460   4.623
15344W        W79112  37.047  41.404  13.376
15345W        W79113   0.350  34.558   4.644
15346W        W79114   0.383  40.932  13.857
15347W        W79115  20.678  16.192  10.951
15348W        W79116   7.221  19.142   3.668
15349W        W79117  30.088  19.731   1.843
15350W        W79118  24.503  27.567  14.775
15351W        W79119   2.432  33.110  12.833
15352W        W79120  29.477   4.865   2.411
15353W        W79121   3.854  35.524  10.451
15354W        W79122  36.932   6.244   5.758
15355W        W79123  12.642   2.916   1.395
15356W        W79124   5.211  10.258   2.847
15357W        W79125  35.566  39.041  10.941
15358W        W79126  16.596   7.780  14.026
15359W        W79127  29.462  42.287  13.860
15360W        W79128   7.283   7.769  13.504
15361W        W79129   7.711  27.983   2.845
15362W        W79130   3.744   8.850   0.254
15363W        W79131   3.899   8.858  11.608
15364W        W79132  21.758  23.164   2.772
15365W        W79133  35.394  35.922   4.201
15366W        W79134   0.274  27.551   2.224
15367W        W79135  44.343  15.323  13.422
15368W        W79136  30.911  33.963  13.370
15369W        W79137  38.961  21.185  12.923
15370W        W79138  29.447  22.712   1.922
15371W        W79139  26.489   6.691  12.999
15372W        W79140  35.360   5.373   4.658
15373W        W79141   9.316  40.982   4.743
15374W        W79142  26.995   7.677   2.815
15375W        W79143   1.797  16.699  14.762
15376W        W79144  24.541  44.805  12.374
15377W        W79145  24.591  18.544  12.465
15378W        W79146  37.526  21.141   1.232
15379W        W79147  29.457  22.564  13.944
15380W        W79148  17.170  37.520  14.327
15381W        W79149  37.380  38.531  11.482
15382W        W79150  10.181  40.962  12.036
15383W        W79151  20.528  21.030  13.020
15384W        W79152  16.150  29.977  13.316
15385W        W79153  23.088  41.364   0.959
15386W        W79154  17.719  44.917  14.509
15387W        W79155  36.900   8.174   1.842
15388W        W79156  43.819  22.573  11.377
15389W        W79157  11.160  26.668  13.815
15390W        W79158   8.182  30.495   0.362
15391W        W79159  22.628   6.681  11.385
15392W        W79160  37.049  26.607  14.970
15393W        W79161  25.985  23.559   4.728
15394W        W79162   4.403   8.350   3.633
15395W        W79163   6.904   6.311   4.711
15396W        W79164   9.822  15.111   0.957
15397W        W79165   6.783  32.475  10.592
15398W        W79166  15.716  20.043   3.822
15399W        W79167  25.994  14.758  10.108
15400W        W79168   5.902  17.087  13.403
15401W        W79169   3.327   9.791  14.476
15402W        W79170  24.229  39.531   0.799
15403W        W79171   5.336  24.563  12.406
15404W        W79172   1.978  39.488   1.398
15405W        W79173   7.763  42.515  13.054
15406W        W79174  42.029   3.830   4.263
15407W        W79175  10.338  35.893   2.235
15408W        W79176  36.593  33.435  11.887
15409W        W79177   5.246  14.225   0.281
15410W        W79178   5.728  41.914  14.890
15411W        W79179  31.606  22.563  14.890
15412W        W79180   0.907  38.992   1.346
15413W        W79181  40.898  31.998  11.898
15414W        W79182  34.981  44.999  14.514
15415W        W79183  18.621  24.007  11.929
15416W        W79184  23.609   0.347  11.391
15417W        W79185   7.792  30.469  12.074
15418W        W79186  21.670   2.470  14.481
15419W        W79187  23.081  24.011   3.771
15420W        W79188  10.858  24.663  11.536
15421W        W79189  40.334  26.655   5.129
15422W        W79190  10.232  39.809  11.015
15423W        W79191  25.101  18.665  14.857
15424W        W79192   9.213  20.651   2.304
15425W        W79193  20.164  22.570   2.249
15426W        W79194  39.477  25.166  10.527
15427W        W79195  44.322  27.549   3.335
15428W        W79196   6.371  38.889  12.894
15429W        W79197  39.020   8.329   4.225
15430W        W79198  30.951  14.649   3.214
15431W        W79199   8.734  40.369   4.766
15432W        W79200  41.328  44.845   0.846
15433W        W79201  21.726  11.676   0.410
15434W        W79202  23.511  19.646  10.505
15435W        W79203  26.037  15.746   1.837
15436W        W79204  36.567  15.135  14.892
15437W        W79205  37.849  36.363  14.914
15438W        W79206  26.114   9.231  14.764
15439W        W79207   8.793  32.016   3.742
15440W        W79208   5.881   7.884   1.310
15441W        W79209  32.588  40.816  11.890
15442W        W79210   1.911  11.252  11.901
15443W        W79211  38.505  40.938   3.805
15444W        W79212  44.886  38.061   3.240
15445W        W79213  36.410  11.621  10.413
15446W        W79214  20.154  25.544   4.646
15447W        W79215  12.771  44.904  12.978
15448W        W79216   1.766  33.966  13.374
15449W        W79217  13.308  34.946   3.760
15450W        W79218  17.725  14.813  13.956
15451W        W79219   4.385  19.676   3.739
15452W        W79220  27.478  35.406   5.321
15453W        W79221  20.096  11.849   2.288
15454W        W79222  13.188   5.335   1.827
15455W        W79223  34.604  23.075  12.539
15456W        W79224  36.480  29.540   3.742
15457W        W79225  34.490   6.746  14.447
15458W        W79226  10.668  29.923  13.961
15459W        W79227  40.965   2.233  11.502
15460W        W79228  24.067  18.762   4.342
15461W        W79229  30.016  12.623  12.404
15462W        W79230  37.530   2.752  13.842
15463W        W79231  17.162  43.478  14.810
15464W        W79232  35.917  10.302  11.373
15465W        W79233  20.728  22.519   2.687
15466W        W79234  19.589   8.833   2.723
15467W        W79235   5.763  22.667  14.838
15468W        W79236  13.694  36.842   1.781
15469W        W79237  22.225  43.481  12.534
15470W        W79238  16.730   3.218   3.160
15471W        W79239  41.928  27.094   2.244
15472W        W79240  24.597  28.655   1.833
15473W        W79241  25.509  10.228   2.770
15474W        W79242  26.583   6.727  11.964
15475W        W79243  29.930  32.012  14.338
15476W        W79244  24.210  23.706   4.804
15477W        W79245  13.254  36.582  11.438
15478W        W79246  31.034  33.570   1.705
15479W        W79247   5.234  39.859  10.629
15480W        W79248   4.279  42.311  10.627
15481W        W79249  15.162  20.598  10.618
15482W        W79250   8.699   0.945  12.985
15483W        W79251  10.193  37.545  10.916
15484W        W79252  30.052  31.153   0.747
15485W        W79253  27.609  24.055  14.500
15486W        W79254  23.207  25.963  13.956
15487W        W79255  37.391  17.083   4.734
15488W        W79256  25.977  35.907  14.370
15489W        W79257  38.975  38.878  10.145
15490W        W79258   0.919  31.008   4.715
15491W        W79259  29.444  17.566   4.805
15492W        W79260   3.749  13.772   4.263
15493W        W79261  29.023  13.796   1.815
15494W        W79262   5.205   1.348  14.777
15495W        W79263  26.522   0.401  11.489
15496W        W79264  12.678  30.134  14.984
15497W        W79265  43.016   2.813  11.609
15498W        W79266  26.561  30.962   0.892
15499W        W79267   3.750   1.847   5.106
15500W        W79268  20.258  14.716   3.835
15501W        W79269  20.198  18.615  13.991
15502W        W79270  43.284  41.471   2.806
15503W        W79271   8.746  26.126  13.929
15504W        W79272  15.129  21.742   3.702
15505W        W79273  29.614   6.698   1.774
15506W        W79274   7.321   4.939  13.480
15507W        W79275  44.503  17.629   4.257
15508W        W79276   5.211   4.760  10.529
15509W        W79277  28.510  21.525   3.147
15510W        W79278   5.857  33.492  11.880
15511W        W79279  43.007  43.449   0.250
15512W        W79280  42.323  29.125   3.242
15513W        W79281  26.975  19.209   3.705
15514W        W79282   8.805   5.200  13.977
15515W        W79283  19.261  21.573   3.643
15516W        W79284  14.790  22.034   2.823
15517W        W79285  28.933   3.272   0.957
15518W        W79286  17.105  32.424  13.347
15519W        W79287  11.721  34.897  10.942
15520W        W79288  30.545  25.611  13.008
15521W        W79289  37.831  32.971  10.408
15522W        W79290  23.008  37.414   4.748
15523W        W79291   7.898  19.702  14.945
15524W        W79292   2.255  26.572  13.329
15525W        W79293  33.892  33.073  11.047
15526W        W79294   7.195  44.464  13.827
15527W        W79295   2.412  10.279  14.901
15528W        W79296  40.021   3.241   4.685
15529W        W79297   5.260   0.759  11.408
15530W        W79298  20.107  44.766   2.361
15531W        W79299  10.146  42.913   4.293
15532W        W79300  26.595  22.701   2.323
15533W        W79301  31.430  14.308  10.097
15534W        W79302  31.933  33.498   2.741
15535W        W79303  37.547  24.117  10.505
15536W        W79304  31.565  41.350   0.474
15537W        W79305   7.322  15.280  12.856
15538W        W79306  40.453   7.778   3.151
15539W        W79307  33.516  29.994  12.907
15540W        W79308  13.600   2.721  10.583
15541W        W79309  17.256   6.312  12.966
15542W        W79310  21.183   7.232   1.255
15543W        W79311  29.081  11.705   4.228
15544W        W79312   5.874  25.691   0.783
15545W        W79313   0.359  19.759   0.962
15546W        W79314  24.228  22.125  12.035
15547W        W79315  21.197   6.310   0.413
15548W        W79316  20.068  30.437   3.805
15549W        W79317  44.343  43.444   0.433
15550W        W79318  13.668  29.035  11.884
15551W        W79319  37.485  21.719  13.414
15552W        W79320  17.786  29.172   3.343
15553W        W79321  25.116   5.828  14.315
15554W        W79322  18.601  16.655   3.785
15555W        W79323  39.998  22.694  13.064
15556W        W79324  35.411  11.347  11.465
15557W        W79325  31.149  35.495   1.891
15558W        W79326  18.228  27.610   0.767
15559W        W79327   7.785  38.864   0.262
15560W        W79328  34.972  12.214  13.343
15561W        W79329   8.700  41.442   2.742
15562W        W79330  36.081  14.696  14.007
15563W        W79331  21.704  28.470  11.875
15564W        W79332   3.224  40.340   2.875
15565W        W79333   5.271  27.161  13.849
15566W        W79334  41.813  26.010  12.432
15567W        W79335  15.133  36.003  11.939
15568W        W79336  17.170  36.515   0.394
15569W        W79337  21.566  29.981   2.390
15570W        W79338  22.160  44.349   4.790
15571W        W79339   7.787   9.774   0.879
15572W        W79340   4.768  19.039   3.640
15573W        W79341  28.956  26.101  12.508
15574W        W79342  13.738  35.976   4.630
15575W        W79343   0.831   6.883  12.868
15576W        W79344   1.774  23.726  12.917
15577W        W79345  24.122   2.870   2.856
15578W        W79346  24.123   7.806   0.955
15579W        W79347  24.055  44.391  13.376
15580W        W79348   1.463  19.121   3.659
15581W        W79349  28.116  41.493   4.233
15582W        W79350  30.910  33.508  12.953
15583W        W79351  15.622   1.796  11.019
15584W        W79352  38.494  15.792  14.025
15585W        W79353  37.546  14.793  12.826
15586W        W79354   4.878  34.961  10.580
15587W        W79355   5.347  31.016  10.510
15588W        W79356  34.979  22.673   1.230
15589W        W79357  23.629  33.108   1.365
15590W        W79358  30.057  41.462   4.141
15591W        W79359  14.281  44.916  12.840
15592W        W79360   5.315   1.797   2.885
15593W        W79361  33.920  19.269  12.370
15594W        W79362  18.643  28.159   1.875
15595W        W79363  13.829  36.523  10.574
15596W        W79364   2.940  37.562   5.081
15597W        W79365   0.812  19.063   2.256
15598W        W79366  23.570  16.661  13.438
15599W        W79367  24.073  35.599  14.515
15600W        W79368   6.872   0.389  13.954
15601W        W79369  40.966  37.941  13.965
15602W        W79370  43.320  37.862   0.283
15603W        W79371  31.108   3.286   1.253
15604W        W79372  41.443  31.455   0.755
15605W        W79373  16.134  15.695  12.404
15606W        W79374   9.730  22.070  12.000
15607W        W79375  25.171  12.804  13.973
15608W        W79376  35.057  22.597  14.987
15609W        W79377  12.267  27.172  12.058
15610W        W79378  15.261  38.861  14.793
15611W        W79379  20.189  15.671  10.583
15612W        W79380  29.975  31.529  13.363
15613W        W79381   2.900  39.909  10.501
15614W        W79382  27.594  17.743   0.471
15615W        W79383  33.380  29.986   2.267
15616W        W79384  23.723  40.329   0.473
15617W        W79385  13.341  23.710  10.941
15618W        W79386  20.705  25.713   2.723
15619W        W79387   3.271  25.639  12.482
15620W        W79388  43.015  26.136  13.826
15621W        W79389  11.757  27.174   4.208
15622W        W79390  30.540  10.791   3.777
15623W        W79391  33.508  15.282   4.612
15624W        W79392  15.120  44.838   1.778
15625W        W79393  37.507  30.132  14.378
15626W        W79394   8.657  27.072  12.560
15627W        W79395   4.778   1.820   1.447
15628W        W79396  11.699  34.425   2.697
15629W        W79397  39.453  32.463   4.784
15630W        W79398  41.502   6.739   1.292
15631W        W79399  19.700  33.423  14.478
15632W        W79400  14.606  14.313   0.362
15633W        W79401  19.539  44.298   2.260
15634W        W79402  20.114  37.519   0.333
15635W        W79403  33.922  24.518  11.393
15636W        W79404  18.197  12.836   3.220
15637W        W79405  10.160  39.349  14.353
15638W        W79406  10.172  30.658  11.565
15639W        W79407  31.536  12.835  10.468
15640W        W79408  15.738  36.092  12.869
15641W        W79409   5.806  43.805   2.266
15642W        W79410  23.722  33.430   0.352
15643W        W79411  33.093  27.485   3.783
15644W        W79412  16.143  12.623   0.268
15645W        W79413  42.389  26.998   1.339
15646W        W79414   6.753  18.162  13.846
15647W        W79415   7.371  18.053  11.067
15648W        W79416  28.131  12.280   4.312
15649W        W79417  17.617   4.835  14.925
15650W        W79418   7.688  38.486   2.720
15651W        W79419  35.080  15.671  12.360
15652W        W79420  16.630   0.780  13.811
15653W        W79421   5.395  33.441   4.166
15654W        W79422  29.630  24.209  13.519
15655W        W79423   6.298  27.550   0.823
15656W        W79424  15.251   1.823   4.818
15657W        W79425  13.723  35.517  11.588
15658W        W79426  12.267  10.632  13.828
15659W        W79427  17.714  28.966  12.880
15660W        W79428  39.451  42.310  13.987
15661W        W79429  14.678   6.284  13.910
15662W        W79430  37.568  23.073  14.762
15663W        W79431  39.358  16.304  12.024
15664W        W79432   0.480  27.691  13.520
15665W        W79433  35.044   9.285   2.254
15666W        W79434  15.622  43.291   1.879
15667W        W79435  36.384  22.666   2.886
15668W        W79436  14.651  25.645  11.968
15669W        W79437   2.798  30.978   2.758
15670W        W79438   0.813  40.904   3.708
15671W        W79439  27.598  12.148   0.729
15672W        W79440  23.188  14.319  13.473
15673W        W79441  43.460  25.499   1.857
15674W        W79442  27.627  41.837   1.729
15675W        W79443  30.080  23.526  12.859
15676W        W79444   7.182   6.418   1.245
15677W        W79445  23.719   5.212  14.292
15678W        W79446   7.224  29.592  14.339
15679W        W79447  28.506   4.391  12.991
15680W        W79448  15.249   9.348  13.906
15681W        W79449   1.368  39.525  12.092
15682W        W79450  33.469   2.854  11.039
15683W        W79451  37.012  39.455  14.833
15684W        W79452   8.360  26.489  14.379
15685W        W79453  39.974  41.898   2.863
15686W        W79454  20.727  15.201  13.902
15687W        W79455   2.346  26.965  11.521
15688W        W79456   1.256  20.572  12.348
15689W        W79457  37.945  20.067  14.298
15690W        W79458  23.692   5.694  12.388
15691W        W79459  15.656  32.136  12.539
15692W        W79460   5.211   9.838  13.791
15693W        W79461  19.638  36.998  13.904
15694W        W79462  15.109  36.512  13.878
15695W        W79463  27.115  19.597   4.184
15696W        W79464   8.284  24.121   0.424
15697W        W79465  22.511  35.514   1.874
15698W        W79466  29.666  12.150   3.728
15699W        W79467  39.474  24.584  12.525
15700W        W79468  40.852   4.260  10.965
15701W        W79469  41.471  38.840   2.403
15702W        W79470  15.622  15.782  14.431
15703W        W79471   5.715  12.227  11.008
15704W        W79472  10.205  13.775  12.994
15705W        W79473  39.482   0.936   3.163
15706W        W79474  18.617  35.454   4.685
15707W        W79475  24.548  10.332  14.383
15708W        W79476   3.849  42.963  11.961
15709W        W79477  28.085   1.838  10.892
15710W        W79478  24.011  21.087  14.795
15711W        W79479  23.127  40.924  12.882
15712W        W79480  16.123  21.152   3.342
15713W        W79481  27.478   5.782  11.045
15714W        W79482  35.047  26.570  11.065
15715W        W79483  21.616  31.421  13.986
15716W        W79484   3.376  31.479  12.904
15717W        W79485  39.401  23.168   1.427
15718W        W79486  26.553  25.474   1.230
15719W        W79487   1.874  22.572   0.780
15720W        W79488  31.619  13.237   4.762
15721W        W79489  15.173   3.366  11.085
15722W        W79490  14.166  10.306  12.917
15723W        W79491  16.087  29.642  13.818
15724W        W79492  11.807  28.458  12.000
15725W        W79493  12.794  11.372  14.963
15726W        W79494   1.241  23.179  10.995
15727W        W79495  17.584  17.652  13.843
15728W        W79496  23.169  39.380  14.812
15729W        W79497  13.804  10.682   1.350
15730W        W79498  40.921  13.831   4.732
15731W        W79499  41.515  30.910   5.620
15732W        W79500  18.292   0.943   2.246
15733W        W79501  41.304  24.048   4.728
15734W        W79502  40.412  41.790   0.759
15735W        W79503  39.398  24.059  11.394
15736W        W79504   3.415  29.467  14.362
15737W        W79505   3.251   2.845   4.256
15738W        W79506  36.085   8.671   2.227
15739W        W79507  33.123   4.741  14.820
15740W        W79508  39.469  17.177  12.831
15741W        W79509  35.472   2.964  12.930
15742W        W79510  26.702  24.076  14.441
15743W        W79511  17.187  18.587  12.505
15744W        W79512  40.481  24.519  10.888
15745W        W79513  18.757  13.277   2.295
15746W        W79514   4.403  12.659  13.477
15747W        W79515   6.801  44.323   4.221
15748W        W79516  30.043  23.575  14.760
15749W        W79517  42.810  35.463  13.922
15750W        W79518  13.796  28.004   0.796
15751W        W79519  44.835  33.966   3.645
15752W        W79520  11.156  34.442   2.663
15753W        W79521   4.738  16.762   2.189
15754W        W79522  25.546  40.928   1.759
15755W        W79523  14.190   5.416   3.645
15756W        W79524  44.421  25.492  12.881
15757W        W79525  15.692  36.893   0.729
15758W        W79526  11.349  39.325   3.178
15759W        W79527  44.951   9.742   3.351
15760W        W79528  37.884  17.223   1.766
15761W        W79529   3.823  34.471   4.284
15762W        W79530  42.996  31.552   0.435
15763W        W79531  18.289  29.062  14.468
15764W        W79532  26.623  38.400  14.299
15765W        W79533  15.696  38.329  14.483
15766W        W79534  27.012   5.844   1.722
15767W        W79535  22.546   4.917   0.948
15768W        W79536  10.303   4.436   9.999
15769W        W79537  41.945  25.589  14.493
15770W        W79538  35.556  14.103  12.441
15771W        W79539  30.157  29.462  13.990
15772W        W79540   4.281  38.859  14.411
15773W        W79541  36.522  41.788   3.329
15774W        W79542   6.211   5.388   0.337
15775W        W79543  29.609  29.151  11.116
15776W        W79544   0.252  35.095  14.285
15777W        W79545   6.388  16.759  14.291
15778W        W79546   5.280   6.286  13.511
15779W        W79547  29.952  10.357  11.964
15780W        W79548  24.065  22.607   3.256
15781W        W79549  32.139  27.630   3.254
15782W        W79550  11.200  15.295   4.326
15783W        W79551  12.125  21.219   0.855
15784W        W79552  37.966   5.398  12.010
15785W        W79553  14.321  35.537  12.380
15786W        W79554  36.897   4.788  10.517
15787W        W79555   0.278   8.268  13.424
15788W        W79556   6.354  23.174   3.692
15789W        W79557  41.392  26.650  12.857
15790W        W79558  10.151   1.858   0.368
15791W        W79559   3.914  41.974   2.287
15792W        W79560  35.387   9.740   1.337
15793W        W79561  42.485  32.419   2.831
15794W        W79562  43.882   9.821  12.913
15795W        W79563  38.352  18.167  14.973
15796W        W79564  43.829  30.095   2.409
15797W        W79565  44.803  44.842   4.308
15798W        W79566  44.900  17.702   2.289
15799W        W79567  13.342  25.128  14.788
15800W        W79568   2.862  16.662   2.299
15801W        W79569   5.760  16.688  11.874
15802W        W79570  30.943  35.395   2.321
15803W        W79571  14.755   0.449   3.850
15804W        W79572   0.751  12.152  14.837
15805W        W79573  38.474  32.440  13.311
15806W        W79574   1.434  13.734   3.652
15807W        W79575  32.586   5.299  12.341
15808W        W79576   1.896  27.165   1.700
15809W        W79577  29.474  30.012   2.858
15810W        W79578   8.361  11.846   1.323
15811W        W79579  27.633  13.154  12.425
15812W        W79580  20.610  30.924   4.168
15813W        W79581  38.842  16.737  12.340
15814W        W79582  37.433  39.007  10.623
15815W        W79583  10.693   7.379  11.955
15816W        W79584  38.462  31.597  14.861
15817W        W79585   8.890  32.089   0.824
15818W        W79586   4.348  27.945  12.058
15819W        W79587  26.676   1.900  10.589
15820W        W79588  40.877  15.168   3.195
15821W        W79589  43.418  27.647  13.443
15822W        W79590  35.934  32.983  12.034
15823W        W79591   6.879  34.417  10.567
15824W        W79592   8.400  40.349   1.263
15825W        W79593  37.011  16.574   4.268
15826W        W79594  24.554   5.197   4.720
15827W        W79595   7.808  33.876  12.486
15828W        W79596   5.880  27.172  12.865
15829W        W79597  33.039  29.444  14.943
15830W        W79598  26.593  43.863   1.274
15831W        W79599  30.625  44.875  11.956
15832W        W79600  14.224  15.799  13.377
15833W        W79601  34.535  43.993  13.449
15834W        W79602  27.190  44.932  13.048
15835W        W79603  19.670  24.051   3.817
15836W        W79604  43.840  31.484  11.568
15837W        W79605  33.525  16.246   5.271
15838W        W79606  32.448  35.470   1.817
15839W        W79607  29.597   8.787   2.217
15840W        W79608  13.116   3.243  10.133
15841W        W79609  10.273   2.239   4.167
15842W        W79610  19.591  31.147  14.796
15843W        W79611  12.311  13.703  13.378
15844W        W79612  39.819  10.286  14.461
15845W        W79613  27.173  32.133   1.443
15846W        W79614  10.173  27.013  11.472
15847W        W79615  18.058  24.534   0.432
15848W        W79616   8.740  11.669  13.028
15849W        W79617  44.371  32.514  12.499
15850W        W79618   8.369  32.547   3.724
15851W        W79619  24.046  14.645   3.754
15852W        W79620  27.685  13.718  11.113
15853W        W79621  42.329  21.230  11.909
15854W        W79622  35.854  37.433  11.011
15855W        W79623   3.734  42.488  11.991
15856W        W79624   1.344   6.300   0.775
15857W        W79625  20.673  35.101  10.429
15858W        W79626  27.051  37.481   0.737
15859W        W79627   8.806   8.735  12.949
15860W        W79628  31.973  13.311  14.009
15861W        W79629  31.525  34.605  13.029
15862W        W79630  36.357  13.780  13.973
15863W        W79631  22.166  30.583  11.938
15864W        W79632  34.903  22.600   3.223
15865W        W79633  42.912  41.404  10.567
15866W        W79634  22.121   2.755  13.063
15867W        W79635  16.713  37.844  13.348
15868W        W79636  32.523   9.358  13.337
15869W        W79637  44.341   8.853   4.258
15870W        W79638  27.188  33.950  14.996
15871W        W79639   9.662  15.093  12.391
15872W        W79640  32.916  10.868   0.875
15873W        W79641  32.625  35.581  14.858
15874W        W79642  29.085  36.947   2.218
15875W        W79643   9.834  39.472   0.773
15876W        W79644  20.683  18.273  14.986
15877W        W79645  20.544  31.933  11.100
15878W        W79646  35.101  30.447   3.165
15879W        W79647  40.875  10.301  12.541
15880W        W79648  44.280  18.147  13.801
15881W        W79649  15.118  31.599   3.156
15882W        W79650  22.594  12.155   5.150
15883W        W79651  32.485  26.050   1.928
15884W        W79652  21.708  14.812   0.933
15885W        W79653  26.075   6.210   0.794
15886W        W79654  15.820  36.424  14.872
15887W        W79655  39.443   1.452  11.527
15888W        W79656  29.976  39.946  14.830
15889W        W79657  43.839   3.415  10.952
15890W        W79658  35.051  10.863  14.995
15891W        W79659  19.125  10.827   3.200
15892W        W79660   5.889  10.865  14.439
15893W        W79661  33.888  27.164  11.481
15894W        W79662  27.063  40.999   3.822
15895W        W79663   7.747  33.959   3.731
15896W        W79664  32.486   8.399   3.382
15897W        W79665  33.590  24.049   1.882
15898W        W79666   8.344  12.679  12.963
15899W        W79667  17.617   0.744  13.879
15900W        W79668  27.064  44.873   1.794
15901W        W79669  36.964   8.713   1.383
15902W        W79670  18.608  22.027  12.838
15903W        W79671  42.338  17.223  12.573
15904W        W79672   1.764  27.044  11.030
15905W        W79673  30.573  30.042   0.255
15906W        W79674  28.007  42.915   3.718
15907W        W79675  15.727  26.576   3.665
15908W        W79676  34.368   8.739   3.738
15909W        W79677   1.775  32.885   0.372
15910W        W79678  20.751   0.764   0.855
15911W        W79679  25.506  10.138   0.729
15912W        W79680  23.194  21.044  11.458
15913W        W79681  35.975  42.339  13.313
15914W        W79682  28.486   8.317   4.252
15915W        W79683  31.048  12.655   3.344
15916W        W79684  18.278   3.225  14.789
15917W        W79685  15.796  43.273   5.090
15918W        W79686  17.677   3.802  14.319
15919W        W79687  42.300  38.353   0.920
15920W        W79688   1.858  17.719   2.317
15921W        W79689   7.700  10.231   1.219
15922W        W79690   7.359  25.094  10.976
15923W        W79691   9.363  32.409  10.513
15924W        W79692  15.154   8.171  13.427
15925W        W79693  11.718  32.020  12.056
15926W        W79694  21.750  38.516   2.765
15927W        W79695  35.361  29.133   0.854
15928W        W79696  38.822  11.275   1.231
15929W        W79697  17.722  26.519  12.867
15930W        W79698  40.911  41.303   2.362
15931W        W79699   8.695  32.997  12.840
15932W        W79700  17.772  29.559  10.558
15933W        W79701   0.813  25.616  10.599
15934W        W79702  21.229   6.733  10.427
15935W        W79703  39.338  21.172  12.472
15936W        W79704  17.790   5.362   0.444
15937W        W79705   3.831   6.201  13.868
15938W        W79706  32.394   6.416   2.300
15939W        W79707  38.461  27.509   3.636
15940W        W79708  10.695  31.575   2.312
15941W        W79709  11.739   3.403   0.471
15942W        W79710  10.259  41.847   2.703
15943W        W79711   1.341  26.978  14.279
15944W        W79712  16.678   9.649  11.884
15945W        W79713  33.038  44.896   0.906
15946W        W79714  26.183  36.945   2.274
15947W        W79715  14.685  37.007  10.940
15948W        W79716   6.343  24.217   2.389
15949W        W79717   2.875  27.661  12.384
15950W        W79718  28.613  40.350  10.575
15951W        W79719  34.396  14.800   1.716
15952W        W79720  13.171  11.702  14.923
15953W        W79721   3.311  15.300  13.543
15954W        W79722  11.782  32.127  13.309
15955W        W79723  29.098  41.027   4.607
15956W        W79724  17.076  29.116  11.895
15957W        W79725  35.393  44.839   0.770
15958W        W79726   9.149   4.306  14.338
15959W        W79727   4.324  27.953  13.968
15960W        W79728  26.481  32.391   1.800
15961W        W79729  26.083  10.203  12.089
15962W        W79730  15.188  36.509   0.787
15963W        W79731   9.800  39.978  13.812
15964W        W79732  23.708  27.528  12.515
15965W        W79733   1.877   0.321   4.231
15966W        W79734  15.733  33.562  14.931
15967W        W79735  40.365  39.012   4.782
15968W        W79736  32.437  17.753   2.799
15969W        W79737   6.377   7.239   0.905
15970W        W79738  37.043  33.054  13.812
15971W        W79739  27.176   0.745  12.049
15972W        W79740   8.300   1.796   2.869
15973W        W79741  43.906  33.580  13.359
15974W        W79742  43.972  13.675  10.537
15975W        W79743   0.916  44.322  12.400
15976W        W79744  21.656  37.428  14.385
15977W        W79745  12.657  37.857   1.427
15978W        W79746  27.512   8.254  14.799
15979W        W79747  34.930  39.812   3.377
15980W        W79748  12.857  13.226  12.500
15981W        W79749  40.828  34.502  10.945
15982W        W79750  27.537  14.818   0.787
15983W        W79751  34.405  13.676  10.559
15984W        W79752   9.387  17.228  11.995
15985W        W79753  36.052   1.294   4.698
15986W        W79754   5.837  34.499  10.526
15987W        W79755  44.773  27.072   0.881
15988W        W79756  15.159   7.786  10.916
15989W        W79757  25.558  14.625  13.396
15990W        W79758   8.325  43.767  12.842
15991W        W79759  40.011  42.467  10.477
15992W        W79760  23.996  22.022   1.278
15993W        W79761  40.511  39.332   1.266
15994W        W79762   1.286  40.978  13.974
15995W        W79763  41.473  38.998  12.502
15996W        W79764  11.623  15.772  14.958
15997W        W79765  28.103  14.209  14.834
15998W        W79766  30.051  38.481  13.848
15999W        W79767  19.194  37.840   3.270
16000W        W79768  33.048  38.893   2.888
16001W        W79769  20.550  20.252  14.491
16002W        W79770  20.695  24.980   4.205
16003W        W79771  13.799   4.301   1.705
16004W        W79772  26.468  27.002  13.319
16005W        W79773  15.579  32.961   0.367
16006W        W79774  38.032   4.819  13.470
16007W        W79775  23.588  10.208   1.802
16008W        W79776   7.173  39.437  10.579
16009W        W79777  13.689  28.457   3.313
16010W        W79778  39.371  36.967   2.734
16011W        W79779  13.301  15.261  12.079
16012W        W79780  20.769  34.504  10.629
16013W        W79781   5.208  35.020  13.834
16014W        W79782   0.822  29.439   1.699
16015W        W79783  33.468  22.204   2.289
16016W        W79784  21.263  12.778  14.905
16017W        W79785  15.688  26.163  12.866
16018W        W79786   4.853  20.690   3.312
16019W        W79787  28.482  11.718   9.962
16020W        W79788  15.760  37.079  11.500
16021W        W79789  35.492  28.132   1.379
16022W        W79790   4.319  34.569  11.476
16023W        W79791   4.335  32.116   2.237
16024W        W79792   4.301  29.640   3.150
16025W        W79793  29.076  43.409   3.667
16026W        W79794  15.094  41.930  12.891
16027W        W79795  32.598  43.455  10.637
16028W        W79796   5.303  10.703   3.221
16029W        W79797  40.847  24.167   3.788
16030W        W79798   4.438  40.545  14.787
16031W        W79799   7.283  18.785   4.620
16032W        W79800   9.885   0.398   0.374
16033W        W79801  34.941   9.361  14.876
16034W        W79802  44.982   9.382   0.474
16035W        W79803  30.593   3.262  14.496
16036W        W79804   5.858  23.727   0.965
16037W        W79805  43.941   9.209  12.380
16038W        W79806   8.392  35.520  10.450
16039W        W79807  42.494  39.441   2.277
16040W        W79808  36.916  11.334   3.381
16041W        W79809  33.024  37.044  13.339
16042W        W79810  42.947   3.434   0.411
16043W        W79811  13.608  25.619   5.617
16044W        W79812  35.483  26.591  13.323
16045W        W79813  43.901  20.266   0.844
16046W        W79814  23.108  11.688  10.049
16047W        W79815  24.229   3.322   5.142
16048W        W79816  32.601  20.188  13.543
16049W        W79817  41.426  25.668   3.210
16050W        W79818  26.075  19.280   3.321
16051W        W79819  16.292   6.892   3.851
16052W        W79820  38.907   8.356  14.471
16053W        W79821   5.318  18.158  14.439
16054W        W79822  42.881  25.642  11.940
16055W        W79823  36.884  44.781  10.536
16056W        W79824  40.419  29.093  12.022
16057W        W79825  10.657  36.435   3.734
16058W        W79826  16.115  24.996  13.856
16059W        W79827  10.374   0.382  10.053
16060W        W79828  37.448  19.065   0.786
16061W        W79829   1.264  41.391  13.444
16062W        W79830   8.280  42.844  12.975
16063W        W79831   4.729  41.949   2.308
16064W        W79832  34.553   9.203   5.692
16065W        W79833  18.110  39.543   2.854
16066W        W79834  35.041  14.834  14.895
16067W        W79835  20.723  42.010  10.936
16068W        W79836  18.215  42.473  11.403
16069W        W79837  37.373  10.147   0.863
16070W        W79838  36.038   2.342   2.741
16071W        W79839  23.618  28.956  12.040
16072W        W79840  24.722  21.073  13.439
16073W        W79841  39.551   5.934   9.938
16074W        W79842  34.939  34.532  10.620
16075W        W79843  17.604   7.260  13.956
16076W        W79844  15.746  20.124   0.390
16077W        W79845  41.374  23.139   2.416
16078W        W79846  33.513   5.735  11.469
16079W        W79847   6.337  17.076   2.769
16080W        W79848  19.540  38.897   2.229
16081W        W79849  16.175  14.736  14.888
16082W        W79850   8.244  32.544  10.943
16083W        W79851  14.328  27.953  13.835
16084W        W79852  32.965  15.776   2.768
16085W        W79853  42.380  35.453  13.385
16086W        W79854   2.912  37.943  12.487
16087W        W79855  43.871  28.485   3.146
16088W        W79856  32.096  44.429   2.761
16089W        W79857  26.979  15.801   4.167
16090W        W79858  29.572  41.985  12.570
16091W        W79859  15.201  30.090   3.260
16092W        W79860   9.864  19.057   3.169
16093W        W79861  42.491   4.718   1.830
16094W        W79862  10.633  29.983  10.940
16095W        W79863  25.034  25.090   1.215
16096W        W79864  10.710  25.539  10.426
16097W        W79865  11.310  38.830   3.830
16098W        W79866  19.046  41.790   0.353
16099W        W79867  36.001  38.482  14.786
16100W        W79868  19.251  39.924  11.436
16101W        W79869   3.393  12.257   4.748
16102W        W79870  43.323   6.369  14.759
16103W        W79871  15.623  42.819   2.845
16104W        W79872  40.825  22.525  14.817
16105W        W79873  40.370  42.013  11.478
16106W        W79874  15.814  20.742  14.879
16107W        W79875  35.096  43.838   0.436
16108W        W79876   7.901  40.933   3.198
16109W        W79877  25.997  28.067  12.022
16110W        W79878   3.349  29.163  13.393
16111W        W79879  16.673  20.081  12.520
16112W        W79880  10.668  39.906   3.298
16113W        W79881  28.589  11.792  13.349
16114W        W79882   5.426   0.342  10.512
16115W        W79883   9.264  23.499   0.767
16116W        W79884  34.117  26.496  13.895
16117W        W79885  42.917  10.356   2.400
16118W        W79886   4.248  19.042   0.823
16119W        W79887   1.370  33.088   2.263
16120W        W79888  14.746  44.831   4.348
16121W        W79889   3.422   3.383  14.474
16122W        W79890   6.899  37.435   0.330
16123W        W79891  21.593   7.309  11.604
16124W        W79892  31.961  11.145  10.618
16125W        W79893  30.110  36.024  14.984
16126W        W79894  44.975  15.144   0.307
16127W        W79895   4.273  21.513   4.343
16128W        W79896  29.466  35.533  11.042
16129W        W79897  27.051  23.495  14.799
16130W        W79898  42.429   2.928   4.267
16131W        W79899  13.325  41.529   3.669
16132W        W79900  20.271  42.496   4.619
16133W        W79901  41.390   0.803  13.999
16134W        W79902  44.335  31.020   2.256
16135W        W79903  19.281  39.833  13.479
16136W        W79904   5.302  32.575  11.375
16137W        W79905  22.246  39.879  12.981
16138W        W79906   8.274  42.370   3.281
16139W        W79907  40.421   3.722   1.853
16140W        W79908  43.293  41.937  10.555
16141W        W79909  12.701  17.170   4.795
16142W        W79910  31.105   9.356   0.763
16143W        W79911   7.874  14.661  12.869
16144W        W79912   0.457  33.994   2.361
16145W        W79913   7.241   8.728  13.333
16146W        W79914  17.289  42.977   5.206
16147W        W79915  39.895  28.072   0.732
16148W        W79916  34.939  11.757  13.999
16149W        W79917  29.044   2.301   2.799
16150W        W79918  17.148  40.931  11.090
16151W        W79919  23.042  32.481  11.453
16152W        W79920  33.984  10.794  11.967
16153W        W79921  24.194  11.148   3.175
16154W        W79922  31.085   8.163   3.308
16155W        W79923   0.378  44.793  11.884
16156W        W79924  35.107  23.505  12.064
16157W        W79925   7.802  43.780  14.829
16158W        W79926  27.985  42.846  10.492
16159W        W79927  10.670  36.089  14.441
16160W        W79928  21.650  37.540   0.346
16161W        W79929  41.978  44.901   0.258
16162W        W79930  23.191   7.825   1.921
16163W        W79931  13.229  44.830   2.286
16164W        W79932  41.007  37.557  11.534
16165W        W79933  18.067  26.082  13.319
16166W        W79934  38.392  15.739   0.899
16167W        W79935   8.301  17.744   0.808
16168W        W79936  31.577  21.062   1.747
16169W        W79937   6.891   9.765  13.863
16170W        W79938  44.305  42.985  10.619
16171W        W79939  35.376  43.991  14.324
16172W        W79940  44.322   6.895   4.828
16173W        W79941  37.469  35.855   3.702
16174W        W79942   9.805  29.437  12.028
16175W        W79943  36.088  38.570  10.513
16176W        W79944  25.070  40.516  11.967
16177W        W79945  22.656  24.206   0.370
16178W        W79946  23.578   3.440   4.274
16179W        W79947   3.746  12.181  12.875
16180W        W79948  21.171   7.290   9.950
16181W        W79949  23.533  17.662  12.897
16182W        W79950  10.332  44.265  11.016
16183W        W79951   8.798  23.058  10.893
16184W        W79952   9.180  37.061  14.797
16185W        W79953   7.755  14.221  11.389
16186W        W79954  35.375   5.855  13.014
16187W        W79955   7.326  32.025  13.970
16188W        W79956   8.201  16.614   1.243
16189W        W79957  14.110  32.041  13.415
16190W        W79958  28.591  35.055   2.736
16191W        W79959   6.421  20.166  11.608
16192W        W79960  14.226   3.714   1.356
16193W        W79961  18.074  34.965  12.823
16194W        W79962  29.063  22.544  12.904
16195W        W79963   9.294   1.239  11.480
16196W        W79964  22.606  25.592   0.749
16197W        W79965  17.254  44.478   1.926
16198W        W79966   8.700   4.828  12.525
16199W        W79967  16.197  14.126   1.740
16200W        W79968  16.315  13.266  11.374
16201W        W79969   0.779  10.379   5.138
16202W        W79970  36.445  39.353   0.862
16203W        W79971  17.787  17.102   0.927
16204W        W79972  29.616  33.418   2.345
16205W        W79973  14.158  35.984   1.438
16206W        W79974  23.605  14.328   5.118
16207W        W79975   3.295  33.399  11.061
16208W        W79976  12.333  29.170   3.851
16209W        W79977  37.017  38.946   9.936
16210W        W79978  14.203  19.252   2.735
16211W        W79979  31.040  31.958  14.016
16212W        W79980  25.674   4.226  12.882
16213W        W79981  33.473  35.948  14.939
16214W        W79982   9.184  44.437   1.842
16215W        W79983  17.694  41.453   3.648
16216W        W79984  41.809  19.731  14.951
16217W        W79985   1.313  29.637   1.413
16218W        W79986  23.076  38.500   0.910
16219W        W79987  36.952  36.976   3.836
16220W        W79988  17.263  40.387   0.846
16221W        W79989  19.229  41.419   0.391
16222W        W79990   3.835   5.840  13.826
16223W        W79991  22.746   6.907  13.470
16224W        W79992  42.505  35.534  14.440
16225W        W79993  29.087   3.895   4.312
16226W        W79994  37.529   5.913  11.126
16227W        W79995  18.286  33.888  10.148
16228W        W79996  25.480  12.238   0.940
16229W        W79997  30.062  27.055  10.954
16230W        W79998  33.049   5.414  13.841
16231W        W79999  20.730  29.120   0.483
16232W        W80000   3.887  26.204   1.425
16233W        W80001  16.142  18.740  11.863
16234W        W80002  15.145   4.715  13.382
16235W        W80003   5.755  15.605   2.767
16236W        W80004  33.005   8.226   3.643
16237W        W80005  12.691  32.074   1.873
16238W        W80006   5.292   7.713   3.679
16239W        W80007   6.182   9.330  13.381
16240W        W80008  43.331  20.524  12.437
16241W        W80009  34.873  42.953  12.381
16242W        W80010  13.731  27.983  10.953
16243W        W80011  21.224  18.778  11.417
16244W        W80012  17.279   3.716  10.515
16245W        W80013  44.343  21.115  12.914
16246W        W80014  42.877   0.851   2.297
16247W        W80015  27.097  13.770  11.500
16248W        W80016  32.012  24.558   3.820
16249W        W80017  32.053  31.468   2.277
16250W        W80018  15.150  34.570   1.264
16251W        W80019  14.693  38.843   2.240
16252W        W80020  35.016  11.261  13.819
16253W        W80021  29.613  38.543   4.340
16254W        W80022  17.122  31.402   0.868
16255W        W80023  18.275  17.705  13.057
16256W        W80024  38.963  28.459   5.252
16257W        W80025  43.969  39.405  11.396
16258W        W80026  13.736  37.473   3.226
16259W        W80027  42.344   5.891   1.825
16260W        W80028  20.078  11.811   4.793
16261W        W80029  32.504  20.717   1.731
16262W        W80030  34.581  40.804   1.872
16263W        W80031  33.907  20.211   1.898
16264W        W80032  15.805  28.620   3.235
16265W        W80033   6.250  33.488   0.947
16266W        W80034   0.385  14.156   4.188
16267W        W80035  24.609  44.349  11.953
16268W        W80036  22.733  15.200  10.559
16269W        W80037   8.228  38.011   2.365
16270W        W80038   5.253  40.421   0.339
16271W        W80039   1.749  11.838  14.372
16272W        W80040  29.165  18.126  12.975
16273W        W80041  36.568  33.621   2.835
16274W        W80042   7.202  17.765  14.963
16275W        W80043  18.666  38.359  10.411
16276W        W80044  25.062  33.535   2.262
16277W        W80045  38.529  33.108   9.677
16278W        W80046  30.141  17.158  14.283
16279W        W80047  20.583  38.060  13.493
16280W        W80048  32.612  32.035  13.416
16281W        W80049  25.624  35.006   0.821
16282W        W80050  43.432  11.192   4.350
16283W        W80051   4.812  34.994   2.718
16284W        W80052  21.087  27.119  10.613
16285W        W80053  17.162  25.515   2.817
16286W        W80054  12.166  43.298  10.586
16287W        W80055   9.179   1.471  10.636
16288W        W80056   9.294  20.763   4.689
16289W        W80057   6.337  27.536  10.412
16290W        W80058  22.054   7.191  10.914
16291W        W80059   1.964  15.583  10.937
16292W        W80060  15.195  13.836   2.211
16293W        W80061  27.509  39.404   0.393
16294W        W80062  42.967  26.549  14.462
16295W        W80063  31.906   3.315   0.271
16296W        W80064  19.148   9.287  12.940
16297W        W80065  28.502  26.597  14.396
16298W        W80066  27.037  34.911  11.387
16299W        W80067   9.290  20.634  14.453
16300W        W80068  11.239  39.876   2.353
16301W        W80069  23.048   7.687  10.543
16302W        W80070   2.887  14.621  14.464
16303W        W80071  42.466   8.256   2.217
16304W        W80072   7.385   4.747   2.715
16305W        W80073  12.237  42.298  13.402
16306W        W80074  37.896  16.649  12.074
16307W        W80075  31.987  17.197   1.833
16308W        W80076  35.532  32.397   2.359
16309W        W80077  13.646  12.296  11.120
16310W        W80078   0.873  22.080   2.665
16311W        W80079  33.022  12.701   0.483
16312W        W80080   2.340  18.063   2.842
16313W        W80081  42.004  25.061   1.706
16314W        W80082   6.869  22.559  10.477
16315W        W80083  37.967  21.223   1.334
16316W        W80084  18.711  14.137   0.375
16317W        W80085  10.312  20.087   1.243
16318W        W80086  33.970   0.308  10.567
16319W        W80087  31.589  11.718  14.995
16320W        W80088  36.431  22.021   4.665
16321W        W80089  31.066   5.272  11.456
16322W        W80090   4.327  36.443  12.343
16323W        W80091  16.276  11.658  13.534
16324W        W80092  18.226  35.091   0.415
16325W        W80093  17.203  23.617  12.517
16326W        W80094  13.777   5.718   1.799
16327W        W80095  36.863  29.065   1.783
16328W        W80096  37.443  28.073  10.488
16329W        W80097   8.255   7.772   3.251
16330W        W80098   4.426  33.988  12.564
16331W        W80099   9.391  28.453  12.418
16332W        W80100  27.512   5.395   2.375
16333W        W80101   7.740  24.027   1.304
16334W        W80102  30.518  33.056   3.679
16335W        W80103  30.017  11.640   0.354
16336W        W80104  42.495  44.422  10.466
16337W        W80105  39.406  14.729  12.074
16338W        W80106  17.752  19.265   1.778
16339W        W80107   6.778   3.838  12.500
16340W        W80108  41.935  39.351   0.348
16341W        W80109   6.778   9.707  14.934
16342W        W80110  27.596  12.289  14.291
16343W        W80111  30.614  11.763   0.267
16344W        W80112   4.932  10.678   4.792
16345W        W80113   2.256  37.891   1.228
16346W        W80114  27.531  26.682  11.533
16347W        W80115  19.273  32.578   1.698
16348W        W80116  20.692  11.841  11.032
16349W        W80117   4.295  43.800   1.245
16350W        W80118  20.747   9.783  14.941
16351W        W80119  13.612  32.601   3.347
16352W        W80120  31.590   3.767  13.918
16353W        W80121  24.506  40.042   1.767
16354W        W80122  17.158  43.800  12.421
16355W        W80123  32.030  13.643   2.213
16356W        W80124  31.472  29.511   0.256
16357W        W80125  31.499  16.148   2.300
16358W        W80126  24.656  16.650   2.702
16359W        W80127   1.826   3.760   0.758
16360W        W80128  36.982  23.084  11.932
16361W        W80129  37.937  25.121  12.531
16362W        W80130   4.875  17.646   4.603
16363W        W80131  21.150  38.870  11.608
16364W        W80132  23.127  12.761  13.512
16365W        W80133  29.614  24.099  14.922
16366W        W80134  34.549   9.668   2.254
16367W        W80135   8.215   4.900   3.714
16368W        W80136   5.798  38.410   4.810
16369W        W80137  38.560  43.421  11.547
16370W        W80138  13.322  24.032   4.200
16371W        W80139  39.967   0.248   2.662
16372W        W80140  40.534  25.524   3.238
16373W        W80141  26.091  19.547   0.318
16374W        W80142  42.471  13.272  14.863
16375W        W80143  31.451  19.634   2.836
16376W        W80144   6.230  35.428  13.904
16377W        W80145  36.045  12.809  13.831
16378W        W80146   8.717  43.970  14.839
16379W        W80147  35.575   9.364  14.404
16380W        W80148  22.635  19.669   1.388
16381W        W80149  16.187  12.735  12.007
16382W        W80150  42.921  38.856  12.049
16383W        W80151  21.211  28.622   4.131
16384W        W80152  29.144  21.097   4.230
16385W        W80153  38.969  31.991   5.595
16386W        W80154  19.095   5.834  11.104
16387W        W80155  19.551   1.765   0.252
16388W        W80156   9.694   5.704   1.827
16389W        W80157  26.164   5.391   3.790
16390W        W80158   6.243  23.605  12.836
16391W        W80159  22.668   6.848   2.390
16392W        W80160  20.071   2.815   4.617
16393W        W80161  12.749  32.085  10.149
16394W        W80162  23.156   4.848   0.248
16395W        W80163   3.750  24.068  12.982
16396W        W80164  20.161  25.583   2.762
16397W        W80165  29.077  33.539   0.343
16398W        W80166  26.457  24.681   4.133
16399W        W80167  27.066  37.938  10.542
16400W        W80168  32.575  20.655  10.549
16401W        W80169  18.163  43.843  11.551
16402W        W80170  13.136  29.448  14.807
16403W        W80171  22.707  26.500   4.785
16404W        W80172  27.540  44.461   2.335
16405W        W80173  14.160  28.079  14.367
16406W        W80174  33.410   6.730   4.181
16407W        W80175  10.833   2.258   0.938
16408W        W80176  24.605  22.040  10.434
16409W        W80177  40.932  24.517  11.409
16410W        W80178  33.057   8.266   2.368
16411W        W80179  21.263  23.550   0.847
16412W        W80180  27.006  11.800  14.864
16413W        W80181   5.777  25.062  13.509
16414W        W80182  32.109   2.951   3.194
16415W        W80183  24.161  27.011  13.536
16416W        W80184   2.884  32.565  11.515
16417W        W80185  12.685   3.935   4.728
16418W        W80186  16.620  14.112  12.388
16419W        W80187  23.989  43.984  12.007
16420W        W80188  17.625   3.915   0.779
16421W        W80189  41.322  33.052   0.396
16422W        W80190   3.453  25.705  11.469
16423W        W80191  15.175  16.758   1.391
16424W        W80192   3.948  18.203   4.152
16425W        W80193   4.718  14.143  14.504
16426W        W80194  24.004  43.508  10.920
16427W        W80195   7.181  19.221  12.527
16428W        W80196   5.390   4.758   3.860
16429W        W80197  34.434  15.609  11.994
16430W        W80198  22.095  13.778  10.962
16431W        W80199  35.478   4.372   4.646
16432W        W80200   7.346  17.183   2.391
16433W        W80201  14.802   1.752  11.610
16434W        W80202  14.726   1.786   3.329
16435W        W80203  42.846  16.659   1.920
16436W        W80204   6.857  12.323  13.387
16437W        W80205  40.896  14.680  12.437
16438W        W80206  14.737  19.235  13.519
16439W        W80207  27.513  33.054  12.075
16440W        W80208  31.968  42.410  10.513
16441W        W80209   5.845  38.983   0.316
16442W        W80210  21.639  31.565   3.726
16443W        W80211  22.702  23.604   9.959
16444W        W80212  21.527  24.651  12.515
16445W        W80213  24.724  31.944   3.701
16446W        W80214  43.320  24.503   4.300
16447W        W80215  12.819  36.891   3.770
16448W        W80216  23.166  30.993  11.005
16449W        W80217  32.892  32.969   1.451
16450W        W80218  35.103   5.827   1.710
16451W        W80219   2.943  21.099  12.026
16452W        W80220  40.403  39.814  14.417
16453W        W80221  30.528  40.021   0.867
16454W        W80222  37.919  26.481   3.179
16455W        W80223  20.213   1.423  13.049
16456W        W80224  30.575  26.020  11.880
16457W        W80225   6.858   8.842   1.268
16458W        W80226  16.635  25.541   0.278
16459W        W80227  20.248  38.348   2.360
16460W        W80228  20.606  12.769  13.878
16461W        W80229  39.963  38.405   0.400
16462W        W80230  40.953  12.159  10.574
16463W        W80231  13.287  42.866   4.759
16464W        W80232  38.357  27.961   2.860
16465W        W80233  23.502  11.803  10.031
16466W        W80234  30.608  16.617  10.079
16467W        W80235   3.336   8.702  10.423
16468W        W80236  12.284  21.710   4.721
16469W        W80237  22.085   2.396   4.285
16470W        W80238  33.936  15.137   4.263
16471W        W80239   7.740  18.199   0.928
16472W        W80240  40.537   6.370   9.928
16473W        W80241  20.575  28.619  10.615
16474W        W80242  40.993   9.383  10.546
16475W        W80243  19.705  40.028  13.534
16476W        W80244  23.107  18.630   3.778
16477W        W80245   5.896  25.007   4.182
16478W        W80246  22.745  30.985   3.861
16479W        W80247  21.661   5.344   1.257
16480W        W80248  43.926  37.470  11.032
16481W        W80249  43.420  11.638   2.774
16482W        W80250   3.868  33.072   4.329
16483W        W80251   0.493  25.964   3.703
16484W        W80252  22.025  20.235   4.801
16485W        W80253  43.907  18.255   4.300
16486W        W80254  13.247   4.791  12.916
16487W        W80255  17.271  12.624   0.852
16488W        W80256  30.444  38.406   3.295
16489W        W80257   0.757  16.177  14.281
16490W        W80258  20.705   2.963   2.805
16491W        W80259   2.253  16.709   4.732
16492W        W80260  38.951   6.840  10.601
16493W        W80261   7.666  31.573   4.820
16494W        W80262  14.221  16.248  10.944
16495W        W80263  43.278   9.152  12.904
16496W        W80264  26.183  39.339  12.038
16497W        W80265  13.754  40.901   3.690
16498W        W80266   1.238  41.885   0.831
16499W        W80267   3.438   4.919  12.344
16500W        W80268   6.206  17.254   5.219
16501W        W80269  14.099  37.509   9.957
16502W        W80270   8.767  12.234  10.485
16503W        W80271  38.065  17.678   2.826
16504W        W80272  42.789  13.811   0.476
16505W        W80273  15.263  44.958   0.849
16506W        W80274  14.158   2.911   2.770
16507W        W80275  14.297  35.526  13.044
16508W        W80276   3.404  34.614  13.061
16509W        W80277  21.713  31.144   3.857
16510W        W80278   6.224   0.888   3.371
16511W        W80279  38.384  35.957   4.655
16512W        W80280  10.775  19.279  13.309
16513W        W80281  28.965  36.924  14.343
16514W        W80282  24.175  37.449  13.055
16515W        W80283  34.590  27.094  12.470
16516W        W80284  25.654  36.461   0.344
16517W        W80285   3.443  25.574   3.710
16518W        W80286   8.399   7.740  14.495
16519W        W80287  12.626   0.972  13.516
16520W        W80288   2.913  26.515   4.619
16521W        W80289  42.900  29.967   2.324
16522W        W80290  28.996  32.914   3.825
16523W        W80291   3.833  37.444  13.548
16524W        W80292  41.891  34.504  14.910
16525W        W80293   6.816  21.669   3.690
16526W        W80294   1.967  40.049   2.263
16527W        W80295  18.183  16.284  13.548
16528W        W80296  28.658  32.132  10.931
16529W        W80297  42.955  25.605   1.841
16530W        W80298  14.131  27.547   2.793
16531W        W80299  33.457  18.756  13.417
16532W        W80300   9.732  44.417  13.948
16533W        W80301  29.645  15.817   4.254
16534W        W80302   1.966   0.435   2.771
16535W        W80303   9.657  33.076  11.602
16536W        W80304  12.788  13.623   5.159
16537W        W80305  40.315  40.863   1.872
16538W        W80306   0.404   4.942  11.470
16539W        W80307  18.768   8.805  13.917
16540W        W80308  19.720  41.508   0.749
16541W        W80309  19.218  21.075  12.875
16542W        W80310  39.844  28.479   2.813
16543W        W80311   8.761  23.706  12.897
16544W        W80312  26.031  42.375   0.382
16545W        W80313  12.340   6.279  13.505
16546W        W80314  43.485  20.084   4.196
16547W        W80315  29.057  20.731  14.447
16548W        W80316  14.185  31.943   2.335
16549W        W80317   4.904   3.905  13.514
16550W        W80318  38.399   8.215   0.335
16551W        W80319  26.022  11.190   3.170
16552W        W80320  36.908  31.019  11.518
16553W        W80321  17.224  27.953  12.580
16554W        W80322  33.515  18.633  11.528
16555W        W80323   9.301  37.939  12.985
16556W        W80324   6.425  12.706   3.209
16557W        W80325  42.408  42.387  11.427
16558W        W80326  43.959  22.063   1.424
16559W        W80327  18.699  28.611   0.390
16560W        W80328  39.473  10.150   0.435
16561W        W80329  24.002  12.621  12.933
16562W        W80330  23.992   7.865  10.509
16563W        W80331  31.472  22.015   0.410
16564W        W80332  21.244  44.834  13.888
16565W        W80333  34.440  20.193  11.861
16566W        W80334   5.819  17.759   1.846
16567W        W80335  22.649  40.861   0.321
16568W        W80336  22.585  35.400  11.449
16569W        W80337  31.118  10.371  12.407
16570W        W80338  21.619  28.489   2.755
16571W        W80339  29.554   8.248  11.030
16572W        W80340   9.888  35.945  13.996
16573W        W80341   2.721  14.275  13.836
16574W        W80342  22.098   4.427   0.952
16575W        W80343  32.991  15.100  13.388
16576W        W80344  20.724  15.239   4.831
16577W        W80345   2.809  42.431  12.934
16578W        W80346  38.858  20.235  14.900
16579W        W80347   4.729  22.159  14.767
16580W        W80348   0.412  30.537  11.512
16581W        W80349  31.032   5.280  14.018
16582W        W80350   3.322  44.296  10.897
16583W        W80351  26.696  33.123   2.394
16584W        W80352  40.048  42.506  11.471
16585W        W80353   5.880   0.358  11.513
16586W        W80354  24.640  35.096   1.437
16587W        W80355  15.184  40.845   2.261
16588W        W80356  44.762   6.276  11.511
16589W        W80357  13.268  32.956  14.833
16590W        W80358   4.742  14.748  10.429
16591W        W80359  27.953  20.550   0.373
16592W        W80360  43.364  15.144  12.867
16593W        W80361  20.576  15.730  14.762
16594W        W80362  32.107  33.934  11.889
16595W        W80363  39.895   7.262   2.902
16596W        W80364  13.784  11.210  14.979
16597W        W80365  10.675  19.642  14.382
16598W        W80366  32.539  44.272   4.154
16599W        W80367  23.615  22.663  12.074
16600W        W80368  11.276  17.661   3.674
16601W        W80369  19.179  29.429  11.933
16602W        W80370  22.044   4.847  13.045
16603W        W80371  12.712  18.238  12.360
16604W        W80372  23.602  38.821  10.978
16605W        W80373  39.987  27.104   0.922
16606W        W80374  41.937  33.937  11.115
16607W        W80375  32.485   2.325  13.368
16608W        W80376  26.111  19.541  14.897
16609W        W80377  36.590  17.620  11.434
16610W        W80378  33.485   4.443  10.979
16611W        W80379  27.599  29.661  11.994
16612W        W80380  20.102  43.930   2.376
16613W        W80381  15.799  32.574   5.191
16614W        W80382  21.104   6.718   2.384
16615W        W80383  14.107  13.138   9.949
16616W        W80384  42.893   2.261   0.444
16617W        W80385  18.748  38.890   3.311
16618W        W80386   1.877  13.780  11.023
16619W        W80387  23.621   7.890   2.871
16620W        W80388  28.443  26.189   4.156
16621W        W80389  27.026   1.367  10.543
16622W        W80390  36.399  33.944   1.920
16623W        W80391  37.362  25.098  11.382
16624W        W80392  37.872   8.294   3.230
16625W        W80393  11.634   1.382   4.255
16626W        W80394  33.463  30.425  14.419
16627W        W80395  34.591  23.012  11.038
16628W        W80396  22.684  17.743  14.943
16629W        W80397  24.095  42.385   2.301
16630W        W80398  43.911   8.665  12.959
16631W        W80399  28.579   9.811   4.119
16632W        W80400  30.090  36.965   3.663
16633W        W80401   9.241  30.413  13.832
16634W        W80402   6.421  25.622   0.443
16635W        W80403  19.229   6.784   3.685
16636W        W80404  37.888   8.258   3.764
16637W        W80405   4.278  40.314  11.557
16638W        W80406  43.460  20.212   4.649
16639W        W80407   0.948  34.956  13.362
16640W        W80408   6.407   6.354  11.460
16641W        W80409  37.921   0.313   4.327
16642W        W80410   9.794  21.583   4.276
16643W        W80411  14.181  44.882   1.820
16644W        W80412  14.679  34.918  12.002
16645W        W80413  14.732   1.406  13.015
16646W        W80414  26.085  25.144   0.366
16647W        W80415  16.305  11.252   3.726
16648W        W80416   0.804  15.791  13.981
16649W        W80417   1.921  38.021   2.745
16650W        W80418  42.490  44.427   4.257
16651W        W80419  43.017  44.918  13.367
16652W        W80420  18.222   0.304   3.173
16653W        W80421  37.857   0.932  12.395
16654W        W80422   5.758  37.402  13.012
16655W        W80423  20.552  11.847   3.743
16656W        W80424   8.839  27.957   4.175
16657W        W80425  35.026  36.871  12.375
16658W        W80426   0.381  36.489   0.392
16659W        W80427  13.832  17.239  11.946
16660W        W80428  18.788  25.641   1.253
16661W        W80429  20.232   1.759   5.153
16662W        W80430  19.561  14.286  13.320
16663W        W80431  20.619  42.847  12.096
16664W        W80432   6.242  23.166  11.377
16665W        W80433  19.580   4.386  12.361
16666W        W80434   5.276  14.668  11.883
16667W        W80435  20.052   2.761   4.270
16668W        W80436  21.151  18.625  12.915
16669W        W80437   2.753   5.834   4.769
16670W        W80438   5.849  11.134   3.796
16671W        W80439  36.369  34.401   3.802
16672W        W80440   0.385   4.399   4.658
16673W        W80441  19.543  33.063   2.393
16674W        W80442  21.046  33.091  14.775
16675W        W80443  28.663   2.300  12.832
16676W        W80444  33.113  38.565  13.044
16677W        W80445  42.941  21.082  14.352
16678W        W80446  28.031  37.882  12.470
16679W        W80447  39.474  38.996   4.598
16680W        W80448   8.763  36.915  12.846
16681W        W80449  14.170  16.608   3.694
16682W        W80450  14.634   8.696  11.083
16683W        W80451  44.491  32.995   0.309
16684W        W80452   3.338   1.365  10.943
16685W        W80453   2.468  29.921  10.443
16686W        W80454  24.530  22.082  11.426
16687W        W80455   5.212   2.746  12.029
16688W        W80456  33.529  16.702  14.892
16689W        W80457   7.255   7.844   4.219
16690W        W80458  36.095  41.951   2.701
16691W        W80459  23.586  19.040   4.709
16692W        W80460  23.205  27.031   0.406
16693W        W80461  23.211  19.093   0.825
16694W        W80462  10.357  38.846   0.733
16695W        W80463   2.841  42.938   2.746
16696W        W80464  17.801  38.468   3.678
16697W        W80465  39.971   5.294  14.956
16698W        W80466  26.149  18.272   1.350
16699W        W80467   2.940  34.472  12.052
16700W        W80468   4.333   3.348  12.377
16701W        W80469   8.172  27.494  12.867
16702W        W80470  40.471   0.744   0.377
16703W        W80471  21.676  32.113  14.843
16704W        W80472  25.640  10.252   1.931
16705W        W80473   2.324  14.193   3.310
16706W        W80474  15.173   8.892   4.826
16707W        W80475  15.255  11.774  14.971
16708W        W80476  21.069  24.482  10.978
16709W        W80477  35.050  24.089  11.607
16710W        W80478  22.502  28.561   0.776
16711W        W80479  42.433   7.786  13.468
16712W        W80480   3.714  24.635  14.769
16713W        W80481   5.891  41.370   1.395
16714W        W80482   7.746  31.591   3.768
16715W        W80483  13.706  13.134   3.691
16716W        W80484  41.901  40.537   1.396
16717W        W80485  13.656   6.813  14.771
16718W        W80486  40.385  24.574   3.776
16719W        W80487   6.260  44.811   1.264
16720W        W80488  25.150   8.693   3.202
16721W        W80489  26.128  22.063   2.327
16722W        W80490  40.399  37.519  12.457
16723W        W80491  39.005  29.987  13.914
16724W        W80492  35.602   8.371  12.892
16725W        W80493  43.343  38.487   1.903
16726W        W80494   4.328  28.559  14.943
16727W        W80495  18.744  39.817  12.353
16728W        W80496  21.237  40.380   0.730
16729W        W80497  29.029  17.778   3.158
16730W        W80498   3.943   2.452  13.892
16731W        W80499  27.136   3.379   2.702
16732W        W80500   7.404  42.804  12.961
16733W        W80501  29.662  44.896   1.303
16734W        W80502   3.387  15.220   3.300
16735W        W80503   2.941  22.082   1.387
16736W        W80504   2.449  28.035   5.266
16737W        W80505  30.495   1.307   4.733
16738W        W80506  11.279  17.285   2.344
16739W        W80507   3.834  22.632  14.418
16740W        W80508  38.404  23.048   0.827
16741W        W80509  40.919  23.116   3.224
16742W        W80510  10.686  44.479  11.500
16743W        W80511  11.153  25.659  14.282
16744W        W80512  16.636   1.338   2.299
16745W        W80513  15.198   4.436   3.675
16746W        W80514   9.168  35.438   0.914
16747W        W80515  19.201  30.976  13.481
16748W        W80516  22.067  36.423  11.588
16749W        W80517  37.926  30.629  14.988
16750W        W80518  35.489  39.008   1.907
16751W        W80519  35.889   8.889  11.865
16752W        W80520   5.429  17.277  12.964
16753W        W80521  10.209  40.394  12.831
16754W        W80522   1.833  36.368  11.012
16755W        W80523   3.726  16.755   1.748
16756W        W80524   3.331  15.641   5.166
16757W        W80525  29.139  18.772   0.255
16758W        W80526  21.075  30.636   0.356
16759W        W80527  25.990  28.535   2.749
16760W        W80528  42.427  39.559  11.444
16761W        W80529   1.878  12.267   0.727
16762W        W80530  23.212  22.144   4.298
16763W        W80531  29.559  18.152   3.726
16764W        W80532  24.146  13.350  14.968
16765W        W80533  42.936  12.207  12.573
16766W        W80534   6.364  32.976  10.958
16767W        W80535   5.387  14.735   4.663
16768W        W80536  18.706  15.117  12.854
16769W        W80537  34.062  44.774  13.941
16770W        W80538  12.293  24.072  14.421
16771W        W80539   0.299  19.643  12.471
16772W        W80540   3.899   3.874  10.899
16773W        W80541  22.158   0.796   3.815
16774W        W80542  36.008   9.793   3.277
16775W        W80543   0.915  41.836   0.874
16776W        W80544  34.995  33.018   1.846
16777W        W80545  20.662  31.961  13.307
16778W        W80546  24.087  44.325   3.847
16779W        W80547  43.885   9.150  13.967
16780W        W80548  33.430  33.941  11.007
16781W        W80549   9.243  35.441  13.490
16782W        W80550  10.289  24.713   2.768
16783W        W80551  33.440  35.475   3.682
16784W        W80552   6.916   0.370  13.310
16785W        W80553  30.463   0.805  10.984
16786W        W80554  18.109  15.227   3.303
16787W        W80555  25.584  22.543  11.057
16788W        W80556  10.309  15.315   3.173
16789W        W80557  22.177  30.149   4.149
16790W        W80558  36.980  37.974  12.404
16791W        W80559  12.341  34.411   0.350
16792W        W80560   3.241  40.963   2.339
16793W        W80561  10.864   2.282  10.906
16794W        W80562   4.273  34.609  13.020
16795W        W80563  34.102  25.147  13.853
16796W        W80564  32.093   2.839   3.758
16797W        W80565  37.383   8.400  10.624
16798W        W80566   0.981  32.029  11.867
16799W        W80567   0.378  26.461  10.456
16800W        W80568  25.004   3.941   0.820
16801W        W80569  25.029  16.778  11.986
16802W        W80570   1.390   0.865  13.356
16803W        W80571  41.843  31.102  12.536
16804W        W80572  39.392  32.096   2.846
16805W        W80573   9.200  36.994  10.477
16806W        W80574  33.106  26.148  12.088
16807W        W80575  19.163  29.938   9.664
16808W        W80576   1.432  41.338  14.819
16809W        W80577   1.419  18.279  12.431
16810W        W80578  33.918  21.231   4.647
16811W        W80579  29.079  14.629   0.947
16812W        W80580  40.510  34.511   4.125
16813W        W80581   8.300  40.005   2.191
16814W        W80582  35.921  19.076   0.935
16815W        W80583  37.568   5.307  14.010
16816W        W80584   0.776   6.215  14.994
16817W        W80585   6.315  42.429   4.244
16818W        W80586  43.394  32.976   4.221
16819W        W80587  36.094  26.996   2.255
16820W        W80588  22.638  18.215  11.459
16821W        W80589   6.335  16.135   0.461
16822W        W80590  13.706  25.129  11.003
16823W        W80591  22.506  24.516  13.453
16824W        W80592   2.302  31.930  10.594
16825W        W80593  40.005   8.857  12.832
16826W        W80594  25.962  26.206   1.328
16827W        W80595  22.525  38.537   4.756
16828W        W80596   6.816  25.626  12.355
16829W        W80597  39.830   8.293   5.676
16830W        W80598   2.272  24.017   1.224
16831W        W80599  10.258  30.560  12.431
16832W        W80600  19.207  20.578  14.997
16833W        W80601   0.832  37.942   2.396
16834W        W80602  26.532  17.159   3.275
16835W        W80603  42.459  36.518  11.434
16836W        W80604  36.914  43.309  13.011
16837W        W80605  37.037  37.345   3.755
16838W        W80606  39.972  33.017  14.911
16839W        W80607   5.876   5.268  14.980
16840W        W80608  36.358   3.798   2.878
16841W        W80609  44.899   2.326  13.829
16842W        W80610  32.128   4.292  10.044
16843W        W80611  21.072  41.882  11.398
16844W        W80612  40.494  37.959   3.278
16845W        W80613  30.532  19.233  11.465
16846W        W80614  22.108  35.430   4.278
16847W        W80615  26.062  32.067  11.374
16848W        W80616  40.000  24.566   1.806
16849W        W80617  27.637   7.861   1.739
16850W        W80618   2.296  23.672  12.836
16851W        W80619  37.541  13.170   2.260
16852W        W80620   0.808  12.312   0.737
16853W        W80621  24.033  40.522  10.981
16854W        W80622  26.189  35.427   4.671
16855W        W80623  18.645   8.828  10.132
16856W        W80624   7.902  30.975  12.072
16857W        W80625  19.147  39.875  12.952
16858W        W80626  41.466  18.744  12.075
16859W        W80627  11.147   0.434  14.377
16860W        W80628  14.757  27.629  11.015
16861W        W80629  28.135  37.417   5.198
16862W        W80630  33.884   2.315   4.638
16863W        W80631   5.404  28.582   1.772
16864W        W80632  22.118  19.636   4.638
16865W        W80633  26.122  36.495   2.664
16866W        W80634  32.010  16.220   5.667
16867W        W80635  36.438  16.813   1.273
16868W        W80636   2.898  31.961   2.227
16869W        W80637  33.902   9.876  12.554
16870W        W80638  33.525  13.717   2.884
16871W        W80639  29.970   0.974   2.275
16872W        W80640  39.995   9.306  12.485
16873W        W80641  30.931  13.671   4.680
16874W        W80642  25.097  16.301  14.444
16875W        W80643  29.099   4.221   0.787
16876W        W80644  13.623   5.708   0.439
16877W        W80645  18.111   7.290   1.829
16878W        W80646  35.891  33.464  12.556
16879W        W80647  10.711   5.929  10.487
16880W        W80648  27.082   1.471  11.398
16881W        W80649  34.576  34.413   4.209
16882W        W80650  42.867  20.068  10.632
16883W        W80651   6.212   1.256   3.681
16884W        W80652  15.240   7.855  11.565
16885W        W80653   2.328  44.382   3.662
16886W        W80654  15.737  12.686   1.807
16887W        W80655  29.515  16.781   1.366
16888W        W80656   5.391  38.880   4.608
16889W        W80657  25.621  40.521   2.330
16890W        W80658  31.149   3.228  10.126
16891W        W80659  33.585  10.223  11.426
16892W        W80660   0.253  30.516  12.461
16893W        W80661  37.940  33.520   2.833
16894W        W80662  37.869  10.335   0.336
16895W        W80663   3.951   4.761   3.213
16896W        W80664  28.644  37.979   2.392
16897W        W80665  40.350   1.395   1.821
16898W        W80666  15.090  33.956  11.462
16899W        W80667  31.417  44.796   1.782
16900W        W80668  42.901  42.796  10.438
16901W        W80669   4.383  16.750  13.445
16902W        W80670  40.854   4.205  12.497
16903W        W80671  14.247  33.489   0.354
16904W        W80672  12.756  39.965   1.297
16905W        W80673  17.579   7.702  14.451
16906W        W80674  18.734  17.579  14.824
16907W        W80675  37.483   8.359   3.171
16908W        W80676  40.368  35.065   1.695
16909W        W80677  30.516  13.668  13.890
16910W        W80678  42.906  25.551   4.646
16911W        W80679  15.269  19.215  14.407
16912W        W80680  21.139  38.567  14.860
16913W        W80681  27.001  13.729   3.355
16914W        W80682  41.433  40.539  13.911
16915W        W80683  25.705  30.091   0.272
16916W        W80684  43.506   8.746  11.903
16917W        W80685  37.950   1.906   1.407
16918W        W80686  41.430  44.422  13.814
16919W        W80687  21.526  24.113  11.864
16920W        W80688  20.137  14.228  11.998
16921W        W80689  25.573  34.564   0.934
16922W        W80690  16.688  36.406   4.337
16923W        W80691  34.022  38.911  10.528
16924W        W80692  41.828  44.461   9.949
16925W        W80693  33.120   1.456   4.312
16926W        W80694  44.782  44.928   3.148
16927W        W80695  33.898   2.720   3.225
16928W        W80696  17.610  13.815  11.897
16929W        W80697   8.759  44.922   1.394
16930W        W80698  18.658  44.286   1.739
16931W        W80699  10.153  32.097   4.614
16932W        W80700  34.970   8.877  10.050
16933W        W80701  22.178  43.349  10.594
16934W        W80702  25.148  27.066  11.052
16935W        W80703  39.385  33.421  14.319
16936W        W80704  15.253   6.205   2.226
16937W        W80705  15.718  41.385  13.946
16938W        W80706  30.647  22.650  13.990
16939W        W80707   3.840  23.078   1.212
16940W        W80708  24.670  25.047   4.741
16941W        W80709   0.428  36.592   0.888
16942W        W80710   4.344   8.377   3.256
16943W        W80711  39.447  34.423  13.520
16944W        W80712  10.226   5.430   3.741
16945W        W80713  35.600   0.432  12.567
16946W        W80714  38.564   7.359   0.317
16947W        W80715  27.035  32.563  14.007
16948W        W80716   3.804  20.707   1.928
16949W        W80717  38.970  34.873   4.638
16950W        W80718  36.351  15.688   0.393
16951W        W80719  20.726  12.662   4.820
16952W        W80720  20.182  12.184   1.882
16953W        W80721  21.712  12.234   2.750
16954W        W80722   0.436   0.454  10.938
16955W        W80723  10.371  16.761   4.275
16956W        W80724  31.419  12.823   1.277
16957W        W80725  33.439  28.561  14.512
16958W        W80726  17.277  26.952   9.979
16959W        W80727  39.400  11.767  12.053
16960W        W80728  12.348  16.812   3.798
16961W        W80729   5.699  10.679  10.902
16962W        W80730  25.650  18.725  11.538
16963W        W80731  24.143  19.727   2.365
16964W        W80732  20.195   6.351   2.852
16965W        W80733  14.240  33.079  10.077
16966W        W80734  32.959  11.747   1.784
16967W        W80735  10.686   2.291   1.816
16968W        W80736   9.728   9.366   1.304
16969W        W80737  12.736   1.878  14.311
16970W        W80738   6.269  34.576  11.018
16971W        W80739   3.252  16.313  11.455
16972W        W80740  35.949  39.841  10.564
16973W        W80741  12.200  31.011  10.527
16974W        W80742   4.365  32.573   3.156
16975W        W80743  12.846  41.483  11.955
16976W        W80744  19.051  42.987  12.852
16977W        W80745  10.280   3.924   5.226
16978W        W80746  20.202  36.904  11.047
16979W        W80747  36.421   7.887  13.963
16980W        W80748  27.066  13.130   4.837
16981W        W80749  18.126   4.739   2.797
16982W        W80750  14.180   0.366  11.022
16983W        W80751   6.306  36.542   3.832
16984W        W80752  27.014  16.261  13.945
16985W        W80753  42.453  25.714   1.427
16986W        W80754  20.569  11.199   1.923
16987W        W80755  41.444  33.962  11.448
16988W        W80756  40.457  40.445   3.173
16989W        W80757  18.280  34.512   4.270
16990W        W80758  27.663  31.142   0.849
16991W        W80759  11.793   2.463   2.229
16992W        W80760   8.260  20.632   3.248
16993W        W80761   6.278  10.844  13.829
16994W        W80762  39.522  25.028  12.043
16995W        W80763  25.559  19.584   3.177
16996W        W80764  43.953  34.084   2.725
16997W        W80765  19.552   1.780   2.274
16998W        W80766  31.015  38.071  12.384
16999W        W80767  37.863  22.560  14.824
17000W        W80768  24.122  40.446   4.348
17001W        W80769  27.133  21.695  13.530
17002W        W80770  16.214  24.518   0.391
17003W        W80771  20.749   7.290  12.902
17004W        W80772  17.283   1.338   1.911
17005W        W80773   0.832  25.611   4.781
17006W        W80774  22.093  37.935   0.898
17007W        W80775   7.172  37.396   3.750
17008W        W80776  21.262   9.792   0.258
17009W        W80777  15.798  25.586  14.321
17010W        W80778  20.037  16.681   4.304
17011W        W80779  40.360  16.701  13.992
17012W        W80780   4.346   1.267  12.427
17013W        W80781  30.630  23.012  11.059
17014W        W80782  42.390  44.947   4.187
17015W        W80783  43.364  30.562   5.153
17016W        W80784  21.534   7.756  14.831
17017W        W80785  32.969  30.078  14.858
17018W        W80786   5.366   4.780   0.929
17019W        W80787  10.649  42.297   0.462
17020W        W80788  15.266  16.137   1.838
17021W        W80789  32.886  19.098   1.888
17022W        W80790  42.386  21.602  12.823
17023W        W80791  26.610  44.899  12.040
17024W        W80792  22.189  40.406  13.476
17025W        W80793   5.416   2.849  10.538
17026W        W80794  39.870  12.170   2.831
17027W        W80795  16.655  14.626  10.481
17028W        W80796  33.071  30.121  12.844
17029W        W80797  17.145  20.216   0.261
17030W        W80798  14.678   5.359   3.748
17031W        W80799  44.782  43.903   0.329
17032W        W80800  13.122  35.884  14.372
17033W        W80801   7.697   0.484  12.562
17034W        W80802  41.538  22.620  14.798
17035W        W80803   5.764  35.440  14.507
17036W        W80804   3.459  37.886  11.551
17037W        W80805  39.817  16.811   3.743
17038W        W80806  15.261   5.787   1.838
17039W        W80807  18.095  28.164   2.371
17040W        W80808  38.351  25.525  12.912
17041W        W80809  18.567  43.380   0.852
17042W        W80810   4.276  38.349  12.873
17043W        W80811   9.743  30.031  10.413
17044W        W80812  27.657  12.181  12.491
17045W        W80813   9.679  17.618  11.389
17046W        W80814  42.981  22.108  11.493
17047W        W80815  11.701  24.030   9.942
17048W        W80816  41.013  18.684  12.990
17049W        W80817  23.123  41.790   1.795
17050W        W80818   2.837  16.140  13.944
17051W        W80819  20.041  18.777   0.351
17052W        W80820   8.703  37.446  12.347
17053W        W80821  20.532   7.690   4.608
17054W        W80822  34.602  10.828   1.430
17055W        W80823  13.818  44.756  12.978
17056W        W80824  36.574  34.877   4.321
17057W        W80825  17.251  28.113   1.423
17058W        W80826   4.425  22.596   2.852
17059W        W80827  19.722   8.313  12.049
17060W        W80828  43.851  19.057   1.846
17061W        W80829  20.760  22.588   1.869
17062W        W80830   2.908  22.013  14.445
17063W        W80831   9.737  11.309  13.445
17064W        W80832   8.169  44.457  14.927
17065W        W80833   4.766   3.910   1.252
17066W        W80834  39.332  32.925  12.096
17067W        W80835  27.462  21.745  14.483
17068W        W80836  12.150  29.012  12.370
17069W        W80837  17.686  21.223   3.305
17070W        W80838   7.798   8.755   4.267
17071W        W80839  33.619  26.104   2.832
17072W        W80840  23.012  42.905   2.203
17073W        W80841  14.130  43.003  12.360
17074W        W80842   4.427  27.581   3.171
17075W        W80843   7.183  26.632  10.033
17076W        W80844  28.471   0.940  14.442
17077W        W80845  15.816  44.799   1.743
17078W        W80846  12.254  11.321   3.698
17079W        W80847  10.163  12.851   0.748
17080W        W80848  37.527  26.537  11.042
17081W        W80849  44.281  23.653  12.360
17082W        W80850  10.252   6.243  11.515
17083W        W80851  34.934  17.737  14.762
17084W        W80852   3.314  27.091  13.019
17085W        W80853  37.047   9.165  11.567
17086W        W80854  23.500  35.561   1.845
17087W        W80855  18.221  38.926  11.856
17088W        W80856  31.960  37.409   1.727
17089W        W80857  32.095  37.404  13.796
17090W        W80858  34.978  21.251  14.320
17091W        W80859  10.757  23.178  10.963
17092W        W80860  38.948  19.542   3.675
17093W        W80861  20.219   2.960  11.527
17094W        W80862  15.764   3.745  13.023
17095W        W80863  27.556   1.920  10.446
17096W        W80864  31.127  39.970  10.412
17097W        W80865   1.368   6.276  12.827
17098W        W80866  21.627  27.163   0.425
17099W        W80867  28.450  19.107   0.448
17100W        W80868  29.116  19.541  11.856
17101W        W80869   4.315  19.638   0.420
17102W        W80870  43.295  38.068   1.423
17103W        W80871   9.820   2.288   1.410
17104W        W80872   4.884  40.022  13.475
17105W        W80873  32.431  25.585  11.572
17106W        W80874   8.281  11.827  13.432
17107W        W80875  11.635  15.283  11.985
17108W        W80876  26.574  28.160  14.436
17109W        W80877  41.363  41.347   2.747
17110W        W80878  39.856  31.467  14.301
17111W        W80879  11.722  17.105   9.925
17112W        W80880  11.296   4.778  11.934
17113W        W80881  42.322  37.366   3.161
17114W        W80882  21.172  14.650   3.801
17115W        W80883   1.423  37.466   3.184
17116W        W80884  12.319   7.234  13.350
17117W        W80885  13.719   1.239   3.184
17118W        W80886  28.168   8.726  10.466
17119W        W80887   0.766  17.109  10.957
17120W        W80888   3.272  11.784  11.858
17121W        W80889   9.685  35.943   2.266
17122W        W80890  33.897  26.591   0.480
17123W        W80891  17.675  44.369  11.976
17124W        W80892  43.819  41.948  14.330
17125W        W80893  28.545   0.792  12.450
17126W        W80894  23.492  39.932  11.981
17127W        W80895  31.552   1.347  12.497
17128W        W80896  10.273  13.348  14.396
17129W        W80897  11.205  18.664  13.985
17130W        W80898  15.134  11.320   5.183
17131W        W80899  40.351   7.757   2.335
17132W        W80900  22.532  15.606  10.035
17133W        W80901   0.872  26.113   1.903
17134W        W80902  15.778  22.026  14.941
17135W        W80903  12.177   6.242   3.731
17136W        W80904  25.692  39.961   0.319
17137W        W80905   9.690  35.977  14.374
17138W        W80906  32.534   7.280  10.938
17139W        W80907  12.307  38.488  11.945
17140W        W80908  15.753  43.808  10.538
17141W        W80909  23.133  39.062   4.802
17142W        W80910   4.377  20.118  11.496
17143W        W80911   6.328   1.841   2.704
17144W        W80912  24.711  31.929  13.475
17145W        W80913  35.936  36.580  12.518
17146W        W80914  37.404   2.442   5.300
17147W        W80915  40.312  13.837   0.472
17148W        W80916  40.485  12.200  10.486
17149W        W80917  39.548  42.019  11.897
17150W        W80918  12.797  18.089   3.650
17151W        W80919   7.799  31.041  12.868
17152W        W80920  13.213  16.228   4.197
17153W        W80921  29.055  14.758  13.375
17154W        W80922  28.555  21.257   1.410
17155W        W80923  14.115   8.177  13.957
17156W        W80924  18.123  35.977   1.908
17157W        W80925  20.647  28.996  11.518
17158W        W80926  32.491  38.972   4.685
17159W        W80927  33.881  28.973   0.748
17160W        W80928  30.908  41.344  14.977
17161W        W80929  36.517   0.967  11.588
17162W        W80930  22.709  43.010   0.801
17163W        W80931  16.603  40.930  10.500
17164W        W80932  36.887  31.153  12.384
17165W        W80933  18.641  19.661  12.005
17166W        W80934  18.258  37.384  11.583
17167W        W80935  20.562  32.482  13.468
17168W        W80936   3.925  23.148   1.894
17169W        W80937  11.299  28.599   2.366
17170W        W80938  15.618  18.223   2.825
17171W        W80939  38.940   6.847   1.888
17172W        W80940  26.543   7.801   2.205
17173W        W80941  21.546   7.890  11.449
17174W        W80942  24.629  13.207  13.319
17175W        W80943  30.162  36.055  14.484
17176W        W80944  24.525  33.578  11.611
17177W        W80945  32.544  36.484  10.952
17178W        W80946  17.061   7.707  11.487
17179W        W80947  23.659   5.881   0.294
17180W        W80948  10.819  27.552  14.339
17181W        W80949  44.786  12.166   3.630
17182W        W80950  40.372  13.169   2.376
17183W        W80951  43.017  43.828  14.410
17184W        W80952  31.953  11.251  11.401
17185W        W80953  16.794  15.217  12.921
17186W        W80954  44.261  16.619   4.191
17187W        W80955  12.253  28.473   0.244
17188W        W80956   3.317  10.667  11.978
17189W        W80957  16.675  23.653  13.504
17190W        W80958  34.398  26.038  14.889
17191W        W80959  12.285  25.703   4.683
17192W        W80960  11.169   4.882  11.095
17193W        W80961  38.521  37.537  11.108
17194W        W80962  34.965  10.760  13.973
17195W        W80963   4.716  15.770  11.551
17196W        W80964   5.306  21.058   2.389
17197W        W80965  25.628  17.709  13.828
17198W        W80966  18.575   8.189  13.424
17199W        W80967  24.063  32.045   3.767
17200W        W80968  16.199  43.427  10.429
17201W        W80969  22.020  31.485  12.489
17202W        W80970  43.499  20.554   3.870
17203W        W80971  27.543   5.766   3.797
17204W        W80972  17.142  27.479  10.931
17205W        W80973  16.781  35.901  13.469
17206W        W80974  10.789  43.819  13.358
17207W        W80975  17.754   6.872   1.929
17208W        W80976  22.095  38.034  12.027
17209W        W80977  30.013   9.689  12.090
17210W        W80978   6.313  30.484   4.809
17211W        W80979  14.245   5.257  14.296
17212W        W80980  36.551  10.375   0.768
17213W        W80981  21.696   9.330   2.371
17214W        W80982  39.373  25.587   1.836
17215W        W80983  23.732   8.901   0.314
17216W        W80984  15.119   3.926  13.312
17217W        W80985   2.391  17.748   2.287
17218W        W80986  42.460   6.415  10.616
17219W        W80987  22.639  27.559   3.189
17220W        W80988  28.475   3.724   1.299
17221W        W80989  20.619  15.729   1.921
17222W        W80990  40.524  31.981  14.392
17223W        W80991  29.520  25.561   3.384
17224W        W80992  33.929  11.358   1.316
17225W        W80993  42.389  28.156  11.534
17226W        W80994  37.082  42.987  11.956
17227W        W80995  22.038  35.544   3.850
17228W        W80996  14.246  18.085  13.902
17229W        W80997  24.146   2.950  11.514
17230W        W80998   9.748  35.981   0.273
17231W        W80999  12.130  23.197   2.681
17232W        W81000  37.876  25.149  10.986
17233W        W81001  15.237  29.170  11.021
17234W        W81002  13.809  37.565   2.867
17235W        W81003  39.870  15.617   4.149
17236W        W81004  28.535  27.472  14.829
17237W        W81005  21.638  22.218  14.388
17238W        W81006  25.661  13.646  11.455
17239W        W81007  12.722  23.174   2.333
17240W        W81008  32.517  33.942   1.890
17241W        W81009  19.612  18.145   4.733
17242W        W81010  21.608  26.559   3.741
17243W        W81011   3.401   6.810   1.264
17244W        W81012  16.695   3.414   4.833
17245W        W81013  42.927   0.802  13.810
17246W        W81014  22.531  18.685   2.763
17247W        W81015  36.846  17.762  13.917
17248W        W81016  17.094   2.363  14.937
17249W        W81017  24.680  29.496  10.891
17250W        W81018  28.114   0.926  10.096
17251W        W81019   3.941  19.548   3.713
17252W        W81020  36.521  42.886  11.440
17253W        W81021  16.642  14.323  14.397
17254W        W81022  16.306   6.272  14.912
17255W        W81023  38.408  17.133  12.015
17256W        W81024  32.980  23.167   1.334
17257W        W81025  17.751  28.968  13.442
17258W        W81026   2.911  19.718   1.823
17259W        W81027  43.863  29.650   2.349
17260W        W81028  40.491  18.213   1.375
17261W        W81029  12.632   1.756  10.436
17262W        W81030  33.920  31.094  13.023
17263W        W81031   6.343  10.347  11.875
17264W        W81032   4.221  18.702  14.905
17265W        W81033  36.544   5.372  14.921
17266W        W81034  43.901  22.667  12.938
17267W        W81035  37.929  33.024  11.544
17268W        W81036  28.961  43.821   3.239
17269W        W81037   2.239  22.142   4.754
17270W        W81038  38.879  20.208  14.390
17271W        W81039  41.816   6.855   0.792
17272W        W81040  20.102  40.825   0.427
17273W        W81041  43.441  20.268  14.886
17274W        W81042  33.129  41.908   2.694
17275W        W81043  10.845   6.421  12.094
17276W        W81044  36.880  36.556  12.400
17277W        W81045  32.024  43.290  10.905
17278W        W81046  32.895  12.712  12.855
17279W        W81047  27.112  32.464   0.394
17280W        W81048  31.899  11.644   2.686
17281W        W81049   7.343  11.369  13.851
17282W        W81050  15.196  19.658   1.303
17283W        W81051   8.370  19.146   2.393
17284W        W81052  41.506  28.141  11.933
17285W        W81053  39.440  27.170   4.662
17286W        W81054  37.382  28.966  10.927
17287W        W81055  19.597   8.328   0.478
17288W        W81056  29.098  19.756   3.814
17289W        W81057  26.496   6.383  12.948
17290W        W81058  28.545  14.601   0.288
17291W        W81059   7.747   7.868  11.429
17292W        W81060   0.450  11.715  14.823
17293W        W81061  44.398  28.175  12.864
17294W        W81062  38.426   6.809   1.904
17295W        W81063  15.707  19.581   0.256
17296W        W81064   7.289  42.808   3.334
17297W        W81065  18.606  20.676   2.314
17298W        W81066  28.061   4.332  14.456
17299W        W81067   5.854  31.471   0.944
17300W        W81068  18.287  31.071   4.186
17301W        W81069  32.049  19.229   3.313
17302W        W81070  10.220  38.948   0.468
17303W        W81071   6.330  37.035   4.779
17304W        W81072  24.637  13.768  11.004
17305W        W81073   1.733  38.895   0.907
17306W        W81074   5.859   1.751  11.528
17307W        W81075   6.799  34.603  14.995
17308W        W81076   1.426  23.185   2.832
17309W        W81077  37.353  44.426   1.712
17310W        W81078   5.834  35.091  10.640
17311W        W81079  22.519  42.361  12.931
17312W        W81080   1.410  17.761  13.363
17313W        W81081   0.979  21.190  10.910
17314W        W81082  16.112  35.929   5.176
17315W        W81083  31.963  20.200  11.393
17316W        W81084  32.078  24.048  11.473
17317W        W81085  39.058  27.489  10.152
17318W        W81086  39.455  24.059  10.543
17319W        W81087  31.549  11.713   3.853
17320W        W81088  34.059   1.372  12.351
17321W        W81089  31.896  19.167  12.955
17322W        W81090  28.085  12.201  14.460
17323W        W81091  23.078  22.738  13.345
17324W        W81092  14.698   1.274  10.453
17325W        W81093   1.807  27.496   0.272
17326W        W81094  26.508  15.124   2.741
17327W        W81095  19.599  33.078  14.445
17328W        W81096  22.253  40.977  12.093
17329W        W81097   4.408   6.337   0.261
17330W        W81098  39.881  38.827  11.008
17331W        W81099   6.859  22.680   0.836
17332W        W81100  19.738  25.521   0.932
17333W        W81101   8.723  25.578   3.750
17334W        W81102  34.516   1.760  13.376
17335W        W81103  34.099   6.689   0.365
17336W        W81104  11.664  34.973   1.737
17337W        W81105  27.992  37.020   0.864
17338W        W81106  10.333  11.777   3.658
17339W        W81107  20.160  34.011  12.441
17340W        W81108  36.393  14.209  14.514
17341W        W81109  25.605  33.069   0.906
17342W        W81110  34.473  27.484  13.957
17343W        W81111  39.455  26.037  11.865
17344W        W81112  18.235   5.406   4.612
17345W        W81113  31.526  24.480   4.613
17346W        W81114  43.781  34.975  14.023
17347W        W81115  35.978   8.770   5.144
17348W        W81116  20.680   6.241  10.945
17349W        W81117  10.635  38.505  13.503
17350W        W81118   5.345  31.000   3.197
17351W        W81119   3.888  24.660   4.154
17352W        W81120  13.291  34.527  10.141
17353W        W81121  20.586   5.204  12.973
17354W        W81122  17.683  13.245   0.337
17355W        W81123  23.627  32.134  11.561
17356W        W81124  32.556  20.204   3.858
17357W        W81125  42.435   3.378  10.053
17358W        W81126  43.501  39.480  14.988
17359W        W81127   3.790   4.861   1.924
17360W        W81128  42.914  43.319   3.332
17361W        W81129  37.419  28.453  12.001
17362W        W81130  34.423  37.061  12.001
17363W        W81131  41.879  29.951  10.416
17364W        W81132  15.116  28.113   3.841
17365W        W81133  23.556  30.459  12.927
17366W        W81134  14.282  15.258  10.560
17367W        W81135  23.165  31.904   0.784
17368W        W81136   4.434  29.104  14.307
17369W        W81137  15.747  13.832   3.315
17370W        W81138  24.522  13.688  13.927
17371W        W81139  16.258  37.974  14.430
17372W        W81140  19.169  17.596   0.399
17373W        W81141   1.262  31.142  11.044
17374W        W81142  37.422  21.552  12.049
17375W        W81143  10.215  23.640  10.435
17376W        W81144  10.851   9.684  11.372
17377W        W81145  17.161  34.532  13.460
17378W        W81146  41.839  40.430   1.935
17379W        W81147  15.577  30.061   9.948
17380W        W81148  22.221  40.465  13.816
17381W        W81149  26.601  10.367   2.190
17382W        W81150  36.065   2.857   3.684
17383W        W81151  30.915  10.271   0.871
17384W        W81152  40.329  13.305   4.647
17385W        W81153   3.935  16.671  10.457
17386W        W81154  13.723   7.403  11.607
17387W        W81155   4.881   7.794   0.309
17388W        W81156  32.933  21.550  14.347
17389W        W81157  41.324   3.782  13.531
17390W        W81158  18.260  11.209  13.532
17391W        W81159  30.967  33.982  13.902
17392W        W81160  17.304  23.610   1.770
17393W        W81161   4.229  43.308  12.352
17394W        W81162  21.094   0.872   1.295
17395W        W81163  40.898  43.488  12.519
17396W        W81164  37.911  37.360   4.175
17397W        W81165  44.775  22.188  14.362
17398W        W81166  15.305  42.459   2.307
17399W        W81167  19.098  34.022  12.564
17400W        W81168  19.659   2.901   3.863
17401W        W81169   9.323   5.263  14.772
17402W        W81170  13.184  31.934   4.730
17403W        W81171  37.414  20.588  11.908
17404W        W81172  39.996  12.265   4.352
17405W        W81173  33.878   7.888  12.564
17406W        W81174  15.112  37.054  14.838
17407W        W81175   8.328  19.563   3.153
17408W        W81176  24.553  11.272   5.726
17409W        W81177  41.376  24.489   2.385
17410W        W81178   9.707  13.305   0.734
17411W        W81179   0.968  27.133  14.409
17412W        W81180  43.884  42.986  10.903
17413W        W81181   7.700  17.135   2.899
17414W        W81182  40.378  21.597   2.311
17415W        W81183   7.762  41.319  11.965
17416W        W81184   1.413   1.820  12.968
17417W        W81185  35.998  26.145   1.269
17418W        W81186  24.045  24.725  13.896
17419W        W81187   4.304  25.206  14.407
17420W        W81188  33.392   8.782  12.492
17421W        W81189   1.789  24.672   0.400
17422W        W81190  38.964   7.261  13.991
17423W        W81191  30.478  15.719   3.768
17424W        W81192  11.181  35.550  11.965
17425W        W81193   5.381  32.129   2.711
17426W        W81194  25.212  17.290   2.244
17427W        W81195   1.770  16.746  10.449
17428W        W81196   0.899  13.219   4.270
17429W        W81197  22.581  37.923  14.932
17430W        W81198   9.713  20.529  13.828
17431W        W81199  40.955  41.426  11.467
17432W        W81200  20.083  41.861  10.590
17433W        W81201   3.835  31.027   1.238
17434W        W81202  32.976  27.163  10.622
17435W        W81203   8.673  25.059   4.339
17436W        W81204  15.220   1.320  12.365
17437W        W81205   5.431  26.041  11.502
17438W        W81206   9.378   4.398   1.735
17439W        W81207  32.892  44.347  11.451
17440W        W81208  17.662   5.723   2.369
17441W        W81209  18.556  41.504  13.931
17442W        W81210   5.420  22.662   1.850
17443W        W81211  36.972   5.793  12.839
17444W        W81212  10.383  19.656   3.382
17445W        W81213  38.054  14.594   4.755
17446W        W81214  35.365  21.692   4.740
17447W        W81215   5.897  27.121  11.021
17448W        W81216  44.830  21.193   1.291
17449W        W81217  17.779  29.120   4.221
17450W        W81218  30.556   7.767  14.450
17451W        W81219  12.762  22.216   4.168
17452W        W81220  16.717  41.859   0.825
17453W        W81221  28.518  15.227   1.386
17454W        W81222  20.555  31.082  12.375
17455W        W81223  42.293  23.017   2.764
17456W        W81224  37.370   7.803  13.892
17457W        W81225   7.909   5.420   0.764
17458W        W81226   5.784  24.218   2.866
17459W        W81227  32.987  26.196   0.774
17460W        W81228  25.659  24.488  13.877
17461W        W81229  36.029  24.517   4.761
17462W        W81230  13.658  27.648   2.305
17463W        W81231  10.249  26.122   0.396
17464W        W81232  23.058  20.051  13.995
17465W        W81233  23.537  26.558  13.029
17466W        W81234   3.883  16.769   1.310
17467W        W81235  29.930  22.730  14.513
17468W        W81236  20.152  16.299   1.406
17469W        W81237  14.320  31.598   2.342
17470W        W81238  37.557  16.166   1.798
17471W        W81239  32.418   3.239  14.791
17472W        W81240  23.208   4.795   1.769
17473W        W81241   8.734   7.201  10.968
17474W        W81242  39.501  41.447   3.145
17475W        W81243  17.693  34.611  12.052
17476W        W81244  23.630  35.061  14.970
17477W        W81245  38.438  27.073  12.005
17478W        W81246  18.758  30.049   1.312
17479W        W81247  32.140  39.555  14.406
17480W        W81248  27.509  29.934  11.044
17481W        W81249  29.085   3.417   3.746
17482W        W81250  33.086  36.505  13.003
17483W        W81251   9.153  16.614  13.546
17484W        W81252  35.875  23.033   0.933
17485W        W81253  22.746  21.125  12.380
17486W        W81254   3.868  41.791   0.834
17487W        W81255  22.049   3.378   2.811
17488W        W81256   8.318  26.682   1.900
17489W        W81257  27.133  38.992   4.338
17490W        W81258  25.030  12.231   3.211
17491W        W81259  22.603  18.681  13.004
17492W        W81260   1.415   3.765  11.517
17493W        W81261  34.014  29.163  10.939
17494W        W81262  39.003  37.885  10.531
17495W        W81263   3.339   5.821  11.598
17496W        W81264  42.014  14.700  14.429
17497W        W81265  10.300  15.323  11.010
17498W        W81266  43.889  27.955  14.832
17499W        W81267  42.952  14.602  13.352
17500W        W81268  29.969  40.441  11.380
17501W        W81269   6.310  18.787   3.743
17502W        W81270  31.510  17.128  12.049
17503W        W81271  35.443  11.679  10.638
17504W        W81272  21.231  38.048   0.881
17505W        W81273  31.616  19.543  12.063
17506W        W81274   8.304  36.478  13.950
17507W        W81275   8.854  17.780   1.698
17508W        W81276  38.336  10.790   4.628
17509W        W81277  39.854  43.431   2.273
17510W        W81278   6.758  44.760  11.120
17511W        W81279   5.882   0.453  13.029
17512W        W81280  43.458   8.899   3.239
17513W        W81281  14.263  41.830  13.880
17514W        W81282  19.131  25.152   5.218
17515W        W81283  18.241   0.397   1.696
17516W        W81284  17.106  36.464  13.980
17517W        W81285  28.676  30.128  12.991
17518W        W81286  21.217  35.940   2.780
17519W        W81287  21.018  22.235  13.983
17520W        W81288  44.299  20.195   3.321
17521W        W81289  40.935  11.817   2.668
17522W        W81290  39.946  21.689  10.634
17523W        W81291   1.766  14.309   1.306
17524W        W81292  37.504  34.607   3.275
17525W        W81293  41.508   8.259  13.428
17526W        W81294  11.674   6.739  13.981
17527W        W81295  16.215  39.910   0.323
17528W        W81296  28.063   3.912   1.263
17529W        W81297  16.574  38.464   3.660
17530W        W81298  43.449  19.535  11.484
17531W        W81299   5.326  16.269   2.353
17532W        W81300  25.524  11.302  10.533
17533W        W81301  14.313  14.705  11.035
17534W        W81302   2.767  13.796  14.803
17535W        W81303  16.150   3.793   0.272
17536W        W81304  15.789  42.910   1.434
17537W        W81305  27.634  34.060  13.056
17538W        W81306   0.467  12.283  13.062
17539W        W81307  39.824   9.287  14.312
17540W        W81308  20.040  29.617  11.468
17541W        W81309  11.624   4.732  13.404
17542W        W81310  16.680   2.289   4.259
17543W        W81311   0.924   3.755  14.902
17544W        W81312  15.664  10.697   1.383
17545W        W81313  38.519  29.946   3.760
17546W        W81314  28.477  44.360   0.782
17547W        W81315   7.812   5.812  13.319
17548W        W81316   1.390   1.348   2.193
17549W        W81317  28.465   9.200  13.881
17550W        W81318  10.863   8.686  10.567
17551W        W81319  41.496  38.961  11.487
17552W        W81320   8.771  22.692   2.834
17553W        W81321  17.625  35.873   2.271
17554W        W81322  40.867  36.484   0.337
17555W        W81323  40.435   0.402   1.785
17556W        W81324  20.256  21.681  11.493
17557W        W81325   4.412  14.679   4.321
17558W        W81326   5.859   1.345   2.761
17559W        W81327  35.928  33.081   2.788
17560W        W81328  26.172   5.246   0.881
17561W        W81329  13.172  19.687  11.464
17562W        W81330  25.007   6.238   3.201
17563W        W81331  36.592  22.136  11.605
17564W        W81332  15.744   1.760   0.727
17565W        W81333  41.525  16.608   1.910
17566W        W81334  39.460   9.836  14.344
17567W        W81335  13.689   1.292   4.643
17568W        W81336  28.159  25.587   4.290
17569W        W81337  22.516  10.206  12.468
17570W        W81338  16.186  16.567   2.800
17571W        W81339   4.878  12.830   1.756
17572W        W81340  10.276  14.642   4.768
17573W        W81341  20.127  12.248   2.731
17574W        W81342  11.306   6.318   1.784
17575W        W81343  43.011  44.985  10.900
17576W        W81344  34.074  20.613  13.521
17577W        W81345  17.672   1.781   2.241
17578W        W81346  24.697  32.124  12.458
17579W        W81347  20.088  25.059  14.904
17580W        W81348  39.932  16.785  13.061
17581W        W81349  42.944  17.673   2.300
17582W        W81350  23.592  35.093   1.792
17583W        W81351  44.452  37.086   1.430
17584W        W81352  15.297  16.650   1.918
17585W        W81353  27.446  35.991   1.749
17586W        W81354  29.083  34.577  11.070
17587W        W81355  27.967  40.350   2.313
17588W        W81356   6.416  13.639  12.360
17589W        W81357  13.312  22.723   5.220
17590W        W81358  32.109  20.535   0.911
17591W        W81359  31.909  32.124   0.324
17592W        W81360   4.834  16.666  10.029
17593W        W81361  11.299  15.787  10.414
17594W        W81362  17.197  18.151   0.819
17595W        W81363   7.377  13.139   3.818
17596W        W81364  19.584   0.788   4.620
17597W        W81365  43.964  42.954  13.801
17598W        W81366  33.421  12.694   3.311
17599W        W81367  34.009  37.066  13.531
17600W        W81368  16.300   4.352   0.875
17601W        W81369  41.019  37.420  14.437
17602W        W81370  16.651  44.447  11.093
17603W        W81371  13.623  32.999  12.551
17604W        W81372   7.248  20.120  12.463
17605W        W81373  42.934  35.424   1.835
17606W        W81374  30.963   6.749  13.814
17607W        W81375  24.124  31.559   2.712
17608W        W81376  30.137  12.341   4.161
17609W        W81377   8.767  24.550  10.491
17610W        W81378   5.362   6.876  12.412
17611W        W81379  11.361  17.086   0.930
17612W        W81380  18.551   2.782   2.783
17613W        W81381  16.281  34.595   0.288
17614W        W81382  17.749  20.701   2.883
17615W        W81383  13.664  26.077   2.262
17616W        W81384  33.549  25.113  12.417
17617W        W81385   8.350  26.668   3.838
17618W        W81386  30.999  32.134   3.374
17619W        W81387  18.105  27.956   4.672
17620W        W81388  20.196  42.518  12.537
17621W        W81389  13.268  25.073   4.642
17622W        W81390   2.278  39.894  10.441
17623W        W81391  43.840   9.887  11.509
17624W        W81392  30.419  23.597   2.293
17625W        W81393  21.059  34.046   3.328
17626W        W81394  23.538  36.558  11.066
17627W        W81395  22.252  30.079   1.335
17628W        W81396  19.733  35.572   2.261
17629W        W81397   7.801  32.484   2.725
17630W        W81398  32.929  27.120   3.282
17631W        W81399  30.501   7.856  14.789
17632W        W81400  37.836  33.085  14.807
17633W        W81401  25.661  15.667   4.819
17634W        W81402  41.956  41.788  10.519
17635W        W81403  40.907  24.546   1.856
17636W        W81404  22.584  43.887  10.083
17637W        W81405   8.729  11.724  11.928
17638W        W81406  14.589   4.755  12.543
17639W        W81407  11.310  42.975   1.835
17640W        W81408  27.091  18.115   1.421
17641W        W81409  13.224  14.637   4.337
17642W        W81410   5.193  15.323   4.798
17643W        W81411  39.414  32.086   5.713
17644W        W81412  13.351  10.311  11.080
17645W        W81413  17.247  24.061   1.444
17646W        W81414   9.877  39.493   3.787
17647W        W81415  16.609   7.239  12.911
17648W        W81416   8.674   7.899  11.124
17649W        W81417   8.776  22.147   2.234
17650W        W81418  16.108  41.452   0.929
17651W        W81419   8.243  42.500   2.732
17652W        W81420  18.781  15.221   0.794
17653W        W81421   1.420  34.106  14.935
17654W        W81422  37.920  25.654   2.781
17655W        W81423  25.602  24.555   4.600
17656W        W81424  35.957  36.360  12.034
17657W        W81425   8.736  31.096   0.460
17658W        W81426  22.249  14.694   4.682
17659W        W81427  10.798  43.362  14.315
17660W        W81428  13.154  29.576  14.319
17661W        W81429  26.003  40.854   1.440
17662W        W81430  34.425  39.413   0.881
17663W        W81431  43.811  13.778  11.382
17664W        W81432   1.772  44.855   4.139
17665W        W81433  10.315  24.047  13.810
17666W        W81434  17.620  12.269   4.807
17667W        W81435  34.050  20.619   1.315
17668W        W81436   4.845   5.913   4.170
17669W        W81437  19.158   1.750  13.871
17670W        W81438   4.944  25.582  11.910
17671W        W81439  22.647  30.986   2.667
17672W        W81440   7.846  32.397  12.545
17673W        W81441  37.514   3.320   0.834
17674W        W81442  41.816   1.389  13.809
17675W        W81443  29.003  22.545  11.382
17676W        W81444   9.811  10.762   2.326
17677W        W81445  17.278  20.528   1.924
17678W        W81446  38.430   9.832  12.433
17679W        W81447  25.577  13.834   2.195
17680W        W81448   7.730   7.315  10.416
17681W        W81449  39.451  27.941   4.279
17682W        W81450  39.896  17.597  14.297
17683W        W81451  10.692  11.284  14.345
17684W        W81452  19.637  36.053   2.713
17685W        W81453  42.416  29.961  12.421
17686W        W81454  33.042  23.506  10.620
17687W        W81455  32.529  15.790   2.818
17688W        W81456  35.388  40.423  12.830
17689W        W81457   9.277  12.275  14.333
17690W        W81458  25.541  23.630   4.701
17691W        W81459  14.817   2.836   3.157
17692W        W81460   6.868  35.082   4.271
17693W        W81461   3.891  44.260  10.586
17694W        W81462  38.351  15.094   1.413
17695W        W81463  12.131   6.874   2.691
17696W        W81464   3.283  39.026  10.137
17697W        W81465  38.529  36.438   2.710
17698W        W81466  28.579  19.081   1.753
17699W        W81467   0.751  35.100   3.387
17700W        W81468  31.503  24.025   3.387
17701W        W81469  28.450  27.458  12.499
17702W        W81470   6.365  24.492   1.245
17703W        W81471   5.201  23.007   2.382
17704W        W81472  43.859   2.392   1.766
17705W        W81473  18.056  44.403   0.263
17706W        W81474  30.091  30.526  11.417
17707W        W81475  33.475   1.758  14.895
17708W        W81476  39.471  34.036   3.718
17709W        W81477  10.351  31.062   3.330
17710W        W81478  41.003  14.833   3.300
17711W        W81479  19.222  12.674   3.862
17712W        W81480  10.384  22.603   3.871
17713W        W81481  41.905   8.270  12.882
17714W        W81482  24.145   8.321   3.791
17715W        W81483  32.995  25.669  11.476
17716W        W81484  15.589  15.324   2.388
17717W        W81485   0.463   5.314   3.649
17718W        W81486  11.208   9.200   2.775
17719W        W81487  16.283   4.836  10.404
17720W        W81488  42.826  29.537  13.343
17721W        W81489   4.897  28.621  10.152
17722W        W81490  27.026  36.900  11.931
17723W        W81491  36.972  27.551   0.276
17724W        W81492  31.467   9.795   4.331
17725W        W81493  12.701  14.132   2.344
17726W        W81494   1.837  40.821   0.751
17727W        W81495  21.149  36.914  11.566
17728W        W81496  18.715  37.362  13.012
17729W        W81497  30.983  37.534  11.488
17730W        W81498  15.205   4.277   2.409
17731W        W81499  11.334  39.900  14.312
17732W        W81500  21.197  23.646  12.931
17733W        W81501   3.887   7.388   0.801
17734W        W81502   8.676  32.953  14.906
17735W        W81503   6.788   9.162   4.146
17736W        W81504  23.629   2.285   2.240
17737W        W81505  30.122  28.526   1.924
17738W        W81506  43.282  26.967  12.577
17739W        W81507  15.091  38.561  12.360
17740W        W81508  14.733  26.999  11.978
17741W        W81509   0.967  21.188   1.342
17742W        W81510  39.534  40.394   3.642
17743W        W81511  31.567  23.194  13.480
17744W        W81512  17.646   2.240  10.584
17745W        W81513  36.938  27.569   3.291
17746W        W81514  15.782  10.775   3.709
17747W        W81515  15.734  10.275   3.361
17748W        W81516  34.868  25.562  10.429
17749W        W81517  15.211  42.414  14.503
17750W        W81518  43.929  44.487  11.129
17751W        W81519  24.558  28.521   0.869
17752W        W81520  10.317  29.524   4.614
17753W        W81521  23.145  20.059   4.728
17754W        W81522  14.641   4.792   1.715
17755W        W81523  10.297   0.969   2.831
17756W        W81524   5.927   8.753   2.848
17757W        W81525  44.488   0.356  12.507
17758W        W81526  35.521   8.258   0.354
17759W        W81527  13.649  23.002   3.182
17760W        W81528  32.424  14.103  12.497
17761W        W81529  16.195   3.321  14.812
17762W        W81530  37.907  42.487  13.027
17763W        W81531  20.141   9.380  13.063
17764W        W81532   3.929  38.352   4.723
17765W        W81533  19.264  19.726   3.793
17766W        W81534  43.385  15.269   2.696
17767W        W81535  40.053   9.730  10.476
17768W        W81536   2.255  43.383   2.849
17769W        W81537  42.470  22.648  10.442
17770W        W81538   0.923  19.598   4.740
17771W        W81539  20.202   8.896   4.785
17772W        W81540  18.240  14.301   0.387
17773W        W81541  36.486   8.850  14.860
17774W        W81542  44.503   9.850  12.526
17775W        W81543  15.128  30.160   2.402
17776W        W81544  27.508   2.814  14.465
17777W        W81545  26.665  16.317  11.871
17778W        W81546   4.367  26.111   0.253
17779W        W81547  32.138  41.895   0.345
17780W        W81548   5.374  11.856   0.848
17781W        W81549   8.818  33.963  12.484
17782W        W81550  21.018  36.553  11.436
17783W        W81551   8.370   1.750   4.742
17784W        W81552  16.172   7.883   4.798
17785W        W81553  33.940  19.105   1.215
17786W        W81554  25.196  30.968  10.473
17787W        W81555  17.131   9.231   2.692
17788W        W81556  27.976  35.082   2.803
17789W        W81557  27.657   3.406   5.181
17790W        W81558  14.625  17.065   2.773
17791W        W81559  12.807  41.995   2.346
17792W        W81560  14.227   5.903   4.328
17793W        W81561  36.512  27.020  14.848
17794W        W81562  26.003  39.854   1.754
17795W        W81563  41.514   8.868  11.097
17796W        W81564  12.698  16.629  14.402
17797W        W81565   2.354  39.534  12.348
17798W        W81566  20.257   6.845   3.246
17799W        W81567  38.346  20.090  11.943
17800W        W81568  40.811  33.573   1.357
17801W        W81569   7.696  37.405  14.760
17802W        W81570  35.070  11.861   1.860
17803W        W81571  19.283  11.252  14.833
17804W        W81572  40.812  16.133  13.339
17805W        W81573   5.287   2.875   0.429
17806W        W81574  22.615  22.745  10.478
17807W        W81575  35.917  25.970  14.386
17808W        W81576  10.222   3.936   3.298
17809W        W81577  13.755  10.797  10.977
17810W        W81578   7.196  23.692   2.194
17811W        W81579  27.074  31.506   0.377
17812W        W81580  16.667  40.446  14.795
17813W        W81581  34.432  15.661   0.779
17814W        W81582  11.192  17.125   0.325
17815W        W81583  26.126  44.817   4.293
17816W        W81584  16.632   2.778  13.804
17817W        W81585  43.935  30.163   4.613
17818W        W81586  12.763   6.221  12.410
17819W        W81587  20.632  19.205   2.716
17820W        W81588  18.229   3.820  13.937
17821W        W81589  37.542   8.860  13.872
17822W        W81590  15.649  43.010  14.504
17823W        W81591  36.861  32.439  10.430
17824W        W81592  15.807  35.428   0.779
17825W        W81593  19.713  41.853   4.711
17826W        W81594   5.426  40.013   0.885
17827W        W81595   4.318  31.583  14.935
17828W        W81596   9.243  32.952  12.970
17829W        W81597  10.663  11.340  10.895
17830W        W81598  42.819  26.064   4.286
17831W        W81599  10.812  13.665  12.532
17832W        W81600  14.295  42.485   4.661
17833W        W81601  31.466  21.622   4.700
17834W        W81602   3.262  38.516   0.446
17835W        W81603   7.670  15.779   1.838
17836W        W81604  22.112  27.589  11.084
17837W        W81605  31.929  44.007   3.766
17838W        W81606  19.046  42.332   1.764
17839W        W81607  29.060   5.210  14.379
17840W        W81608  35.397   3.392  14.835
17841W        W81609  30.959  17.680   9.570
17842W        W81610  35.527  26.989   4.598
17843W        W81611  24.069  21.036  10.003
17844W        W81612  14.291   8.894  11.531
17845W        W81613  24.695   8.808  14.967
17846W        W81614  42.442  21.255  12.559
17847W        W81615  44.008  13.629   0.788
17848W        W81616  41.496  30.483   5.648
17849W        W81617  32.587  22.653  13.958
17850W        W81618  14.672  42.997   2.775
17851W        W81619  33.392   5.796   3.209
17852W        W81620  31.119  27.618  14.365
17853W        W81621  32.060  41.480  11.606
17854W        W81622  43.339  31.616  13.414
17855W        W81623  36.484  22.089   3.242
17856W        W81624  28.929  44.289   3.842
17857W        W81625  32.980   6.298   0.475
17858W        W81626  16.801  42.779   4.308
17859W        W81627   9.868  31.056   0.369
17860W        W81628  18.627  24.097   0.469
17861W        W81629   7.238  17.079   4.248
17862W        W81630  20.735  34.911   9.470
17863W        W81631   5.362  17.756   1.762
17864W        W81632  28.567  12.301   4.209
17865W        W81633   1.364  12.257  13.407
17866W        W81634  22.551  27.690   3.663
17867W        W81635   4.393  35.883  10.971
17868W        W81636   1.285   3.325  11.506
17869W        W81637  29.528  27.690   1.394
17870W        W81638  30.922   6.405  11.097
17871W        W81639  44.998   1.294  11.040
17872W        W81640  28.996  30.473  12.348
17873W        W81641   4.894  16.314   1.862
17874W        W81642  31.914  15.297   3.285
17875W        W81643  12.813  39.352   4.694
17876W        W81644  35.477  23.097  12.414
17877W        W81645  21.211  28.080   1.741
17878W        W81646  12.736  22.508   3.670
17879W        W81647  24.680  10.285   0.391
17880W        W81648  39.963  39.419   3.707
17881W        W81649  38.979  44.909   2.190
17882W        W81650   5.217  11.818   3.165
17883W        W81651  11.684  36.536  14.761
17884W        W81652  38.965  27.963  11.049
17885W        W81653  31.589  18.590   3.804
17886W        W81654  14.809  18.744  14.439
17887W        W81655  11.335  12.128   3.660
17888W        W81656  31.917  38.868  14.955
17889W        W81657  44.385  31.054  12.452
17890W        W81658  41.835  22.710   1.931
17891W        W81659  12.237  29.456  13.520
17892W        W81660   6.744   8.885  14.776
17893W        W81661  44.498   7.252   0.277
17894W        W81662   7.203  22.042   0.730
17895W        W81663  24.181  35.374   2.372
17896W        W81664  15.242  15.624   3.754
17897W        W81665  23.670  27.587   3.226
17898W        W81666  20.216  22.103   3.348
17899W        W81667   9.293  38.948   4.289
17900W        W81668   7.262  39.440   0.927
17901W        W81669  40.921   3.855   0.941
17902W        W81670  24.619  20.654   0.944
17903W        W81671  21.608  24.516  12.837
17904W        W81672   0.418  26.071  13.900
17905W        W81673  13.307  40.903  13.458
17906W        W81674  28.036  25.068   3.665
17907W        W81675  21.564   7.858  13.460
17908W        W81676   1.835  27.941   0.386
17909W        W81677  27.475   6.835   1.428
17910W        W81678  16.573  44.392  12.019
17911W        W81679  22.997  39.817  13.887
17912W        W81680  25.998  23.496  10.615
17913W        W81681  17.288  30.967  14.351
17914W        W81682  23.197  43.348   0.476
17915W        W81683  35.592  20.535  13.386
17916W        W81684  20.603  28.089  13.031
17917W        W81685  41.844  43.900  10.594
17918W        W81686   0.476  27.495  11.911
17919W        W81687  29.053  11.278   1.807
17920W        W81688  20.650  44.926  12.467
17921W        W81689  22.246  14.713  10.641
17922W        W81690  17.746  35.479  11.593
17923W        W81691   4.832  33.948   3.309
17924W        W81692   0.420  37.499  11.566
17925W        W81693   6.825  38.369   3.172
17926W        W81694  22.996  21.594  14.027
17927W        W81695   2.416  39.532   1.337
17928W        W81696  11.740  17.734  12.496
17929W        W81697  42.510   5.885  11.125
17930W        W81698  22.651  42.870  10.127
17931W        W81699   2.923   3.710   1.335
17932W        W81700   5.763  38.534  11.408
17933W        W81701  19.778  27.968  11.429
17934W        W81702  29.155  18.144   2.205
17935W        W81703  43.498  12.329   3.707
17936W        W81704  41.948  25.603  10.428
17937W        W81705  15.212   4.822   0.794
17938W        W81706  13.305  39.014  10.404
17939W        W81707  18.731   2.907   3.162
17940W        W81708  20.047  33.113  14.503
17941W        W81709  25.574  36.086  11.009
17942W        W81710  44.846   1.343  12.498
17943W        W81711  40.316  34.098  14.971
17944W        W81712   2.269   1.298  10.639
17945W        W81713   2.819  32.430  10.968
17946W        W81714  12.324  35.040   0.920
17947W        W81715  41.914  34.029   4.621
17948W        W81716  26.204  32.394   3.358
17949W        W81717  23.991  27.093  13.881
17950W        W81718   3.732  35.389  11.885
17951W        W81719  35.883  41.414   2.417
17952W        W81720  44.258  30.965   1.776
17953W        W81721   2.875  14.339  13.441
17954W        W81722  11.622   0.933  14.785
17955W        W81723  23.544  36.448   3.837
17956W        W81724  20.671   6.421   2.889
17957W        W81725  10.841   4.402  11.468
17958W        W81726  25.651  40.400   3.816
17959W        W81727  16.686  20.663   4.130
17960W        W81728  21.689  22.240  12.561
17961W        W81729  38.492  35.487  10.476
17962W        W81730  35.086  23.185  11.869
17963W        W81731   8.777  27.457   2.251
17964W        W81732  36.013  29.151   4.832
17965W        W81733   8.874  20.098   4.605
17966W        W81734  39.345  32.487   0.422
17967W        W81735  35.572  32.562  10.628
17968W        W81736   0.912   8.286   0.467
17969W        W81737  28.552  23.728   1.814
17970W        W81738  44.373  30.593   0.261
17971W        W81739   8.735  39.546   3.745
17972W        W81740  19.763  43.861   2.299
17973W        W81741  23.183  18.733  11.056
17974W        W81742  29.061   5.358  14.875
17975W        W81743  11.211  28.138   0.414
17976W        W81744  35.993  20.548  11.382
17977W        W81745  31.920  19.204  13.822
17978W        W81746  32.533  18.072   5.737
17979W        W81747  13.283  12.763   2.810
17980W        W81748   2.732   5.917   1.813
17981W        W81749  13.814   7.303   4.162
17982W        W81750  31.472  13.747   4.260
17983W        W81751  40.850   4.355   4.605
17984W        W81752  21.215  22.086  11.963
17985W        W81753  43.809  10.791  10.576
17986W        W81754   4.224  44.369  10.521
17987W        W81755   4.369   2.332  13.345
17988W        W81756  31.068  36.557  14.490
17989W        W81757  14.821  28.060  14.826
17990W        W81758  43.807  42.320  13.886
17991W        W81759   2.911  20.667   1.757
17992W        W81760  36.920  22.104   0.390
17993W        W81761  13.179  38.958   9.981
17994W        W81762  26.672   6.912  10.460
17995W        W81763  27.005  33.482  10.550
17996W        W81764  13.835   7.394  13.948
17997W        W81765  32.555  32.052   3.380
17998W        W81766  14.270  23.084  14.400
17999W        W81767   8.197  39.411   3.715
18000W        W81768  38.898  10.281  11.875
18001W        W81769   3.857  28.609  11.128
18002W        W81770   2.793  22.572   0.947
18003W        W81771  30.064   3.231  12.566
18004W        W81772   7.668  38.027  12.906
18005W        W81773  26.688  12.782   3.634
18006W        W81774  19.684   4.887   2.291
18007W        W81775  10.829  17.287  12.097
18008W        W81776  35.395  26.511   4.598
18009W        W81777  13.216  26.586  14.344
18010W        W81778  16.673  18.115  14.758
18011W        W81779  24.684  15.178   1.701
18012W        W81780  36.434  14.292  12.521
18013W        W81781   8.223  16.172  10.525
18014W        W81782  36.380  44.773   2.404
18015W        W81783  18.784  42.363   2.777
18016W        W81784  27.511  33.450  11.027
18017W        W81785  13.177   0.440  12.450
18018W        W81786  25.186   2.265  14.912
18019W        W81787  20.131   3.311  11.610
18020W        W81788  29.635   5.702  10.528
18021W        W81789  37.548  33.597   2.309
18022W        W81790  16.275   1.930  14.404
18023W        W81791  32.527  17.272  10.503
18024W        W81792  11.361  24.149   3.793
18025W        W81793  42.355  14.766   4.746
18026W        W81794   3.259   1.949  10.411
18027W        W81795  44.461  18.586   2.248
18028W        W81796  29.569  27.000  11.956
18029W        W81797   4.428  43.496   1.427
18030W        W81798   0.329  43.512   4.165
18031W        W81799  14.695  15.111  13.796
18032W        W81800  42.287  41.454  13.046
18033W        W81801  19.748  29.992  13.842
18034W        W81802   4.757  24.073  11.108
18035W        W81803  10.776  40.333  13.443
18036W        W81804   7.870   3.335   0.441
18037W        W81805   9.820   8.392   4.835
18038W        W81806  43.416   7.203  14.321
18039W        W81807  28.053  12.269   4.688
18040W        W81808   9.170  17.698   4.600
18041W        W81809   2.849  16.796   4.605
18042W        W81810   2.303  16.800  13.905
18043W        W81811  11.211  43.371  13.829
18044W        W81812  43.275  17.286  10.599
18045W        W81813  18.208  18.158   3.742
18046W        W81814  25.686  31.546  13.840
18047W        W81815  19.072  23.656  12.486
18048W        W81816  17.680  30.513   3.285
18049W        W81817  40.356  38.558   2.401
18050W        W81818  34.566  25.091  14.342
18051W        W81819  36.928  23.998   0.839
18052W        W81820   9.171  25.602  14.458
18053W        W81821   5.810   9.686   2.339
18054W        W81822  20.050   5.206   0.342
18055W        W81823  27.478  38.498   1.439
18056W        W81824  35.983  28.523  10.479
18057W        W81825  44.974  11.843  14.791
18058W        W81826  15.258  30.922   4.685
18059W        W81827  22.743  15.152   0.307
18060W        W81828  35.374  34.371   2.679
18061W        W81829  35.896  29.547  10.919
18062W        W81830  39.380   5.905   5.198
18063W        W81831  36.905   5.712   3.848
18064W        W81832  40.353  36.920  12.092
18065W        W81833  42.869  38.373   1.698
18066W        W81834  36.387  10.323   2.276
18067W        W81835   4.822  22.595  14.841
18068W        W81836   9.805  39.948   0.359
18069W        W81837  41.914  28.157   3.383
18070W        W81838   4.279  37.422  14.909
18071W        W81839  37.085   5.692  11.117
18072W        W81840  30.121  25.076  13.013
18073W        W81841  13.838  34.901   1.229
18074W        W81842  16.180  11.786   0.474
18075W        W81843  18.156  17.644   1.305
18076W        W81844   9.217  36.966  13.842
18077W        W81845  41.476  11.240  11.612
18078W        W81846  14.321  19.560   0.852
18079W        W81847  27.136  24.693   1.749
18080W        W81848  32.610  30.949   0.744
18081W        W81849  17.710  37.905   2.756
18082W        W81850  27.461  25.610  10.938
18083W        W81851  19.227  10.300  12.342
18084W        W81852   8.663  41.385  12.454
18085W        W81853  19.129  43.841  10.532
18086W        W81854   8.796   1.887   1.793
18087W        W81855  24.158  29.534   4.117
18088W        W81856  43.827   9.326   1.385
18089W        W81857  41.025  43.428   1.247
18090W        W81858  36.929   2.330  10.505
18091W        W81859  32.042  31.095  11.463
18092W        W81860  23.194  34.978   2.769
18093W        W81861  44.343   7.746   0.793
18094W        W81862   5.403  26.081  12.577
18095W        W81863  42.024  42.942  10.153
18096W        W81864  39.931  23.043   2.283
18097W        W81865  38.439   2.746  11.482
18098W        W81866  28.508  23.647  10.439
18099W        W81867  44.353  31.572   2.669
18100W        W81868   0.984  21.602   0.399
18101W        W81869  19.648  25.680   0.418
18102W        W81870  36.526   4.898   4.792
18103W        W81871  35.007  33.577  12.027
18104W        W81872  12.301  26.019   4.159
18105W        W81873  39.003  33.618  13.997
18106W        W81874  20.757  27.476   2.360
18107W        W81875  39.399   8.351   1.748
18108W        W81876  25.542   3.837  11.427
18109W        W81877  27.518  25.710   0.479
18110W        W81878  22.543  29.598  12.450
18111W        W81879  28.986  26.066   3.819
18112W        W81880  13.818  34.864   0.959
18113W        W81881   1.266  36.897  11.088
18114W        W81882   8.798   0.333  11.408
18115W        W81883  26.105  32.914   5.179
18116W        W81884  34.915  32.494  12.840
18117W        W81885  25.068  21.731   2.278
18118W        W81886  41.940  29.025   2.393
18119W        W81887   7.280   2.837  11.879
18120W        W81888  42.942  35.578  10.890
18121W        W81889  30.919   6.185   1.394
18122W        W81890  32.011  32.461   3.149
18123W        W81891   3.782  41.856   2.848
18124W        W81892  28.929  30.098   0.406
18125W        W81893  20.211   0.897   4.164
18126W        W81894  19.238   6.213   0.887
18127W        W81895  17.606  37.368  11.091
18128W        W81896  19.170   8.389  13.400
18129W        W81897  38.002  23.636  11.973
18130W        W81898  30.534  32.139  13.983
18131W        W81899   5.824   7.740   1.866
18132W        W81900  26.597  42.941  11.019
18133W        W81901  34.594   6.407   3.211
18134W        W81902  43.793  32.897   1.353
18135W        W81903  21.600  20.573   1.773
18136W        W81904   1.739  23.082   4.206
18137W        W81905  37.500  29.175  14.798
18138W        W81906  36.909  31.143   3.170
18139W        W81907  17.715  30.072   4.238
18140W        W81908   5.759  36.940   0.366
18141W        W81909  39.534  14.097   1.427
18142W        W81910   8.840   4.306   0.429
18143W        W81911  44.767  20.531  13.423
18144W        W81912  13.762  37.960   3.756
18145W        W81913   8.294   8.794   5.083
18146W        W81914  36.452  37.408  13.968
18147W        W81915   1.852   3.910  13.827
18148W        W81916  11.197  33.425  10.573
18149W        W81917  43.933  40.916  13.346
18150W        W81918  25.216   9.757   1.806
18151W        W81919   4.822   6.880  10.438
18152W        W81920  33.552   8.303  12.064
18153W        W81921  26.516  21.018   5.161
18154W        W81922   7.898  35.022  12.919
18155W        W81923  21.553  42.432   0.892
18156W        W81924  17.593  31.639   1.394
18157W        W81925  33.589  33.013   1.226
18158W        W81926   4.322  24.533   3.190
18159W        W81927  20.570  25.609   1.356
18160W        W81928   2.769  42.465  13.854
18161W        W81929  44.003  13.107  13.983
18162W        W81930   0.784  25.626   1.418
18163W        W81931  37.493  41.825  10.959
18164W        W81932  36.522  12.337   4.754
18165W        W81933  31.460   7.384  10.453
18166W        W81934  30.984   7.261  14.281
18167W        W81935  22.647  16.575  12.067
18168W        W81936  27.155   6.252  14.426
18169W        W81937  29.559  18.667   1.856
18170W        W81938  24.544  31.510  12.417
18171W        W81939  25.555  15.153   5.238
18172W        W81940  43.922  34.922  14.499
18173W        W81941  23.712  40.338   1.363
18174W        W81942  39.908  24.072  14.408
18175W        W81943  28.443   2.406   0.374
18176W        W81944   9.278   2.879  14.921
18177W        W81945  34.511   2.329   2.206
18178W        W81946  32.528   0.335   3.254
18179W        W81947  27.194  37.385   0.423
18180W        W81948   2.737  34.022   2.828
18181W        W81949  34.462  35.004  13.829
18182W        W81950  26.647  11.790   3.748
18183W        W81951  20.687  22.192   2.816
18184W        W81952   8.751  32.410   3.219
18185W        W81953   2.240  25.090  11.443
18186W        W81954   0.769  22.192  14.974
18187W        W81955  43.500  12.123   0.866
18188W        W81956  16.740  10.636   4.647
18189W        W81957  41.885   8.336  10.494
18190W        W81958  26.622   0.279   1.904
18191W        W81959  18.616  43.353  13.952
18192W        W81960  42.523  11.268  12.907
18193W        W81961   0.434  16.685   2.323
18194W        W81962  10.641  11.230  11.483
18195W        W81963  34.411   0.827   1.441
18196W        W81964   0.353  32.623  11.504
18197W        W81965   0.799   7.188  14.397
18198W        W81966   0.360  43.799  13.538
18199W        W81967  10.167  16.165   3.243
18200W        W81968  44.995  33.072   4.722
18201W        W81969   3.343  18.551  14.403
18202W        W81970  34.989   7.795  10.108
18203W        W81971  32.622  30.537   0.425
18204W        W81972  31.984  18.107   5.721
18205W        W81973   8.885   6.898  12.373
18206W        W81974  43.410   6.841   0.887
18207W        W81975  28.612   1.776  14.391
18208W        W81976   0.485  41.824  14.925
18209W        W81977   5.922   7.330   3.336
18210W        W81978  17.155  12.711   1.777
18211W        W81979  14.809  30.424  14.833
18212W        W81980  42.857  31.936  10.988
18213W        W81981  44.838   4.216   1.349
18214W        W81982  38.490  11.370  13.521
18215W        W81983  34.067   3.396  13.453
18216W        W81984   2.871   6.805   4.228
18217W        W81985  33.521  19.050   3.669
18218W        W81986   1.770  15.234   2.900
18219W        W81987  32.013  16.712   2.817
18220W        W81988   1.290  10.370  14.358
18221W        W81989  24.622  15.308   3.797
18222W        W81990  41.884  40.384  11.921
18223W        W81991  17.563  10.364  14.836
18224W        W81992  35.072  40.798   4.700
18225W        W81993  23.701  17.117   1.228
18226W        W81994  20.626  38.869  12.521
18227W        W81995   1.399  25.967   4.615
18228W        W81996   1.945   7.271  13.870
18229W        W81997  15.193  20.659   0.259
18230W        W81998  17.576  41.347   1.214
18231W        W81999  37.459  17.091  14.014
18232W        W82000   2.373  33.067   4.231
18233W        W82001  36.959  26.965  11.374
18234W        W82002   5.880  25.468   2.820
18235W        W82003  35.472  31.147   4.327
18236W        W82004  17.086  39.408  14.978
18237W        W82005  37.376  19.172   1.402
18238W        W82006  42.981   6.244   2.703
18239W        W82007  42.453   9.237  11.127
18240W        W82008  37.046  10.343   4.653
18241W        W82009  30.453  34.118  10.550
18242W        W82010  13.825   8.779   1.733
18243W        W82011  41.478  39.962  10.511
18244W        W82012  26.663  18.789   0.924
18245W        W82013  41.922  28.135  10.935
18246W        W82014   4.834  26.111   2.866
18247W        W82015  10.807  33.448   4.302
18248W        W82016   4.910  12.785   0.252
18249W        W82017  31.544  41.857   0.852
18250W        W82018  34.010  41.347   2.247
18251W        W82019  18.597   0.920   4.762
18252W        W82020  14.623  14.167  10.948
18253W        W82021  41.004   6.295  14.377
18254W        W82022  23.496   9.665   2.244
18255W        W82023  10.280  10.203   1.286
18256W        W82024  27.632  12.246   0.389
18257W        W82025  34.117  42.025   2.321
18258W        W82026  13.209  41.853  10.577
18259W        W82027  22.199   1.280  13.033
18260W        W82028  44.760  27.512   0.846
18261W        W82029  13.115  19.576  12.865
18262W        W82030  22.685  30.430  14.486
18263W        W82031   5.270   6.702   1.386
18264W        W82032  30.029   1.877  13.011
18265W        W82033  43.471   2.393   2.326
18266W        W82034  40.003  15.292   3.334
18267W        W82035  22.076  31.429  11.602
18268W        W82036  12.782  15.273  11.893
18269W        W82037  29.038  40.540  11.927
18270W        W82038  25.543  44.853  12.986
18271W        W82039  29.111  21.020  13.495
18272W        W82040  38.834  32.081   3.734
18273W        W82041  10.319  10.305  12.888
18274W        W82042   6.409  33.591   9.972
18275W        W82043  23.531  21.060  11.885
18276W        W82044  15.755   3.322  10.115
18277W        W82045  33.987  13.688   0.343
18278W        W82046  37.951  29.524  11.447
18279W        W82047  43.315  34.464   3.155
18280W        W82048  30.974  22.661  12.479
18281W        W82049  38.346  10.278  13.386
18282W        W82050  24.548  26.168  12.567
18283W        W82051  26.020  33.025   4.738
18284W        W82052  38.033  12.126  12.063
18285W        W82053  15.584  10.246   1.929
18286W        W82054   2.314   0.874  14.399
18287W        W82055  43.882  25.703  14.937
18288W        W82056  39.969  12.128  13.523
18289W        W82057  36.388   7.311   0.339
18290W        W82058  42.941  43.381   1.884
18291W        W82059  14.192   5.353  12.440
18292W        W82060  14.125  20.528  12.030
18293W        W82061  24.206  16.736  10.891
18294W        W82062  30.151  34.562  14.919
18295W        W82063   8.187   2.385  12.862
18296W        W82064  27.506  12.690   3.715
18297W        W82065   1.891  18.130   0.878
18298W        W82066  28.637   1.972  10.538
18299W        W82067  12.120  33.582  13.360
18300W        W82068  39.890  29.633  14.996
18301W        W82069  28.573  39.063  10.159
18302W        W82070  18.551  31.520   4.279
18303W        W82071   7.679  38.014   4.182
18304W        W82072  25.015  36.969   1.258
18305W        W82073   6.763  44.435  11.107
18306W        W82074  12.260  43.483  12.019
18307W        W82075  37.517  38.402   2.255
18308W        W82076  26.505   1.864  14.840
18309W        W82077  31.954  20.738  11.448
18310W        W82078  26.481  16.318   1.892
18311W        W82079  11.371  18.743   0.416
18312W        W82080  31.077  28.081  13.529
18313W        W82081  18.189  29.544   0.253
18314W        W82082  43.403   7.186  12.028
18315W        W82083  26.190  35.887  14.015
18316W        W82084  39.039  26.675   5.311
18317W        W82085  41.418  42.514  14.008
18318W        W82086  22.078  12.722   0.951
18319W        W82087   6.916   0.458   4.815
18320W        W82088   6.299  25.128  12.863
18321W        W82089  41.440   1.895  10.973
18322W        W82090   0.861  22.739  12.572
18323W        W82091   2.867  31.455  13.376
18324W        W82092  26.459  23.993  12.533
18325W        W82093   1.423  23.534   4.120
18326W        W82094  44.834  40.416  13.951
18327W        W82095  28.457   5.393  11.925
18328W        W82096  26.581  35.860  12.354
18329W        W82097   6.212  41.392   0.325
18330W        W82098   0.975   1.285  11.900
18331W        W82099  17.278  18.128  11.400
18332W        W82100  10.673   1.770   2.310
18333W        W82101  35.541  11.817   0.394
18334W        W82102  42.839  33.093  13.452
18335W        W82103  33.998  44.998  11.902
18336W        W82104   3.430  42.374  14.452
18337W        W82105  27.531   9.838   3.344
18338W        W82106   0.904  15.304   2.229
18339W        W82107  14.179  41.529   1.859
18340W        W82108  20.700  28.034  12.453
18341W        W82109  29.604  12.824  11.958
18342W        W82110  15.163  41.344   0.850
18343W        W82111  30.423  36.484   1.812
18344W        W82112  40.392  30.944  13.308
18345W        W82113  30.572  22.063  11.097
18346W        W82114   9.340  14.229   3.726
18347W        W82115  22.537   3.811   3.153
18348W        W82116   7.785   5.798   1.354
18349W        W82117  44.345   0.967  13.887
18350W        W82118  22.245  35.521  14.283
18351W        W82119  24.502  35.893   1.226
18352W        W82120  37.915   6.412   3.793
18353W        W82121  44.772   7.698  11.608
18354W        W82122   5.247  12.361  10.998
18355W        W82123   4.233  12.703   2.291
18356W        W82124  37.909  36.004  11.040
18357W        W82125  31.910  34.082   4.632
18358W        W82126  17.575   8.242   1.764
18359W        W82127  32.006  25.512  14.315
18360W        W82128   3.395   3.314   2.378
18361W        W82129   6.215  23.539  11.025
18362W        W82130  28.561  32.536   3.325
18363W        W82131  43.508  21.576   2.855
18364W        W82132   8.388   8.370  14.967
18365W        W82133  31.906  13.827  14.338
18366W        W82134  35.573  28.670   3.745
18367W        W82135  15.138  26.491  12.968
18368W        W82136  31.045   2.322  12.002
18369W        W82137  22.709  20.760   3.693
18370W        W82138  24.993  43.372  11.445
18371W        W82139  20.059  31.441   1.905
18372W        W82140  10.384  19.108  13.484
18373W        W82141   8.718   1.357  14.389
18374W        W82142  28.532  29.151  10.430
18375W        W82143  12.772  24.688  12.525
18376W        W82144  35.469  21.215  12.035
18377W        W82145  32.509  27.669   1.276
18378W        W82146  38.339  18.666   3.679
18379W        W82147  44.963  10.293   0.419
18380W        W82148  24.151  19.673  10.976
18381W        W82149  36.068  41.536   0.246
18382W        W82150   3.218   6.196   4.261
18383W        W82151   9.689  28.111   1.922
18384W        W82152  23.157  29.080  14.360
18385W        W82153  18.172  44.381   4.601
18386W        W82154  36.013   6.811  14.916
18387W        W82155   8.809  19.600  12.094
18388W        W82156  32.964  31.469   4.171
18389W        W82157  34.116  27.998   2.767
18390W        W82158  42.292  20.236   3.868
18391W        W82159  19.230  34.576   4.826
18392W        W82160  16.111  41.350  13.391
18393W        W82161  10.216   0.264  11.589
18394W        W82162   7.220  34.873   5.232
18395W        W82163  29.641  33.970  13.347
18396W        W82164   0.803  11.783   4.742
18397W        W82165   4.340  14.205  13.393
18398W        W82166  40.939  28.133   2.839
18399W        W82167  15.808  11.773  12.883
18400W        W82168  13.320  10.354  12.549
18401W        W82169  41.844   6.257   4.689
18402W        W82170   2.926  30.011   1.816
18403W        W82171   4.245  11.291  11.552
18404W        W82172  38.487  43.400   0.387
18405W        W82173  43.314  14.123  12.014
18406W        W82174  36.348  39.838   0.297
18407W        W82175  29.639  43.791   3.352
18408W        W82176  36.858  39.317   4.289
18409W        W82177  41.460  16.267   3.819
18410W        W82178  34.571  37.981   0.896
18411W        W82179  22.740  36.507  10.445
18412W        W82180  36.923  17.707   4.682
18413W        W82181  44.498  15.181  12.008
18414W        W82182  37.373  35.086  11.895
18415W        W82183  44.001  28.659   0.843
18416W        W82184  15.819  18.765   4.196
18417W        W82185  19.590   9.689  13.879
18418W        W82186  41.970  42.804   3.230
18419W        W82187   0.844  28.019  12.339
18420W        W82188  11.702  21.257   1.819
18421W        W82189  42.894  43.476  14.847
18422W        W82190  36.902  32.972  10.454
18423W        W82191  18.699  32.943   9.979
18424W        W82192   0.401   5.716  13.872
18425W        W82193   7.754  10.298  10.902
18426W        W82194  40.451   6.318   1.250
18427W        W82195   1.437   4.925  10.522
18428W        W82196  11.697  26.171  13.834
18429W        W82197  37.975  39.531  13.894
18430W        W82198   6.914  22.203   0.953
18431W        W82199   1.968  42.007  11.467
18432W        W82200  11.622   4.363   1.366
18433W        W82201  11.304   3.298  11.121
18434W        W82202   3.311  23.573  12.000
18435W        W82203  22.997  10.304  14.413
18436W        W82204  30.419  40.395   3.353
18437W        W82205  42.779  13.712   2.290
18438W        W82206  29.522  41.349   1.737
18439W        W82207   9.821   5.880   1.311
18440W        W82208  34.037   9.313  14.475
18441W        W82209   8.383   1.392  13.539
18442W        W82210  21.571  30.952   2.195
18443W        W82211   8.809  29.576   3.326
18444W        W82212  28.173  16.091   0.413
18445W        W82213  15.179  39.955   3.216
18446W        W82214  13.698  13.116   3.258
18447W        W82215  32.037  10.697  10.466
18448W        W82216   3.373  44.861  14.029
18449W        W82217  19.102  42.813   2.314
18450W        W82218  18.587   4.707   3.785
18451W        W82219  30.562  10.876  14.861
18452W        W82220  26.687  42.296   3.863
18453W        W82221  33.610   3.847   0.283
18454W        W82222  31.913   9.762   2.387
18455W        W82223  20.111  22.027   4.250
18456W        W82224  36.436  27.692   1.327
18457W        W82225  10.263  15.239   2.887
18458W        W82226  15.282  11.367  14.810
18459W        W82227   9.806   2.876  14.430
18460W        W82228  18.702  36.889   4.290
18461W        W82229   1.293   9.242   2.899
18462W        W82230  42.527  24.030  11.530
18463W        W82231  31.494  33.465  13.852
18464W        W82232  43.434  32.417  14.024
18465W        W82233  29.450  26.615  13.922
18466W        W82234   3.388  19.545   2.349
18467W        W82235  16.599   9.813   1.411
18468W        W82236  39.825  12.286   1.920
18469W        W82237  14.236  17.214   2.667
18470W        W82238  41.943  32.119   2.231
18471W        W82239  10.712  32.104  13.890
18472W        W82240  29.599   1.785   2.291
18473W        W82241  41.514  21.242  11.991
18474W        W82242  44.326  11.205   4.220
18475W        W82243   4.709  26.559   4.764
18476W        W82244  18.138  36.992  12.456
18477W        W82245   1.297   1.323   0.377
18478W        W82246  43.274   8.811  14.771
18479W        W82247  43.458   6.821  11.069
18480W        W82248  26.575  39.343  10.940
18481W        W82249  32.005  20.125  13.523
18482W        W82250  28.164  19.049  13.992
18483W        W82251  31.050  25.666   1.762
18484W        W82252  39.473   6.331  12.058
18485W        W82253  40.453  26.953  14.955
18486W        W82254  41.429  31.540  14.425
18487W        W82255   7.888  31.571   0.350
18488W        W82256   0.298  23.066   0.952
18489W        W82257  11.263   9.729   4.122
18490W        W82258  25.015   9.352   2.709
18491W        W82259  13.778  25.679   5.209
18492W        W82260   1.858  17.193  12.087
18493W        W82261  26.536   2.343  13.983
18494W        W82262  35.853  13.745   0.836
18495W        W82263   6.363  36.552  12.963
18496W        W82264  42.812  31.430  12.453
18497W        W82265   3.340  31.033  14.490
18498W        W82266  15.304  22.710   3.182
18499W        W82267   6.867  11.245  14.443
18500W        W82268  23.672  28.153  14.358
18501W        W82269   4.768  26.017   0.817
18502W        W82270  26.524   3.937  12.959
18503W        W82271  30.524   9.306  14.394
18504W        W82272  38.014  41.473  12.486
18505W        W82273   0.923  11.807   1.826
18506W        W82274  37.905  44.466   4.604
18507W        W82275  35.988  25.125  12.986
18508W        W82276   8.766  30.549  10.135
18509W        W82277   3.757  16.144   1.736
18510W        W82278  21.147  20.220   4.266
18511W        W82279  12.185  40.853   3.278
18512W        W82280  44.426  30.593  12.993
18513W        W82281   5.717  11.273   4.671
18514W        W82282   8.747  30.412  13.992
18515W        W82283  36.563  10.757   3.157
18516W        W82284  30.121  10.667  14.915
18517W        W82285  30.956  44.426   2.718
18518W        W82286  43.884  11.724   3.722
18519W        W82287  34.555  35.978  14.909
18520W        W82288  18.742  23.643   9.508
18521W        W82289   7.694  44.991   4.294
18522W        W82290  20.115  10.253   1.820
18523W        W82291  39.001  35.882   0.356
18524W        W82292  38.993  18.163   3.271
18525W        W82293  38.368  25.712   0.945
18526W        W82294  34.538  31.905   0.382
18527W        W82295  21.132  32.035  10.136
18528W        W82296  20.691   3.216   4.644
18529W        W82297  32.474  38.488   3.301
18530W        W82298   3.841  14.199   0.395
18531W        W82299  18.758  34.981   5.281
18532W        W82300  40.840  19.243  10.406
18533W        W82301  26.650  38.468  12.092
18534W        W82302   8.891  16.172   3.810
18535W        W82303  26.561   8.179   4.599
18536W        W82304   0.300  14.828  10.538
18537W        W82305   0.451   5.203   2.795
18538W        W82306  13.686  44.778   2.860
18539W        W82307  28.959   6.323  11.401
18540W        W82308  15.620  26.003  11.491
18541W        W82309  27.523  34.522  12.918
18542W        W82310   5.275  22.521  11.414
18543W        W82311   2.883  37.080   1.439
18544W        W82312   8.831  16.643   4.778
18545W        W82313  41.479  29.061   1.449
18546W        W82314  42.777  31.078   3.652
18547W        W82315  11.680  34.985  13.325
18548W        W82316  21.708  39.933   4.664
18549W        W82317  20.660  14.660  14.396
18550W        W82318  37.019  34.915   2.205
18551W        W82319  35.952  11.285  13.523
18552W        W82320  26.951   4.845   2.787
18553W        W82321  24.549  18.112  12.027
18554W        W82322   2.732  12.616  11.559
18555W        W82323  14.762  25.100  13.370
18556W        W82324  13.300  12.154  13.383
18557W        W82325  21.024  42.811  12.985
18558W        W82326  27.587  13.768   4.778
18559W        W82327  35.013  30.046   2.228
18560W        W82328   3.323  26.595   5.194
18561W        W82329  26.623   8.382   3.848
18562W        W82330  29.472   5.353   3.216
18563W        W82331  39.038   4.249   3.838
18564W        W82332  23.602   6.387  11.870
18565W        W82333  30.996  39.870   3.189
18566W        W82334  25.207  24.052   0.958
18567W        W82335  22.119  37.959   2.736
18568W        W82336  24.498  38.330   0.750
18569W        W82337  21.665  34.108   1.787
18570W        W82338  38.939  43.952   2.229
18571W        W82339  43.840  29.073  11.106
18572W        W82340  26.481  23.529  10.108
18573W        W82341  13.133  44.976   4.259
18574W        W82342  17.611  19.725  12.829
18575W        W82343   4.887  26.527  11.898
18576W        W82344  21.667  29.652  14.007
18577W        W82345  10.824  28.462  12.424
18578W        W82346  26.989   1.757   0.790
18579W        W82347  23.546  23.237   3.278
18580W        W82348  34.569  31.555  12.486
18581W        W82349   1.376  12.783  14.470
18582W        W82350   7.826   3.884  13.492
18583W        W82351  40.451  44.918  12.863
18584W        W82352  18.717   9.379  11.124
18585W        W82353  41.424  12.825   1.392
18586W        W82354  18.726  15.751  10.124
18587W        W82355  42.031  24.576  13.971
18588W        W82356  13.212  32.120   0.913
18589W        W82357  27.483  24.619  14.984
18590W        W82358  33.961   2.372   2.376
18591W        W82359  25.471  31.520  10.574
18592W        W82360  40.441  17.297   0.251
18593W        W82361   0.320  10.816   1.300
18594W        W82362  36.953  23.016   3.209
18595W        W82363   7.401  22.732   2.363
18596W        W82364  29.563   4.822  12.966
18597W        W82365  12.855  38.969   4.631
18598W        W82366  33.955   4.884  14.394
18599W        W82367  39.920  16.121  10.570
18600W        W82368  16.638  28.136  12.484
18601W        W82369   9.240  31.991   0.791
18602W        W82370  33.907  43.013  13.392
18603W        W82371  11.281  21.675  12.381
18604W        W82372  28.161  18.287   1.809
18605W        W82373  13.215   2.298  14.471
18606W        W82374  27.518  28.971   2.403
18607W        W82375  15.699  27.691   2.701
18608W        W82376  31.992  31.452  12.459
18609W        W82377  43.849  24.637   3.352
18610W        W82378   0.460  38.494   4.301
18611W        W82379  17.200  16.683   1.747
18612W        W82380   4.814  23.203   0.915
18613W        W82381  21.553  18.591   2.292
18614W        W82382  29.964  34.492   3.841
18615W        W82383  41.866  23.633  10.517
18616W        W82384   4.356   4.837  14.015
18617W        W82385   1.377  44.925   0.424
18618W        W82386   1.922  18.599  13.858
18619W        W82387  37.508  22.094  11.573
18620W        W82388  32.953  12.832   4.134
18621W        W82389  16.736  43.000  13.356
18622W        W82390  13.298  17.604  10.569
18623W        W82391  24.217  34.877   4.271
18624W        W82392  41.450  39.522   3.761
18625W        W82393  41.841  22.050   1.219
18626W        W82394  44.400  28.451   0.300
18627W        W82395   4.447  21.089   4.830
18628W        W82396  36.037  35.890   0.325
18629W        W82397  28.134  24.479  11.457
18630W        W82398  20.223  14.203  12.520
18631W        W82399  30.469  15.113  13.008
18632W        W82400   5.868  33.553  13.797
18633W        W82401  32.471  36.479   4.332
18634W        W82402  31.909  18.595  11.086
18635W        W82403  31.596  40.909   3.688
18636W        W82404   7.380  28.038   2.789
18637W        W82405   7.894   8.736  12.861
18638W        W82406  22.729  32.917   4.689
18639W        W82407   4.865   9.272  12.502
18640W        W82408  23.521  14.647  14.480
18641W        W82409  17.262  15.630   3.729
18642W        W82410  37.423   4.897   2.301
18643W        W82411  31.119  32.040   0.849
18644W        W82412  23.567  14.132  12.833
18645W        W82413   4.285   9.184  14.300
18646W        W82414  36.860  31.464  12.898
18647W        W82415   7.911  30.908  11.540
18648W        W82416  23.554  25.049   4.750
18649W        W82417   8.676   4.843   0.308
18650W        W82418  20.685  37.498   3.664
18651W        W82419  28.541  35.897  11.597
18652W        W82420  26.666  27.645  14.929
18653W        W82421  43.442  11.158  14.941
18654W        W82422   4.862  32.428   4.661
18655W        W82423   9.217  17.250   2.270
18656W        W82424  12.687  23.096  10.973
18657W        W82425  25.967  43.996  13.863
18658W        W82426  38.463  28.525   0.338
18659W        W82427   0.421  41.795   3.369
18660W        W82428  11.708  14.811   0.388
18661W        W82429  14.625   6.899   0.768
18662W        W82430  43.483  40.323   3.645
18663W        W82431  27.030  39.497   0.343
18664W        W82432  43.012  22.131   3.336
18665W        W82433  30.934  26.613   3.831
18666W        W82434  44.433   1.835  14.785
18667W        W82435  12.210  36.351   2.803
18668W        W82436   2.911  14.102   2.840
18669W        W82437  31.441   9.678  12.005
18670W        W82438   6.271  35.379  12.843
18671W        W82439  11.657  34.549   3.816
18672W        W82440  44.390  13.229   1.807
18673W        W82441  30.471  27.134  14.286
18674W        W82442   4.802  44.409   4.724
18675W        W82443  21.020  40.388   2.296
18676W        W82444  35.058   6.838  13.846
18677W        W82445  33.019  16.123   4.319
18678W        W82446  20.217  39.533   0.905
18679W        W82447   5.836   8.778   4.167
18680W        W82448  37.415   3.911   0.746
18681W        W82449  37.027  32.014   4.262
18682W        W82450  34.971  37.438   2.833
18683W        W82451  10.156  37.002   2.328
18684W        W82452  42.805   9.160   1.243
18685W        W82453  11.851   0.922  10.035
18686W        W82454  44.500  24.703  13.535
18687W        W82455   8.868   6.827   4.712
18688W        W82456   2.810  30.155  11.015
18689W        W82457  19.711   1.416  14.298
18690W        W82458  35.492  20.252  14.929
18691W        W82459   1.361  11.707   0.909
18692W        W82460  14.179  32.116  14.958
18693W        W82461  30.451  28.564   0.731
18694W        W82462   7.191  17.184   1.349
18695W        W82463  19.634  35.861   4.253
18696W        W82464  14.227  19.075   1.780
18697W        W82465  34.594  31.092   1.713
18698W        W82466  21.620   2.739  11.607
18699W        W82467  38.901  39.915  12.853
18700W        W82468  40.454  22.531  13.839
18701W        W82469  44.890   0.334  12.038
18702W        W82470  38.863  20.629  10.409
18703W        W82471  13.720  34.036  13.007
18704W        W82472  11.180  38.516   2.363
18705W        W82473  12.811  22.738   3.172
18706W        W82474  30.991  42.870  13.367
18707W        W82475   7.717  21.226  11.516
18708W        W82476  18.558  30.969   5.271
18709W        W82477   5.399  14.793  11.503
18710W        W82478  27.539  14.718   4.302
18711W        W82479   7.321  15.592  13.529
18712W        W82480   8.264  42.453   0.728
18713W        W82481  12.855  15.703  11.938
18714W        W82482   0.423  38.930   3.672
18715W        W82483  41.341  18.226   1.227
18716W        W82484  38.459  27.489   3.311
18717W        W82485  13.177   9.316   9.950
18718W        W82486  24.501   1.434  11.943
18719W        W82487  27.125  24.723   3.326
18720W        W82488  39.418  25.661  14.360
18721W        W82489   7.396   3.442  13.438
18722W        W82490  12.711  30.651   0.784
18723W        W82491  24.064  24.179   1.715
18724W        W82492  36.976  38.511   1.351
18725W        W82493  27.185  20.113   1.700
18726W        W82494  29.171   3.838   2.687
18727W        W82495  33.593  31.538  11.399
18728W        W82496  12.825  14.607  14.371
18729W        W82497  10.640  20.124   0.426
18730W        W82498  42.468  39.491   3.219
18731W        W82499  26.040  43.002   4.756
18732W        W82500  23.241   8.296  13.389
18733W        W82501  28.448  41.885  11.954
18734W        W82502  15.162  41.794  14.413
18735W        W82503  20.728   3.758   3.208
18736W        W82504  25.066  31.469  12.376
18737W        W82505  33.994  40.549  11.440
18738W        W82506   6.291  39.835  13.478
18739W        W82507  21.156  42.416  11.880
18740W        W82508   9.370  28.547   1.829
18741W        W82509  12.820  34.488   4.277
18742W        W82510  23.544   6.789   3.648
18743W        W82511  22.704  32.962   0.800
18744W        W82512  23.506  26.187   3.348
18745W        W82513  11.819   5.287   2.680
18746W        W82514  39.321   4.371  13.826
18747W        W82515  24.053  38.838   1.720
18748W        W82516  43.902  44.799   2.833
18749W        W82517  16.680  36.072   2.209
18750W        W82518  20.181  37.389   3.787
18751W        W82519  13.620  43.509  12.988
18752W        W82520  16.125  31.977   3.201
18753W        W82521  40.526  19.704  14.410
18754W        W82522  11.771  35.580  13.912
18755W        W82523  39.899  37.071  11.100
18756W        W82524  12.748  38.868  13.888
18757W        W82525   5.722   5.765  11.012
18758W        W82526  36.900  10.212   2.879
18759W        W82527   9.277  37.077   3.201
18760W        W82528  26.090  16.299  12.859
18761W        W82529  20.758  27.026   4.698
18762W        W82530  22.674  43.011  12.408
18763W        W82531  31.050  29.512   4.135
18764W        W82532  14.732  18.606  13.965
18765W        W82533  17.180  33.897  14.309
18766W        W82534  11.717  20.548  10.552
18767W        W82535  22.237  36.852  11.126
18768W        W82536   5.430   6.202   4.766
18769W        W82537   4.894  22.056  11.386
18770W        W82538  14.338  21.047   3.314
18771W        W82539  44.284   8.383   4.289
18772W        W82540   0.446  33.431   4.769
18773W        W82541  44.844  17.748   2.802
18774W        W82542   5.730  21.731   3.829
18775W        W82543  12.832  11.698   2.184
18776W        W82544  37.874  12.223   4.803
18777W        W82545   1.872   3.772  10.935
18778W        W82546  44.865  35.956   1.394
18779W        W82547  26.993  41.824   0.444
18780W        W82548  18.151  17.641  14.799
18781W        W82549  39.482  44.293  13.045
18782W        W82550  25.189  12.797   3.711
18783W        W82551  17.306  13.266   0.449
18784W        W82552  25.630   2.421   1.316
18785W        W82553  12.645  33.449   4.797
18786W        W82554  23.519  36.084   3.330
18787W        W82555  16.296  25.217  12.041
18788W        W82556   3.416  25.214  10.404
18789W        W82557   6.804  26.185  13.881
18790W        W82558  24.691  40.310   1.775
18791W        W82559  39.924   7.824  14.355
18792W        W82560  31.525   1.343  13.515
18793W        W82561   3.295  14.309  11.461
18794W        W82562  41.822  31.939  14.820
18795W        W82563   6.400  34.424   0.784
18796W        W82564  40.325   2.275   2.822
18797W        W82565   6.758  16.646   2.675
18798W        W82566  40.384  24.174   1.257
18799W        W82567  18.652  16.723   2.900
18800W        W82568  31.906   5.406   3.350
18801W        W82569  20.272  22.101  11.119
18802W        W82570  30.420  29.088   0.955
18803W        W82571  40.968  34.102   4.341
18804W        W82572   4.271  33.941   4.817
18805W        W82573   4.413   0.443   3.359
18806W        W82574  32.524  35.955   1.795
18807W        W82575  44.900  25.127  10.636
18808W        W82576  21.164  25.199   0.425
18809W        W82577  16.213  36.048   4.271
18810W        W82578  11.867  42.501  14.926
18811W        W82579  35.901  29.979   2.781
18812W        W82580  18.674  10.874   1.829
18813W        W82581  39.857  34.082  11.120
18814W        W82582  29.966  23.514  11.014
18815W        W82583   1.270   2.823   3.779
18816W        W82584  34.063   6.736   2.273
18817W        W82585  18.141  25.990   0.271
18818W        W82586  37.882  18.187  13.821
18819W        W82587  42.019  37.973   3.251
18820W        W82588  35.381  17.198   4.335
18821W        W82589  25.971  16.609  11.939
18822W        W82590   1.341  37.920  12.359
18823W        W82591  41.974  43.928  11.383
18824W        W82592   4.258  29.107   4.241
18825W        W82593   2.938  11.694  11.909
18826W        W82594  30.563  25.657  10.412
18827W        W82595  36.040  17.711  11.971
18828W        W82596  36.026  42.810   4.611
18829W        W82597  40.003  25.030   4.739
18830W        W82598  35.862   6.199   3.866
18831W        W82599  16.267  10.299  10.463
18832W        W82600  10.292  43.511  12.580
18833W        W82601  35.049  21.528  12.526
18834W        W82602  42.338  33.933   3.319
18835W        W82603  27.083  40.329   1.886
18836W        W82604  33.052   1.408  10.506
18837W        W82605  12.259  26.193  10.450
18838W        W82606   9.762  28.596   0.405
18839W        W82607  36.058  18.713   1.279
18840W        W82608  39.377  15.185  11.867
18841W        W82609  15.815  24.522  13.512
18842W        W82610   7.278  14.704  10.956
18843W        W82611  19.597   9.277  13.881
18844W        W82612  15.739   1.862  12.432
18845W        W82613   6.385  21.052  10.023
18846W        W82614  19.577  18.233  13.921
18847W        W82615  26.061   3.944   4.187
18848W        W82616  39.000  38.458  14.352
18849W        W82617   1.478  37.357   2.361
18850W        W82618   2.729  36.394  12.076
18851W        W82619  12.646  17.788   2.241
18852W        W82620  20.606  15.665   2.691
18853W        W82621   6.793  35.889   2.403
18854W        W82622  42.809  39.341   3.306
18855W        W82623  36.589   1.389  14.790
18856W        W82624  11.285  15.620  14.490
18857W        W82625  37.994  36.910  10.497
18858W        W82626  30.508   4.911   2.886
18859W        W82627  28.184  24.688   0.373
18860W        W82628  37.890  44.915   1.808
18861W        W82629   5.765  32.046  13.362
18862W        W82630  28.659  28.069  11.088
18863W        W82631  30.545  24.536  11.888
18864W        W82632  44.330  10.225  11.112
18865W        W82633  23.178   3.291   0.426
18866W        W82634  21.101   1.802  13.528
18867W        W82635  25.964  21.752   1.900
18868W        W82636  35.004  13.214  13.923
18869W        W82637  35.425   2.771   2.350
18870W        W82638  11.735  39.322   3.868
18871W        W82639  34.933  16.220   5.322
18872W        W82640  19.138   0.425  12.363
18873W        W82641  35.546  28.503  11.578
18874W        W82642  12.648   2.284  12.838
18875W        W82643  20.715  44.826   3.239
18876W        W82644   5.207  22.060   1.885
18877W        W82645   3.953  32.558   4.644
18878W        W82646  22.717   2.758   1.779
18879W        W82647  33.439  13.674  11.497
18880W        W82648   7.763  30.127   3.254
18881W        W82649  40.904  29.121  14.889
18882W        W82650   2.268  31.581   0.288
18883W        W82651  28.142  41.983  13.794
18884W        W82652  31.647  11.758   3.385
18885W        W82653   1.306   0.287   1.935
18886W        W82654   4.725  39.486   1.228
18887W        W82655  18.721  34.028   0.846
18888W        W82656  22.701   7.248   3.861
18889W        W82657  39.468   5.810   4.209
18890W        W82658  21.516  32.522   5.702
18891W        W82659  12.801  31.919   4.308
18892W        W82660  30.508  34.584  14.360
18893W        W82661  15.683  41.347   2.708
18894W        W82662   8.179   5.302   2.752
18895W        W82663  21.742  29.160  11.069
18896W        W82664   4.836   1.762   2.179
18897W        W82665  32.587  29.560   1.283
18898W        W82666  22.011  19.742  14.905
18899W        W82667  41.905  19.193  10.890
18900W        W82668  20.237  18.694   3.340
18901W        W82669  29.124  19.114  13.354
18902W        W82670  21.599   3.431  13.991
18903W        W82671  25.077  28.129   1.858
18904W        W82672  41.926  17.217   4.611
18905W        W82673   4.835  13.662  10.978
18906W        W82674  24.032   0.845   2.310
18907W        W82675  35.431  37.382   2.833
18908W        W82676  30.497  40.929   2.233
18909W        W82677  16.128  42.476   4.807
18910W        W82678  27.593   4.723   3.295
18911W        W82679  15.598  12.265  13.524
18912W        W82680  15.305  10.793   2.413
18913W        W82681  34.025  15.586   0.461
18914W        W82682  42.386  21.673   4.319
18915W        W82683  33.959  12.244   1.315
18916W        W82684  33.025  38.010  12.463
18917W        W82685  11.153  27.572   2.237
18918W        W82686  26.691  30.079  13.438
18919W        W82687  40.896  42.352   4.811
18920W        W82688   0.357   7.311   4.126
18921W        W82689   8.218  24.985  12.511
18922W        W82690   0.396  38.526  10.032
18923W        W82691   4.279   9.705  12.921
18924W        W82692  44.756   7.191   1.272
18925W        W82693  23.490  10.638   4.704
18926W        W82694  34.491  22.074  13.351
18927W        W82695  31.408  34.382  10.546
18928W        W82696  37.341  31.914   4.199
18929W        W82697   5.291  38.499  12.995
18930W        W82698  30.553   9.299  14.801
18931W        W82699  35.544  28.033  10.566
18932W        W82700   3.805  35.529   5.572
18933W        W82701  34.993   7.330  11.889
18934W        W82702  35.589  20.764   1.775
18935W        W82703  41.369  44.843   4.278
18936W        W82704  42.372  15.743  11.551
18937W        W82705   4.381  24.027   1.790
18938W        W82706  43.485  38.486   0.759
18939W        W82707  35.109  41.811  10.624
18940W        W82708  37.391  38.872   5.095
18941W        W82709  29.167  43.433   2.752
18942W        W82710  42.423  40.395   1.250
18943W        W82711  43.314  10.368   4.597
18944W        W82712   0.424  25.098  10.633
18945W        W82713  33.999   0.968  14.822
18946W        W82714  43.419  19.703  12.485
18947W        W82715  11.355   2.437  12.435
18948W        W82716  17.259  28.158  12.944
18949W        W82717  23.998  30.002  12.838
18950W        W82718  42.806  27.610   0.409
18951W        W82719  22.012  23.040   4.792
18952W        W82720   6.902  19.628  13.857
18953W        W82721  31.559   9.758  14.921
18954W        W82722  16.311  23.721   1.754
18955W        W82723   3.438  35.358  14.964
18956W        W82724   8.880  43.370  13.458
18957W        W82725  36.878  43.856   0.726
18958W        W82726  26.069  43.304   2.233
18959W        W82727  26.971  18.161   2.290
18960W        W82728  44.794  39.548  14.818
18961W        W82729  37.435  23.182   4.662
18962W        W82730  17.672  23.648   0.306
18963W        W82731  37.047  30.659   3.695
18964W        W82732  23.999  16.585   3.723
18965W        W82733  17.299  38.503   4.703
18966W        W82734  16.759  35.595  11.532
18967W        W82735  24.588  44.756  12.064
18968W        W82736   6.297  16.793  11.863
18969W        W82737  30.123   8.164   2.263
18970W        W82738   9.343   5.415   3.243
18971W        W82739   7.237   8.812   3.199
18972W        W82740  31.904  44.334   3.383
18973W        W82741  18.091  14.721   1.701
18974W        W82742  39.521  37.451  13.526
18975W        W82743   6.409  32.027  14.296
18976W        W82744   9.195  42.869  10.529
18977W        W82745  28.999  38.836   1.336
18978W        W82746  23.222  12.302   3.168
18979W        W82747   4.389  24.088   2.880
18980W        W82748  28.135  13.811  12.081
18981W        W82749  38.066  38.888   3.853
18982W        W82750  28.081  15.581   2.841
18983W        W82751  12.824   6.733   1.919
18984W        W82752  43.353   7.804  12.834
18985W        W82753  14.132  28.108   5.151
18986W        W82754  24.143   0.270  11.373
18987W        W82755  13.748   6.236  10.461
18988W        W82756  22.534  44.790  10.611
18989W        W82757  10.346  16.756  11.979
18990W        W82758  37.970  13.691   0.405
18991W        W82759  43.386  21.737   4.801
18992W        W82760   2.857   6.250  11.447
18993W        W82761  22.184  37.428   2.186
18994W        W82762  13.266   5.883  12.090
18995W        W82763  41.418   0.249   2.294
18996W        W82764  17.238  31.491   4.135
18997W        W82765   5.231  10.870   3.703
18998W        W82766  12.253  24.219  11.881
18999W        W82767   3.255  37.433   2.706
19000W        W82768  44.421  15.580  13.801
19001W        W82769  32.021  14.160  11.579
19002W        W82770  22.592  26.491  11.054
19003W        W82771  13.172  33.132  14.303
19004W        W82772  28.668  21.228  14.399
19005W        W82773  17.264  27.584   0.853
19006W        W82774  20.095  33.906  10.060
19007W        W82775  34.096  16.775  12.447
19008W        W82776   7.229  15.596  11.928
19009W        W82777  39.943  27.946  14.349
19010W        W82778  35.915  14.293  11.961
19011W        W82779   0.917   7.848   2.807
19012W        W82780   5.837   1.370  14.330
19013W        W82781  30.422  14.209   0.915
19014W        W82782   5.702  19.683  14.430
19015W        W82783  27.047  13.758  13.982
19016W        W82784  13.258  39.854  14.996
19017W        W82785  16.729   1.282  12.977
19018W        W82786  34.532  30.156  14.005
19019W        W82787  22.743  34.873  10.466
19020W        W82788  30.474  44.493  11.858
19021W        W82789  34.966  15.778   4.602
19022W        W82790  21.203   5.222   3.161
19023W        W82791  23.618  40.831   1.834
19024W        W82792  32.492   9.739  13.415
19025W        W82793  24.145  23.037  14.855
19026W        W82794  21.199  29.163  12.028
19027W        W82795  13.625  39.953   2.306
19028W        W82796  32.401  41.434  14.978
19029W        W82797  24.137  38.975   3.314
19030W        W82798  26.480  14.141   3.370
19031W        W82799  13.345  24.113  14.881
19032W        W82800   2.721  24.174  12.853
19033W        W82801  30.464  19.592   2.360
19034W        W82802  17.782  38.568   1.902
19035W        W82803   7.366  43.813  11.497
19036W        W82804  36.347  39.983  11.875
19037W        W82805   9.267  18.599   3.248
19038W        W82806  22.210  30.103  14.805
19039W        W82807  34.481  17.556   0.939
19040W        W82808  13.638   7.225   2.191
19041W        W82809  27.500  33.524   3.632
19042W        W82810   9.374  16.277   4.619
19043W        W82811   5.266  43.853  14.892
19044W        W82812  17.696   0.803   0.411
19045W        W82813  38.907   5.749  10.965
19046W        W82814  11.344   0.374   4.819
19047W        W82815  42.402  43.981  12.906
19048W        W82816  22.655  10.366   3.667
19049W        W82817   5.322   4.401   4.276
19050W        W82818   0.843   0.934  14.342
19051W        W82819   1.810  21.575  14.275
19052W        W82820  37.485   3.758   2.357
19053W        W82821  22.696  11.784   1.852
19054W        W82822   9.274  34.958   0.477
19055W        W82823  14.304  18.544   3.278
19056W        W82824  38.461  20.028  10.479
19057W        W82825   7.847  38.410   0.252
19058W        W82826   8.781  33.394   3.317
19059W        W82827   7.281  29.991   0.471
19060W        W82828  27.181  43.811  10.890
19061W        W82829  40.482  23.211  10.920
19062W        W82830  16.753  29.439  10.487
19063W        W82831   7.820  16.094   0.869
19064W        W82832  32.551   9.263  14.802
19065W        W82833   1.963  25.078  12.482
19066W        W82834  25.650  20.579  11.988
19067W        W82835   5.889   8.668  12.009
19068W        W82836  39.961  25.059  11.035
19069W        W82837   2.258  40.410  13.477
19070W        W82838  41.828  32.124   2.676
19071W        W82839  35.574  16.257  14.918
19072W        W82840  27.691  13.619  14.298
19073W        W82841  28.125  14.279   4.295
19074W        W82842  28.574   7.871   2.208
19075W        W82843  42.800  11.167  13.834
19076W        W82844  20.067   0.408   4.808
19077W        W82845  28.545   5.873  13.332
19078W        W82846  11.644  31.523  10.600
19079W        W82847  29.071   7.870  11.054
19080W        W82848  11.197  35.419  12.569
19081W        W82849  40.526   7.298  13.464
19082W        W82850  26.986  44.842   3.367
19083W        W82851  12.234  13.242  14.927
19084W        W82852  24.703  17.725  12.431
19085W        W82853  42.995  43.918   0.805
19086W        W82854  37.867  34.043   3.837
19087W        W82855  29.131  21.229  14.462
19088W        W82856   0.888  26.100  13.804
19089W        W82857  35.432  30.486  11.012
19090W        W82858  40.045   5.720  12.960
19091W        W82859  16.755  27.675   2.816
19092W        W82860   6.693   2.245  10.492
19093W        W82861   0.892  25.517  12.969
19094W        W82862  33.525  35.437   2.812
19095W        W82863  20.600   9.197  11.927
19096W        W82864   7.789   1.268  14.888
19097W        W82865  12.679  32.399  13.907
19098W        W82866  36.583   5.337   2.823
19099W        W82867   3.872  34.494   2.852
19100W        W82868  32.977  17.068   2.281
19101W        W82869  44.967   1.813  13.036
19102W        W82870   7.235  26.669  14.516
19103W        W82871  32.498  12.643   1.784
19104W        W82872   3.246  11.729  13.906
19105W        W82873  11.336  17.175   1.249
19106W        W82874   3.235  30.062   3.265
19107W        W82875   1.948  27.661   1.804
19108W        W82876  30.989  12.746  13.397
19109W        W82877  40.469  32.961   4.748
19110W        W82878   5.298  28.584   2.292
19111W        W82879   0.809  36.956  10.562
19112W        W82880   7.746  25.487  12.038
19113W        W82881  39.915  22.596   3.706
19114W        W82882  28.176  10.331   3.163
19115W        W82883  13.645   3.875   4.769
19116W        W82884   5.703  27.998  12.406
19117W        W82885   7.316  34.470  14.864
19118W        W82886  29.493  43.404  13.526
19119W        W82887  30.442  30.545   2.757
19120W        W82888  21.088   0.920   0.311
19121W        W82889  10.724   8.891   1.223
19122W        W82890   6.746  12.200   2.316
19123W        W82891  28.976  11.643  13.522
19124W        W82892   9.355  29.434   9.975
19125W        W82893  18.751  37.074  13.425
19126W        W82894  28.089  23.605  14.402
19127W        W82895   2.915  13.817   1.857
19128W        W82896  34.586  44.906   2.845
19129W        W82897  36.451   0.839   1.231
19130W        W82898  12.294  38.520  12.994
19131W        W82899  38.920   2.354  14.849
19132W        W82900  13.676  19.181   4.296
19133W        W82901   2.951  31.989  11.421
19134W        W82902  38.991  41.798  13.433
19135W        W82903   9.764  23.072  14.807
19136W        W82904  28.108  10.166  13.447
19137W        W82905  26.530  29.022  14.946
19138W        W82906  12.754  24.142   3.235
19139W        W82907  39.924  26.473  12.378
19140W        W82908   6.792   8.357   0.333
19141W        W82909  35.595  34.089   4.258
19142W        W82910  10.305  26.479  10.133
19143W        W82911  30.955   5.309   0.454
19144W        W82912  10.368   8.824  10.947
19145W        W82913  33.518  33.435   3.320
19146W        W82914   4.877  29.078  12.940
19147W        W82915   7.689  37.009   3.158
19148W        W82916  16.811  36.393   1.792
19149W        W82917  42.955  28.187   4.825
19150W        W82918  44.999  27.540   0.320
19151W        W82919  25.476  43.367   2.329
19152W        W82920   7.187   9.309   4.644
19153W        W82921   3.872  12.157  14.928
19154W        W82922  37.881  19.128   2.769
19155W        W82923  22.518   3.731  12.574
19156W        W82924   2.423   2.358  12.474
19157W        W82925  22.062  18.633   2.869
19158W        W82926   0.400  33.953   3.802
19159W        W82927  29.069   3.452   4.170
19160W        W82928  26.554  25.168  10.961
19161W        W82929  18.202  20.731   4.156
19162W        W82930  29.001  17.072   0.379
19163W        W82931  35.548  29.996   4.737
19164W        W82932  17.065  38.496  12.449
19165W        W82933  30.420  14.829   3.161
19166W        W82934  40.923  10.674   3.867
19167W        W82935  39.017   2.462   3.215
19168W        W82936  35.107  41.464  12.528
19169W        W82937  43.816  16.163   4.277
19170W        W82938  16.663  30.932   3.153
19171W        W82939   2.919  23.539   2.326
19172W        W82940   9.859   7.883   1.747
19173W        W82941  15.179  23.658   2.191
19174W        W82942  38.000   9.269   1.828
19175W        W82943   4.755  26.566  13.442
19176W        W82944  10.830  11.814  14.350
19177W        W82945  34.430  30.092   4.220
19178W        W82946  38.534   6.690   2.400
19179W        W82947  34.941  34.109  12.982
19180W        W82948   0.347  11.718   1.932
19181W        W82949  20.204  20.032   0.453
19182W        W82950   6.912  30.453  13.035
19183W        W82951  11.720  14.099  11.858
19184W        W82952  34.431  17.642  11.882
19185W        W82953  43.414  38.872  10.051
19186W        W82954   6.399   6.824   4.730
19187W        W82955  40.314  28.554   1.906
19188W        W82956  14.143   1.888  10.474
19189W        W82957  13.665  16.727   9.465
19190W        W82958  42.322   7.255   2.413
19191W        W82959  44.447  41.969   2.387
19192W        W82960   9.249  28.935   4.838
19193W        W82961  32.551  38.901  10.958
19194W        W82962   8.395  21.519   4.315
19195W        W82963  34.105   5.803  12.580
19196W        W82964  25.635   8.836  14.332
19197W        W82965  29.560  16.272   3.180
19198W        W82966  38.869   4.737  13.991
19199W        W82967  11.754  37.442  11.862
19200W        W82968  11.358  28.659  14.309
19201W        W82969  17.269  15.764   5.124
19202W        W82970  13.695  29.025  10.977
19203W        W82971  27.028  41.942   1.357
19204W        W82972  25.639  13.205   2.857
19205W        W82973   3.887  39.418  13.354
19206W        W82974  35.442  42.378  14.014
19207W        W82975   1.764   2.444  12.913
19208W        W82976   2.909  16.702  11.023
19209W        W82977  38.355  13.282   2.776
19210W        W82978  36.562  43.431   1.406
19211W        W82979   0.903  11.746  14.475
19212W        W82980  12.293  17.243  13.992
19213W        W82981  10.328  36.542   2.191
19214W        W82982  23.034  29.018  10.457
19215W        W82983   4.322   0.444   1.297
19216W        W82984  28.453  32.431   1.742
19217W        W82985  18.561  36.382  13.799
19218W        W82986   8.713  35.905   3.858
19219W        W82987  23.496  23.213  14.909
19220W        W82988  37.976   2.807   3.651
19221W        W82989  27.530  26.037   0.882
19222W        W82990  34.078  23.238  11.936
19223W        W82991  29.045  44.992   3.859
19224W        W82992  43.005  27.625  13.404
19225W        W82993   6.751   0.780  12.835
19226W        W82994  32.563  15.719   5.125
19227W        W82995   7.700   2.823   4.600
19228W        W82996  38.401  26.969   4.630
19229W        W82997  44.779  39.922   2.818
19230W        W82998   0.895  24.226  14.880
19231W        W82999  16.690   9.295   2.891
19232W        W83000   5.433  22.114   3.715
19233W        W83001  30.005   5.197  10.582
19234W        W83002   5.901  14.651   0.393
19235W        W83003  13.261  35.945   1.791
19236W        W83004  21.533  10.357  11.944
19237W        W83005  25.530  44.319   5.143
19238W        W83006  31.414   8.801   1.450
19239W        W83007  16.673   6.721  12.524
19240W        W83008  25.588   8.169   3.208
19241W        W83009  44.000  21.627  10.913
19242W        W83010  21.568  41.033  14.008
19243W        W83011  14.778  33.580   2.289
19244W        W83012  29.555   8.372   2.674
19245W        W83013  24.611   5.762  11.528
19246W        W83014   6.705  15.148  10.585
19247W        W83015  11.284  11.224   0.918
19248W        W83016  17.279  35.499   0.369
19249W        W83017  13.224  32.410   2.892
19250W        W83018  28.962  41.795  12.037
19251W        W83019   5.720  10.144  14.865
19252W        W83020  39.832  39.537  14.867
19253W        W83021  13.175  26.619   2.678
19254W        W83022   1.434   5.325  13.805
19255W        W83023   2.415  29.457   1.895
19256W        W83024  24.663  10.783   0.342
19257W        W83025  23.598   4.871   2.272
19258W        W83026  19.642   2.774  10.576
19259W        W83027  36.066  38.017   4.210
19260W        W83028  29.951   3.233  13.311
19261W        W83029   7.185  42.476   3.271
19262W        W83030  18.564  35.914   5.154
19263W        W83031  25.559  17.589   4.237
19264W        W83032  41.913  10.165  11.127
19265W        W83033   6.720  38.355   4.170
19266W        W83034  32.531  24.114   3.239
19267W        W83035  11.688  41.803  14.931
19268W        W83036  21.519  33.544   1.865
19269W        W83037  37.568  43.897  12.071
19270W        W83038  12.677  17.245   1.387
19271W        W83039   3.230  37.932  14.446
19272W        W83040  10.254   6.254   2.238
19273W        W83041  23.687  42.909   3.250
19274W        W83042  32.114  13.222   2.884
19275W        W83043   5.332  26.561  13.353
19276W        W83044  43.836  39.818   3.827
19277W        W83045  44.336  10.849   0.817
19278W        W83046  29.108  13.781   2.180
19279W        W83047  24.033  25.566  12.874
19280W        W83048  27.136   9.876  12.097
19281W        W83049  38.553  35.001   3.772
19282W        W83050  20.255  38.849   0.355
19283W        W83051  22.637  39.330  14.386
19284W        W83052  29.150  21.684   4.830
19285W        W83053  30.131  44.931   4.302
19286W        W83054  22.175  35.925  13.873
19287W        W83055  20.134   3.764   0.273
19288W        W83056  32.626  23.078   1.344
19289W        W83057  33.545  34.541  14.810
19290W        W83058  35.054  44.438   0.274
19291W        W83059   9.684  37.519  13.384
19292W        W83060  18.614  18.591   2.194
19293W        W83061  24.620  38.369   3.835
19294W        W83062   4.865  36.503   1.758
19295W        W83063   9.865   2.457  11.556
19296W        W83064  30.031  40.006   1.801
19297W        W83065  38.888  44.914  10.610
19298W        W83066  33.488  37.414   5.224
19299W        W83067  36.529  27.606  12.951
19300W        W83068  17.213  13.810   2.298
19301W        W83069  33.583  25.097   2.835
19302W        W83070  24.557  31.604  11.014
19303W        W83071   9.192  18.781  12.876
19304W        W83072  30.065  24.489  12.013
19305W        W83073   8.672  13.317   3.770
19306W        W83074  14.102  39.553   4.721
19307W        W83075  35.510   1.449   4.739
19308W        W83076  28.525  41.413   1.707
19309W        W83077  44.398  44.011   4.686
19310W        W83078   5.910   8.306   3.233
19311W        W83079  24.192  33.559   3.720
19312W        W83080  13.149  21.066   2.747
19313W        W83081  43.841  22.712  10.996
19314W        W83082  21.674  11.246  12.090
19315W        W83083  15.752   6.245   1.319
19316W        W83084   0.858  30.087   0.334
19317W        W83085  28.635  26.495  11.014
19318W        W83086   3.301  10.659   3.326
19319W        W83087  22.076  30.467  14.324
19320W        W83088  33.040   6.387  10.947
19321W        W83089  31.412  19.597  12.971
19322W        W83090   2.446  42.418  12.907
19323W        W83091  20.760   1.420   1.444
19324W        W83092  34.490  41.414   1.900
19325W        W83093  13.607   0.326   0.818
19326W        W83094  25.200  34.045   2.822
19327W        W83095  23.118  26.106   1.381
19328W        W83096   8.897   1.292   1.346
19329W        W83097  38.566  40.320   0.446
19330W        W83098  32.885   1.353  13.863
19331W        W83099  28.164  35.063  10.950
19332W        W83100  13.664  27.567  14.910
19333W        W83101  22.519  26.573   3.290
19334W        W83102  35.886   2.812   1.246
19335W        W83103  16.616   4.929  11.522
19336W        W83104   1.355  32.975  10.938
19337W        W83105  14.740  39.415   1.391
19338W        W83106  42.394  14.821  12.555
19339W        W83107  31.641  25.042  14.410
19340W        W83108  35.071  43.422   2.331
19341W        W83109   2.465  28.065   1.426
19342W        W83110   0.435  33.578  13.443
19343W        W83111  43.870  12.746   4.650
19344W        W83112  37.052  42.342  12.874
19345W        W83113   0.326  17.766   1.787
19346W        W83114  35.391   6.205  12.473
19347W        W83115   8.862  32.538   4.730
19348W        W83116  27.063  24.105   4.255
19349W        W83117  38.382  31.637  12.908
19350W        W83118  32.009   1.835  14.897
19351W        W83119  38.466  22.186  13.527
19352W        W83120  37.012  11.764  13.521
19353W        W83121  33.040  11.347   3.157
19354W        W83122  38.349  29.121   1.740
19355W        W83123   6.730  37.848  13.325
19356W        W83124  24.036  20.152   3.356
19357W        W83125  30.537  19.604   0.243
19358W        W83126  24.656   9.329  14.342
19359W        W83127  24.691  11.729   2.871
19360W        W83128  37.497  38.037   3.219
19361W        W83129  19.228  34.539   9.506
19362W        W83130  17.163  25.181  11.859
19363W        W83131   5.208  40.366   1.745
19364W        W83132  25.199  44.480   2.680
19365W        W83133  33.483  27.974   3.632
19366W        W83134   4.404  37.854   0.754
19367W        W83135  12.792  41.010   2.730
19368W        W83136  34.603  37.936   1.339
19369W        W83137  29.565  28.934  14.780
19370W        W83138   3.781  44.297  10.912
19371W        W83139   6.733  34.572  13.947
19372W        W83140  22.999   0.822  13.423
19373W        W83141  13.220   0.976  11.594
19374W        W83142  34.112  19.252  10.452
19375W        W83143  19.116  43.892  12.927
19376W        W83144  13.141  37.504  11.016
19377W        W83145  34.395  13.615   3.713
19378W        W83146   1.879  38.836   4.199
19379W        W83147  28.081  27.097  12.881
19380W        W83148  17.631   3.899  14.998
19381W        W83149  26.130  18.672   1.902
19382W        W83150  19.585   6.751   3.257
19383W        W83151  42.372  36.528  13.872
19384W        W83152  14.310   7.701   1.451
19385W        W83153  39.541   3.767   4.787
19386W        W83154  39.032  20.065  12.345
19387W        W83155  31.599  27.162   1.714
19388W        W83156  39.830  13.214  13.308
19389W        W83157  44.422  15.580   3.296
19390W        W83158   3.227   5.228   0.442
19391W        W83159  11.729  24.653  14.411
19392W        W83160  16.595  25.649   3.151
19393W        W83161  39.827  43.395   2.816
19394W        W83162  37.084  16.140   2.886
19395W        W83163  26.609   0.271   2.751
19396W        W83164  27.010  26.075   1.254
19397W        W83165  29.509   7.686  14.445
19398W        W83166  24.580  17.068  12.364
19399W        W83167  22.591  40.968   2.666
19400W        W83168   4.859  29.664   4.646
19401W        W83169  36.459  19.062   2.852
19402W        W83170  37.907  25.690  12.916
19403W        W83171  41.474  17.283   3.351
19404W        W83172  20.112  34.553   2.374
19405W        W83173  24.997  11.205   4.149
19406W        W83174  30.153  29.666  12.940
19407W        W83175  40.911  34.021   3.718
19408W        W83176  12.358   4.356  11.500
19409W        W83177  22.528   2.266   3.862
19410W        W83178  19.224   6.418  10.960
19411W        W83179  21.263   0.356   1.256
19412W        W83180   7.687  36.877   3.658
19413W        W83181   1.391  44.269   1.834
19414W        W83182  30.061  40.800  10.528
19415W        W83183  39.384   7.275  14.299
19416W        W83184  35.059   0.386   3.162
19417W        W83185   9.769   4.422   3.321
19418W        W83186  10.222  30.116   4.671
19419W        W83187  10.256  13.216  12.077
19420W        W83188  32.137  35.054  10.607
19421W        W83189  16.566  11.837   2.698
19422W        W83190  25.584  22.142   1.712
19423W        W83191  15.822   1.266   3.638
19424W        W83192   0.444  40.386  14.401
19425W        W83193   5.384  18.584  10.619
19426W        W83194  18.195  28.929  12.850
19427W        W83195  33.559  29.036   2.321
19428W        W83196  24.038  12.210   1.736
19429W        W83197  34.473  31.907   4.786
19430W        W83198   3.374  12.691   3.863
19431W        W83199  36.900  37.882   0.260
19432W        W83200  37.446  14.204  13.311
19433W        W83201  41.496  18.131  11.949
19434W        W83202  19.173  11.200  11.043
19435W        W83203  20.113  24.154   0.832
19436W        W83204  21.543  20.529  14.787
19437W        W83205   1.403  21.571  12.013
19438W        W83206  27.580  34.540  14.351
19439W        W83207   5.750  14.683  11.078
19440W        W83208  12.707  35.426   4.288
19441W        W83209  29.534  14.591   2.805
19442W        W83210  17.068   5.290  14.022
19443W        W83211  12.677  18.066  13.032
19444W        W83212   9.790  17.626  12.044
19445W        W83213  15.793  35.871   0.793
19446W        W83214  12.699  27.624  11.044
19447W        W83215  13.626  22.531   0.353
19448W        W83216  13.128  36.945   0.867
19449W        W83217  27.116  43.001  14.379
19450W        W83218  35.908  14.659   3.762
19451W        W83219  35.024  16.078  13.400
19452W        W83220  31.968  19.708   4.732
19453W        W83221   4.870  17.162  11.414
19454W        W83222  24.724  25.039   2.230
19455W        W83223  30.476   9.281   0.439
19456W        W83224  22.126  41.844  13.457
19457W        W83225  36.398  39.375   1.709
19458W        W83226  11.359  36.483   4.327
19459W        W83227  21.569   7.234  12.827
19460W        W83228  21.233  31.054  14.884
19461W        W83229  14.666  32.029  13.017
19462W        W83230  14.135  30.521   3.854
19463W        W83231   4.212  19.647   2.222
19464W        W83232   4.878  35.980   2.662
19465W        W83233  27.625  11.297  10.013
19466W        W83234  33.499  26.984   3.824
19467W        W83235  29.074   7.901  14.369
19468W        W83236  32.505  21.241   1.308
19469W        W83237  39.965   6.296   3.796
19470W        W83238   5.695  21.197  13.495
19471W        W83239  16.656  21.168  12.379
19472W        W83240  14.261  44.870   3.358
19473W        W83241   7.753   8.385   2.367
19474W        W83242  12.124  17.289   3.789
19475W        W83243  13.674  43.386   2.316
19476W        W83244  37.521  27.963   1.285
19477W        W83245  23.054  10.384  14.952
19478W        W83246   5.866  11.223   0.340
19479W        W83247  33.102  12.278  11.580
19480W        W83248  24.080  44.396   0.847
19481W        W83249  30.536   4.390  12.035
19482W        W83250  34.460   1.433  11.597
19483W        W83251   9.299  35.396  12.090
19484W        W83252  23.654  26.045  13.037
19485W        W83253  35.545   0.882  10.620
19486W        W83254  33.072   0.773  12.413
19487W        W83255  22.166   8.285  12.453
19488W        W83256  42.988  29.589  14.792
19489W        W83257  23.608  33.420   2.256
19490W        W83258  42.510   5.859   4.278
19491W        W83259   6.719   5.802  12.880
19492W        W83260  38.066  24.207  10.405
19493W        W83261  43.908   4.773  11.083
19494W        W83262  21.230  26.173  12.043
19495W        W83263   0.853   9.151  14.845
19496W        W83264  17.305   8.288   3.706
19497W        W83265  29.989  39.313  14.383
19498W        W83266   7.389  11.327  12.065
19499W        W83267  23.186  12.813   3.193
19500W        W83268  44.422   7.228  12.044
19501W        W83269  40.362  20.149   4.641
19502W        W83270  35.435  12.243  10.629
19503W        W83271   4.340  21.709   0.322
19504W        W83272  14.147  20.574   4.145
19505W        W83273  25.100  42.495   0.850
19506W        W83274  29.065  26.679  14.489
19507W        W83275  42.997  34.444  10.918
19508W        W83276  22.726   8.272   0.930
19509W        W83277  28.016   2.334   2.751
19510W        W83278  27.666  35.106  11.917
19511W        W83279   6.705  10.846  13.372
19512W        W83280  29.065  29.601  12.521
19513W        W83281   8.299   0.803   3.756
19514W        W83282  24.159  33.595  13.945
19515W        W83283  13.686  17.195   0.390
19516W        W83284   6.215  16.301  10.988
19517W        W83285  30.155   4.339   4.639
19518W        W83286  26.119  40.049   4.782
19519W        W83287  16.127  20.619   5.199
19520W        W83288  10.223  24.210   3.733
19521W        W83289  20.672  29.998   2.891
19522W        W83290  12.263  16.714  11.913
19523W        W83291  24.088  15.797   1.818
19524W        W83292  14.789  22.719  11.512
19525W        W83293  34.512  13.804  13.963
19526W        W83294  19.719   2.398   0.483
19527W        W83295   4.914   0.751   2.235
19528W        W83296  30.646  30.584   3.181
19529W        W83297  21.187   7.329   4.116
19530W        W83298  14.825   4.739   4.186
19531W        W83299   3.299  37.491  10.931
19532W        W83300  25.632  27.977   1.350
19533W        W83301   5.434  17.612  11.429
19534W        W83302  39.459   0.436   2.317
19535W        W83303  11.141  35.504  11.481
19536W        W83304   5.197   8.243   3.733
19537W        W83305  36.943  41.506   0.879
19538W        W83306  30.124  33.583   3.377
19539W        W83307  23.096  13.844   4.816
19540W        W83308   3.831   7.399   1.740
19541W        W83309  14.658  31.015   3.725
19542W        W83310   9.696  36.449  14.934
19543W        W83311  26.464  38.465  13.838
19544W        W83312  24.073  13.633   0.441
19545W        W83313   4.429   1.419   0.750
19546W        W83314   7.828  26.184   1.350
19547W        W83315  42.853  34.004   0.877
19548W        W83316   9.183  42.962  11.035
19549W        W83317  41.533  22.519  10.555
19550W        W83318   4.743   7.849   4.784
19551W        W83319  23.523   5.259  11.467
19552W        W83320  43.986  23.560   0.472
19553W        W83321  16.712   0.455  14.895
19554W        W83322  26.551  36.378  13.501
19555W        W83323  12.195   1.436  10.572
19556W        W83324  37.944  10.813  12.580
19557W        W83325  34.499  19.234  13.501
19558W        W83326   0.929   6.255   4.639
19559W        W83327   6.883  26.467  12.866
19560W        W83328   8.768  35.883   1.291
19561W        W83329   1.920  26.985  12.444
19562W        W83330  12.793  25.130  11.559
19563W        W83331  35.597   7.710  13.513
19564W        W83332  12.755  16.682  13.966
19565W        W83333  35.477  18.779  10.007
19566W        W83334  44.917   0.376   2.308
19567W        W83335  35.005  41.532  11.508
19568W        W83336  35.549  20.749  12.010
19569W        W83337  31.572   4.364  10.416
19570W        W83338  23.022  28.000  13.846
19571W        W83339  39.882  34.602  11.869
19572W        W83340  24.667   7.225   2.773
19573W        W83341  38.913   4.258   3.202
19574W        W83342  15.156  13.150  14.486
19575W        W83343  27.544  37.428  12.515
19576W        W83344   2.902  39.319   9.553
19577W        W83345  15.200   2.397   1.816
19578W        W83346  40.456  24.654   2.348
19579W        W83347  27.554  37.875  11.017
19580W        W83348  39.946  37.398   3.243
19581W        W83349  42.005  29.952  12.884
19582W        W83350  15.799  20.565   0.836
19583W        W83351  19.722  43.473   0.878
19584W        W83352  33.965  15.256   3.286
19585W        W83353  20.052   9.345  14.874
19586W        W83354  22.604  24.088  12.034
19587W        W83355  30.038  26.639   3.825
19588W        W83356  12.800  22.065   2.320
19589W        W83357  22.009  23.194  14.294
19590W        W83358  31.614   2.390  14.921
19591W        W83359  41.308  36.429  13.534
19592W        W83360  43.961  30.645   2.287
19593W        W83361   1.861  25.711   4.807
19594W        W83362  29.923  37.980  13.885
19595W        W83363  21.582  32.990   2.781
19596W        W83364  13.669  40.803   2.767
19597W        W83365  25.565  27.541   0.884
19598W        W83366  20.562   4.825   2.252
19599W        W83367  21.136  26.632   2.826
19600W        W83368   1.308  35.067  12.433
19601W        W83369   0.470  21.207  10.497
19602W        W83370  43.009  41.913   1.351
19603W        W83371  40.391  11.258   2.774
19604W        W83372  27.670  43.490   0.402
19605W        W83373   0.248  16.588   1.892
19606W        W83374  24.491   8.829  11.513
19607W        W83375  17.575  44.829  10.643
19608W        W83376  13.193  22.578  11.544
19609W        W83377  17.264  26.487  10.446
19610W        W83378  33.890  13.141   4.346
19611W        W83379  19.131  44.303   1.313
19612W        W83380  12.751   2.909  12.868
19613W        W83381  32.473  30.144  13.453
19614W        W83382  26.152  15.222  14.367
19615W        W83383  17.745  36.449   4.754
19616W        W83384  42.366  41.399   0.461
19617W        W83385  44.456   2.745   1.867
19618W        W83386   8.856  26.562  13.922
19619W        W83387  19.105   3.270   3.357
19620W        W83388  31.905  30.448   0.879
19621W        W83389  29.102   8.290  11.979
19622W        W83390  30.061  38.910   0.943
19623W        W83391  42.447   5.820   0.330
19624W        W83392  44.988   3.393  12.385
19625W        W83393  19.638  23.603   2.824
19626W        W83394  41.850  37.958   1.722
19627W        W83395  25.208  18.633   1.448
19628W        W83396  19.570  38.401  12.085
19629W        W83397  17.158  14.304   0.825
19630W        W83398   2.800  11.682  10.411
19631W        W83399  39.866  16.187  14.279
19632W        W83400   3.378  34.481  14.827
19633W        W83401  32.612  16.650  14.011
19634W        W83402  13.822   0.374   4.681
19635W        W83403  43.390   7.780   2.222
19636W        W83404  10.144  33.483   4.772
19637W        W83405  26.094  33.429  11.116
19638W        W83406  17.694   2.382  14.936
19639W        W83407  39.322  10.870  13.794
19640W        W83408  37.884  21.176  14.290
19641W        W83409  26.957   2.878   3.651
19642W        W83410  15.274  42.813   3.304
19643W        W83411  24.053  36.085  10.952
19644W        W83412  38.335   7.199  13.417
19645W        W83413  26.084  23.658  13.917
19646W        W83414  33.394  16.781   4.140
19647W        W83415  29.659  42.294  11.081
19648W        W83416   2.333  22.177  14.932
19649W        W83417   2.759  32.524   2.302
19650W        W83418   0.845  14.764   0.927
19651W        W83419   5.215  33.469  13.854
19652W        W83420  20.152  22.513   4.647
19653W        W83421  17.124  43.851  12.053
19654W        W83422  17.119  22.733  12.391
19655W        W83423   7.283  10.367   1.694
19656W        W83424  30.116   0.905   0.262
19657W        W83425  11.811  12.237   1.448
19658W        W83426  30.596   5.705   4.196
19659W        W83427  13.750  27.156  13.877
19660W        W83428   9.201  25.195   5.158
19661W        W83429  13.785   6.363   0.447
19662W        W83430   3.743   2.310  12.408
19663W        W83431  31.481  39.313  10.543
19664W        W83432   7.206  28.436  11.899
19665W        W83433  44.770  17.186   4.835
19666W        W83434  13.338  19.561  12.501
19667W        W83435   1.251  36.005  11.907
19668W        W83436  15.132  38.970   4.794
19669W        W83437  38.833  28.542   1.425
19670W        W83438  32.402  34.412   4.261
19671W        W83439  30.618  42.477   2.810
19672W        W83440  13.117  38.959   2.702
19673W        W83441  10.159  20.610   4.133
19674W        W83442   1.344   1.237   2.837
19675W        W83443   0.865  31.495   2.307
19676W        W83444  40.441  20.138  14.836
19677W        W83445  24.591  22.151  10.959
19678W        W83446   0.439  29.434   2.719
19679W        W83447   0.844  37.359  14.361
19680W        W83448   5.241   2.307   2.407
19681W        W83449  44.403  14.093  14.905
19682W        W83450  36.006  36.532   3.202
19683W        W83451  42.477  27.034   4.727
19684W        W83452  31.130   3.341  14.859
19685W        W83453  34.461  18.597   5.268
19686W        W83454  22.506   2.332   1.804
19687W        W83455  22.215  39.839   4.734
19688W        W83456  13.146   1.934  12.385
19689W        W83457  28.603  13.672  10.631
19690W        W83458   3.926  38.551   0.386
19691W        W83459   2.240  25.576   2.695
19692W        W83460   1.472  21.516   4.297
19693W        W83461  36.516  27.184   4.139
19694W        W83462  24.550  32.975   3.717
19695W        W83463  36.450  27.090   2.837
19696W        W83464  29.618  40.364   2.888
19697W        W83465  11.346  41.893  11.919
19698W        W83466  28.614  33.889  13.527
19699W        W83467  23.010  13.239   1.426
19700W        W83468  19.714  38.411  10.502
19701W        W83469  15.597  32.604  13.400
19702W        W83470  24.066  17.107   0.415
19703W        W83471  39.394   4.269  12.983
19704W        W83472  43.993  10.219   2.198
19705W        W83473  29.469  12.712  10.016
19706W        W83474   3.714  29.008   1.421
19707W        W83475   8.748   9.260   4.759
19708W        W83476  15.167  17.639   1.284
19709W        W83477   8.321  44.990  13.963
19710W        W83478  44.803  12.131  13.917
19711W        W83479  25.702  17.691  13.025
19712W        W83480  27.184  28.036   2.738
19713W        W83481  26.159   7.374  10.980
19714W        W83482   5.699  34.567  12.979
19715W        W83483  42.403  41.465   3.753
19716W        W83484  42.433  21.702   3.148
19717W        W83485  16.749  15.246  13.903
19718W        W83486  11.297  19.181   1.238
19719W        W83487  32.515   0.250   1.823
19720W        W83488  36.077  16.255  13.544
19721W        W83489   7.826  30.423   4.310
19722W        W83490  42.812  40.316  14.408
19723W        W83491  11.744  31.519   1.759
19724W        W83492  40.030  43.476  13.054
19725W        W83493  28.616  13.640   3.250
19726W        W83494  39.939   0.952   2.802
19727W        W83495  12.699   9.348  12.391
19728W        W83496  20.548  32.550   3.666
19729W        W83497  32.021   4.770  14.442
19730W        W83498  14.109   0.444   1.220
19731W        W83499  42.849   1.808  14.339
19732W        W83500   0.306   1.296  14.305
19733W        W83501  40.017  35.081   1.324
19734W        W83502  25.098   1.877  11.586
19735W        W83503  40.417  43.459  11.923
19736W        W83504  12.752  14.630   2.816
19737W        W83505  36.506  12.152   1.801
19738W        W83506   7.208  38.373   3.635
19739W        W83507   8.317  43.456  10.995
19740W        W83508   0.287  18.152  13.476
19741W        W83509  38.357  40.921  14.902
19742W        W83510  15.186   2.888  11.459
19743W        W83511  41.998  23.581  13.471
19744W        W83512  26.550  41.972  10.518
19745W        W83513   7.737  16.639  12.890
19746W        W83514  37.947  35.025   3.764
19747W        W83515  41.966   5.436  14.923
19748W        W83516  39.999   5.294  14.470
19749W        W83517  42.454  30.598  13.004
19750W        W83518   9.386  20.660  11.471
19751W        W83519  37.997  43.290   0.282
19752W        W83520   2.414  11.325  12.976
19753W        W83521  14.683  43.012   0.734
19754W        W83522  19.619  27.109  14.328
19755W        W83523  42.901  25.056   4.139
19756W        W83524  44.341  22.568   4.334
19757W        W83525  18.192   0.858  13.991
19758W        W83526  39.051  26.465  13.445
19759W        W83527  16.305  19.720  11.503
19760W        W83528  34.963   4.380  12.962
19761W        W83529  38.343  19.078   3.237
19762W        W83530  14.328  22.201  11.999
19763W        W83531  34.550   6.413   0.784
19764W        W83532  23.571  39.934   0.817
19765W        W83533  10.672  28.027  11.970
19766W        W83534  32.922   4.313   3.285
19767W        W83535  43.841  38.517  12.990
19768W        W83536  33.061  14.656  11.414
19769W        W83537  18.227  24.125  11.082
19770W        W83538   2.958  34.956   3.727
19771W        W83539  43.279  20.572  12.972
19772W        W83540  14.810  44.284   4.684
19773W        W83541  14.607  11.758  14.950
19774W        W83542  44.314  16.292  14.304
19775W        W83543   4.755  38.446  13.477
19776W        W83544   1.806  16.091   4.288
19777W        W83545  27.680   2.917   4.213
19778W        W83546  36.858  12.147  11.876
19779W        W83547  28.492  30.576  11.112
19780W        W83548   4.446   3.756  10.905
19781W        W83549  14.237  23.699   3.268
19782W        W83550  29.166  21.582   4.274
19783W        W83551  19.141  22.725   2.179
19784W        W83552  25.617  31.445   9.982
19785W        W83553  42.522  22.154   4.140
19786W        W83554  29.144   7.788   0.954
19787W        W83555  32.114   2.882  11.474
19788W        W83556  10.302   9.754   4.636
19789W        W83557  25.699  43.333   1.365
19790W        W83558  36.071  40.423  11.401
19791W        W83559   9.235   7.237   4.664
19792W        W83560  21.550  40.540  12.389
19793W        W83561   6.338  24.494  10.630
19794W        W83562  15.662  26.539   1.240
19795W        W83563  38.357  40.448   4.156
19796W        W83564  32.044  30.545  11.948
19797W        W83565  30.441  33.432  14.855
19798W        W83566  30.448   1.865  12.451
19799W        W83567  19.179  35.956  10.428
19800W        W83568  25.657   6.408   1.726
19801W        W83569  15.730  30.605  11.566
19802W        W83570  25.616  42.979  11.917
19803W        W83571  23.216   1.770   4.302
19804W        W83572   8.355  15.292   4.331
19805W        W83573   2.808   1.781  10.576
19806W        W83574  29.658   0.468  14.355
19807W        W83575  28.959  13.190  12.466
19808W        W83576   3.427  30.122   0.835
19809W        W83577  32.432   7.407   0.263
19810W        W83578  22.063  17.187   2.867
19811W        W83579   2.441  35.094  12.011
19812W        W83580  24.074   3.752  10.418
19813W        W83581   0.888   1.740   1.748
19814W        W83582  16.582   6.897   0.809
19815W        W83583  23.116   4.398   2.776
19816W        W83584  34.011  37.387   0.324
19817W        W83585   4.832  40.889   3.820
19818W        W83586   4.365  14.762   2.677
19819W        W83587  31.505   5.291  14.875
19820W        W83588   4.789  19.246  13.461
19821W        W83589  27.960   0.813   3.766
19822W        W83590  12.725   3.405   1.420
19823W        W83591  17.220  41.477  12.070
19824W        W83592  28.493  35.381  13.523
19825W        W83593  35.940  17.104  14.474
19826W        W83594  12.851  28.124  14.332
19827W        W83595  24.671  29.548  10.425
19828W        W83596   0.339  30.914  10.934
19829W        W83597   9.660  25.181   3.728
19830W        W83598  25.987  28.051   3.728
19831W        W83599  15.183  37.988  10.640
19832W        W83600  12.316  17.156   4.709
19833W        W83601  36.441   9.329   0.247
19834W        W83602   9.832  15.109  11.108
19835W        W83603  37.417   6.730  12.994
19836W        W83604  11.657   4.267  11.421
19837W        W83605  23.188  26.559   4.322
19838W        W83606   8.360  30.007   0.924
19839W        W83607  26.624  23.232   4.120
19840W        W83608  19.707  31.972   3.698
19841W        W83609  10.192  19.244   1.729
19842W        W83610   8.261   6.814  12.537
19843W        W83611  18.212  44.353  12.877
19844W        W83612  42.935  26.103  12.924
19845W        W83613  27.048  10.299   4.632
19846W        W83614  31.928  39.909   4.143
19847W        W83615  17.790  11.797   0.924
19848W        W83616  36.952  10.335  12.908
19849W        W83617   6.767  27.067   4.228
19850W        W83618  34.911  42.919   3.635
19851W        W83619  33.478  37.985   3.813
19852W        W83620  21.060  31.959   3.681
19853W        W83621  18.235  14.651   3.284
19854W        W83622  39.827   0.970   1.317
19855W        W83623  32.455  24.120  10.498
19856W        W83624  23.558  44.383  13.991
19857W        W83625   7.291   3.833   5.251
19858W        W83626  22.695  39.555  10.477
19859W        W83627   5.308  24.105  13.334
19860W        W83628  24.179  26.173  13.532
19861W        W83629  30.103  10.636   4.734
19862W        W83630  43.440  15.128  13.410
19863W        W83631  16.747  31.041  14.791
19864W        W83632  42.927  42.471   1.759
19865W        W83633  24.106  32.467   4.245
19866W        W83634   9.370  32.429   4.122
19867W        W83635  22.701   5.805  10.079
19868W        W83636   9.837  26.951   2.326
19869W        W83637  36.589  26.008  12.844
19870W        W83638   5.833  12.812   0.892
19871W        W83639   1.934  38.072   0.871
19872W        W83640   7.276  28.990   3.382
19873W        W83641   9.273  10.216   0.829
19874W        W83642  33.996  33.540  13.480
19875W        W83643  30.080   5.865   3.164
19876W        W83644  24.652  40.499   3.664
19877W        W83645   9.369  37.364  14.934
19878W        W83646  27.131  23.175  13.479
19879W        W83647  10.354  41.325  11.886
19880W        W83648   4.832  32.107  10.013
19881W        W83649  26.480  40.361   1.892
19882W        W83650  42.413  42.934  11.415
19883W        W83651  44.822  13.337   4.285
19884W        W83652  34.101  29.953   3.732
19885W        W83653  29.590  12.217   4.692
19886W        W83654  34.994  16.753  14.992
19887W        W83655  24.003  14.288   2.769
19888W        W83656   4.359  31.972  10.488
19889W        W83657  39.502  28.057   0.881
19890W        W83658   7.728  29.946  11.501
19891W        W83659  24.655  21.090   4.698
19892W        W83660  17.646   5.801   1.870
19893W        W83661  37.507  14.171   2.681
19894W        W83662  24.717   0.474  11.023
19895W        W83663  23.172  20.274   0.429
19896W        W83664  33.468  30.955  13.315
19897W        W83665  44.999  13.211  11.920
19898W        W83666  17.098  39.883  10.421
19899W        W83667  20.232  26.106  12.464
19900W        W83668  38.950  29.486  10.521
19901W        W83669   8.712  21.106   1.925
19902W        W83670  12.240  44.781  14.987
19903W        W83671  13.838  39.995  12.387
19904W        W83672  13.273   5.420  12.960
19905W        W83673  40.873  12.316  14.283
19906W        W83674  18.685  41.519  12.346
19907W        W83675   5.729  22.504   0.774
19908W        W83676  16.097   0.892   1.315
19909W        W83677   6.757  13.207  12.491
19910W        W83678  14.340  33.523  10.426
19911W        W83679   2.726  28.015   1.737
19912W        W83680  34.536  18.197  14.908
19913W        W83681  24.051  34.095  13.060
19914W        W83682   7.892  23.193   0.812
19915W        W83683  34.870  40.993  11.858
19916W        W83684  34.471  34.537  14.856
19917W        W83685  44.442   6.394   1.759
19918W        W83686  40.529   6.796   1.853
19919W        W83687   1.478  21.733   4.675
19920W        W83688  43.313  13.655   1.767
19921W        W83689  31.545  10.172   4.328
19922W        W83690   0.779   3.411  10.536
19923W        W83691  41.975  36.008   0.257
19924W        W83692   5.339  26.973   2.199
19925W        W83693  19.651  29.601   3.751
19926W        W83694  41.293  35.470   0.917
19927W        W83695  32.098  26.072  13.927
19928W        W83696  23.735  16.103   4.318
19929W        W83697  44.856  20.623   1.772
19930W        W83698  19.593  18.687  13.794
19931W        W83699  37.905  34.060  14.452
19932W        W83700  30.546  41.810   1.272
19933W        W83701  21.076   5.282  12.370
19934W        W83702  12.793  34.970   1.825
19935W        W83703  43.373  40.457   2.396
19936W        W83704  13.130  44.315   4.317
19937W        W83705  41.801  35.371   1.740
19938W        W83706   5.791   0.761   1.705
19939W        W83707  18.178  23.120  14.333
19940W        W83708   9.704  38.512   2.670
19941W        W83709  40.013   2.333  10.534
19942W        W83710  16.155  42.281   2.788
19943W        W83711  31.118  37.431  14.814
19944W        W83712   5.817  26.066  10.419
19945W        W83713  43.368  14.230   1.807
19946W        W83714  43.888   9.673  14.959
19947W        W83715  26.978  38.506  14.774
19948W        W83716  27.529  17.080   0.762
19949W        W83717  43.418  37.389  13.022
19950W        W83718  19.116  19.133   4.820
19951W        W83719  22.681  34.976   0.949
19952W        W83720   4.932   2.347  13.363
19953W        W83721  38.871  18.242   1.887
19954W        W83722  22.654  22.110   2.859
19955W        W83723  30.571  15.129   2.317
19956W        W83724  24.157   5.351   4.237
19957W        W83725  11.229  14.113   0.255
19958W        W83726  16.072  17.082   1.429
19959W        W83727  23.727  42.435  13.395
19960W        W83728   0.440  16.271  13.541
19961W        W83729  28.181  24.652  12.850
19962W        W83730  40.472  38.346   0.349
19963W        W83731  28.571   9.806  13.847
19964W        W83732  43.358  11.256   0.790
19965W        W83733  22.064  40.024   1.808
19966W        W83734  35.552  25.658   3.330
19967W        W83735  17.302  23.503  14.463
19968W        W83736   8.216  22.076   3.224
19969W        W83737  30.649   9.815   0.824
19970W        W83738   9.802  23.223   2.704
19971W        W83739  32.073  29.080   0.757
19972W        W83740  10.199   6.703  12.509
19973W        W83741   0.329  20.727   3.248
19974W        W83742  12.627  34.401   3.823
19975W        W83743  15.761   9.861   3.375
19976W        W83744  18.127  12.768  10.481
19977W        W83745  31.452  10.699   1.306
19978W        W83746  30.417  35.452   2.850
19979W        W83747  36.078  43.334   2.873
19980W        W83748  41.425   8.801  14.292
19981W        W83749  35.553  26.183   1.916
19982W        W83750  24.642  38.993   2.664
19983W        W83751  21.110  23.114   3.335
19984W        W83752  26.166  37.441  11.879
19985W        W83753  17.738  16.227  13.335
19986W        W83754  19.266  33.982  12.991
19987W        W83755  37.837  39.920   4.801
19988W        W83756   7.244  35.064  10.431
19989W        W83757  38.025  19.627  10.967
19990W        W83758  21.217  32.483   4.828
19991W        W83759   9.228  12.134  10.580
19992W        W83760  27.182   5.755   4.758
19993W        W83761  10.671  33.932   1.272
19994W        W83762   4.314  44.399  13.795
19995W        W83763  43.980  12.667  12.006
19996W        W83764  14.226  36.893  12.914
19997W        W83765  38.522  38.556   1.387
19998W        W83766  39.558  40.348   3.386
19999W        W83767  26.124  25.667   1.353
20000W        W83768   9.781   2.442  12.466
20001W        W83769  28.950  14.595   3.807
20002W        W83770  35.577  30.122   4.166
20003W        W83771  12.323  33.126   2.791
20004W        W83772  36.386  32.604   4.323
20005W        W83773  44.460  38.437  12.470
20006W        W83774  24.641  13.118  13.878
20007W        W83775  26.199  33.524  13.028
20008W        W83776  43.516  23.115   3.157
20009W        W83777   9.269  23.638  12.876
20010W        W83778  18.151  44.795   0.309
20011W        W83779  36.431  20.186   1.296
20012W        W83780  14.129   9.657   1.737
20013W        W83781   9.719  27.492   4.678
20014W        W83782  22.199  28.933   3.229
20015W        W83783  12.637  14.147   1.375
20016W        W83784  41.517  29.605  13.925
20017W        W83785  30.950  25.129   9.978
20018W        W83786  32.444  15.752  10.552
20019W        W83787  33.409  22.595   0.385
20020W        W83788  34.428  28.120   0.362
20021W        W83789  35.975  10.733   0.415
20022W        W83790  40.835  40.476  14.334
20023W        W83791  30.963  18.070  12.387
20024W        W83792  10.175  17.669   0.734
20025W        W83793  44.906   6.915  14.801
20026W        W83794  21.511  32.533  12.496
20027W        W83795   3.283  15.660  13.970
20028W        W83796   2.854  25.073   3.663
20029W        W83797   8.699  10.865  13.365
20030W        W83798  16.607  43.776  14.487
20031W        W83799  13.616  29.553   2.751
20032W        W83800  39.433  35.490  14.455
20033W        W83801  30.539  37.053  13.024
20034W        W83802  30.145  12.757   3.732
20035W        W83803  36.487  19.260   4.115
20036W        W83804  17.266  22.051  11.481
20037W        W83805   6.428  41.347  13.309
20038W        W83806  42.522  24.050  11.060
20039W        W83807  15.289  16.156   2.809
20040W        W83808  20.662   4.338   0.806
20041W        W83809  34.445  41.318  14.468
20042W        W83810  40.375  41.883  12.885
20043W        W83811  44.260   4.253  10.585
20044W        W83812  41.858  27.608  14.899
20045W        W83813  19.648  30.528  10.976
20046W        W83814  23.505   9.825   1.760
20047W        W83815  41.398  14.750  14.826
20048W        W83816  38.446   5.293  12.413
20049W        W83817  40.468   2.726   2.253
20050W        W83818  28.037  28.040   0.368
20051W        W83819  11.854  11.740  10.962
20052W        W83820  38.512   1.953   0.328
20053W        W83821  35.419  10.697   4.829
20054W        W83822  41.514  34.610   0.414
20055W        W83823  36.385  32.501   9.954
20056W        W83824   7.740  20.204  11.913
20057W        W83825  33.417   5.234  14.990
20058W        W83826  39.903   2.947  13.803
20059W        W83827  40.445  42.373   1.743
20060W        W83828  27.197  11.370  13.396
20061W        W83829   4.894  42.347  14.787
20062W        W83830  38.902  16.634  10.469
20063W        W83831  41.496  13.345  14.008
20064W        W83832  20.615   4.885  11.981
20065W        W83833  11.663  12.663  12.458
20066W        W83834   2.267  19.219   4.200
20067W        W83835   9.699  27.650   2.676
20068W        W83836  25.006  22.719   1.293
20069W        W83837  21.724  15.653  12.353
20070W        W83838  28.988   2.396  13.435
20071W        W83839  28.476  32.959  14.408
20072W        W83840   9.882  43.500   0.751
20073W        W83841   9.389  38.950  12.550
20074W        W83842  25.641  36.021   0.753
20075W        W83843  34.934  28.602  10.620
20076W        W83844  31.486  32.896  14.761
20077W        W83845  33.479  17.573   2.317
20078W        W83846   5.301   1.304   4.201
20079W        W83847  18.195   1.845  10.909
20080W        W83848  31.620  12.122  10.498
20081W        W83849  22.212  13.778   9.535
20082W        W83850   9.303   2.276  14.392
20083W        W83851  23.525  16.650   3.636
20084W        W83852  37.358  36.061  14.899
20085W        W83853  10.149  24.124  13.479
20086W        W83854  37.522  11.742   1.821
20087W        W83855  39.055  15.244  14.925
20088W        W83856  32.139  29.953   1.745
20089W        W83857  30.626  36.019  14.406
20090W        W83858   0.284   5.752  12.020
20091W        W83859  15.799   7.403  12.558
20092W        W83860  31.560  21.146  10.994
20093W        W83861  37.352  32.439  13.884
20094W        W83862  31.975  12.347  14.004
20095W        W83863  21.529   6.680  11.605
20096W        W83864  27.020   9.314  12.367
20097W        W83865  21.597  22.617  14.292
20098W        W83866   1.806  11.277  14.882
20099W        W83867  39.479  20.267  14.020
20100W        W83868  43.971  37.408  13.330
20101W        W83869  43.277   3.334   4.786
20102W        W83870   6.850  29.442  11.114
20103W        W83871  25.686  36.916  14.944
20104W        W83872   4.788  33.546  11.401
20105W        W83873   8.819  39.527   3.199
20106W        W83874  31.470  32.415   0.469
20107W        W83875  38.508  12.625  10.645
20108W        W83876  37.946   0.831   0.798
20109W        W83877  25.974  35.432   1.414
20110W        W83878  27.508  37.414  12.932
20111W        W83879   1.393  20.174   3.269
20112W        W83880   5.808  28.548  11.938
20113W        W83881   1.391  33.078  14.360
20114W        W83882  38.376  43.389  14.935
20115W        W83883  27.095  26.502  10.642
20116W        W83884  34.561  42.514  14.910
20117W        W83885  14.833  40.538   4.683
20118W        W83886   5.348  33.078   1.231
20119W        W83887  26.054   6.350   3.832
20120W        W83888  39.516  10.383   4.286
20121W        W83889  22.644  13.139   4.815
20122W        W83890  18.211  11.361  14.280
20123W        W83891  15.172  13.131   9.930
20124W        W83892  30.595   0.918  11.498
20125W        W83893  31.975  39.552  10.489
20126W        W83894  37.384   3.927  14.836
20127W        W83895   6.699  28.663   2.876
20128W        W83896   4.911  35.453   1.817
20129W        W83897   9.300   1.798   2.357
20130W        W83898  37.053  27.491  10.916
20131W        W83899  38.561  40.960   2.775
20132W        W83900  11.629  11.762  12.865
20133W        W83901  24.599  16.676  12.903
20134W        W83902   9.273  39.974   1.785
20135W        W83903   8.725   3.719  12.004
20136W        W83904   0.274  10.210   3.783
20137W        W83905   1.397  19.077  11.537
20138W        W83906  28.152  36.571   4.203
20139W        W83907   4.876  29.654   5.311
20140W        W83908   3.222  32.124  14.846
20141W        W83909  43.773  37.965  13.398
20142W        W83910  31.466  35.056   4.697
20143W        W83911  16.072  22.024   0.286
20144W        W83912  30.519   6.357  13.491
20145W        W83913  14.660   1.817   1.427
20146W        W83914  27.013  38.919  13.902
20147W        W83915  39.035  13.617  13.036
20148W        W83916  17.578   8.226  10.897
20149W        W83917  25.539   5.386  10.984
20150W        W83918  29.123  35.984  14.758
20151W        W83919   9.693   4.413  10.950
20152W        W83920  13.229  18.637   0.835
20153W        W83921  13.668  23.998  14.301
20154W        W83922  21.756  22.605   2.242
20155W        W83923   7.795  30.049  13.527
20156W        W83924   9.234  21.521   0.935
20157W        W83925  32.065  19.167   2.314
20158W        W83926  35.985  39.547   3.249
20159W        W83927  12.852  10.806  13.525
20160W        W83928  15.209   3.289   0.750
20161W        W83929   8.306  18.267  11.061
20162W        W83930  17.067  17.241   2.675
20163W        W83931  24.541  39.974  11.045
20164W        W83932  10.142  27.004  11.936
20165W        W83933  15.672  11.290  13.408
20166W        W83934  39.446  19.682  11.903
20167W        W83935  32.566  20.265   4.203
20168W        W83936  43.918   1.777  14.437
20169W        W83937  42.362  30.540   3.294
20170W        W83938  14.236  43.889   4.279
20171W        W83939  24.699  42.352   1.820
20172W        W83940  42.368  36.876  11.998
20173W        W83941   9.727  24.533  11.015
20174W        W83942   6.873  34.116  11.555
20175W        W83943  29.008   8.221  13.930
20176W        W83944   0.883  14.149  12.415
20177W        W83945  27.959  30.952  13.316
20178W        W83946  23.158  42.988   2.849
20179W        W83947  29.009  28.166  13.913
20180W        W83948  18.248  31.979  10.948
20181W        W83949  26.496  40.810  10.440
20182W        W83950  32.416  12.650   2.816
20183W        W83951  12.846  35.545   1.859
20184W        W83952   8.279   4.244  13.051
20185W        W83953  43.412  20.733   1.865
20186W        W83954  40.454  37.942  12.445
20187W        W83955  16.163  33.602   3.848
20188W        W83956  12.212  33.557   1.395
20189W        W83957  38.822  41.537  14.969
20190W        W83958  43.401  34.456   4.612
20191W        W83959   1.427   1.971  14.296
20192W        W83960  31.572  21.746  11.002
20193W        W83961  42.944  29.166  14.824
20194W        W83962   7.726  23.137  12.448
20195W        W83963  10.215  36.862   4.603
20196W        W83964  21.548  12.754  10.897
20197W        W83965   1.312  20.751  11.494
20198W        W83966   4.291  10.798   2.794
20199W        W83967  16.255  32.492  10.124
20200W        W83968  18.640  42.327  13.835
20201W        W83969   0.891  41.508   1.842
20202W        W83970  35.438  19.142   1.794
20203W        W83971  43.304  16.650   0.921
20204W        W83972  23.084  16.606   3.387
20205W        W83973  13.773  19.602  11.031
20206W        W83974  35.519  26.039   3.652
20207W        W83975  38.909  22.593   4.287
20208W        W83976  10.245  24.049  12.444
20209W        W83977  37.008  41.788  11.417
20210W        W83978   2.912  39.526   3.803
20211W        W83979  37.456  24.147   1.762
20212W        W83980  25.013   9.677   9.958
20213W        W83981   3.216  34.908   1.349
20214W        W83982  28.648  28.442  13.944
20215W        W83983   6.301  38.056  14.281
20216W        W83984  42.405  40.002  13.872
20217W        W83985  33.521   6.794  12.875
20218W        W83986  14.777   0.788   1.887
20219W        W83987   3.766  24.998   0.470
20220W        W83988  28.097   3.225   3.775
20221W        W83989   0.806  12.704   3.782
20222W        W83990  23.182  14.290   1.856
20223W        W83991  33.127  29.490   2.893
20224W        W83992  14.301  10.634   0.792
20225W        W83993   6.411   1.895  12.074
20226W        W83994   3.797  31.917  13.871
20227W        W83995   1.869  35.432   4.606
20228W        W83996   0.957  30.429   4.312
20229W        W83997  25.080  30.583  14.824
20230W        W83998  31.015  37.455   5.233
20231W        W83999  38.895   2.463   1.423
20232W        W84000  30.935  26.978  12.526
20233W        W84001   3.221  25.217   1.756
20234W        W84002  18.083   2.918  14.318
20235W        W84003   9.338  40.036   2.748
20236W        W84004  32.018  28.002   4.167
20237W        W84005  20.152  20.652   1.343
20238W        W84006  13.673  10.200   0.281
20239W        W84007  40.016  26.548  11.944
20240W        W84008  35.484  33.111   2.814
20241W        W84009  18.558  30.596   1.771
20242W        W84010  29.120  40.443   4.816
20243W        W84011   7.266  38.516   2.784
20244W        W84012  38.042   1.762  14.925
20245W        W84013  39.532   6.907   1.405
20246W        W84014  22.225  30.511   0.863
20247W        W84015   2.424  11.866  12.548
20248W        W84016  21.671  11.241   4.328
20249W        W84017  39.953  11.715   2.714
20250W        W84018  12.136   2.916  11.070
20251W        W84019  31.608  38.570   1.876
20252W        W84020   5.859  31.038  13.545
20253W        W84021  23.631   7.402   3.329
20254W        W84022  17.667  11.801  14.972
20255W        W84023  44.893   1.445   2.706
20256W        W84024  40.858  11.639   0.385
20257W        W84025  44.499  13.756   3.362
20258W        W84026  20.066  36.861  12.394
20259W        W84027  16.286   2.337   4.738
20260W        W84028  20.067  43.811   3.375
20261W        W84029  12.794  24.578   4.260
20262W        W84030  36.067  12.141  14.877
20263W        W84031  24.531   5.786   4.645
20264W        W84032   6.880   8.184  12.010
20265W        W84033  19.634   4.917  10.486
20266W        W84034  15.633   8.342  12.522
20267W        W84035  25.490  13.640  14.424
20268W        W84036  27.455  17.709   3.254
20269W        W84037   3.347  23.101   1.254
20270W        W84038  21.696  42.893   1.352
20271W        W84039  16.142   2.336  10.958
20272W        W84040  43.420   3.220  13.364
20273W        W84041  15.741  35.088  13.538
20274W        W84042  37.488  29.650  11.086
20275W        W84043  28.476  12.613  11.922
20276W        W84044   1.927   3.308  11.890
20277W        W84045   7.858  44.403  10.988
20278W        W84046  33.084  13.802  12.451
20279W        W84047   7.887  13.635  12.398
20280W        W84048  30.483   4.933  13.847
20281W        W84049  37.375  40.435   5.150
20282W        W84050  39.396   9.692   1.734
20283W        W84051  31.541  12.827   4.153
20284W        W84052   1.791   4.834   4.352
20285W        W84053  34.453  13.664  12.368
20286W        W84054  24.709  30.073   1.310
20287W        W84055   1.473   0.450  14.373
20288W        W84056  12.782  18.163  11.965
20289W        W84057   9.757  33.034   0.822
20290W        W84058  11.860   5.322  13.792
20291W        W84059  12.337   2.767  12.345
20292W        W84060  41.506  14.594  11.071
20293W        W84061  44.817  41.537   0.258
20294W        W84062  28.007  11.322   1.814
20295W        W84063  35.000  37.535  12.977
20296W        W84064  28.627  16.207  14.918
20297W        W84065   1.377   1.457   1.421
20298W        W84066  10.163  36.959  13.837
20299W        W84067  23.168   5.760  12.520
20300W        W84068  34.417  28.612  13.519
20301W        W84069  14.691  28.002  11.063
20302W        W84070  40.021  13.785  13.515
20303W        W84071  17.669  13.758   2.392
20304W        W84072  30.996  16.728  13.039
20305W        W84073  16.250  20.227  13.446
20306W        W84074  38.903  29.929   3.760
20307W        W84075   8.334  43.877  14.994
20308W        W84076  13.781  30.462   0.920
20309W        W84077  12.727  39.043  14.969
20310W        W84078  40.514   0.756   2.901
20311W        W84079  40.425  10.370  11.372
20312W        W84080  14.664  32.484   4.279
20313W        W84081  21.585  20.220   0.726
20314W        W84082   7.304   1.328   4.768
20315W        W84083  11.868   9.647   0.767
20316W        W84084  34.558  16.742  14.913
20317W        W84085  16.743  17.262   2.775
20318W        W84086  27.617  29.522   3.373
20319W        W84087  36.487  27.096   0.355
20320W        W84088  21.149   1.732   1.909
20321W        W84089  26.552  18.234  14.836
20322W        W84090  40.804  27.963   4.741
20323W        W84091  34.066  32.965   0.359
20324W        W84092  13.697  13.601   4.746
20325W        W84093   3.402   0.804  14.344
20326W        W84094  34.019  44.293   2.690
20327W        W84095  28.519  28.473   3.761
20328W        W84096  14.142  28.474  12.986
20329W        W84097  34.385  31.985   3.838
20330W        W84098  37.400   8.230  13.828
20331W        W84099   8.349   3.219  12.015
20332W        W84100  38.992  24.655   0.479
20333W        W84101  27.197   6.877  13.820
20334W        W84102   1.458  32.576  14.839
20335W        W84103  17.209  43.427   3.665
20336W        W84104  10.227   4.730   0.917
20337W        W84105   2.966  13.133   0.254
20338W        W84106   9.292  20.107  11.490
20339W        W84107  30.560  28.582   2.744
20340W        W84108   2.904  17.089   4.202
20341W        W84109  25.662   8.394   3.667
20342W        W84110  23.685  36.074  13.891
20343W        W84111  23.076  41.867   1.273
20344W        W84112  19.737  37.920   4.628
20345W        W84113  30.972  15.198  10.603
20346W        W84114   7.308  34.065  13.438
20347W        W84115  13.257  36.946   1.849
20348W        W84116  27.056  41.300  13.366
20349W        W84117  35.430  27.113  10.529
20350W        W84118  42.405  20.202  13.480
20351W        W84119  12.268  34.577   4.222
20352W        W84120  44.380  15.748  14.830
20353W        W84121  22.175  26.039  14.317
20354W        W84122  28.083   4.333   1.874
20355W        W84123  31.648  42.925  11.484
20356W        W84124  31.120  28.055   2.319
20357W        W84125   0.380   8.723  14.380
20358W        W84126  28.472  38.386  11.870
20359W        W84127   4.391  43.273   1.913
20360W        W84128  21.729   5.237  14.771
20361W        W84129  19.208  21.513   1.229
20362W        W84130   6.380  44.259   1.262
20363W        W84131  23.525  31.616  13.437
20364W        W84132  43.965  14.811   0.443
20365W        W84133  25.620  24.038  14.281
20366W        W84134  10.740  15.744   4.325
20367W        W84135   9.875  17.740   1.742
20368W        W84136  27.128   9.677  12.558
20369W        W84137  31.543  34.012  11.529
20370W        W84138  28.633  41.402   4.147
20371W        W84139  16.572  32.394  11.126
20372W        W84140  28.020  24.197   0.352
20373W        W84141  38.867   9.248   2.839
20374W        W84142  39.829  25.093   3.208
20375W        W84143  36.387  36.074  14.414
20376W        W84144   6.427  40.932   2.388
20377W        W84145  22.218  30.064  10.610
20378W        W84146  27.070  29.130  13.999
20379W        W84147  12.219  37.581   2.192
20380W        W84148  14.671  15.708   0.846
20381W        W84149   7.754  17.111   0.355
20382W        W84150  14.785  27.663   4.791
20383W        W84151  43.468   5.910   0.963
20384W        W84152   4.319   8.785   4.679
20385W        W84153   9.720  13.765   4.161
20386W        W84154  31.647  39.347  13.912
20387W        W84155  20.172  44.891   3.668
20388W        W84156  43.513  43.893   4.794
20389W        W84157  17.092  36.568   1.717
20390W        W84158  10.308  34.930   4.744
20391W        W84159  12.131  28.016   4.659
20392W        W84160  30.991  29.077   0.730
20393W        W84161  23.236  40.413   3.287
20394W        W84162  21.114  34.056  14.310
20395W        W84163   1.833  44.807   4.638
20396W        W84164  19.680  40.890   3.640
20397W        W84165  31.926   5.361  11.471
20398W        W84166  37.960  43.383  13.530
20399W        W84167  19.576  13.601  14.340
20400W        W84168  36.047   1.807   1.228
20401W        W84169  35.977  11.180   4.291
20402W        W84170  17.724  12.212   2.246
20403W        W84171  36.972  44.295  13.898
20404W        W84172  18.149  22.637  12.950
20405W        W84173   7.803  22.154  13.804
20406W        W84174  38.858  42.468   1.890
20407W        W84175  32.460  32.950  13.800
20408W        W84176   9.883  39.431  13.330
20409W        W84177  42.025  33.994   3.710
20410W        W84178  10.236  41.294   5.299
20411W        W84179  26.067  27.506  12.942
20412W        W84180  22.597  41.371   3.219
20413W        W84181   8.770  23.128   3.278
20414W        W84182   0.481   6.313  13.827
20415W        W84183  26.669  25.001   3.849
20416W        W84184  22.694   9.346   0.744
20417W        W84185  23.237  14.770   1.745
20418W        W84186   3.814  10.378   2.756
20419W        W84187  35.079  10.329  12.096
20420W        W84188  43.469  29.981   2.304
20421W        W84189  35.071  38.037   1.226
20422W        W84190  38.031  11.811  13.988
20423W        W84191  26.668  34.968  12.454
20424W        W84192  44.785  37.384   5.157
20425W        W84193  28.931   2.382  10.530
20426W        W84194  13.696  13.793   4.157
20427W        W84195  18.768  36.956  10.965
20428W        W84196  31.511  14.749  11.924
20429W        W84197  27.033  26.193   2.219
20430W        W84198  44.951  18.783  13.925
20431W        W84199  28.102   8.770   3.866
20432W        W84200  28.131  26.142  14.384
20433W        W84201  12.665   8.316  13.840
20434W        W84202  37.900  24.049   2.830
20435W        W84203  24.028  20.264  12.000
20436W        W84204  13.726  16.092   0.311
20437W        W84205   7.680  40.466  14.992
20438W        W84206  29.085  29.943  14.990
20439W        W84207  32.008  40.851   1.313
20440W        W84208  25.206   8.793  13.408
20441W        W84209  18.106  20.739  13.808
20442W        W84210  40.494  44.491   0.773
20443W        W84211  41.303  23.149  13.955
20444W        W84212  13.830  25.971   2.809
20445W        W84213  29.530  43.298  11.573
20446W        W84214   1.344   0.253   4.353
20447W        W84215   6.334  25.015   0.323
20448W        W84216  18.666  30.143  13.898
20449W        W84217   4.277  37.423   2.680
20450W        W84218  16.664  42.871  14.445
20451W        W84219  23.050   5.210   4.660
20452W        W84220  10.699  12.767  13.537
20453W        W84221  39.445  37.364   4.754
20454W        W84222  15.212  35.388   2.712
20455W        W84223   7.300  39.874  11.864
20456W        W84224  40.852  40.967   0.798
20457W        W84225   6.709  16.679   0.271
20458W        W84226  31.004  21.125  11.568
20459W        W84227  42.426   6.708  10.454
20460W        W84228  13.658  11.351   3.803
20461W        W84229  31.026  39.987   0.358
20462W        W84230  40.317  30.615   1.772
20463W        W84231  26.136  15.186   4.626
20464W        W84232  38.400  16.720   2.299
20465W        W84233   5.696  30.974   4.816
20466W        W84234  10.686  28.187  11.383
20467W        W84235  25.023  35.362  10.998
20468W        W84236  13.320   7.778   0.782
20469W        W84237  23.706  35.056   0.265
20470W        W84238  30.960  34.864   1.217
20471W        W84239   4.836  17.753  12.490
20472W        W84240  24.056  24.099  14.023
20473W        W84241  21.739   0.268  12.918
20474W        W84242  31.948  13.323  11.944
20475W        W84243  23.239  22.649  11.932
20476W        W84244  26.692   1.473  14.997
20477W        W84245  42.975  41.435   4.226
20478W        W84246  39.438   4.741  13.040
20479W        W84247  33.046  42.437   1.409
20480W        W84248  34.383  36.427  11.372
20481W        W84249  29.520  39.847   4.729
20482W        W84250   7.338  36.092   1.383
20483W        W84251  29.592   4.733   4.251
20484W        W84252  24.549  29.564   3.788
20485W        W84253  14.323  40.327   3.298
20486W        W84254  17.219  32.464   1.311
20487W        W84255   5.365   8.283  14.487
20488W        W84256  43.849  11.139   3.187
20489W        W84257  37.842  39.419  14.854
20490W        W84258   5.815   0.449   1.850
20491W        W84259  28.001  39.936   2.256
20492W        W84260  31.026  12.769   0.253
20493W        W84261   1.966   9.867  13.827
20494W        W84262  39.494  11.751  11.385
20495W        W84263   9.765   9.333  14.808
20496W        W84264  13.303   1.873  10.635
20497W        W84265  10.864  32.577  13.035
20498W        W84266  23.132   3.782   1.413
20499W        W84267  11.701  29.632  13.036
20500W        W84268  36.364  40.520  12.576
20501W        W84269  42.829  15.255  11.562
20502W        W84270  20.691  41.431  13.819
20503W        W84271  32.004  14.827  11.112
20504W        W84272  35.387  12.839  14.891
20505W        W84273  30.504  22.020  12.346
20506W        W84274  38.836  10.778  14.404
20507W        W84275  11.232  17.094   3.342
20508W        W84276  40.311  39.315  14.986
20509W        W84277  44.826  11.232  11.877
20510W        W84278   0.433  13.116  11.879
20511W        W84279   8.741   6.242  12.957
20512W        W84280  39.413  44.302  14.840
20513W        W84281  39.434  32.474  12.921
20514W        W84282  39.925  34.371  14.329
20515W        W84283  22.250  19.545   3.845
20516W        W84284  34.538  13.243  10.531
20517W        W84285  29.478  30.600   4.806
20518W        W84286  11.147  30.422   1.297
20519W        W84287  41.817  38.967  11.543
20520W        W84288  37.898   2.735   1.886
20521W        W84289   7.393   0.426  10.962
20522W        W84290  20.067  44.332  12.388
20523W        W84291  26.612  20.213   3.818
20524W        W84292  25.084  34.497   1.874
20525W        W84293   4.344  36.079  13.312
20526W        W84294  43.779   9.152   4.126
20527W        W84295  16.714   1.849   3.852
20528W        W84296  33.959  11.862   1.293
20529W        W84297  35.978   3.908   2.348
20530W        W84298  34.373   8.182  12.365
20531W        W84299  38.996  33.438  14.874
20532W        W84300   7.674  32.006   0.862
20533W        W84301  13.127  25.508   3.693
20534W        W84302   8.371  36.850   1.783
20535W        W84303  24.124  37.949  14.771
20536W        W84304  23.234  24.020  12.564
20537W        W84305  24.196  20.548   3.784
20538W        W84306  14.786  18.266  12.871
20539W        W84307   6.379   7.719   3.839
20540W        W84308  25.475  41.043  14.421
20541W        W84309  28.941  32.912   2.718
20542W        W84310  44.787  39.840  13.914
20543W        W84311  22.245  33.532  13.350
20544W        W84312  29.920  22.745  11.983
20545W        W84313  36.099  26.611   3.313
20546W        W84314  21.142  31.130  13.901
20547W        W84315  34.500   9.705  12.885
20548W        W84316  21.741  12.176  12.894
20549W        W84317  10.777  20.626   4.256
20550W        W84318  26.475   4.860  14.445
20551W        W84319  35.446  33.078  14.313
20552W        W84320  25.128  38.824   3.372
20553W        W84321  22.095  11.250   3.699
20554W        W84322  20.122  11.774   1.926
20555W        W84323  22.725  20.646   4.830
20556W        W84324   8.686  11.862  10.017
20557W        W84325  27.607  25.051  12.076
20558W        W84326  41.399  17.791   3.225
20559W        W84327  33.919  19.758   4.139
20560W        W84328  13.718  23.615   0.892
20561W        W84329  30.504  13.172  11.429
20562W        W84330   5.336  32.122   2.277
20563W        W84331  18.104  17.306  12.479
20564W        W84332  34.035   7.714   0.850
20565W        W84333  39.923  32.557   2.387
20566W        W84334  41.952  22.016  11.863
20567W        W84335  34.953  27.446   2.371
20568W        W84336  38.324  33.011   4.237
20569W        W84337  29.046   3.287   2.405
20570W        W84338  22.138  22.720  14.779
20571W        W84339  20.677  14.760   4.143
20572W        W84340  22.550  17.173   2.846
20573W        W84341  33.880  18.666  12.832
20574W        W84342  29.566  10.384  12.476
20575W        W84343   4.823  42.517   2.709
20576W        W84344   4.816   3.316  12.511
20577W        W84345  30.544  27.074   2.843
20578W        W84346  18.752  36.984   3.233
20579W        W84347  34.435  11.790   2.319
20580W        W84348  16.153  32.072   3.857
20581W        W84349  23.528  42.282  14.967
20582W        W84350   0.840  18.681   0.877
20583W        W84351  22.150  40.481   0.944
20584W        W84352  20.699  41.839   1.906
20585W        W84353  30.059  22.109  13.932
20586W        W84354  39.874  36.097  13.941
20587W        W84355  13.713  17.279  14.012
20588W        W84356  20.581  13.176  11.481
20589W        W84357  19.691   5.878  12.421
20590W        W84358  36.954   6.427   1.776
20591W        W84359  22.134  39.447  12.551
20592W        W84360  41.830  29.069  11.376
20593W        W84361  36.009  13.743  10.942
20594W        W84362   3.737  27.997   4.668
20595W        W84363  11.853  43.271   1.799
20596W        W84364  22.238   0.425  11.481
20597W        W84365  25.041  10.243   3.276
20598W        W84366   7.797  41.945  10.478
20599W        W84367  21.182   7.911  11.449
20600W        W84368  31.939   8.718  12.895
20601W        W84369   9.251  12.256  14.959
20602W        W84370  20.113  22.567  12.510
20603W        W84371  27.659  15.792   1.295
20604W        W84372  12.184   1.731  12.567
20605W        W84373  18.687   7.391  13.951
20606W        W84374  14.313  22.561  14.289
20607W        W84375  21.589   2.387  12.026
20608W        W84376  43.479   0.455  14.415
20609W        W84377  34.509  20.763  11.565
20610W        W84378   1.782  21.035   2.886
20611W        W84379  28.169  40.041  10.507
20612W        W84380  20.217  23.611   0.860
20613W        W84381  19.141  20.669  13.868
20614W        W84382  28.461  27.029  12.454
20615W        W84383  15.591  43.908   1.699
20616W        W84384   7.186  14.751   2.418
20617W        W84385  12.286  15.246  11.559
20618W        W84386  40.943  24.206   0.377
20619W        W84387   3.216  21.530  10.917
20620W        W84388  11.739  40.819   4.830
20621W        W84389  20.539  25.692   0.905
20622W        W84390   2.291  35.865  14.984
20623W        W84391  30.569   5.693  11.878
20624W        W84392  31.008  21.188   2.808
20625W        W84393   2.464  30.433  13.343
20626W        W84394  38.879  25.014  14.407
20627W        W84395   0.946  43.832  11.007
20628W        W84396   8.162   3.896   3.783
20629W        W84397  36.842  39.977  13.903
20630W        W84398  27.078   0.797  11.441
20631W        W84399  40.345  39.437   3.192
20632W        W84400   3.241  11.673   1.331
20633W        W84401  26.110  10.745   4.823
20634W        W84402  43.511  40.026   3.656
20635W        W84403  39.377   2.899  12.016
20636W        W84404   2.966  32.546   1.743
20637W        W84405  40.910   7.735  10.589
20638W        W84406  36.964   1.337  11.477
20639W        W84407  24.660  15.224   2.848
20640W        W84408  25.020  40.854   1.257
20641W        W84409  39.890   8.301   3.180
20642W        W84410  39.896  27.085   1.761
20643W        W84411  25.974  28.489  14.882
20644W        W84412  16.215  16.286   0.966
20645W        W84413   6.352   8.326   1.266
20646W        W84414  24.171   6.296   3.307
20647W        W84415   3.815   2.226   2.260
20648W        W84416  22.166  26.109   3.219
20649W        W84417  34.431  19.633   0.879
20650W        W84418   1.358  38.502  11.865
20651W        W84419  24.620  32.410   0.749
20652W        W84420  23.584   8.170   4.611
20653W        W84421  37.497   8.885   2.886
20654W        W84422  21.643  42.815   4.150
20655W        W84423  16.278  37.958   2.845
20656W        W84424  15.162  29.085   1.393
20657W        W84425   5.766  27.459   3.716
20658W        W84426  11.142  29.570  10.950
20659W        W84427  29.528  27.556   4.717
20660W        W84428   2.463  17.684   2.865
20661W        W84429  28.561  23.195  13.004
20662W        W84430  13.801  38.411  12.387
20663W        W84431  35.444  21.551   3.815
20664W        W84432   2.306  44.828   0.452
20665W        W84433  41.850  13.672   0.849
20666W        W84434  41.850  40.349   0.260
20667W        W84435  13.114  23.073   2.221
20668W        W84436  10.743  26.133  13.443
20669W        W84437  26.131  43.465  10.480
20670W        W84438  27.006   4.210   4.802
20671W        W84439   3.358  18.576   3.344
20672W        W84440  18.154  21.133  14.458
20673W        W84441  36.037  17.591   4.834
20674W        W84442  18.763  16.149  12.082
20675W        W84443   8.317   1.410  13.874
20676W        W84444  36.415   5.264   4.292
20677W        W84445  39.318  15.641  11.922
20678W        W84446  44.346  37.551  14.322
20679W        W84447  28.109   4.816  10.992
20680W        W84448  25.202  22.509   2.771
20681W        W84449   7.738  26.493   2.877
20682W        W84450   7.812   0.943  11.941
20683W        W84451  24.679  21.736   1.886
20684W        W84452  39.853  27.666  13.472
20685W        W84453  18.052   6.761   1.924
20686W        W84454  31.101   1.972   1.922
20687W        W84455  40.869  18.075   3.644
20688W        W84456   8.668  27.147  11.537
20689W        W84457  32.927  37.905   4.162
20690W        W84458   4.231   3.827  12.969
20691W        W84459  19.545   3.216  14.452
20692W        W84460   9.827  24.999   0.934
20693W        W84461  20.162  10.276   2.691
20694W        W84462  37.350  41.299  14.935
20695W        W84463  23.182   7.263   2.324
20696W        W84464  26.159  11.297  11.387
20697W        W84465  12.647  23.634   2.325
20698W        W84466  22.114  35.873   3.719
20699W        W84467   6.793   8.329   1.441
20700W        W84468   0.880  39.382   4.323
20701W        W84469   8.751  29.618   3.849
20702W        W84470  34.435  34.527  11.091
20703W        W84471  13.228  32.111  14.015
20704W        W84472   6.208  24.106   1.253
20705W        W84473  13.233  20.257   3.381
20706W        W84474   0.855  17.761   3.716
20707W        W84475  12.855  15.237  11.016
20708W        W84476  15.116   1.305   0.937
20709W        W84477  27.663  30.056   3.820
20710W        W84478  11.262  14.203  12.865
20711W        W84479  18.738  20.043  11.025
20712W        W84480  11.850  23.137   1.827
20713W        W84481  31.631  33.538   0.271
20714W        W84482  25.098  33.874  11.469
20715W        W84483  18.748   5.826  14.509
20716W        W84484  44.340  28.458  10.982
20717W        W84485  35.495  44.868  14.791
20718W        W84486  10.664  25.070  12.366
20719W        W84487   9.181  30.145  10.922
20720W        W84488  16.274  44.887  14.944
20721W        W84489  15.794  10.306  12.892
20722W        W84490  27.989  15.137  10.457
20723W        W84491  19.680  44.503  13.520
20724W        W84492  30.483   5.783  14.374
20725W        W84493  26.016  30.628   3.197
20726W        W84494  29.595  40.917  14.801
20727W        W84495  34.949  38.376   1.409
20728W        W84496  41.001  13.320  12.463
20729W        W84497   0.419   4.931  12.339
20730W        W84498   3.257  36.892   2.223
20731W        W84499   1.361  42.874   1.735
20732W        W84500  27.483  13.279   1.919
20733W        W84501   7.738   7.211  12.469
20734W        W84502  29.596  33.518   3.254
20735W        W84503  21.667  12.700  14.970
20736W        W84504  24.083  32.009   2.329
20737W        W84505  27.511  26.541   1.821
20738W        W84506  39.435   1.457  10.430
20739W        W84507   7.704  40.410   2.411
20740W        W84508  21.129  22.701  13.357
20741W        W84509  22.023  17.149   1.786
20742W        W84510  32.513  13.722  14.412
20743W        W84511   7.757  42.382   4.223
20744W        W84512  20.622  30.470   3.280
20745W        W84513  12.166   8.187  13.854
20746W        W84514  28.547  12.236  14.863
20747W        W84515  30.000  16.212  12.510
20748W        W84516  30.948  17.558   1.854
20749W        W84517  22.092   6.913  11.506
20750W        W84518  28.961   5.226   1.876
20751W        W84519  31.130  12.222   0.405
20752W        W84520  35.058   6.291   1.887
20753W        W84521  39.860  16.786  12.433
20754W        W84522  17.129  37.058  11.527
20755W        W84523  25.483  14.253  13.410
20756W        W84524   1.936  37.559  12.460
20757W        W84525  25.976  22.201  14.324
20758W        W84526  24.054  27.488  13.394
20759W        W84527  18.130  22.641  14.018
20760W        W84528   2.467   4.374   4.118
20761W        W84529  17.126   9.683  14.483
20762W        W84530  28.930   6.312  14.356
20763W        W84531  20.143  38.925  14.866
20764W        W84532  37.529  10.795  12.368
20765W        W84533  32.544   7.674  12.538
20766W        W84534  34.374   8.332   1.246
20767W        W84535   2.947  33.108   4.628
20768W        W84536  15.815   4.919   3.717
20769W        W84537   1.736  23.652   2.898
20770W        W84538  17.269  34.595   4.670
20771W        W84539   6.316  31.982   1.928
20772W        W84540  44.821  29.597   2.880
20773W        W84541  19.680  12.785   2.413
20774W        W84542  36.063  21.611  10.524
20775W        W84543  14.726  30.550   4.349
20776W        W84544   1.358  17.680  12.048
20777W        W84545  23.544  36.074  13.436
20778W        W84546  21.209  19.623  11.434
20779W        W84547  44.001  15.142   4.266
20780W        W84548  44.997  17.799  13.056
20781W        W84549  18.553  30.415  12.956
20782W        W84550  16.142  12.149  10.586
20783W        W84551  38.540  23.636  10.612
20784W        W84552  44.299   7.370   4.146
20785W        W84553  31.467  30.651   0.884
20786W        W84554  42.934   3.885  14.389
20787W        W84555  15.256  41.923   2.845
20788W        W84556  27.523   3.321   4.800
20789W        W84557  11.753  17.182   4.598
20790W        W84558  33.463  30.944  12.012
20791W        W84559  18.186   4.751   3.244
20792W        W84560  24.569  18.141   4.224
20793W        W84561  18.604  12.692  10.509
20794W        W84562   2.472   4.701   4.792
20795W        W84563   2.949  33.467  14.405
20796W        W84564  21.185  31.607   2.893
20797W        W84565   0.945  17.137  12.531
20798W        W84566   5.312  24.998   3.233
20799W        W84567  28.049  18.061   2.340
20800W        W84568  18.686  33.969   5.149
20801W        W84569  24.626  10.250  11.955
20802W        W84570  34.005  16.745   3.212
20803W        W84571  25.607  19.206  10.595
20804W        W84572  41.295  16.568   4.696
20805W        W84573  13.647  41.476  10.411
20806W        W84574   2.877  25.641  12.014
20807W        W84575   5.216  38.569  11.043
20808W        W84576  39.058  30.496   2.183
20809W        W84577   0.434  42.786   0.300
20810W        W84578  26.512  39.819  10.643
20811W        W84579  39.554   3.254  11.434
20812W        W84580  17.740   6.333  12.354
20813W        W84581   3.848  34.040   0.762
20814W        W84582  38.866   3.345   3.377
20815W        W84583   4.352  34.450  12.532
20816W        W84584   7.417  35.043  13.491
20817W        W84585  33.568  27.143   4.243
20818W        W84586  33.508  32.951  10.574
20819W        W84587  43.361  36.482  13.502
20820W        W84588  40.826  27.048  11.909
20821W        W84589  28.973  37.995  14.963
20822W        W84590   7.838  11.860   3.147
20823W        W84591  37.479  24.119   0.273
20824W        W84592  35.000  19.152  11.013
20825W        W84593  18.083  25.177  10.459
20826W        W84594  17.111  39.940  11.511
20827W        W84595  17.239  29.493   3.159
20828W        W84596   2.937  22.074  11.374
20829W        W84597  18.083  27.631   4.824
20830W        W84598   7.732  15.310  12.409
20831W        W84599  29.476  16.598   9.925
20832W        W84600   3.252  23.548  14.352
20833W        W84601  26.503   0.299  14.438
20834W        W84602  22.146  33.457   2.398
20835W        W84603  30.616  29.641   0.845
20836W        W84604  14.608  15.823   3.346
20837W        W84605  22.195  23.613   2.883
20838W        W84606  43.275  31.483  12.086
20839W        W84607  16.176  25.492  11.433
20840W        W84608  34.985  16.709   0.247
20841W        W84609  30.125   8.848  14.509
20842W        W84610  25.546  20.718  10.523
20843W        W84611  25.503  18.677   2.287
20844W        W84612   9.350  24.063  11.388
20845W        W84613   7.910   4.272  12.092
20846W        W84614  37.376  29.102  11.601
20847W        W84615  13.726  39.942  14.282
20848W        W84616  17.780   8.850  14.796
20849W        W84617  42.519  44.765  13.410
20850W        W84618  34.050  27.532  14.832
20851W        W84619  16.082  28.950   1.318
20852W        W84620  29.132  33.493   3.684
20853W        W84621  12.301  42.944   3.718
20854W        W84622   0.879  31.922  10.926
20855W        W84623  38.956  29.643   5.663
20856W        W84624  40.515  37.475   5.254
20857W        W84625   4.921  25.124  11.419
20858W        W84626  12.356  13.239   0.273
20859W        W84627  19.680  35.552   3.162
20860W        W84628  23.113   0.788   4.734
20861W        W84629   1.942  12.660   3.250
20862W        W84630   0.919   5.813  14.323
20863W        W84631  14.326  40.415  13.377
20864W        W84632  26.663  20.089  14.957
20865W        W84633  42.522  42.873  11.980
20866W        W84634  40.361  43.874   4.138
20867W        W84635  26.488  18.670   3.798
20868W        W84636  29.994  31.122  11.385
20869W        W84637  35.408  40.466   0.399
20870W        W84638   5.773  40.435  12.391
20871W        W84639  38.986  27.071  14.412
20872W        W84640   2.264  10.155   4.147
20873W        W84641  21.250   5.904   0.367
20874W        W84642  15.820  13.622   3.738
20875W        W84643  23.516   5.360  13.356
20876W        W84644  20.642  38.393   1.236
20877W        W84645  37.451  21.721   4.776
20878W        W84646   6.738  39.828  11.486
20879W        W84647  15.636  23.052  13.339
20880W        W84648   1.303  14.595   1.431
20881W        W84649   2.904  42.833   4.277
20882W        W84650  16.260  17.094  11.048
20883W        W84651  35.458  26.111  13.000
20884W        W84652  29.449  19.767   0.436
20885W        W84653   1.887  20.131   2.242
20886W        W84654  41.829  17.259   1.926
20887W        W84655  25.202  32.412  12.964
20888W        W84656  15.587  10.165   1.395
20889W        W84657  29.967  18.759   5.289
20890W        W84658  41.383  23.494  12.987
20891W        W84659  11.753  23.032   4.179
20892W        W84660  11.857  22.506   0.481
20893W        W84661  40.484  34.021   0.759
20894W        W84662   0.402  31.951   0.815
20895W        W84663  20.525  41.869   2.867
20896W        W84664  34.465  33.885  13.955
20897W        W84665   3.323  31.918   3.766
20898W        W84666   2.455  35.496   3.796
20899W        W84667  28.443  13.633  14.894
20900W        W84668  38.397   4.371  10.475
20901W        W84669   7.244   0.447   2.283
20902W        W84670   8.218  12.287   3.220
20903W        W84671  20.037  10.671  13.050
20904W        W84672  17.618  26.679   2.355
20905W        W84673  29.020  41.003  14.881
20906W        W84674  31.520  21.524   3.867
20907W        W84675  24.223  29.512  14.882
20908W        W84676  32.969   5.355  13.539
20909W        W84677  38.838  44.335  10.421
20910W        W84678  13.601  29.033   1.855
20911W        W84679   6.381  33.565   4.270
20912W        W84680  25.574   9.889  11.058
20913W        W84681   1.964  38.547  14.025
20914W        W84682  41.475  12.207  10.607
20915W        W84683  30.465   9.718   4.267
20916W        W84684  40.920  14.817   4.836
20917W        W84685  38.364  38.509   2.862
20918W        W84686   8.716  42.450  10.448
20919W        W84687  21.729   7.295  11.004
20920W        W84688  28.998  12.218  14.288
20921W        W84689  24.024  23.116  12.559
20922W        W84690  42.506  23.647   3.733
20923W        W84691  39.908  36.522  12.917
20924W        W84692  30.524  39.891   3.759
20925W        W84693   2.733  41.408   4.125
20926W        W84694   9.266  42.451  13.852
20927W        W84695   1.469  31.403  14.472
20928W        W84696   9.162  38.462  14.327
20929W        W84697  10.158  42.524  11.516
20930W        W84698   2.844   6.424  11.973
20931W        W84699  43.302  17.245   2.730
20932W        W84700  11.350  10.708   2.370
20933W        W84701  38.548  34.073   2.815
20934W        W84702  30.435  35.090  12.063
20935W        W84703  26.467  19.094  13.824
20936W        W84704   4.410  10.869  13.824
20937W        W84705  21.730  30.463  10.450
20938W        W84706  28.019  26.175   3.228
20939W        W84707  14.798  41.420  14.820
20940W        W84708  27.563  43.897   2.706
20941W        W84709  37.993  11.296  11.948
20942W        W84710  12.633   3.282  14.966
20943W        W84711  26.190   8.393   3.842
20944W        W84712  19.706  39.950   2.276
20945W        W84713   2.329  31.040  11.068
20946W        W84714   4.216  44.478  11.108
20947W        W84715   8.725  42.303   1.895
20948W        W84716  39.336  39.544   2.352
20949W        W84717   9.372  35.515  11.034
20950W        W84718   1.911  10.738   0.835
20951W        W84719  20.577  11.780   1.406
20952W        W84720  42.500  14.797   3.754
20953W        W84721  33.026  44.763  14.837
20954W        W84722   4.413   9.858  12.056
20955W        W84723  39.065   0.394  13.863
20956W        W84724  15.250  27.563  12.911
20957W        W84725  30.074  29.582  10.608
20958W        W84726  15.753   3.240   4.795
20959W        W84727  20.559  21.186   0.746
20960W        W84728  20.528   1.454   4.618
20961W        W84729  42.972  44.936   4.214
20962W        W84730   2.441   3.426  14.477
20963W        W84731   4.834  29.658  14.801
20964W        W84732  30.448  22.592  14.419
20965W        W84733  27.944   7.716  12.911
20966W        W84734  27.162   1.948   3.687
20967W        W84735  22.044  21.082  10.471
20968W        W84736  33.546  20.726  13.813
20969W        W84737  18.732  24.599  11.575
20970W        W84738   5.839  20.658  13.490
20971W        W84739  26.087  36.051  10.058
20972W        W84740   0.788  36.504   1.350
20973W        W84741  44.813  26.537   0.856
20974W        W84742  44.304  11.336  14.294
20975W        W84743  20.074   1.324  13.820
20976W        W84744  22.516  10.855  13.877
20977W        W84745   0.390   5.326   1.832
20978W        W84746  37.035   5.747  14.821
20979W        W84747  28.019  23.580  12.903
20980W        W84748  15.185  39.408   3.751
20981W        W84749  18.601  16.708   9.966
20982W        W84750  29.619  32.009   1.395
20983W        W84751  39.393  24.717   1.311
20984W        W84752   8.823  38.908   2.266
20985W        W84753  40.949  15.608   2.748
20986W        W84754   2.273  37.572   4.663
20987W        W84755   7.866  42.832   3.655
20988W        W84756  43.935   1.834   2.813
20989W        W84757  11.712  28.541   3.229
20990W        W84758  23.723  38.566  10.640
20991W        W84759  22.620   4.931  14.822
20992W        W84760  12.734  43.332   2.694
20993W        W84761  44.309  36.036  14.278
20994W        W84762   8.731  16.078   4.666
20995W        W84763  27.007  36.003   4.685
20996W        W84764  11.229  18.292  12.041
20997W        W84765  23.668  26.178   0.244
20998W        W84766   2.965  14.629   3.158
20999W        W84767  29.968  36.993   1.422
21000W        W84768  25.165  28.569   0.801
21001W        W84769   5.340  21.248  10.147
21002W        W84770  28.165  30.598  12.432
21003W        W84771   8.800  35.495   4.636
21004W        W84772   9.256   2.844   2.284
21005W        W84773   9.303   3.825  14.835
21006W        W84774   7.875   7.835   2.352
21007W        W84775  27.578  42.956  12.560
21008W        W84776  14.204  24.512   1.720
21009W        W84777  25.647   7.195  12.484
21010W        W84778  27.972   8.709  12.569
21011W        W84779   8.281  28.668  12.976
21012W        W84780  17.213  28.027   1.836
21013W        W84781  33.452  11.205   0.248
21014W        W84782  10.349  17.253   0.469
21015W        W84783  43.359  30.595   4.220
21016W        W84784  28.558  14.173  14.515
21017W        W84785  15.657  35.070   1.440
21018W        W84786   6.749  11.829   2.713
21019W        W84787  15.740   5.214  12.490
21020W        W84788  17.206  23.659   0.318
21021W        W84789  25.713  41.804   4.152
21022W        W84790  36.869  31.481   4.699
21023W        W84791  12.218  20.270  12.943
21024W        W84792  21.624   6.806  10.446
21025W        W84793  44.998  25.984  14.432
21026W        W84794  31.149  40.482   0.469
21027W        W84795  17.562   7.229   0.948
21028W        W84796  35.496  43.393  12.051
21029W        W84797  33.426   4.208  13.986
21030W        W84798   2.753  44.280  11.425
21031W        W84799  22.712  19.184   0.415
21032W        W84800  17.702  20.697   4.238
21033W        W84801  11.753   1.263   1.326
21034W        W84802  36.477  44.271  13.874
21035W        W84803  25.025  29.923   4.210
21036W        W84804  40.366  29.062   1.279
21037W        W84805   2.914  29.928   0.410
21038W        W84806  16.683  14.220  13.325
21039W        W84807   3.844  15.810  10.483
21040W        W84808  24.165  44.480   1.742
21041W        W84809  33.391  37.066   2.767
21042W        W84810  27.620  34.505   9.638
21043W        W84811  40.356  11.325   1.885
21044W        W84812  39.329   7.325   3.197
21045W        W84813  33.894  36.567   4.729
21046W        W84814   7.822  35.545  10.434
21047W        W84815  24.613   3.288   0.366
21048W        W84816  32.110  26.497   1.440
21049W        W84817  27.071   1.766   0.426
21050W        W84818  37.831   4.703  11.008
21051W        W84819   4.933  21.684   0.921
21052W        W84820  39.907  10.816   3.802
21053W        W84821   1.779   4.763  14.782
21054W        W84822  16.226   0.926   2.337
21055W        W84823  36.373   4.710  12.050
21056W        W84824  21.134  22.725   2.823
21057W        W84825  27.037  14.255  11.966
21058W        W84826   6.729  35.422  14.020
21059W        W84827  37.910  36.074   4.341
21060W        W84828  12.841  40.956  14.883
21061W        W84829  36.989  24.478   2.203
21062W        W84830  18.592   3.755   3.191
21063W        W84831  29.989  32.445   4.682
21064W        W84832  19.106  19.088  11.103
21065W        W84833  33.479  34.539  11.569
21066W        W84834  42.284  40.399   3.680
21067W        W84835   3.860   6.266   2.296
21068W        W84836  30.589  17.219  12.069
21069W        W84837  26.958  35.055   9.511
21070W        W84838  11.634  33.506   5.152
21071W        W84839  16.178  14.270  12.430
21072W        W84840   7.394  36.389   2.289
21073W        W84841  40.982  24.988  14.763
21074W        W84842  35.601  14.102   2.248
21075W        W84843  14.678  11.154  13.530
21076W        W84844   8.764  33.078   3.354
21077W        W84845  19.045  14.674  11.561
21078W        W84846  21.190  27.483   4.307
21079W        W84847  29.998   8.892  13.817
21080W        W84848   0.315  38.919   0.747
21081W        W84849  19.160  40.305  14.850
21082W        W84850  22.547  31.575  14.439
21083W        W84851  11.267  20.687  12.035
21084W        W84852  13.690  27.673  13.547
21085W        W84853  14.654  42.437   4.307
21086W        W84854  13.778  39.904   3.310
21087W        W84855  19.189  21.728   4.796
21088W        W84856  23.703  24.061   0.381
21089W        W84857  36.926  34.443  12.983
21090W        W84858  14.655  39.884   1.874
21091W        W84859  23.546  31.055  10.948
21092W        W84860  35.454  34.578  11.889
21093W        W84861  19.255   9.222   2.867
21094W        W84862   4.225  35.001   2.319
21095W        W84863   3.789  15.655   1.289
21096W        W84864  16.270  19.640   9.562
21097W        W84865  44.488   6.874  12.888
21098W        W84866  25.625   6.407  11.993
21099W        W84867   6.792  33.119   4.615
21100W        W84868  41.342  31.609  13.881
21101W        W84869  23.577  35.453   4.623
21102W        W84870   0.759  15.624   3.310
21103W        W84871   0.868   8.234   1.784
21104W        W84872  37.438  36.371  10.908
21105W        W84873  17.143  43.330   1.935
21106W        W84874  33.555   0.882   1.836
21107W        W84875  28.555  34.904  13.501
21108W        W84876  38.488   4.322  11.575
21109W        W84877   0.402  12.151  11.009
21110W        W84878  15.763  33.613   0.373
21111W        W84879  38.965   6.873   0.904
21112W        W84880  19.580  44.760   0.908
21113W        W84881  16.637  33.119  11.928
21114W        W84882  28.148  26.128  10.476
21115W        W84883  16.240  24.568  12.934
21116W        W84884  34.018  32.939  12.572
21117W        W84885  44.863   7.188   0.772
21118W        W84886  32.621  18.666   1.908
21119W        W84887   2.933  35.520  13.920
21120W        W84888  23.108   7.682  11.577
21121W        W84889   8.714  12.679   4.798
21122W        W84890  18.091  18.264  14.811
21123W        W84891  25.188   0.819  14.931
21124W        W84892  17.148   5.811   4.168
21125W        W84893   2.372  34.919   4.774
21126W        W84894  10.158  41.339   0.264
21127W        W84895  19.180   5.712  13.370
21128W        W84896  33.624  39.038   2.809
21129W        W84897   7.268  40.432  12.548
21130W        W84898  16.773  26.952   0.938
21131W        W84899  21.608  23.216  11.995
21132W        W84900  37.476   1.353   2.695
21133W        W84901   9.201   1.467   3.664
21134W        W84902   1.429  31.431   1.225
21135W        W84903  40.388  41.406  14.846
21136W        W84904  11.819  29.138   4.725
21137W        W84905  30.642  34.033   3.804
21138W        W84906   4.439  22.579  13.518
21139W        W84907  27.582   7.304   4.825
21140W        W84908  41.882  12.362  12.544
21141W        W84909   9.150  10.211  11.395
21142W        W84910   4.706  32.608  13.859
21143W        W84911  15.084  22.054  13.885
21144W        W84912   1.413  33.576  11.511
21145W        W84913  11.348  28.648   0.878
21146W        W84914  40.824   5.903  10.952
21147W        W84915  22.717  40.419   0.333
21148W        W84916  30.940   4.846   2.218
21149W        W84917   9.182  10.736   1.928
21150W        W84918   5.810  41.523   2.290
21151W        W84919  15.696  27.964   0.302
21152W        W84920  12.296  34.494   3.808
21153W        W84921   4.879  31.627  10.589
21154W        W84922  15.666  43.505  11.568
21155W        W84923  10.782  40.448   1.758
21156W        W84924  23.585  18.208  10.509
21157W        W84925  44.397  42.352   0.791
21158W        W84926  15.625  26.990   5.113
21159W        W84927   1.926  13.217  11.053
21160W        W84928  23.231   2.277   4.713
21161W        W84929  31.481  17.071   1.908
21162W        W84930  12.146  27.493  13.802
21163W        W84931  10.663  41.359   1.443
21164W        W84932  17.129  21.569  10.029
21165W        W84933  38.838  32.017   2.188
21166W        W84934   0.975  35.511   1.916
21167W        W84935  15.686  29.101   2.247
21168W        W84936  34.012  26.504   3.308
21169W        W84937  35.527  14.260   4.655
21170W        W84938  35.909  17.278  12.872
21171W        W84939  27.069  24.217   4.696
21172W        W84940  20.200  39.053   3.754
21173W        W84941   4.276   5.286   3.735
21174W        W84942  20.674  10.224   1.274
21175W        W84943   1.953  31.964   0.474
21176W        W84944   7.829  23.715  11.067
21177W        W84945  13.145  22.719   3.632
21178W        W84946  16.309  30.577   2.795
21179W        W84947  41.392   2.860   3.363
21180W        W84948  36.484  33.536  12.978
21181W        W84949   9.741  31.562  13.981
21182W        W84950  28.491   7.209  11.970
21183W        W84951  38.859  11.693  13.460
21184W        W84952   5.282  39.395  12.832
21185W        W84953   1.787  13.772  14.944
21186W        W84954  23.727  37.913   3.683
21187W        W84955  29.122  42.875   0.332
21188W        W84956  17.797   1.835   1.264
21189W        W84957  14.156  28.580   3.164
21190W        W84958  38.426  19.204   4.625
21191W        W84959  25.562  42.309  14.964
21192W        W84960  13.205   2.931  11.058
21193W        W84961   2.964  26.068  14.414
21194W        W84962   7.339   3.853  14.767
21195W        W84963  14.113  43.370   4.828
21196W        W84964  38.955  43.504   4.341
21197W        W84965  36.056   2.848  11.106
21198W        W84966  28.047   0.970   3.158
21199W        W84967  15.158  16.272   2.241
21200W        W84968  43.987   6.338  14.015
21201W        W84969   0.474  39.934  13.048
21202W        W84970  18.682  20.100   5.137
21203W        W84971  21.232  29.095  14.988
21204W        W84972  35.395  24.561  10.459
21205W        W84973  35.960  28.016   1.300
21206W        W84974   7.741  34.936  14.025
21207W        W84975  24.673   9.790  12.449
21208W        W84976  24.228  11.331  12.855
21209W        W84977  40.961  17.085   0.396
21210W        W84978  17.162   5.283   2.401
21211W        W84979   3.415  42.409  11.502
21212W        W84980  23.027  27.606   2.780
21213W        W84981   3.442   0.435  13.486
21214W        W84982  22.668  39.435   4.826
21215W        W84983  25.488  18.154   2.210
21216W        W84984   6.411  41.883   1.855
21217W        W84985  13.120  24.216   4.660
21218W        W84986  41.953  23.568  11.591
21219W        W84987   7.284  44.793  12.392
21220W        W84988   3.952  33.520  12.910
21221W        W84989  20.546  37.998   0.333
21222W        W84990  36.427  21.585   3.269
21223W        W84991  40.357  37.484   1.276
21224W        W84992   2.226  40.941  11.501
21225W        W84993  39.036  16.209   0.250
21226W        W84994  21.554  11.867   1.229
21227W        W84995  38.350  33.545   3.316
21228W        W84996  44.759  43.362  11.856
21229W        W84997   9.229  24.121  14.411
21230W        W84998   4.344  25.017   3.795
21231W        W84999  44.906   8.362   4.166
21232W        W85000  44.435  29.033  13.480
21233W        W85001  36.561  15.760  14.970
21234W        W85002  18.730  13.107  14.873
21235W        W85003  39.428   2.929   0.907
21236W        W85004  36.937  42.987  11.497
21237W        W85005  35.513  12.719  12.443
21238W        W85006  29.035  35.871  13.969
21239W        W85007  14.123   0.842   1.836
21240W        W85008  38.368  26.189   3.343
21241W        W85009  35.572  19.126   0.257
21242W        W85010   8.307   6.225  11.984
21243W        W85011  26.165  20.184  12.087
21244W        W85012   1.334  19.771   2.676
21245W        W85013   1.753   7.351   2.684
21246W        W85014   1.372  25.563  11.102
21247W        W85015  25.060   5.856  11.399
21248W        W85016  34.924  19.080  11.477
21249W        W85017   8.750  11.182   4.798
21250W        W85018   0.485   0.414  14.985
21251W        W85019  13.657   5.839  11.884
21252W        W85020  31.478  27.957  12.851
21253W        W85021   6.222   7.860   1.866
21254W        W85022  16.634   8.829   4.663
21255W        W85023  36.557  10.254  12.906
21256W        W85024  38.929   8.827  10.053
21257W        W85025  43.957  33.899   3.866
21258W        W85026   0.462  32.637   2.769
21259W        W85027   9.234  33.088   4.342
21260W        W85028   2.889  29.075  14.377
21261W        W85029   0.252  38.051  12.961
21262W        W85030  29.945   4.886  14.970
21263W        W85031  17.162  42.417   1.240
21264W        W85032  38.015  23.152  10.564
21265W        W85033  41.970   9.350  11.869
21266W        W85034  44.390  18.092   0.910
21267W        W85035  28.524  13.277  11.594
21268W        W85036  20.564   0.416   1.782
21269W        W85037   3.884  44.847  10.900
21270W        W85038  28.974  27.520  10.553
21271W        W85039  13.823   8.884  13.538
21272W        W85040  42.446  10.698  13.515
21273W        W85041  18.096  23.203  10.485
21274W        W85042  11.294   9.645  10.960
21275W        W85043  39.402  10.198   2.201
21276W        W85044  20.526  37.045   1.439
21277W        W85045  11.239  19.080   2.868
21278W        W85046  25.588  37.908   5.213
21279W        W85047  28.655  36.030  13.932
21280W        W85048  18.289   0.858  13.376
21281W        W85049  27.148  23.724  10.903
21282W        W85050   7.361  26.505  10.511
21283W        W85051  23.717  18.747  13.980
21284W        W85052  43.003  27.683  14.801
21285W        W85053   0.442   9.818   1.810
21286W        W85054  13.708   3.322  12.921
21287W        W85055   1.778  26.049   2.379
21288W        W85056  27.140  39.378   4.163
21289W        W85057  40.999  33.079  10.455
21290W        W85058  13.717   8.816  11.450
21291W        W85059   7.741  36.545  12.397
21292W        W85060  41.917   7.180   2.737
21293W        W85061  14.707  13.312   3.201
21294W        W85062  14.291  12.816   1.700
21295W        W85063   8.296  28.535  12.070
21296W        W85064  32.591  26.604   0.272
21297W        W85065   9.180  36.470   2.308
21298W        W85066  32.027   4.243  11.537
21299W        W85067   0.762   3.721   4.740
21300W        W85068  43.823   3.779   1.210
21301W        W85069   2.243   0.474  14.445
21302W        W85070  38.391  41.873  13.312
21303W        W85071  27.180  31.453   4.769
21304W        W85072   8.254  11.324  11.558
21305W        W85073  16.275   6.288   1.932
21306W        W85074  33.902  26.125  11.889
21307W        W85075  23.190   8.180   1.377
21308W        W85076   6.749   9.162   1.431
21309W        W85077  40.327  20.569   3.726
21310W        W85078  22.545   3.236   3.842
21311W        W85079  44.479  24.592  12.894
21312W        W85080  27.641  17.779   2.186
21313W        W85081  16.776   4.785   0.401
21314W        W85082  38.395  41.806  12.529
21315W        W85083   1.850   7.849   2.268
21316W        W85084  16.285   1.465  10.913
21317W        W85085   9.193  39.821  11.893
21318W        W85086  30.537   2.298   2.690
21319W        W85087   0.831  30.161   2.413
21320W        W85088  29.026  13.734  13.060
21321W        W85089  27.098  13.839   4.117
21322W        W85090  19.588  15.158   0.477
21323W        W85091  24.601  43.443   3.166
21324W        W85092  11.790  34.978   1.297
21325W        W85093   5.877   0.324  14.310
21326W        W85094  42.821   5.690   3.748
21327W        W85095  15.678  36.401   1.381
21328W        W85096  25.695  22.052   4.279
21329W        W85097  19.630  38.561  14.435
21330W        W85098  41.980   5.713   2.899
21331W        W85099  31.569  43.802  10.507
21332W        W85100  19.579  20.625  11.582
21333W        W85101  43.856   1.384  11.585
21334W        W85102   1.769   3.861  11.906
21335W        W85103  27.579  12.206   4.134
21336W        W85104   4.397  10.796   3.360
21337W        W85105  10.158  31.548  14.281
21338W        W85106  30.417  28.534  11.455
21339W        W85107   6.324  37.401  11.076
21340W        W85108   0.916  35.375   3.295
21341W        W85109   0.907   2.774  12.039
21342W        W85110   8.658  14.269  13.934
21343W        W85111  34.971  17.635   3.715
21344W        W85112  13.130  17.657   4.126
21345W        W85113  18.158  22.161  11.055
21346W        W85114  18.063  31.640  14.916
21347W        W85115  36.979  20.080   1.308
21348W        W85116  12.289   5.874  12.011
21349W        W85117   6.360  16.585   3.756
21350W        W85118  16.215  15.168  13.438
21351W        W85119  44.497  33.005   1.363
21352W        W85120  18.154  43.009  13.945
21353W        W85121   6.392  15.721  13.018
21354W        W85122  41.516   2.447   0.920
21355W        W85123  27.111  41.973  11.444
21356W        W85124  31.615  35.925   1.332
21357W        W85125  17.720   3.833  12.522
21358W        W85126  37.336  28.529   0.915
21359W        W85127   1.965   7.187   0.380
21360W        W85128   1.819  35.951   1.934
21361W        W85129  32.505  29.008  10.497
21362W        W85130  13.765  40.894  12.962
21363W        W85131  23.136  29.542   4.606
21364W        W85132  31.574  30.509   1.408
21365W        W85133  30.468  19.202   1.266
21366W        W85134  18.258  24.706   3.805
21367W        W85135   7.176   4.780  13.022
21368W        W85136  11.860  38.422  12.091
21369W        W85137  40.314  44.279  14.275
21370W        W85138   8.345  41.446   4.838
21371W        W85139   3.849  16.208  10.969
21372W        W85140  17.573  16.162  11.101
21373W        W85141   3.947  13.283   2.831
21374W        W85142  14.251  41.499  13.060
21375W        W85143  19.663  14.640   4.321
21376W        W85144  22.098  41.487   1.374
21377W        W85145  40.404   2.289   1.423
21378W        W85146  11.367  41.403   0.789
21379W        W85147  14.182  16.780  14.983
21380W        W85148  14.764  17.226  13.844
21381W        W85149  19.091  17.737  12.004
21382W        W85150   0.379  39.373  11.540
21383W        W85151   3.822   0.448   2.285
21384W        W85152  19.694  24.563   2.274
21385W        W85153  24.547   8.341   1.384
21386W        W85154  14.321  15.150  13.347
21387W        W85155  11.816   1.887   1.213
21388W        W85156  32.949  40.997  11.940
21389W        W85157   5.326  30.567  11.889
21390W        W85158  28.155  31.635   1.344
21391W        W85159   7.313  26.601   1.240
21392W        W85160   7.263  25.197   4.208
21393W        W85161   6.423   5.771   4.291
21394W        W85162  28.151  21.090   1.931
21395W        W85163  39.874  22.517   3.377
21396W        W85164  11.656  15.591   2.773
21397W        W85165  12.695  43.288   1.325
21398W        W85166   1.883   6.317   4.671
21399W        W85167  39.331   5.333  12.468
21400W        W85168  35.049  35.097  13.343
21401W        W85169  35.081  18.224  13.327
21402W        W85170   5.704  12.297  13.060
21403W        W85171  35.893  35.055  11.398
21404W        W85172   6.331  26.063  13.006
21405W        W85173  43.513   4.301  12.984
21406W        W85174  34.517  22.563   0.790
21407W        W85175  12.139  29.445   4.324
21408W        W85176   9.796  28.615   2.722
21409W        W85177  40.812  31.990  14.956
21410W        W85178  31.598  34.452  13.992
21411W        W85179  34.068   7.807   0.289
21412W        W85180  14.160  16.282   1.791
21413W        W85181   4.309  10.808   2.203
21414W        W85182  14.712   5.688  11.109
21415W        W85183  14.180   3.377  11.938
21416W        W85184  17.220  18.559  14.399
21417W        W85185  31.428  40.021  10.901
21418W        W85186  40.432  42.313  11.582
21419W        W85187  21.148  25.539   3.670
21420W        W85188  26.134  26.184   4.263
21421W        W85189   8.163  10.263   0.344
21422W        W85190  42.337  22.717   1.851
21423W        W85191  31.446  16.285   1.419
21424W        W85192  38.511   2.941   4.284
21425W        W85193  18.709   5.359   4.310
21426W        W85194  32.112  15.801  12.564
21427W        W85195  18.113  39.878   2.283
21428W        W85196  34.978  12.635   4.668
21429W        W85197  19.738  37.865   5.304
21430W        W85198   7.346   2.784   0.801
21431W        W85199  23.133   8.323  13.969
21432W        W85200  43.914  12.680   3.279
21433W        W85201  22.568   8.263  11.401
21434W        W85202   8.837  37.349   2.857
21435W        W85203  22.082  34.424  14.409
21436W        W85204   8.183  35.401  12.428
21437W        W85205  26.142  10.767  14.764
21438W        W85206  26.478  32.562  11.969
21439W        W85207  44.874  43.416  14.347
21440W        W85208  23.625  29.480   3.333
21441W        W85209  33.006  35.986  13.312
21442W        W85210  10.752  42.426  13.496
21443W        W85211  20.214  16.809  14.465
21444W        W85212  13.211  31.905  10.927
21445W        W85213   6.835  28.182   1.853
21446W        W85214   8.877  44.273   0.871
21447W        W85215  19.647  34.433  14.832
21448W        W85216   0.407   7.743   3.690
21449W        W85217  26.535   5.765   3.360
21450W        W85218   5.917   2.252  14.966
21451W        W85219  44.819  38.970  12.869
21452W        W85220  35.049  15.731  10.508
21453W        W85221  40.320  37.421  10.092
21454W        W85222  14.779  15.624  14.763
21455W        W85223   9.190  24.677   2.830
21456W        W85224  40.973  27.193   2.705
21457W        W85225  15.584  17.613   0.950
21458W        W85226   3.929  40.923   4.156
21459W        W85227  12.325  31.593  14.875
21460W        W85228  42.390   4.701  13.435
21461W        W85229  28.039  30.085   1.932
21462W        W85230  18.653  33.067   1.726
21463W        W85231  20.070   5.723  11.956
21464W        W85232   1.735  25.055  11.416
21465W        W85233  10.216  18.790   4.619
21466W        W85234  25.132  35.522  10.031
21467W        W85235   0.313   6.905   2.793
21468W        W85236  11.266  19.745   2.750
21469W        W85237  39.912  19.624  10.453
21470W        W85238  44.969  40.399   0.837
21471W        W85239  16.759  32.631   1.391
21472W        W85240  40.995  11.659  12.432
21473W        W85241  39.332  11.715   2.872
21474W        W85242  17.595  11.813   4.749
21475W        W85243  40.340  13.672  13.472
21476W        W85244  22.162  25.026  11.054
21477W        W85245   7.695  27.082   3.337
21478W        W85246  27.078  43.274  14.404
21479W        W85247  36.413   7.367   2.869
21480W        W85248   7.721  16.141  13.902
21481W        W85249  27.461   8.229  12.860
21482W        W85250  21.616  26.027   4.627
21483W        W85251   0.400  10.749   2.725
21484W        W85252   7.320  35.000  12.863
21485W        W85253  36.565  22.666  14.510
21486W        W85254   1.775  41.950   1.871
21487W        W85255  30.152  19.761  11.993
21488W        W85256  43.491  41.032   3.375
21489W        W85257  37.392  13.289  13.959
21490W        W85258  11.847  35.392  14.896
21491W        W85259   6.742  38.835   2.337
21492W        W85260  11.201  33.417  11.543
21493W        W85261   2.462  37.984   5.216
21494W        W85262  22.155  29.038   0.862
21495W        W85263  20.695  11.702   4.783
21496W        W85264  37.564  42.281  13.928
21497W        W85265  43.901  11.712  10.590
21498W        W85266  17.206  15.148   1.909
21499W        W85267   1.459  28.654   2.700
21500W        W85268  10.139  20.660  11.994
21501W        W85269  28.022  26.988   0.738
21502W        W85270  33.056  20.085   0.474
21503W        W85271  28.015   7.268  12.420
21504W        W85272  34.397  25.053   0.459
21505W        W85273  14.201  31.008  12.883
21506W        W85274  43.778  35.912  13.309
21507W        W85275  11.852  20.615   3.171
21508W        W85276  43.001  27.019   2.249
21509W        W85277  24.665  36.044  13.465
21510W        W85278  32.019  18.292   2.711
21511W        W85279  36.065  29.934  11.569
21512W        W85280  11.862  21.247  12.894
21513W        W85281  31.969  44.410   0.429
21514W        W85282  29.560  26.132   3.213
21515W        W85283  26.135  41.383   4.783
21516W        W85284  35.967  18.712  10.426
21517W        W85285   2.813  37.853  11.558
21518W        W85286  44.265  30.519   1.295
21519W        W85287  43.880  12.697  11.490
21520W        W85288  24.552  30.094  10.442
21521W        W85289  22.210  42.489  12.947
21522W        W85290  31.998   0.913   2.338
21523W        W85291   4.907  12.284   3.804
21524W        W85292  14.282  25.601   5.659
21525W        W85293   4.891   5.250   1.799
21526W        W85294  10.695  44.874  10.949
21527W        W85295   9.802  43.299   3.156
21528W        W85296  44.928  11.298  10.540
21529W        W85297  43.398  23.526   0.481
21530W        W85298  26.093  18.194  12.466
21531W        W85299  21.707  30.082  12.037
21532W        W85300  17.611   4.895   2.351
21533W        W85301  25.503  25.079  13.991
21534W        W85302   7.738   7.835   3.151
21535W        W85303   2.325  33.100  14.375
21536W        W85304   2.939   7.665   4.670
21537W        W85305   0.402  26.075   1.743
21538W        W85306  13.320  20.097   3.685
21539W        W85307   2.429  43.389   0.939
21540W        W85308  44.484  39.440  14.950
21541W        W85309  14.181  15.142   0.889
21542W        W85310  26.558  17.789  13.911
21543W        W85311   8.311  38.449   4.185
21544W        W85312   5.393   9.221   3.789
21545W        W85313   0.427   8.726   4.257
21546W        W85314  42.028  44.769   4.653
21547W        W85315  21.570  31.578  10.453
21548W        W85316   4.416  40.977   4.261
21549W        W85317  37.520  33.387   4.176
21550W        W85318  27.068  14.260  14.505
21551W        W85319  23.013   4.766   2.895
21552W        W85320  43.785  21.066   2.861
21553W        W85321  27.472   3.782  14.289
21554W        W85322  32.468  35.037   0.323
21555W        W85323   8.670  26.068   2.735
21556W        W85324  21.629  21.120   0.756
21557W        W85325  27.156  42.908   2.886
21558W        W85326  26.093  14.217  14.317
21559W        W85327  27.466   5.892   2.393
21560W        W85328  35.596  31.555   1.746
21561W        W85329  19.186  42.363  14.846
21562W        W85330  27.975  22.654   3.832
21563W        W85331  42.870  32.434  12.894
21564W        W85332   8.391  17.765   1.413
21565W        W85333  18.687  10.702   0.293
21566W        W85334  39.950  30.102  12.359
21567W        W85335   0.921  33.592   5.285
21568W        W85336  37.437   8.271   2.385
21569W        W85337  24.724  12.681  14.786
21570W        W85338  33.612  38.544  14.818
21571W        W85339  17.711   2.794  13.814
21572W        W85340  33.026  43.776   0.455
21573W        W85341   8.238  28.622   1.768
21574W        W85342  21.733  17.752   3.752
21575W        W85343   1.962  25.701  14.418
21576W        W85344  40.330  27.963  10.908
21577W        W85345  12.801  37.504  14.402
21578W        W85346  21.619  21.550  14.847
21579W        W85347  33.990  37.567  11.015
21580W        W85348  28.939   1.464   0.806
21581W        W85349   6.899  18.173   0.818
21582W        W85350   2.956  11.198  13.446
21583W        W85351  25.623   7.887  11.492
21584W        W85352  19.095   0.799  13.880
21585W        W85353  38.358  28.547  12.479
21586W        W85354  30.152  23.730  12.507
21587W        W85355  39.504  26.524  13.331
21588W        W85356  14.252   2.308  12.463
21589W        W85357  31.527   7.849  14.514
21590W        W85358  13.838  23.053  10.482
21591W        W85359  33.002  24.153  12.091
21592W        W85360   4.369  43.429  12.021
21593W        W85361  35.419  24.045  12.471
21594W        W85362   2.266  14.172   4.113
21595W        W85363  10.258  15.746   0.788
21596W        W85364  41.537  21.185   0.870
21597W        W85365   8.805  23.150   4.176
21598W        W85366  25.154  27.047  12.951
21599W        W85367  13.719  19.687  13.546
21600W        W85368   0.445  17.122  12.458
21601W        W85369   4.894   0.291  12.850
21602W        W85370  29.505  20.259  14.022
21603W        W85371  33.623  31.432  13.900
21604W        W85372  24.701   2.292   2.315
21605W        W85373  42.466  15.624   3.638
21606W        W85374   6.207  32.434  13.521
21607W        W85375  23.605  35.073  11.937
21608W        W85376   4.230  35.578   4.640
21609W        W85377  37.347  22.723   1.277
21610W        W85378  19.534  32.594   4.163
21611W        W85379  35.905  24.203   1.720
21612W        W85380  44.300  39.529  12.508
21613W        W85381  36.416  13.126   0.923
21614W        W85382  33.122   8.196   1.711
21615W        W85383   6.876  44.004   0.419
21616W        W85384  25.588   8.872  12.016
21617W        W85385   7.700  25.708  11.443
21618W        W85386  33.035  33.393   4.651
21619W        W85387  27.533  12.322   4.625
21620W        W85388  27.196  14.826  10.088
21621W        W85389   0.963  25.004   2.806
21622W        W85390   6.401  36.506  14.428
21623W        W85391  11.777   9.815  13.537
21624W        W85392  21.756   5.284   4.687
21625W        W85393  30.595  24.561  11.018
21626W        W85394  23.642  29.935   0.339
21627W        W85395  29.992  37.965   0.264
21628W        W85396   0.762  30.556  11.442
21629W        W85397  29.961  20.530   0.441
21630W        W85398  25.546  11.695  11.943
21631W        W85399   9.764  33.607   0.874
21632W        W85400   3.392  42.030   1.355
21633W        W85401  28.612   3.216   1.852
21634W        W85402  30.556  37.932  11.978
21635W        W85403  37.407  18.271   1.371
21636W        W85404  34.021   9.879   1.392
21637W        W85405   5.353  25.044   4.812
21638W        W85406  27.998  38.938  14.030
21639W        W85407  11.676  30.048  13.342
21640W        W85408  14.712  24.176   4.681
21641W        W85409  29.043   9.345   1.333
21642W        W85410  44.767  19.565   3.277
21643W        W85411  44.407  19.740  14.489
21644W        W85412  40.526  11.723  11.053
21645W        W85413  37.041  17.764   1.815
21646W        W85414  25.107  31.616  12.072
21647W        W85415  20.730  15.322  10.937
21648W        W85416  15.125  19.229   2.269
21649W        W85417   2.430  38.998  12.881
21650W        W85418  11.695   7.190   5.191
21651W        W85419   4.378  10.755  11.506
21652W        W85420   6.906  34.414   4.159
21653W        W85421  27.098  39.917  12.953
21654W        W85422   5.784  43.843   2.723
21655W        W85423   6.704  21.099   0.885
21656W        W85424   4.764  41.464   2.216
21657W        W85425  38.988  40.925  14.984
21658W        W85426  27.630  34.372  11.556
21659W        W85427   1.916  20.577  13.907
21660W        W85428  32.401  27.051   4.165
21661W        W85429  15.713  37.524   4.708
21662W        W85430  20.158  32.019   1.927
21663W        W85431  30.984  11.729  14.377
21664W        W85432  10.156   8.390   2.753
21665W        W85433  40.540  42.454  14.988
21666W        W85434  28.134   3.950  14.888
21667W        W85435   4.899  20.247   2.274
21668W        W85436  41.304  12.354  13.395
21669W        W85437  29.141  32.985  11.551
21670W        W85438  30.142   2.450  10.540
21671W        W85439  20.229  29.116   4.151
21672W        W85440   9.644   6.355   0.760
21673W        W85441  33.522   2.371   4.341
21674W        W85442  41.392  28.011   0.328
21675W        W85443   2.761  30.024  12.472
21676W        W85444  41.004  41.420  13.982
21677W        W85445   9.272  43.806  13.314
21678W        W85446   9.298  31.435   1.426
21679W        W85447  26.695   9.744  10.920
21680W        W85448  37.508  26.689  14.882
21681W        W85449  18.225   5.431  13.354
21682W        W85450   1.927   6.687  12.971
21683W        W85451   5.698  35.071   4.138
21684W        W85452  23.090  35.421   1.404
21685W        W85453  20.685  27.016  12.561
21686W        W85454   2.922   7.667  11.865
21687W        W85455  43.942  16.700  13.861
21688W        W85456   8.694  28.498   2.708
21689W        W85457  31.643  12.623   2.355
21690W        W85458  22.041  42.288  14.854
21691W        W85459  38.335  24.080  10.890
21692W        W85460  11.293   3.941   2.369
21693W        W85461  17.115  38.508   3.217
21694W        W85462  27.986   2.813   3.346
21695W        W85463  22.614  35.043  14.288
21696W        W85464  34.374  35.059   4.674
21697W        W85465   6.728  18.692  14.432
21698W        W85466  18.166  32.550  12.453
21699W        W85467  36.936   6.191  11.982
21700W        W85468  35.972  10.765  13.849
21701W        W85469   0.266  10.289  10.617
21702W        W85470  11.824   5.198   1.353
21703W        W85471   6.812  26.148  14.341
21704W        W85472  12.197  19.068  14.895
21705W        W85473   9.196  10.291  14.956
21706W        W85474  11.158  38.369  12.950
21707W        W85475   4.928  34.871   1.332
21708W        W85476  39.870   5.203   4.120
21709W        W85477   5.858   1.280  11.982
21710W        W85478   0.913  26.038   2.221
21711W        W85479  42.932  35.601   2.752
21712W        W85480   8.835  38.528   4.264
21713W        W85481  26.136  26.571  11.932
21714W        W85482  33.046  10.782  12.019
21715W        W85483  20.205  42.963  11.958
21716W        W85484   3.225  34.896   1.829
21717W        W85485  18.556  12.625   3.271
21718W        W85486  14.257  14.216   0.736
21719W        W85487  30.487  34.970  14.031
21720W        W85488  24.976  10.380   4.636
21721W        W85489  29.595  14.819   1.704
21722W        W85490  27.959  36.478   2.416
21723W        W85491   0.433  12.321  10.418
21724W        W85492  42.905  16.742   0.952
21725W        W85493  40.949  23.150   2.674
21726W        W85494  14.591  38.052   4.212
21727W        W85495  25.063  40.801   0.412
21728W        W85496   0.327  10.350  11.063
21729W        W85497   9.670  34.023  13.334
21730W        W85498   7.726  41.788  13.488
21731W        W85499   7.417  32.413  13.345
21732W        W85500  23.605  33.997  10.923
21733W        W85501  31.456   3.433  10.488
21734W        W85502  35.885  21.725   1.917
21735W        W85503  31.941  18.694   5.786
21736W        W85504  33.101  13.307   2.736
21737W        W85505   5.415  26.532  11.579
21738W        W85506   7.904  33.012  13.929
21739W        W85507  35.516  31.025  11.397
21740W        W85508  17.137  37.948   1.797
21741W        W85509  26.521  32.435   4.167
21742W        W85510  34.493  27.453   0.889
21743W        W85511  38.836  41.359  13.354
21744W        W85512   4.710  35.542  12.375
21745W        W85513  28.438   2.825   4.216
21746W        W85514  30.161  21.224   0.360
21747W        W85515  18.645   1.856  10.478
21748W        W85516  34.963  13.149  12.863
21749W        W85517  37.360  31.578   4.602
21750W        W85518  26.104  28.598   3.774
21751W        W85519  42.789  37.524   0.369
21752W        W85520   3.251   6.801  12.345
21753W        W85521  14.097  16.707   4.782
21754W        W85522  42.437  25.538  13.874
21755W        W85523  20.683   6.833   3.675
21756W        W85524  38.569  20.058   2.698
21757W        W85525  18.761  10.779   4.153
21758W        W85526  24.616  37.846  13.379
21759W        W85527   3.748   6.197   4.628
21760W        W85528  34.384  33.005  13.465
21761W        W85529  29.143  14.823  13.805
21762W        W85530   7.370  36.438  10.611
21763W        W85531   9.705  34.395  11.907
21764W        W85532  17.063  38.367   0.356
21765W        W85533   5.407  41.835  12.838
21766W        W85534  32.496  22.528   1.791
21767W        W85535  39.889  15.647   9.989
21768W        W85536  27.671  33.564   4.808
21769W        W85537   4.217  11.651   1.768
21770W        W85538  18.627  33.578  11.445
21771W        W85539  16.719  11.705  13.859
21772W        W85540  43.359  11.868  10.628
21773W        W85541  12.349  14.741  10.481
21774W        W85542  31.090  38.922   1.839
21775W        W85543  28.555  35.431   3.266
21776W        W85544  44.489  29.100  11.076
21777W        W85545  30.561  42.938   0.777
21778W        W85546  26.487   5.431  13.904
21779W        W85547  33.902  12.329   4.200
21780W        W85548  42.301   3.253   2.705
21781W        W85549   1.947  20.229  10.985
21782W        W85550   4.817   5.688  10.997
21783W        W85551  42.901  42.850  10.138
21784W        W85552  10.361  16.708   4.817
21785W        W85553  34.024  41.303   4.786
21786W        W85554  19.142   0.853  10.495
21787W        W85555  10.377  13.158  12.965
21788W        W85556   5.802  20.155  13.348
21789W        W85557  30.471   6.318  12.975
21790W        W85558  38.442  18.225  12.361
21791W        W85559  21.049   8.177   2.269
21792W        W85560  42.364  13.215  11.515
21793W        W85561   0.382  21.660  14.774
21794W        W85562  14.340  35.960  13.363
21795W        W85563  36.954  37.892  13.034
21796W        W85564  16.731  23.061  12.458
21797W        W85565  35.396  20.767  13.874
21798W        W85566   8.243  27.586  11.892
21799W        W85567  34.057  30.617   1.694
21800W        W85568  32.038   8.200  10.480
21801W        W85569   1.933  10.874  14.815
21802W        W85570   0.410  22.243  13.909
21803W        W85571  40.932  17.076  10.971
21804W        W85572  11.152  30.589  13.517
21805W        W85573  31.899   6.212   0.394
21806W        W85574  20.242  35.930   0.282
21807W        W85575  15.756  25.575   2.712
21808W        W85576   6.280  20.590  14.985
21809W        W85577  43.016  37.021  12.575
21810W        W85578  20.667  33.507   4.152
21811W        W85579  15.240  39.326   1.764
21812W        W85580   9.749  32.528   1.749
21813W        W85581   6.347  37.363  13.517
21814W        W85582  14.098  13.329   3.231
21815W        W85583  35.461   2.875   0.817
21816W        W85584  29.147  26.632  12.000
21817W        W85585   9.320  44.963   0.813
21818W        W85586  12.211  41.326  11.063
21819W        W85587  31.081  27.454  12.013
21820W        W85588  16.799   6.227   1.366
21821W        W85589   7.736  28.976   2.272
21822W        W85590  12.134  33.542  14.399
21823W        W85591  22.146   0.951  14.500
21824W        W85592  15.173  32.636  14.772
21825W        W85593  29.546  19.676   2.822
21826W        W85594   4.834  32.041   3.276
21827W        W85595  24.584  31.404  10.588
21828W        W85596  15.190  25.685  14.428
21829W        W85597  25.037  27.529   0.357
21830W        W85598  11.757  30.059  12.836
21831W        W85599  38.835  38.478  11.398
21832W        W85600   4.335   3.770  11.915
21833W        W85601   5.835  16.615   0.463
21834W        W85602  44.434  38.934  12.932
21835W        W85603   7.906   6.395   3.680
21836W        W85604  40.371  22.243  11.010
21837W        W85605   2.823   8.329   2.265
21838W        W85606  31.965  22.164  14.768
21839W        W85607  24.611   8.697   1.899
21840W        W85608  29.431  17.188   2.843
21841W        W85609  36.424   6.391   2.265
21842W        W85610  39.000  35.588  10.911
21843W        W85611  21.617   2.322  11.535
21844W        W85612  34.871  36.076  11.469
21845W        W85613  17.728  17.063  13.875
21846W        W85614  18.769  21.664  12.563
21847W        W85615   6.192  26.119  13.455
21848W        W85616   7.853  26.983   2.848
21849W        W85617   5.376   5.847  13.456
21850W        W85618  34.493  23.646  13.478
21851W        W85619   2.846  13.272   2.863
21852W        W85620  26.508  28.121   2.318
21853W        W85621   2.446  15.195  12.886
21854W        W85622  18.704  19.615   1.708
21855W        W85623   7.752  30.516   0.260
21856W        W85624  27.614  13.776  12.442
21857W        W85625  43.857  25.530  13.393
21858W        W85626  14.304  40.940  10.495
21859W        W85627  13.654  20.035   1.377
21860W        W85628  11.280  40.999   1.793
21861W        W85629  21.117   8.289   1.411
21862W        W85630  15.321   9.756   2.245
21863W        W85631  13.712   0.948   4.345
21864W        W85632   7.283   8.395   3.148
21865W        W85633  32.086  44.434   5.252
21866W        W85634  13.344  30.616   0.299
21867W        W85635  41.335  34.494   4.127
21868W        W85636  10.675  22.597  13.861
21869W        W85637  28.123  19.558   2.408
21870W        W85638  29.016  12.621   0.414
21871W        W85639   7.893   1.246  10.584
21872W        W85640  43.912  42.450  10.576
21873W        W85641  32.039  12.774  10.467
21874W        W85642  41.344   8.854  13.960
21875W        W85643  23.235  28.934   1.769
21876W        W85644  15.796   0.801  13.051
21877W        W85645  13.120  22.144  10.942
21878W        W85646  34.418  30.998  10.404
21879W        W85647   8.203  31.611   0.923
21880W        W85648  19.621  14.283  11.535
21881W        W85649   0.291   3.799  10.412
21882W        W85650   7.265   9.212   0.965
21883W        W85651  41.376   6.251  13.800
21884W        W85652  34.594  12.660  12.029
21885W        W85653  23.994  14.742   1.361
21886W        W85654  43.844   0.923  14.310
21887W        W85655  18.080   6.236   3.754
21888W        W85656  30.036  12.155   0.481
21889W        W85657   9.161   3.402   3.836
21890W        W85658  19.695  36.844   0.913
21891W        W85659   7.280  14.643  14.999
21892W        W85660  32.630   4.758   0.764
21893W        W85661  17.754  30.477   4.690
21894W        W85662   9.854  33.536   1.795
21895W        W85663  23.195   7.769  14.337
21896W        W85664   7.351  20.730   3.869
21897W        W85665  30.640  39.483  12.385
21898W        W85666  16.597  33.601  10.484
21899W        W85667   3.234  21.577  14.828
21900W        W85668   8.814   7.760   1.406
21901W        W85669  14.813   8.250  13.921
21902W        W85670   8.170  33.483   1.379
21903W        W85671  27.655  13.324   1.360
21904W        W85672   3.716   7.672   2.189
21905W        W85673   4.341  20.715   4.148
21906W        W85674   5.334  42.524  12.377
21907W        W85675  35.432  19.559  14.464
21908W        W85676  26.974  17.624   3.785
21909W        W85677  20.035   6.861   1.778
21910W        W85678   8.259  35.990   4.667
21911W        W85679  11.648  38.503  13.003
21912W        W85680  18.249  17.764   3.734
21913W        W85681  41.983  25.005  14.881
21914W        W85682   7.262  29.546   1.830
21915W        W85683  39.044  28.605   0.859
21916W        W85684  41.998  35.378   0.350
21917W        W85685  22.106  17.259   1.254
21918W        W85686  32.895  41.938  10.910
21919W        W85687   8.657  30.030  13.912
21920W        W85688  14.735  42.469  12.381
21921W        W85689  30.534  41.904   3.787
21922W        W85690   9.301  19.223  11.515
21923W        W85691  36.357  36.454  14.900
21924W        W85692   7.841  17.272   3.254
21925W        W85693  18.775  34.077   0.474
21926W        W85694  10.179  37.494  11.962
21927W        W85695   5.427  22.620   4.264
21928W        W85696  42.285  37.362   4.766
21929W        W85697  43.412  33.575   4.662
21930W        W85698  30.974   2.414  14.027
21931W        W85699   9.740  14.299  14.820
21932W        W85700  29.937  44.872   0.962
21933W        W85701  30.420  22.178  10.467
21934W        W85702  11.325  31.073   1.891
21935W        W85703  11.836  14.317  12.380
21936W        W85704  25.483  18.630   0.937
21937W        W85705  39.872   3.905  14.277
21938W        W85706  33.527  39.469   0.389
21939W        W85707  27.672  18.778   4.193
21940W        W85708   6.813   6.787   4.813
21941W        W85709  33.524  13.775   3.284
21942W        W85710  13.773  34.956  13.340
21943W        W85711  36.414  10.377   4.242
21944W        W85712  32.045  23.000  14.019
21945W        W85713  23.611  43.349   2.300
21946W        W85714  42.973  40.026   3.766
21947W        W85715  44.374  14.106   4.662
21948W        W85716  11.754  16.300  14.355
21949W        W85717  35.105  39.479   1.384
21950W        W85718  39.865  41.920   4.657
21951W        W85719  22.524  39.540  11.548
21952W        W85720  36.029  29.046   2.830
21953W        W85721   2.868  30.046  14.297
21954W        W85722   2.424  22.638   4.230
21955W        W85723  38.831  40.547  14.276
21956W        W85724  28.629  29.955  11.863
21957W        W85725   4.325  13.258  11.018
21958W        W85726  27.114   9.248   1.731
21959W        W85727  43.289   4.227   4.292
21960W        W85728  11.198   0.931   3.659
21961W        W85729  40.364  19.709   3.742
21962W        W85730  25.712  13.123   0.918
21963W        W85731   1.370  41.024   4.147
21964W        W85732  29.510  17.676  13.008
21965W        W85733   5.384  30.424   4.605
21966W        W85734  32.902  18.683   4.335
21967W        W85735  30.550  23.719   9.953
21968W        W85736  37.337  39.361  11.019
21969W        W85737  32.940   0.802   1.816
21970W        W85738  38.831  12.805  14.390
21971W        W85739  18.076  10.843  12.383
21972W        W85740  24.716   6.348   0.247
21973W        W85741  10.175   8.205   1.722
21974W        W85742  13.669  28.932   3.304
21975W        W85743  30.024  33.398   0.372
21976W        W85744   8.887  17.677  10.919
21977W        W85745   5.913  27.611   1.297
21978W        W85746  44.906  28.992  12.451
21979W        W85747  10.280  31.950  12.542
21980W        W85748  29.430  43.874  10.526
21981W        W85749  24.637   2.967   0.881
21982W        W85750   0.913  38.967   3.753
21983W        W85751  30.457  13.208   5.253
21984W        W85752  41.941  11.837   2.386
21985W        W85753  41.448  17.771   0.462
21986W        W85754  44.436  41.329  13.062
21987W        W85755   1.378  22.188  13.975
21988W        W85756  11.139  44.959  11.410
21989W        W85757   8.356  17.706  11.026
21990W        W85758  14.832   6.369   2.188
21991W        W85759  10.662  25.023  13.498
21992W        W85760  16.146  43.508   4.327
21993W        W85761   5.251   7.689  13.915
21994W        W85762   6.704  10.633  10.493
21995W        W85763  23.039  14.267  11.072
21996W        W85764   7.398  20.765   4.683
21997W        W85765  29.431  24.635   1.254
21998W        W85766   9.187   5.776   4.182
21999W        W85767  21.588   0.285   2.378
22000W        W85768   3.840  31.988   0.463
22001W        W85769  39.907  37.831   1.824
22002W        W85770  43.288  11.218  12.030
22003W        W85771  19.598   2.757   1.330
22004W        W85772  26.632  34.462  10.901
22005W        W85773  32.941  35.431  11.912
22006W        W85774  27.540  19.534   2.210
22007W        W85775  42.325  32.530  12.564
22008W        W85776  32.977   4.307   1.292
22009W        W85777   9.277  31.109   2.844
22010W        W85778   3.846  22.065  11.591
22011W        W85779   9.740  25.048  13.890
22012W        W85780   3.922   5.215   2.676
22013W        W85781  18.282  39.446  12.891
22014W        W85782  43.516  34.884   1.420
22015W        W85783   2.233   0.367   2.279
22016W        W85784  37.477  24.483   3.850
22017W        W85785  11.334  39.913   1.390
22018W        W85786  14.303  12.325  12.535
22019W        W85787  21.672  22.684   0.470
22020W        W85788  15.160  13.756   3.721
22021W        W85789  24.560  34.099   0.755
22022W        W85790  43.332  25.496   4.665
22023W        W85791  12.128  39.427   4.233
22024W        W85792  44.992  11.680   1.885
22025W        W85793   3.738   2.243  12.040
22026W        W85794   2.451  13.272   4.613
22027W        W85795  35.552  30.534   1.437
22028W        W85796  21.028  30.004   2.179
22029W        W85797   4.768   4.229   3.339
22030W        W85798  28.953  34.926   3.841
22031W        W85799  43.802  21.030  11.948
22032W        W85800  34.517  44.875  12.381
22033W        W85801  39.044  13.802   4.263
22034W        W85802  36.878  17.222  10.440
22035W        W85803  43.294  27.005   3.759
22036W        W85804  28.162  21.708   3.794
22037W        W85805  20.269  44.786  12.963
22038W        W85806   7.771  17.599   4.312
22039W        W85807   6.347   6.886  12.478
22040W        W85808  21.624  42.796  10.644
22041W        W85809   3.754  21.610  12.374
22042W        W85810  26.552  41.917   4.810
22043W        W85811  37.464  25.558  11.015
22044W        W85812  31.434   9.150   0.751
22045W        W85813  23.602  40.482  14.414
22046W        W85814   0.915  24.221   1.791
22047W        W85815  31.121  29.998   0.324
22048W        W85816  27.465  16.768   0.884
22049W        W85817  42.469  22.746  13.932
22050W        W85818   5.228  22.728  14.946
22051W        W85819  21.206   3.828  11.487
22052W        W85820  32.607  25.524   1.899
22053W        W85821   5.845  19.078   1.713
22054W        W85822  28.015  43.371   3.157
22055W        W85823  36.426  43.507   0.913
22056W        W85824  23.544   6.206  12.907
22057W        W85825   6.222   1.820   2.414
22058W        W85826   3.244  39.812  11.119
22059W        W85827  42.373  14.693   0.390
22060W        W85828  15.581  14.179  14.837
22061W        W85829  10.336  36.054   3.310
22062W        W85830   8.342  28.942  12.478
22063W        W85831  31.606   2.758   1.418
22064W        W85832  14.288  13.735   3.636
22065W        W85833  37.082  18.735  13.364
22066W        W85834  30.653   0.304  13.378
22067W        W85835   4.920  23.580   4.119
22068W        W85836   6.403  31.100  11.561
22069W        W85837  24.004  18.661   3.674
22070W        W85838  22.249  38.885   0.264
22071W        W85839  26.140  19.550   4.809
22072W        W85840  26.958  20.035  13.532
22073W        W85841  31.980  17.776   4.171
22074W        W85842  16.807  14.305   1.347
22075W        W85843   9.271  25.035   1.826
22076W        W85844  26.152  10.322   3.293
22077W        W85845  37.003  29.640  10.494
22078W        W85846   4.718  25.645  10.954
22079W        W85847  14.591  12.654   4.681
22080W        W85848  28.989  18.687  10.425
22081W        W85849  44.781   4.773  14.317
22082W        W85850  35.468  17.637  14.387
22083W        W85851  11.357  31.131  10.513
22084W        W85852  33.064  31.940  11.015
22085W        W85853  14.327   2.340   2.308
22086W        W85854  39.540  41.299  13.940
22087W        W85855  22.167  12.166  10.978
22088W        W85856   4.429  24.110  13.424
22089W        W85857  36.452  19.551  13.365
22090W        W85858   4.410  19.691   4.804
22091W        W85859  18.193  31.424   5.241
22092W        W85860  32.412  26.983   3.754
22093W        W85861  30.433  31.990   3.213
22094W        W85862  27.636  15.680   4.806
22095W        W85863  34.014  22.179  14.303
22096W        W85864   2.349  18.626  11.543
22097W        W85865  43.772  17.166   1.397
22098W        W85866  10.819  10.327   0.959
22099W        W85867   4.306   5.305  14.825
22100W        W85868  26.028  35.913  12.559
22101W        W85869  17.647   8.223  14.842
22102W        W85870  36.961  24.484   0.777
22103W        W85871  36.351   3.844  12.046
22104W        W85872   7.709  23.574  14.899
22105W        W85873   6.872  40.027  14.877
22106W        W85874   6.785  23.180   4.818
22107W        W85875   7.323   5.223  13.319
22108W        W85876  16.779  33.959   3.666
22109W        W85877  30.507   4.713   0.811
22110W        W85878  36.484  41.391  11.000
22111W        W85879  44.456  14.597  12.062
22112W        W85880   5.249  15.103  13.962
22113W        W85881  11.296  44.874  13.339
22114W        W85882  15.673  10.347  13.791
22115W        W85883  42.919  37.526   3.281
22116W        W85884  24.581  44.787  12.982
22117W        W85885   1.461  16.793  11.914
22118W        W85886  29.464  31.030  12.394
22119W        W85887   4.442   2.374   1.265
22120W        W85888  23.021  19.061   2.328
22121W        W85889  31.607  37.385  12.539
22122W        W85890  33.462  14.646  12.453
22123W        W85891  26.675  13.161   3.282
22124W        W85892  24.039  18.660  10.487
22125W        W85893   6.241  21.687  11.523
22126W        W85894  32.484  28.637  13.927
22127W        W85895   0.423   0.800  14.280
22128W        W85896  40.046  39.335  13.026
22129W        W85897  39.888  22.148   4.819
22130W        W85898  22.223  28.108   3.219
22131W        W85899  25.654  13.802  14.798
22132W        W85900  30.637  31.505   0.332
22133W        W85901  37.865  43.450  14.783
22134W        W85902  38.027  10.155   4.327
22135W        W85903   1.825   6.224   2.372
22136W        W85904  18.148  41.992  10.575
22137W        W85905   9.652  24.075   3.155
22138W        W85906  13.833  43.363   3.681
22139W        W85907  37.407  20.110   1.320
22140W        W85908  24.484  11.720  13.926
22141W        W85909  15.736  18.135  12.868
22142W        W85910  43.911  34.532   1.309
22143W        W85911  43.850  14.617  11.989
22144W        W85912   8.315  18.638  13.394
22145W        W85913  24.152  33.875   0.878
22146W        W85914   1.761  39.952  12.864
22147W        W85915  19.740  29.057  10.561
22148W        W85916   2.801  24.499   2.243
22149W        W85917   7.678  15.184   4.607
22150W        W85918  23.170  40.898  14.007
22151W        W85919  13.338  41.436   4.254
22152W        W85920  41.833  42.348   2.784
22153W        W85921  42.432  24.130  12.018
22154W        W85922  14.637  26.064   0.395
22155W        W85923   7.848   0.876   3.260
22156W        W85924  12.664  38.462   2.778
22157W        W85925   1.328  39.840  12.478
22158W        W85926  43.391  23.099  11.497
22159W        W85927  25.601   7.200   0.913
22160W        W85928  43.883  40.936   1.281
22161W        W85929   2.352  38.390  13.842
22162W        W85930  39.410   8.779   0.265
22163W        W85931   4.864  34.894  11.610
22164W        W85932  33.477  33.902   4.729
22165W        W85933  25.541  39.061  10.048
22166W        W85934  16.087  29.590  12.052
22167W        W85935  36.046  21.629  12.030
22168W        W85936  32.889  37.002  11.400
22169W        W85937  16.140   5.714   2.804
22170W        W85938   5.708   7.674   3.242
22171W        W85939   5.417  24.093  11.891
22172W        W85940  44.480  20.199  12.464
22173W        W85941  15.313  17.707   0.940
22174W        W85942  20.625  17.135   3.158
22175W        W85943  11.716  26.561   3.194
22176W        W85944  29.154  44.881  10.507
22177W        W85945  17.762   7.216  13.375
22178W        W85946  18.143  19.069   2.688
22179W        W85947   0.787  11.173   2.683
22180W        W85948  28.652  36.853  11.425
22181W        W85949  27.524  23.714   3.224
22182W        W85950   3.827   3.884  11.983
22183W        W85951  43.883  28.643  12.050
22184W        W85952  23.988  14.618  14.383
22185W        W85953   8.675  19.212   3.310
22186W        W85954  38.536  44.976  14.903
22187W        W85955  18.734  19.700   1.394
22188W        W85956  24.207  16.674   1.235
22189W        W85957  16.801  24.621   1.435
22190W        W85958   4.381  18.099   1.904
22191W        W85959   9.720  18.672  14.783
22192W        W85960  22.097  13.203   3.773
22193W        W85961   5.436  42.830  11.120
22194W        W85962  31.004  32.945   4.767
22195W        W85963   0.913  42.381   2.663
22196W        W85964   4.842   8.267  12.948
22197W        W85965  10.375   0.405  13.813
22198W        W85966  41.467   0.352  13.794
22199W        W85967  30.529  43.914   1.347
22200W        W85968   2.254  44.452   0.303
22201W        W85969  41.453  21.646   3.228
22202W        W85970   2.329  25.547  12.355
22203W        W85971  25.060  32.088   4.731
22204W        W85972  43.986  23.534  12.482
22205W        W85973   1.361  17.684  13.799
22206W        W85974  28.628   2.919   4.769
22207W        W85975  38.862  11.249   1.849
22208W        W85976  24.191  41.010  14.933
22209W        W85977  26.953  14.745   4.127
22210W        W85978  38.537  14.321  12.396
22211W        W85979   4.363   3.275   3.249
22212W        W85980  41.874  41.965   2.751
22213W        W85981  13.213   9.312  14.317
22214W        W85982  12.641  22.650  12.580
22215W        W85983  22.046  27.125   1.318
22216W        W85984  21.519   8.674   0.727
22217W        W85985  15.098   0.333   4.837
22218W        W85986  26.592  31.942  13.798
22219W        W85987   2.753  14.612   2.232
22220W        W85988  43.461  10.335  13.899
22221W        W85989   6.216  21.081  14.406
22222W        W85990   3.287  30.004   3.833
22223W        W85991  12.310  17.727  11.381
22224W        W85992  35.033  43.854  10.517
22225W        W85993  41.010  19.148   0.301
22226W        W85994  15.806  15.237  11.074
22227W        W85995  26.684   1.793   4.210
22228W        W85996   5.235  33.426  10.949
22229W        W85997   5.732  12.739   2.231
22230W        W85998  37.545   4.806  13.800
22231W        W85999  26.566  18.545  13.872
22232W        W86000  37.390  14.187  10.958
22233W        W86001  23.679  24.560   3.354
22234W        W86002  19.749  35.983  14.304
22235W        W86003  12.802  15.209  13.472
22236W        W86004  44.295  33.506   5.182
22237W        W86005  10.769  18.766  11.969
22238W        W86006  19.125  42.345   1.432
22239W        W86007   2.244   9.273   0.256
22240W        W86008  36.862  17.233  14.951
22241W        W86009  23.526  43.867   4.769
22242W        W86010  31.467  30.437   1.893
22243W        W86011  39.415   8.750   5.208
22244W        W86012   3.237  34.970   3.644
22245W        W86013   3.290   4.831   1.238
22246W        W86014  21.594  37.078  13.062
22247W        W86015   3.404  16.774  10.472
22248W        W86016  34.121  22.574  10.551
22249W        W86017  25.180   3.947   4.800
22250W        W86018  14.236   5.837   2.342
22251W        W86019   7.207   4.443  11.602
22252W        W86020  12.734  44.011  12.436
22253W        W86021   2.889  36.380   2.351
22254W        W86022  17.595   7.379   3.356
22255W        W86023  13.317  35.519   0.836
22256W        W86024  20.762  16.094  14.804
22257W        W86025  27.602  24.035  11.398
22258W        W86026  21.637  17.621  12.992
22259W        W86027  26.157  43.978  14.303
22260W        W86028  22.657  36.014  10.146
22261W        W86029  21.593  11.365  12.406
22262W        W86030   2.864  25.012  10.464
22263W        W86031  36.533  43.346  14.936
22264W        W86032  40.349  16.812   3.346
22265W        W86033   5.419  15.794   3.181
22266W        W86034   1.267  14.610   0.402
22267W        W86035  17.700   8.335  12.381
22268W        W86036  29.496  36.873  10.916
22269W        W86037  37.992  25.057   0.337
22270W        W86038  35.037  22.198   1.873
22271W        W86039  37.498  14.784  12.378
22272W        W86040  29.982  22.161  12.946
22273W        W86041  41.360  32.453   1.830
22274W        W86042  26.568  41.034  12.440
22275W        W86043   6.343  26.559   0.794
22276W        W86044  14.270  15.732  14.285
22277W        W86045  18.174   1.958  12.450
22278W        W86046  33.560  25.477   3.366
22279W        W86047   6.884   3.456  10.909
22280W        W86048  16.708  40.808   4.792
22281W        W86049  11.285  19.116  13.040
22282W        W86050  19.239   2.950  12.884
22283W        W86051  39.384  26.555   1.829
22284W        W86052  36.884  31.519   2.789
22285W        W86053   0.458  44.987  13.458
22286W        W86054  41.404  29.478  11.442
22287W        W86055   1.973   0.294  10.556
22288W        W86056  31.495  29.928  13.498
22289W        W86057   0.846  14.312  13.436
22290W        W86058  37.938   7.383   3.840
22291W        W86059   6.306  12.224   0.347
22292W        W86060  38.000   4.801   9.951
22293W        W86061  35.385  39.413  11.571
22294W        W86062  22.720  13.217   1.220
22295W        W86063  35.955  16.665   0.396
22296W        W86064  43.496  14.590   1.357
22297W        W86065   8.253   7.847  12.962
22298W        W86066  39.531   6.747  13.415
22299W        W86067  41.316  28.647   0.906
22300W        W86068   6.799   7.372   0.961
22301W        W86069   8.728  31.997   1.332
22302W        W86070  27.672  24.031   1.763
22303W        W86071  33.524  44.380   2.382
22304W        W86072  30.982  14.743   4.641
22305W        W86073  23.072  11.648   9.602
22306W        W86074  40.361  31.929   2.221
22307W        W86075  28.181  10.262  13.002
22308W        W86076  43.879  27.999  11.922
22309W        W86077  34.432  35.987  13.001
22310W        W86078  30.942  43.294   2.900
22311W        W86079  37.464  12.218  14.416
22312W        W86080  13.171  29.474   1.360
22313W        W86081   8.255   4.855  13.888
22314W        W86082   8.845  31.586  13.413
22315W        W86083   5.823  20.682  13.964
22316W        W86084  35.090  28.598  13.908
22317W        W86085  27.655  40.999  13.958
22318W        W86086   4.814  21.553  14.959
22319W        W86087   5.746  37.876   2.368
22320W        W86088  17.182  33.125   3.735
22321W        W86089  14.139   6.414  14.009
22322W        W86090  19.172  10.370  13.824
22323W        W86091  38.424   7.850  14.992
22324W        W86092   8.290  24.499   3.633
22325W        W86093  27.685   9.867   0.814
22326W        W86094   3.760   7.400   0.457
22327W        W86095   6.376   6.770  10.124
22328W        W86096  28.166  29.483   0.764
22329W        W86097  34.911  37.409   0.775
22330W        W86098  24.998  16.317   3.760
22331W        W86099  27.636  36.509  14.357
22332W        W86100  21.606   1.738   3.692
22333W        W86101  34.463  35.602  12.973
22334W        W86102  24.724  10.241   3.731
22335W        W86103  36.362  13.301  13.979
22336W        W86104   3.779  35.381  12.484
22337W        W86105  40.543  44.281   2.747
22338W        W86106  19.564  40.995   0.797
22339W        W86107   7.278  24.145  13.314
22340W        W86108  32.998  38.906   1.324
22341W        W86109  24.685   8.342  14.831
22342W        W86110   8.298  10.854   3.226
22343W        W86111  30.068   3.891   4.349
22344W        W86112  14.713  28.156   0.798
22345W        W86113  16.237  32.110   1.814
22346W        W86114  27.102  37.461  11.058
22347W        W86115  34.540  15.638   2.391
22348W        W86116  14.251  41.970   3.219
22349W        W86117  44.004   1.292   4.680
22350W        W86118   0.283   6.183  12.539
22351W        W86119   6.735  24.574   0.320
22352W        W86120   6.766  17.251   4.710
22353W        W86121  26.565  31.062   5.259
22354W        W86122  35.982  39.992   2.781
22355W        W86123  15.200   9.308   2.335
22356W        W86124  10.877  23.558   2.794
22357W        W86125  21.220   7.854   3.253
22358W        W86126  19.650  20.251  12.382
22359W        W86127  18.268  16.212   2.325
22360W        W86128  42.807  39.925  13.457
22361W        W86129  14.220   5.225  14.878
22362W        W86130  23.037   4.909   3.185
22363W        W86131  36.504  28.492  13.538
22364W        W86132  30.933  23.185  14.917
22365W        W86133  22.098  23.220  13.003
22366W        W86134  13.291  30.115   0.247
22367W        W86135  26.631  19.580   4.135
22368W        W86136  44.944   0.853   4.345
22369W        W86137  14.794  34.977  10.942
22370W        W86138  36.430   2.765   4.634
22371W        W86139  22.546  33.121  13.026
22372W        W86140  32.446  11.864   1.773
22373W        W86141  39.047  21.172  14.845
22374W        W86142  22.590  23.146  12.832
22375W        W86143  26.199  12.613  11.027
22376W        W86144   5.406  43.001  11.549
22377W        W86145  18.654  28.988  13.356
22378W        W86146  25.188  27.604  13.053
22379W        W86147   6.856   9.650   2.838
22380W        W86148  18.160  15.717   2.350
22381W        W86149  24.637  18.223   3.869
22382W        W86150  11.795  10.819  14.499
22383W        W86151  29.547  35.998   9.926
22384W        W86152  37.443  36.981  12.385
22385W        W86153  28.461   8.239  14.401
22386W        W86154  38.857   3.805   2.873
22387W        W86155  13.120  35.084  10.639
22388W        W86156  31.485  19.627  13.506
22389W        W86157   4.401  24.123   4.675
22390W        W86158  26.112   0.817   1.361
22391W        W86159   1.269  23.527  12.009
22392W        W86160  17.066  33.088  12.475
22393W        W86161  18.594   2.963   2.357
22394W        W86162  13.224  39.482  13.895
22395W        W86163  16.253  27.197  12.886
22396W        W86164  38.569  40.799   0.908
22397W        W86165   9.659  38.514  14.928
22398W        W86166  25.619  25.994  11.572
22399W        W86167  43.780  21.648   2.352
22400W        W86168  24.019  14.655  12.915
22401W        W86169  17.255  40.494  10.590
22402W        W86170   9.776   5.370  13.943
22403W        W86171  20.569  42.400  13.900
22404W        W86172  27.465  36.485  13.448
22405W        W86173  15.241  41.345  13.031
22406W        W86174  44.905  17.563  14.972
22407W        W86175  28.490  41.790   2.273
22408W        W86176  21.647   0.278   0.408
22409W        W86177  30.092  41.017  14.476
22410W        W86178  31.625  30.589   3.343
22411W        W86179  22.659  32.549  13.459
22412W        W86180  35.472  39.963  13.878
22413W        W86181  34.925   4.709  12.915
22414W        W86182   9.160   9.850   2.205
22415W        W86183  20.758  28.992  14.468
22416W        W86184  33.445  17.299  14.881
22417W        W86185  43.457   8.396   2.902
22418W        W86186   3.778   8.715   2.680
22419W        W86187  28.485   1.475   0.868
22420W        W86188   0.360  16.674  11.406
22421W        W86189  43.861  14.338   1.310
22422W        W86190   0.794  28.507  11.101
22423W        W86191  39.055   3.750   0.447
22424W        W86192  43.375   0.766   9.983
22425W        W86193  39.994  34.472  14.803
22426W        W86194  42.964   4.312   4.636
22427W        W86195   4.706  37.405  11.464
22428W        W86196  39.516  30.453   3.722
22429W        W86197   8.223  29.614   4.781
22430W        W86198  13.318  30.066  12.046
22431W        W86199  16.223  25.037   3.661
22432W        W86200   0.400  38.846  12.854
22433W        W86201  31.069  43.423  13.471
22434W        W86202  23.041  42.842  10.568
22435W        W86203  36.444  16.179   4.659
22436W        W86204  19.758  21.521   0.801
22437W        W86205  20.694  33.877   3.719
22438W        W86206  37.833  25.058   3.148
22439W        W86207  40.318  23.646   2.862
22440W        W86208  36.996   2.398   0.456
22441W        W86209  10.143  31.441  10.946
22442W        W86210  27.996  11.221   2.334
22443W        W86211  10.666  33.615  11.481
22444W        W86212  23.605  32.583   1.707
22445W        W86213   0.322  32.470  10.960
22446W        W86214  34.404  18.096   1.796
22447W        W86215  10.363   0.891   0.799
22448W        W86216  21.630  44.790   1.316
22449W        W86217  15.805   2.737  13.979
22450W        W86218  14.809  13.749  12.438
22451W        W86219  26.193  10.771  14.495
22452W        W86220   6.206  22.630   1.732
22453W        W86221  19.241  19.650  11.039
22454W        W86222   8.858   7.366   3.713
22455W        W86223  17.241  18.777  11.985
22456W        W86224  42.407  11.636   3.176
22457W        W86225  31.040   6.849  14.276
22458W        W86226   6.304  40.989  13.477
22459W        W86227  25.501   2.875   0.398
22460W        W86228  17.183  23.050  12.463
22461W        W86229  37.399   9.219   2.792
22462W        W86230   8.844  32.554   1.407
22463W        W86231  16.706  42.875   5.304
22464W        W86232  35.054  39.833   2.705
22465W        W86233  43.349  18.680  14.358
22466W        W86234  42.371  36.002  13.436
22467W        W86235   5.920  25.542   2.260
22468W        W86236   1.884  37.911  14.909
22469W        W86237  40.039  36.850   2.379
22470W        W86238  21.258   9.167   4.132
22471W        W86239  39.433   1.247   1.862
22472W        W86240  24.503   5.738   2.333
22473W        W86241  30.089  34.394  10.539
22474W        W86242  17.621  37.029   1.830
22475W        W86243   9.678  37.508   0.331
22476W        W86244  43.399  35.898  12.824
22477W        W86245  37.469   9.304   4.710
22478W        W86246  28.166  22.251   1.913
22479W        W86247  34.410  31.490   1.434
22480W        W86248  27.097   9.712   1.784
22481W        W86249  41.421  35.534   1.896
22482W        W86250  35.403  21.674  11.978
22483W        W86251  37.050   3.888   1.295
22484W        W86252  14.685  37.023   1.377
22485W        W86253  44.287  23.728   4.631
22486W        W86254  44.466  13.787  13.432
22487W        W86255  37.906   5.827   5.129
22488W        W86256  11.221  28.001  13.841
22489W        W86257   0.934   2.305   3.367
22490W        W86258   1.823  11.843  13.522
22491W        W86259  15.670  38.030   0.354
22492W        W86260  37.916  14.722   3.249
22493W        W86261   5.899  24.709   3.684
22494W        W86262  13.812   9.795   0.931
22495W        W86263  25.659  19.745  13.475
22496W        W86264  43.891  43.445   0.284
22497W        W86265  33.462  37.954   4.801
22498W        W86266  28.577  40.330  10.923
22499W        W86267  17.079  30.538   4.181
22500W        W86268  11.850  30.115   2.402
22501W        W86269  29.430  27.034  14.843
22502W        W86270   1.965  15.112   0.405
22503W        W86271  33.093  42.460   2.186
22504W        W86272  20.141  32.604  11.454
22505W        W86273  35.064  39.431   2.687
22506W        W86274   4.315  18.133  11.873
22507W        W86275  39.348  40.036  14.015
22508W        W86276   4.742  36.976   3.206
22509W        W86277  34.571   4.288  14.766
22510W        W86278  12.621  23.072   4.762
22511W        W86279  25.130  11.183   5.566
22512W        W86280  17.774  39.485   1.802
22513W        W86281  35.018  27.505   3.197
22514W        W86282  43.384  22.139  11.898
22515W        W86283  13.343   4.234   3.364
22516W        W86284   3.823  30.108   1.397
22517W        W86285  27.582   7.187   2.321
22518W        W86286  18.787   4.210  10.969
22519W        W86287  43.383  25.707   0.304
22520W        W86288  31.076  36.950  10.945
22521W        W86289  41.374  39.356   4.620
22522W        W86290  12.308  32.481  14.420
22523W        W86291  39.866   1.943   4.638
22524W        W86292   5.894   9.714   2.665
22525W        W86293   6.346   3.367  13.480
22526W        W86294   3.762  12.209   4.281
22527W        W86295  44.904  23.208   1.706
22528W        W86296  29.514  24.672   0.466
22529W        W86297  25.217  15.602  14.287
22530W        W86298  15.733  32.532   3.671
22531W        W86299  17.108  41.363   4.792
22532W        W86300  12.828  24.533  13.978
22533W        W86301   1.962  29.500  11.878
22534W        W86302  23.642  28.659  14.925
22535W        W86303  31.132  28.064  14.966
22536W        W86304  10.782  43.006   1.451
22537W        W86305  20.562  19.155  13.933
22538W        W86306  11.697  32.054   0.466
22539W        W86307   9.837  28.154  10.906
22540W        W86308   9.799  42.525  13.542
22541W        W86309  33.889  24.226   3.845
22542W        W86310  16.584  13.800  10.918
22543W        W86311  34.396   8.803  13.361
22544W        W86312  18.062  40.506  13.983
22545W        W86313  28.946  13.670  14.362
22546W        W86314   8.729  44.992   4.659
22547W        W86315  22.090  25.134  14.968
22548W        W86316  33.920  39.501  12.048
22549W        W86317  31.931  24.623   4.709
22550W        W86318   8.201  31.602   4.329
22551W        W86319  35.925  41.351   2.801
22552W        W86320  25.043  33.083   1.344
22553W        W86321  24.490   4.430  10.945
22554W        W86322  38.075  43.315  12.411
22555W        W86323  36.891  33.469  11.516
22556W        W86324   5.882  20.030  12.561
22557W        W86325   4.306  42.008  14.515
22558W        W86326  24.559  40.540  12.894
22559W        W86327  29.979  38.003  12.018
22560W        W86328  17.746  17.180  14.359
22561W        W86329  13.655   4.222   4.156
22562W        W86330  22.735  18.596  14.910
22563W        W86331  22.567  22.108  13.403
22564W        W86332  32.915   2.420   2.895
22565W        W86333   3.219  22.096  13.411
22566W        W86334   1.296  38.889   1.319
22567W        W86335  31.055  13.603   3.653
22568W        W86336  21.230  42.866  10.971
22569W        W86337   8.298   7.706  11.506
22570W        W86338   9.840  15.185  13.028
22571W        W86339  34.375  31.507  14.815
22572W        W86340  37.432  33.924   0.321
22573W        W86341  27.080  33.548   1.380
22574W        W86342  39.018  40.878  11.451
22575W        W86343  42.432  41.483   2.732
22576W        W86344  25.622   6.201  13.516
22577W        W86345  30.040  42.866   0.296
22578W        W86346   6.839  11.794  11.871
22579W        W86347  43.937  17.143   4.304
22580W        W86348   8.794  23.498  13.981
22581W        W86349  42.395   3.245  14.866
22582W        W86350  28.644  22.616   3.278
22583W        W86351  20.592  33.976   4.134
22584W        W86352   1.773  43.013  11.122
22585W        W86353  40.429  12.230  11.563
22586W        W86354  41.878   7.409   3.222
22587W        W86355  41.914  41.493   2.789
22588W        W86356  42.852   9.717  14.393
22589W        W86357  31.098  29.003  11.521
22590W        W86358  33.128  20.562  12.924
22591W        W86359  37.480  18.066   4.744
22592W        W86360   8.805  40.844  11.013
22593W        W86361   7.248   9.277  14.991
22594W        W86362  32.542   0.770  13.326
22595W        W86363  26.523   6.746  13.910
22596W        W86364  17.260  26.489   0.875
22597W        W86365  29.173  15.264  14.366
22598W        W86366  30.989  41.429  11.909
22599W        W86367  30.138  34.033  10.585
22600W        W86368  26.545  15.283   1.260
22601W        W86369  35.433  37.465  12.887
22602W        W86370  33.473  29.115  14.855
22603W        W86371   1.293   6.369   2.298
22604W        W86372  14.315  19.275  12.411
22605W        W86373  11.188  22.995  11.872
22606W        W86374  35.553  23.538   1.219
22607W        W86375  22.686  39.057  11.515
22608W        W86376   1.396   3.391  12.560
22609W        W86377  36.359  25.635   1.729
22610W        W86378  26.180  26.637  10.642
22611W        W86379  41.826  38.515  14.354
22612W        W86380  21.198  35.603  12.393
22613W        W86381   0.749   9.746  11.035
22614W        W86382  37.532  44.274   3.275
22615W        W86383  34.928  28.168   4.150
22616W        W86384  23.523  28.998  14.773
22617W        W86385   3.799   1.856   0.244
22618W        W86386  20.251   0.886  13.829
22619W        W86387   5.425  41.362   2.314
22620W        W86388   5.214  12.158   3.266
22621W        W86389  41.531  24.691  12.394
22622W        W86390  13.637   6.761  14.466
22623W        W86391  19.624  13.710  11.020
22624W        W86392  25.546  21.668  14.031
22625W        W86393  23.014  10.351  12.474
22626W        W86394  11.144  34.377  14.411
22627W        W86395  21.730  20.230  11.975
22628W        W86396  39.814  39.999   2.390
22629W        W86397  23.101  36.968  14.417
22630W        W86398  39.357  19.683  13.894
22631W        W86399  44.840   0.779   2.405
22632W        W86400   5.915  38.970   2.299
22633W        W86401  31.623  11.682  13.337
22634W        W86402  42.506  12.794   1.837
22635W        W86403   3.277  32.453   1.888
22636W        W86404  25.075  26.027   0.251
22637W        W86405  41.292  40.988   0.819
22638W        W86406   2.760   2.919  12.976
22639W        W86407  11.299   6.206   0.451
22640W        W86408  15.165   3.345  13.863
22641W        W86409  26.671  19.764  14.502
22642W        W86410  22.109  42.460   3.288
22643W        W86411   3.720  35.036   9.959
22644W        W86412  19.275  35.389   0.926
22645W        W86413   8.667  31.627   0.300
22646W        W86414   7.294  33.007   3.320
22647W        W86415  17.099  17.136   3.689
22648W        W86416   0.820   3.916   3.304
22649W        W86417  10.178   5.239  10.478
22650W        W86418   6.340  15.270   0.907
22651W        W86419  39.828  25.049  14.492
22652W        W86420  14.159   4.251   0.460
22653W        W86421  24.711  18.690   1.737
22654W        W86422   6.768  12.841  13.430
22655W        W86423  13.287  24.146   2.731
22656W        W86424   6.756  36.501   2.717
22657W        W86425   7.911  21.251   1.361
22658W        W86426  16.255   1.736   1.825
22659W        W86427   5.294   9.344  14.985
22660W        W86428  37.482  30.420   3.707
22661W        W86429   1.845  36.897   5.087
22662W        W86430  15.591   1.407   4.784
22663W        W86431  34.968   0.837  10.503
22664W        W86432  18.725   3.807  11.056
22665W        W86433  39.511  12.334  11.972
22666W        W86434  30.969  43.833  14.765
22667W        W86435  29.523  41.817  11.541
22668W        W86436  23.710  34.372  12.062
22669W        W86437  34.462  35.498   0.249
22670W        W86438  42.320  29.469   4.127
22671W        W86439  36.016  23.691  13.800
22672W        W86440  41.392  42.373   3.347
22673W        W86441  21.227  25.583  11.928
22674W        W86442  12.798  33.390   3.705
22675W        W86443   1.925  44.994   1.907
22676W        W86444  16.782  15.745   2.269
22677W        W86445   0.429  15.172   3.236
22678W        W86446  27.456  31.557  14.404
22679W        W86447  43.441   7.699  14.827
22680W        W86448   1.889  26.491  10.458
22681W        W86449  41.426  37.831  11.994
22682W        W86450  29.594  36.542  11.960
22683W        W86451  14.126  22.562  14.956
22684W        W86452   9.768  38.507   1.879
22685W        W86453  26.550  13.172   1.853
22686W        W86454  21.206  32.137   0.860
22687W        W86455  42.426  33.514  11.866
22688W        W86456  15.086  43.499   0.454
22689W        W86457  35.479  26.489   3.716
22690W        W86458  15.617  24.613   3.660
22691W        W86459   0.833  29.031  14.277
22692W        W86460  29.529  17.765  13.475
22693W        W86461  35.103  10.327  14.000
22694W        W86462  14.161  34.614   4.698
22695W        W86463  26.089   0.393  12.983
22696W        W86464   9.214   8.857   4.714
22697W        W86465   1.950   4.433  11.415
22698W        W86466  43.407  35.946  10.414
22699W        W86467  23.722   4.755   3.235
22700W        W86468  27.123  28.668  13.329
22701W        W86469  39.354   1.415  10.997
22702W        W86470  34.587   0.266   4.354
22703W        W86471  27.110  32.116   0.748
22704W        W86472  37.391  41.989  10.449
22705W        W86473  41.901  10.300  13.478
22706W        W86474  24.555   1.278  13.958
22707W        W86475  29.633  14.267   3.676
22708W        W86476  21.677  26.120  14.027
22709W        W86477   9.294  16.281   1.310
22710W        W86478  21.211   3.929   1.399
22711W        W86479  13.116   0.442  11.923
22712W        W86480  44.444  13.322   4.741
22713W        W86481  34.943  14.733  12.947
22714W        W86482   8.402  39.852  11.929
22715W        W86483   1.955   5.827   1.214
22716W        W86484   8.164  36.383  13.451
22717W        W86485  22.010  11.742   0.795
22718W        W86486  28.037  15.239   0.859
22719W        W86487  16.627  24.176  12.575
22720W        W86488  18.284  21.172  14.758
22721W        W86489  11.261  16.802  13.005
22722W        W86490  12.852  39.348  11.392
22723W        W86491  37.519  19.675  10.960
22724W        W86492  30.001  31.648   3.242
22725W        W86493  28.026  20.535  13.338
22726W        W86494  10.159  18.107  12.071
22727W        W86495  32.584  17.061   3.248
22728W        W86496   4.800  40.374  10.962
22729W        W86497   1.932  42.027  13.867
22730W        W86498  42.980   0.840  14.322
22731W        W86499  27.542   6.407  11.928
22732W        W86500  39.522  13.319  11.086
22733W        W86501  28.105   1.808  10.557
22734W        W86502  10.181  17.144   1.694
22735W        W86503  42.284  14.738   1.320
22736W        W86504  32.489  15.787  13.323
22737W        W86505  43.845  21.237   1.721
22738W        W86506  28.508  36.457  10.046
22739W        W86507  39.830   9.176  13.438
22740W        W86508  18.295   0.450   4.156
22741W        W86509  30.541  19.701  14.358
22742W        W86510  35.966  30.976   2.734
22743W        W86511  34.925  44.308   1.301
22744W        W86512   9.801  37.353   3.235
22745W        W86513  44.813  17.567  13.413
22746W        W86514  27.164  33.383   0.820
22747W        W86515  23.601  12.814   0.956
22748W        W86516  43.948  28.580   2.672
22749W        W86517  11.770  26.546   9.989
22750W        W86518   3.455  19.175  12.028
22751W        W86519  43.377  27.994   1.916
22752W        W86520   7.171  17.263  14.881
22753W        W86521  10.656  17.800  11.501
22754W        W86522  15.232  20.098   5.696
22755W        W86523   8.728  18.548   4.671
22756W        W86524  38.864  16.593   2.869
22757W        W86525   7.869   1.961   4.125
22758W        W86526  29.659  44.483   0.352
22759W        W86527  15.127  20.655   2.802
22760W        W86528  22.243   0.342  14.376
22761W        W86529   1.257  16.580  13.929
22762W        W86530  16.099   6.878   1.358
22763W        W86531  10.706  22.598  12.998
22764W        W86532  22.246   1.426   4.636
22765W        W86533  33.525   1.935  10.990
22766W        W86534  21.723  19.631   3.695
22767W        W86535  43.783  39.432   3.738
22768W        W86536  33.606  17.693   9.661
22769W        W86537   0.877  34.587   4.637
22770W        W86538   6.745  36.590  11.874
22771W        W86539  30.541  14.643  11.456
22772W        W86540  36.998  13.348  11.093
22773W        W86541  26.054  42.525   3.765
22774W        W86542  39.932  40.544  11.859
22775W        W86543  20.127   5.250  14.423
22776W        W86544  10.246  33.410  14.319
22777W        W86545  24.611   6.701  11.048
22778W        W86546  29.645  30.606   5.162
22779W        W86547  41.340  37.055  13.355
22780W        W86548  10.671  37.066   4.796
22781W        W86549  22.248  16.794  11.048
22782W        W86550  23.717  21.608   0.483
22783W        W86551  22.220   9.765  11.550
22784W        W86552  21.206  42.461  12.489
22785W        W86553  37.428  32.582   3.687
22786W        W86554   3.929  14.304  10.899
22787W        W86555  17.652   4.440   0.847
22788W        W86556   4.740  21.520  11.020
22789W        W86557   7.677   7.377   4.733
22790W        W86558  28.630   8.266  10.442
22791W        W86559   4.258  42.335  11.385
22792W        W86560  27.194  43.966   0.730
22793W        W86561  23.196  12.331   2.325
22794W        W86562  44.316  35.015   3.307
22795W        W86563   4.937   1.309   4.653
22796W        W86564  35.870  42.281   1.855
22797W        W86565  23.684   9.885   4.354
22798W        W86566  12.648  26.208   3.688
22799W        W86567  13.747  26.190  10.428
22800W        W86568  35.108  29.478  11.010
22801W        W86569  11.311  18.663  12.432
22802W        W86570  13.230  12.139  13.822
22803W        W86571  42.889  11.195   3.722
22804W        W86572  25.685  31.554   0.941
22805W        W86573  10.765  12.355  14.315
22806W        W86574  20.660   2.921  14.489
22807W        W86575  28.585  32.603  12.045
22808W        W86576  43.351  41.522   4.709
22809W        W86577  27.455   1.483  13.808
22810W        W86578   5.887  28.138  13.422
22811W        W86579  24.145  36.924  13.959
22812W        W86580  14.254  41.031   1.837
22813W        W86581  25.625  26.980  10.497
22814W        W86582  15.784  28.959  12.926
22815W        W86583  24.040  29.564  11.503
22816W        W86584   4.828  23.200   4.273
22817W        W86585  43.000  24.153  11.428
22818W        W86586  30.551  39.861  12.408
22819W        W86587   7.410  10.698  12.845
22820W        W86588  28.012   5.220  12.895
22821W        W86589  40.854  44.344  11.872
22822W        W86590   7.401  10.270   4.333
22823W        W86591  36.893   8.847   0.373
22824W        W86592  13.286  44.471  12.903
22825W        W86593  25.692   8.831  11.601
22826W        W86594  29.574  36.406   1.390
22827W        W86595  19.615  14.668   0.402
22828W        W86596  12.227  42.503   0.961
22829W        W86597  26.142  31.567   1.437
22830W        W86598   9.255  29.119   2.903
22831W        W86599   9.643  37.476  12.828
22832W        W86600  40.977   7.307   1.790
22833W        W86601   1.282  14.667   0.765
22834W        W86602   0.379  16.697   2.733
22835W        W86603  35.490  21.088  10.492
22836W        W86604  23.171  37.903   4.686
22837W        W86605  36.909  11.854  12.905
22838W        W86606  37.922  44.342  13.999
22839W        W86607  39.024   5.417   2.880
22840W        W86608  44.912  17.132   9.996
22841W        W86609  26.600  19.182  12.418
22842W        W86610  39.325  37.886   2.869
22843W        W86611  27.657  12.190  13.479
22844W        W86612  15.303  10.666  11.898
22845W        W86613  34.934  19.745   1.447
22846W        W86614   0.288  29.433  12.341
22847W        W86615   8.838  44.951   2.206
22848W        W86616  39.041  13.815   2.714
22849W        W86617   9.644   1.972  12.837
22850W        W86618  36.028  32.620   3.311
22851W        W86619  17.698  44.272   2.789
22852W        W86620   1.294  44.435  13.313
22853W        W86621  43.938  36.982  13.057
22854W        W86622  29.452   5.344  11.080
22855W        W86623  15.712  20.571  12.996
22856W        W86624  21.176  10.694  14.905
22857W        W86625  11.755   0.396   4.183
22858W        W86626  11.218  14.676  14.363
22859W        W86627  39.951   1.387  11.543
22860W        W86628  10.304  19.241  11.907
22861W        W86629  20.096  24.200   5.286
22862W        W86630  42.281  31.436   0.322
22863W        W86631  14.678  23.228  11.059
22864W        W86632  28.090  33.478   2.696
22865W        W86633  29.647   5.198  12.082
22866W        W86634  12.756  23.148  12.551
22867W        W86635  24.040  13.627   4.819
22868W        W86636  22.244  37.450  10.517
22869W        W86637  32.077  15.279   5.694
22870W        W86638  29.157  23.058  13.888
22871W        W86639  10.674  22.704   2.299
22872W        W86640  35.949  21.235   2.379
22873W        W86641  15.642  30.982   0.376
22874W        W86642  22.232  43.825  12.503
22875W        W86643  39.531   3.871  13.038
22876W        W86644   7.335  25.203  11.486
22877W        W86645   7.668   4.272  11.532
22878W        W86646  21.632  33.509  11.943
22879W        W86647  18.266  20.205   0.255
22880W        W86648  13.626  34.014   2.729
22881W        W86649  14.316  36.954  14.820
22882W        W86650  23.997  30.941   2.796
22883W        W86651  22.681  30.467   1.764
22884W        W86652   9.737  21.704   4.798
22885W        W86653   8.848  10.759   4.830
22886W        W86654  23.003  13.603  10.996
22887W        W86655   3.948  34.991   0.889
22888W        W86656  43.767   9.175  10.425
22889W        W86657  41.341  40.803   4.162
22890W        W86658  42.803   9.340  10.437
22891W        W86659   0.276  37.478  11.105
22892W        W86660  38.356  35.502   1.359
22893W        W86661  22.527  15.816   1.288
22894W        W86662   2.925  35.593   3.846
22895W        W86663   6.192  15.162   3.335
22896W        W86664  16.687  35.375  12.897
22897W        W86665  31.094   0.895  14.960
22898W        W86666  11.159  31.507  10.629
22899W        W86667  10.144  26.120   4.786
22900W        W86668  40.355  44.871   3.298
22901W        W86669  27.453  44.828   2.291
22902W        W86670  20.258  41.494   2.766
22903W        W86671   8.303  38.444   2.392
22904W        W86672  35.027  20.533   2.864
22905W        W86673  29.644  16.118   2.695
22906W        W86674   7.376  42.446  13.846
22907W        W86675   8.794  44.331   4.822
22908W        W86676  30.436  34.484  12.028
22909W        W86677  12.694  28.092   3.757
22910W        W86678   8.273  21.023   4.812
22911W        W86679   7.286  37.064   4.120
22912W        W86680  25.028  33.490  11.555
22913W        W86681  19.075  41.826  13.357
22914W        W86682  41.033  42.006  11.952
22915W        W86683  25.526   0.252   0.329
22916W        W86684  44.480  40.498   4.303
22917W        W86685  29.651  39.037  13.413
22918W        W86686   8.793  39.536   2.280
22919W        W86687   4.868  30.086  11.538
22920W        W86688  11.200   4.329  13.929
22921W        W86689  20.178  25.043  10.977
22922W        W86690  29.991  12.710   2.679
22923W        W86691  39.958   6.778  11.440
22924W        W86692  34.903  27.650  13.794
22925W        W86693  33.590  12.132  12.015
22926W        W86694  20.115  32.043  14.871
22927W        W86695  31.487  27.531  11.603
22928W        W86696  39.384  41.015  14.774
22929W        W86697   1.340  28.952  14.381
22930W        W86698   2.874   1.967  11.121
22931W        W86699  21.156   4.732   0.429
22932W        W86700  15.748  27.175  12.961
22933W        W86701  22.546   3.414  10.954
22934W        W86702  18.565  30.125  13.489
22935W        W86703   5.269  16.636   0.341
22936W        W86704  28.032   8.856   4.790
22937W        W86705  20.143  24.584  10.518
22938W        W86706  43.334  10.361   0.748
22939W        W86707  41.815   4.825   3.290
22940W        W86708  15.232  33.892   1.292
22941W        W86709  16.667   4.816   4.189
22942W        W86710  37.000  33.598  14.995
22943W        W86711  27.119  22.597  13.048
22944W        W86712  26.965  43.509  10.522
22945W        W86713   1.304  42.511  14.404
22946W        W86714  28.037  42.394  14.325
22947W        W86715  41.938  22.204   2.759
22948W        W86716  29.634  34.570  13.879
22949W        W86717  18.067  44.393   2.251
22950W        W86718   7.368  17.704   0.414
22951W        W86719  39.909  35.463  12.510
22952W        W86720  32.637   6.724   1.713
22953W        W86721  25.201  29.437  14.310
22954W        W86722  41.498  17.184  13.045
22955W        W86723  39.051  39.897  11.089
22956W        W86724  16.079  29.656  12.993
22957W        W86725  42.494  31.131  13.035
22958W        W86726  14.810   9.675  13.373
22959W        W86727  22.526  10.367   4.116
22960W        W86728  24.486   9.716  13.021
22961W        W86729   6.756  12.245  13.946
22962W        W86730  41.004   6.280  10.527
22963W        W86731  19.191   0.823   3.345
22964W        W86732  35.927  33.034  11.559
22965W        W86733  22.064  12.346  14.020
22966W        W86734   5.259   7.835   1.843
22967W        W86735  27.029  44.794  14.793
22968W        W86736  20.248  23.201   4.686
22969W        W86737  33.562  38.393  10.492
22970W        W86738  37.437  30.624  10.999
22971W        W86739   4.828   4.753   2.800
22972W        W86740  29.072  38.969   0.805
22973W        W86741   3.909  38.544  14.946
22974W        W86742   6.891  12.635   1.261
22975W        W86743  39.923  25.198  11.898
22976W        W86744  24.105  25.149   2.311
22977W        W86745  15.605  41.002   0.440
22978W        W86746  39.839  21.559   4.717
22979W        W86747  23.038   0.843  12.347
22980W        W86748  38.016  35.552   0.946
22981W        W86749  12.167  31.903  10.008
22982W        W86750  23.693   7.867   1.763
22983W        W86751  22.614   7.854   2.700
22984W        W86752  21.133  43.306   4.803
22985W        W86753  10.650  39.027   4.199
22986W        W86754   8.351   3.229   1.292
22987W        W86755   1.867  32.461  12.542
22988W        W86756  34.485  10.321  13.425
22989W        W86757  20.080  17.781   1.934
22990W        W86758  11.136  10.250   4.280
22991W        W86759   3.842  40.485   3.724
22992W        W86760  39.829  32.552  14.459
22993W        W86761   4.382  44.479  13.477
22994W        W86762  32.976  43.498   4.308
22995W        W86763  27.967   3.825   4.730
22996W        W86764   8.836  24.208  12.051
22997W        W86765  29.558  22.531  14.437
22998W        W86766  24.975  42.958  11.539
22999W        W86767  29.529   5.377   1.861
23000W        W86768  38.860  21.144  11.003
23001W        W86769  17.278  12.360   2.246
23002W        W86770  21.145  19.739   2.339
23003W        W86771  29.506   0.416   2.772
23004W        W86772  26.679  29.071   1.264
23005W        W86773   0.408   1.434   1.854
23006W        W86774  44.765  17.695  10.609
23007W        W86775  37.845  33.985  10.593
23008W        W86776  19.617   1.276   2.871
23009W        W86777   9.178  17.731  11.387
23010W        W86778  39.972  39.907  13.542
23011W        W86779  41.976  33.400  13.516
23012W        W86780  32.540  19.618  13.032
23013W        W86781   4.875  43.379  14.773
23014W        W86782  26.059  31.107  11.375
23015W        W86783   4.804  20.750  11.028
23016W        W86784  42.883   0.856   2.890
23017W        W86785  24.210  21.241   4.827
23018W        W86786  44.899  30.643  14.500
23019W        W86787  20.086  37.389   1.362
23020W        W86788  29.554  14.722  11.971
23021W        W86789  37.968  39.374  12.581
23022W        W86790  39.325  19.555   2.313
23023W        W86791  38.938  32.603  10.611
23024W        W86792  28.461  28.111   0.828
23025W        W86793  17.569   3.287   4.668
23026W        W86794   0.758  25.473   4.187
23027W        W86795  38.823  18.566  10.614
23028W        W86796   7.895  41.866   2.179
23029W        W86797  34.543   9.796   2.831
23030W        W86798   9.716  25.588  12.894
23031W        W86799  39.949  10.807  13.491
23032W        W86800   8.270  34.534  13.052
23033W        W86801  22.194  31.629  11.926
23034W        W86802  13.264  32.579  10.499
23035W        W86803  21.169  40.403  10.920
23036W        W86804  36.027  10.263   3.292
23037W        W86805  36.042  14.648   0.424
23038W        W86806  23.566  32.529  12.928
23039W        W86807  19.170  28.458  14.491
23040W        W86808  41.996   7.370   1.250
23041W        W86809   4.893  14.133   2.396
23042W        W86810   5.750  22.082  13.862
23043W        W86811  24.515  21.158  13.857
23044W        W86812  29.017  27.452   4.345
23045W        W86813  15.212  37.503  12.012
23046W        W86814  32.056  17.713  13.430
23047W        W86815  28.611  11.343   5.572
23048W        W86816  18.175   2.283   4.218
23049W        W86817   6.387  25.632  12.076
23050W        W86818   7.864   6.317  14.824
23051W        W86819  40.536  42.817   1.845
23052W        W86820  40.943   8.771   4.329
23053W        W86821   5.736  35.078  14.508
23054W        W86822  42.301   9.756  12.361
23055W        W86823   9.711  18.183  10.499
23056W        W86824  25.488  10.835  14.875
23057W        W86825  28.094  22.008  11.404
23058W        W86826  42.851   2.358   4.294
23059W        W86827  43.455  18.734  13.435
23060W        W86828   3.834  16.264  13.404
23061W        W86829  34.962  34.573  12.344
23062W        W86830  15.598   0.251  14.381
23063W        W86831   8.352  41.969  14.416
23064W        W86832  32.594  38.904  12.075
23065W        W86833  36.866  10.706  10.593
23066W        W86834  42.803  13.228  11.097
23067W        W86835  28.135  16.585  10.496
23068W        W86836  13.298  26.500   2.405
23069W        W86837  33.542  36.476   0.773
23070W        W86838  42.778  40.797   3.372
23071W        W86839  41.304  43.944   4.213
23072W        W86840  24.055   5.720  12.022
23073W        W86841  17.277  39.483  14.328
23074W        W86842   5.751  37.850   2.856
23075W        W86843   5.352   5.225  11.594
23076W        W86844  40.339  28.066   4.140
23077W        W86845  21.217  39.815  14.864
23078W        W86846  18.675  21.515   4.833
23079W        W86847  17.782  22.178   0.899
23080W        W86848  30.574  39.360   3.365
23081W        W86849  25.059  27.970   1.342
23082W        W86850   3.751   4.787   2.342
23083W        W86851  13.298  18.176  13.360
23084W        W86852  13.810  13.127  11.081
23085W        W86853  27.057   7.211   0.870
23086W        W86854  40.453   9.301  14.793
23087W        W86855   6.206  31.898  11.857
23088W        W86856  20.262  11.658  11.492
23089W        W86857  35.088   3.412   2.224
23090W        W86858  31.489  32.137   4.745
23091W        W86859   9.295  38.066   3.683
23092W        W86860  23.699  34.503   2.847
23093W        W86861  38.351  17.758  14.440
23094W        W86862  33.895  33.624   3.249
23095W        W86863  11.839  19.690   0.851
23096W        W86864  20.194  40.434  10.472
23097W        W86865  25.712   7.830  12.392
23098W        W86866  19.642  15.597   3.382
23099W        W86867  25.080  16.595  11.587
23100W        W86868  39.485  33.442   1.290
23101W        W86869   4.377  37.979  14.444
23102W        W86870   5.931   3.261  14.866
23103W        W86871   3.868  33.514  10.048
23104W        W86872  38.347  42.523   1.439
23105W        W86873   0.391  27.636  13.878
23106W        W86874  36.381  16.581  14.319
23107W        W86875  37.500  40.007   2.751
23108W        W86876  21.145  43.433  11.552
23109W        W86877   2.292  15.119   2.294
23110W        W86878  30.148   4.428   3.792
23111W        W86879  40.381  17.171  11.899
23112W        W86880  39.834  33.094   1.315
23113W        W86881  22.072  40.877  14.478
23114W        W86882  30.485  39.523  14.972
23115W        W86883   7.400   9.251  12.012
23116W        W86884  33.999  17.643   5.612
23117W        W86885  20.524  43.890   0.822
23118W        W86886   7.901  11.242   2.710
23119W        W86887  23.204  39.502  11.534
23120W        W86888   5.775  31.406   2.352
23121W        W86889  23.141  36.437   3.650
23122W        W86890  36.535  37.873  11.388
23123W        W86891   8.319  39.348   4.728
23124W        W86892  40.961   8.215  12.961
23125W        W86893  23.537  15.284   2.411
23126W        W86894  28.952  16.215   2.881
23127W        W86895  30.095   9.300  14.853
23128W        W86896  18.074  10.678   1.292
23129W        W86897  26.697  34.095   1.210
23130W        W86898  19.610  38.922  10.078
23131W        W86899  22.570   3.448  14.483
23132W        W86900  29.553  18.179  10.134
23133W        W86901  18.253  41.816   0.342
23134W        W86902  39.059  40.435   4.347
23135W        W86903  30.576  22.681   2.334
23136W        W86904  34.927  19.234   2.241
23137W        W86905  35.483   8.289  12.061
23138W        W86906  19.719  23.102   2.809
23139W        W86907   2.911   6.392   3.149
23140W        W86908  18.656  36.014  11.998
23141W        W86909   7.744  44.296   0.763
23142W        W86910  23.499  22.589   1.709
23143W        W86911   8.314  15.103   0.930
23144W        W86912  17.773  42.797   4.838
23145W        W86913   5.770  16.672   0.856
23146W        W86914  32.433  24.724   1.395
23147W        W86915  13.290  25.969  11.573
23148W        W86916   0.375  15.649   9.993
23149W        W86917  28.937  38.529  14.989
23150W        W86918  39.421   8.232   3.826
23151W        W86919  33.122  36.552  13.339
23152W        W86920  39.810  33.123   3.847
23153W        W86921  26.546   1.470  13.545
23154W        W86922  35.886  34.539  10.975
23155W        W86923  20.263  38.466   3.809
23156W        W86924  21.516  40.381  14.366
23157W        W86925   2.769  25.165   4.350
23158W        W86926  14.703  44.495   2.696
23159W        W86927  39.924  35.932  14.499
23160W        W86928  35.033  20.537   3.845
23161W        W86929  24.208   7.323  14.431
23162W        W86930  40.007   8.234   2.335
23163W        W86931  43.780   6.913  11.611
23164W        W86932  28.551  35.603   1.737
23165W        W86933   6.793  23.116   2.313
23166W        W86934  39.994  33.060  11.972
23167W        W86935  13.715  15.755   0.383
23168W        W86936   0.915  15.127  11.570
23169W        W86937  20.200  37.952   1.912
23170W        W86938   9.711   7.416   3.341
23171W        W86939   0.902   2.764   1.227
23172W        W86940   5.241  32.513  14.847
23173W        W86941  25.564   8.813  13.056
23174W        W86942  21.188  26.075   3.651
23175W        W86943   0.314  14.624  14.984
23176W        W86944  22.677  27.450   1.279
23177W        W86945  43.442  29.017   2.808
23178W        W86946  10.176  15.609   2.202
23179W        W86947  38.502  38.492   0.446
23180W        W86948  32.140  22.690  14.874
23181W        W86949  19.761  33.602  11.871
23182W        W86950  29.946  40.866  13.456
23183W        W86951  43.953  14.808  14.480
23184W        W86952  33.482   2.864   2.259
23185W        W86953   9.702  40.351   2.360
23186W        W86954  38.386  12.693  13.053
23187W        W86955  43.307  26.550   1.782
23188W        W86956   7.715  27.495  13.522
23189W        W86957  33.510  39.446   1.901
23190W        W86958  44.383  40.313   2.685
23191W        W86959  32.045  43.869  10.488
23192W        W86960  27.089  26.491   1.857
23193W        W86961  39.421  21.547   3.364
23194W        W86962   9.350   8.215   1.849
23195W        W86963   9.384  19.724  12.440
23196W        W86964  40.000  16.280  12.913
23197W        W86965  27.649   2.813  12.027
23198W        W86966   2.338  10.260   1.861
23199W        W86967  27.503  25.176   1.301
23200W        W86968  28.545  21.192  14.828
23201W        W86969  30.419  16.315  10.486
23202W        W86970   2.361  41.325  12.029
23203W        W86971  27.457  40.966  10.448
23204W        W86972   6.825  13.199  14.516
23205W        W86973  26.181  26.541   1.226
23206W        W86974  10.248  32.606  12.898
23207W        W86975   1.364   0.439  13.862
23208W        W86976  19.629  42.909   0.870
23209W        W86977  14.714  11.328  13.049
23210W        W86978  17.255   6.383   1.439
23211W        W86979  22.505  15.248  14.833
23212W        W86980  33.952  38.426  11.526
23213W        W86981  17.718  43.424   2.299
23214W        W86982  29.450  39.363   2.688
23215W        W86983  43.335  29.993   3.644
23216W        W86984  32.080  11.666   3.169
23217W        W86985   1.408  26.692  13.884
23218W        W86986   1.779  30.615  13.802
23219W        W86987  29.089  30.439  12.894
23220W        W86988  26.077  40.022  13.994
23221W        W86989  24.709  30.139  11.432
23222W        W86990  22.023  21.727   1.762
23223W        W86991  17.214  13.793  11.930
23224W        W86992  33.071   7.884  10.969
23225W        W86993  22.092  31.091   3.254
23226W        W86994  14.751  34.953  14.782
23227W        W86995  18.583   9.383   1.451
23228W        W86996  43.997   8.675   4.790
23229W        W86997  39.495   8.676  13.320
23230W        W86998   1.911   7.728   1.215
23231W        W86999  11.289  27.105   0.322
23232W        W87000  31.134   2.347  14.420
23233W        W87001  42.863  36.351   4.226
23234W        W87002   9.296  23.068  11.567
23235W        W87003  32.046  40.536  12.502
23236W        W87004  40.311  28.181  11.930
23237W        W87005  27.612  12.271  13.014
23238W        W87006  33.951  13.149  14.370
23239W        W87007   9.321   5.279   4.219
23240W        W87008  27.564  31.085  13.496
23241W        W87009  41.504  41.869   1.889
23242W        W87010  35.551  37.887   3.851
23243W        W87011  10.344  23.183   5.133
23244W        W87012   5.851  41.495   0.481
23245W        W87013  19.132  44.832  10.532
23246W        W87014  25.077   4.826   4.633
23247W        W87015  41.402  44.763   3.702
23248W        W87016  37.067  44.362  13.051
23249W        W87017  22.722  36.097  13.512
23250W        W87018   5.748  42.888  13.960
23251W        W87019  20.215  41.497   0.454
23252W        W87020   8.393  28.046   4.683
23253W        W87021  43.502   4.352   3.164
23254W        W87022  17.234  44.300   0.918
23255W        W87023  10.720  41.314  11.012
23256W        W87024  11.707  26.690  12.553
23257W        W87025  44.470  17.571   0.322
23258W        W87026  12.679  11.776  13.056
23259W        W87027  11.327  14.725   1.270
23260W        W87028  18.722  21.114   4.735
23261W        W87029  15.105  30.527  14.908
23262W        W87030   7.354  21.081   3.753
23263W        W87031   1.741   8.844  11.888
23264W        W87032  33.906  18.725   3.338
23265W        W87033  19.731  41.396   2.351
23266W        W87034  23.127  37.840  12.373
23267W        W87035   0.314  15.607   0.244
23268W        W87036  26.690  41.844  14.489
23269W        W87037  17.683   9.382   1.907
23270W        W87038  18.122   1.262  13.006
23271W        W87039  35.586  34.993   3.768
23272W        W87040  10.847  39.551  13.055
23273W        W87041   7.700  11.733  13.842
23274W        W87042  22.579   3.713  14.862
23275W        W87043  20.085  14.782   1.278
23276W        W87044  26.115  19.121  13.857
23277W        W87045  21.155  16.277   1.916
23278W        W87046  35.989   0.849   0.289
23279W        W87047  41.845  13.343  13.813
23280W        W87048  10.250  25.186   0.464
23281W        W87049   0.325  37.531   3.832
23282W        W87050   7.763  38.524   1.926
23283W        W87051  29.083  13.714  11.917
23284W        W87052  36.571  41.937   0.455
23285W        W87053   7.255  22.696  13.542
23286W        W87054  18.164   8.338   1.724
23287W        W87055  15.171  18.572  12.547
23288W        W87056  27.071  13.334   3.346
23289W        W87057   0.877  33.519   2.297
23290W        W87058  26.626  19.134   1.723
23291W        W87059  26.572   2.929  13.343
23292W        W87060  14.751  24.119   2.210
23293W        W87061   9.788  13.690   2.775
23294W        W87062  23.539  25.141   3.193
23295W        W87063  23.214  29.920   1.408
23296W        W87064  32.547  25.114   3.722
23297W        W87065  42.475   7.813   4.206
23298W        W87066  10.190   2.323  14.763
23299W        W87067  43.936  29.507   3.387
23300W        W87068  41.041   9.844   1.729
23301W        W87069  35.420  17.093  10.933
23302W        W87070  15.706   9.819   4.776
23303W        W87071  12.799   8.771  11.048
23304W        W87072   8.900  21.051   0.845
23305W        W87073   3.448  44.388   2.374
23306W        W87074  15.610   4.744  13.897
23307W        W87075  19.285   4.331   0.934
23308W        W87076  25.094  28.001   3.361
23309W        W87077  28.152   1.909   4.244
23310W        W87078  11.794  28.111   3.291
23311W        W87079   6.259  22.008   1.414
23312W        W87080  36.925  19.119  12.030
23313W        W87081  39.422  37.958   0.839
23314W        W87082   2.910  31.627  11.033
23315W        W87083  42.421  29.656  13.832
23316W        W87084  38.476  20.121  13.428
23317W        W87085  16.727   3.237   2.814
23318W        W87086  35.533  14.254  14.418
23319W        W87087  23.146   2.399  14.423
23320W        W87088  19.636  14.753   2.297
23321W        W87089  42.887  10.155  12.556
23322W        W87090  20.074   8.832   0.245
23323W        W87091  11.633  34.986  12.947
23324W        W87092  36.947  38.061  13.830
23325W        W87093  39.461  31.571  13.400
23326W        W87094   2.312  12.118  11.074
23327W        W87095  34.603  10.274   3.239
23328W        W87096  38.005   3.290  12.559
23329W        W87097   6.682  18.071  10.627
23330W        W87098   5.826  40.440  11.564
23331W        W87099  17.298  13.629  12.566
23332W        W87100   0.903  17.197  14.470
23333W        W87101  28.668  15.620  10.425
23334W        W87102  18.054  19.182  10.528
23335W        W87103  25.969   1.804  14.454
23336W        W87104  19.220  27.072   3.228
23337W        W87105  29.921  22.066   0.743
23338W        W87106  24.995  21.149   2.678
23339W        W87107  20.163  16.804   3.728
23340W        W87108  24.214  33.540   1.916
23341W        W87109  44.946   1.361   0.881
23342W        W87110  28.439   2.349   2.815
23343W        W87111  22.723   3.733   2.717
23344W        W87112  22.100  43.913   2.745
23345W        W87113   5.851  10.752   4.288
23346W        W87114  26.618  44.329  13.831
23347W        W87115  35.504   2.343   3.378
23348W        W87116  16.624  16.271  14.886
23349W        W87117  30.020  44.778  14.481
23350W        W87118  32.009  34.608  10.989
23351W        W87119  43.370  20.237  12.484
23352W        W87120  24.142  22.062  13.057
23353W        W87121   8.676   1.870   4.701
23354W        W87122  15.126  20.053  11.538
23355W        W87123  11.157  22.733  12.388
23356W        W87124  31.419  23.025  13.979
23357W        W87125  43.396  16.184  10.608
23358W        W87126  15.589  25.583  14.916
23359W        W87127  37.446  20.742  13.007
23360W        W87128   7.673   8.346   2.735
23361W        W87129  16.315  20.724  10.639
23362W        W87130  37.064   9.822   4.164
23363W        W87131   9.386   1.963   3.777
23364W        W87132  23.545   2.833   4.116
23365W        W87133   8.796  23.067  12.030
23366W        W87134  18.731  44.470  14.478
23367W        W87135  33.570  25.106  14.438
23368W        W87136  43.495  35.584   4.176
23369W        W87137   9.225  18.269  12.915
23370W        W87138  33.554  29.473   4.307
23371W        W87139  42.496  39.930   3.635
23372W        W87140   7.218  12.328  13.933
23373W        W87141  16.110  18.674   3.672
23374W        W87142  38.932  44.262   3.264
23375W        W87143  38.497   1.352  11.439
23376W        W87144  10.695  13.282  14.299
23377W        W87145  20.625  33.435   0.811
23378W        W87146   6.687  32.113  11.040
23379W        W87147  15.221  44.937   3.756
23380W        W87148   0.421   3.439  13.841
23381W        W87149  22.651  38.409  13.399
23382W        W87150  19.769   4.234  10.457
23383W        W87151  19.601  38.472   3.716
23384W        W87152  12.232  12.625  10.926
23385W        W87153  28.181  36.925  12.963
23386W        W87154  40.535   8.245   5.797
23387W        W87155   0.476   0.935   1.340
23388W        W87156  39.543  15.195   3.178
23389W        W87157  10.634  25.633   3.167
23390W        W87158  31.501  15.725   5.212
23391W        W87159  28.589  36.469   4.625
23392W        W87160  17.269  12.166  13.986
23393W        W87161  23.632   9.182   1.323
23394W        W87162  24.644  20.273   3.764
23395W        W87163  24.630  40.973  14.471
23396W        W87164  38.496  36.571   1.773
23397W        W87165  14.222  35.101  14.353
23398W        W87166  25.216  26.154   1.442
23399W        W87167  37.518  37.388   2.241
23400W        W87168  28.129  27.533   4.724
23401W        W87169  17.565  43.891   3.862
23402W        W87170  28.615  32.399   2.779
23403W        W87171   7.822  39.523  11.938
23404W        W87172  41.378  42.933  11.912
23405W        W87173  16.264  16.682   0.307
23406W        W87174  14.711  38.430  13.350
23407W        W87175  23.012  24.585  10.922
23408W        W87176  10.217   9.865   2.662
23409W        W87177   5.292  25.088  14.919
23410W        W87178  15.703  30.528   3.163
23411W        W87179   9.289   6.771  14.506
23412W        W87180  32.114  30.636   2.780
23413W        W87181  14.295   0.361   2.288
23414W        W87182   8.799  40.341   1.444
23415W        W87183   8.659  39.013   1.438
23416W        W87184  28.548  33.391  13.920
23417W        W87185  38.951  27.549  13.402
23418W        W87186  40.852   1.951   4.329
23419W        W87187   0.402  15.163  14.885
23420W        W87188  42.793  43.917  13.359
23421W        W87189  38.018  30.629  11.558
23422W        W87190   3.930  23.163   2.417
23423W        W87191  36.080  31.067  12.979
23424W        W87192  31.088  21.731   1.709
23425W        W87193   1.795   1.744  11.964
23426W        W87194   7.847  10.756   4.322
23427W        W87195  11.371  41.314  14.365
23428W        W87196   5.350   2.234  11.987
23429W        W87197  27.008  37.940   1.391
23430W        W87198  41.498  40.977   3.727
23431W        W87199  33.501  14.175   4.775
23432W        W87200  10.869  24.121  13.508
23433W        W87201  40.810  30.581   0.870
23434W        W87202   1.746  12.757  11.932
23435W        W87203  12.730  28.462  14.325
23436W        W87204  33.558  40.368   3.744
23437W        W87205  28.115  24.582  10.887
23438W        W87206  43.915  28.093   0.318
23439W        W87207   0.898   7.900  10.625
23440W        W87208   9.741  35.397   2.239
23441W        W87209  40.897  23.584  12.373
23442W        W87210  31.595  33.487  12.509
23443W        W87211   9.380   2.472  13.832
23444W        W87212   7.245  14.257   2.186
23445W        W87213  12.631  37.895   4.829
23446W        W87214   3.747  21.031   2.415
23447W        W87215  22.545  19.708  11.546
23448W        W87216   7.206  22.708  12.914
23449W        W87217  43.778  15.765  10.471
23450W        W87218  25.193  10.793   9.632
23451W        W87219  37.868   3.848  11.468
23452W        W87220  31.637  21.518  11.424
23453W        W87221  29.994   0.837  11.526
23454W        W87222  43.906  37.409   4.313
23455W        W87223  13.134   2.314   4.318
23456W        W87224  43.350  28.630   2.321
23457W        W87225   3.779  27.170   4.623
23458W        W87226  37.947  13.123  11.961
23459W        W87227  14.607   3.792  11.869
23460W        W87228   3.216  30.918   1.703
23461W        W87229  27.674  24.074  11.904
23462W        W87230  13.820  16.116   3.634
23463W        W87231  38.859  42.780  13.848
23464W        W87232  27.509  36.908  14.873
23465W        W87233  28.494   1.840   3.328
23466W        W87234   2.339  44.271   4.240
23467W        W87235  21.235  39.414   0.304
23468W        W87236  13.729  44.934   1.882
23469W        W87237   2.897   3.330  11.938
23470W        W87238  26.632  15.232  14.346
23471W        W87239  42.931  26.066  14.365
23472W        W87240  14.314  31.006  10.496
23473W        W87241  37.956   2.459  13.511
23474W        W87242  22.150  42.390   2.678
23475W        W87243  18.188  27.089  14.028
23476W        W87244  37.980  36.434  11.498
23477W        W87245  29.629   0.261  12.440
23478W        W87246  37.963  37.493  13.330
23479W        W87247  43.457   8.830   1.713
23480W        W87248  20.246  35.029   0.250
23481W        W87249  14.728  11.830  13.408
23482W        W87250  43.421   3.323  14.931
23483W        W87251  26.576  42.955   3.180
23484W        W87252  43.010   1.951   2.180
23485W        W87253  10.768  21.030   4.639
23486W        W87254  29.492  32.000   1.724
23487W        W87255  44.447  15.680   5.205
23488W        W87256  31.126   8.722   5.230
23489W        W87257   5.374   3.292  13.473
23490W        W87258  22.683  31.528   1.262
23491W        W87259   8.316  42.385  11.935
23492W        W87260  13.759  12.188   4.290
23493W        W87261  28.011  23.193  13.827
23494W        W87262   1.892  26.476  11.590
23495W        W87263   6.272   7.851   5.175
23496W        W87264  23.604  44.391  12.434
23497W        W87265  43.966  24.592  14.890
23498W        W87266   7.693  26.470  14.839
23499W        W87267  35.952  24.079  14.848
23500W        W87268  33.429  24.521   1.813
23501W        W87269   6.920  10.382   0.917
23502W        W87270  34.873  42.527   0.772
23503W        W87271  18.722  16.246   9.972
23504W        W87272  38.461   0.397   0.401
23505W        W87273  23.617  13.612   0.773
23506W        W87274  44.963   3.738   2.337
23507W        W87275  26.016   4.301   3.701
23508W        W87276  31.454  30.002   4.306
23509W        W87277  15.124  20.610   4.762
23510W        W87278  32.081   0.281  11.005
23511W        W87279   3.376  14.593   2.196
23512W        W87280  15.641   4.928  11.374
23513W        W87281  41.040  42.811  11.002
23514W        W87282  18.236  22.716  12.346
23515W        W87283  23.077   6.237  12.842
23516W        W87284  35.017  25.540   0.760
23517W        W87285  43.941   2.926  13.425
23518W        W87286   3.882  10.201  13.868
23519W        W87287   6.800  18.240   3.830
23520W        W87288  11.708  41.309   0.816
23521W        W87289  31.551  21.534  11.948
23522W        W87290  35.973  19.639  14.303
23523W        W87291  17.749  16.577  13.868
23524W        W87292  30.002  32.016  12.928
23525W        W87293  33.407   7.288   2.393
23526W        W87294   2.912  24.560   4.626
23527W        W87295  27.115  34.907  10.898
23528W        W87296   4.795  24.131   0.472
23529W        W87297  12.167  20.621   4.644
23530W        W87298  10.852  42.779  10.552
23531W        W87299  11.727  38.829  12.934
23532W        W87300  42.388  43.507  12.938
23533W        W87301   3.370  29.662   2.891
23534W        W87302  34.472  10.684  11.391
23535W        W87303  38.379   3.826  11.951
23536W        W87304  43.508  42.463  13.975
23537W        W87305  18.673  26.544   1.395
23538W        W87306  42.401   8.216  11.941
23539W        W87307   8.773   1.262   4.276
23540W        W87308   9.291  30.160   0.287
23541W        W87309  44.372   9.258  11.487
23542W        W87310  23.999  23.057  13.365
23543W        W87311   8.811  26.048  11.931
23544W        W87312  16.687  21.157  10.481
23545W        W87313  24.539  44.984   2.812
23546W        W87314  34.541   5.781   0.804
23547W        W87315  18.096  26.208  14.971
23548W        W87316  25.038  13.340   2.210
23549W        W87317  31.000  33.094  14.875
23550W        W87318  29.481  28.023   3.351
23551W        W87319  13.670   7.901   3.841
23552W        W87320  26.568   1.462   1.903
23553W        W87321  14.285  33.605   2.384
23554W        W87322  15.294  31.080   2.238
23555W        W87323  13.802  13.753   1.883
23556W        W87324  20.214  27.992  13.818
23557W        W87325  34.409  18.103  12.490
23558W        W87326  40.494  20.036  10.905
23559W        W87327  38.958   3.927  10.044
23560W        W87328   1.312  43.971   1.930
23561W        W87329  40.313  43.957  13.398
23562W        W87330  32.069  33.480   3.152
23563W        W87331  41.850  37.964  10.409
23564W        W87332  12.837  17.194   0.312
23565W        W87333  14.120  33.418   1.309
23566W        W87334  20.163  19.084  11.425
23567W        W87335  37.974  14.779   4.273
23568W        W87336  33.559  24.524   1.244
23569W        W87337  31.919   1.392  13.873
23570W        W87338  43.348  10.824   0.843
23571W        W87339   8.785  44.478  14.002
23572W        W87340  23.181  22.543   0.746
23573W        W87341  18.710  15.780  14.007
23574W        W87342  32.889  33.010  10.542
23575W        W87343   9.365  28.098  13.978
23576W        W87344   4.288  29.663   1.386
23577W        W87345   1.781  29.503   2.285
23578W        W87346  19.173  39.389  10.578
23579W        W87347  36.380  28.103  13.016
23580W        W87348  33.003  17.289   3.828
23581W        W87349  44.999   2.254  13.041
23582W        W87350  42.418  37.988  11.030
23583W        W87351   5.843  14.150  14.856
23584W        W87352  29.554   9.329  12.492
23585W        W87353  35.510  20.595  14.943
23586W        W87354  28.592  17.643  14.861
23587W        W87355  32.910  43.766  14.975
23588W        W87356  16.090  26.047  10.158
23589W        W87357  25.603  42.798   1.770
23590W        W87358  25.564  18.695  10.961
23591W        W87359  33.383  21.675   4.148
23592W        W87360   4.374  35.502   1.810
23593W        W87361   4.738   5.384  13.547
23594W        W87362  15.246   4.280   2.805
23595W        W87363  42.795  35.596  13.402
23596W        W87364  27.474   9.744  11.073
23597W        W87365  43.924  41.983  13.014
23598W        W87366  14.152   8.751   2.695
23599W        W87367   1.264  26.029  13.526
23600W        W87368  23.660  36.019   1.412
23601W        W87369   1.450   5.397   3.275
23602W        W87370  24.977  18.053   3.770
23603W        W87371  16.090  31.064   0.476
23604W        W87372  33.597  39.361  13.007
23605W        W87373   9.750   9.285  13.515
23606W        W87374  27.005  29.545  13.022
23607W        W87375  39.484  42.383   3.347
23608W        W87376  36.395  17.558   4.163
23609W        W87377  36.430   1.477   3.678
23610W        W87378   3.949  29.534   0.321
23611W        W87379  43.774  29.611   3.743
23612W        W87380  36.041  16.604  10.520
23613W        W87381  35.060   4.867   0.446
23614W        W87382  36.409  32.898  14.295
23615W        W87383  34.438  24.208   2.808
23616W        W87384  15.190  28.527  12.376
23617W        W87385  17.183  28.449   2.883
23618W        W87386  35.951  11.791   5.272
23619W        W87387  11.649  25.479   1.359
23620W        W87388   0.310  16.727   3.746
23621W        W87389   7.178  35.453  14.765
23622W        W87390  34.970  27.157  11.565
23623W        W87391  24.093  11.307   4.164
23624W        W87392  24.560  43.428   1.311
23625W        W87393  12.312  12.702   5.785
23626W        W87394  32.497   3.805   0.778
23627W        W87395  40.005  24.700   4.239
23628W        W87396  17.640   2.736  11.970
23629W        W87397  16.156  34.037   4.153
23630W        W87398  34.381  38.369   4.123
23631W        W87399   9.379  14.744  11.858
23632W        W87400   9.848  17.217  14.398
23633W        W87401  33.429  21.065  14.788
23634W        W87402  31.928  38.964   3.837
23635W        W87403  24.520  36.381  10.957
23636W        W87404  19.206  42.339  14.375
23637W        W87405  29.006   0.378  13.839
23638W        W87406  11.336  32.994   4.350
23639W        W87407  31.122  34.438   2.239
23640W        W87408  36.524   5.855  14.277
23641W        W87409   7.836  41.332   2.213
23642W        W87410  27.070   0.332  12.353
23643W        W87411  18.243  29.431   3.194
23644W        W87412  28.023  15.729  10.441
23645W        W87413  42.031  11.371   0.801
23646W        W87414  41.430  19.619  14.934
23647W        W87415  20.144  35.499   0.956
23648W        W87416  44.411  19.149   3.731
23649W        W87417  38.006  28.132   3.213
23650W        W87418  34.987   1.797  13.517
23651W        W87419   3.380   3.289  11.546
23652W        W87420  18.291  11.659   4.686
23653W        W87421  24.551  20.724  14.973
23654W        W87422  34.098  25.614   1.793
23655W        W87423  18.641   9.179  14.927
23656W        W87424  28.087  14.229   0.955
23657W        W87425  27.069  10.669  13.368
23658W        W87426   1.936  40.315   2.866
23659W        W87427   8.211   7.173   0.937
23660W        W87428  21.611   9.195   2.729
23661W        W87429  39.460  24.478  13.362
23662W        W87430  10.855  21.240  13.457
23663W        W87431  15.592  34.406  14.951
23664W        W87432  16.730  14.670   1.909
23665W        W87433   8.192  36.391  10.953
23666W        W87434   7.891  22.680  14.965
23667W        W87435   9.342  19.697  12.904
23668W        W87436  36.848  33.899  14.429
23669W        W87437  35.942  44.971   2.892
23670W        W87438  20.164   3.272   1.772
23671W        W87439   7.200   8.830  12.945
23672W        W87440  15.281  36.498   3.284
23673W        W87441  31.521   4.328   1.281
23674W        W87442  20.169  24.551   0.317
23675W        W87443  13.811  31.550  14.861
23676W        W87444   1.272  41.002  11.541
23677W        W87445   1.848  23.068   3.220
23678W        W87446   0.421  26.056  11.879
23679W        W87447  37.876  21.544  14.853
23680W        W87448  34.987  37.381   4.609
23681W        W87449   6.696  20.709   3.667
23682W        W87450   9.773  21.164   4.677
23683W        W87451   4.323  24.047   0.867
23684W        W87452  32.058  39.877   3.242
23685W        W87453  22.081   0.476  11.912
23686W        W87454  13.751  41.853  12.461
23687W        W87455  13.299   6.426   3.859
23688W        W87456  11.250   9.387  14.826
23689W        W87457   3.937  13.289  13.513
23690W        W87458  16.615  36.055  12.501
23691W        W87459  44.872  12.762  13.364
23692W        W87460  35.457  37.579   3.680
23693W        W87461  31.455  23.151  11.918
23694W        W87462   4.803  30.127  11.860
23695W        W87463  37.922  33.952  12.339
23696W        W87464  20.654  42.818   4.832
23697W        W87465   6.249  40.486  11.602
23698W        W87466  36.515  23.035   4.613
23699W        W87467  22.740  35.998   2.395
23700W        W87468  29.431   3.364  10.407
23701W        W87469  13.721  42.424  14.313
23702W        W87470   5.426   9.383  11.112
23703W        W87471  41.955   6.298  10.460
23704W        W87472  31.126  25.976   3.351
23705W        W87473  35.589  16.755   9.446
23706W        W87474   1.959   1.853   2.392
23707W        W87475  15.648  11.779  10.994
23708W        W87476  26.129  36.580   0.333
23709W        W87477  27.158   0.823  12.979
23710W        W87478   6.288  37.465   4.694
23711W        W87479  43.369   6.419   2.669
23712W        W87480   0.294  35.978   1.882
23713W        W87481  25.985  21.705   4.132
23714W        W87482  44.768   3.721  12.010
23715W        W87483  43.340  20.707  13.348
23716W        W87484  14.783  29.984   3.720
23717W        W87485  32.125   6.896  12.352
23718W        W87486  28.608   5.761   2.798
23719W        W87487   0.382  41.914  12.404
23720W        W87488   2.795  35.089   2.288
23721W        W87489  15.738  38.387  11.053
23722W        W87490   8.225   3.847  12.934
23723W        W87491   6.701  32.099  11.607
23724W        W87492  14.213  33.971   4.211
23725W        W87493  40.499  26.671  14.406
23726W        W87494  44.471  21.112  12.535
23727W        W87495  22.625  38.423   2.723
23728W        W87496  18.054   0.808   3.197
23729W        W87497  36.863  28.090  13.910
23730W        W87498  14.128  29.944   0.925
23731W        W87499  15.604  12.857  10.124
23732W        W87500   6.408   5.322   2.357
23733W        W87501  41.818  32.007  10.623
23734W        W87502  10.647  34.553  13.801
23735W        W87503   6.838  39.056  12.057
23736W        W87504  25.197  35.942  13.998
23737W        W87505  16.094  12.216   2.783
23738W        W87506   6.213  20.689   4.626
23739W        W87507  42.793  42.880  14.497
23740W        W87508  25.558  42.422  13.521
23741W        W87509  43.938  22.742   1.808
23742W        W87510  26.058  17.157  14.797
23743W        W87511  44.814  41.041  13.042
23744W        W87512  29.623  33.482  14.837
23745W        W87513  11.856  33.875  14.414
23746W        W87514  24.121  29.035  14.286
23747W        W87515  30.090  42.502   2.307
23748W        W87516   3.895  13.333  11.976
23749W        W87517   1.289  20.156   1.347
23750W        W87518  18.587   3.428   9.988
23751W        W87519  10.213  18.550  13.425
23752W        W87520  42.966  22.997  13.992
23753W        W87521  11.766  25.130   3.823
23754W        W87522  10.730  32.024   3.720
23755W        W87523   5.269   2.793  13.420
23756W        W87524  28.161  20.650  10.005
23757W        W87525  18.671  19.176  12.091
23758W        W87526  35.481  29.098  12.412
23759W        W87527   9.281   2.826   3.766
23760W        W87528  12.203  19.094   1.417
23761W        W87529   3.328  11.814   0.344
23762W        W87530  40.031  21.050   1.844
23763W        W87531  34.108  20.038   4.764
23764W        W87532  21.571  43.926   1.248
23765W        W87533   4.932  29.052   1.916
23766W        W87534   4.890  28.961   3.362
23767W        W87535  12.255  14.589   2.714
23768W        W87536  44.361  31.562  13.010
23769W        W87537  29.043  43.874   4.721
23770W        W87538   1.896  11.169   3.277
23771W        W87539  40.846  39.882   0.729
23772W        W87540  44.919  10.817  14.315
23773W        W87541  33.577  42.922   3.667
23774W        W87542  15.675   9.266   1.864
23775W        W87543  14.305   8.667  13.041
23776W        W87544  32.082   3.857   5.099
23777W        W87545  34.052  43.429  13.447
23778W        W87546  14.334  38.054  13.342
23779W        W87547  35.583  36.388  11.609
23780W        W87548  24.583   3.227  10.924
23781W        W87549  10.842  24.607   0.855
23782W        W87550  10.153   9.273   3.219
23783W        W87551  16.293  11.698  12.505
23784W        W87552   2.302  34.481   0.878
23785W        W87553  33.072  34.377  14.476
23786W        W87554  19.565   8.808  11.997
23787W        W87555  38.354  18.082   2.856
23788W        W87556  41.893   4.821  11.590
23789W        W87557   5.693  40.405   3.269
23790W        W87558  12.816  34.447  12.855
23791W        W87559  30.145  20.158   3.253
23792W        W87560  44.840  19.239   3.213
23793W        W87561   7.787  27.678   1.785
23794W        W87562   1.274  40.807  14.958
23795W        W87563   3.723   4.854  13.438
23796W        W87564   9.381  39.898  14.904
23797W        W87565  19.091  38.934  12.965
23798W        W87566  14.244  39.988  11.374
23799W        W87567  38.995  40.371   2.317
23800W        W87568   8.728  13.693  10.626
23801W        W87569  13.197   3.820   1.378
23802W        W87570  34.064  38.461   3.228
23803W        W87571  32.571   1.967   3.764
23804W        W87572  41.798  34.410   0.418
23805W        W87573  19.240  12.772  12.958
23806W        W87574   1.885  40.019   0.741
23807W        W87575  38.045  42.387  11.485
23808W        W87576   9.791  26.558   0.473
23809W        W87577  28.960  24.975  14.949
23810W        W87578  43.487   3.893   3.717
23811W        W87579  42.515  10.796  11.896
23812W        W87580  39.968   7.793  12.012
23813W        W87581   2.458  15.630  10.535
23814W        W87582  28.134  15.700   0.275
23815W        W87583  16.203  15.771   2.345
23816W        W87584  31.599  38.996   4.246
23817W        W87585  34.101   3.220  11.418
23818W        W87586   4.339  35.369  14.952
23819W        W87587  40.950  33.497  10.593
23820W        W87588   2.405   0.928   0.937
23821W        W87589   4.237  43.890   4.633
23822W        W87590   1.897  31.955  11.884
23823W        W87591  43.301  29.006  13.312
23824W        W87592   7.302  12.659  12.886
23825W        W87593  18.576  44.439   1.427
23826W        W87594  34.012   6.212  12.384
23827W        W87595  29.065   1.938  11.883
23828W        W87596  39.930  25.098  10.468
23829W        W87597  29.580  43.459  14.498
23830W        W87598  44.315  33.105   2.285
23831W        W87599  39.894  39.012   3.178
23832W        W87600  39.387  10.254  11.003
23833W        W87601  25.637  29.958  13.406
23834W        W87602  31.478  11.781   4.287
23835W        W87603  25.595  18.122   3.825
23836W        W87604  15.284   0.298   1.410
23837W        W87605  30.161  31.497  14.878
23838W        W87606  19.267   0.789  13.033
23839W        W87607  17.590  15.610  11.449
23840W        W87608  34.867  16.703   9.998
23841W        W87609  44.987   6.184   2.782
23842W        W87610   8.380   1.854   3.640
23843W        W87611  25.486  24.088  14.792
23844W        W87612  36.920  20.553  13.850
23845W        W87613  32.923   8.191  12.958
23846W        W87614   6.718  35.425  11.552
23847W        W87615   6.291  19.139  10.934
23848W        W87616  16.583   4.214   1.893
23849W        W87617  35.358  18.749   4.836
23850W        W87618  39.994  24.595  12.361
23851W        W87619   4.220   2.933  14.478
23852W        W87620   5.749  22.213   1.871
23853W        W87621  18.169  13.107  14.306
23854W        W87622  22.552  12.700  13.793
23855W        W87623  16.627  30.579  14.816
23856W        W87624   7.691  26.194  11.422
23857W        W87625  44.479  22.504   3.155
23858W        W87626  28.480  25.176   2.723
23859W        W87627  31.118   8.179  13.327
23860W        W87628   4.250  44.337   2.246
23861W        W87629   5.339  39.886   1.852
23862W        W87630  24.115  10.784   0.424
23863W        W87631  11.319  34.579   0.919
23864W        W87632   6.363  13.686   4.304
23865W        W87633   5.295   6.394   0.329
23866W        W87634  14.159  25.596   2.335
23867W        W87635  26.962  22.169  10.622
23868W        W87636  42.902  22.225  12.897
23869W        W87637  16.194   4.397  13.528
23870W        W87638   2.455   0.847  10.091
23871W        W87639  39.439  41.936  14.804
23872W        W87640  36.005  17.697   0.870
23873W        W87641  10.253  11.769  13.047
23874W        W87642  43.499  24.499  13.850
23875W        W87643  38.964  41.943   3.236
23876W        W87644   1.360  39.391   2.690
23877W        W87645   5.361  39.527   3.356
23878W        W87646  38.831  33.072  12.942
23879W        W87647  15.135  39.833   2.700
23880W        W87648   6.222  24.184   5.112
23881W        W87649  31.954   3.406   1.919
23882W        W87650  18.069  38.562   1.695
23883W        W87651  25.103  27.949  13.503
23884W        W87652  32.603  17.646  11.913
23885W        W87653  33.014  11.325   4.233
23886W        W87654  10.248  44.876   0.320
23887W        W87655   6.213  16.158   1.218
23888W        W87656  43.889   2.386  12.422
23889W        W87657  44.424  15.119   0.792
23890W        W87658   5.727  11.756  11.903
23891W        W87659  20.526  44.821  11.916
23892W        W87660   2.458  18.185   4.194
23893W        W87661  36.416  32.409   9.606
23894W        W87662  23.124  44.782   0.245
23895W        W87663  13.715  18.573   2.277
23896W        W87664  38.026  38.837  12.038
23897W        W87665  31.481   9.860   4.597
23898W        W87666   5.782  28.009   2.770
23899W        W87667  26.506  10.699  12.026
23900W        W87668  11.742  41.470   2.407
23901W        W87669  43.406  24.586   2.230
23902W        W87670  38.530  29.580   1.259
23903W        W87671  32.546   1.942   3.319
23904W        W87672  10.741  44.419  13.354
23905W        W87673  12.295  16.785   4.780
23906W        W87674   5.337  17.091  10.032
23907W        W87675  41.419  43.276  12.541
23908W        W87676  28.649  31.523  11.051
23909W        W87677   9.807  39.400   4.675
23910W        W87678  10.656  34.118  12.359
23911W        W87679  35.056  25.541   4.807
23912W        W87680  42.920  32.390   1.852
23913W        W87681   6.292  10.169   2.277
23914W        W87682   0.259   5.201  12.552
23915W        W87683  13.237  32.035  14.409
23916W        W87684   6.879  26.681  13.827
23917W        W87685   0.960  18.114  14.444
23918W        W87686  38.446  42.897   3.189
23919W        W87687   6.380  12.671  13.859
23920W        W87688  39.413  21.654   1.905
23921W        W87689  18.256  26.610   4.295
23922W        W87690  44.976  25.511   1.404
23923W        W87691  31.091   6.366   4.795
23924W        W87692  35.497  12.721  10.643
23925W        W87693  22.512  30.050  11.920
23926W        W87694  12.821   1.255   1.347
23927W        W87695   8.699  32.010   1.839
23928W        W87696  30.036  31.990  11.979
23929W        W87697  35.051  14.156   3.147
23930W        W87698  13.624  41.327  12.901
23931W        W87699  26.120  33.058  13.049
23932W        W87700  13.606  36.471  11.938
23933W        W87701  28.474  16.693   0.328
23934W        W87702   5.789   3.894  11.966
23935W        W87703  27.618  35.575   0.419
23936W        W87704  13.315  37.416  11.856
23937W        W87705  19.095  28.575   2.335
23938W        W87706  32.611  20.162  12.076
23939W        W87707  39.558  12.831  13.526
23940W        W87708  13.715  40.462   4.681
23941W        W87709  40.438  28.148  14.309
23942W        W87710   2.884  12.850  12.559
23943W        W87711  32.516  35.946   1.391
23944W        W87712   0.887  29.481   1.223
23945W        W87713  25.201  28.147  10.453
23946W        W87714  44.008  44.874  11.585
23947W        W87715  38.979  10.878   3.647
23948W        W87716  41.510  24.689  12.825
23949W        W87717  21.255  36.513  13.308
23950W        W87718  30.922  15.782   4.117
23951W        W87719  25.526   6.721   3.280
23952W        W87720  20.052   6.681  12.503
23953W        W87721  25.182   5.913   0.890
23954W        W87722  11.795   5.380   0.756
23955W        W87723  42.505  29.986   0.803
23956W        W87724   8.292   0.332  11.108
23957W        W87725  34.054  19.242   0.350
23958W        W87726  25.535  11.353   1.245
23959W        W87727   4.885  18.102  13.882
23960W        W87728  30.541   9.756  12.065
23961W        W87729  37.068  19.720  12.053
23962W        W87730  20.670   9.856   2.706
23963W        W87731  38.076   0.825   3.273
23964W        W87732  29.522  16.278  11.547
23965W        W87733  38.452   2.895  14.854
23966W        W87734  13.191  38.537   3.814
23967W        W87735   0.841  32.513  11.459
23968W        W87736   6.900  43.769   1.365
23969W        W87737   0.384  11.335  10.929
23970W        W87738  13.621  35.375   0.364
23971W        W87739  29.125  22.181   4.810
23972W        W87740  15.225  14.824  13.440
23973W        W87741  30.539   6.377   1.790
23974W        W87742   8.294   5.437  10.633
23975W        W87743  16.813   0.788   4.343
23976W        W87744  18.647  44.963   1.819
23977W        W87745   2.370   8.792   2.798
23978W        W87746  43.303  20.059  11.468
23979W        W87747  40.995  27.478   3.351
23980W        W87748  33.591   4.775  11.494
23981W        W87749   5.292  10.290  11.104
23982W        W87750   0.885  17.768   0.853
23983W        W87751  11.814  37.407  14.445
23984W        W87752   5.216  21.758  12.087
23985W        W87753  16.647  43.509  11.574
23986W        W87754  13.745  42.006  14.766
23987W        W87755  23.553  42.872  13.951
23988W        W87756   5.903  42.820  12.853
23989W        W87757  41.499  20.102   3.336
23990W        W87758   0.304  10.633  10.951
23991W        W87759  29.925  44.505   3.737
23992W        W87760  33.597  17.131  14.325
23993W        W87761  33.443  37.336   0.769
23994W        W87762  19.555   1.431  13.310
23995W        W87763   8.199  12.141  11.386
23996W        W87764  25.986  31.417  10.455
23997W        W87765  22.659   7.911  11.953
23998W        W87766  16.780  35.556   3.659
23999W        W87767   8.169  20.119  10.441
24000W        W87768   3.461  43.323  14.515
24001W        W87769  40.944   0.905  11.045
24002W        W87770  15.146  23.530   0.337
24003W        W87771  23.226  26.606  13.519
24004W        W87772  13.342  14.797  13.515
24005W        W87773  19.757  13.640   2.192
24006W        W87774   7.893  44.991  10.510
24007W        W87775  22.130  29.078  13.488
24008W        W87776  40.893  38.460  14.409
24009W        W87777   4.875   1.457  14.329
24010W        W87778  32.954   1.786   2.881
24011W        W87779   0.953  29.141   3.335
24012W        W87780  44.271  26.118  11.377
24013W        W87781  22.107   6.338   3.656
24014W        W87782  24.655  36.923  10.891
24015W        W87783  10.730  29.456  14.371
24016W        W87784  35.090   9.180  10.936
24017W        W87785  33.594  27.682  14.331
24018W        W87786  18.584  10.682  13.975
24019W        W87787  39.871  19.739   1.876
24020W        W87788   6.393   4.353   1.792
24021W        W87789   2.930  18.073  11.038
24022W        W87790  29.923   0.378   1.227
24023W        W87791  22.652  26.571   0.244
24024W        W87792  19.153  22.026  10.475
24025W        W87793  12.815   3.461  13.810
24026W        W87794  38.413  42.313   1.805
24027W        W87795  21.045  35.935  11.949
24028W        W87796  44.328  29.951  14.457
24029W        W87797  31.492   2.364  14.475
24030W        W87798   8.388   5.353  14.451
24031W        W87799  38.915   1.772   0.289
24032W        W87800  39.521  34.948  13.033
24033W        W87801  40.492   9.878  13.387
24034W        W87802  39.450  42.976   2.725
24035W        W87803  22.527  29.071  10.410
24036W        W87804  20.632  16.747  10.629
24037W        W87805  38.837  31.494  14.828
24038W        W87806   7.687   2.280  10.526
24039W        W87807  19.638   9.172  11.077
24040W        W87808  23.536  28.572   4.342
24041W        W87809  13.118  38.388   1.291
24042W        W87810  39.544  40.421   4.255
24043W        W87811  28.480  44.501  12.991
24044W        W87812  14.699   0.313  11.474
24045W        W87813  12.661  19.547  10.528
24046W        W87814   0.876   9.273  14.352
24047W        W87815  22.174  11.636  11.414
24048W        W87816  17.797  33.586   1.909
24049W        W87817  29.523  38.472  13.348
24050W        W87818  11.189  25.569  12.446
24051W        W87819  32.576  42.959  12.891
24052W        W87820  29.089  36.490  14.882
24053W        W87821   3.457  11.370  12.096
24054W        W87822  36.956  19.698  14.365
24055W        W87823   1.242  27.649  14.918
24056W        W87824   2.876   7.890   3.812
24057W        W87825  27.563  35.067   3.340
24058W        W87826  29.447  13.698   2.770
24059W        W87827  25.004  24.618  12.060
24060W        W87828  12.305  35.361  11.372
24061W        W87829  15.153  34.004  14.769
24062W        W87830   0.367  20.591   3.796
24063W        W87831   9.805  14.722   1.373
24064W        W87832  34.583  12.833  10.949
24065W        W87833  35.050  33.099  14.456
24066W        W87834  38.407  24.061   3.707
24067W        W87835  26.699  19.202  12.874
24068W        W87836  29.449  30.971  14.884
24069W        W87837   7.671  15.709   2.859
24070W        W87838  19.219  21.682  14.790
24071W        W87839  11.361   7.320  10.607
24072W        W87840  14.104   3.428  14.968
24073W        W87841  42.472  18.648  11.866
24074W        W87842  34.011  10.356   1.935
24075W        W87843   5.289  39.062   2.194
24076W        W87844  41.877  24.205   0.862
24077W        W87845  32.487  19.610   1.352
24078W        W87846  26.183  31.537   1.858
24079W        W87847  16.700  29.595  11.956
24080W        W87848  32.074   5.381  13.511
24081W        W87849   7.761  20.717   4.836
24082W        W87850   5.779   9.876   3.255
24083W        W87851  31.944  28.022   0.435
24084W        W87852   9.264  41.341   1.394
24085W        W87853   7.847   0.306   2.282
24086W        W87854  24.026  13.599  13.946
24087W        W87855  15.124  20.657   0.884
24088W        W87856  39.408   4.770   1.388
24089W        W87857  23.039  38.890  12.384
24090W        W87858   9.198  27.109   3.260
24091W        W87859  25.021  43.390   0.804
24092W        W87860   7.821  12.775   1.391
24093W        W87861  34.064   5.396   3.662
24094W        W87862  28.015  38.512  13.941
24095W        W87863  19.094  21.680   2.320
24096W        W87864  28.106  20.752  13.945
24097W        W87865  42.002  32.442  11.909
24098W        W87866   8.342  19.223  12.895
24099W        W87867   7.803  15.603  10.161
24100W        W87868  18.755   9.799  13.028
24101W        W87869  28.050   4.430  11.389
24102W        W87870  30.058  42.936   1.437
24103W        W87871  33.625   9.663  13.388
24104W        W87872  37.352  12.622  14.333
24105W        W87873  25.545  20.065   2.811
24106W        W87874  10.348  35.366  13.997
24107W        W87875  14.120  37.474   1.915
24108W        W87876  39.945   1.747   3.702
24109W        W87877  28.085  43.963  12.868
24110W        W87878  24.156   2.385  14.875
24111W        W87879  31.121  17.664  13.498
24112W        W87880   3.377   0.362  11.518
24113W        W87881  37.891  34.906  10.984
24114W        W87882   6.232   0.828  13.447
24115W        W87883  19.237   4.858   2.843
24116W        W87884  41.311  31.025  14.966
24117W        W87885  43.842  43.831  13.975
24118W        W87886  34.904  21.680   3.650
24119W        W87887  22.250  39.829   3.770
24120W        W87888  42.857  15.261  14.400
24121W        W87889   1.254  24.538  13.800
24122W        W87890  33.521  12.177  14.896
24123W        W87891   1.363  11.863  13.993
24124W        W87892  36.421  23.200  12.831
24125W        W87893  24.502   9.274   0.249
24126W        W87894  41.484  16.739  12.049
24127W        W87895   4.266  39.889  12.380
24128W        W87896  31.077  25.205  11.542
24129W        W87897  40.537  35.602  11.551
24130W        W87898  31.553   0.807  14.934
24131W        W87899  20.766  29.557  10.927
24132W        W87900  14.737  35.081  13.354
24133W        W87901  41.796  37.925   4.155
24134W        W87902  30.982  25.111  13.946
24135W        W87903  23.568  42.319  11.470
24136W        W87904  36.056  23.186   4.712
24137W        W87905  13.691  40.478   3.220
24138W        W87906   1.362   8.837   2.195
24139W        W87907  36.592  27.574  13.442
24140W        W87908  14.306  25.562   4.790
24141W        W87909  24.618  11.342   1.852
24142W        W87910  14.166  43.934   1.319
24143W        W87911   0.369  36.513   3.199
24144W        W87912  39.436   9.851  14.973
24145W        W87913  36.447  22.673   3.808
24146W        W87914  18.176  43.936   3.179
24147W        W87915  14.238  19.219   4.215
24148W        W87916  23.027  36.538  12.985
24149W        W87917  41.486  25.216  13.481
24150W        W87918  11.791  34.995  14.981
24151W        W87919   9.319  27.499  10.597
24152W        W87920  28.115   0.314   3.290
24153W        W87921  44.334   5.390  10.997
24154W        W87922   9.786  24.720   0.843
24155W        W87923  24.614   0.340  14.788
24156W        W87924  36.507  44.284  12.499
24157W        W87925  22.083   0.796   1.697
24158W        W87926   7.843  20.642   0.732
24159W        W87927  20.655  44.336  14.878
24160W        W87928  39.446  11.816   0.464
24161W        W87929  18.050  28.952  12.415
24162W        W87930   2.874  38.854   0.365
24163W        W87931  18.255   7.327   0.741
24164W        W87932  27.675  21.135  13.877
24165W        W87933   1.883  38.928   4.692
24166W        W87934  15.125  11.856   0.357
24167W        W87935  31.418  15.265  12.935
24168W        W87936  22.232  32.116  10.594
24169W        W87937  36.509  10.742  14.860
24170W        W87938  21.602   5.395   0.814
24171W        W87939  44.884  17.774  12.437
24172W        W87940  24.578   5.339  12.417
24173W        W87941   2.457  16.625  10.987
24174W        W87942  26.506   5.902   4.673
24175W        W87943  13.132  15.185  13.527
24176W        W87944  44.978  19.561   2.812
24177W        W87945  39.930   3.759   3.860
24178W        W87946  44.456  21.712   3.239
24179W        W87947  19.078   1.436   2.872
24180W        W87948  32.115   3.792  13.868
24181W        W87949   9.837  31.635   1.835
24182W        W87950  13.321  43.871  13.332
24183W        W87951  11.664   9.342   4.254
24184W        W87952  26.140  30.127   0.784
24185W        W87953   6.277  10.196   4.216
24186W        W87954   0.927  26.953  11.024
24187W        W87955  35.504   9.871  10.937
24188W        W87956  19.056  29.957   2.772
24189W        W87957  14.805  41.007   4.334
24190W        W87958   4.912  31.469  14.025
24191W        W87959  27.476  14.651  12.843
24192W        W87960  44.434  18.734  11.957
24193W        W87961  17.769   2.271  11.432
24194W        W87962  23.599  30.963   3.849
24195W        W87963  12.267   1.369   0.861
24196W        W87964  24.573  25.169   2.868
24197W        W87965  43.929  26.039   2.679
24198W        W87966  33.124  29.973   1.279
24199W        W87967  20.686  16.634   1.854
24200W        W87968  24.682  16.202  12.540
24201W        W87969  28.574  44.983  14.401
24202W        W87970  17.295   9.183   3.176
24203W        W87971  30.943   3.325  10.986
24204W        W87972  15.146  12.247  13.866
24205W        W87973  21.562  12.763   1.875
24206W        W87974   5.236   4.265   0.423
24207W        W87975  14.151  44.304  12.094
24208W        W87976  23.725  41.445  12.044
24209W        W87977  15.209  18.785  12.842
24210W        W87978  27.964  33.120   3.204
24211W        W87979  37.064   0.946   1.747
24212W        W87980  21.599  21.189  14.893
24213W        W87981  39.866  17.278   4.677
24214W        W87982  23.014  19.641   3.332
24215W        W87983  26.559   6.912   1.924
24216W        W87984  15.822  26.558   0.919
24217W        W87985  25.470  39.961   1.319
24218W        W87986  36.361  20.205  11.373
24219W        W87987  15.675  43.904  11.438
24220W        W87988   7.896  37.005   1.773
24221W        W87989   1.828  35.357   4.311
24222W        W87990  35.093   5.264  14.865
24223W        W87991  27.522   3.842   3.860
24224W        W87992  22.155  18.263  11.449
24225W        W87993  18.737  23.060   2.768
24226W        W87994   1.470  15.765  12.529
24227W        W87995  27.001  38.483   0.799
24228W        W87996  25.068   2.402   0.790
24229W        W87997  37.060  23.055  13.531
24230W        W87998  25.531   0.364  11.960
24231W        W87999   1.452   3.246   1.695
24232W        W88000  44.334  26.600   4.202
24233W        W88001  19.769   4.378  12.851
24234W        W88002  27.521   3.406   0.743
24235W        W88003  32.542   5.921  10.546
24236W        W88004  15.756   3.341   3.729
24237W        W88005  19.605   0.961   1.352
24238W        W88006  41.980   5.920  13.910
24239W        W88007  31.632  39.384   2.782
24240W        W88008  24.994  39.465  11.471
24241W        W88009   4.814   5.317   0.845
24242W        W88010  23.231  21.685   2.403
24243W        W88011  12.642   7.339  11.539
24244W        W88012  29.174  19.246  12.579
24245W        W88013  10.716  34.572   3.375
24246W        W88014  30.967  16.212   1.727
24247W        W88015   3.750  30.521  13.800
24248W        W88016  24.657   9.376   1.270
24249W        W88017  12.242  33.557  11.013
24250W        W88018  11.184  17.679   4.335
24251W        W88019   9.179  23.554  14.378
24252W        W88020  42.452   6.903  14.896
24253W        W88021  38.363  27.532   9.510
24254W        W88022  31.989  10.276  10.601
24255W        W88023  13.636  21.061  14.959
24256W        W88024  29.538  29.090  10.497
24257W        W88025   6.337   0.756   5.174
24258W        W88026  24.022  31.420   1.871
24259W        W88027  16.126  43.409   1.335
24260W        W88028  16.778  37.041  12.077
24261W        W88029  19.228  18.607  11.090
24262W        W88030  19.585  25.658  11.526
24263W        W88031   3.282   7.715  11.949
24264W        W88032  17.722  19.129   3.248
24265W        W88033  21.105  40.440  12.451
24266W        W88034  34.561  32.551   1.704
24267W        W88035  28.575  14.833   1.296
24268W        W88036  22.745  11.161   3.318
24269W        W88037   2.393  32.990   3.249
24270W        W88038  25.132  19.610   2.790
24271W        W88039  32.444   1.819   2.753
24272W        W88040  11.759  13.318  10.568
24273W        W88041   6.699  26.960   2.896
24274W        W88042  22.150  16.581   4.147
24275W        W88043  16.728   6.698   1.815
24276W        W88044  17.207  16.670   2.264
24277W        W88045  15.578  13.176  12.991
24278W        W88046  12.288  18.115   4.709
24279W        W88047  44.919  36.370  14.817
24280W        W88048   2.277  30.460   3.633
24281W        W88049   9.304  18.675  11.014
24282W        W88050  31.081  33.508  13.854
24283W        W88051  41.890  16.184  10.532
24284W        W88052  35.536  41.481  11.429
24285W        W88053  39.329  27.525  14.877
24286W        W88054  21.652  37.524  10.889
24287W        W88055  23.661  26.574   4.198
24288W        W88056  23.680  16.709  12.899
24289W        W88057  29.444   9.747   3.807
24290W        W88058  13.289  19.591   2.676
24291W        W88059  32.445  36.430   2.816
24292W        W88060  40.012  25.125  12.427
24293W        W88061  18.647  13.143   3.759
24294W        W88062  39.024  41.493   1.853
24295W        W88063  10.752  38.951  12.353
24296W        W88064   9.304  41.320  11.449
24297W        W88065  39.456  39.467   1.264
24298W        W88066  40.455  14.144  14.894
24299W        W88067  19.073   1.407  11.031
24300W        W88068  15.130  38.480  13.487
24301W        W88069  42.840   3.445  10.994
24302W        W88070  39.356  25.680   2.840
24303W        W88071  35.943  38.416   2.242
24304W        W88072   3.870  43.940   0.260
24305W        W88073  33.485  24.010   3.689
24306W        W88074  12.727  40.812   4.131
24307W        W88075  28.113  29.940   4.237
24308W        W88076   6.412  43.989   2.862
24309W        W88077  42.840  44.446   4.770
24310W        W88078  19.081  29.965   2.293
24311W        W88079  21.029  34.971  10.556
24312W        W88080  34.499  27.944   2.763
24313W        W88081  39.545  37.574   2.861
24314W        W88082  27.163   1.376  12.570
24315W        W88083  11.777  42.337  12.575
24316W        W88084  36.018   7.202   2.882
24317W        W88085  28.532   1.827  11.537
24318W        W88086  30.452  40.938   0.407
24319W        W88087  19.721  18.222  10.932
24320W        W88088  27.493   1.844  14.457
24321W        W88089  40.303   3.286  10.424
24322W        W88090  31.541  41.939  11.486
24323W        W88091  44.435  28.509   2.327
24324W        W88092  36.488  16.700   2.182
24325W        W88093  29.630  22.656  14.933
24326W        W88094  36.402   4.287  10.426
24327W        W88095  27.488   7.334   0.290
24328W        W88096  15.823  40.347   0.787
24329W        W88097  24.083  17.261  10.911
24330W        W88098   4.821   7.377   0.470
24331W        W88099  11.288  28.006  13.031
24332W        W88100  29.581   9.864  12.445
24333W        W88101  40.028   4.304   3.732
24334W        W88102  43.012  19.128  13.825
24335W        W88103  35.541  38.901   2.705
24336W        W88104  29.143   1.798  13.350
24337W        W88105   9.201   0.860  14.298
24338W        W88106   4.709  18.682   0.297
24339W        W88107  25.032  23.025   4.711
24340W        W88108  18.698  12.810  11.492
24341W        W88109  33.405  35.075   3.198
24342W        W88110  26.630   5.788  11.525
24343W        W88111  40.868  25.582   0.937
24344W        W88112  19.054  25.695   4.607
24345W        W88113  26.962  24.991   0.883
24346W        W88114  41.535  34.991  12.897
24347W        W88115  29.163   3.779   3.843
24348W        W88116  16.677  30.163   3.697
24349W        W88117  37.528   5.812   0.766
24350W        W88118  37.425  37.953  10.931
24351W        W88119  10.681  14.634   0.398
24352W        W88120  12.343  11.686   1.738
24353W        W88121  31.016  43.994  13.868
24354W        W88122  26.495  29.069  10.525
24355W        W88123  14.268  32.583   2.839
24356W        W88124  43.462  12.725   1.734
24357W        W88125  20.124  14.124  13.806
24358W        W88126  33.586  37.924   1.403
24359W        W88127  34.605  10.820   3.333
24360W        W88128   8.662   5.815   4.798
24361W        W88129   4.838   1.403   0.321
24362W        W88130   1.314  25.115  11.908
24363W        W88131  30.482   5.395  14.780
24364W        W88132  11.143  12.844  13.809
24365W        W88133  16.181   1.272  11.416
24366W        W88134  13.617   8.294  14.300
24367W        W88135   0.968  20.191   4.765
24368W        W88136   0.333  13.627   1.750
24369W        W88137  16.119   8.385  10.460
24370W        W88138  38.528   2.298   1.392
24371W        W88139  30.035   8.281   0.453
24372W        W88140  15.184   2.356   0.905
24373W        W88141  33.996  37.040   2.233
24374W        W88142  20.650  28.469   1.926
24375W        W88143  10.719   2.261  11.961
24376W        W88144  23.051  12.307   5.227
24377W        W88145   6.215  27.537  13.953
24378W        W88146   7.817  32.127  12.914
24379W        W88147  15.189  32.956   1.416
24380W        W88148  38.507  21.113  13.392
24381W        W88149  27.081  36.023  11.982
24382W        W88150  26.589  18.184  12.980
24383W        W88151  12.793  30.482  12.831
24384W        W88152   7.801   6.913  14.424
24385W        W88153  44.505  25.598   1.919
24386W        W88154  13.346  17.606   2.318
24387W        W88155  38.063  11.674  10.559
24388W        W88156  15.686  16.156   3.339
24389W        W88157  32.567  13.779  12.426
24390W        W88158  14.308  36.990   3.362
24391W        W88159  28.449  13.794  11.534
24392W        W88160  35.432  12.752  11.568
24393W        W88161  30.644  38.511  11.510
24394W        W88162   0.883  37.542   3.682
24395W        W88163  36.071  21.735  11.384
24396W        W88164  22.542   7.766  11.589
24397W        W88165  44.417   9.189   3.664
24398W        W88166  27.542   4.448   2.203
24399W        W88167  26.966   9.270  13.043
24400W        W88168  15.251   9.171   4.741
24401W        W88169   4.206  39.544   4.181
24402W        W88170  22.610  44.971   0.319
24403W        W88171   9.847  44.441   3.176
24404W        W88172   1.459  41.905   2.392
24405W        W88173   6.363  25.974   2.397
24406W        W88174  12.127   9.667   3.763
24407W        W88175   3.274  44.305   1.212
24408W        W88176   5.302  37.903   0.270
24409W        W88177  44.892  30.520   3.250
24410W        W88178  28.464  14.608  13.366
24411W        W88179  34.867  38.529   3.736
24412W        W88180  25.583  42.857   0.852
24413W        W88181  14.153  44.936  14.340
24414W        W88182  25.500  25.518   2.801
24415W        W88183  15.586   7.830  10.510
24416W        W88184   9.648  26.190  14.861
24417W        W88185  28.954  34.098   4.143
24418W        W88186  25.988  32.122  12.445
24419W        W88187  11.170   1.435  13.406
24420W        W88188  25.706  32.633  12.418
24421W        W88189  14.198  39.542  10.500
24422W        W88190  35.905   4.915   1.317
24423W        W88191  42.901  28.477   1.717
24424W        W88192  37.430   2.962  10.457
24425W        W88193  24.137  17.287   0.849
24426W        W88194   0.760  24.648   0.934
24427W        W88195   4.261  16.119  14.832
24428W        W88196  17.169  15.766  14.497
24429W        W88197   3.936  37.832  14.791
24430W        W88198  29.092   1.773  13.919
24431W        W88199  27.005  11.225  11.412
24432W        W88200  32.551  28.041  13.027
24433W        W88201   1.304  33.886   9.603
24434W        W88202   3.425  10.845   1.752
24435W        W88203   8.866  40.956   3.669
24436W        W88204  41.392  38.019  11.581
24437W        W88205  11.247   0.252  12.898
24438W        W88206  10.229  26.491   1.278
24439W        W88207  10.294  26.179  14.018
24440W        W88208  25.209  41.884  12.431
24441W        W88209  34.388  21.584   0.330
24442W        W88210   1.826  42.001   3.839
24443W        W88211  32.999  14.202   3.856
24444W        W88212  44.797  29.965   4.151
24445W        W88213  29.637  24.151   0.391
24446W        W88214   1.285  43.883  10.534
24447W        W88215  22.204  42.957   0.797
24448W        W88216  22.227  41.006  12.399
24449W        W88217   4.281  35.022  11.564
24450W        W88218   5.224  22.116   0.261
24451W        W88219  24.011  39.905  14.460
24452W        W88220  31.451  25.065  12.361
24453W        W88221  20.039  35.861   3.848
24454W        W88222  18.289   8.735   2.196
24455W        W88223  13.678  24.711   3.810
24456W        W88224   2.924  12.176   0.480
24457W        W88225  34.919   9.808  13.507
24458W        W88226  21.060  24.226   2.857
24459W        W88227   1.279   2.891  13.054
24460W        W88228  13.769  36.561   1.786
24461W        W88229  37.543  11.764  10.469
24462W        W88230  13.304  39.834  11.956
24463W        W88231  12.132  31.973   2.286
24464W        W88232  31.057  11.148   2.361
24465W        W88233   4.296  14.654   3.791
24466W        W88234  34.600  36.572   1.261
24467W        W88235   6.423   0.376  12.372
24468W        W88236   2.721  21.232  12.955
24469W        W88237  23.569  17.600   4.741
24470W        W88238  23.154  26.684  12.035
24471W        W88239  33.987  30.943   1.299
24472W        W88240  30.509  28.105   3.231
24473W        W88241  29.625  36.555  13.924
24474W        W88242   9.789   1.419   0.863
24475W        W88243  26.139   8.217   3.375
24476W        W88244  35.576  32.537   4.225
24477W        W88245  27.546  42.452  14.030
24478W        W88246  16.131  14.166  13.415
24479W        W88247  29.458  12.822   0.748
24480W        W88248  24.556  43.990  13.407
24481W        W88249  42.315   2.408  12.430
24482W        W88250  18.768  41.795  11.528
24483W        W88251  42.455  32.611  14.408
24484W        W88252  10.722   6.916   2.760
24485W        W88253  17.566  35.990   2.710
24486W        W88254  27.996  11.342   5.279
24487W        W88255  10.690  41.386  14.768
24488W        W88256   3.410  22.695  14.392
24489W        W88257  22.120  15.817  11.488
24490W        W88258  28.056  24.160  14.917
24491W        W88259  13.263  27.164  14.824
24492W        W88260  25.985   0.320  14.408
24493W        W88261   3.871   4.309  12.355
24494W        W88262  33.609  35.082   2.859
24495W        W88263   5.395  14.610  13.861
24496W        W88264  18.261  21.606  12.880
24497W        W88265  40.366   5.317   3.689
24498W        W88266  40.380  21.221   4.177
24499W        W88267  13.117  37.408  11.508
24500W        W88268   2.306  22.700  11.114
24501W        W88269  41.953  19.223  13.413
24502W        W88270   0.783   4.253  11.372
24503W        W88271  13.650  24.130  11.430
24504W        W88272  39.536  36.988   0.336
24505W        W88273  34.946   3.324  11.541
24506W        W88274  41.429  12.626  12.007
24507W        W88275   1.766  36.937   1.445
24508W        W88276  26.093  21.643   4.807
24509W        W88277  24.982   4.281   3.753
24510W        W88278  26.699  22.647  11.551
24511W        W88279  29.432   9.166   1.239
24512W        W88280   6.836  11.722   0.420
24513W        W88281   4.764  27.573  12.073
24514W        W88282   0.961  41.812  10.958
24515W        W88283  33.009  39.930  10.472
24516W        W88284   9.351  12.636   0.375
24517W        W88285  34.996  32.103  14.361
24518W        W88286  28.968  38.880  13.855
24519W        W88287   6.419   1.868  12.872
24520W        W88288   7.673   0.808   4.826
24521W        W88289  25.044  27.009   2.392
24522W        W88290  14.682  39.815  13.443
24523W        W88291  15.166  28.534  11.569
24524W        W88292  41.389  43.990  14.417
24525W        W88293  29.943  16.244   5.266
24526W        W88294  27.667  33.428   2.407
24527W        W88295  43.012  26.528  12.930
24528W        W88296   6.414  24.059  11.377
24529W        W88297  23.094  24.719  12.498
24530W        W88298  17.189  31.435   1.308
24531W        W88299  33.391  10.788  10.101
24532W        W88300  40.424  29.167  11.382
24533W        W88301  22.570  38.916   0.329
24534W        W88302  33.010  30.109   2.707
24535W        W88303  13.631  14.659  14.386
24536W        W88304  24.093   9.308   1.737
24537W        W88305  17.585  28.932   0.375
24538W        W88306  20.664   2.410  13.024
24539W        W88307  30.962   0.410  11.078
24540W        W88308  20.063  25.624  12.364
24541W        W88309  33.012  21.702  13.350
24542W        W88310   9.380   3.937  12.042
24543W        W88311  21.625   9.865  14.778
24544W        W88312  35.955  39.549  12.911
24545W        W88313  25.529  37.867  10.569
24546W        W88314  40.052   6.839   4.778
24547W        W88315   5.765  28.072   4.797
24548W        W88316  20.149  29.985  12.431
24549W        W88317  37.830  22.602  12.351
24550W        W88318  24.139  22.638  11.526
24551W        W88319  33.902  19.718   2.334
24552W        W88320  17.752  43.416  14.385
24553W        W88321   1.898   5.874   0.267
24554W        W88322  33.457  19.112   4.136
24555W        W88323  33.988  30.470  14.434
24556W        W88324  27.057  44.369   4.717
24557W        W88325   0.397  17.640  11.994
24558W        W88326  43.987  35.463  12.839
24559W        W88327  25.064  35.088   3.663
24560W        W88328  29.128  37.554   0.340
24561W        W88329  19.210  38.352  12.051
24562W        W88330   0.959   6.424  10.097
24563W        W88331  23.512   1.322  14.458
24564W        W88332  14.311   4.379  13.393
24565W        W88333  15.782  30.496   1.713
24566W        W88334  17.719  30.993   2.859
24567W        W88335   7.863  43.496   1.920
24568W        W88336  25.638  42.976   2.410
24569W        W88337  19.095   4.915  10.561
24570W        W88338  16.309  23.166   5.800
24571W        W88339  26.548  11.623   4.277
24572W        W88340  14.274   1.294  13.496
24573W        W88341  40.383  14.728   1.215
24574W        W88342  34.578   1.245  10.936
24575W        W88343  39.998  17.125  14.993
24576W        W88344   3.360  19.246   1.276
24577W        W88345  35.533  37.857   4.666
24578W        W88346  35.989   4.249  13.345
24579W        W88347  40.910  27.971  10.469
24580W        W88348  43.352   2.852   3.291
24581W        W88349  12.146   5.858  10.928
24582W        W88350  15.256  30.960  13.881
24583W        W88351  23.523  25.497  13.512
24584W        W88352  15.226   4.844   3.728
24585W        W88353  24.699  31.007   1.773
24586W        W88354  23.497   8.226  13.018
24587W        W88355   5.840  35.392  12.839
24588W        W88356  25.005   0.821   3.847
24589W        W88357  43.836  29.585  10.956
24590W        W88358   1.478  41.511  14.311
24591W        W88359  36.958  19.703   3.756
24592W        W88360  14.712  40.983  14.780
24593W        W88361  36.962  41.327   1.384
24594W        W88362  27.486  43.817   3.321
24595W        W88363  37.885   7.851  13.505
24596W        W88364  29.005  39.871  14.878
24597W        W88365  24.517  18.638  12.049
24598W        W88366  28.491  14.591  12.066
24599W        W88367   9.357  11.712  13.902
24600W        W88368  35.929   1.432  11.892
24601W        W88369  30.041  21.223  13.923
24602W        W88370  37.084  41.299  10.467
24603W        W88371  29.599   2.425   0.290
24604W        W88372  29.023  24.995   3.308
24605W        W88373  19.755   8.309   2.296
24606W        W88374   1.434  37.464  13.359
24607W        W88375  26.030  17.262   1.231
24608W        W88376  34.480  42.471   2.803
24609W        W88377  25.204  14.285  13.940
24610W        W88378   6.406   3.820   0.925
24611W        W88379  38.450  29.439   1.720
24612W        W88380  34.988  35.964  13.897
24613W        W88381  28.491  34.457   9.638
24614W        W88382   3.945  34.117  11.100
24615W        W88383   4.405  11.198  11.933
24616W        W88384   0.295  39.826  13.900
24617W        W88385  23.509  22.062   1.782
24618W        W88386  21.611  26.520  12.400
24619W        W88387  10.755  28.563  12.918
24620W        W88388  44.380  12.172   2.349
24621W        W88389  30.134   3.368  14.911
24622W        W88390  34.069  23.081  11.016
24623W        W88391   0.815  19.205   0.438
24624W        W88392  33.611  14.210  13.498
24625W        W88393  22.646  39.363  11.116
24626W        W88394  13.319   8.311  10.444
24627W        W88395  23.717  14.831   5.667
24628W        W88396   2.346   1.474   0.414
24629W        W88397  19.177   3.250   0.820
24630W        W88398   4.317  39.509  10.579
24631W        W88399  43.012  40.028   4.640
24632W        W88400  17.088  11.740   1.385
24633W        W88401  22.741  15.229  14.391
24634W        W88402   8.375   4.940  11.926
24635W        W88403  34.990  17.132   3.789
24636W        W88404   2.889  43.809   1.273
24637W        W88405  21.096   4.248  14.379
24638W        W88406   4.764  12.287   4.664
24639W        W88407  26.168  43.944  12.361
24640W        W88408  25.662  33.525  12.461
24641W        W88409  16.294  22.150   2.791
24642W        W88410   5.884  14.132   4.161
24643W        W88411  35.513  44.933   1.878
24644W        W88412  29.082  21.733  11.070
24645W        W88413   7.377   7.306  14.312
24646W        W88414   5.311  25.999  14.869
24647W        W88415   8.797  32.127  14.785
24648W        W88416  42.473  34.866  12.939
24649W        W88417  20.245  28.122   4.622
24650W        W88418  27.645  36.386   2.199
24651W        W88419  44.782  33.012   2.343
24652W        W88420   7.690  19.191  13.546
24653W        W88421  28.937   0.479  10.948
24654W        W88422  43.864  42.822   0.959
24655W        W88423  35.534  17.629   1.353
24656W        W88424   1.831  22.063  13.987
24657W        W88425  42.386  10.633  14.413
24658W        W88426  32.620  14.139   0.919
24659W        W88427  37.381  23.995   5.234
24660W        W88428  23.621  41.296   4.816
24661W        W88429   1.893  12.616   2.731
24662W        W88430   8.688  13.151   1.737
24663W        W88431  30.551  23.117   4.230
24664W        W88432  10.786  28.987   2.794
24665W        W88433   8.307  36.938  13.361
24666W        W88434   4.909  13.262  14.388
24667W        W88435  18.244  40.322  11.589
24668W        W88436  42.319  34.404  12.047
24669W        W88437  27.143   0.950   0.254
24670W        W88438  26.608  38.420   0.376
24671W        W88439  44.940  15.772  10.420
24672W        W88440  12.307  17.189   1.449
24673W        W88441   1.971  12.208  14.024
24674W        W88442  33.054  27.671   4.776
24675W        W88443   2.253  20.049   4.346
24676W        W88444  27.586  30.635   4.741
24677W        W88445   4.218  16.175  11.459
24678W        W88446  41.522  11.685  14.892
24679W        W88447  10.752  31.986  11.434
24680W        W88448   5.909  13.800  14.355
24681W        W88449  38.452  22.121  12.071
24682W        W88450  41.419   7.841  12.417
24683W        W88451  44.294   0.959   2.673
24684W        W88452   1.466  44.479   2.308
24685W        W88453   5.706  32.464  13.946
24686W        W88454  34.934  30.061   1.242
24687W        W88455  43.308  11.625  14.379
24688W        W88456   8.817  33.017   1.714
24689W        W88457  38.002  18.055  13.417
24690W        W88458  15.307  35.574  10.429
24691W        W88459  29.028  37.473  11.106
24692W        W88460  12.836   9.789  12.551
24693W        W88461  38.968  23.629   9.958
24694W        W88462  21.257   9.210  12.438
24695W        W88463  38.390  44.353   4.169
24696W        W88464  41.038   5.416   4.147
24697W        W88465  31.473  40.374  12.080
24698W        W88466  23.005   2.384  13.348
24699W        W88467  19.110  39.484  10.936
24700W        W88468  29.094  29.459  13.397
24701W        W88469  36.872  44.833   4.344
24702W        W88470   5.815  26.141  13.419
24703W        W88471   2.442  38.552  10.090
24704W        W88472  16.590  41.311  11.429
24705W        W88473  40.904  10.172   0.791
24706W        W88474  41.933  14.800   0.447
24707W        W88475  12.730  16.175  11.037
24708W        W88476  39.003  37.882  11.863
24709W        W88477  13.756  40.317   3.774
24710W        W88478  17.746  11.668  10.446
24711W        W88479  10.369   1.940   4.650
24712W        W88480  12.266  10.799  13.453
24713W        W88481  28.106   9.696   2.777
24714W        W88482  25.493  40.532   3.199
24715W        W88483   6.369  15.289  14.414
24716W        W88484  39.014  21.563   4.670
24717W        W88485  24.198   3.364   2.733
24718W        W88486  41.324   1.263  11.097
24719W        W88487   0.937  23.093  10.983
24720W        W88488  28.998  41.389  12.980
24721W        W88489  44.893  37.473  14.800
24722W        W88490   8.350   6.878   3.203
24723W        W88491  38.912  24.551   2.195
24724W        W88492  36.552  37.077   1.727
24725W        W88493  20.724  14.153   0.288
24726W        W88494   6.246  23.143   1.788
24727W        W88495  42.312  32.015  13.912
24728W        W88496  20.250   7.312   2.215
24729W        W88497  20.211  31.477   3.186
24730W        W88498   1.840   7.253   1.311
24731W        W88499  12.163  11.689   9.974
24732W        W88500  41.454  41.834   2.345
24733W        W88501  33.480   3.441  14.343
24734W        W88502   4.361   2.466   2.263
24735W        W88503  38.068  15.669  12.577
24736W        W88504   0.965   9.664  13.976
24737W        W88505  26.494  14.148  13.822
24738W        W88506   6.395  32.061   3.354
24739W        W88507   9.283   4.285   2.247
24740W        W88508  22.226   3.792  13.539
24741W        W88509  29.032  16.643   3.680
24742W        W88510   4.239  39.449  12.393
24743W        W88511  33.622  19.065  11.864
24744W        W88512   1.881  43.497   4.278
24745W        W88513  28.126  11.365   9.572
24746W        W88514  22.620  37.529   4.623
24747W        W88515  19.640  28.468  12.504
24748W        W88516  14.102  37.423   1.314
24749W        W88517   2.823  10.328   1.301
24750W        W88518  39.429  10.156  14.009
24751W        W88519  11.639  32.472  10.610
24752W        W88520  42.886   6.763  13.508
24753W        W88521  40.991  34.882   2.377
24754W        W88522  41.827  18.232   4.114
24755W        W88523  37.005  33.125   5.274
24756W        W88524  25.628  19.157  13.319
24757W        W88525  32.081   5.295   2.805
24758W        W88526  26.155   7.875  10.529
24759W        W88527  28.151  20.749  12.548
24760W        W88528   3.425  43.008   2.689
24761W        W88529  22.145  11.671  11.100
24762W        W88530  17.124  11.313   4.243
24763W        W88531  13.705   2.883  14.330
24764W        W88532  28.158  10.832   4.698
24765W        W88533  33.059  24.132   2.693
24766W        W88534   6.302  44.823   4.264
24767W        W88535  28.122  19.254  11.943
24768W        W88536   1.873   0.938  11.092
24769W        W88537  42.515  36.860   2.406
24770W        W88538  20.598  18.120  10.545
24771W        W88539   4.381  12.795   4.314
24772W        W88540  12.357  38.015   2.796
24773W        W88541  32.892  30.142  11.572
24774W        W88542  25.131  31.481  14.765
24775W        W88543  31.009  39.946  14.444
24776W        W88544  42.902  20.252  14.851
24777W        W88545  19.731  19.087  12.395
24778W        W88546  23.539  10.696   2.342
24779W        W88547   9.850  19.270   2.268
24780W        W88548  34.983  39.477  11.880
24781W        W88549  26.521  18.659  13.373
24782W        W88550  10.674  17.661  12.415
24783W        W88551   2.420  27.163  14.303
24784W        W88552  30.994  38.352  11.455
24785W        W88553  40.868  28.582   5.287
24786W        W88554  40.801  38.851   3.815
24787W        W88555  43.321  25.045   2.871
24788W        W88556  12.822  16.149  10.581
24789W        W88557  31.626  13.171   3.184
24790W        W88558  18.613  42.463  10.999
24791W        W88559   6.250  43.923   0.436
24792W        W88560  26.972  14.305   3.344
24793W        W88561  33.006  44.924  14.445
24794W        W88562  21.248   2.402   2.841
24795W        W88563  33.549   9.293  13.431
24796W        W88564   6.842  15.722  12.565
24797W        W88565  20.265   4.855   3.178
24798W        W88566  23.567  14.121  12.574
24799W        W88567  12.786  22.018   2.848
24800W        W88568  33.474  37.517  13.913
24801W        W88569  19.102  31.628   5.309
24802W        W88570  40.912   0.834  14.925
24803W        W88571  11.283  43.408  13.370
24804W        W88572  16.693  21.555  11.999
24805W        W88573  40.977  14.600  10.554
24806W        W88574   1.430  35.413   0.878
24807W        W88575  32.538  35.540  13.065
24808W        W88576  27.627   8.766   0.758
24809W        W88577  31.147  26.983  11.938
24810W        W88578  41.822   9.207   2.205
24811W        W88579   2.264  20.743   4.792
24812W        W88580   0.258  35.898  10.921
24813W        W88581  35.063  42.364   3.650
24814W        W88582   4.831  38.993  12.856
24815W        W88583  19.675  35.096   1.903
24816W        W88584  38.877  11.765  14.438
24817W        W88585  29.936  44.992  10.555
24818W        W88586  36.346  21.657  13.312
24819W        W88587  16.805  16.671  10.439
24820W        W88588  21.156  22.033   0.451
24821W        W88589  20.533  28.030   4.349
24822W        W88590  37.424  31.573   1.361
24823W        W88591   8.360  17.794  13.829
24824W        W88592  37.014  35.450   2.339
24825W        W88593  14.220  40.355  14.819
24826W        W88594  41.394   0.336   2.843
24827W        W88595  43.006  31.153  11.936
24828W        W88596   8.788   9.370  13.999
24829W        W88597  36.546   0.975   2.330
24830W        W88598  35.452  28.168   3.223
24831W        W88599  33.425  21.676   1.722
24832W        W88600   4.234  28.046   0.365
24833W        W88601   8.195  12.348   3.768
24834W        W88602  15.205  44.417   0.359
24835W        W88603  25.484  37.011   3.158
24836W        W88604  35.512  41.413  10.475
24837W        W88605   3.736  11.686   4.728
24838W        W88606  17.168  21.555   5.144
24839W        W88607  39.401  40.855  12.995
24840W        W88608  35.066  11.307   0.321
24841W        W88609  19.097  30.443  12.384
24842W        W88610  34.919   7.709  10.455
24843W        W88611  28.158  39.035  11.494
24844W        W88612  26.157  44.438  11.407
24845W        W88613  20.751  41.998   1.426
24846W        W88614  43.494  21.613  13.353
24847W        W88615  19.282  32.615  13.447
24848W        W88616  21.133   3.835   1.850
24849W        W88617  43.894  20.768   1.387
24850W        W88618   9.152  19.627   4.616
24851W        W88619  26.984  11.809  12.573
24852W        W88620   1.342  28.536  14.481
24853W        W88621   9.735  35.942  10.470
24854W        W88622  43.869  28.127   3.725
24855W        W88623  13.690  21.150   3.809
24856W        W88624  39.863  12.357  14.762
24857W        W88625  42.777  17.592   1.821
24858W        W88626  40.472  11.170  13.547
24859W        W88627  40.869  27.960  13.792
24860W        W88628  44.369  19.184   4.238
24861W        W88629   4.416  35.035   9.977
24862W        W88630  41.426  34.473   1.863
24863W        W88631  40.521  22.187  11.485
24864W        W88632   0.907  38.392  13.971
24865W        W88633  34.550   7.724   1.830
24866W        W88634  16.768  30.562   4.310
24867W        W88635  24.575  24.544   0.395
24868W        W88636  30.005  17.086  11.971
24869W        W88637  28.954  35.585  13.036
24870W        W88638  12.821  19.709  11.933
24871W        W88639  13.296  23.013   1.426
24872W        W88640  42.925  14.264  14.470
24873W        W88641  16.314   2.245  14.295
24874W        W88642  22.702  44.358  12.941
24875W        W88643  12.735  30.583   2.743
24876W        W88644   5.267  28.092  13.904
24877W        W88645   8.771  40.413   1.851
24878W        W88646   1.353  17.219   4.125
24879W        W88647   0.408  10.317   1.931
24880W        W88648  19.610  17.138   0.464
24881W        W88649  39.917  33.483   4.139
24882W        W88650  44.352  28.965  14.895
24883W        W88651  30.106   1.843  14.431
24884W        W88652  30.011  31.016   4.269
24885W        W88653  39.531  13.814   3.379
24886W        W88654  31.424  33.483   4.834
24887W        W88655   0.334   0.938  11.974
24888W        W88656  16.808   3.317  11.121
24889W        W88657  42.449  33.891   4.337
24890W        W88658  29.134  30.974   2.237
24891W        W88659  29.086   1.283  12.913
24892W        W88660  43.430  30.506  13.405
24893W        W88661   3.314  31.417  12.417
24894W        W88662  40.426  19.745  12.371
24895W        W88663  36.950  18.678   3.290
24896W        W88664   0.265   9.324  13.372
24897W        W88665  21.725  19.615   1.743
24898W        W88666  35.887  38.501  13.496
24899W        W88667  38.548  30.983   1.235
24900W        W88668  19.239  27.555  14.341
24901W        W88669  20.639  38.364   4.235
24902W        W88670  13.740  32.591  12.931
24903W        W88671  25.160   2.332   2.838
24904W        W88672   8.861  41.918  10.959
24905W        W88673  40.491  43.502   3.855
24906W        W88674  10.331  41.468  12.380
24907W        W88675  26.176  34.522  12.527
24908W        W88676  40.310  23.055   3.715
24909W        W88677  13.759  16.807  10.082
24910W        W88678  19.576  32.031   3.225
24911W        W88679  39.957  41.535   3.755
24912W        W88680  23.993   3.891   3.249
24913W        W88681  43.439  37.437   0.445
24914W        W88682  10.795  18.726  10.912
24915W        W88683  37.899  42.983   0.749
24916W        W88684   9.227   6.207  13.341
24917W        W88685  31.937  29.436   0.847
24918W        W88686  20.709  44.804  12.965
24919W        W88687   3.264   3.216  13.998
24920W        W88688  17.661   4.887  11.875
24921W        W88689  40.365  38.456  13.422
24922W        W88690  40.517   0.953  11.922
24923W        W88691  17.610  16.176  11.949
24924W        W88692   7.753   6.887   4.179
24925W        W88693  42.324  40.408   0.293
24926W        W88694  21.514  35.388   3.286
24927W        W88695  16.221  25.710  10.614
24928W        W88696  32.034   5.748  12.013
24929W        W88697  16.267  43.418   2.419
24930W        W88698   3.349  31.504   0.297
24931W        W88699  11.191  14.775  12.444
24932W        W88700   7.670  28.652  14.314
24933W        W88701  28.113   0.817  12.396
24934W        W88702  14.273  36.931   1.403
24935W        W88703  37.075  11.695  14.843
24936W        W88704  37.991  13.829  12.345
24937W        W88705   9.201  18.716   0.850
24938W        W88706  26.003  21.672  12.895
24939W        W88707   5.784  26.987   3.676
24940W        W88708   9.236  42.397  10.921
24941W        W88709   1.764  23.120  11.452
24942W        W88710  29.609   9.790   0.825
24943W        W88711  40.841  36.057   0.273
24944W        W88712   3.398  13.779   1.217
24945W        W88713  41.815  39.936   2.741
24946W        W88714  18.295  36.435   0.773
24947W        W88715  26.571  24.993  10.499
24948W        W88716  12.157  28.084   2.689
24949W        W88717   3.728  37.486   0.861
24950W        W88718   3.943   8.715   4.261
24951W        W88719  17.727  32.957   1.892
24952W        W88720  10.302  18.566   5.270
24953W        W88721  10.248  19.170  14.818
24954W        W88722  32.483   4.349   4.178
24955W        W88723  39.361  15.110   4.203
24956W        W88724  15.309  43.862   3.155
24957W        W88725  15.773  23.109   3.220
24958W        W88726   9.651   7.707  11.910
24959W        W88727   1.237  26.098  11.467
24960W        W88728  29.996  21.077  11.022
24961W        W88729  19.238  13.664  14.334
24962W        W88730   6.863  27.973   1.253
24963W        W88731  13.255  23.704   2.833
24964W        W88732  37.339  42.486  14.296
24965W        W88733  36.892  33.998  14.989
24966W        W88734   6.861  35.073  10.493
24967W        W88735   7.272   3.297   0.477
24968W        W88736   2.325  44.996   4.630
24969W        W88737   5.393  15.596   1.723
24970W        W88738   5.719   5.785  13.938
24971W        W88739   0.429  26.458  13.359
24972W        W88740  14.713   6.886  14.770
24973W        W88741  16.594  36.881  10.890
24974W        W88742  31.969  16.576  13.327
24975W        W88743  17.775   2.788   2.329
24976W        W88744  31.147  17.765   2.335
24977W        W88745  41.834  17.173  11.876
24978W        W88746   4.439   4.879   0.860
24979W        W88747   3.313   8.769   1.292
24980W        W88748  10.697  18.628   4.214
24981W        W88749  13.625  30.451   0.366
24982W        W88750  12.852  14.720  11.519
24983W        W88751  39.838   1.370  11.013
24984W        W88752  16.114  33.067  11.568
24985W        W88753  39.459  14.822   0.921
24986W        W88754   9.890  39.036   2.734
24987W        W88755  14.768  12.855  11.543
24988W        W88756  30.985  36.925   0.288
24989W        W88757   3.357  12.172  12.549
24990W        W88758  30.454  43.871   4.126
24991W        W88759  44.909  15.200   4.145
24992W        W88760  14.094   7.297   2.394
24993W        W88761  34.055  26.143   3.149
24994W        W88762  25.474  15.115   4.347
24995W        W88763   2.411  21.247  12.921
24996W        W88764  32.137  12.132  13.379
24997W        W88765  27.132   1.314  14.958
24998W        W88766  19.568  37.074   4.291
24999W        W88767  12.627  32.596  11.461
25000W        W88768   1.778  19.737  12.344
25001W        W88769  24.521  36.472  10.591
25002W        W88770  33.083  13.296  12.572
25003W        W88771  35.965   9.302  14.794
25004W        W88772  33.966   6.214  12.868
25005W        W88773   6.910  41.862   2.390
25006W        W88774   4.335  25.118   4.815
25007W        W88775   8.222  42.416   1.715
25008W        W88776  15.757   6.885  11.403
25009W        W88777  33.083  33.933   4.244
25010W        W88778  23.494  32.463   4.693
25011W        W88779  29.512   4.856  12.486
25012W        W88780  15.302   6.832  12.352
25013W        W88781  17.757  11.655   3.186
25014W        W88782  18.658  37.532  11.869
25015W        W88783  35.595  10.729  11.589
25016W        W88784  13.210  42.481   0.963
25017W        W88785  13.655  17.754  11.871
25018W        W88786  43.001  10.714  12.431
25019W        W88787  38.012  17.773  12.944
25020W        W88788  32.968   7.745  11.482
25021W        W88789   7.846  24.004  13.476
25022W        W88790  20.590  41.005   4.351
25023W        W88791  10.357  29.033   0.342
25024W        W88792  41.915   1.415   0.904
25025W        W88793  17.562  29.514  13.357
25026W        W88794  11.280   7.341  13.037
25027W        W88795  39.053  15.132   2.671
25028W        W88796   9.234  17.654  11.104
25029W        W88797  26.607  21.168  12.960
25030W        W88798  32.556  10.780   0.249
25031W        W88799  41.392   1.444  14.304
25032W        W88800  27.013  18.254   0.884
25033W        W88801  15.612  36.955  14.302
25034W        W88802  19.710   5.337   1.808
25035W        W88803  37.518  44.435   1.270
25036W        W88804  15.580  31.629  10.069
25037W        W88805  24.582  21.160   5.164
25038W        W88806  21.663  42.467   3.263
25039W        W88807  24.976  40.321  14.952
25040W        W88808  31.463  23.680  11.586
25041W        W88809  26.657  31.568  10.112
25042W        W88810  37.539  11.852  11.869
25043W        W88811  28.508  18.628  14.993
25044W        W88812  36.577   4.775  10.099
25045W        W88813  25.607  31.586  14.991
25046W        W88814  20.589  11.634  13.978
25047W        W88815  28.966  17.636  13.920
25048W        W88816   5.702  38.484   2.349
25049W        W88817   9.677  22.141   1.349
25050W        W88818  39.326  10.259   4.661
25051W        W88819  26.150  12.797  14.376
25052W        W88820   5.285  35.070   0.373
25053W        W88821  37.885   8.872   2.258
25054W        W88822  26.678  41.299   1.395
25055W        W88823  36.482  24.030   3.287
25056W        W88824   7.718  21.263  12.887
25057W        W88825  34.080  29.666   3.311
25058W        W88826  24.073  34.011  14.837
25059W        W88827  42.377  10.701   4.804
25060W        W88828  14.176  30.638  10.464
25061W        W88829  23.171  35.889  11.487
25062W        W88830   1.889  14.242  13.320
25063W        W88831  29.465   2.874  13.993
25064W        W88832  14.655  32.393   3.252
25065W        W88833   8.689  30.138  14.394
25066W        W88834  26.076  31.923   3.715
25067W        W88835  42.525   1.318   2.182
25068W        W88836  32.989  31.455   1.756
25069W        W88837   2.431  10.731  14.932
25070W        W88838   0.965  25.493   1.775
25071W        W88839  20.695   8.283  11.391
25072W        W88840   6.914   8.177   2.687
25073W        W88841  19.650  44.408   4.612
25074W        W88842  24.131   6.271   2.285
25075W        W88843  24.516  12.642   1.781
25076W        W88844   0.791  15.176   3.641
25077W        W88845  31.120  41.341   4.738
25078W        W88846  25.512  33.615   0.407
25079W        W88847  20.692   2.326  14.870
25080W        W88848  37.895  21.171   3.813
25081W        W88849  13.613  15.212  13.001
25082W        W88850  18.284   3.924   3.847
25083W        W88851  44.864  15.244   2.750
25084W        W88852  33.943   9.371  10.893
25085W        W88853  28.113  33.929   3.177
25086W        W88854  32.004   6.403  14.385
25087W        W88855  30.908  31.024   1.232
25088W        W88856  28.550   0.450  10.541
25089W        W88857  35.005  39.903   0.740
25090W        W88858  16.189  27.682  11.530
25091W        W88859  22.592  38.888   0.929
25092W        W88860  38.032  38.561   1.729
25093W        W88861  37.366  36.461   3.790
25094W        W88862  36.580  42.421  14.468
25095W        W88863   7.179  12.714   2.670
25096W        W88864  23.731  30.646   4.802
25097W        W88865  26.091  21.692  13.350
25098W        W88866  16.658  17.557   1.883
25099W        W88867  13.748  41.292   2.268
25100W        W88868  32.943  12.616   2.726
25101W        W88869  22.125  39.447   3.835
25102W        W88870  24.057  11.652   2.838
25103W        W88871  15.299  29.492   3.848
25104W        W88872  25.490   1.738   3.169
25105W        W88873   6.318  26.679  10.893
25106W        W88874   5.688   4.213  13.476
25107W        W88875  25.528  36.481  10.096
25108W        W88876  19.758  31.625  14.411
25109W        W88877   5.795  44.494  12.431
25110W        W88878  30.041  29.585   3.155
25111W        W88879   7.331   2.755  12.825
25112W        W88880  21.215  21.572   0.358
25113W        W88881  28.067   6.231   2.191
25114W        W88882  22.726  32.968  13.915
25115W        W88883  19.051  12.654   4.631
25116W        W88884  26.176  36.372  11.896
25117W        W88885  34.105  29.573  12.940
25118W        W88886  24.706   0.759  14.299
25119W        W88887  38.962   7.332  11.461
25120W        W88888  15.089  14.612   1.821
25121W        W88889  18.293  36.409  14.004
25122W        W88890  14.761  15.777  12.831
25123W        W88891  14.224   5.337  10.975
25124W        W88892  34.473  41.496   0.877
25125W        W88893  12.121  28.132  11.569
25126W        W88894   3.811  34.498   2.234
25127W        W88895  17.560  30.650  10.603
25128W        W88896   7.887  18.167  11.887
25129W        W88897  19.585  28.173  10.935
25130W        W88898  44.460  10.787  14.332
25131W        W88899   8.751  20.743  10.920
25132W        W88900  32.023  25.607   4.746
25133W        W88901   0.981  28.146   9.965
25134W        W88902  12.132  42.868  14.852
25135W        W88903   6.907  41.886   4.331
25136W        W88904  44.908  41.377   3.319
25137W        W88905  38.858  19.688  11.525
25138W        W88906  40.932  36.896  11.892
25139W        W88907  43.976  18.655   0.410
25140W        W88908  26.596   0.905  12.083
25141W        W88909  19.065  34.062   3.374
25142W        W88910   7.802  25.083  12.422
25143W        W88911  32.588  33.398  12.927
25144W        W88912  40.502  29.105   4.290
25145W        W88913   4.868   8.207   3.170
25146W        W88914  44.973  20.078  12.832
25147W        W88915  36.940  14.306  10.473
25148W        W88916   6.878  29.169   3.827
25149W        W88917  41.025  20.759   1.361
25150W        W88918   1.742  13.829   0.814
25151W        W88919   5.849  40.016   0.244
25152W        W88920   2.248  32.469   0.420
25153W        W88921  33.390  33.879  12.380
25154W        W88922   8.749  42.314   3.164
25155W        W88923  37.901  36.878   0.471
25156W        W88924   2.898  39.489  13.353
25157W        W88925  16.285  14.250  10.604
25158W        W88926  36.864   5.867  11.923
25159W        W88927  13.350  23.649   1.828
25160W        W88928   7.345  26.621   0.471
25161W        W88929  25.167  21.160  13.357
25162W        W88930  12.655  20.699   4.302
25163W        W88931  43.890  28.456   4.750
25164W        W88932  12.125  13.187  11.986
25165W        W88933  24.026  44.781   0.784
25166W        W88934  10.833  25.529  12.887
25167W        W88935   4.807  13.109  11.043
25168W        W88936  44.004  17.656   3.284
25169W        W88937  30.572  15.801   3.184
25170W        W88938  32.088  16.691  13.842
25171W        W88939  30.422  29.059  14.784
25172W        W88940   4.304  12.695   3.833
25173W        W88941  42.843  33.609   1.353
25174W        W88942  39.882  29.941   2.902
25175W        W88943   8.402  35.975  12.068
25176W        W88944  39.457   6.921   3.785
25177W        W88945   3.740  44.504   2.772
25178W        W88946  21.735  23.041  13.035
25179W        W88947   2.855  20.551   0.866
25180W        W88948  17.262  19.040   2.796
25181W        W88949  33.578  40.906  11.609
25182W        W88950  38.898  24.617   1.781
25183W        W88951  14.816  26.155  14.284
25184W        W88952  23.138  36.872  12.420
25185W        W88953  33.618  15.304   0.885
25186W        W88954  34.514  27.993  13.001
25187W        W88955   5.799  41.399  12.007
25188W        W88956  20.612  42.352  13.365
25189W        W88957  26.978  21.544  14.819
25190W        W88958  10.283  12.291  14.395
25191W        W88959  35.006  35.436   3.354
25192W        W88960   4.708  21.679   4.659
25193W        W88961  35.919  19.647  11.951
25194W        W88962  24.648  32.423   0.352
25195W        W88963  18.072  36.091   3.181
25196W        W88964  22.163  39.464   4.827
25197W        W88965   5.326  37.359   3.273
25198W        W88966  36.555  31.990  10.993
25199W        W88967  38.830  12.809   0.317
25200W        W88968   6.903  29.499   1.215
25201W        W88969  38.332  24.635   0.479
25202W        W88970   5.202  18.580  14.858
25203W        W88971   2.890  36.409   1.409
25204W        W88972  39.382  43.862  12.455
25205W        W88973  42.793  32.462   2.324
25206W        W88974  41.432  21.740   0.263
25207W        W88975  21.129  43.315   0.766
25208W        W88976  37.928  22.519   4.819
25209W        W88977  33.911  14.299   4.791
25210W        W88978  33.526  39.423  10.463
25211W        W88979  33.477  32.004  14.901
25212W        W88980  17.131  11.238   0.791
25213W        W88981   4.736  23.642  12.473
25214W        W88982  29.040  30.151  14.019
25215W        W88983  41.363   8.179   0.918
25216W        W88984  33.096  31.028  12.010
25217W        W88985  23.028  20.582   2.378
25218W        W88986   8.248  20.714  14.479
25219W        W88987  20.605  33.902   3.275
25220W        W88988  14.131  18.734   0.940
25221W        W88989  25.672  39.960   2.747
25222W        W88990   6.282  40.427   4.747
25223W        W88991  16.617  16.146  12.837
25224W        W88992  25.152  41.357   1.886
25225W        W88993  38.485  39.019   2.335
25226W        W88994  11.648   0.944   0.814
25227W        W88995  22.589  35.601  12.051
25228W        W88996  28.564  12.312   3.379
25229W        W88997  26.177  16.130   4.276
25230W        W88998  38.559   2.468   4.768
25231W        W88999   2.959   4.438   0.286
25232W        W89000  12.305  34.977  11.967
25233W        W89001  24.998  15.142  13.808
25234W        W89002  10.236   6.864   3.157
25235W        W89003   5.432   3.947   0.829
25236W        W89004  12.146  36.903   4.220
25237W        W89005  41.327   6.814  11.566
25238W        W89006   0.263   9.272   3.261
25239W        W89007   4.747  42.935  12.979
25240W        W89008  27.538  38.345   1.768
25241W        W89009  33.980  31.959   0.794
25242W        W89010  31.143  24.166   4.676
25243W        W89011  17.723  43.898   3.373
25244W        W89012  22.514  16.129  12.528
25245W        W89013  25.619   0.886   2.363
25246W        W89014  33.054   8.237  12.351
25247W        W89015   6.330   6.762   2.745
25248W        W89016  34.100  40.935   1.886
25249W        W89017  27.637  27.164   4.646
25250W        W89018  41.954  20.121  13.538
25251W        W89019  36.072  22.131  11.392
25252W        W89020  15.758   2.453  11.511
25253W        W89021  16.099  38.355   0.803
25254W        W89022  36.872  30.521  14.345
25255W        W89023  36.855  37.923   4.202
25256W        W89024  10.378  22.163  13.382
25257W        W89025   4.816  42.395   1.834
25258W        W89026  26.204  38.015   5.715
25259W        W89027  17.657  21.643  10.560
25260W        W89028  13.791  24.126   1.408
25261W        W89029   0.364  43.830  11.505
25262W        W89030  40.985  24.013  11.999
25263W        W89031  29.041  19.666   2.751
25264W        W89032  18.782  38.022  10.910
25265W        W89033  33.583  40.422   0.298
25266W        W89034   4.891  36.917   1.736
25267W        W89035  11.767  30.639   0.289
25268W        W89036  22.162  31.120   3.700
25269W        W89037  16.805  40.478  13.024
25270W        W89038  34.054   5.714  14.305
25271W        W89039  17.224  21.121  13.947
25272W        W89040  42.521  10.224   1.438
25273W        W89041  26.575  23.027   3.186
25274W        W89042  41.928  16.646  10.927
25275W        W89043  31.124  13.250   4.331
25276W        W89044  14.162  14.738  14.510
25277W        W89045  31.476   5.357   3.745
25278W        W89046   3.252  16.111   2.736
25279W        W89047  11.272  10.820  12.423
25280W        W89048  41.834  21.599   0.430
25281W        W89049   9.353  26.997   4.676
25282W        W89050  12.621  25.081  14.426
25283W        W89051  40.483  12.359   0.849
25284W        W89052  13.788  22.556  12.014
25285W        W89053  33.584  30.100  14.797
25286W        W89054  15.605   2.286   1.434
25287W        W89055  15.718  21.055   4.722
25288W        W89056  27.133  24.201  13.038
25289W        W89057  16.606  11.205   1.393
25290W        W89058  23.072  11.303   0.963
25291W        W89059  24.543   4.889  13.939
25292W        W89060  39.956  18.585   1.337
25293W        W89061  23.628   0.744   4.646
25294W        W89062  15.202  39.490  12.343
25295W        W89063  26.095   5.269   4.629
25296W        W89064  18.100  33.497  11.508
25297W        W89065  32.094  13.330   1.369
25298W        W89066  12.216   1.469   2.195
25299W        W89067  30.480  17.657   2.663
25300W        W89068  14.690  21.220  11.086
25301W        W89069  22.157  23.685  14.780
25302W        W89070  26.648  39.338   3.795
25303W        W89071  18.585  40.317   3.726
25304W        W89072  34.910  24.142   0.483
25305W        W89073   9.805  37.447  13.827
25306W        W89074  25.189  25.474  12.891
25307W        W89075   3.880   5.423   0.890
25308W        W89076   7.789  40.455  12.060
25309W        W89077  32.561   8.791   0.750
25310W        W89078  16.654  23.577   0.435
25311W        W89079  33.114  37.582   4.198
25312W        W89080   2.404  15.131   2.746
25313W        W89081   0.932  11.821  10.888
25314W        W89082   9.810  37.898   2.398
25315W        W89083  24.636  23.686   0.927
25316W        W89084   2.290  22.164  12.913
25317W        W89085   2.362   9.713  13.462
25318W        W89086  13.295  31.511  12.938
25319W        W89087  36.577   4.755   4.117
25320W        W89088  37.016  15.739  11.426
25321W        W89089  40.976  36.866  11.047
25322W        W89090  32.517  31.422   1.897
25323W        W89091  17.216  37.582   3.695
25324W        W89092  24.109  19.752   0.785
25325W        W89093   7.209  22.726   4.246
25326W        W89094  28.126  43.778  12.372
25327W        W89095  35.540  35.898  14.985
25328W        W89096  14.778  38.055   0.342
25329W        W89097   9.377  34.977   2.848
25330W        W89098   9.237  20.240  10.978
25331W        W89099  27.959  16.287   1.904
25332W        W89100  11.658  17.091   3.286
25333W        W89101  34.533   0.333   2.809
25334W        W89102   3.786  15.135   0.848
25335W        W89103   2.364   2.755  11.605
25336W        W89104  26.073  20.736   4.640
25337W        W89105  11.338   0.372  10.904
25338W        W89106  33.040  31.553   0.342
25339W        W89107  25.663  29.662  14.505
25340W        W89108  24.108   8.871   0.932
25341W        W89109  11.680  43.420   2.238
25342W        W89110   8.889  38.975   4.730
25343W        W89111  12.342  37.569  13.815
25344W        W89112  27.039  30.939   2.852
25345W        W89113  17.231  36.026  14.954
25346W        W89114  20.108   2.284   0.320
25347W        W89115  43.947  10.865   3.239
25348W        W89116  43.274  27.505  13.974
25349W        W89117  38.894  39.969   2.221
25350W        W89118   3.878  38.886  10.127
25351W        W89119   9.201  26.194   3.299
25352W        W89120  33.066  20.191   1.449
25353W        W89121   4.310   6.815   0.768
25354W        W89122  14.191  21.707  14.871
25355W        W89123  38.517  24.482   1.236
25356W        W89124  18.578  26.992   3.309
25357W        W89125  42.504  33.978  13.991
25358W        W89126  32.034  30.102  14.809
25359W        W89127  14.684  10.237  11.911
25360W        W89128   9.242  31.030   1.254
25361W        W89129  30.022  36.377   0.959
25362W        W89130  33.463   9.759   2.281
25363W        W89131  19.176  34.485  11.414
25364W        W89132  31.444  11.154   0.356
25365W        W89133  14.697  27.975  14.492
25366W        W89134  36.010  31.615  14.804
25367W        W89135  28.160  37.082  13.399
25368W        W89136  39.445  17.760   3.168
25369W        W89137  36.916  21.582  12.558
25370W        W89138  27.048   4.753  12.507
25371W        W89139  36.896  12.708  10.974
25372W        W89140  33.969  13.603  10.597
25373W        W89141  33.432  33.529   2.385
25374W        W89142   1.905  22.241   1.828
25375W        W89143  13.226  24.194   1.771
25376W        W89144  11.207  36.537   1.254
25377W        W89145   1.336  34.500   1.251
25378W        W89146   1.400  28.012   4.678
25379W        W89147  16.269  35.377   4.298
25380W        W89148  10.356  25.524   2.894
25381W        W89149   6.772  15.637   2.287
25382W        W89150  18.740  18.734   4.232
25383W        W89151  12.742  13.328   3.807
25384W        W89152  21.687  18.220   4.665
25385W        W89153   5.724  41.364   4.344
25386W        W89154  30.050  17.133   9.979
25387W        W89155   7.786  10.751   0.478
25388W        W89156  18.268  40.315  13.439
25389W        W89157  44.487  36.563  14.485
25390W        W89158  22.240   6.759   1.393
25391W        W89159  33.600  22.650  14.495
25392W        W89160  25.016  23.663   2.406
25393W        W89161  38.494   3.373   1.908
25394W        W89162  26.513  15.146   1.731
25395W        W89163   7.889  42.892   4.648
25396W        W89164  33.883   5.721  11.052
25397W        W89165   4.367   4.288  11.025
25398W        W89166  37.073  16.623  11.556
25399W        W89167  30.989  12.354   2.209
25400W        W89168  28.657  35.499  14.452
25401W        W89169  34.568  38.873  13.359
25402W        W89170  42.944   4.801  11.083
25403W        W89171  12.230  14.624   4.334
25404W        W89172  36.583  28.066  14.403
25405W        W89173  35.073  33.103   0.284
25406W        W89174   3.930  28.542  10.577
25407W        W89175  28.646   7.388   0.803
25408W        W89176  21.099  24.609  11.900
25409W        W89177  21.174  24.052   0.874
25410W        W89178  38.517   4.378   4.317
25411W        W89179  30.968  37.030  11.581
25412W        W89180   6.703   0.316   3.726
25413W        W89181  34.094   6.710  13.525
25414W        W89182  34.426  23.100   3.356
25415W        W89183   8.832  25.596   1.334
25416W        W89184  40.005  25.506  14.007
25417W        W89185  16.250  15.767  14.934
25418W        W89186  34.599  37.557  14.460
25419W        W89187   9.794  38.984  13.448
25420W        W89188  12.762  37.446   2.848
25421W        W89189  41.357  23.718  10.979
25422W        W89190   8.309  24.217  11.870
25423W        W89191   5.260  10.380   3.271
25424W        W89192  30.082  11.347  10.486
25425W        W89193   3.454  34.547  13.812
25426W        W89194  36.977   5.690   4.295
25427W        W89195  26.488  41.444   3.259
25428W        W89196  21.701  29.089  12.937
25429W        W89197  37.504   8.777  13.532
25430W        W89198  13.164   2.836   1.285
25431W        W89199  20.050  22.553  13.975
25432W        W89200  26.557  15.795  14.281
25433W        W89201  37.839  31.955  14.379
25434W        W89202  38.555  19.733   1.445
25435W        W89203   5.801  28.060  14.018
25436W        W89204  20.042  34.464   0.874
25437W        W89205   4.438  25.544   0.890
25438W        W89206  32.046  11.337  12.903
25439W        W89207  35.477  14.104  13.974
25440W        W89208  39.497  35.942   1.349
25441W        W89209  44.909   9.392   1.920
25442W        W89210  16.246  43.941   2.327
25443W        W89211  13.722  21.690  11.087
25444W        W89212  42.523   8.314  12.984
25445W        W89213  19.779  37.023  14.422
25446W        W89214   2.923   6.683  13.483
25447W        W89215  35.050  11.352  10.510
25448W        W89216  19.669  13.238   4.265
25449W        W89217  11.324  38.407   3.212
25450W        W89218  22.632  14.250   4.756
25451W        W89219  25.974  23.106   3.813
25452W        W89220  23.039  13.286   0.771
25453W        W89221  44.960  18.692  12.053
25454W        W89222   3.320  21.609   1.850
25455W        W89223  19.154  31.452   2.751
25456W        W89224  32.549  16.725  14.432
25457W        W89225  29.148  30.111   3.760
25458W        W89226  13.236   9.866  12.402
25459W        W89227  30.518   5.383   3.292
25460W        W89228  26.667  44.001  13.903
25461W        W89229   2.394  22.739   3.167
25462W        W89230  25.177  13.212  10.590
25463W        W89231  31.429  13.123  10.602
25464W        W89232   6.329   3.775   3.335
25465W        W89233  24.067  39.831  13.985
25466W        W89234  15.203  33.448   2.263
25467W        W89235   7.819  39.467   1.310
25468W        W89236  30.454  27.028  13.420
25469W        W89237  40.799  14.184  13.044
25470W        W89238   4.217  15.593   1.794
25471W        W89239   3.239  26.483  13.410
25472W        W89240  28.526   5.392  11.448
25473W        W89241  17.708  16.241   1.822
25474W        W89242  23.722   9.691   0.913
25475W        W89243  21.588  42.451  13.345
25476W        W89244   2.416  23.676   4.744
25477W        W89245   7.842  12.238  11.377
25478W        W89246  26.988  14.816  11.611
25479W        W89247  15.635  18.590   1.783
25480W        W89248  30.640   5.373  11.128
25481W        W89249  29.522  25.582  12.524
25482W        W89250   0.957  22.537  10.071
25483W        W89251  10.271  41.022   3.363
25484W        W89252   2.369  35.025   1.221
25485W        W89253  43.431  10.362  11.902
25486W        W89254  16.158  11.353   4.702
25487W        W89255  11.782   1.753  14.388
25488W        W89256  25.691  43.270  13.509
25489W        W89257  28.590  39.377  13.919
25490W        W89258  26.701   2.929   3.294
25491W        W89259  38.467  33.943   0.905
25492W        W89260   8.353  12.612   0.871
25493W        W89261  40.464   0.419  13.315
25494W        W89262  11.694   7.188  10.982
25495W        W89263  31.507  28.525  10.964
25496W        W89264  25.700  39.043   2.839
25497W        W89265  44.471  11.733  10.455
25498W        W89266  21.579  26.074  10.602
25499W        W89267  29.947  39.915  10.590
25500W        W89268  11.634  44.393   4.609
25501W        W89269  25.056  29.046   0.448
25502W        W89270  42.466   2.402   4.746
25503W        W89271  37.537  18.778   4.178
25504W        W89272  12.688   2.431  11.082
25505W        W89273   8.804  43.790  11.500
25506W        W89274  36.873   5.857   3.287
25507W        W89275  37.039   5.438   9.540
25508W        W89276   5.899  32.424   1.294
25509W        W89277  10.718  36.957   2.666
25510W        W89278  19.266  23.524  12.883
25511W        W89279  12.362  10.804   1.887
25512W        W89280  31.470  33.012   4.339
25513W        W89281  41.349  20.632   1.935
25514W        W89282  40.005  11.164  14.973
25515W        W89283  23.554  32.920   5.163
25516W        W89284  44.837  39.921   0.960
25517W        W89285  31.519  29.159   4.634
25518W        W89286  38.041  12.303   1.361
25519W        W89287   0.436   1.860  10.481
25520W        W89288  18.771  13.809   1.229
25521W        W89289  42.877  21.051   0.830
25522W        W89290  42.950   8.347   1.869
25523W        W89291  27.966  30.102  10.130
25524W        W89292  27.508   3.344  14.358
25525W        W89293  34.505  38.503  14.315
25526W        W89294  30.983   9.279  12.826
25527W        W89295  11.738   4.388   1.814
25528W        W89296  29.938  43.802  12.562
25529W        W89297  18.176   5.766   2.223
25530W        W89298   6.842  22.155  14.505
25531W        W89299   0.975  40.474   3.796
25532W        W89300   7.743  22.079  11.078
25533W        W89301  21.731   0.899  11.373
25534W        W89302  22.507   9.808  11.525
25535W        W89303  39.911  25.593  14.306
25536W        W89304  20.113  23.173  14.762
25537W        W89305  18.116  23.139   1.790
25538W        W89306  24.583   6.319   4.213
25539W        W89307  18.257  43.425  12.969
25540W        W89308  10.384  32.889  12.348
25541W        W89309  18.562  33.605  14.803
25542W        W89310  18.686  17.083   2.327
25543W        W89311   7.188  18.760  10.927
25544W        W89312  36.552   7.778   2.668
25545W        W89313  35.085   3.717  12.396
25546W        W89314  17.759   8.831   0.475
25547W        W89315  23.653  26.623  10.890
25548W        W89316  20.582  29.482  14.363
25549W        W89317  35.854  14.634   0.820
25550W        W89318  43.780  39.531   4.609
25551W        W89319  20.246   4.368   4.650
25552W        W89320   8.403  16.074   1.424
25553W        W89321   6.215   1.908  12.384
25554W        W89322  15.105   9.663  13.943
25555W        W89323  21.557  44.296   0.832
25556W        W89324   2.334  22.713   2.771
25557W        W89325  37.991  43.812   0.449
25558W        W89326  30.626  27.517   4.221
25559W        W89327   7.208   7.395  13.459
25560W        W89328  34.038   7.204   4.346
25561W        W89329  33.552  13.758   4.833
25562W        W89330  16.287   9.280  13.861
25563W        W89331  44.881   5.320  14.447
25564W        W89332  10.679  38.055   1.712
25565W        W89333  18.059  20.210   9.575
25566W        W89334  15.804  42.956  10.026
25567W        W89335  15.795  20.556   0.402
25568W        W89336  29.584  20.736   1.406
25569W        W89337  19.098  27.451   3.310
25570W        W89338   4.418   6.706   0.271
25571W        W89339  41.535  19.125   2.852
25572W        W89340  27.137   6.890   2.333
25573W        W89341   6.421  23.522  10.612
25574W        W89342   1.958  22.135   2.804
25575W        W89343   6.200  38.854   2.809
25576W        W89344  18.697  29.592  10.947
25577W        W89345  19.762  11.212   0.401
25578W        W89346  33.611  33.105   9.987
25579W        W89347  36.926  17.243   4.812
25580W        W89348  18.206   4.784   0.853
25581W        W89349  12.308   1.417   1.329
25582W        W89350   7.277  23.139   1.350
25583W        W89351  33.589  41.434  13.802
25584W        W89352  25.136  11.318  12.841
25585W        W89353  21.619  24.655   2.345
25586W        W89354  38.040  18.240   9.987
25587W        W89355   4.813   6.863   4.695
25588W        W89356   2.746  20.226   1.338
25589W        W89357   7.352  38.027   2.254
25590W        W89358  18.242   9.868   3.662
25591W        W89359  27.108  13.177   0.771
25592W        W89360  14.102  40.991  12.533
25593W        W89361  35.554  22.145  14.367
25594W        W89362  37.442  29.941   4.297
25595W        W89363  40.954  26.179   3.777
25596W        W89364  14.807  23.151  14.002
25597W        W89365  12.708  44.504   3.190
25598W        W89366  27.182   0.459   1.317
25599W        W89367  28.459  16.659   4.287
25600W        W89368  18.565  22.535  11.950
25601W        W89369  22.603   2.849   4.687
25602W        W89370   4.368   9.282  11.518
25603W        W89371   7.355   5.290   1.422
25604W        W89372  10.306   2.226   4.686
25605W        W89373   3.354  32.111   4.643
25606W        W89374  17.615  34.395   2.191
25607W        W89375  35.562  26.631   0.953
25608W        W89376  27.103  18.556  14.314
25609W        W89377  29.064   7.317  10.431
25610W        W89378  37.997  33.435   2.261
25611W        W89379  28.950  37.539  13.343
25612W        W89380  24.687  22.093   2.867
25613W        W89381  12.847  14.593  13.872
25614W        W89382  27.196  32.944   0.290
25615W        W89383  35.893  10.207   0.334
25616W        W89384  28.609  15.255   0.823
25617W        W89385   4.291   5.356   1.911
25618W        W89386  32.490  11.373  11.923
25619W        W89387   9.851  23.527   4.275
25620W        W89388  19.568   4.333   4.280
25621W        W89389  26.610  13.341  11.458
25622W        W89390  26.535  26.534   4.706
25623W        W89391   8.222   6.736  13.955
25624W        W89392  14.764  38.353   1.825
25625W        W89393  10.187  41.447  14.823
25626W        W89394   3.452  33.609  13.792
25627W        W89395  30.441   0.959  14.426
25628W        W89396  30.912  16.771  11.956
25629W        W89397  38.932   4.761  12.948
25630W        W89398   9.693  12.678   2.383
25631W        W89399  31.501  22.250  13.997
25632W        W89400  15.115   4.221   0.749
25633W        W89401  22.537   1.921   0.465
25634W        W89402  12.671   5.806  10.502
25635W        W89403  39.958  20.089  11.542
25636W        W89404  16.243  21.147   0.404
25637W        W89405  21.615  16.680   1.921
25638W        W89406  37.078  38.324  14.327
25639W        W89407  15.619  23.048   4.609
25640W        W89408  41.835  35.384  14.960
25641W        W89409   4.871  11.664   2.808
25642W        W89410  38.436  41.859  14.310
25643W        W89411   9.731   5.810  10.458
25644W        W89412  22.090  25.147   2.858
25645W        W89413  22.145  38.503  10.956
25646W        W89414  26.482   4.924   0.356
25647W        W89415   9.661  16.677   4.169
25648W        W89416   2.381  41.521  13.964
25649W        W89417  32.417  32.606  10.575
25650W        W89418  41.896  33.609   0.844
25651W        W89419  23.645   1.880  12.378
25652W        W89420  32.056  12.116   4.162
25653W        W89421  43.920  41.855   4.838
25654W        W89422  27.068  30.987  13.458
25655W        W89423  29.989  31.523   2.779
25656W        W89424  23.496  21.529   1.744
25657W        W89425   8.404  26.995   1.853
25658W        W89426  33.618  24.149   5.307
25659W        W89427  17.293  11.692  13.061
25660W        W89428  37.887  21.671   4.213
25661W        W89429  15.187  16.081  10.991
25662W        W89430  31.543  34.554   2.833
25663W        W89431  26.119   2.344   2.311
25664W        W89432   2.459  21.732   1.843
25665W        W89433  11.321  39.047  13.438
25666W        W89434  38.568  24.705  13.891
25667W        W89435  31.438  35.859   0.785
25668W        W89436   7.843  39.539   2.727
25669W        W89437  16.749  13.117   2.403
25670W        W89438   3.260  30.505   0.473
25671W        W89439  10.829  20.084  11.403
25672W        W89440  21.252  21.068  10.937
25673W        W89441  22.602  32.420   0.436
25674W        W89442  33.115   7.171  14.354
25675W        W89443  17.261  10.208   4.265
25676W        W89444  37.836  20.163   3.708
25677W        W89445  34.930  41.871   0.333
25678W        W89446   6.688  22.151   1.241
25679W        W89447  31.488  25.498   3.205
25680W        W89448  17.225  36.891  12.088
25681W        W89449  36.527  20.599   3.703
25682W        W89450   3.400  26.159  10.544
25683W        W89451  35.876  31.896  10.427
25684W        W89452  25.476   9.805  13.354
25685W        W89453   4.346   0.813   0.965
25686W        W89454  25.045  38.993  11.977
25687W        W89455  33.124  39.470   3.323
25688W        W89456  19.626  26.493  14.984
25689W        W89457  15.643  15.595   4.765
25690W        W89458  13.322  20.197   2.888
25691W        W89459  13.251   4.905  14.471
25692W        W89460   6.258  21.687  13.467
25693W        W89461  16.228  40.346   4.761
25694W        W89462  40.494  10.179  13.412
25695W        W89463  30.616  42.430   0.949
25696W        W89464  15.692  12.158   4.605
25697W        W89465  19.083   4.327   1.868
25698W        W89466  37.419  22.231   0.753
25699W        W89467  37.942  29.614  11.958
25700W        W89468   9.204  33.070   2.843
25701W        W89469  32.101  22.091   3.857
25702W        W89470  13.724  31.568  11.412
25703W        W89471  37.905   1.305  11.017
25704W        W89472  42.952  15.660   4.185
25705W        W89473  18.576   7.180  10.600
25706W        W89474  40.379  37.932   2.720
25707W        W89475  22.737  24.648   0.439
25708W        W89476  12.770  20.765  13.888
25709W        W89477  11.282  13.280  12.417
25710W        W89478  11.692  10.276  10.639
25711W        W89479  19.251  25.027  13.953
25712W        W89480  40.835  18.146  12.475
25713W        W89481  30.038  24.153   4.761
25714W        W89482  32.920  23.187   0.346
25715W        W89483  24.487   6.902   0.736
25716W        W89484  28.068  34.888  13.500
25717W        W89485   4.343   1.407  10.535
25718W        W89486   1.791   5.266  14.416
25719W        W89487  26.056  27.941   4.179
25720W        W89488  37.053  17.105  13.480
25721W        W89489  41.503  38.462  12.421
25722W        W89490  16.149  12.692  14.341
25723W        W89491  22.188  43.496   3.338
25724W        W89492  17.127  16.732  12.350
25725W        W89493  19.628  19.718   0.729
25726W        W89494  34.079   3.391  14.507
25727W        W89495   1.466  25.158  12.834
25728W        W89496   9.878  41.295  12.474
25729W        W89497  26.694  24.550  12.835
25730W        W89498  23.085  34.939   0.375
25731W        W89499  24.544  30.089   2.847
25732W        W89500  36.911  34.952  14.360
25733W        W89501  34.960  25.029  13.537
25734W        W89502  22.087  40.930   0.342
25735W        W89503   7.306   1.344  11.005
25736W        W89504  20.262  38.022  11.952
25737W        W89505  23.021  43.295   1.851
25738W        W89506   0.971  18.722   4.269
25739W        W89507  35.415  35.464   4.822
25740W        W89508  11.639  28.960  11.550
25741W        W89509  18.561  32.032   3.690
25742W        W89510   1.418  31.087   3.284
25743W        W89511  17.636  13.342   1.364
25744W        W89512   8.328   9.235   0.321
25745W        W89513  40.463  36.938   4.698
25746W        W89514  18.633  25.972  14.512
25747W        W89515  20.702  19.072  12.957
25748W        W89516  39.841  20.581  13.797
25749W        W89517  36.386   1.887   5.141
25750W        W89518   5.884  34.427  13.860
25751W        W89519  37.444  41.398  13.415
25752W        W89520   4.796  19.747   5.202
25753W        W89521  14.611  37.429  10.512
25754W        W89522  10.332  14.705   3.702
25755W        W89523  18.648  32.497   3.741
25756W        W89524  30.506  14.788  14.927
25757W        W89525  41.854   4.233  13.387
25758W        W89526  28.519  28.434   4.250
25759W        W89527  11.639   2.934   2.689
25760W        W89528  30.988  21.229   1.795
25761W        W89529  12.761  13.264  12.842
25762W        W89530  34.941  10.270   4.802
25763W        W89531  38.440   0.267   3.722
25764W        W89532  15.693  42.434  13.990
25765W        W89533   2.833   2.318   2.694
25766W        W89534  22.597   4.902   1.896
25767W        W89535  32.415  24.161   4.268
25768W        W89536  39.038  29.441   0.733
25769W        W89537  40.393  31.415  13.493
25770W        W89538  39.404  21.676  11.097
25771W        W89539   3.332  24.012   2.191
25772W        W89540  32.115  24.509  11.397
25773W        W89541  11.736  36.423   2.273
25774W        W89542   5.429  13.616  12.523
25775W        W89543  23.556  35.456   2.732
25776W        W89544  36.575  30.126   5.688
25777W        W89545  13.820  28.040   1.753
25778W        W89546   1.862  38.998   2.771
25779W        W89547   7.800  13.787   3.760
25780W        W89548  39.320  42.324   0.933
25781W        W89549  24.011  43.501   1.259
25782W        W89550  26.951  19.057   2.291
25783W        W89551  40.037   8.659  13.326
25784W        W89552   5.430  40.511   4.251
25785W        W89553  25.567  18.152   2.679
25786W        W89554  15.221   7.898   1.853
25787W        W89555  17.143  16.592  14.924
25788W        W89556  20.718  22.622  14.409
25789W        W89557  24.022  28.482  13.548
25790W        W89558  15.303  22.559  14.937
25791W        W89559  30.626  35.551  14.305
25792W        W89560  21.200  20.193  12.887
25793W        W89561   5.373  28.974  13.503
25794W        W89562  29.127  24.532  10.552
25795W        W89563  20.200  34.937  11.008
25796W        W89564  23.693  33.019  11.509
25797W        W89565   2.938  35.585   4.329
25798W        W89566  37.525   0.887   2.836
25799W        W89567  40.917  26.206   4.625
25800W        W89568  38.951   4.338  11.528
25801W        W89569  14.238   8.312  10.962
25802W        W89570  26.074   9.662  12.891
25803W        W89571  32.943  32.097  12.934
25804W        W89572   2.943  19.139  11.452
25805W        W89573  34.947  21.541  13.516
25806W        W89574  10.232  22.110  10.000
25807W        W89575  31.016  25.094   2.312
25808W        W89576   8.361  39.026   4.755
25809W        W89577   5.306   3.415   1.790
25810W        W89578  39.052  34.990  12.877
25811W        W89579  38.511   9.194  13.803
25812W        W89580  34.070  34.018  11.085
25813W        W89581   5.332   3.217   2.771
25814W        W89582   9.329  22.638   3.292
25815W        W89583   7.827   9.806   2.280
25816W        W89584  16.082   2.241  14.937
25817W        W89585  34.110  39.016   4.810
25818W        W89586  44.331  13.296   2.773
25819W        W89587   9.800  37.884  13.341
25820W        W89588   4.437  34.421   3.298
25821W        W89589  31.490  18.623  11.856
25822W        W89590  44.873  16.089   3.792
25823W        W89591  15.250  13.317  13.387
25824W        W89592  14.333   0.882  12.397
25825W        W89593  12.328  24.687  10.524
25826W        W89594  23.201  25.132   0.315
25827W        W89595  14.592  39.000  11.041
25828W        W89596  28.660  23.023  10.983
25829W        W89597  43.456  32.898  12.460
25830W        W89598  28.150  42.317   1.696
25831W        W89599  28.162  43.464  13.405
25832W        W89600  17.292  12.614   3.317
25833W        W89601  28.964  14.650   4.722
25834W        W89602  10.377  34.018  10.963
25835W        W89603  16.761  44.355  13.026
25836W        W89604  25.200  15.628  11.115
25837W        W89605   1.747   1.373  13.003
25838W        W89606  16.789  33.039  11.111
25839W        W89607  19.707  26.030   4.245
25840W        W89608  14.142  15.716  14.773
25841W        W89609  43.432  42.413   1.910
25842W        W89610  37.422  23.089   1.281
25843W        W89611  17.266  37.429  11.590
25844W        W89612  19.723  41.510  12.487
25845W        W89613  20.215  33.591  13.991
25846W        W89614  31.142  38.328   0.918
25847W        W89615   5.720  12.298  11.988
25848W        W89616  36.574   2.845  11.550
25849W        W89617  31.134   7.837  13.985
25850W        W89618  30.128  19.719  13.984
25851W        W89619   6.774   3.754   0.338
25852W        W89620  29.115   0.326  13.346
25853W        W89621  15.591  15.312  13.459
25854W        W89622  32.542  15.083   2.829
25855W        W89623  16.763  22.048  12.926
25856W        W89624  40.316  31.124   0.964
25857W        W89625   7.712  23.004  11.936
25858W        W89626  16.674  14.179   2.278
25859W        W89627  40.818  32.087  12.481
25860W        W89628   7.355  22.214   4.812
25861W        W89629  35.585   5.841  13.512
25862W        W89630   7.753   4.357  10.897
25863W        W89631   9.219  44.911  11.906
25864W        W89632  29.444   3.378   5.119
25865W        W89633  12.138   8.729  10.893
25866W        W89634  33.954  27.537  12.924
25867W        W89635  30.497  22.153   2.859
25868W        W89636   2.456  34.530   1.412
25869W        W89637   5.714  43.451  14.915
25870W        W89638   5.220   2.739   2.191
25871W        W89639  23.991  14.639  12.070
25872W        W89640   0.396  11.357   3.829
25873W        W89641  25.100  41.513   2.728
25874W        W89642  41.860   2.294   3.775
25875W        W89643   4.804   9.178  11.859
25876W        W89644  31.417  44.979  13.382
25877W        W89645  40.999  14.123   4.611
25878W        W89646  23.155  37.913   4.316
25879W        W89647  21.021  16.308  13.448
25880W        W89648  11.846  36.028  13.801
25881W        W89649  22.168  41.397  13.452
25882W        W89650  32.991   6.323  13.912
25883W        W89651  23.047  32.092   1.396
25884W        W89652  13.728   6.385  12.537
25885W        W89653  42.777  35.092  11.575
25886W        W89654  38.827  22.228   4.308
25887W        W89655   6.827   2.895  14.763
25888W        W89656  31.044  26.991   3.369
25889W        W89657  34.990  27.127   0.255
25890W        W89658  40.833  14.709   0.247
25891W        W89659  26.099  29.629  10.553
25892W        W89660  41.382  43.923  12.917
25893W        W89661  41.508  22.704   4.612
25894W        W89662  42.323  12.289   3.738
25895W        W89663  43.443  29.927  11.454
25896W        W89664  44.360  24.699  14.812
25897W        W89665  20.704  23.718  12.549
25898W        W89666  43.470  15.640  11.007
25899W        W89667  44.407  36.432  12.855
25900W        W89668  29.660  37.076   2.684
25901W        W89669  28.122  28.681   3.216
25902W        W89670  36.493  11.767   2.387
25903W        W89671  20.214  44.316  14.363
25904W        W89672   6.904  13.607  10.418
25905W        W89673  16.576  19.559   0.928
25906W        W89674  38.367  21.057   3.312
25907W        W89675  17.569  28.992  12.480
25908W        W89676  10.773  39.341   4.824
25909W        W89677  27.456  29.018   4.773
25910W        W89678  39.317  14.238  14.029
25911W        W89679  36.004  39.369   2.857
25912W        W89680  11.860  29.965  14.806
25913W        W89681   6.337  27.498   1.697
25914W        W89682  18.662  37.984   1.394
25915W        W89683  31.964  15.206  11.605
25916W        W89684   7.265  35.390  13.319
25917W        W89685  21.068  19.727   1.714
25918W        W89686  22.030  31.953   3.158
25919W        W89687  19.084  14.270   1.929
25920W        W89688  33.056  24.021  13.493
25921W        W89689  37.874  25.996  11.958
25922W        W89690   8.380  39.379   4.269
25923W        W89691   5.928   4.246  11.021
25924W        W89692   2.948  12.137   4.311
25925W        W89693  13.800   6.221  14.505
25926W        W89694  35.026  39.980   3.635
25927W        W89695  36.586   6.303  12.403
25928W        W89696  24.578  29.061  12.545
25929W        W89697   0.475  43.305   0.305
25930W        W89698   8.207  24.684  10.583
25931W        W89699   7.754  14.113   0.370
25932W        W89700  26.024  33.933   2.335
25933W        W89701  38.958  28.588   1.771
25934W        W89702  21.519  43.812  10.923
25935W        W89703  35.996   6.216   4.208
25936W        W89704   9.376   2.343  10.582
25937W        W89705  21.211  22.683   3.284
25938W        W89706  25.598   8.762  10.506
25939W        W89707  30.623  40.817  13.535
25940W        W89708  29.118  41.533   0.918
25941W        W89709  29.528  34.565  10.021
25942W        W89710  17.261  14.788  12.905
25943W        W89711  35.594  31.986   3.843
25944W        W89712  26.153  11.652   2.293
25945W        W89713  30.657  19.723  12.489
25946W        W89714   9.644  36.491  12.422
25947W        W89715  43.841  38.422   2.825
25948W        W89716  39.935  31.915   3.712
25949W        W89717  18.729  31.975   3.292
25950W        W89718  31.038   3.215  10.565
25951W        W89719  27.050  38.566  11.030
25952W        W89720  37.434  39.891  14.903
25953W        W89721  13.606   0.801   4.738
25954W        W89722  42.511  23.681   4.606
25955W        W89723  13.281  36.070   4.156
25956W        W89724   7.304   1.913   4.764
25957W        W89725  38.550  25.645   3.250
25958W        W89726   0.479  21.251   1.918
25959W        W89727  18.665  41.343   5.256
25960W        W89728   6.720  40.355  13.825
25961W        W89729  28.941  19.552  12.350
25962W        W89730  43.495  36.453  11.952
25963W        W89731  22.700  38.558  11.395
25964W        W89732   9.315  26.081  13.908
25965W        W89733  33.527   9.170  11.610
25966W        W89734   2.457  44.355   1.823
25967W        W89735  24.578  19.590   0.730
25968W        W89736  37.857  37.996  14.339
25969W        W89737  16.594  15.634  14.010
25970W        W89738  35.502   5.337   0.750
25971W        W89739   0.492  31.906  12.911
25972W        W89740  37.411  15.627  13.401
25973W        W89741  27.033  15.145   1.826
25974W        W89742  21.558  41.430   2.180
25975W        W89743   3.378  13.658  11.039
25976W        W89744  32.466  28.996   0.891
25977W        W89745   3.377   9.687  10.416
25978W        W89746   6.291  24.500   4.631
25979W        W89747  35.907  34.510   3.220
25980W        W89748  35.928  37.928  12.495
25981W        W89749   3.790  31.961  11.606
25982W        W89750  44.950  16.119  14.959
25983W        W89751  15.820  12.342   4.220
25984W        W89752  39.333  14.600   3.809
25985W        W89753  43.919  14.631  13.812
25986W        W89754   6.685  27.014   2.249
25987W        W89755   7.894  10.810  13.437
25988W        W89756  27.034  34.100  11.013
25989W        W89757   5.409  28.031  11.442
25990W        W89758   7.382  35.395  11.072
25991W        W89759  11.155  38.349   0.764
25992W        W89760  29.044  22.211  11.902
25993W        W89761  33.395  23.667  13.940
25994W        W89762  28.068  37.864   0.747
25995W        W89763  17.770  27.085  11.372
25996W        W89764   5.404  15.218  13.048
25997W        W89765   7.767  25.012  13.450
25998W        W89766  33.449  14.212   3.659
25999W        W89767  44.431   8.685   2.389
26000W        W89768  33.925  33.007  13.384
26001W        W89769  28.117  26.671   4.178
26002W        W89770   7.828  15.740   3.152
26003W        W89771  21.520  20.272  13.818
26004W        W89772   1.438  32.550   2.400
26005W        W89773  28.474   1.810  11.004
26006W        W89774  22.588  24.110  14.317
26007W        W89775  44.784  42.523  13.894
26008W        W89776  15.249  32.943  13.410
26009W        W89777   0.855  29.433  14.476
26010W        W89778  32.016   0.446   5.099
26011W        W89779  15.809  34.093   0.396
26012W        W89780  42.000  30.482  14.499
26013W        W89781  42.525  12.632   2.899
26014W        W89782  36.564   0.987   4.156
26015W        W89783  27.112  13.350   5.106
26016W        W89784   0.398  35.383  14.833
26017W        W89785   6.340  11.860  13.793
26018W        W89786  31.480   2.916  14.818
26019W        W89787  11.818  20.112  11.467
26020W        W89788   8.391  23.652  14.870
26021W        W89789  18.286  10.842   0.363
26022W        W89790  31.958  43.280   0.925
26023W        W89791  34.904  13.783   1.916
26024W        W89792  35.479  35.935   2.335
26025W        W89793  40.410  33.923  13.406
26026W        W89794  30.481  42.442  11.475
26027W        W89795  16.223  40.900   3.187
26028W        W89796   5.259  26.190  12.858
26029W        W89797  10.868  41.851  14.324
26030W        W89798  32.919   6.834  10.503
26031W        W89799  28.169  31.585  11.013
26032W        W89800  44.476  36.046   4.347
26033W        W89801  39.935  30.909   0.805
26034W        W89802  18.544  13.770   2.418
26035W        W89803   7.666  44.343  13.878
26036W        W89804   2.371  31.607   1.269
26037W        W89805  44.276  43.377   3.250
26038W        W89806  43.484  38.859  13.854
26039W        W89807  21.121  33.576   3.266
26040W        W89808  25.021  25.653   4.126
26041W        W89809  32.059  40.303   0.435
26042W        W89810  42.461   8.824  11.917
26043W        W89811  41.861   4.350  11.426
26044W        W89812  43.359   3.723  12.014
26045W        W89813  39.419  41.997  13.922
26046W        W89814  24.642  23.007  14.482
26047W        W89815  15.194  35.454  11.589
26048W        W89816   5.794  19.609   3.276
26049W        W89817  39.895  28.969   3.174
26050W        W89818  35.865   2.849  11.416
26051W        W89819  14.635  11.843   1.815
26052W        W89820   7.706   3.901   0.271
26053W        W89821  26.159  33.125   0.326
26054W        W89822  35.578  18.756   5.299
26055W        W89823  14.669  13.283   1.724
26056W        W89824  26.544   0.790   1.869
26057W        W89825   5.791   9.725   0.270
26058W        W89826  13.647   7.211   0.296
26059W        W89827  11.363  40.849   1.305
26060W        W89828   8.719   3.232   5.227
26061W        W89829   2.839  39.992   0.817
26062W        W89830   3.942  29.083   0.756
26063W        W89831  44.764   9.749  14.380
26064W        W89832  42.510  17.707  14.310
26065W        W89833  20.531  31.639  14.991
26066W        W89834  17.590  36.920  11.524
26067W        W89835   7.843   9.887  11.073
26068W        W89836  42.981   9.657   1.264
26069W        W89837  42.446  30.955   0.898
26070W        W89838  24.614  44.418   4.123
26071W        W89839  26.582  32.985   0.279
26072W        W89840   6.387  39.487   4.168
26073W        W89841   8.781   6.242  14.430
26074W        W89842  15.814  33.990  14.402
26075W        W89843  36.959  33.970  12.831
26076W        W89844  24.098  11.148  11.963
26077W        W89845  15.115  19.118   4.142
26078W        W89846   5.862  21.682   1.882
26079W        W89847  33.907  24.510   0.481
26080W        W89848  15.667  23.123  11.569
26081W        W89849  32.931  13.612  10.415
26082W        W89850   3.930  16.732   4.146
26083W        W89851  10.668  34.045   1.907
26084W        W89852  23.133  18.175   2.738
26085W        W89853  22.180   3.937   4.741
26086W        W89854  30.636  39.468  13.520
26087W        W89855  31.457  31.096   2.391
26088W        W89856   9.358  22.709  13.988
26089W        W89857  38.458  44.453   0.300
26090W        W89858  39.994  19.241   1.829
26091W        W89859  38.562  39.323   3.190
26092W        W89860   3.390  36.441   5.705
26093W        W89861  17.278  21.683  12.553
26094W        W89862   1.821  10.653   3.321
26095W        W89863  22.155  36.590  10.423
26096W        W89864   5.340  26.476   2.218
26097W        W89865  27.596  34.909   4.654
26098W        W89866  36.970   8.244  14.310
26099W        W89867  33.542  43.898  14.779
26100W        W89868  10.708  37.011  14.821
26101W        W89869  39.840  30.979   2.751
26102W        W89870  42.429   3.281  11.915
26103W        W89871  38.050  38.882   1.851
26104W        W89872  13.323   4.258   2.730
26105W        W89873  36.922  39.333  10.641
26106W        W89874   8.399   3.298  12.378
26107W        W89875   2.779  10.324  13.430
26108W        W89876  16.768  40.374  13.525
26109W        W89877  38.907  31.614  10.489
26110W        W89878  33.451  19.712   1.915
26111W        W89879  32.597  35.011  14.413
26112W        W89880  18.653   3.755  14.810
26113W        W89881  36.958  36.889  11.923
26114W        W89882  15.731  27.050   3.157
26115W        W89883   2.467  26.630  12.005
26116W        W89884  38.467   3.447   3.777
26117W        W89885   9.749  17.089   4.193
26118W        W89886  42.833   3.848   3.229
26119W        W89887   8.291  12.832   2.415
26120W        W89888  33.122   8.402   0.430
26121W        W89889  39.494  33.908   2.182
26122W        W89890  11.248  34.971  11.521
26123W        W89891  18.704  44.846   4.661
26124W        W89892   4.790   3.364  12.984
26125W        W89893  22.599  39.544  12.474
26126W        W89894   9.672  22.194  13.355
26127W        W89895   6.847  13.215   1.758
26128W        W89896   6.789  37.087  13.475
26129W        W89897  40.524  35.994   1.795
26130W        W89898   0.768  43.355  11.527
26131W        W89899   3.890  23.683   2.186
26132W        W89900  22.222  18.180   2.714
26133W        W89901  30.489  19.095   0.955
26134W        W89902  36.843   3.269   0.436
26135W        W89903   5.206   5.706  10.902
26136W        W89904  32.069   4.400   3.224
26137W        W89905  27.943  22.633   4.626
26138W        W89906  10.257   2.961  12.358
26139W        W89907  15.223   1.466  14.480
26140W        W89908  35.958   2.323   1.303
26141W        W89909  21.032  21.548   1.257
26142W        W89910  36.396  16.743  11.416
26143W        W89911  28.067  43.506  12.916
26144W        W89912  30.430  42.924  12.497
26145W        W89913  18.556   7.379  14.319
26146W        W89914  21.756  31.498   2.338
26147W        W89915  24.152   6.345  13.408
26148W        W89916  17.290  41.808  11.542
26149W        W89917  38.939   7.292  14.428
26150W        W89918  28.544  41.326  14.895
26151W        W89919   9.180  39.893   0.269
26152W        W89920   4.276  18.076   3.743
26153W        W89921  13.697  10.817  12.508
26154W        W89922  10.139  12.263  14.957
26155W        W89923  33.478  30.414   4.614
26156W        W89924  13.685  11.156   9.653
26157W        W89925  27.577  36.081   3.230
26158W        W89926  35.604  18.591  13.822
26159W        W89927  36.014   5.813   3.697
26160W        W89928  14.314  44.351   0.344
26161W        W89929  24.211  33.043  10.622
26162W        W89930  27.585  36.491  14.791
26163W        W89931   2.429  23.580   4.250
26164W        W89932   5.700  17.304   1.422
26165W        W89933   6.297  36.033   3.737
26166W        W89934  10.761  37.563  12.499
26167W        W89935  38.965  42.933  12.555
26168W        W89936  25.218  36.974  12.560
26169W        W89937   2.896   5.809  14.397
26170W        W89938  30.924   7.738  14.419
26171W        W89939  15.180  27.944  13.915
26172W        W89940  23.026  26.491   2.884
26173W        W89941  22.680  30.576   2.378
26174W        W89942  39.060   0.775  13.027
26175W        W89943  42.821   2.815  13.047
26176W        W89944  36.894  42.318  14.506
26177W        W89945   5.934   1.375   4.177
26178W        W89946  41.826  39.355  11.536
26179W        W89947  25.477  12.664  13.859
26180W        W89948  39.908   4.309  13.331
26181W        W89949  21.564   4.233  12.452
26182W        W89950  37.387  20.206   0.466
26183W        W89951  35.577  16.591   0.761
26184W        W89952  30.983  38.929   4.728
26185W        W89953  13.679  28.065  12.066
26186W        W89954  14.107  21.635  12.844
26187W        W89955  42.282  13.320   2.724
26188W        W89956  27.524   2.882   0.327
26189W        W89957   3.405   8.722   3.805
26190W        W89958  39.406  24.050   2.855
26191W        W89959  11.741  44.917  11.565
26192W        W89960  10.160  26.550   0.351
26193W        W89961   6.854  35.453   2.386
26194W        W89962  20.669  37.046   4.299
26195W        W89963  35.529  36.080   1.221
26196W        W89964   3.426  22.211   1.236
26197W        W89965  28.602  39.825  14.838
26198W        W89966   2.347  44.476  10.524
26199W        W89967  28.985  22.159  13.956
26200W        W89968  38.397  37.966  11.938
26201W        W89969  11.841  19.257  10.906
26202W        W89970  42.469  20.553   3.844
26203W        W89971  23.171   7.172  14.346
26204W        W89972  35.946  13.170   0.410
26205W        W89973  34.557  32.039  12.577
26206W        W89974  39.524  21.031  13.353
26207W        W89975  24.997  38.033  12.940
26208W        W89976  10.821  20.767  14.477
26209W        W89977   6.921   1.888  10.491
26210W        W89978  23.043   2.349  10.928
26211W        W89979  44.321  12.662   3.801
26212W        W89980  25.206   1.970   1.740
26213W        W89981  14.818   9.685  12.465
26214W        W89982  36.493   1.755  14.892
26215W        W89983  30.987  19.661  11.933
26216W        W89984   5.929  31.434  13.469
26217W        W89985  27.947  40.329   1.338
26218W        W89986  19.230   4.297   2.218
26219W        W89987  39.356   0.437  11.982
26220W        W89988  41.909   2.318  10.610
26221W        W89989  26.558  18.701  12.480
26222W        W89990  25.555  28.028  13.370
26223W        W89991  44.964  41.810   1.418
26224W        W89992  11.234  24.617   1.441
26225W        W89993   8.358  35.899  12.964
26226W        W89994   0.800   4.749   2.419
26227W        W89995  41.981  10.152   3.382
26228W        W89996  42.861  17.124   3.365
26229W        W89997   3.293  38.977  11.550
26230W        W89998  30.561  32.015  11.010
26231W        W89999  35.555  17.282   2.268
26232W        W90000  16.215  26.693  12.398
26233W        W90001  11.196  31.987   4.644
26234W        W90002   6.307   2.926  12.857
26235W        W90003  33.437  16.263  14.876
26236W        W90004  42.426  30.466  12.048
26237W        W90005   7.390  13.168  10.409
26238W        W90006  17.122   0.795  12.407
26239W        W90007   3.392   4.325   0.328
26240W        W90008  34.568   5.827   1.860
26241W        W90009   8.266  10.373   1.861
26242W        W90010  19.645  37.843   2.797
26243W        W90011  25.623  13.686  10.921
26244W        W90012  11.772  44.369  12.848
26245W        W90013  34.118  38.524  10.611
26246W        W90014  41.512  36.562  12.382
26247W        W90015  43.841  39.403   2.301
26248W        W90016   5.279  11.250   2.266
26249W        W90017  23.546  34.915   4.802
26250W        W90018  17.096  14.307  13.399
26251W        W90019  35.920  26.112  13.991
26252W        W90020  12.292  15.683   0.931
26253W        W90021  27.644  39.982  11.094
26254W        W90022  39.847  21.184   2.405
26255W        W90023   9.644  20.040   1.267
26256W        W90024   5.389  44.352   1.815
26257W        W90025  32.951  38.829  10.062
26258W        W90026  40.965  23.011   4.235
26259W        W90027  23.688  26.475  14.011
26260W        W90028  43.018  39.036  12.982
26261W        W90029  37.576  12.729  10.906
26262W        W90030  14.182  30.639  12.882
26263W        W90031  16.209   1.821  14.870
26264W        W90032  41.968  44.006  12.929
26265W        W90033  13.836  41.866   3.642
26266W        W90034   1.788  36.934   1.825
26267W        W90035   3.368   0.404  12.887
26268W        W90036  16.723  23.594   2.768
26269W        W90037  27.959  43.454  13.966
26270W        W90038  37.448  42.433  11.377
26271W        W90039   0.823   7.864  11.011
26272W        W90040  27.500  23.496  12.866
26273W        W90041  25.620  42.797   3.825
26274W        W90042  34.900  41.526   4.259
26275W        W90043   4.754   3.287  14.315
26276W        W90044   9.154  41.811   4.735
26277W        W90045  42.804  40.480  12.973
26278W        W90046  14.192  25.181  13.842
26279W        W90047   2.370  16.154  10.446
26280W        W90048   1.859   7.704  10.438
26281W        W90049  36.521  19.601  10.132
26282W        W90050  14.255  33.957  12.987
26283W        W90051  18.227  20.729  14.946
26284W        W90052  11.842   3.926  11.441
26285W        W90053   4.204  22.544  10.637
26286W        W90054  15.128  13.340  13.058
26287W        W90055   0.337  21.669   0.444
26288W        W90056   4.308  37.057  13.434
26289W        W90057   3.350  23.586  13.468
26290W        W90058   5.384  22.222   4.706
26291W        W90059  19.063  44.996   2.866
26292W        W90060   3.718   8.865   3.381
26293W        W90061  43.269  26.169   2.740
26294W        W90062  22.052   3.789   1.780
26295W        W90063  27.619   1.788  11.428
26296W        W90064  23.511   8.655   4.697
26297W        W90065  38.901  19.620   3.306
26298W        W90066  27.010  11.230  14.428
26299W        W90067  36.841  24.167   2.722
26300W        W90068  38.070  29.018  12.842
26301W        W90069  39.404  12.808  10.480
26302W        W90070   9.251  16.812  10.107
26303W        W90071  12.162   8.321   1.749
26304W        W90072  12.320   7.357  14.026
26305W        W90073   8.730  35.996  13.912
26306W        W90074  25.050  23.203  12.446
26307W        W90075  14.223  18.681  12.400
26308W        W90076  40.885  25.151  11.110
26309W        W90077  18.753  26.003  13.515
26310W        W90078  26.063   9.772  12.517
26311W        W90079  34.522  44.289  14.415
26312W        W90080  14.799  27.556   3.172
26313W        W90081   2.879  10.830   2.757
26314W        W90082   4.806  14.237  13.378
26315W        W90083  41.441  22.029   2.224
26316W        W90084  13.296  21.205  13.347
26317W        W90085  35.469  29.084  13.364
26318W        W90086  36.873  22.709  14.497
26319W        W90087  25.577  43.841   4.196
26320W        W90088  13.112  22.529   1.774
26321W        W90089   1.438  24.485   2.836
26322W        W90090  25.672   6.809  14.783
26323W        W90091   8.370  24.058   2.747
26324W        W90092   9.172   7.350  12.085
26325W        W90093  43.411  11.697   0.337
26326W        W90094  15.722   0.356   4.768
26327W        W90095  34.042  37.422  14.848
26328W        W90096  11.687  20.643   2.366
26329W        W90097  11.234  28.489  12.844
26330W        W90098   5.300  19.696   4.218
26331W        W90099  29.992  23.637  11.535
26332W        W90100  10.312  20.643  11.098
26333W        W90101  26.699   8.319  10.998
26334W        W90102  30.021  39.367  14.888
26335W        W90103  39.390   1.775   4.757
26336W        W90104   7.879  31.454  14.382
26337W        W90105  36.967  34.865  14.997
26338W        W90106  38.074  30.990   1.699
26339W        W90107  27.996  20.639   4.314
26340W        W90108   6.212   6.308   2.682
26341W        W90109  38.882  19.124   3.760
26342W        W90110  11.144  18.784  14.867
26343W        W90111   6.367  34.435  14.411
26344W        W90112  33.515   1.830   0.354
26345W        W90113  43.850  32.927  12.363
26346W        W90114  26.051  27.560   4.794
26347W        W90115  24.983  37.561   3.697
26348W        W90116   7.858  33.988   2.730
26349W        W90117   4.241  13.128   3.740
26350W        W90118  40.888   6.768   3.803
26351W        W90119   4.706   2.363   2.286
26352W        W90120  15.616  12.726   4.184
26353W        W90121  24.615  29.531   4.776
26354W        W90122   4.420  22.197   3.772
26355W        W90123  34.963  32.073   0.919
26356W        W90124  34.015  32.494  13.382
26357W        W90125  18.247  29.621   4.633
26358W        W90126   5.195  33.914  12.892
26359W        W90127  24.685  43.367  11.596
26360W        W90128  23.642   7.323   1.368
26361W        W90129   2.308  42.468   4.234
26362W        W90130  11.752  34.106   1.257
26363W        W90131  30.027  14.223   4.753
26364W        W90132  20.178   9.290   1.250
26365W        W90133  34.448  14.289   3.290
26366W        W90134  28.098  34.932  14.515
26367W        W90135   5.412  23.715  14.981
26368W        W90136   5.323  34.424   0.882
26369W        W90137  43.516  10.212  13.007
26370W        W90138  15.734   7.199  14.867
26371W        W90139   5.809  44.473  14.387
26372W        W90140  32.439  30.031  11.895
26373W        W90141  21.566  28.501   0.364
26374W        W90142  12.297   4.905  14.017
26375W        W90143  27.509  36.850   4.695
26376W        W90144  30.945   2.838  14.909
26377W        W90145  38.867  34.098   0.393
26378W        W90146   8.229  44.361   4.157
26379W        W90147   2.371  24.067  11.091
26380W        W90148  40.305  40.347  12.832
26381W        W90149  23.187  16.812   0.344
26382W        W90150   2.939   1.303   1.724
26383W        W90151  34.882  23.651   4.607
26384W        W90152  36.079  29.553  10.562
26385W        W90153  41.394  44.300   2.373
26386W        W90154  36.470   6.798   0.421
26387W        W90155  11.169  37.558  10.986
26388W        W90156  17.283  13.294   0.728
26389W        W90157  13.154  23.233  11.381
26390W        W90158  10.272  21.525  11.941
26391W        W90159  19.637  13.842   0.258
26392W        W90160   1.334   2.867   0.818
26393W        W90161  37.910  10.374   2.278
26394W        W90162  40.522   5.315  10.899
26395W        W90163   8.205  27.637   0.392
26396W        W90164   2.835  24.569   3.801
26397W        W90165  33.443   8.783  11.100
26398W        W90166  11.779   7.379   1.223
26399W        W90167   0.454  12.202   4.713
26400W        W90168  21.590  19.218   1.212
26401W        W90169   5.413  20.167   2.759
26402W        W90170  25.647  39.538  11.596
26403W        W90171   7.326   6.222   0.449
26404W        W90172  43.344   4.322   0.292
26405W        W90173  37.453  43.390  11.993
26406W        W90174  19.145  40.516  12.562
26407W        W90175  40.045  15.822  14.292
26408W        W90176   3.869  23.586   1.425
26409W        W90177  33.411   8.843   2.742
26410W        W90178  20.577  24.052  14.032
26411W        W90179  14.805  38.473  11.447
26412W        W90180  36.934  30.133  11.507
26413W        W90181  16.112  31.419   2.208
26414W        W90182  27.065  29.618  14.365
26415W        W90183  38.518  34.018  11.051
26416W        W90184  29.050  37.893  13.378
26417W        W90185  27.038  32.420  10.408
26418W        W90186  23.681  14.767   9.926
26419W        W90187  34.039  38.486  14.373
26420W        W90188  38.995   8.886  14.465
26421W        W90189  10.659  27.989  14.355
26422W        W90190  30.048  35.513  14.914
26423W        W90191  12.818  15.644   3.716
26424W        W90192  23.587  41.378  10.625
26425W        W90193   1.268  35.981  13.050
26426W        W90194   9.704  29.146  12.482
26427W        W90195  29.505   1.822  14.313
26428W        W90196  27.005  42.794  12.889
26429W        W90197  21.562  24.606  11.913
26430W        W90198   9.685  41.514  14.833
26431W        W90199  37.049  13.301  13.990
26432W        W90200  34.984  36.554   1.807
26433W        W90201  11.662  39.537  14.008
26434W        W90202  26.046  38.067   0.735
26435W        W90203  41.469   6.819  13.325
26436W        W90204   2.315   2.767  12.574
26437W        W90205  16.766  42.826  10.975
26438W        W90206  41.897  24.495  11.902
26439W        W90207  20.553   1.320  12.481
26440W        W90208  12.690  23.142   1.877
26441W        W90209  26.468  30.056  14.460
26442W        W90210   6.330   6.691  11.457
26443W        W90211   4.260  35.592  12.530
26444W        W90212  37.366  20.234  12.939
26445W        W90213   9.232  35.986  11.529
26446W        W90214  11.642  27.169   3.672
26447W        W90215   4.746  36.958   9.618
26448W        W90216  15.322  32.433   1.399
26449W        W90217  29.014   1.959   3.347
26450W        W90218   6.776  16.163   1.350
26451W        W90219   9.706  28.991  14.380
26452W        W90220  35.863  43.458  10.522
26453W        W90221  43.910  32.575   2.263
26454W        W90222  23.583  14.624   0.937
26455W        W90223  30.498  34.913  14.440
26456W        W90224  38.473  42.510   4.702
26457W        W90225  32.579  43.293   2.231
26458W        W90226  31.539  37.080   0.481
26459W        W90227  28.981  18.702   4.147
26460W        W90228  21.154  12.829  14.369
26461W        W90229  17.666   3.223  13.338
26462W        W90230  18.076  37.356  10.456
26463W        W90231   6.839  22.098   3.159
26464W        W90232  40.027  44.454   0.787
26465W        W90233   2.855   7.172   2.881
26466W        W90234  15.746  37.013   1.295
26467W        W90235  30.585   8.312   3.169
26468W        W90236  28.579  17.615  14.445
26469W        W90237  17.297  32.998   1.802
26470W        W90238  22.639  29.644  11.416
26471W        W90239   6.847  21.177  11.126
26472W        W90240  38.995  30.090  10.021
26473W        W90241  33.526   6.285   2.374
26474W        W90242  16.754   8.282   1.927
26475W        W90243  44.758  13.236  11.017
26476W        W90244  35.430  25.992  14.414
26477W        W90245  24.988  29.626  13.506
26478W        W90246  37.566  10.867   5.130
26479W        W90247  34.551  21.517  13.391
26480W        W90248  11.260  18.701  12.988
26481W        W90249  16.687  33.431  10.939
26482W        W90250  33.129  28.478   4.248
26483W        W90251  17.205  15.093  13.061
26484W        W90252  37.854   9.866   1.898
26485W        W90253  43.292  39.977   2.806
26486W        W90254  19.115  16.170   3.165
26487W        W90255   8.250  26.164  12.543
26488W        W90256  18.681  36.033   2.802
26489W        W90257  43.871  12.184   1.298
26490W        W90258   8.363  40.374  12.427
26491W        W90259  20.687  29.956  14.822
26492W        W90260  40.548  14.599  14.956
26493W        W90261  29.176   2.797  10.414
26494W        W90262  25.091  27.649  11.984
26495W        W90263  40.392  39.329  13.791
26496W        W90264  38.550  17.596  11.612
26497W        W90265  21.633   1.426  10.611
26498W        W90266   8.841  41.822  12.884
26499W        W90267  44.415  32.566  12.000
26500W        W90268  25.070  16.247   1.884
26501W        W90269   8.839   7.803   2.828
26502W        W90270  42.435  18.711  11.533
26503W        W90271   9.752  34.940   1.309
26504W        W90272  22.581  16.690  12.992
26505W        W90273  20.161  16.151  14.421
26506W        W90274   9.310   8.278  14.367
26507W        W90275  23.116  28.575   0.250
26508W        W90276  11.829   3.366   4.635
26509W        W90277  23.016  38.452   1.237
26510W        W90278  30.922  36.941   4.266
26511W        W90279  17.252   8.897   0.415
26512W        W90280   6.914  39.881  12.909
26513W        W90281   0.948  18.063   1.342
26514W        W90282  17.068   7.236  10.628
26515W        W90283  21.525  10.875   3.732
26516W        W90284  29.472   5.200   1.330
26517W        W90285  16.785  34.564  13.372
26518W        W90286  24.132  40.856  13.029
26519W        W90287  11.730   8.837   1.378
26520W        W90288  25.132  26.701   0.336
26521W        W90289  13.211  10.363   1.911
26522W        W90290  21.058  43.466  11.993
26523W        W90291  29.139  21.247  10.484
26524W        W90292  31.900  23.700   1.895
26525W        W90293  35.404  14.726  14.943
26526W        W90294  38.035  38.993  13.308
26527W        W90295   7.194   2.726  13.332
26528W        W90296  37.052  27.655  13.347
26529W        W90297   8.184  23.099  11.395
26530W        W90298   1.404  32.540   2.671
26531W        W90299  41.799  26.117   0.846
26532W        W90300  32.413  26.642   5.112
26533W        W90301  22.580  15.084  13.525
26534W        W90302  23.231  28.538   0.952
26535W        W90303   6.221  22.532  12.010
26536W        W90304  25.109  27.961  12.888
26537W        W90305  11.707  14.191  10.492
26538W        W90306  16.597   6.822   2.371
26539W        W90307  22.066  42.369  13.923
26540W        W90308  25.487   6.864  12.397
26541W        W90309  30.992  37.458  10.481
26542W        W90310  33.557  41.816  12.464
26543W        W90311  19.667  29.108   2.264
26544W        W90312   0.357   4.249  12.430
26545W        W90313  36.362  44.902  13.349
26546W        W90314   1.927  18.721  12.824
26547W        W90315   6.197  22.222   3.734
26548W        W90316   5.878  17.303  12.452
26549W        W90317  28.146  26.617  14.498
26550W        W90318  34.428  30.644  11.431
26551W        W90319  27.989  21.611  14.908
26552W        W90320  12.290  35.012   3.153
26553W        W90321  16.686  19.660   0.404
26554W        W90322  29.936  23.114   1.696
26555W        W90323  17.561  37.073   2.892
26556W        W90324  40.853  36.969  11.455
26557W        W90325  36.940  37.862   4.834
26558W        W90326  20.710  24.098  14.816
26559W        W90327   4.283   9.189   4.677
26560W        W90328  43.396  44.259   2.247
26561W        W90329  10.642   3.366   0.288
26562W        W90330  25.099  22.502   3.833
26563W        W90331   4.844   9.207   1.400
26564W        W90332   1.790  34.865   9.924
26565W        W90333   3.746  11.308  10.614
26566W        W90334  14.340  27.041   1.739
26567W        W90335  18.256  11.264  10.465
26568W        W90336  35.357  14.124   1.367
26569W        W90337  13.167  26.142   3.694
26570W        W90338  11.206  11.852  12.037
26571W        W90339  11.272  44.325   0.432
26572W        W90340  35.069   1.948   4.266
26573W        W90341  32.578  35.476   1.244
26574W        W90342  37.943  44.898   4.601
26575W        W90343   1.339  36.534  13.821
26576W        W90344  33.613  21.633   2.310
26577W        W90345  17.244   6.331  14.304
26578W        W90346   3.446  17.798  11.061
26579W        W90347  36.372   8.868  14.413
26580W        W90348   6.385   1.975   1.231
26581W        W90349  26.048  34.602  13.509
26582W        W90350  16.572  24.643  11.548
26583W        W90351  41.851  42.284  12.947
26584W        W90352  12.693  44.969   1.724
26585W        W90353  14.619  14.606  11.497
26586W        W90354  17.194  20.136  13.403
26587W        W90355  11.717   7.884  14.505
26588W        W90356  42.417   7.857  12.904
26589W        W90357   1.920  13.214  14.018
26590W        W90358  34.482  12.765   2.236
26591W        W90359  26.085  22.243   3.168
26592W        W90360   1.922  43.419   4.712
26593W        W90361  44.404  12.296   4.659
26594W        W90362  25.678  29.576  14.852
26595W        W90363   8.204  14.239  12.074
26596W        W90364  17.588  13.821   1.911
26597W        W90365   7.234  36.574  12.994
26598W        W90366  24.520  18.054  10.445
26599W        W90367  23.143   9.288  12.078
26600W        W90368  21.711   1.875   0.742
26601W        W90369  26.092   0.266   4.738
26602W        W90370  32.134  39.005   1.917
26603W        W90371  38.922  30.908  12.376
26604W        W90372  30.050  42.381   4.261
26605W        W90373   9.216  25.511   0.828
26606W        W90374  29.132  18.603  13.477
26607W        W90375   1.932  43.973  14.422
26608W        W90376   7.349  26.611  14.839
26609W        W90377  17.158  42.840   4.244
26610W        W90378  24.022   0.285  12.538
26611W        W90379   3.419  24.705  10.537
26612W        W90380   4.857  39.508  12.989
26613W        W90381  12.360  34.425   1.913
26614W        W90382  39.811  42.426   2.359
26615W        W90383  31.978  20.706  13.528
26616W        W90384  28.608  16.162  12.561
26617W        W90385  29.636   7.325   2.263
26618W        W90386  38.331  29.136   4.806
26619W        W90387  44.387  14.225  11.916
26620W        W90388   6.227  44.338   5.257
26621W        W90389   7.756   3.402  11.411
26622W        W90390  24.666  22.527   2.412
26623W        W90391   7.249  40.884  10.511
26624W        W90392  12.647   1.877   1.730
26625W        W90393  14.589  19.577  10.480
26626W        W90394  44.503  42.484  12.859
26627W        W90395  34.024  14.751  11.552
26628W        W90396  16.221  32.506  12.082
26629W        W90397  26.616  11.671   3.225
26630W        W90398   7.908  37.864   1.356
26631W        W90399  13.797  15.690  14.311
26632W        W90400   3.832  35.453   0.472
26633W        W90401  30.525  20.230   5.297
26634W        W90402  20.762  39.899  11.036
26635W        W90403   3.784  44.791  13.987
26636W        W90404  10.808  40.853   2.833
26637W        W90405   7.236   1.792   3.730
26638W        W90406   9.708  32.007   1.800
26639W        W90407  42.004  38.500   1.925
26640W        W90408  34.611  42.493   3.737
26641W        W90409  44.882  32.616   0.480
26642W        W90410  33.889   4.288   3.262
26643W        W90411  42.454  35.385   3.343
26644W        W90412  23.511  30.588   0.265
26645W        W90413  12.223  39.442  12.573
26646W        W90414  29.021  27.161  11.973
26647W        W90415   8.692  17.108  13.058
26648W        W90416   6.769  31.085   3.760
26649W        W90417  34.868  10.805   4.325
26650W        W90418   2.458  12.834   2.397
26651W        W90419   1.361   6.333  14.339
26652W        W90420  20.243  30.981   1.352
26653W        W90421  12.271  28.108  14.974
26654W        W90422  12.170  40.900   3.780
26655W        W90423  21.707  36.948  11.423
26656W        W90424  16.247  38.358  14.502
26657W        W90425  35.894  28.569  13.827
26658W        W90426   2.782   2.338  14.925
26659W        W90427  22.693  13.764  11.038
26660W        W90428   8.319   1.771   1.384
26661W        W90429  29.488  44.974   3.382
26662W        W90430   9.315  17.590  14.825
26663W        W90431  18.704  25.549   1.740
26664W        W90432  38.362  10.829   2.317
26665W        W90433   3.947  28.520  13.499
26666W        W90434  36.022  44.937  12.579
26667W        W90435   1.257  15.132  11.924
26668W        W90436  24.532  27.981  11.608
26669W        W90437  40.961  17.250  12.455
26670W        W90438  22.102  42.886  12.441
26671W        W90439   8.202  41.436  10.510
26672W        W90440  32.421  11.178  12.923
26673W        W90441  10.864   7.668  12.359
26674W        W90442  41.912  19.766  12.465
26675W        W90443  38.037   8.816  14.969
26676W        W90444  14.179  34.106   2.721
26677W        W90445  11.852  30.631   5.177
26678W        W90446   9.663  12.267   1.291
26679W        W90447  38.060  24.129  12.863
26680W        W90448  30.478   6.793  14.906
26681W        W90449  39.981   8.880  10.508
26682W        W90450  21.617  43.991  10.538
26683W        W90451   6.197  37.918  13.828
26684W        W90452  36.950  17.182   4.200
26685W        W90453   3.347  13.793   3.790
26686W        W90454  36.393  24.081   4.809
26687W        W90455   4.259  31.004   2.751
26688W        W90456  30.005  36.012  11.985
26689W        W90457   9.791  16.764   3.719
26690W        W90458   7.768  33.049  10.987
26691W        W90459  33.560  24.045   1.289
26692W        W90460   1.239  23.138  13.454
26693W        W90461  26.142  35.108   0.965
26694W        W90462  32.534  22.249   3.706
26695W        W90463  29.164  21.631   3.767
26696W        W90464  12.172  32.048  12.518
26697W        W90465  12.827  14.203  13.434
26698W        W90466  34.973  40.878  13.927
26699W        W90467  27.535  21.636   1.823
26700W        W90468  36.954  34.876  12.519
26701W        W90469  26.627  38.398   2.805
26702W        W90470  31.469   8.794   2.403
26703W        W90471  37.443  42.813   5.224
26704W        W90472  20.214  28.557   2.787
26705W        W90473   5.849  12.346   4.642
26706W        W90474   1.249  17.104   3.367
26707W        W90475  12.159  43.018  12.993
26708W        W90476  26.469  26.658   0.261
26709W        W90477  12.795  29.562   0.938
26710W        W90478  10.275  25.636  11.389
26711W        W90479  19.187  27.107  12.057
26712W        W90480  26.618  23.537  14.426
26713W        W90481   3.304   2.786  13.493
26714W        W90482   8.865  35.997  12.044
26715W        W90483  36.584  42.384  13.852
26716W        W90484  38.861  11.744  12.857
26717W        W90485  37.884  36.975   1.710
26718W        W90486   6.189  18.605  12.420
26719W        W90487  16.568  17.595  13.011
26720W        W90488   0.265  10.711   4.329
26721W        W90489  13.833  44.387  14.975
26722W        W90490  28.578  25.517   0.726
26723W        W90491  10.153  37.873   1.811
26724W        W90492  39.931  15.614   2.888
26725W        W90493  18.182  19.222  14.361
26726W        W90494  21.233  17.637   3.201
26727W        W90495  11.262  19.708   0.879
26728W        W90496   8.832  42.803   1.815
26729W        W90497  44.783   6.423  13.533
26730W        W90498  29.045  15.674   4.121
26731W        W90499  12.242  32.092   1.781
26732W        W90500  18.785  29.607   4.733
26733W        W90501  14.797   2.439   3.167
26734W        W90502  22.140  42.941   2.347
26735W        W90503  24.067  13.628   2.740
26736W        W90504  15.307   9.172  14.348
26737W        W90505  36.585  29.133  11.419
26738W        W90506  10.240  23.557  12.020
26739W        W90507  44.791  24.155   4.790
26740W        W90508  22.044  35.570  11.948
26741W        W90509  42.292  32.606  12.002
26742W        W90510  44.452  27.585   4.235
26743W        W90511   6.295  44.270  10.581
26744W        W90512  29.991  20.184  11.054
26745W        W90513  21.546  20.150   3.372
26746W        W90514   6.715  21.571  14.304
26747W        W90515  21.146  16.101   0.430
26748W        W90516  33.935  22.076   3.375
26749W        W90517  27.516  22.675   1.313
26750W        W90518  34.973   6.780   2.414
26751W        W90519  15.125   1.459  13.477
26752W        W90520  19.233   8.347   2.680
26753W        W90521  10.696  35.032   2.884
26754W        W90522  19.108  37.494  13.461
26755W        W90523   3.271  19.144  10.587
26756W        W90524   4.745  32.052   0.452
26757W        W90525  40.479   0.780  10.425
26758W        W90526  37.545   6.913  11.602
26759W        W90527   9.214  15.228  14.411
26760W        W90528  12.614   2.817  11.056
26761W        W90529  28.494   3.370  11.425
26762W        W90530  35.415  28.960   3.644
26763W        W90531  26.094   6.287  13.381
26764W        W90532  34.537  19.152   0.941
26765W        W90533  27.145  34.520  12.560
26766W        W90534  39.556  22.110   1.704
26767W        W90535   1.752  43.304  12.967
26768W        W90536   5.317  21.642   0.962
26769W        W90537  18.243  20.543  12.960
26770W        W90538  39.953   8.890  12.568
26771W        W90539  43.461  40.905   1.720
26772W        W90540  20.091  27.188  14.012
26773W        W90541   8.899  43.308   0.740
26774W        W90542  19.147   5.858   4.751
26775W        W90543  14.809  28.018   3.723
26776W        W90544  26.173  30.055  11.610
26777W        W90545  20.731  14.669  12.033
26778W        W90546  28.592  44.807   3.862
26779W        W90547   9.374  22.036   4.807
26780W        W90548   3.255  41.416  12.854
26781W        W90549  38.337  16.227   4.712
26782W        W90550  15.251   6.703   0.908
26783W        W90551  22.737  17.215  10.421
26784W        W90552   6.295  38.462  12.036
26785W        W90553  37.881  17.663  13.977
26786W        W90554  25.173  40.980   0.783
26787W        W90555  22.625  43.954  14.012
26788W        W90556  38.438  24.184   0.251
26789W        W90557   3.773  23.169  14.935
26790W        W90558  33.953   3.811  14.336
26791W        W90559  36.422  10.828  12.476
26792W        W90560  20.555   4.431   0.275
26793W        W90561  42.468  16.729  11.388
26794W        W90562  11.635  14.589   4.687
26795W        W90563  42.794  35.952   1.371
26796W        W90564  42.380  35.593   2.704
26797W        W90565   7.823  30.622   2.237
26798W        W90566  24.040   1.325   1.699
26799W        W90567  22.607  27.513  11.121
26800W        W90568  25.592  30.435   0.444
26801W        W90569  15.665   0.752   1.847
26802W        W90570  18.558   7.246   2.782
26803W        W90571  15.288  43.829   0.863
26804W        W90572   1.778  40.321   4.622
26805W        W90573   1.419  23.716  14.326
26806W        W90574  10.138  29.976   3.832
26807W        W90575  24.173  31.563   3.731
26808W        W90576  35.019   1.434  13.049
26809W        W90577  18.693   4.781   0.353
26810W        W90578   4.870   9.823  11.961
26811W        W90579  26.963  10.326   3.351
26812W        W90580   6.412  27.193  12.020
26813W        W90581  44.274  20.634  10.533
26814W        W90582   1.901  23.547   4.835
26815W        W90583   8.183   2.918   1.403
26816W        W90584   1.932  20.214   0.879
26817W        W90585  14.805  33.441   1.854
26818W        W90586  18.065  28.664   4.807
26819W        W90587  13.801   9.660   3.179
26820W        W90588   7.265  42.288  10.511
26821W        W90589  31.136  31.577  11.608
26822W        W90590  27.568   7.227  12.958
26823W        W90591  34.451  15.276   2.665
26824W        W90592   9.181  29.174  14.978
26825W        W90593   8.768  15.184  11.494
26826W        W90594  17.622  39.377   0.937
26827W        W90595   5.367  34.869   0.873
26828W        W90596  28.933  12.253   3.168
26829W        W90597   2.852  16.214   4.603
26830W        W90598   6.415   7.696  14.508
26831W        W90599  33.576  31.595   3.184
26832W        W90600  13.833   6.690   1.425
26833W        W90601  29.131  18.712  14.950
26834W        W90602  36.490  24.606  10.947
26835W        W90603   8.398  15.683   4.304
26836W        W90604  16.581  41.892   2.401
26837W        W90605  34.913  42.899  13.370
26838W        W90606   6.425  40.850   2.789
26839W        W90607  24.074  24.655  14.421
26840W        W90608   1.280  10.815  13.915
26841W        W90609  23.683  31.973   0.451
26842W        W90610  42.832   0.454   1.915
26843W        W90611   8.886  42.412   2.875
26844W        W90612  36.554  44.453   5.209
26845W        W90613  41.461  13.650  11.988
26846W        W90614  33.927  12.232  12.533
26847W        W90615  35.030  15.640   3.858
26848W        W90616  22.085  22.541  11.516
26849W        W90617  10.234  21.687   3.384
26850W        W90618  39.837  38.500  12.836
26851W        W90619  13.109  35.903  11.587
26852W        W90620  21.679   2.388   3.224
26853W        W90621  19.534   2.957  14.280
26854W        W90622  38.895   3.440  14.912
26855W        W90623  27.043  43.947  13.453
26856W        W90624  41.342  30.094   4.232
26857W        W90625  17.155  40.007  12.472
26858W        W90626   0.355  17.557  13.901
26859W        W90627  29.008  41.971   4.184
26860W        W90628  14.665  12.131   5.590
26861W        W90629  37.847   2.445   2.245
26862W        W90630   4.873   1.921  10.951
26863W        W90631   6.697   3.221   2.785
26864W        W90632  39.870  21.182   4.340
26865W        W90633  40.982  28.510   0.481
26866W        W90634  31.605  13.663  14.839
26867W        W90635  22.147  23.134  12.006
26868W        W90636  27.152  17.252   3.870
26869W        W90637  15.579  13.841   2.307
26870W        W90638  33.413  39.002   1.912
26871W        W90639  43.413  32.044   1.766
26872W        W90640  35.868  12.798  11.033
26873W        W90641   6.838  38.560  12.953
26874W        W90642  17.719  39.990  11.397
26875W        W90643  32.121  14.777  11.520
26876W        W90644  27.125  31.029   0.415
26877W        W90645  33.595   9.330   4.788
26878W        W90646  39.887  26.167  13.827
26879W        W90647  12.662  18.174   2.704
26880W        W90648  42.995   2.442  11.856
26881W        W90649  39.022   3.403   4.750
26882W        W90650  38.475  24.533  14.785
26883W        W90651  43.480  28.087  12.007
26884W        W90652  23.131  11.844  13.875
26885W        W90653  33.900  16.610  10.573
26886W        W90654   0.795  27.186  13.937
26887W        W90655  35.441  30.480   2.882
26888W        W90656  32.003  10.197   0.337
26889W        W90657  20.718   3.837   1.845
26890W        W90658  35.861   4.782   0.950
26891W        W90659  23.072  11.208  11.479
26892W        W90660   6.370  40.525  10.118
26893W        W90661   3.381  21.702  12.399
26894W        W90662  17.228  38.490  13.987
26895W        W90663  28.542  13.326   1.288
26896W        W90664  36.572  20.059   1.706
26897W        W90665  11.203  25.093   1.808
26898W        W90666  13.232  19.050   4.276
26899W        W90667  17.745  39.986  14.276
26900W        W90668   0.377   4.811   3.760
26901W        W90669  40.904  28.507  10.067
26902W        W90670  29.628  43.367  12.848
26903W        W90671   0.263  26.961   3.862
26904W        W90672  42.386  23.166  13.390
26905W        W90673  25.512  22.715   0.435
26906W        W90674  11.301   1.422  13.023
26907W        W90675  28.944   0.812  11.111
26908W        W90676  40.899  25.973   3.341
26909W        W90677  42.319  17.204  13.367
26910W        W90678  14.773  41.436   3.795
26911W        W90679  19.690  14.331   1.214
26912W        W90680   0.851   5.762  13.023
26913W        W90681   5.785   7.366  12.924
26914W        W90682  44.812  12.131  11.041
26915W        W90683  32.985  27.965   2.290
26916W        W90684   6.796   1.843   1.715
26917W        W90685  23.039  37.527  12.038
26918W        W90686  18.230   7.374  13.508
26919W        W90687   4.763  27.956   1.767
26920W        W90688  36.367  14.228   2.395
26921W        W90689  16.090  15.730   0.475
26922W        W90690  27.984   4.713   1.774
26923W        W90691  36.503   7.704  14.825
26924W        W90692  33.905  28.047  13.853
26925W        W90693  28.098  17.232   5.251
26926W        W90694  12.310  11.240   9.502
26927W        W90695  27.640  26.473  13.466
26928W        W90696   7.731  13.826   0.791
26929W        W90697  19.560  29.070   3.312
26930W        W90698  42.889  24.523   2.706
26931W        W90699  18.749  26.182   1.713
26932W        W90700   7.832  19.106  10.563
26933W        W90701  33.985  20.228  11.510
26934W        W90702  40.030  31.473   2.226
26935W        W90703   4.434  40.047  14.371
26936W        W90704  21.105  37.005   0.816
26937W        W90705  36.054   6.797   0.313
26938W        W90706  35.055  20.552  13.312
26939W        W90707   1.738  25.158   4.240
26940W        W90708   4.222  16.281   4.129
26941W        W90709  41.893   9.345   4.219
26942W        W90710   7.669   9.798  14.908
26943W        W90711  20.670   6.417   3.297
26944W        W90712  10.198   7.411  10.009
26945W        W90713   0.405   2.890  14.921
26946W        W90714  29.541  21.537  11.590
26947W        W90715  36.580  30.975  11.056
26948W        W90716   6.196   4.768  13.891
26949W        W90717   9.280  23.609   4.792
26950W        W90718  41.298  37.460  13.444
26951W        W90719  15.711  22.230   9.988
26952W        W90720  37.535  43.489   4.143
26953W        W90721  10.743  44.424   3.830
26954W        W90722  43.778   7.905  12.956
26955W        W90723   7.863  21.738  14.802
26956W        W90724   1.356   4.411   1.213
26957W        W90725  16.230  39.008  13.829
26958W        W90726  35.582  43.896   3.301
26959W        W90727   5.326  37.952  11.449
26960W        W90728  13.153  44.426   1.436
26961W        W90729  26.082   5.409  13.015
26962W        W90730   1.745  26.461  10.895
26963W        W90731  17.759  39.506  12.463
26964W        W90732  30.002  41.381  11.538
26965W        W90733  32.417  36.562  14.958
26966W        W90734  20.208  40.487   1.732
26967W        W90735  18.178  12.346   0.744
26968W        W90736  12.658  42.281   0.473
26969W        W90737  43.847   4.781   0.459
26970W        W90738  40.472   5.834  13.889
26971W        W90739  34.939   6.411  13.366
26972W        W90740  28.595  39.894  10.436
26973W        W90741   1.328  44.778  11.890
26974W        W90742   2.739  41.511   0.769
26975W        W90743  39.918  41.533  13.023
26976W        W90744  28.020  39.876  13.832
26977W        W90745  11.688   1.317   0.916
26978W        W90746  27.028  16.775  11.525
26979W        W90747  14.600  10.178   1.765
26980W        W90748   8.362  41.424   2.310
26981W        W90749   1.345  39.488   4.808
26982W        W90750   5.317  19.253  12.881
26983W        W90751   1.773  42.885   0.339
26984W        W90752   1.398  25.596  11.966
26985W        W90753  41.437   3.858   1.740
26986W        W90754   0.847  41.922  12.352
26987W        W90755  15.316  38.539   2.293
26988W        W90756  34.018  32.902  14.997
26989W        W90757  13.142  36.555   2.379
26990W        W90758  12.322  25.997   4.806
26991W        W90759   4.747   2.860  11.921
26992W        W90760  13.136   7.303   1.876
26993W        W90761  40.532   1.275  11.993
26994W        W90762  20.108  32.080   0.901
26995W        W90763  26.673  27.181  13.014
26996W        W90764  38.986   2.272  13.325
26997W        W90765  23.105  10.289   0.315
26998W        W90766  17.163  17.068  13.038
26999W        W90767  38.343  42.026  13.996
27000W        W90768  34.108   0.910   4.151
27001W        W90769  10.844  15.188   3.181
27002W        W90770   5.823  33.613   2.788
27003W        W90771  17.559  31.122  12.397
27004W        W90772  17.677  13.800  14.316
27005W        W90773  17.186  37.544   1.932
27006W        W90774  16.646  26.206   2.742
27007W        W90775  41.411  15.725   3.231
27008W        W90776   7.893  21.260   2.850
27009W        W90777  39.442   1.942  12.066
27010W        W90778  11.645  29.449   0.390
27011W        W90779  23.683  26.048  11.491
27012W        W90780  18.110  16.273  12.977
27013W        W90781  25.075  32.049   5.145
27014W        W90782  13.205  42.321  14.440
27015W        W90783  11.838  37.376   3.806
27016W        W90784  12.645  21.102  14.317
27017W        W90785  35.490   8.782   2.864
27018W        W90786  34.486  13.781  13.476
27019W        W90787  37.574  27.146   1.898
27020W        W90788  34.052  12.123  12.859
27021W        W90789   1.959   7.772   5.081
27022W        W90790   3.304  14.189  12.049
27023W        W90791  18.769  43.380  14.853
27024W        W90792  31.061  13.754   3.319
27025W        W90793  23.115  41.356  11.506
27026W        W90794   5.382  36.487   0.894
27027W        W90795  11.326  15.675  14.902
27028W        W90796  22.162  44.895   2.668
27029W        W90797  38.024  38.899   0.446
27030W        W90798   2.728  38.505   4.761
27031W        W90799  26.532  26.112  13.800
27032W        W90800  35.422  23.644  12.024
27033W        W90801  41.884   4.868  14.293
27034W        W90802   1.257   5.355   0.252
27035W        W90803  27.557  25.550   1.787
27036W        W90804  13.166  11.767  13.517
27037W        W90805  43.926  24.997  14.978
27038W        W90806   5.384   5.792   3.158
27039W        W90807  11.225   1.924   4.652
27040W        W90808  20.125  32.478   2.858
27041W        W90809   9.344  30.651   0.821
27042W        W90810   3.252  43.979  10.564
27043W        W90811   8.899  10.733  12.849
27044W        W90812  11.189   4.705  11.411
27045W        W90813   2.942  24.558  14.459
27046W        W90814  38.374   3.857   3.325
27047W        W90815  22.622   7.374   1.230
27048W        W90816  20.565  22.047  11.111
27049W        W90817   5.197  23.635   4.754
27050W        W90818  25.996  24.653  14.450
27051W        W90819  37.074  22.030  12.023
27052W        W90820   1.368   8.398  13.886
27053W        W90821  22.207  44.369  11.908
27054W        W90822  26.668  43.370  14.975
27055W        W90823  18.143  31.549  10.072
27056W        W90824  35.546   5.257   1.255
27057W        W90825  39.505  17.645  12.086
27058W        W90826  14.694  40.439  13.380
27059W        W90827  25.203  44.385  10.597
27060W        W90828   0.744  39.472   2.283
27061W        W90829  43.411  18.196  14.986
27062W        W90830   8.880  17.264  13.969
27063W        W90831  40.902   9.826   0.804
27064W        W90832   3.438  13.118   5.221
27065W        W90833  43.286  37.969  14.792
27066W        W90834  11.218  10.679  10.120
27067W        W90835  43.945  28.501  12.927
27068W        W90836  43.871   8.214   3.849
27069W        W90837  27.149   3.742  13.825
27070W        W90838  11.765  33.455  13.357
27071W        W90839  40.932   4.810   2.402
27072W        W90840  17.241  15.622  14.866
27073W        W90841  41.990  17.094   9.919
27074W        W90842  38.467   3.743  12.865
27075W        W90843   2.778  30.060   1.288
27076W        W90844  24.128  28.987   0.350
27077W        W90845  31.921  19.280   3.869
27078W        W90846  41.373  30.478  14.320
27079W        W90847  21.673  33.912  11.543
27080W        W90848   2.734  31.521   4.828
27081W        W90849  19.698  31.114   1.875
27082W        W90850  44.391   0.772   5.293
27083W        W90851  15.619  42.954   4.830
27084W        W90852  18.757  17.693  13.524
27085W        W90853  13.612   7.859  13.009
27086W        W90854  43.356  14.806   0.738
27087W        W90855   8.727  23.153  14.883
27088W        W90856  27.032   8.385   2.284
27089W        W90857  23.120  35.857   0.932
27090W        W90858  17.071   0.471   2.788
27091W        W90859  16.144  30.447  11.575
27092W        W90860   9.858  33.098  13.811
27093W        W90861   6.907  35.007   3.756
27094W        W90862  27.518  33.435  11.959
27095W        W90863  23.644  31.016   3.297
27096W        W90864  21.705  29.669   1.222
27097W        W90865  22.711  12.856  11.492
27098W        W90866  10.751  20.722   1.699
27099W        W90867  21.657  12.659   4.226
27100W        W90868  36.968  21.262  11.014
27101W        W90869  16.252  15.766   4.813
27102W        W90870  25.527  44.475  12.001
27103W        W90871  39.985  35.053  10.571
27104W        W90872  22.711  30.963   0.960
27105W        W90873  43.835  29.118   0.924
27106W        W90874  15.304  35.047  12.342
27107W        W90875  27.013  17.261  11.925
27108W        W90876  37.425  30.426   2.205
27109W        W90877   5.311  42.803  14.454
27110W        W90878  23.217  30.112  11.041
27111W        W90879  10.769  22.591   3.681
27112W        W90880  21.560  12.615  13.996
27113W        W90881  28.048  28.045  11.559
27114W        W90882  29.468  32.485   1.889
27115W        W90883  26.020   4.232  14.325
27116W        W90884  10.241  42.484   2.695
27117W        W90885  31.970  15.147   3.838
27118W        W90886  15.289   1.465  13.973
27119W        W90887  10.289  29.469  12.441
27120W        W90888  19.585  27.686  12.832
27121W        W90889   9.313   8.369   0.914
27122W        W90890  19.219   0.249  13.877
27123W        W90891  35.403  15.607   0.852
27124W        W90892  43.808   5.830  11.376
27125W        W90893  33.565   1.457   1.366
27126W        W90894  32.408  44.958  14.412
27127W        W90895  19.564   0.449  11.891
27128W        W90896   7.807  21.256   4.753
27129W        W90897  27.990   9.670  13.526
27130W        W90898  17.062  12.660  12.923
27131W        W90899   2.740  17.191   2.812
27132W        W90900  31.948   5.789  13.990
27133W        W90901  42.939  22.744  13.878
27134W        W90902  38.876  29.522  14.978
27135W        W90903  13.110  33.495   0.779
27136W        W90904  40.825  43.002   0.419
27137W        W90905  22.670  32.420   4.236
27138W        W90906   0.954  34.400  10.934
27139W        W90907  27.020  23.571  11.994
27140W        W90908  31.453  10.341   0.383
27141W        W90909  22.504  39.869  12.979
27142W        W90910  43.952  21.247   2.355
27143W        W90911  40.436  42.402  12.882
27144W        W90912  44.886  30.628   4.121
27145W        W90913   8.875  17.281   4.603
27146W        W90914  36.040  31.924   3.720
27147W        W90915  11.148  31.529   1.261
27148W        W90916  39.924  11.177   2.190
27149W        W90917  30.447  43.975  13.353
27150W        W90918  37.464   4.278  13.034
27151W        W90919  11.635   1.338   3.682
27152W        W90920   2.442   2.270   5.245
27153W        W90921  36.511  44.319  13.356
27154W        W90922   0.344  22.635   4.216
27155W        W90923  33.499   8.181  11.076
27156W        W90924  36.444   6.903   1.872
27157W        W90925  14.592  36.493   1.343
27158W        W90926   4.308  32.495  13.793
27159W        W90927  19.129  24.162   5.086
27160W        W90928  18.761  16.239  11.002
27161W        W90929  37.972  28.986   0.788
27162W        W90930  15.262  14.633   3.192
27163W        W90931   0.341  31.074   0.425
27164W        W90932  10.196  32.917   2.415
27165W        W90933   8.326  38.956   3.703
27166W        W90934  39.476  26.684   3.762
27167W        W90935  18.226  19.682  13.327
27168W        W90936  15.655  20.050   4.637
27169W        W90937  32.462  40.991  11.107
27170W        W90938  25.183  15.692  10.457
27171W        W90939  39.036  27.975   2.245
27172W        W90940  15.582   6.343  14.782
27173W        W90941  18.075  30.470  11.973
27174W        W90942  38.367  22.539   0.446
27175W        W90943  38.933  42.805  14.789
27176W        W90944   5.204  44.827   1.752
27177W        W90945  42.318  20.170  14.428
27178W        W90946  11.302  36.860  10.920
27179W        W90947  34.517   2.269  13.430
27180W        W90948  33.056  15.630  12.004
27181W        W90949  36.365  13.639   1.216
27182W        W90950  13.171  39.969  10.141
27183W        W90951  41.303  44.788  12.510
27184W        W90952  41.350  16.242  11.528
27185W        W90953  24.078  14.772   4.827
27186W        W90954  31.061  42.799  13.936
27187W        W90955  26.174  32.913  12.088
27188W        W90956  14.811   3.911   1.318
27189W        W90957  32.895   2.916  14.760
27190W        W90958  19.238  13.782  13.869
27191W        W90959   1.347  10.240   1.796
27192W        W90960  25.145  10.874  11.430
27193W        W90961  44.880  27.165  12.975
27194W        W90962  27.501  41.819  11.412
27195W        W90963   3.369  20.542   4.272
27196W        W90964  35.566  14.723  13.860
27197W        W90965   2.881  42.965  11.044
27198W        W90966   3.757  29.015   2.704
27199W        W90967  41.836   3.866   1.322
27200W        W90968   4.913  33.473   3.386
27201W        W90969  30.130  42.943   0.884
27202W        W90970  41.989  12.629   5.092
27203W        W90971   9.771  23.723   0.773
27204W        W90972   6.418   7.214   2.230
27205W        W90973  22.707  32.917   4.281
27206W        W90974  38.502   5.779   4.745
27207W        W90975   1.827  42.487  13.940
27208W        W90976   1.403   7.747  10.917
27209W        W90977  16.134  29.132  11.956
27210W        W90978   2.959  43.378  12.857
27211W        W90979   2.780   0.286   2.694
27212W        W90980  16.666  44.413  11.512
27213W        W90981  14.160  21.740  11.587
27214W        W90982  16.608  32.618   9.666
27215W        W90983   4.772  41.886  12.493
27216W        W90984   2.867  10.801   4.714
27217W        W90985  28.127   4.242   3.299
27218W        W90986  38.034  20.560  13.326
27219W        W90987  16.799   8.821  14.318
27220W        W90988  15.663  34.451   2.373
27221W        W90989  34.387  19.547  10.499
27222W        W90990  10.381   3.291  10.494
27223W        W90991  24.109  23.579  10.981
27224W        W90992  32.919   1.770  11.055
27225W        W90993  36.861  22.148  13.943
27226W        W90994  21.145  26.526   1.217
27227W        W90995  43.896   9.644   0.246
27228W        W90996  41.858   6.244   0.862
27229W        W90997  12.261  40.338  13.377
27230W        W90998  27.074  39.855   2.186
27231W        W90999   8.785  36.495   3.305
27232W        W91000  17.749  28.000  11.913
27233W        W91001  40.347  24.641   0.447
27234W        W91002  39.347   3.420   4.297
27235W        W91003  39.907   5.760  13.422
27236W        W91004  27.636  32.624  12.537
27237W        W91005  34.071  44.360  14.454
27238W        W91006   4.321  15.697   2.754
27239W        W91007  35.536  10.220   4.171
27240W        W91008   3.840   7.849  13.427
27241W        W91009   4.301  20.628  10.548
27242W        W91010  32.394  41.985  14.823
27243W        W91011  27.639  34.013   3.339
27244W        W91012   0.471  39.869  11.404
27245W        W91013  30.914  13.213  10.603
27246W        W91014   1.400   4.756   4.188
27247W        W91015  17.609   1.267   4.234
27248W        W91016  18.593  14.135  13.538
27249W        W91017  41.962  39.496  13.862
27250W        W91018   3.939  18.296  10.946
27251W        W91019  11.685   0.271   1.217
27252W        W91020  16.567   0.494  12.856
27253W        W91021  18.192  27.566  12.410
27254W        W91022  11.172  41.972   2.763
27255W        W91023   8.322  40.829  12.365
27256W        W91024  18.097  35.856   4.182
27257W        W91025   1.464  33.986  10.993
27258W        W91026  28.946  17.702  14.457
27259W        W91027  14.640  22.658  14.759
27260W        W91028  33.551   9.699   1.259
27261W        W91029   5.803  15.265   1.433
27262W        W91030  22.123  15.688   3.358
27263W        W91031  34.059   9.388   3.386
27264W        W91032  15.296   4.415  14.979
27265W        W91033  34.959   6.284  14.411
27266W        W91034  13.711  23.637  12.546
27267W        W91035  26.471  44.330  10.599
27268W        W91036  23.992  37.546   0.933
27269W        W91037  32.502   5.300  11.968
27270W        W91038  23.174  39.870   1.297
27271W        W91039  33.482  33.966  13.397
27272W        W91040  35.374  35.982   0.319
27273W        W91041  39.428  28.475   3.284
27274W        W91042  13.624   1.272   0.339
27275W        W91043  39.909  18.125  10.637
27276W        W91044   4.813  44.984  11.499
27277W        W91045  38.533  39.964  10.438
27278W        W91046  10.808  16.111  13.002
27279W        W91047  25.989   1.352  11.594
27280W        W91048  40.527   9.778  11.430
27281W        W91049  25.170  42.781  13.977
27282W        W91050  14.717  37.073  12.580
27283W        W91051  32.584  16.635   4.120
27284W        W91052  33.435  37.946   0.746
27285W        W91053  37.577  26.633   2.786
27286W        W91054  29.570  34.079  14.959
27287W        W91055  23.573  21.166   4.637
27288W        W91056  38.326   3.223  13.498
27289W        W91057  30.429  25.559  14.515
27290W        W91058  28.963  19.752   1.323
27291W        W91059  20.552  35.060   1.418
27292W        W91060  44.410  13.297   1.295
27293W        W91061  23.129  35.985   4.755
27294W        W91062  17.250  29.490  14.812
27295W        W91063  22.705  44.324   3.342
27296W        W91064  39.949   7.289  11.450
27297W        W91065  38.823  37.576   2.358
27298W        W91066  39.335  30.074   2.371
27299W        W91067  31.600  13.608   1.701
27300W        W91068   4.913  23.501   3.148
27301W        W91069  24.537  34.458  11.085
27302W        W91070  10.356   4.307   4.685
27303W        W91071   6.816   4.408  12.891
27304W        W91072  37.019  22.554  10.440
27305W        W91073  15.234  36.516  13.510
27306W        W91074  13.194  16.125  13.472
27307W        W91075  37.956  36.507   0.839
27308W        W91076  19.546  25.180  14.440
27309W        W91077  37.409  38.325  11.879
27310W        W91078   1.927  13.299   0.301
27311W        W91079  16.674  39.488   2.273
27312W        W91080  20.052  44.902   1.251
27313W        W91081  15.240  37.971   3.691
27314W        W91082  42.022   9.300   3.184
27315W        W91083  32.922  31.958   1.903
27316W        W91084   1.265   0.866   1.758
27317W        W91085  21.127  13.669   2.362
27318W        W91086  18.123  14.315   1.365
27319W        W91087  22.108  43.875   0.885
27320W        W91088   1.923  21.047  14.479
27321W        W91089  32.447   4.910  13.430
27322W        W91090   4.270  27.687   4.273
27323W        W91091  37.007  41.921  12.834
27324W        W91092  33.124   7.806   1.236
27325W        W91093  14.142  17.709   0.752
27326W        W91094   9.394  25.982   4.130
27327W        W91095   6.747  32.625  13.328
27328W        W91096   0.321  40.359  13.396
27329W        W91097  36.998  43.414   2.245
27330W        W91098  10.768   1.472  14.308
27331W        W91099  12.176  29.474  13.894
27332W        W91100  11.752  30.449   9.927
27333W        W91101  13.319   3.920  13.817
27334W        W91102  29.484   6.331   3.349
27335W        W91103   7.335  23.135  13.010
27336W        W91104   6.252  19.717  13.001
27337W        W91105  23.117  41.428  12.051
27338W        W91106  32.056   1.830  10.099
27339W        W91107  38.988  25.137   0.398
27340W        W91108   5.197  10.143  13.027
27341W        W91109  15.637   1.341  11.503
27342W        W91110  31.998  20.099  14.921
27343W        W91111   6.851   9.691  14.358
27344W        W91112  27.568  33.456  12.407
27345W        W91113   0.304   9.701  13.055
27346W        W91114  38.006  42.022   2.284
27347W        W91115  13.727  36.968  13.484
27348W        W91116  26.044   6.898  10.520
27349W        W91117  16.777  41.488   2.314
27350W        W91118  16.664  29.458  13.377
27351W        W91119  14.151   4.438  11.405
27352W        W91120  22.046  16.287   4.118
27353W        W91121  17.757  15.295  11.939
27354W        W91122  16.090  42.290  10.604
27355W        W91123  12.219   3.367  10.476
27356W        W91124   6.785  10.222   0.467
27357W        W91125  18.657  17.300  12.850
27358W        W91126  37.900   8.697   1.415
27359W        W91127  14.594  43.017   1.704
27360W        W91128  41.848  28.083  13.421
27361W        W91129  43.472  19.621   0.268
27362W        W91130  19.636  21.635  11.070
27363W        W91131  26.528  35.463   1.269
27364W        W91132  30.972  15.597  14.852
27365W        W91133   8.896   1.412   0.388
27366W        W91134  38.898  12.142   3.658
27367W        W91135  28.532  20.207  12.388
27368W        W91136   8.798  34.956   1.871
27369W        W91137  35.560  10.191   1.745
27370W        W91138  37.938  38.344  14.998
27371W        W91139  37.879  33.948  12.052
27372W        W91140   9.808  32.044  12.580
27373W        W91141   8.364  18.625   4.248
27374W        W91142   5.908  43.277   2.374
27375W        W91143   1.419  27.619  12.993
27376W        W91144  28.650  16.094  12.049
27377W        W91145  36.896  27.007  14.861
27378W        W91146  24.065  27.001  12.495
27379W        W91147  26.092  15.170  13.939
27380W        W91148  12.190  39.388  14.347
27381W        W91149  38.417  10.737  12.953
27382W        W91150  21.044  20.045  12.553
27383W        W91151  32.950  32.574   0.404
27384W        W91152  42.452  22.564   0.743
27385W        W91153  30.011  42.993   5.310
27386W        W91154  44.371  31.065  12.947
27387W        W91155   0.449  13.635  11.447
27388W        W91156  15.663   3.393  12.021
27389W        W91157  34.901  27.960  12.045
27390W        W91158  39.350  14.143  10.541
27391W        W91159  42.995  19.083  14.934
27392W        W91160  25.552   4.387  14.833
27393W        W91161  20.591  24.494  10.478
27394W        W91162  30.910   7.688  12.545
27395W        W91163  43.328  25.554  11.536
27396W        W91164  29.175  19.570   0.293
27397W        W91165  20.085  12.670  12.055
27398W        W91166  11.274  38.344   3.809
27399W        W91167  12.276  25.685   4.178
27400W        W91168  15.083  26.494  11.103
27401W        W91169  15.605  39.396   0.391
27402W        W91170  40.004  22.527   2.716
27403W        W91171  44.499  10.195   2.848
27404W        W91172   9.241  31.513   3.719
27405W        W91173  14.133  29.120   4.192
27406W        W91174  36.418  42.833  11.997
27407W        W91175  28.062  39.543  13.897
27408W        W91176   3.886  42.811  13.907
27409W        W91177   0.409  38.354  12.050
27410W        W91178  30.000   3.242  10.501
27411W        W91179   1.735   6.196  12.995
27412W        W91180  19.097  42.003   1.314
27413W        W91181  28.107  31.947  13.518
27414W        W91182  30.035  11.361   3.842
27415W        W91183  34.429  12.729   2.845
27416W        W91184  36.502  11.194  11.519
27417W        W91185  28.017  35.986   2.210
27418W        W91186  36.875   8.865  11.555
27419W        W91187  22.512  36.468  12.411
27420W        W91188  32.085  33.013   2.352
27421W        W91189  30.979  20.135   4.672
27422W        W91190  38.943  34.980   1.736
27423W        W91191  38.873   1.285  13.917
27424W        W91192  36.389  16.807  13.974
27425W        W91193  17.792  16.191  10.532
27426W        W91194  43.414   3.909   1.253
27427W        W91195   0.781   4.305   4.222
27428W        W91196  39.902  34.023   2.234
27429W        W91197  30.481   7.290   4.735
27430W        W91198   3.391  18.253  13.411
27431W        W91199  33.565   9.336   2.773
27432W        W91200  14.830   4.922   9.933
27433W        W91201  35.994   7.862  12.962
27434W        W91202  17.557  15.710   1.408
27435W        W91203  44.288  14.242  11.443
27436W        W91204  29.596  18.634  11.449
27437W        W91205  14.119  36.087  12.082
27438W        W91206  43.429   2.817   0.437
27439W        W91207   4.345  14.194   1.851
27440W        W91208  23.091  26.102  14.811
27441W        W91209  41.919  39.932  10.989
27442W        W91210  11.706  14.770  10.645
27443W        W91211  15.683  27.021   1.750
27444W        W91212   7.220  32.982  10.442
27445W        W91213  44.436  19.669  11.895
27446W        W91214   0.285  24.013  14.296
27447W        W91215   0.835   3.878  10.138
27448W        W91216  18.223   5.293  10.568
27449W        W91217  20.263  39.016   4.826
27450W        W91218  27.004  39.815   1.705
27451W        W91219  16.689  23.506  13.983
27452W        W91220  37.443   6.325   1.428
27453W        W91221  38.405  14.118   3.233
27454W        W91222  25.640   6.328  10.410
27455W        W91223   9.681  41.855  14.346
27456W        W91224  23.998   6.267  10.452
27457W        W91225  17.259  31.427  13.333
27458W        W91226   1.805  11.742   2.706
27459W        W91227   3.928  36.500   3.666
27460W        W91228  34.592  38.970   4.147
27461W        W91229  42.983   2.337   3.318
27462W        W91230  43.420  15.768  10.489
27463W        W91231  19.231   4.276  11.377
27464W        W91232   0.899  24.989  13.029
27465W        W91233  17.087  24.491  10.580
27466W        W91234  33.901   1.931   3.753
27467W        W91235   7.695  33.429   3.720
27468W        W91236  27.611  40.398  11.592
27469W        W91237  23.132  44.968  11.105
27470W        W91238  30.956   8.698   9.951
27471W        W91239  17.750  39.510  10.905
27472W        W91240  28.018  41.943   3.753
27473W        W91241  12.320  20.111   1.233
27474W        W91242  23.045  36.532  14.814
27475W        W91243  39.853  13.617   0.838
27476W        W91244  44.488  35.368   2.361
27477W        W91245  36.413  25.154   2.208
27478W        W91246  13.336  40.847  11.093
27479W        W91247  39.458  44.421   1.402
27480W        W91248  11.272   6.876   4.624
27481W        W91249   8.702  34.586   3.314
27482W        W91250  38.338  31.068   3.160
27483W        W91251  10.725  21.163   0.483
27484W        W91252  40.933  40.524   0.750
27485W        W91253   7.289   6.897  14.481
27486W        W91254  30.659   0.301  13.811
27487W        W91255  36.511  31.920   1.842
27488W        W91256   9.757  22.082  11.468
27489W        W91257   2.725  25.655   1.729
27490W        W91258  19.551   5.813  12.915
27491W        W91259  44.474  16.748  13.899
27492W        W91260  43.361  31.033  11.913
27493W        W91261  20.194  28.946   4.737
27494W        W91262  33.931  41.422   0.421
27495W        W91263  10.840   7.895   1.801
27496W        W91264  40.305  24.224   0.810
27497W        W91265  29.121  21.237  10.034
27498W        W91266  40.009  32.478   0.936
27499W        W91267  20.227  31.461  10.921
27500W        W91268   5.238  42.522  10.927
27501W        W91269  35.481  38.384   2.717
27502W        W91270   1.239  20.573   2.895
27503W        W91271  12.241  17.625   3.305
27504W        W91272  13.832  12.204  13.311
27505W        W91273  14.644  16.803  12.514
27506W        W91274   1.820  32.081  14.324
27507W        W91275  20.132  36.419  14.775
27508W        W91276  32.517  30.095   4.666
27509W        W91277  20.130  22.209   1.366
27510W        W91278  28.032   0.947   0.392
27511W        W91279  27.581  18.781  11.460
27512W        W91280   3.348   4.737   0.788
27513W        W91281   7.678  42.778  14.774
27514W        W91282   1.463  18.102   1.870
27515W        W91283  20.230  13.174   3.677
27516W        W91284  39.958  13.643   4.318
27517W        W91285  40.020  18.743  13.371
27518W        W91286  39.813   6.725  10.567
27519W        W91287  32.985  21.178   1.368
27520W        W91288  35.930  11.132  11.873
27521W        W91289  19.679  40.508  13.915
27522W        W91290  10.650  25.494  13.518
27523W        W91291  26.173  39.382   0.345
27524W        W91292  18.576  12.759  14.950
27525W        W91293   4.363  29.924  12.396
27526W        W91294  34.974  43.795   1.256
27527W        W91295  10.868   8.767   1.808
27528W        W91296  26.482  20.628   4.247
27529W        W91297  35.939  25.030  11.531
27530W        W91298  14.802  42.951   5.092
27531W        W91299   1.781  17.238  10.407
27532W        W91300  19.750   3.255   4.825
27533W        W91301  20.204  44.260   1.708
27534W        W91302  44.947   5.864   2.266
27535W        W91303  20.655  29.109  14.969
27536W        W91304  34.441  15.198  11.423
27537W        W91305   4.274  36.531  14.997
27538W        W91306  41.789  16.163  14.494
27539W        W91307   8.401  10.225  13.539
27540W        W91308  27.139  20.160  12.409
27541W        W91309  15.740  40.799  11.508
27542W        W91310   9.243  35.881  14.855
27543W        W91311  29.523  16.311   4.191
27544W        W91312  37.087  21.243   2.828
27545W        W91313  13.810  43.404  11.879
27546W        W91314  14.112  25.506  11.921
27547W        W91315   0.889  28.618   9.998
27548W        W91316   7.207  19.662   1.415
27549W        W91317  16.239  41.355   2.866
27550W        W91318  43.917   3.930   0.809
27551W        W91319  24.724  41.840   3.794
27552W        W91320  44.394  24.687   1.840
27553W        W91321   8.769  19.591  10.127
27554W        W91322  24.651  10.654   2.190
27555W        W91323  13.256  20.724  12.538
27556W        W91324  16.140  44.795   2.709
27557W        W91325  31.565  20.032   0.884
27558W        W91326  34.033  33.008  13.838
27559W        W91327  23.205  28.535   4.317
27560W        W91328   9.737   8.841   0.279
27561W        W91329  36.407  43.961   3.846
27562W        W91330  27.582  42.961  11.497
27563W        W91331  28.559   2.368   3.775
27564W        W91332  20.262  40.008   3.836
27565W        W91333   1.249  41.816  11.986
27566W        W91334   6.712  15.115   4.823
27567W        W91335  44.496  41.402   4.811
27568W        W91336  31.438  40.932  14.983
27569W        W91337   2.782  35.515  14.433
27570W        W91338  26.539   5.406   4.325
27571W        W91339  24.006  42.352   0.967
27572W        W91340  37.393  41.022  13.310
27573W        W91341   6.823  41.463   1.730
27574W        W91342  31.519  27.945   0.902
27575W        W91343  41.313  18.730   3.730
27576W        W91344   2.864  24.600  10.545
27577W        W91345  13.331   9.709   1.270
27578W        W91346  27.600   6.405   2.729
27579W        W91347  38.417  19.612   4.340
27580W        W91348  27.497  23.004  11.414
27581W        W91349  10.211  13.736  14.941
27582W        W91350  32.548  17.738  11.480
27583W        W91351  28.107  19.664  11.103
27584W        W91352  40.038  44.862  13.319
27585W        W91353  17.305  31.924   3.685
27586W        W91354   7.697  26.673   4.632
27587W        W91355  22.129  43.883  12.899
27588W        W91356  30.958  21.130   1.228
27589W        W91357  42.330  31.955  12.985
27590W        W91358  43.361  25.126  14.910
27591W        W91359  19.746  33.898   5.233
27592W        W91360   0.867  40.913  12.938
27593W        W91361   4.296  23.697  11.857
27594W        W91362   0.790  18.248  11.561
27595W        W91363  29.549  14.284   1.734
27596W        W91364  28.096  16.090  12.465
27597W        W91365  40.915  39.006  11.424
27598W        W91366  34.608  29.165  12.399
27599W        W91367  44.363  17.734  14.950
27600W        W91368  30.957  30.000  13.060
27601W        W91369  21.071  34.038   4.276
27602W        W91370   1.758  20.746   3.386
27603W        W91371  30.027  19.071  11.117
27604W        W91372  35.972  10.751   1.345
27605W        W91373  13.289  15.732   1.391
27606W        W91374  17.069  18.056  11.005
27607W        W91375  14.110  28.101  13.321
27608W        W91376  44.468  30.638  14.947
27609W        W91377  36.019  39.997  14.406
27610W        W91378  17.277  29.551   3.645
27611W        W91379  15.150  25.076  10.992
27612W        W91380  13.160  42.385   2.198
27613W        W91381  34.980  18.228   2.234
27614W        W91382  19.047  36.945  12.428
27615W        W91383   4.390  44.882  11.005
27616W        W91384  41.325  26.123   3.314
27617W        W91385  24.136  44.275  13.942
27618W        W91386   2.341  27.186   4.274
27619W        W91387   4.703  26.701   0.867
27620W        W91388  27.592  40.369   3.370
27621W        W91389  33.014  29.051  10.923
27622W        W91390  16.184  45.000   1.368
27623W        W91391   5.895  33.435  11.024
27624W        W91392  36.532  31.545   2.839
27625W        W91393  34.041  24.525   0.905
27626W        W91394  14.167  18.229   3.219
27627W        W91395  20.668  12.289   1.436
27628W        W91396  23.718  20.594   1.773
27629W        W91397  30.441  31.572  13.015
27630W        W91398  19.552  13.719  13.402
27631W        W91399  16.610  12.309  12.057
27632W        W91400   2.306  40.031   0.845
27633W        W91401  33.469  35.966   0.735
27634W        W91402   7.197  28.971  14.986
27635W        W91403   7.783  18.244   1.826
27636W        W91404  22.192  11.733   4.723
27637W        W91405  36.434  25.568   4.726
27638W        W91406  27.085   8.348  12.412
27639W        W91407  22.016  10.662  14.489
27640W        W91408  15.259  43.844   2.790
27641W        W91409  39.323   2.819   4.219
27642W        W91410  44.266  24.702  14.323
27643W        W91411   3.931  18.705  11.931
27644W        W91412  11.867  20.591   4.833
27645W        W91413   9.279  12.683   2.804
27646W        W91414   5.762  17.586  11.919
27647W        W91415  35.540  37.854  13.370
27648W        W91416  27.036  29.039   2.797
27649W        W91417   8.263   5.828  14.867
27650W        W91418  15.653  36.583  10.911
27651W        W91419  29.999   3.390  13.863
27652W        W91420  43.782  26.632  11.089
27653W        W91421  34.552  19.596  14.276
27654W        W91422  11.222  30.926  11.556
27655W        W91423  23.208  42.445   2.260
27656W        W91424   7.322  17.154   4.660
27657W        W91425  17.684  14.155   4.219
27658W        W91426  14.743  31.106  14.865
27659W        W91427  26.123  32.030   1.339
27660W        W91428  27.525  12.780  13.035
27661W        W91429  23.125  38.861   3.780
27662W        W91430   3.909  21.558  11.115
27663W        W91431   1.253  44.473   0.342
27664W        W91432  16.145  37.557   0.732
27665W        W91433  25.973  30.941  12.477
27666W        W91434  16.312  22.517  13.948
27667W        W91435  44.944  25.137  10.925
27668W        W91436  34.974  35.870  10.448
27669W        W91437  29.161  39.875   3.268
27670W        W91438  12.142   3.927  10.617
27671W        W91439  18.253  41.512   4.341
27672W        W91440  33.967   6.812   3.758
27673W        W91441  31.988   0.369   2.684
27674W        W91442  34.598   3.260  12.446
27675W        W91443   3.853  32.034   1.245
27676W        W91444   6.208   2.917   4.671
27677W        W91445  28.078  31.980  10.487
27678W        W91446  44.429   9.835   2.849
27679W        W91447   6.414  32.953  12.842
27680W        W91448  17.771   6.902   0.749
27681W        W91449   6.906  15.200   1.820
27682W        W91450  44.894  35.024  10.903
27683W        W91451   7.339  26.136  14.978
27684W        W91452   6.728  10.672   2.401
27685W        W91453   2.750  30.431   3.665
27686W        W91454   9.652  43.431  12.979
27687W        W91455   7.836  37.902  14.330
27688W        W91456  28.519   2.918  12.931
27689W        W91457  40.949  27.682  12.414
27690W        W91458  19.283   2.747   1.765
27691W        W91459  23.163  20.534   1.324
27692W        W91460  12.133  42.470   1.789
27693W        W91461  20.212   4.759  12.998
27694W        W91462   7.804  24.514  13.947
27695W        W91463  39.864  32.555   1.840
27696W        W91464  30.498  41.506   2.895
27697W        W91465  38.337  23.090   2.192
27698W        W91466  21.110  44.968  13.309
27699W        W91467  13.776  37.498   3.849
27700W        W91468  23.603  18.564   0.828
27701W        W91469  18.710  11.763  11.009
27702W        W91470  22.995  27.554  13.795
27703W        W91471   7.667  14.106   1.707
27704W        W91472  25.966  29.442   1.348
27705W        W91473   7.182  42.392   2.888
27706W        W91474  40.523  12.149  12.476
27707W        W91475   2.943  23.990   4.127
27708W        W91476  27.109  16.104   2.199
27709W        W91477  38.368  14.290   1.398
27710W        W91478  24.720  32.966  13.320
27711W        W91479   3.410  24.109   5.174
27712W        W91480  34.444   9.693  11.582
27713W        W91481   9.343  38.861  14.970
27714W        W91482  36.083  13.691  13.918
27715W        W91483  14.718   9.162   2.381
27716W        W91484   7.901  19.734   1.265
27717W        W91485   2.796  11.159   1.861
27718W        W91486   7.840   0.468   0.952
27719W        W91487  21.215   8.190   3.263
27720W        W91488   9.219  17.776   0.817
27721W        W91489   7.405  32.499  13.989
27722W        W91490  41.003  28.944   3.761
27723W        W91491  26.684  29.632   3.204
27724W        W91492  18.617   8.341  13.806
27725W        W91493   0.379  16.651  12.546
27726W        W91494  30.140  32.624   1.829
27727W        W91495  29.980  35.566   2.292
27728W        W91496  40.451  44.986  13.962
27729W        W91497  43.284  39.483  11.506
27730W        W91498  12.802   6.773   4.822
27731W        W91499  25.988  13.612   4.344
27732W        W91500   6.804  12.235  12.346
27733W        W91501   4.386   1.908  11.462
27734W        W91502  34.057   6.879  11.981
27735W        W91503  12.293  16.572  10.580
27736W        W91504  41.979  37.356  11.505
27737W        W91505  19.594  25.469  13.531
27738W        W91506  40.402  33.618   4.762
27739W        W91507  42.489  32.575  14.941
27740W        W91508   1.783  17.644   0.933
27741W        W91509  13.815  31.444   0.897
27742W        W91510  31.131  16.567   1.218
27743W        W91511  18.166  33.076   1.805
27744W        W91512  38.000  33.097   2.403
27745W        W91513  15.241  35.541  14.838
27746W        W91514   7.691  25.671   3.283
27747W        W91515  22.583  35.864  12.386
27748W        W91516  13.754   5.355   4.122
27749W        W91517  32.034  26.960  12.964
27750W        W91518  14.282   2.823   0.307
27751W        W91519   1.778  27.527  14.950
27752W        W91520  37.579  11.629   4.633
27753W        W91521  34.528  26.542  12.926
27754W        W91522  23.984   4.340  12.537
27755W        W91523  22.538  13.797   5.142
27756W        W91524  25.966  19.198  11.030
27757W        W91525  17.699  12.310  13.313
27758W        W91526  11.838  41.302  11.510
27759W        W91527  31.107  39.533   1.862
27760W        W91528  10.871  19.271   0.334
27761W        W91529  34.508  22.524  14.494
27762W        W91530  13.303  21.709  12.828
27763W        W91531   5.717  14.272  12.832
27764W        W91532  30.035  12.684  10.599
27765W        W91533  37.989  35.873   2.690
27766W        W91534  12.746  31.417  11.403
27767W        W91535  21.070  34.864  14.315
27768W        W91536  32.917  30.953  14.423
27769W        W91537  21.688  33.983   2.247
27770W        W91538   0.884  18.121  10.507
27771W        W91539   0.953  43.813   2.409
27772W        W91540   0.488  26.459   1.927
27773W        W91541  40.308  18.142  14.304
27774W        W91542   2.376  17.692  10.601
27775W        W91543  30.468   1.338   3.319
27776W        W91544  33.874  25.982   1.754
27777W        W91545   6.214   8.182   4.254
27778W        W91546  20.717   3.319  14.030
27779W        W91547  15.607  42.033   2.344
27780W        W91548  44.397  37.453   2.310
27781W        W91549  34.402  25.607   1.839
27782W        W91550   6.763  14.319   0.801
27783W        W91551  38.496  33.090   3.717
27784W        W91552  10.147  31.498   1.445
27785W        W91553   9.299  35.383   3.698
27786W        W91554  35.453  39.922  13.388
27787W        W91555  32.932  27.692  13.466
27788W        W91556  20.146  39.364  10.451
27789W        W91557  43.305  23.166  14.772
27790W        W91558  16.703   2.272   3.374
27791W        W91559  22.121  31.508   3.674
27792W        W91560  14.229   2.272  11.457
27793W        W91561  35.075  24.682   3.356
27794W        W91562   9.151  28.505   0.881
27795W        W91563  18.172  28.177   0.753
27796W        W91564   6.691  42.843   0.455
27797W        W91565   7.722  29.559  11.376
27798W        W91566  29.598   8.183  13.356
27799W        W91567  33.111  19.586   5.796
27800W        W91568  38.338  21.749  13.955
27801W        W91569  26.968  28.655  11.381
27802W        W91570  29.984   3.461   0.878
27803W        W91571  25.034  28.670  14.346
27804W        W91572   2.745  42.008   1.875
27805W        W91573   3.778  27.585  14.322
27806W        W91574   9.374  24.551   0.305
27807W        W91575  44.305  25.187  10.538
27808W        W91576  40.991  25.043   2.705
27809W        W91577   8.180  34.119   2.299
27810W        W91578  41.366  33.524  12.026
27811W        W91579   6.719  35.856  13.035
27812W        W91580   5.831  38.335   0.783
27813W        W91581  36.362  18.233  10.960
27814W        W91582  19.107  21.242   5.261
27815W        W91583  17.197  42.856   1.847
27816W        W91584  27.110   8.726   1.743
27817W        W91585  11.348  38.333  10.409
27818W        W91586  19.612  15.672  10.510
27819W        W91587  33.032  27.944  14.933
27820W        W91588  39.913   6.416  13.473
27821W        W91589  42.456  24.584   0.290
27822W        W91590  40.978   9.289  12.398
27823W        W91591  24.195  24.032   2.688
27824W        W91592   5.418  42.473  13.861
27825W        W91593   6.315  31.594  12.524
27826W        W91594  36.039  21.110  12.489
27827W        W91595  34.570  19.121   2.374
27828W        W91596  14.829   6.202   1.221
27829W        W91597   9.682  28.964  14.901
27830W        W91598  37.958  20.661   3.810
27831W        W91599   2.956  23.078  12.994
27832W        W91600  29.012  28.603  14.374
27833W        W91601  39.061  25.550  13.859
27834W        W91602   7.328   3.224  14.905
27835W        W91603  18.070  37.848   4.646
27836W        W91604  13.121  24.482   2.858
27837W        W91605   7.760  18.771   4.614
27838W        W91606  33.054  34.994   4.273
27839W        W91607  43.422  37.580  10.563
27840W        W91608  36.977  28.672   3.783
27841W        W91609  35.920  14.801   1.887
27842W        W91610  40.349  17.718  13.470
27843W        W91611   2.923  36.049   0.410
27844W        W91612  13.605  33.925  10.574
27845W        W91613   4.850  21.185  14.951
27846W        W91614  31.077  24.174  12.893
27847W        W91615   1.261   8.333  14.806
27848W        W91616   0.821  12.824   3.191
27849W        W91617  38.392  12.232   2.311
27850W        W91618  20.637  12.292   1.871
27851W        W91619  15.650   1.861   4.172
27852W        W91620   5.739  17.692   1.278
27853W        W91621  38.891   6.354  13.898
27854W        W91622  20.688  12.160  13.443
27855W        W91623  40.337  25.105   2.343
27856W        W91624  17.081  30.591  11.948
27857W        W91625  29.029  32.516   2.184
27858W        W91626   8.681   9.762   1.406
27859W        W91627  35.102   0.480   0.408
27860W        W91628  38.509  12.781  11.117
27861W        W91629  22.016   9.338   3.672
27862W        W91630  40.983  23.087  14.873
27863W        W91631  16.240   8.168   4.737
27864W        W91632   6.340  44.339   3.644
27865W        W91633  38.835   5.225   0.867
27866W        W91634  23.690  32.049  10.985
27867W        W91635  24.128  26.109   2.716
27868W        W91636   3.715  41.817  14.874
27869W        W91637  20.125  28.018  12.373
27870W        W91638  16.742  42.428  10.409
27871W        W91639  11.296  10.816  11.504
27872W        W91640  33.880  22.214  13.971
27873W        W91641  10.750  28.505  13.527
27874W        W91642  13.795   4.824   1.357
27875W        W91643   2.832  10.286  12.385
27876W        W91644  11.637   8.837   5.180
27877W        W91645  17.193  29.136   1.440
27878W        W91646  30.644  42.408  14.297
27879W        W91647  18.698  26.576   0.853
27880W        W91648  27.568  29.958  11.857
27881W        W91649   6.196  23.495   3.283
27882W        W91650  33.543   2.749   0.477
27883W        W91651  35.043  17.782   2.813
27884W        W91652  20.184   7.813  11.438
27885W        W91653  29.995  30.972  11.010
27886W        W91654  44.802  31.539  14.987
27887W        W91655  20.719  24.978   1.880
27888W        W91656  34.889  38.392   0.343
27889W        W91657   4.334   8.770   2.240
27890W        W91658  11.309   0.878   0.381
27891W        W91659  18.111  17.265   1.764
27892W        W91660  39.037   2.329  12.823
27893W        W91661   6.419  43.274   4.814
27894W        W91662  28.110  12.734  14.963
27895W        W91663  42.967  15.289   0.346
27896W        W91664   0.368   4.925   1.422
27897W        W91665   7.894  20.139  14.878
27898W        W91666  33.485   3.460  13.411
27899W        W91667   5.274  25.988   1.788
27900W        W91668  10.193  22.226  11.532
27901W        W91669   8.273  28.670   3.778
27902W        W91670  24.484  18.640   4.707
27903W        W91671   4.253  20.234   3.830
27904W        W91672  13.840  37.926  12.448
27905W        W91673  20.597  15.687   0.775
27906W        W91674  33.931  15.578   5.174
27907W        W91675  11.828  24.102  12.464
27908W        W91676   6.772  28.101   3.750
27909W        W91677   1.456  24.217   2.217
27910W        W91678  21.153  25.683   4.337
27911W        W91679  36.917  29.108  11.956
27912W        W91680  36.842  27.453   4.206
27913W        W91681  22.579  26.995  11.068
27914W        W91682  11.649  26.546  10.478
27915W        W91683  22.629  18.628   2.236
27916W        W91684  31.562  17.119  14.760
27917W        W91685  11.726  17.581  13.409
27918W        W91686  16.072  16.272  11.064
27919W        W91687   6.420  24.139   3.186
27920W        W91688  41.999  31.052   1.893
27921W        W91689  33.095  39.462  11.583
27922W        W91690  39.995   3.411   0.247
27923W        W91691  25.050   6.242  11.935
27924W        W91692  27.012   1.292  12.958
27925W        W91693  22.636  43.829   4.615
27926W        W91694  10.850   8.217   4.782
27927W        W91695  20.219  35.583  13.456
27928W        W91696  15.653  35.073   3.304
27929W        W91697  38.444   4.873  11.106
27930W        W91698  15.222  21.738  14.350
27931W        W91699  16.592  30.086  12.837
27932W        W91700  28.049  32.392   3.684
27933W        W91701  34.482   1.915  12.931
27934W        W91702  12.311  30.534   1.882
27935W        W91703  14.816  17.770   2.293
27936W        W91704   7.826  35.040  11.942
27937W        W91705   3.843   6.917   1.430
27938W        W91706  12.812  43.485   3.330
27939W        W91707  39.508   1.324  14.872
27940W        W91708  31.985   3.856  13.507
27941W        W91709   8.230  40.417  14.925
27942W        W91710   1.416  37.386   2.881
27943W        W91711  18.766  27.968  10.049
27944W        W91712  30.947   4.419  10.934
27945W        W91713  13.349  43.485  11.123
27946W        W91714  25.548  25.532  14.464
27947W        W91715   0.315   1.432  11.401
27948W        W91716  20.600  30.446   3.766
27949W        W91717   1.245  20.713   4.226
27950W        W91718  37.061  22.217  13.482
27951W        W91719   7.247  14.106   3.800
27952W        W91720   4.806   1.902  11.899
27953W        W91721   3.284  16.694  13.371
27954W        W91722  22.716   6.254   4.620
27955W        W91723  12.307  35.102  14.833
27956W        W91724  26.014  17.068   2.837
27957W        W91725  31.597  42.786  14.290
27958W        W91726  32.028  31.019   1.365
27959W        W91727  33.042  10.299   2.299
27960W        W91728  27.567  43.794  11.599
27961W        W91729  23.613  22.683   2.341
27962W        W91730  17.137  41.398   0.830
27963W        W91731  16.679  26.106   0.799
27964W        W91732  31.602  38.900   1.715
27965W        W91733  41.963   3.241  14.805
27966W        W91734  24.629   0.861   4.750
27967W        W91735  19.111  35.089   1.285
27968W        W91736  21.660   6.276  12.385
27969W        W91737  35.003  34.995   1.920
27970W        W91738  34.540  31.103   1.360
27971W        W91739  25.687  39.061   5.163
27972W        W91740  29.634  43.924  14.460
27973W        W91741  22.188  14.097  12.417
27974W        W91742  37.392  16.109   1.450
27975W        W91743  16.101  38.037  12.372
27976W        W91744  16.144  22.149  13.023
27977W        W91745  42.858   3.908   3.711
27978W        W91746   5.899  40.429   2.691
27979W        W91747  15.636  18.664   9.953
27980W        W91748   8.771  12.752  11.981
27981W        W91749  13.270   6.859   1.913
27982W        W91750  11.358  43.453   0.821
27983W        W91751  33.988  16.679  12.924
27984W        W91752  39.552   7.211  12.017
27985W        W91753  28.578  17.152   4.684
27986W        W91754  25.042  34.996   2.854
27987W        W91755  41.535   7.285  12.887
27988W        W91756   9.843  25.520  14.495
27989W        W91757  11.860  15.264  11.083
27990W        W91758  33.963   5.382  14.427
27991W        W91759  21.031  32.116  11.103
27992W        W91760  10.733  38.559   3.637
27993W        W91761  16.295  24.221  11.543
27994W        W91762  15.789  20.711  11.046
27995W        W91763  31.034  22.156  13.868
27996W        W91764  10.792  30.482  11.122
27997W        W91765  17.797  25.059   1.211
27998W        W91766  42.977  26.161  12.419
27999W        W91767  22.207  24.627   3.836
28000W        W91768   0.936  35.040  12.989
28001W        W91769  31.555  10.284  12.518
28002W        W91770  17.158  22.187  14.857
28003W        W91771  17.656   0.820  11.091
28004W        W91772  35.477   3.930  10.936
28005W        W91773  28.945  24.043   3.358
28006W        W91774  44.914  14.169  12.434
28007W        W91775   1.768   9.336  10.548
28008W        W91776  16.678   0.884  11.898
28009W        W91777  38.895  40.416  12.037
28010W        W91778  34.523  40.034   1.345
28011W        W91779  37.394   8.889  11.534
28012W        W91780  17.654   9.845  13.046
28013W        W91781   7.894  42.010  12.095
28014W        W91782  33.409  30.017   3.862
28015W        W91783  42.375   2.763   1.334
28016W        W91784  25.619   9.766   4.598
28017W        W91785  21.137  17.612   0.818
28018W        W91786   1.303   4.363   2.344
28019W        W91787   8.355  13.774  11.414
28020W        W91788  44.462   1.932   1.424
28021W        W91789  37.836  15.141  14.504
28022W        W91790  38.051  15.227  12.945
28023W        W91791  10.306  24.599  12.096
28024W        W91792  10.820  23.232  12.413
28025W        W91793   6.853  31.933   3.833
28026W        W91794  34.409  14.169   0.945
28027W        W91795  22.045  33.967   0.747
28028W        W91796  33.604  24.619  12.393
28029W        W91797  30.989  38.363   3.297
28030W        W91798   1.386  31.108   1.323
28031W        W91799  35.589  19.557   2.246
28032W        W91800  12.827  32.134   0.868
28033W        W91801   4.742   1.243  10.068
28034W        W91802   2.752   5.261   0.774
28035W        W91803  11.785   2.779   2.392
28036W        W91804  33.988  37.845  12.931
28037W        W91805  23.560   8.378   1.318
28038W        W91806   7.210  37.389  11.882
28039W        W91807  35.478  42.426   4.635
28040W        W91808  44.413  31.406  14.029
28041W        W91809  36.442  19.047  12.412
28042W        W91810  32.598   8.883  12.491
28043W        W91811  41.786  28.543   3.742
28044W        W91812  12.764  29.165  14.845
28045W        W91813  21.754  12.824   4.705
28046W        W91814  14.699  39.506   2.717
28047W        W91815   4.910  42.839   9.978
28048W        W91816  12.202  22.537   0.315
28049W        W91817   4.410  32.541  12.834
28050W        W91818  14.197  18.133  10.106
28051W        W91819  23.718  29.443  13.866
28052W        W91820  28.058   2.807   5.233
28053W        W91821  19.762  38.913  13.414
28054W        W91822  16.577  44.909  11.386
28055W        W91823  13.229   7.781  12.429
28056W        W91824  34.494  21.535   4.299
28057W        W91825   4.274   5.289   3.377
28058W        W91826  24.594  26.513   4.658
28059W        W91827  44.759  35.366  11.372
28060W        W91828   7.863  25.628  12.473
28061W        W91829  27.605  26.116  11.001
28062W        W91830   9.386  22.602  12.462
28063W        W91831  17.109  40.004   4.705
28064W        W91832   1.424  34.967   4.343
28065W        W91833   0.852   6.757  14.866
28066W        W91834  28.571  41.350   1.235
28067W        W91835  10.360  12.122  13.019
28068W        W91836  16.098  42.876   0.776
28069W        W91837  39.834  29.129  11.119
28070W        W91838  39.818   6.364   1.259
28071W        W91839  25.714  38.358   3.829
28072W        W91840  14.211  22.563   1.326
28073W        W91841  31.934  22.713   0.922
28074W        W91842  28.447   0.964   1.273
28075W        W91843  15.586  34.943   0.810
28076W        W91844   9.324  24.488  13.008
28077W        W91845  21.538  11.765  10.548
28078W        W91846  32.503  12.771  12.088
28079W        W91847   2.376  16.670   1.330
28080W        W91848   9.689  21.629  14.815
28081W        W91849  19.146  27.022   4.179
28082W        W91850   3.365  11.233   2.868
28083W        W91851  11.330  14.760   3.654
28084W        W91852  36.061  35.503  14.290
28085W        W91853   6.691  33.464  13.824
28086W        W91854  16.680  30.113   0.356
28087W        W91855  38.890   6.831   0.466
28088W        W91856  26.983  38.837  14.930
28089W        W91857  10.308  39.508  11.113
28090W        W91858  11.176   5.384   4.681
28091W        W91859  25.002  14.774   3.188
28092W        W91860   2.818   2.747  10.631
28093W        W91861   2.379  26.058  13.489
28094W        W91862  25.046  12.301  11.487
28095W        W91863  12.316  43.842  13.004
28096W        W91864   1.957  40.913  11.418
28097W        W91865  16.751  27.510   3.384
28098W        W91866  39.013  17.139   0.911
28099W        W91867   8.276  13.165  13.834
28100W        W91868  43.492   0.886   4.222
28101W        W91869  36.870  19.561   4.661
28102W        W91870  13.719   3.383  11.992
28103W        W91871  26.079  39.373  14.380
28104W        W91872   7.252  33.491   3.268
28105W        W91873  27.609  26.512  13.033
28106W        W91874  25.483  40.985  10.492
28107W        W91875  20.253  27.484   4.838
28108W        W91876  25.525   5.780   1.273
28109W        W91877  28.026   6.358  12.447
28110W        W91878  11.128   6.295   4.260
28111W        W91879  22.570  35.986   0.906
28112W        W91880  17.758  22.168  12.862
28113W        W91881  43.863  27.505   3.729
28114W        W91882  35.981   9.801  14.456
28115W        W91883  13.136  17.136   3.791
28116W        W91884   1.350   4.401  12.087
28117W        W91885  44.826   1.792   4.818
28118W        W91886   5.930   2.338   2.712
28119W        W91887  15.248   8.394   2.868
28120W        W91888  39.846  37.531   0.911
28121W        W91889  12.674  24.644  14.952
28122W        W91890  33.111  11.359  12.832
28123W        W91891  44.307  32.130   3.640
28124W        W91892   7.707  16.811  12.407
28125W        W91893  30.134  40.916  14.991
28126W        W91894  43.345  28.116   2.723
28127W        W91895  32.905   7.405  11.967
28128W        W91896  31.565  23.232   1.231
28129W        W91897  24.201   1.436  12.396
28130W        W91898  25.651   4.219   4.308
28131W        W91899  39.488  14.707   4.191
28132W        W91900   9.225  17.730   2.329
28133W        W91901  13.828   8.319  13.330
28134W        W91902   8.326  44.805   4.289
28135W        W91903   9.269  32.483   0.883
28136W        W91904  36.592  23.537   1.351
28137W        W91905  28.680  34.878   3.649
28138W        W91906  37.831   4.445   2.346
28139W        W91907  33.996  16.250   0.311
28140W        W91908  22.240  41.972   1.732
28141W        W91909  24.548   1.881  12.549
28142W        W91910   3.458  22.605   0.801
28143W        W91911  24.503  42.298   3.387
28144W        W91912  22.062  28.519   2.663
28145W        W91913  21.222   2.929   3.163
28146W        W91914  37.424  33.479  10.486
28147W        W91915  28.128  44.980  12.478
28148W        W91916   1.808  38.070  13.032
28149W        W91917  38.525  24.224  13.348
28150W        W91918  18.208  39.430   0.397
28151W        W91919  29.037   8.195   3.636
28152W        W91920   1.365  23.560  10.912
28153W        W91921  40.925  30.916  11.948
28154W        W91922  23.037   3.266  11.972
28155W        W91923  22.212  26.994  13.913
28156W        W91924  14.285  32.603   3.372
28157W        W91925   1.976  34.561  11.384
28158W        W91926   3.357  13.106   3.357
28159W        W91927   4.777  13.315   0.915
28160W        W91928  18.273  21.170  11.097
28161W        W91929  38.495  14.315   2.697
28162W        W91930  26.515  21.210  11.109
28163W        W91931  38.442   0.973  10.539
28164W        W91932  13.753  16.216  12.894
28165W        W91933  13.738  27.684   2.761
28166W        W91934  18.059  44.462  11.981
28167W        W91935  16.744   9.208  11.098
28168W        W91936  20.194  34.422  12.019
28169W        W91937  36.511  14.117   1.277
28170W        W91938  24.677  11.273  10.935
28171W        W91939  37.982   5.304   2.348
28172W        W91940   0.896  29.147   0.376
28173W        W91941   8.880  21.639   1.747
28174W        W91942   1.338  14.798   4.648
28175W        W91943   0.863  38.545   4.158
28176W        W91944  20.084   3.455  11.892
28177W        W91945  24.634  19.175   1.319
28178W        W91946  37.418   1.384  10.544
28179W        W91947  19.592  17.582   3.147
28180W        W91948  36.591  18.160   9.929
28181W        W91949  18.097   0.442  12.404
28182W        W91950  25.635  11.696   2.874
28183W        W91951  16.224   8.220   3.151
28184W        W91952  42.923  28.652  13.537
28185W        W91953  27.076  27.148  14.782
28186W        W91954   0.961  37.398  10.428
28187W        W91955  37.087  34.099  10.510
28188W        W91956   3.277   1.847  11.035
28189W        W91957  26.664   8.733  10.409
28190W        W91958  25.019  35.525   2.234
28191W        W91959  18.637   6.273   2.218
28192W        W91960  43.278  32.988  10.934
28193W        W91961  39.051  39.397   0.733
28194W        W91962   6.704  43.911   3.653
28195W        W91963   9.152   3.865   2.363
28196W        W91964  21.707  22.557  10.900
28197W        W91965  36.074  18.724   2.857
28198W        W91966  39.414   6.815   2.673
28199W        W91967  34.016  34.894  10.507
28200W        W91968  12.339   1.973   0.915
28201W        W91969  33.882   5.415   2.266
28202W        W91970  34.600  25.174  14.796
28203W        W91971   9.643  44.423  10.454
28204W        W91972   8.295  38.972   1.294
28205W        W91973  21.021  40.862   4.186
28206W        W91974   8.748  31.484   4.329
28207W        W91975  21.523  21.230  10.598
28208W        W91976  28.542  19.252  14.759
28209W        W91977  30.576  10.750   2.382
28210W        W91978   3.735  42.848   4.766
28211W        W91979  26.963  37.050   3.386
28212W        W91980  16.791  37.369  13.403
28213W        W91981  17.738   0.958  12.973
28214W        W91982  24.592   7.732   0.776
28215W        W91983  10.155  15.214   0.417
28216W        W91984  14.732  14.816   3.340
28217W        W91985  25.210  31.630   4.296
28218W        W91986  10.139  39.483   3.807
28219W        W91987  29.537  12.828   3.870
28220W        W91988  24.652   5.892  10.465
28221W        W91989  24.132  37.947   4.126
28222W        W91990   3.221  36.064  12.083
28223W        W91991  23.503   6.408   3.748
28224W        W91992  32.401   9.324  14.366
28225W        W91993  42.908  29.005   2.268
28226W        W91994   3.424  31.065   3.335
28227W        W91995  36.882  27.579   1.860
28228W        W91996  13.336  20.086  11.094
28229W        W91997  10.740  23.987   0.442
28230W        W91998  39.839  14.669   0.244
28231W        W91999  16.127  10.781   2.304
28232W        W92000  22.200   3.398   4.686
28233W        W92001  16.110   2.914   2.722
28234W        W92002  13.709  15.737   0.884
28235W        W92003   6.229  15.771  13.836
28236W        W92004  28.025  23.591   1.269
28237W        W92005  17.148  17.199  11.571
28238W        W92006  32.446  22.120   4.804
28239W        W92007  13.625   5.700   2.340
28240W        W92008  32.110  41.893  12.049
28241W        W92009   3.898  26.676   2.821
28242W        W92010   1.379   5.196   1.414
28243W        W92011  31.511  34.586   4.615
28244W        W92012  19.180  25.584  10.077
28245W        W92013  11.314  26.181  11.481
28246W        W92014   4.223  14.829   0.886
28247W        W92015  18.248  34.556   4.647
28248W        W92016  31.568  10.286  14.870
28249W        W92017  32.533   5.338  13.959
28250W        W92018  19.599  31.139   3.352
28251W        W92019  10.174  25.525  13.443
28252W        W92020  38.923  19.665   2.819
28253W        W92021  20.231  35.878   2.669
28254W        W92022  21.017   3.246  11.445
28255W        W92023  42.871  44.467   0.381
28256W        W92024  33.560  28.523  11.420
28257W        W92025  27.662  36.988  12.382
28258W        W92026  39.440  18.138  11.104
28259W        W92027  16.264   4.399   1.760
28260W        W92028   6.428  34.425  14.901
28261W        W92029  22.560  30.957  13.527
28262W        W92030   6.286   0.957  10.641
28263W        W92031   7.328  42.902  13.351
28264W        W92032  37.397  14.637   0.473
28265W        W92033  14.280  10.149   0.786
28266W        W92034  35.108  23.012   0.290
28267W        W92035  38.403  42.982  11.515
28268W        W92036   9.238   1.855  10.511
28269W        W92037   4.904  40.349  11.495
28270W        W92038  23.538  11.653   0.768
28271W        W92039  44.005  27.131  10.562
28272W        W92040  25.498  20.741   1.362
28273W        W92041  25.043  31.924  13.829
28274W        W92042  11.210  44.829   2.678
28275W        W92043  15.678  32.902  11.983
28276W        W92044   6.769  10.322   4.224
28277W        W92045  27.676  11.335  13.382
28278W        W92046  12.788   4.788  11.535
28279W        W92047  34.529  41.995  12.049
28280W        W92048  40.516  40.432  13.487
28281W        W92049  41.958  13.265  11.089
28282W        W92050  25.978  33.126  12.551
28283W        W92051  28.598  34.972  12.985
28284W        W92052  37.546  33.066  12.428
28285W        W92053  22.651   4.390  12.858
28286W        W92054  11.333  25.107   2.710
28287W        W92055   8.850  23.037  11.595
28288W        W92056  12.245   4.241   0.349
28289W        W92057   0.929   6.791   4.252
28290W        W92058  44.307  11.714  14.832
28291W        W92059   4.408  31.532   4.260
28292W        W92060  10.283  18.285   3.269
28293W        W92061  16.303  14.195   3.657
28294W        W92062  24.103  23.672  12.839
28295W        W92063  15.143  37.874  12.930
28296W        W92064  17.218  37.499  14.769
28297W        W92065  26.146  35.592   0.923
28298W        W92066  29.020  26.064  11.951
28299W        W92067  25.083  44.980   3.378
28300W        W92068  27.681  37.925  11.438
28301W        W92069  25.203   7.360   0.964
28302W        W92070  34.389  10.725   4.645
28303W        W92071  34.409  15.811  14.404
28304W        W92072  30.132  23.638  14.292
28305W        W92073  42.788  25.137  12.990
28306W        W92074  15.324  39.935   1.890
28307W        W92075  26.011  24.079   1.214
28308W        W92076   0.786  42.366  12.866
28309W        W92077  42.865  42.286  12.442
28310W        W92078  17.270   8.782  11.944
28311W        W92079  37.427  36.906   2.337
28312W        W92080   0.929  43.002  11.884
28313W        W92081  37.067  40.809  11.406
28314W        W92082  22.180  24.043  13.379
28315W        W92083   4.431  14.150  12.563
28316W        W92084  16.097   2.750  12.507
28317W        W92085  33.389   6.422  13.405
28318W        W92086  40.505  26.139  13.936
28319W        W92087  33.623  42.959  12.897
28320W        W92088   4.707  28.183   4.244
28321W        W92089  11.149  12.340  14.851
28322W        W92090  14.719   4.414  12.446
28323W        W92091  18.246  37.830   1.803
28324W        W92092  23.693  36.093  11.918
28325W        W92093  30.971  14.122  11.917
28326W        W92094   9.801   3.460  14.459
28327W        W92095   6.240  42.457   2.410
28328W        W92096  14.690  40.463   2.353
28329W        W92097   0.297  39.947   3.155
28330W        W92098  36.969   6.352  10.602
28331W        W92099  23.060  35.500  10.451
28332W        W92100  10.199  16.173   1.896
28333W        W92101  42.402   9.864  14.426
28334W        W92102  21.120  23.726   2.227
28335W        W92103  19.093   2.366  13.527
28336W        W92104   2.463   6.898   1.316
28337W        W92105  37.487   0.861  13.398
28338W        W92106   0.823  17.571  11.117
28339W        W92107  36.370  42.459  11.403
28340W        W92108   0.831  20.262  11.005
28341W        W92109   2.301  42.904   1.388
28342W        W92110  29.133  38.046  11.111
28343W        W92111  15.241   4.854  12.007
28344W        W92112   6.312  31.574  11.023
28345W        W92113  40.843  32.496   4.721
28346W        W92114  17.629  39.958   4.742
28347W        W92115   0.360   2.765   2.284
28348W        W92116  34.548   6.863   3.203
28349W        W92117  36.429  38.968   3.803
28350W        W92118  42.959  32.011   0.407
28351W        W92119   3.292  25.009   2.728
28352W        W92120  22.138  27.999   3.810
28353W        W92121  36.538   1.380   4.666
28354W        W92122  31.431  11.735   2.691
28355W        W92123  17.169   4.226   2.402
28356W        W92124  18.061   7.767  12.022
28357W        W92125   1.239  27.487   0.366
28358W        W92126  19.123  38.478  13.800
28359W        W92127  28.514  32.921   0.741
28360W        W92128   5.712  29.648  11.080
28361W        W92129   5.335  13.182   4.730
28362W        W92130  22.566   5.863  12.889
28363W        W92131   2.963  18.621   3.148
28364W        W92132  43.860  13.218  10.982
28365W        W92133  31.444   6.711   1.323
28366W        W92134  16.708  23.022   5.083
28367W        W92135  40.859  19.274  14.895
28368W        W92136  12.824  19.115  13.415
28369W        W92137  36.434  26.979  11.863
28370W        W92138  29.427  38.996  11.594
28371W        W92139  19.698  22.123  13.318
28372W        W92140  39.966  14.677   4.336
28373W        W92141   2.369  38.961  12.066
28374W        W92142   7.679  31.108  13.540
28375W        W92143  12.701   7.385  14.337
28376W        W92144  14.668  35.405  14.337
28377W        W92145  32.004  20.272   2.235
28378W        W92146  34.606   2.445   0.783
28379W        W92147  27.512  14.731   0.429
28380W        W92148  34.891  44.797   4.810
28381W        W92149  24.609  25.471  11.895
28382W        W92150  34.878  24.093   3.235
28383W        W92151  34.614  24.160  11.963
28384W        W92152  41.886  43.348   1.864
28385W        W92153  10.308  18.780  14.913
28386W        W92154  23.514  21.030   0.832
28387W        W92155  19.132  14.739   1.927
28388W        W92156  22.076   0.313  12.348
28389W        W92157  24.138  24.120  14.949
28390W        W92158  30.471   8.756   4.306
28391W        W92159  44.880  38.494  12.341
28392W        W92160   1.838  29.653   0.823
28393W        W92161  24.212  32.405  11.472
28394W        W92162  19.769   4.798   4.814
28395W        W92163  10.711   1.813  12.421
28396W        W92164  26.460  10.879  11.553
28397W        W92165  42.821  28.619   3.228
28398W        W92166  27.640  40.464  14.331
28399W        W92167   4.251  36.084   2.394
28400W        W92168  15.103  16.258   4.601
28401W        W92169  10.865  26.641  10.921
28402W        W92170   7.254   6.782   4.152
28403W        W92171  10.152  28.076  14.292
28404W        W92172  43.401  24.025   3.170
28405W        W92173  29.479   7.261  14.469
28406W        W92174  39.533   3.935   0.776
28407W        W92175  22.587  34.436  13.406
28408W        W92176   3.709  24.048   2.703
28409W        W92177  22.085  39.393  13.524
28410W        W92178  19.585   0.374   3.197
28411W        W92179  44.366  40.902   3.292
28412W        W92180  39.054  20.542   4.608
28413W        W92181   6.281   8.746   4.162
28414W        W92182  37.841  18.724  10.625
28415W        W92183  18.605  37.059  12.894
28416W        W92184   3.393  11.197  10.935
28417W        W92185  13.241   4.314   2.257
28418W        W92186  33.015  41.909  13.906
28419W        W92187  26.043  18.081   2.376
28420W        W92188  40.026  24.160   1.912
28421W        W92189  34.611  22.621   3.744
28422W        W92190  39.839   7.261  14.290
28423W        W92191  15.592  42.362   4.317
28424W        W92192  25.064   1.321  14.478
28425W        W92193  24.619  42.931   2.356
28426W        W92194  37.369  39.418   2.897
28427W        W92195  29.431  24.166   3.707
28428W        W92196  18.667  31.576   0.728
28429W        W92197  43.976  26.701  13.909
28430W        W92198   2.926  32.095  10.556
28431W        W92199   2.366  43.501   4.281
28432W        W92200  27.998  27.597   0.859
28433W        W92201  13.658  20.692   4.634
28434W        W92202   2.277  21.704  10.926
28435W        W92203  30.512  16.098   1.299
28436W        W92204  31.508  30.625  10.915
28437W        W92205  15.703  15.275  14.406
28438W        W92206   0.326   9.214   3.847
28439W        W92207  22.526  30.068   3.246
28440W        W92208  35.548  24.190   2.740
28441W        W92209  14.716  40.975  11.613
28442W        W92210   3.292  25.665  13.308
28443W        W92211  42.394  16.769  14.381
28444W        W92212   6.736  36.968  14.886
28445W        W92213  43.790  29.628  12.407
28446W        W92214  44.894   9.709   2.753
28447W        W92215  16.612  30.597  11.551
28448W        W92216  38.387  30.542   1.855
28449W        W92217  19.673  16.773  11.054
28450W        W92218  15.302  16.590  14.373
28451W        W92219  28.178  31.133   3.853
28452W        W92220  30.472   1.963  12.076
28453W        W92221  32.086  10.305   3.267
28454W        W92222  41.292  40.863   4.769
28455W        W92223   9.332  31.431  14.335
28456W        W92224  19.575  42.506   0.380
28457W        W92225  44.386  28.055   0.370
28458W        W92226  13.651  39.995  14.982
28459W        W92227  44.795   5.206  12.970
28460W        W92228  25.988  21.126   1.733
28461W        W92229   7.797   6.330  12.496
28462W        W92230   8.312  29.167  13.343
28463W        W92231   3.791  25.059  14.397
28464W        W92232  15.279  29.982   4.174
28465W        W92233  33.877   3.438  10.587
28466W        W92234  44.323   5.299  12.920
28467W        W92235   3.762  26.103  14.950
28468W        W92236  10.158  27.457  12.054
28469W        W92237   9.176   6.888  14.802
28470W        W92238  28.045  24.561   0.925
28471W        W92239  31.148  16.091  14.891
28472W        W92240  38.820  15.709  13.014
28473W        W92241   3.459  19.205   2.748
28474W        W92242  14.672  16.246  14.304
28475W        W92243  42.823  43.367   2.775
28476W        W92244  13.838   1.908  13.061
28477W        W92245   6.916  13.696   3.629
28478W        W92246   2.308  40.006   4.728
28479W        W92247  27.166  30.641   2.731
28480W        W92248  35.000   9.230   2.869
28481W        W92249  10.738  11.629   1.306
28482W        W92250   7.223  40.511  11.108
28483W        W92251  30.076  32.005   2.267
28484W        W92252  37.464  28.051  11.859
28485W        W92253  25.199  41.037  10.905
28486W        W92254  41.894  28.164  14.911
28487W        W92255  19.680   4.867  13.341
28488W        W92256  30.979  33.037   3.299
28489W        W92257  14.634   7.355   3.327
28490W        W92258  27.173   8.170  14.992
28491W        W92259  13.281  19.722   1.886
28492W        W92260  31.089   3.235   2.337
28493W        W92261  22.246   0.412   2.194
28494W        W92262  16.770  21.680   5.255
28495W        W92263  10.192  40.450  11.610
28496W        W92264  12.289  10.278   2.335
28497W        W92265  42.296  20.702   0.762
28498W        W92266  44.865  39.433   1.922
28499W        W92267  17.637   4.226   3.191
28500W        W92268  40.823  13.132   0.845
28501W        W92269  13.603  20.210  14.347
28502W        W92270  22.141   6.740   0.383
28503W        W92271  11.657   5.908  11.543
28504W        W92272  29.501  39.427  14.381
28505W        W92273  37.832  39.976  12.488
28506W        W92274   3.736  20.090   2.204
28507W        W92275  41.323  39.526  11.593
28508W        W92276  13.669  37.065  10.630
28509W        W92277  31.477  39.987  14.900
28510W        W92278  28.065  29.499   5.145
28511W        W92279  28.158   7.725   3.796
28512W        W92280  35.457  27.174   2.890
28513W        W92281  20.689  39.359  13.375
28514W        W92282  30.533   3.792   1.269
28515W        W92283  29.036   9.735   1.774
28516W        W92284  13.273  24.545   1.359
28517W        W92285  36.969  25.625   4.604
28518W        W92286  43.861  42.848   0.446
28519W        W92287  30.143  40.443  11.912
28520W        W92288  23.531   3.889  14.762
28521W        W92289  11.780  42.786   0.263
28522W        W92290  10.269  43.510  14.762
28523W        W92291  22.737  26.028   0.291
28524W        W92292  30.434  31.481   1.749
28525W        W92293  40.823  29.918  13.950
28526W        W92294   9.319  38.571  11.082
28527W        W92295   0.255  30.565  13.331
28528W        W92296  18.654   5.388  11.456
28529W        W92297  44.935   6.886   4.192
28530W        W92298  39.899   4.906  14.968
28531W        W92299  37.501  22.586  13.959
28532W        W92300  16.650  31.530   0.247
28533W        W92301   1.908   0.874  10.540
28534W        W92302   7.219  39.452   4.122
28535W        W92303  24.216  34.071   2.414
28536W        W92304  39.909   4.904   0.413
28537W        W92305  40.546  26.684  11.121
28538W        W92306  20.740   0.446   4.748
28539W        W92307   8.318   2.241   2.228
28540W        W92308   5.306   9.387   2.325
28541W        W92309  41.352  32.074  14.913
28542W        W92310   1.831   0.912  14.406
28543W        W92311  29.037  18.546  12.921
28544W        W92312  11.259  32.519  10.471
28545W        W92313  28.569  17.080  11.399
28546W        W92314   8.318  11.629   4.243
28547W        W92315  10.676  36.489  14.767
28548W        W92316  37.383  32.891   0.787
28549W        W92317  30.085  32.977  11.991
28550W        W92318   6.780   9.800   3.804
28551W        W92319   0.324  16.145   4.185
28552W        W92320   8.343   7.280   4.657
28553W        W92321  31.098  29.481   0.813
28554W        W92322  37.880  22.242  13.916
28555W        W92323   8.801  16.652  12.536
28556W        W92324   0.872  31.504   3.763
28557W        W92325   9.295  27.649   4.185
28558W        W92326   8.869  44.479   1.927
28559W        W92327  10.227  10.676   2.723
28560W        W92328  23.621  15.695  14.002
28561W        W92329  15.607   1.420  14.763
28562W        W92330  23.227  23.504   4.664
28563W        W92331  15.089  26.965   0.349
28564W        W92332  34.910  26.477  14.894
28565W        W92333  27.047  20.656  14.833
28566W        W92334   0.263  34.919   0.821
28567W        W92335  12.622  41.991  10.954
28568W        W92336  23.992  30.524  11.909
28569W        W92337  40.372   0.926  10.086
28570W        W92338  19.581  34.974   2.289
28571W        W92339   3.279  34.598  10.636
28572W        W92340  38.833  34.377   3.216
28573W        W92341  27.014  41.427   2.375
28574W        W92342   2.422  14.251   1.743
28575W        W92343  22.158  29.644  11.433
28576W        W92344  24.080  24.680  11.925
28577W        W92345  35.038  24.103   0.901
28578W        W92346  37.999  28.120   0.728
28579W        W92347  44.921   3.941  13.336
28580W        W92348   9.874   7.803   3.674
28581W        W92349  33.425   1.791  14.506
28582W        W92350   2.359  12.724   2.832
28583W        W92351   8.287  44.419  12.534
28584W        W92352  25.680  28.624  13.041
28585W        W92353  26.029  28.613   4.171
28586W        W92354  22.246  31.632   1.312
28587W        W92355  28.654  43.373  11.442
28588W        W92356   0.875  12.322  13.410
28589W        W92357   0.894   2.724   2.748
28590W        W92358  40.824  15.291   2.371
28591W        W92359  32.489  21.754  10.626
28592W        W92360  41.886  34.091   0.288
28593W        W92361  19.586  34.053  13.353
28594W        W92362   2.275  42.018   0.452
28595W        W92363  10.364  10.364   4.801
28596W        W92364  44.473  16.568  10.552
28597W        W92365  25.096  14.752  10.580
28598W        W92366  40.450  34.079   4.747
28599W        W92367  17.235  24.025  10.923
28600W        W92368   4.407  37.872  12.062
28601W        W92369  24.174  28.064   3.737
28602W        W92370   9.156  34.419  11.914
28603W        W92371  21.687  18.655   1.346
28604W        W92372  44.813  34.050   4.130
28605W        W92373   2.821  24.489  12.433
28606W        W92374   1.330  20.103  13.992
28607W        W92375  14.749   0.318  12.991
28608W        W92376  15.298  14.630   2.345
28609W        W92377  22.679  26.990   0.876
28610W        W92378  33.590   7.413   4.146
28611W        W92379   9.329  15.168   0.368
28612W        W92380  28.073  22.027  10.443
28613W        W92381  24.608  16.735  12.053
28614W        W92382  12.683   7.848  11.454
28615W        W92383   8.880  11.700  10.598
28616W        W92384  30.440   7.810  12.472
28617W        W92385  39.325  35.388  11.006
28618W        W92386  37.983  14.189   2.718
28619W        W92387  31.139  37.554   3.348
28620W        W92388  29.535  21.619  10.932
28621W        W92389  20.092  18.721   3.741
28622W        W92390  25.000  39.444   3.278
28623W        W92391  41.474  13.603   1.900
28624W        W92392  43.346   2.766   0.790
28625W        W92393  25.637  23.177   2.324
28626W        W92394  43.416  24.180  11.597
28627W        W92395  30.150  34.601  14.302
28628W        W92396   7.276  15.273   0.776
28629W        W92397  23.638  28.501   4.826
28630W        W92398  23.655   1.373  12.886
28631W        W92399  25.489  29.554   3.303
28632W        W92400  28.057  14.753  13.388
28633W        W92401  36.859  14.142   0.787
28634W        W92402  24.110  32.005   4.733
28635W        W92403  39.819  27.957  12.890
28636W        W92404  22.169  13.708   3.642
28637W        W92405  13.783   6.216   4.342
28638W        W92406  30.592  29.542   1.708
28639W        W92407  39.828  19.048   4.622
28640W        W92408  36.914  27.594  14.440
28641W        W92409  13.128  26.492   3.660
28642W        W92410  41.977  36.560  11.572
28643W        W92411  35.432   4.437  13.546
28644W        W92412  35.464  31.642  12.093
28645W        W92413  16.199  13.665   3.266
28646W        W92414  16.191  42.968   1.431
28647W        W92415  15.303   2.872  12.571
28648W        W92416  40.478   4.886  11.404
28649W        W92417   9.663  19.139  12.934
28650W        W92418  16.305   1.883  10.426
28651W        W92419  12.681  11.844   2.752
28652W        W92420  21.536  10.171  12.428
28653W        W92421  27.685   4.876  11.892
28654W        W92422  36.530   7.293  14.776
28655W        W92423  19.543  33.482   3.369
28656W        W92424  20.533  30.636   0.883
28657W        W92425  21.534  15.290  12.429
28658W        W92426  41.311  13.235  13.508
28659W        W92427  14.229   1.350  12.558
28660W        W92428  14.160  43.334  11.951
28661W        W92429  39.495  27.149  10.947
28662W        W92430  40.990  43.891  12.414
28663W        W92431  42.317  14.208   1.303
28664W        W92432  23.189  22.204  14.029
28665W        W92433   0.774  29.120   5.235
28666W        W92434   8.186  31.467   2.895
28667W        W92435  25.496  44.984  10.893
28668W        W92436   5.889  10.804  12.832
28669W        W92437  22.031  38.355  10.544
28670W        W92438  14.622  44.978   1.858
28671W        W92439  18.616  26.598   2.780
28672W        W92440  41.862   7.843   2.404
28673W        W92441  28.050  30.620   5.134
28674W        W92442   4.219  28.018   3.357
28675W        W92443   1.802  36.949  14.003
28676W        W92444  43.381  20.271  13.039
28677W        W92445  14.106  33.460  12.444
28678W        W92446  28.490   6.681  11.958
28679W        W92447  13.645  26.071  14.504
28680W        W92448  19.757  41.428   4.775
28681W        W92449  34.114  24.607  14.469
28682W        W92450   6.853   2.952  13.523
28683W        W92451  33.937  35.435  10.908
28684W        W92452  19.242  13.343   2.290
28685W        W92453  30.582  28.458  12.343
28686W        W92454  31.052  43.346  11.008
28687W        W92455  31.473   1.858  12.974
28688W        W92456  27.011  31.910  10.589
28689W        W92457   5.766  17.256   4.139
28690W        W92458   4.921  38.029   4.643
28691W        W92459  18.067  32.983  14.287
28692W        W92460  37.366   5.242   3.667
28693W        W92461   6.314   4.805  14.855
28694W        W92462  25.197   9.821  12.978
28695W        W92463   5.354   3.240  11.005
28696W        W92464  14.117  29.154   0.365
28697W        W92465  11.190  24.580  14.803
28698W        W92466  28.635  18.642   1.308
28699W        W92467  23.099  12.139   4.712
28700W        W92468   7.867  29.502  12.489
28701W        W92469   6.799  18.768  10.435
28702W        W92470  37.837   3.936  12.396
28703W        W92471  32.057  39.341  13.339
28704W        W92472  10.842  35.035  14.512
28705W        W92473  19.680  17.692  12.354
28706W        W92474  41.830  44.780   2.385
28707W        W92475  32.473  35.090  11.424
28708W        W92476   0.470  31.500   3.640
28709W        W92477   4.323  41.793  11.463
28710W        W92478  42.022  18.085   1.408
28711W        W92479  34.060   3.725   4.745
28712W        W92480  39.872   0.764  14.478
28713W        W92481  39.419  28.999  13.880
28714W        W92482  23.660  13.160  12.843
28715W        W92483  35.995  40.843   3.256
28716W        W92484  28.026  16.178  13.972
28717W        W92485  30.496  19.140  13.490
28718W        W92486   4.702  37.935  11.037
28719W        W92487  38.035  11.837   1.425
28720W        W92488  42.519  15.206  14.494
28721W        W92489  15.220  19.634   0.938
28722W        W92490  23.520  32.568   2.398
28723W        W92491  15.738   5.243  11.062
28724W        W92492  21.696  35.961  11.450
28725W        W92493  38.920  10.260   1.401
28726W        W92494   0.301  34.426  14.012
28727W        W92495  40.998  32.605  13.361
28728W        W92496  15.796  10.841  13.881
28729W        W92497  25.629  39.012  12.574
28730W        W92498  25.035  21.249   3.322
28731W        W92499  11.227  21.755  11.489
28732W        W92500  28.108   9.750  14.485
28733W        W92501  18.180  34.560  13.854
28734W        W92502  23.075  32.057   0.250
28735W        W92503   8.272  24.499   4.146
28736W        W92504  18.085  31.900   1.366
28737W        W92505   4.847  26.605   2.805
28738W        W92506  24.161  38.032  13.899
28739W        W92507  24.480  35.364   3.661
28740W        W92508  30.033  41.789   2.870
28741W        W92509  17.659  34.927   0.769
28742W        W92510  44.948  15.616  13.505
28743W        W92511  19.562  23.224  14.924
28744W        W92512  29.451  19.164  12.866
28745W        W92513  27.574   4.397   4.210
28746W        W92514  28.160  11.706  12.054
28747W        W92515  24.606  16.254  14.932
28748W        W92516  11.707  42.918  13.925
28749W        W92517   6.876   5.786  10.971
28750W        W92518  36.566  44.985   4.265
28751W        W92519  12.124   4.264   1.893
28752W        W92520  44.285  40.883  12.342
28753W        W92521  39.010   6.199   0.422
28754W        W92522  15.794  10.801  11.401
28755W        W92523   4.273  40.881   4.759
28756W        W92524   0.292  34.440  10.435
28757W        W92525  32.058   2.471  12.512
28758W        W92526  14.300  31.588  11.539
28759W        W92527  42.808  14.203   2.790
28760W        W92528  10.658  19.554   5.160
28761W        W92529   3.796  20.532  12.026
28762W        W92530  12.745  30.145   1.779
28763W        W92531  30.556  18.676   3.255
28764W        W92532  40.008  44.962   1.278
28765W        W92533  11.777  24.550   3.838
28766W        W92534  39.385  31.492   4.257
28767W        W92535  30.581  36.040   2.202
28768W        W92536  37.062  44.815   1.245
28769W        W92537  28.460   4.808   3.370
28770W        W92538  15.243  41.343  10.641
28771W        W92539  42.343   5.292   1.745
28772W        W92540  24.515   1.391   4.694
28773W        W92541   1.304  32.998   1.845
28774W        W92542  10.171  33.945   0.943
28775W        W92543  35.396  11.308  11.090
28776W        W92544  42.876  44.409  12.465
28777W        W92545  44.899  30.939  10.643
28778W        W92546  44.349  13.647   0.963
28779W        W92547  18.595  31.470  13.399
28780W        W92548  27.167  18.239  11.891
28781W        W92549   3.861  10.224  13.007
28782W        W92550  40.441   8.723   2.876
28783W        W92551  11.795  39.822  10.102
28784W        W92552  35.504  10.241  10.552
28785W        W92553  30.119  41.468   1.867
28786W        W92554  25.158   1.476  13.850
28787W        W92555   0.965  13.636  10.453
28788W        W92556  35.035  39.490   0.277
28789W        W92557  36.041  17.758   0.324
28790W        W92558  41.354  14.223   4.152
28791W        W92559  34.532  41.520  12.390
28792W        W92560   9.726  39.981  12.363
28793W        W92561   2.372   0.970  10.896
28794W        W92562  33.617  16.223  13.819
28795W        W92563  24.666  15.686   4.167
28796W        W92564   6.746  21.699  12.888
28797W        W92565   8.844   8.363   3.236
28798W        W92566  24.593   5.794  12.531
28799W        W92567  30.559  16.166  14.008
28800W        W92568  38.453   6.404  13.394
28801W        W92569  13.830  21.654  14.846
28802W        W92570  18.593   7.909  12.944
28803W        W92571  20.244  26.126  13.004
28804W        W92572  15.817  29.948   1.272
28805W        W92573   3.781  27.680   2.341
28806W        W92574  16.640  31.945  13.339
28807W        W92575  25.471  42.820   4.750
28808W        W92576  39.998  42.018  14.928
28809W        W92577   5.908  12.283  12.410
28810W        W92578  17.185  13.257  12.376
28811W        W92579  33.006  26.693  10.946
28812W        W92580  25.611  11.303   2.300
28813W        W92581  29.456  31.433   0.777
28814W        W92582  30.969  38.833  14.820
28815W        W92583  20.037   1.953  13.976
28816W        W92584  31.637  40.051   0.365
28817W        W92585  22.557  42.999   0.247
28818W        W92586  16.314  15.662  11.919
28819W        W92587  39.026  16.264  13.415
28820W        W92588   1.972  26.153  10.560
28821W        W92589  37.531  38.440   1.352
28822W        W92590  14.329  16.267  13.826
28823W        W92591   1.758  26.054   2.764
28824W        W92592   5.887  39.844   3.662
28825W        W92593  20.756  37.066  12.943
28826W        W92594  25.123   2.963   3.760
28827W        W92595   8.201   6.394  13.508
28828W        W92596  30.001   8.730  12.846
28829W        W92597  34.526  22.066  14.789
28830W        W92598  16.742  35.452   2.666
28831W        W92599   9.685  33.430   3.654
28832W        W92600   9.332  27.561   1.384
28833W        W92601  24.185  13.254  12.988
28834W        W92602   9.832  43.450  11.915
28835W        W92603  27.014  31.980  11.564
28836W        W92604  21.756  14.802   4.782
28837W        W92605  32.510  28.968  14.428
28838W        W92606  13.828   7.875  10.583
28839W        W92607  38.034  15.141  11.946
28840W        W92608  24.223  17.726  14.920
28841W        W92609  34.864   3.313   4.348
28842W        W92610  16.670  13.674  12.085
28843W        W92611  43.330  37.500  11.531
28844W        W92612  13.657  22.723  13.402
28845W        W92613  14.149  12.726   4.129
28846W        W92614  28.635  22.998  11.485
28847W        W92615  40.053  30.049  14.955
28848W        W92616  30.070  17.799  13.430
28849W        W92617  34.951  41.467   3.270
28850W        W92618  40.523   1.779   0.305
28851W        W92619   9.393  15.662   0.432
28852W        W92620  14.186  42.348  10.984
28853W        W92621  39.429   1.443  13.327
28854W        W92622  32.626   8.740   2.408
28855W        W92623  43.924  31.128  12.060
28856W        W92624  31.576  23.530   2.770
28857W        W92625  30.154  40.894   0.922
28858W        W92626  43.798  12.670   1.742
28859W        W92627  17.680  39.329   3.848
28860W        W92628  30.581   5.781   3.239
28861W        W92629   0.748  34.585   0.860
28862W        W92630  26.012  41.823  13.025
28863W        W92631   3.299  13.681   4.276
28864W        W92632  20.103   0.284  12.542
28865W        W92633  22.216   3.230  14.378
28866W        W92634  41.361  13.242   0.744
28867W        W92635   7.733  35.597   3.257
28868W        W92636  18.104   4.712   2.326
28869W        W92637  28.535  25.128  14.913
28870W        W92638   3.405  24.112   0.470
28871W        W92639  35.503  16.605  14.324
28872W        W92640  30.504  40.959  12.515
28873W        W92641  16.613  12.738   2.361
28874W        W92642  19.589  31.926  11.377
28875W        W92643  44.977  22.093  11.071
28876W        W92644  28.181   2.896   0.800
28877W        W92645  16.721  30.968  12.049
28878W        W92646  11.744  43.840  13.512
28879W        W92647  19.608   0.261   2.179
28880W        W92648  37.051  36.962  13.538
28881W        W92649  30.030  19.257   0.923
28882W        W92650  44.872  27.531  12.075
28883W        W92651  34.432  26.504   5.304
28884W        W92652   9.679  25.583   4.350
28885W        W92653  20.067  39.845  11.010
28886W        W92654  38.868  29.662   0.271
28887W        W92655  23.630   0.754   0.965
28888W        W92656  28.943  13.136   2.755
28889W        W92657  32.921  43.424   1.241
28890W        W92658  20.595  27.008  14.947
28891W        W92659  10.638  35.068   4.159
28892W        W92660  20.754  21.061  10.999
28893W        W92661  15.175  25.185   1.408
28894W        W92662  24.535  40.956  10.498
28895W        W92663  13.212  14.620   0.964
28896W        W92664   4.441  28.674  10.596
28897W        W92665  34.454  33.462   3.222
28898W        W92666  44.333  39.841   2.411
28899W        W92667  14.706  12.362  14.289
28900W        W92668  26.623  31.023  14.990
28901W        W92669   5.856   8.659   2.236
28902W        W92670  12.799   8.390  14.372
28903W        W92671   6.823  10.779  12.454
28904W        W92672  40.452  33.420  14.008
28905W        W92673  16.169  32.537   2.352
28906W        W92674  24.984  37.962  11.594
28907W        W92675   4.291  11.832  12.532
28908W        W92676  21.248  11.273  13.515
28909W        W92677  22.609  40.459  11.073
28910W        W92678  11.366  24.639   4.122
28911W        W92679  22.209  18.715   3.826
28912W        W92680  43.848  44.903   3.746
28913W        W92681  31.480  37.574  12.825
28914W        W92682  20.576   6.828   2.199
28915W        W92683  29.582  44.861  14.367
28916W        W92684  37.410  22.132  14.797
28917W        W92685   0.987  40.881   4.212
28918W        W92686  16.121  41.840  14.427
28919W        W92687  24.579  19.736  11.910
28920W        W92688  40.032   8.714   4.642
28921W        W92689  25.608   4.253  13.935
28922W        W92690  12.142  27.647   4.622
28923W        W92691  41.478   2.245   4.766
28924W        W92692  32.069  39.341   1.268
28925W        W92693   0.892  28.636  13.428
28926W        W92694  22.084  38.445   0.472
28927W        W92695  15.748  22.252  12.860
28928W        W92696  32.105   1.945   0.462
28929W        W92697   7.256  44.784   4.832
28930W        W92698   6.844   2.964  10.536
28931W        W92699  34.029   2.868  11.999
28932W        W92700  21.084  32.927   3.183
28933W        W92701  17.300  42.913  12.531
28934W        W92702  21.094  30.597   2.694
28935W        W92703  37.485  40.918  12.449
28936W        W92704   4.328  27.948   2.228
28937W        W92705  27.190  32.090  11.987
28938W        W92706  22.073   1.310   0.737
28939W        W92707  33.385  30.947  10.636
28940W        W92708   9.663  12.686  12.059
28941W        W92709  19.703  14.741   2.834
28942W        W92710  14.145   8.813   3.170
28943W        W92711   5.874  42.797   2.837
28944W        W92712   9.788  21.557  14.451
28945W        W92713   6.320  32.484   3.312
28946W        W92714  30.476  39.447  10.975
28947W        W92715  37.520   7.238   5.121
28948W        W92716  10.683  11.171   5.083
28949W        W92717  37.392   7.320   4.777
28950W        W92718  26.496  42.907  11.575
28951W        W92719   5.812   1.929   4.630
28952W        W92720  26.505  34.531   1.398
28953W        W92721   3.779   7.864  12.552
28954W        W92722  19.230  13.300  11.518
28955W        W92723  33.925  41.898   2.856
28956W        W92724  33.429   9.256   4.222
28957W        W92725  28.003  31.094   0.788
28958W        W92726   9.306  37.851   2.872
28959W        W92727  31.142  36.383  12.502
28960W        W92728  12.360  12.252   4.115
28961W        W92729  25.209  36.085   3.339
28962W        W92730  30.157  30.501   4.285
28963W        W92731  38.445  38.910   4.352
28964W        W92732  29.989  13.757   3.691
28965W        W92733  26.182  39.397   1.722
28966W        W92734  34.891   8.284   2.262
28967W        W92735   0.785  33.470   2.671
28968W        W92736  15.154  21.585  11.873
28969W        W92737  27.642  25.985   1.753
28970W        W92738   8.298  35.404  12.999
28971W        W92739   8.266  17.224  13.318
28972W        W92740   6.290  20.040   3.666
28973W        W92741   4.726  36.976  13.449
28974W        W92742  28.048   5.416  11.946
28975W        W92743  36.473  40.452  12.939
28976W        W92744  10.816  34.894   1.769
28977W        W92745   2.245  32.948  10.592
28978W        W92746  26.990  31.506   0.874
28979W        W92747  28.553  16.245  12.988
28980W        W92748   6.292  36.541  11.590
28981W        W92749  23.201  31.083   1.837
28982W        W92750  14.136  35.532   4.653
28983W        W92751  16.166  33.538  10.553
28984W        W92752  26.173   8.203   4.329
28985W        W92753   2.330  30.452   0.744
28986W        W92754   4.934  28.099  10.969
28987W        W92755  36.903   2.743   3.815
28988W        W92756  13.829  24.104   4.753
28989W        W92757  39.983   6.710  14.971
28990W        W92758  20.089  11.138   1.322
28991W        W92759  21.048  25.071  13.811
28992W        W92760  30.965   2.304   4.688
28993W        W92761  19.690   9.846  11.039
28994W        W92762  14.697   6.743  10.482
28995W        W92763  14.326  31.959  11.553
28996W        W92764  29.559  10.339  12.935
28997W        W92765  24.496  19.779   4.275
28998W        W92766   7.870  21.553  11.939
28999W        W92767  33.493  15.629   3.697
29000W        W92768  44.487  22.652  13.326
29001W        W92769  31.486  29.008   4.330
29002W        W92770   3.940  16.296   0.307
29003W        W92771  27.057  43.437   0.470
29004W        W92772   4.270  22.048  14.912
29005W        W92773  12.154   5.767   4.121
29006W        W92774   3.805   4.390  13.023
29007W        W92775  18.220  36.489  10.066
29008W        W92776  15.303   0.494  13.928
29009W        W92777  10.793  36.033  10.635
29010W        W92778  21.261  15.638   5.221
29011W        W92779  14.681   3.252   1.910
29012W        W92780  35.440  14.167   0.248
29013W        W92781  35.505  15.226   1.820
29014W        W92782  28.486  34.370  12.509
29015W        W92783  23.113  22.225  11.538
29016W        W92784  33.940   4.722  12.502
29017W        W92785  39.428  20.082  10.419
29018W        W92786  16.212  16.161  12.958
29019W        W92787  38.076   5.307   1.743
29020W        W92788  25.661   8.832   0.782
29021W        W92789  41.956  44.437  13.324
29022W        W92790  23.528  35.010  10.416
29023W        W92791  35.020  11.635  11.385
29024W        W92792  15.667   3.291   2.898
29025W        W92793   9.313  43.968  14.861
29026W        W92794  16.694   5.388   4.348
29027W        W92795  23.567  24.157   3.707
29028W        W92796   5.703  32.955   3.737
29029W        W92797   5.216  35.451   5.164
29030W        W92798  14.209   4.340  12.520
29031W        W92799  10.732  34.420  11.121
29032W        W92800  38.887  32.903   1.430
29033W        W92801   0.362  21.670  13.921
29034W        W92802  22.507  22.501  13.053
29035W        W92803  43.427  30.655   1.263
29036W        W92804  43.420  28.526  10.521
29037W        W92805   3.938  17.228   1.866
29038W        W92806  40.052  35.518   2.837
29039W        W92807   2.945  33.932  10.928
29040W        W92808  20.111  18.769  14.957
29041W        W92809  30.971  30.980  13.371
29042W        W92810  22.042   4.838   4.775
29043W        W92811   2.838  44.899   0.436
29044W        W92812   2.898  35.902  13.815
29045W        W92813  25.972   1.312   0.335
29046W        W92814   8.247  10.252   0.780
29047W        W92815   4.220  10.865  12.496
29048W        W92816  27.659   2.307  14.317
29049W        W92817  43.971   6.288   1.848
29050W        W92818  31.920   9.193  12.458
29051W        W92819  15.650  39.913  11.093
29052W        W92820  35.361   6.860   5.158
29053W        W92821   7.227  19.241   0.832
29054W        W92822  32.446   8.184  13.405
29055W        W92823  25.971  40.965   0.445
29056W        W92824  11.683  28.653   1.805
29057W        W92825  32.507  25.032  12.074
29058W        W92826   3.236  39.466   2.709
29059W        W92827  16.663  24.160  12.840
29060W        W92828   4.259  14.309  14.977
29061W        W92829   6.272   9.656  10.898
29062W        W92830  34.074  33.026   3.699
29063W        W92831  36.402  17.781  14.950
29064W        W92832  20.756   7.817   0.743
29065W        W92833  28.636  27.494  10.942
29066W        W92834  31.543  23.989  11.969
29067W        W92835  36.522   9.361  14.898
29068W        W92836  24.621  36.001  14.499
29069W        W92837  16.697  14.697   4.218
29070W        W92838  36.937  23.022   2.411
29071W        W92839   8.393  36.989  11.408
29072W        W92840  20.530  44.465  11.034
29073W        W92841  31.910  18.162   0.833
29074W        W92842  23.541  19.187   3.731
29075W        W92843  38.325  26.566   3.350
29076W        W92844  15.285  42.492   2.876
29077W        W92845  10.170   4.821  11.375
29078W        W92846   8.796  43.832   1.876
29079W        W92847  35.482  38.496  14.817
29080W        W92848  34.004  39.345  13.913
29081W        W92849  39.022   3.942  14.399
29082W        W92850  43.332  13.769   4.771
29083W        W92851   5.200  13.638   4.699
29084W        W92852  23.592   7.769  13.816
29085W        W92853  22.509  29.050  11.518
29086W        W92854   0.412  40.820   4.230
29087W        W92855  23.547  27.454   2.667
29088W        W92856  21.520  42.015  12.982
29089W        W92857  29.553  31.527   2.902
29090W        W92858   2.226  20.610   3.824
29091W        W92859  40.367  25.046  12.469
29092W        W92860  44.904   5.691  13.912
29093W        W92861  16.185  22.226   9.480
29094W        W92862   5.408  35.081  10.958
29095W        W92863  42.439   5.263   2.760
29096W        W92864  32.604  13.710  12.836
29097W        W92865   8.695  32.512   3.842
29098W        W92866  19.672  30.031   4.778
29099W        W92867  22.147  38.460  13.463
29100W        W92868  30.958   3.440  13.498
29101W        W92869  22.601  28.559  14.927
29102W        W92870   1.958  28.572  10.577
29103W        W92871  31.044  10.175   3.729
29104W        W92872   3.916  36.354  11.886
29105W        W92873  41.946   2.930  10.980
29106W        W92874   0.988  34.930   1.830
29107W        W92875  11.795   5.408   3.335
29108W        W92876  44.754  37.363  11.856
29109W        W92877  29.942  27.681   0.814
29110W        W92878  37.338  14.769  11.613
29111W        W92879  21.073  39.978  13.338
29112W        W92880  24.487  19.685   4.771
29113W        W92881  40.331  27.572   0.830
29114W        W92882  19.232   2.348  10.499
29115W        W92883   8.826   7.411  10.489
29116W        W92884  43.270  30.412  10.628
29117W        W92885   5.409  37.539  15.000
29118W        W92886  25.495  11.737  11.062
29119W        W92887  12.274  37.040  12.353
29120W        W92888  21.520  41.994  11.075
29121W        W92889  13.205  14.202   3.866
29122W        W92890  41.431  24.648   0.967
29123W        W92891  31.916  40.303  13.901
29124W        W92892  25.688  28.088  14.300
29125W        W92893  34.560  29.659   2.805
29126W        W92894  35.896   7.709   3.737
29127W        W92895  13.314  37.447  10.584
29128W        W92896  24.553  37.508   0.350
29129W        W92897  33.567  41.360  14.388
29130W        W92898  27.651   2.889   1.218
29131W        W92899  18.768  42.849   2.328
29132W        W92900  40.373   3.442   3.674
29133W        W92901  13.265  16.179   0.836
29134W        W92902  32.942  37.839  11.124
29135W        W92903  18.222  40.488  10.915
29136W        W92904  28.561  38.060  11.001
29137W        W92905   7.868  16.605   4.237
29138W        W92906  25.135   9.373  14.317
29139W        W92907  41.295  16.177  13.403
29140W        W92908  43.016   6.911  11.543
29141W        W92909  37.490  43.897   0.756
29142W        W92910  33.492   9.685  11.072
29143W        W92911  23.213   7.417  13.998
29144W        W92912   7.730  28.635  14.813
29145W        W92913   4.411  34.546  13.803
29146W        W92914   3.826   3.319  10.918
29147W        W92915   9.741  34.442   0.341
29148W        W92916  28.175   3.810   0.437
29149W        W92917  15.590   3.275   1.232
29150W        W92918  39.988  37.423  11.944
29151W        W92919  38.928  36.415   4.748
29152W        W92920   0.364   4.273   1.347
29153W        W92921   5.798  39.468  12.898
29154W        W92922   9.354  11.142  13.879
29155W        W92923  37.007  26.685   3.637
29156W        W92924  19.773   1.367   0.829
29157W        W92925  42.935  39.930   3.157
29158W        W92926  18.266  23.025  12.386
29159W        W92927  17.777  18.226   0.269
29160W        W92928  16.794  33.985  14.910
29161W        W92929  16.082   2.386  13.949
29162W        W92930  27.127  25.170  13.892
29163W        W92931  14.214  19.667  12.095
29164W        W92932  18.763  44.416   0.755
29165W        W92933   7.204  21.021   2.731
29166W        W92934   1.376  15.683  11.052
29167W        W92935  31.963  29.125  13.390
29168W        W92936  24.141  28.597   0.297
29169W        W92937  13.816  38.342  14.468
29170W        W92938  33.917  25.665  14.337
29171W        W92939  22.006  27.587  13.047
29172W        W92940  20.600  40.957   3.791
29173W        W92941   6.271  22.072  14.850
29174W        W92942  36.530  42.356   1.845
29175W        W92943  38.905  13.231  12.919
29176W        W92944   5.730  34.067  14.378
29177W        W92945  38.336  41.299  11.385
29178W        W92946   9.368   4.813   1.721
29179W        W92947   0.913   5.797  12.445
29180W        W92948  16.247  36.941   3.700
29181W        W92949  27.103  12.119   1.262
29182W        W92950  26.093   3.316   0.380
29183W        W92951   2.463  15.151  10.626
29184W        W92952  35.862  37.362  11.480
29185W        W92953  17.589  29.643  14.974
29186W        W92954  44.474  23.038  13.990
29187W        W92955  19.659   3.849   3.264
29188W        W92956   4.260  16.787   3.714
29189W        W92957  39.473   8.805   3.780
29190W        W92958  31.582  15.795   9.625
29191W        W92959  35.057  33.114   0.960
29192W        W92960  44.777  14.822   1.723
29193W        W92961  26.523  33.129   0.795
29194W        W92962   3.377  35.442   1.719
29195W        W92963  26.104  42.304  13.943
29196W        W92964  16.185  44.398  14.881
29197W        W92965  35.994  19.702   3.160
29198W        W92966  27.455  29.602   1.802
29199W        W92967  21.250  30.490   3.782
29200W        W92968   3.351   4.808   2.729
29201W        W92969   4.833  43.286   1.302
29202W        W92970  10.766  13.279  10.031
29203W        W92971   8.401  26.051   1.787
29204W        W92972  18.218  24.101  14.964
29205W        W92973  28.078  19.648   3.867
29206W        W92974   0.353  35.397  12.019
29207W        W92975  15.169  12.717  10.967
29208W        W92976  17.273  32.560  10.942
29209W        W92977  18.050  39.844  12.451
29210W        W92978  30.618   7.796  10.948
29211W        W92979  24.639   0.907  10.429
29212W        W92980  14.599  38.948  11.400
29213W        W92981   1.437  13.314  13.490
29214W        W92982  39.548  40.998  11.039
29215W        W92983  39.493  10.212  14.890
29216W        W92984  42.983   9.888  14.996
29217W        W92985   6.749  22.617  12.512
29218W        W92986  36.951  24.570  12.447
29219W        W92987  26.955  43.329  13.835
29220W        W92988  34.994  10.682  12.378
29221W        W92989  12.297   5.270  12.934
29222W        W92990  14.334  13.632  13.804
29223W        W92991  10.281  29.455   0.364
29224W        W92992  17.152  32.902  14.759
29225W        W92993  25.215  40.002   3.761
29226W        W92994  22.607   8.695   1.814
29227W        W92995   5.903  33.096  14.449
29228W        W92996  34.587   2.347   3.219
29229W        W92997  29.509  19.136   2.266
29230W        W92998  21.252   9.208  10.459
29231W        W92999   4.878   8.769   3.267
29232W        W93000  30.097  44.966   3.335
29233W        W93001  40.920  25.661   3.858
29234W        W93002  42.996  12.323  12.844
29235W        W93003  13.825  41.509  12.458
29236W        W93004  36.444  19.669   2.824
29237W        W93005  38.011   5.830   3.719
29238W        W93006  27.190  28.598  14.294
29239W        W93007  44.851  15.147   3.740
29240W        W93008  14.107  39.362   3.188
29241W        W93009   1.256  41.973  13.815
29242W        W93010  39.053  11.363   0.842
29243W        W93011  26.038  33.397   2.214
29244W        W93012   6.714  12.274   4.752
29245W        W93013  39.560  22.598   2.854
29246W        W93014  21.565  27.018  12.859
29247W        W93015  19.174  24.107  10.928
29248W        W93016   1.895   0.300  11.402
29249W        W93017  18.185  22.608  11.451
29250W        W93018   5.840  32.493   1.868
29251W        W93019  43.836  26.594  10.437
29252W        W93020  20.601  15.271  11.413
29253W        W93021  41.452  43.976   0.424
29254W        W93022  24.150   0.796   0.389
29255W        W93023  24.584  44.759   3.151
29256W        W93024  44.782  14.132   0.405
29257W        W93025  30.450  15.614  10.964
29258W        W93026  38.571  13.202   1.227
29259W        W93027   3.922  34.565  14.862
29260W        W93028  16.179  26.685   2.335
29261W        W93029  28.559   7.773  12.045
29262W        W93030  37.030  10.225  10.488
29263W        W93031  12.642  41.850   4.762
29264W        W93032  35.567  37.831  11.995
29265W        W93033  31.414  18.773   0.773
29266W        W93034  22.066  44.298   2.397
29267W        W93035  42.905   3.922   2.404
29268W        W93036  18.134  18.200   1.821
29269W        W93037  17.104  21.056   4.134
29270W        W93038  39.371  36.415  11.485
29271W        W93039  32.588  17.138   1.819
29272W        W93040  40.914  15.127   0.367
29273W        W93041  28.462  25.103   3.786
29274W        W93042  38.377  38.075   1.858
29275W        W93043  37.887   0.881  11.994
29276W        W93044   2.384  11.773   4.732
29277W        W93045  24.598  41.520   2.209
29278W        W93046  32.474  12.653   3.383
29279W        W93047  20.058  20.727  11.878
29280W        W93048  41.495  16.090  14.353
29281W        W93049  15.791   9.740  12.385
29282W        W93050  44.315  34.579  13.846
29283W        W93051  13.184  19.225   0.314
29284W        W93052  31.898   5.884   0.426
29285W        W93053  26.174  36.552  11.034
29286W        W93054  21.572  40.478  13.473
29287W        W93055  15.591  41.491   0.446
29288W        W93056  25.193  24.480  11.490
29289W        W93057   8.233   4.788   3.373
29290W        W93058  32.603   2.725   2.737
29291W        W93059  25.710   4.382   1.288
29292W        W93060   6.278  30.548  10.539
29293W        W93061  30.547  28.990   4.836
29294W        W93062  11.142  27.465   2.736
29295W        W93063  40.527  23.656  14.439
29296W        W93064  23.995  18.184   1.715
29297W        W93065   8.805  39.508  11.591
29298W        W93066  40.535  44.831  11.082
29299W        W93067  34.079  27.088  13.797
29300W        W93068  31.497   6.397   1.741
29301W        W93069   9.320  24.689  11.961
29302W        W93070  14.297  17.756  10.505
29303W        W93071   2.272  19.708   2.204
29304W        W93072  23.507   7.680   0.334
29305W        W93073  42.013  19.107   4.715
29306W        W93074  24.543  22.073  14.866
29307W        W93075  23.039   2.375  12.411
29308W        W93076  25.654  40.854   2.759
29309W        W93077   2.454  29.129   3.770
29310W        W93078  28.128  25.192   1.759
29311W        W93079  34.615   9.286   0.306
29312W        W93080  37.484   4.422  14.276
29313W        W93081   9.710  33.894   4.635
29314W        W93082  37.339  25.070   0.811
29315W        W93083  19.285  16.620   0.365
29316W        W93084  33.434  23.186   2.758
29317W        W93085  39.962  29.984   1.911
29318W        W93086  15.789  33.914  10.049
29319W        W93087   8.309  15.173   2.222
29320W        W93088  28.105   0.305  11.871
29321W        W93089  14.194  16.736   5.232
29322W        W93090  13.202  11.295   1.859
29323W        W93091  36.892  44.860  12.461
29324W        W93092  41.368  25.161   3.698
29325W        W93093  15.292   4.902   2.281
29326W        W93094  35.083  40.023   0.289
29327W        W93095  11.213  26.667   1.374
29328W        W93096  23.062   8.806  13.950
29329W        W93097  36.876  37.557   3.352
29330W        W93098   6.212  31.153  10.913
29331W        W93099  37.070  39.000  13.835
29332W        W93100  11.827   6.201   1.727
29333W        W93101  21.665  19.283   3.186
29334W        W93102  24.071  13.238   0.393
29335W        W93103  15.322  16.102  11.893
29336W        W93104  33.100  13.250  11.968
29337W        W93105  19.631  41.473  13.462
29338W        W93106  15.772  38.914   2.802
29339W        W93107  38.009  40.432  12.942
29340W        W93108  35.425  37.390   0.340
29341W        W93109  24.581  37.490   4.758
29342W        W93110  24.049   4.812  10.927
29343W        W93111  18.078  18.610   3.354
29344W        W93112  24.226  27.943   1.849
29345W        W93113  20.702  37.029  14.856
29346W        W93114  14.645  25.503   4.685
29347W        W93115  26.697  18.222  13.416
29348W        W93116  10.637  19.221   3.259
29349W        W93117  26.579  44.447  14.451
29350W        W93118  14.168  41.810  12.350
29351W        W93119  39.024  43.343  13.441
29352W        W93120  19.676  35.427   2.836
29353W        W93121   9.885  12.259  10.977
29354W        W93122  33.076   3.955  12.407
29355W        W93123  22.692   5.334  13.433
29356W        W93124  23.061  13.815   5.218
29357W        W93125   1.921  38.882  13.003
29358W        W93126   2.772  36.075  14.317
29359W        W93127  37.538  36.557  13.968
29360W        W93128  21.199  10.651  10.528
29361W        W93129  42.796  16.100   4.145
29362W        W93130  25.096  40.948  13.840
29363W        W93131   0.949  44.826  14.316
29364W        W93132  41.459   0.318  10.461
29365W        W93133  44.807  30.099  10.481
29366W        W93134  31.028   1.948  13.485
29367W        W93135  28.957  10.813   0.930
29368W        W93136  40.326  12.147   0.411
29369W        W93137  10.227  39.487  13.337
29370W        W93138   2.396  13.633   4.714
29371W        W93139  23.547  10.840  13.329
29372W        W93140   1.284  10.347   4.232
29373W        W93141  44.388  40.469   5.211
29374W        W93142  19.719  16.747  14.007
29375W        W93143  26.997  12.119  12.932
29376W        W93144  37.040  10.793   3.721
29377W        W93145  19.276  21.754  12.906
29378W        W93146  34.425  40.523  11.992
29379W        W93147  43.434  17.564  12.420
29380W        W93148   9.778  43.275  13.507
29381W        W93149  41.853  35.072  10.071
29382W        W93150  35.900  44.420   1.719
29383W        W93151  36.386  35.478  14.984
29384W        W93152   4.248  30.612  12.984
29385W        W93153  17.736  19.645   2.863
29386W        W93154   3.819  31.636  14.016
29387W        W93155  12.735   9.235   1.439
29388W        W93156  32.974  27.513  12.078
29389W        W93157  35.903  25.609   1.317
29390W        W93158   5.862  35.072   4.640
29391W        W93159   2.427  38.505   0.314
29392W        W93160  26.662  13.715   1.442
29393W        W93161  30.964  22.541  10.016
29394W        W93162  31.485  32.408  11.989
29395W        W93163  10.779   2.945  11.995
29396W        W93164  16.811   1.794   0.930
29397W        W93165  21.640  24.110   0.889
29398W        W93166  11.671  25.118  12.549
29399W        W93167  25.714  25.029   4.621
29400W        W93168  16.079  22.598  10.084
29401W        W93169   7.678  22.148  13.047
29402W        W93170  39.050  28.037   4.232
29403W        W93171  42.817  24.641   3.293
29404W        W93172   4.322  36.938   1.232
29405W        W93173  15.170  31.410  12.077
29406W        W93174   4.312  20.756  11.077
29407W        W93175  14.756  24.127   2.836
29408W        W93176  28.987  13.730  13.486
29409W        W93177  14.597  39.019  10.490
29410W        W93178  13.163  37.967   4.233
29411W        W93179  11.628  16.248   2.663
29412W        W93180  32.014  36.458  11.097
29413W        W93181  11.780  22.598   0.897
29414W        W93182  36.014  28.034   4.337
29415W        W93183  23.582   2.726  13.493
29416W        W93184  15.178  44.473   4.225
29417W        W93185   9.218  21.158   3.719
29418W        W93186  22.699  42.990   2.824
29419W        W93187  38.344  30.009   0.318
29420W        W93188  42.437   2.300   2.792
29421W        W93189  41.859  28.026   4.803
29422W        W93190   1.809   5.395  10.971
29423W        W93191  12.185  13.301   0.891
29424W        W93192  39.903   7.365  14.941
29425W        W93193   7.853   0.905  14.920
29426W        W93194   4.720  42.934  11.520
29427W        W93195  43.868  30.422   4.738
29428W        W93196  39.409   3.923  14.002
29429W        W93197  15.774  13.117   0.908
29430W        W93198   5.694   2.830   3.844
29431W        W93199  37.901  25.519  12.452
29432W        W93200  25.496   5.284   4.160
29433W        W93201   3.383  17.137   4.688
29434W        W93202  22.030  37.951   3.754
29435W        W93203  44.905  19.669   2.185
29436W        W93204  21.225  12.339   1.360
29437W        W93205  11.351   1.312   4.808
29438W        W93206  35.078  39.889  14.901
29439W        W93207  12.835  14.611   4.317
29440W        W93208  14.165   6.773   1.742
29441W        W93209  31.066  44.781   1.236
29442W        W93210  39.038   3.845  13.346
29443W        W93211   4.824   8.837   1.306
29444W        W93212  12.260  17.654   4.631
29445W        W93213  31.506  22.088  13.458
29446W        W93214  42.496   1.311  12.932
29447W        W93215   6.827   5.885  14.404
29448W        W93216  20.684  40.445   4.651
29449W        W93217  16.271  20.604   4.828
29450W        W93218  30.079   9.367   3.231
29451W        W93219  28.634  13.270   4.604
29452W        W93220  37.881  16.795   3.234
29453W        W93221  38.973  12.718  10.610
29454W        W93222  40.356   4.926  12.470
29455W        W93223  22.606   6.264   0.463
29456W        W93224  44.828  24.201   1.753
29457W        W93225  14.276  14.688   3.689
29458W        W93226  29.564  41.985  11.864
29459W        W93227   7.372  37.873   3.783
29460W        W93228  27.662  23.203  14.876
29461W        W93229   0.982   0.848  13.967
29462W        W93230   7.842   6.219   1.269
29463W        W93231  21.652  38.433   0.833
29464W        W93232  42.878  37.922   2.314
29465W        W93233  20.031  34.507  14.513
29466W        W93234  13.826  16.228   4.657
29467W        W93235   9.323  41.439   9.960
29468W        W93236  16.255  20.564   4.156
29469W        W93237  27.155  10.861   9.970
29470W        W93238   3.835  10.657  11.862
29471W        W93239  19.716  31.998   4.288
29472W        W93240  34.409  14.147   5.185
29473W        W93241  40.533   4.776   0.733
29474W        W93242  33.542  31.151   4.158
29475W        W93243  36.853  29.166   3.841
29476W        W93244  28.505  18.585  11.535
29477W        W93245  29.090  43.913   0.404
29478W        W93246  27.634  38.968  13.953
29479W        W93247  34.508  22.078  13.017
29480W        W93248  26.659   9.834  14.831
29481W        W93249   2.266  28.161   4.278
29482W        W93250   4.725  33.124   4.721
29483W        W93251  18.557  16.579  11.562
29484W        W93252  24.108  18.173  11.517
29485W        W93253  41.871  22.032   0.765
29486W        W93254   3.949   3.216  14.469
29487W        W93255  17.743  10.287   4.737
29488W        W93256  26.165  37.990  13.508
29489W        W93257  35.586  15.610  10.945
29490W        W93258   7.881  20.072   0.481
29491W        W93259   1.800  39.871   4.322
29492W        W93260  42.458  37.449   2.255
29493W        W93261  15.207  18.066  12.504
29494W        W93262  24.086   6.369   9.943
29495W        W93263  39.319  12.776  12.850
29496W        W93264  38.527  43.001  14.906
29497W        W93265  35.101  11.725   3.806
29498W        W93266  24.147  20.231   2.686
29499W        W93267   1.920  33.910  10.434
29500W        W93268  19.193  10.658   4.825
29501W        W93269  19.555  22.241   3.241
29502W        W93270   4.388  42.963   1.407
29503W        W93271  31.042  40.830  14.882
29504W        W93272  17.212   1.332   3.230
29505W        W93273  12.231  30.119   4.799
29506W        W93274  37.985   4.837  10.618
29507W        W93275  13.711  16.634  11.575
29508W        W93276  37.975   4.926   4.787
29509W        W93277  43.470  10.205  14.341
29510W        W93278  37.550  41.416  12.549
29511W        W93279  21.717  13.784  11.929
29512W        W93280  18.708  41.912  12.090
29513W        W93281  38.009  42.859   1.358
29514W        W93282  12.779  36.092   2.181
29515W        W93283  17.606   5.815   3.793
29516W        W93284  17.130  19.122   1.846
29517W        W93285  42.505  29.111  10.906
29518W        W93286  19.110   1.428  10.615
29519W        W93287  25.014   6.712   0.953
29520W        W93288  30.965  18.240   4.744
29521W        W93289   3.427  27.600   2.200
29522W        W93290  24.182  21.054   1.893
29523W        W93291   6.904  20.712   0.248
29524W        W93292  19.537  21.073  14.334
29525W        W93293  17.564  27.951  11.498
29526W        W93294  17.673  23.069   3.149
29527W        W93295   8.301  37.974  14.914
29528W        W93296   9.669  19.154   0.433
29529W        W93297  23.608  32.483  14.926
29530W        W93298   5.765  37.031  13.371
29531W        W93299   5.272  44.454   0.301
29532W        W93300  10.712  38.908   2.202
29533W        W93301  35.021  28.976  10.414
29534W        W93302  31.571  37.951  13.958
29535W        W93303   5.380   8.886  12.984
29536W        W93304  28.938  38.900   1.706
29537W        W93305  40.519  18.143  13.863
29538W        W93306  24.632  26.089   2.705
29539W        W93307  34.033  10.237  13.487
29540W        W93308  38.402  37.880  14.394
29541W        W93309  36.074  28.436  13.433
29542W        W93310   8.798  10.875   2.685
29543W        W93311   9.776  27.140   0.316
29544W        W93312   4.443  22.171  11.493
29545W        W93313  27.191  24.181  13.538
29546W        W93314  22.161  21.561   3.824
29547W        W93315  24.027  28.615  11.519
29548W        W93316  14.310  12.122  13.389
29549W        W93317  16.207  17.149   0.903
29550W        W93318   7.887  10.718   1.905
29551W        W93319   6.881  27.137  10.446
29552W        W93320  14.150  26.146  13.375
29553W        W93321  24.623  29.087  14.405
29554W        W93322  36.555  13.773   3.160
29555W        W93323  20.568  18.747   0.777
29556W        W93324  31.502   8.838  11.600
29557W        W93325   7.832  17.141  10.479
29558W        W93326  39.860  11.807   3.839
29559W        W93327  41.537  23.020   0.849
29560W        W93328  31.924  27.692   1.327
29561W        W93329  30.576   2.352   2.310
29562W        W93330  15.707  37.372  10.899
29563W        W93331   6.867  12.146  14.950
29564W        W93332  24.482   5.724  12.905
29565W        W93333  33.972  42.324   0.335
29566W        W93334  35.576  12.740  13.327
29567W        W93335   3.865  32.406  11.023
29568W        W93336  39.534   9.827   2.745
29569W        W93337  18.061  35.026  12.381
29570W        W93338  29.121   6.311  13.921
29571W        W93339   5.893   9.221   2.853
29572W        W93340   6.752  10.796  14.973
29573W        W93341  30.459  35.044   1.756
29574W        W93342   2.866  36.918  11.974
29575W        W93343   2.725  11.357  14.860
29576W        W93344   7.336  43.512   0.431
29577W        W93345   2.931  38.824   3.631
29578W        W93346  24.565   3.938  13.420
29579W        W93347  43.875   3.262  12.572
29580W        W93348  41.294  30.549  11.864
29581W        W93349  39.963  33.910  11.962
29582W        W93350   5.390  24.630  11.992
29583W        W93351   8.307   3.353  13.489
29584W        W93352  10.315  41.421  13.962
29585W        W93353  33.969  17.795   9.505
29586W        W93354  39.529  30.636  14.427
29587W        W93355   9.691  22.072   0.258
29588W        W93356   6.687  35.428   0.397
29589W        W93357   2.872  25.186   0.935
29590W        W93358  10.713   6.914  13.398
29591W        W93359  23.069  11.155  11.059
29592W        W93360  15.614   8.746  12.959
29593W        W93361  13.655   5.195  12.003
29594W        W93362  12.721  10.376  11.027
29595W        W93363   8.857  33.539  13.024
29596W        W93364  16.689   0.961  10.527
29597W        W93365   5.694  35.897  12.503
29598W        W93366   0.841  18.582   3.847
29599W        W93367  44.005  19.080   0.272
29600W        W93368   1.836   4.406  10.942
29601W        W93369  32.108  31.083   0.417
29602W        W93370  31.984  26.583   0.882
29603W        W93371   2.226  41.942   0.753
29604W        W93372  26.526  10.228   4.272
29605W        W93373  16.665  13.268  10.922
29606W        W93374  21.149  44.308   1.369
29607W        W93375  14.751  16.776  11.924
29608W        W93376  24.724  27.686  12.984
29609W        W93377  11.815  16.742   4.645
29610W        W93378  38.369  40.001  12.517
29611W        W93379  25.497   1.929  12.385
29612W        W93380   3.811  23.690  12.372
29613W        W93381  27.151  10.869  14.393
29614W        W93382  38.511  18.214  13.548
29615W        W93383  12.329  21.598  11.113
29616W        W93384  18.077   7.747   1.815
29617W        W93385  20.604  31.432   4.711
29618W        W93386  14.814   3.363   0.438
29619W        W93387  23.036  34.921   3.191
29620W        W93388  30.994   3.408  13.842
29621W        W93389  37.374   4.291   1.778
29622W        W93390  36.038  44.414  12.962
29623W        W93391  12.286   7.905  13.961
29624W        W93392  23.109  44.372  10.950
29625W        W93393  18.188   8.826   3.856
29626W        W93394  24.024  18.203  12.925
29627W        W93395  21.755  10.652  12.451
29628W        W93396  24.671  26.680   1.213
29629W        W93397   9.730  41.394   4.609
29630W        W93398   1.863  11.707  12.491
29631W        W93399  16.594  34.575   3.345
29632W        W93400  33.607  35.545  10.030
29633W        W93401  31.549  19.625   5.166
29634W        W93402  37.549  36.862   0.422
29635W        W93403  40.349  19.717  10.014
29636W        W93404  27.581  27.982  12.937
29637W        W93405   9.764  44.285   2.306
29638W        W93406  13.630   9.295   0.868
29639W        W93407  28.669   4.212   0.922
29640W        W93408  19.239  15.581   2.368
29641W        W93409  36.486   2.906  13.042
29642W        W93410   4.266   4.436  14.442
29643W        W93411  22.198  36.914   2.697
29644W        W93412  16.728  20.074   0.771
29645W        W93413   7.807  12.199   4.635
29646W        W93414  27.049  35.015   0.294
29647W        W93415  42.341  14.204   3.639
29648W        W93416  34.897  41.388  10.549
29649W        W93417  35.977  37.556  10.553
29650W        W93418  27.166  17.744   2.236
29651W        W93419  28.034  41.031   2.716
29652W        W93420  25.672  30.472  10.436
29653W        W93421   5.862  16.653  10.645
29654W        W93422  38.941   0.286   0.300
29655W        W93423  24.712  22.655  11.052
29656W        W93424  42.981  21.112   1.845
29657W        W93425   7.282  38.560  10.541
29658W        W93426  14.163  14.761   3.226
29659W        W93427  24.981  30.976   4.665
29660W        W93428  38.996  35.382   0.448
29661W        W93429   0.310   6.219  11.963
29662W        W93430  32.059   0.890  11.545
29663W        W93431  15.296   8.886   0.886
29664W        W93432  20.170  27.471   2.199
29665W        W93433  26.204  40.450   1.927
29666W        W93434  40.481   7.839  10.525
29667W        W93435  12.823  18.068   0.887
29668W        W93436  33.591  30.978  13.027
29669W        W93437  14.281  43.917   0.797
29670W        W93438  37.383  36.022  12.025
29671W        W93439  15.125   0.407   3.727
29672W        W93440  32.477  35.045  13.880
29673W        W93441  26.609   0.826   4.224
29674W        W93442  34.588  35.030  11.999
29675W        W93443  20.057  25.031   3.294
29676W        W93444   7.763  12.282  10.553
29677W        W93445  26.696  37.059   4.837
29678W        W93446  13.253  42.909  13.947
29679W        W93447   9.253   2.809   4.832
29680W        W93448  11.306  43.377   2.329
29681W        W93449  18.056  18.692  11.578
29682W        W93450   0.890  20.552  10.940
29683W        W93451   9.785   2.774   4.780
29684W        W93452  34.055   5.880  11.944
29685W        W93453  23.689  13.330  13.995
29686W        W93454  18.117   2.313   3.348
29687W        W93455  39.908  24.529  11.096
29688W        W93456  31.583  42.783   4.328
29689W        W93457  17.745   9.260   3.640
29690W        W93458   7.332  38.335  14.990
29691W        W93459   2.728  44.811  14.948
29692W        W93460  25.510  17.670  14.435
29693W        W93461  23.633  17.151   4.177
29694W        W93462   1.864  32.522  14.952
29695W        W93463  20.635  39.425  12.005
29696W        W93464   6.754  32.394  11.564
29697W        W93465  11.226   3.265   0.789
29698W        W93466  17.694  38.002  11.448
29699W        W93467  39.974  13.649   1.438
29700W        W93468  31.928  39.951   4.825
29701W        W93469  21.131  21.127  12.944
29702W        W93470  35.974  27.473  12.437
29703W        W93471   3.227  19.777  11.030
29704W        W93472  24.005  23.603   3.675
29705W        W93473  42.000  40.378   3.332
29706W        W93474   6.854  37.396  13.055
29707W        W93475   1.977  36.362  11.563
29708W        W93476   0.857  37.840  14.347
29709W        W93477  34.075  13.758   4.211
29710W        W93478   6.797  29.465   2.686
29711W        W93479  19.228  15.219  12.372
29712W        W93480  11.632  19.651   3.163
29713W        W93481   4.432  34.940   2.861
29714W        W93482  40.481  27.692   1.707
29715W        W93483  44.760  31.948   4.126
29716W        W93484  21.599  33.474   3.266
29717W        W93485  24.605   5.688   0.423
29718W        W93486   8.716  25.133   1.409
29719W        W93487   7.666   9.217   0.450
29720W        W93488  27.016  17.722   4.722
29721W        W93489  35.880  39.866  12.874
29722W        W93490  23.570  17.270  14.938
29723W        W93491  39.840  44.492   1.224
29724W        W93492   3.923  22.197  13.483
29725W        W93493  29.490  38.386  11.883
29726W        W93494   0.929  34.864  14.885
29727W        W93495  32.467  21.100  13.986
29728W        W93496   7.701  29.090   1.351
29729W        W93497  28.144  38.988  13.497
29730W        W93498  15.136  14.172  10.443
29731W        W93499   6.183   6.322  10.051
29732W        W93500  43.470  42.440   4.258
29733W        W93501  41.800  18.065   3.156
29734W        W93502  41.014   8.208   1.335
29735W        W93503   5.841  28.536   3.712
29736W        W93504  10.637  32.532   4.143
29737W        W93505   0.764  10.832   1.260
29738W        W93506  38.451  19.740  12.400
29739W        W93507  28.592  43.015   0.913
29740W        W93508  11.724   3.455  11.114
29741W        W93509  33.502   3.927  12.896
29742W        W93510  26.550  37.044  11.111
29743W        W93511   9.280  27.504  14.835
29744W        W93512  33.999  14.595   0.247
29745W        W93513  22.674  31.906   2.737
29746W        W93514  26.180   2.256  12.855
29747W        W93515  24.546  42.925   1.262
29748W        W93516  39.326   2.961  10.954
29749W        W93517  25.593  27.025   2.871
29750W        W93518  14.608  30.507   4.820
29751W        W93519  17.617   4.288  14.777
29752W        W93520  11.739  10.838  11.096
29753W        W93521  27.587  11.144   5.225
29754W        W93522  29.426  39.032   1.796
29755W        W93523   9.694  30.929  14.856
29756W        W93524  29.431  39.498  10.929
29757W        W93525   6.249  41.500  10.980
29758W        W93526  42.506  18.112   0.827
29759W        W93527   0.972  20.216  14.941
29760W        W93528  26.541  31.041  14.455
29761W        W93529  22.044  23.607  13.376
29762W        W93530  21.124   7.301  13.331
29763W        W93531   6.398   3.796   0.414
29764W        W93532  31.140  11.364   0.252
29765W        W93533  40.538  41.953  12.580
29766W        W93534  33.403  28.976   4.756
29767W        W93535   0.889   5.819  13.903
29768W        W93536  42.470  18.186   0.430
29769W        W93537  43.990  43.956   0.308
29770W        W93538  11.813  21.192  13.803
29771W        W93539  19.761   0.847   3.746
29772W        W93540  26.670   0.258  12.441
29773W        W93541   6.779  27.074  12.877
29774W        W93542   7.326  11.849   3.261
29775W        W93543  31.592  19.055  12.880
29776W        W93544  26.554  36.015   3.319
29777W        W93545  44.968  18.769  13.479
29778W        W93546  31.618  36.942  13.488
29779W        W93547  17.207   7.751   2.886
29780W        W93548  44.264  13.797   1.292
29781W        W93549  22.579   9.279   9.970
29782W        W93550  10.351  37.046  14.358
29783W        W93551  36.070  36.082   4.616
29784W        W93552   9.834  39.896  10.908
29785W        W93553   7.782  12.728   0.928
29786W        W93554  33.608  17.711   3.306
29787W        W93555   0.328  15.705  10.976
29788W        W93556  10.692  40.972   4.757
29789W        W93557  33.061   3.838   2.703
29790W        W93558  15.184  33.615  13.060
29791W        W93559  31.011  43.422   1.368
29792W        W93560  16.642  44.986  12.500
29793W        W93561  42.466  24.038   4.793
29794W        W93562  40.352   8.175   4.235
29795W        W93563  30.020   3.742   3.257
29796W        W93564  22.173  39.533  11.034
29797W        W93565  25.196   8.828   2.397
29798W        W93566  21.168  16.676  12.041
29799W        W93567   9.678  12.350  11.420
29800W        W93568  32.427  44.342   3.307
29801W        W93569  30.607  20.534   3.385
29802W        W93570  39.858  29.663  12.441
29803W        W93571  22.236  17.070   2.193
29804W        W93572  27.093  30.034   4.677
29805W        W93573  38.856   6.903  11.487
29806W        W93574   0.330  33.588  12.493
29807W        W93575  20.111   8.368  14.912
29808W        W93576  17.064  27.156  12.383
29809W        W93577  10.225  22.500  11.472
29810W        W93578  19.138   1.394   1.694
29811W        W93579  31.110  38.063   0.433
29812W        W93580  19.050  25.011  13.394
29813W        W93581  33.517  30.001  11.432
29814W        W93582  11.361  42.297  12.941
29815W        W93583  39.437  27.966  14.766
29816W        W93584  18.598  14.179   3.371
29817W        W93585  24.087  16.755   4.597
29818W        W93586  29.484  28.489  10.608
29819W        W93587  43.460   3.395  10.911
29820W        W93588  40.009  25.687  12.903
29821W        W93589  13.669  26.176  11.473
29822W        W93590  31.597  35.097  11.969
29823W        W93591   8.346  14.628  13.332
29824W        W93592   3.810  44.374   3.803
29825W        W93593  14.293  31.056  13.520
29826W        W93594   9.149  15.096  14.867
29827W        W93595  27.966  39.883   2.888
29828W        W93596  19.732  38.059   1.911
29829W        W93597  41.338  30.647   0.894
29830W        W93598  31.558   4.845  13.367
29831W        W93599   6.343  20.247   0.305
29832W        W93600  19.616  40.414  13.335
29833W        W93601  29.625  13.754   2.215
29834W        W93602  17.258  16.099   1.421
29835W        W93603  22.101  35.966  11.998
29836W        W93604  35.984  19.643   4.239
29837W        W93605  20.151  33.589   5.703
29838W        W93606  12.658  32.633   0.480
29839W        W93607  36.968  30.152   1.871
29840W        W93608  39.982  23.608   1.333
29841W        W93609  34.025  42.436  14.497
29842W        W93610   8.326  11.207   3.279
29843W        W93611  17.251  12.742   2.253
29844W        W93612  40.841   0.424  14.399
29845W        W93613  36.052  22.536   2.392
29846W        W93614  29.131   7.384  14.293
29847W        W93615  37.348  14.177  11.602
29848W        W93616  24.109  10.698  11.465
29849W        W93617   0.249  18.762   4.354
29850W        W93618  43.391  32.923   0.810
29851W        W93619  14.184  11.332   4.833
29852W        W93620  38.344  27.004  14.503
29853W        W93621  21.241  21.024   9.943
29854W        W93622   6.330   0.352   2.860
29855W        W93623  14.133  21.711  13.352
29856W        W93624  42.021   3.279   5.268
29857W        W93625  41.868  25.473  11.426
29858W        W93626  16.199  29.944  12.360
29859W        W93627  12.324   5.412  11.561
29860W        W93628  14.322  18.641   5.233
29861W        W93629  17.082  42.313  11.442
29862W        W93630   0.753  23.028  12.005
29863W        W93631  15.695  13.617  11.456
29864W        W93632  18.710   5.310   4.830
29865W        W93633  17.765  13.728  12.961
29866W        W93634  28.932  17.157  11.042
29867W        W93635  23.187  12.260   0.870
29868W        W93636  12.757  34.027   0.393
29869W        W93637   3.934  15.802   4.295
29870W        W93638  31.585  14.750  13.463
29871W        W93639  40.367  35.007   4.129
29872W        W93640   3.246  22.675  13.955
29873W        W93641  22.999  38.069   1.396
29874W        W93642  41.413  16.089   1.351
29875W        W93643  35.460  36.385  10.484
29876W        W93644   6.319  16.297  14.835
29877W        W93645  18.765  27.191  13.888
29878W        W93646  36.421  16.688   1.696
29879W        W93647  40.516  44.480   3.646
29880W        W93648  10.272  26.569  12.455
29881W        W93649   7.406   7.690   4.644
29882W        W93650  38.887  29.962  12.862
29883W        W93651  36.937   0.471  12.060
29884W        W93652  14.177   8.774  11.015
29885W        W93653   2.772   4.794  10.501
29886W        W93654   9.712  15.237   1.386
29887W        W93655  16.117  40.352  13.400
29888W        W93656   6.722  39.319  12.480
29889W        W93657  40.548  17.088   4.738
29890W        W93658  14.640  44.815  12.924
29891W        W93659  18.629  19.559   0.900
29892W        W93660  13.669  11.329   0.475
29893W        W93661  28.574   9.764  12.472
29894W        W93662  30.089   2.369   4.795
29895W        W93663   9.232   8.860   0.341
29896W        W93664  17.196  24.478  13.923
29897W        W93665   0.975  29.936  14.911
29898W        W93666   4.268  38.541  13.812
29899W        W93667  15.201  44.260  11.472
29900W        W93668  15.258  23.072  12.981
29901W        W93669  35.015  36.384  11.115
29902W        W93670  24.984  38.422   2.267
29903W        W93671  44.953  35.937  11.911
29904W        W93672  15.695  20.658   4.136
29905W        W93673   9.785  22.085   0.949
29906W        W93674   1.356   0.315   3.784
29907W        W93675  16.100   5.300   0.460
29908W        W93676  11.707  32.457   0.434
29909W        W93677  41.032  33.561   1.767
29910W        W93678  15.583  31.047   3.836
29911W        W93679  11.195  21.145   3.317
29912W        W93680  33.875   5.333  11.464
29913W        W93681  19.259  44.844   1.305
29914W        W93682  16.208  21.233  10.973
29915W        W93683   4.704  44.390  10.427
29916W        W93684  42.302  12.126  11.604
29917W        W93685  32.026  42.795   4.230
29918W        W93686   8.795  30.130  10.577
29919W        W93687   6.749  44.331  14.493
29920W        W93688  16.590  30.058   1.879
29921W        W93689   6.341  14.753   2.407
29922W        W93690  44.276  38.040  14.419
29923W        W93691   5.879  23.134  14.484
29924W        W93692  27.601  42.407  14.839
29925W        W93693  20.046  25.133   2.269
29926W        W93694  41.972  37.430   2.263
29927W        W93695  10.633  16.627   2.237
29928W        W93696  29.670  29.059  13.851
29929W        W93697  44.453  35.456  12.490
29930W        W93698  33.498  17.102  13.827
29931W        W93699  39.367  17.611  14.320
29932W        W93700   6.740  17.714   0.331
29933W        W93701  40.543  18.267   2.312
29934W        W93702   7.306   1.381  12.535
29935W        W93703  43.870   4.205   0.436
29936W        W93704   5.931  11.738  10.491
29937W        W93705   4.774  22.103   1.378
29938W        W93706  41.410  16.765   0.796
29939W        W93707  16.246   1.738   4.807
29940W        W93708   1.952  37.461  14.355
29941W        W93709  19.688  17.749   1.283
29942W        W93710  36.003  18.589   4.214
29943W        W93711   4.329  21.701  14.343
29944W        W93712  13.200  27.968   0.824
29945W        W93713  38.427  18.061   1.445
29946W        W93714  44.912  19.655  10.552
29947W        W93715  11.868  18.053  14.879
29948W        W93716   9.669  25.055  10.517
29949W        W93717  29.942  39.946  11.121
29950W        W93718  18.053  39.372   4.340
29951W        W93719   8.891  19.255  13.322
29952W        W93720  23.137  11.261  12.493
29953W        W93721  17.566  27.000  10.499
29954W        W93722   2.766  20.096   2.242
29955W        W93723  36.850  16.274  14.438
29956W        W93724  41.909  18.182   0.806
29957W        W93725  42.947   2.443  10.912
29958W        W93726  30.999  25.088   5.113
29959W        W93727   3.240  22.020   0.246
29960W        W93728  44.849   6.255   4.246
29961W        W93729  16.729  25.511   5.782
29962W        W93730  36.094  39.536  10.412
29963W        W93731   5.811   7.194   2.373
29964W        W93732  25.207  21.234  14.309
29965W        W93733  13.617  18.154  11.498
29966W        W93734  36.978  19.182   0.483
29967W        W93735   5.801   1.483  10.534
29968W        W93736  38.401  31.135  12.375
29969W        W93737  33.474  34.869  14.496
29970W        W93738  24.200  18.681   4.670
29971W        W93739  44.400   0.257   0.460
29972W        W93740  30.452  23.664  12.863
29973W        W93741  30.989  36.088  13.062
29974W        W93742  44.918  28.013  14.776
29975W        W93743  24.023   4.914   4.753
29976W        W93744  12.773  17.213   2.209
29977W        W93745  37.562   4.942  12.081
29978W        W93746  10.663  35.036   1.274
29979W        W93747  21.240  15.258  10.900
29980W        W93748  37.935  17.622  12.047
29981W        W93749  33.559  29.114  13.360
29982W        W93750  25.987  33.057   4.249
29983W        W93751  24.017  41.363   3.253
29984W        W93752  32.399  17.167  12.392
29985W        W93753  33.617  18.250   1.836
29986W        W93754  29.554   2.788   0.772
29987W        W93755  12.730   5.300  12.567
29988W        W93756  33.120   7.726  12.030
29989W        W93757  34.993  19.583   5.172
29990W        W93758  35.009  41.310   3.796
29991W        W93759   0.880   5.290   0.733
29992W        W93760  10.648  39.907   0.911
29993W        W93761  24.645  13.608  11.903
29994W        W93762  32.961   4.711   4.775
29995W        W93763  42.016  22.245  14.287
29996W        W93764   7.363  27.502  12.913
29997W        W93765  28.026  28.015   3.787
29998W        W93766  41.931  44.763  12.076
29999W        W93767  24.087  27.996   0.378
30000W        W93768  27.017   5.756  10.477
30001W        W93769   3.385  18.732   0.341
30002W        W93770  33.513  38.824  11.035
30003W        W93771  17.151   2.788  14.430
30004W        W93772  37.078   0.924  11.438
30005W        W93773   9.883  30.553  14.877
30006W        W93774  26.506  16.608   0.414
30007W        W93775  18.696  16.097  12.845
30008W        W93776  13.349   4.821   4.765
30009W        W93777  28.181  16.609   2.879
30010W        W93778  12.738  11.144  13.345
30011W        W93779  14.210  21.698  10.588
30012W        W93780  25.490  30.452   4.330
30013W        W93781   2.333  19.605   4.648
30014W        W93782  11.675   5.827  14.454
30015W        W93783  19.044  17.613  12.540
30016W        W93784  14.216  10.225  13.925
30017W        W93785  28.016   5.883  11.970
30018W        W93786  24.005  28.582   0.846
30019W        W93787  17.098   9.863   0.833
30020W        W93788  35.490  38.346  11.953
30021W        W93789   1.863  26.699  10.037
30022W        W93790  20.257   2.843   2.315
30023W        W93791   9.888  40.341   4.820
30024W        W93792  29.475  20.245   2.745
30025W        W93793  21.709  21.705  12.856
30026W        W93794  20.228  15.793  11.495
30027W        W93795  44.414  10.140  11.941
30028W        W93796  22.604  14.621  11.899
30029W        W93797   4.289  39.818   0.937
30030W        W93798   5.277  42.837   1.891
30031W        W93799  37.336  14.325   1.316
30032W        W93800  22.581  39.829   5.312
30033W        W93801   2.811  41.018  14.503
30034W        W93802  30.057  25.007  10.905
30035W        W93803   1.294  14.717  10.427
30036W        W93804   8.259  24.637   2.376
30037W        W93805  19.630  26.078   4.694
30038W        W93806   6.240  37.893  13.345
30039W        W93807  12.849  19.659  14.281
30040W        W93808  39.545  15.601  10.568
30041W        W93809  23.710  27.472  14.514
30042W        W93810  36.000  36.357   5.098
30043W        W93811  36.880  11.295   4.680
30044W        W93812  26.675  35.946   0.312
30045W        W93813  19.169   1.961  14.311
30046W        W93814  39.923  37.414   2.737
30047W        W93815   7.178  18.729   2.735
30048W        W93816   0.448  44.405  13.048
30049W        W93817  38.881  33.074  10.575
30050W        W93818   9.187  37.053  14.394
30051W        W93819  30.156  44.797  11.879
30052W        W93820  33.030  18.651  11.496
30053W        W93821  19.188  43.873   2.677
30054W        W93822  30.020  37.439   0.394
30055W        W93823  39.532  23.615  13.851
30056W        W93824  18.197  30.429  14.792
30057W        W93825  21.607  24.502  11.562
30058W        W93826   9.829  17.197   2.896
30059W        W93827  36.891   3.880   3.630
30060W        W93828  22.504  26.150  10.568
30061W        W93829   0.336  39.882  12.086
30062W        W93830  16.137  44.949   3.666
30063W        W93831  21.249   3.783  13.401
30064W        W93832   6.875   4.254  14.469
30065W        W93833  36.074  42.783  12.501
30066W        W93834   7.359  30.466  10.459
30067W        W93835  12.117  10.383  11.995
30068W        W93836  26.686  37.980   3.366
30069W        W93837  36.420  40.943   1.721
30070W        W93838  39.469  37.050   4.793
30071W        W93839  24.652  26.068   1.364
30072W        W93840  40.523  22.170   0.481
30073W        W93841  37.915  28.454  12.900
30074W        W93842  40.463  32.617   1.440
30075W        W93843  18.113  19.677  14.427
30076W        W93844  41.817  12.678  12.888
30077W        W93845  34.377   7.385  10.489
30078W        W93846   5.751   8.162  12.580
30079W        W93847  44.949  25.185  13.829
30080W        W93848  28.175  44.261  10.032
30081W        W93849  32.140  10.292  12.580
30082W        W93850   9.159  38.331   1.840
30083W        W93851   8.835  34.079   4.799
30084W        W93852  16.808  10.656  11.938
30085W        W93853  42.861  12.628  11.095
30086W        W93854  27.490  24.194  13.841
30087W        W93855  11.721   6.705   0.790
30088W        W93856  39.506  25.064  14.320
30089W        W93857   2.335  25.117  12.428
30090W        W93858  35.964  13.719   3.318
30091W        W93859  25.155  12.288  14.881
30092W        W93860  26.556  41.494  13.501
30093W        W93861   4.892  29.554   3.717
30094W        W93862   8.282  30.916   2.864
30095W        W93863  38.840  10.286   0.938
30096W        W93864  40.993  19.543   5.195
30097W        W93865  19.105  38.940   4.351
30098W        W93866  30.594  38.435  10.415
30099W        W93867  39.945   1.887   0.441
30100W        W93868  38.492  16.118  13.844
30101W        W93869  23.593  37.519  11.538
30102W        W93870   8.734  24.064   5.280
30103W        W93871  17.597  15.743  14.952
30104W        W93872  27.957  35.433   4.645
30105W        W93873   7.270  22.028   2.184
30106W        W93874  19.045  38.840   3.707
30107W        W93875  32.467   8.694   2.841
30108W        W93876  43.469  16.189  14.932
30109W        W93877   3.364  27.048   3.297
30110W        W93878  20.178   2.270  12.554
30111W        W93879  15.177  44.505   2.409
30112W        W93880  44.951  22.151   2.269
30113W        W93881  21.262  14.734  14.910
30114W        W93882  29.567   7.777   2.719
30115W        W93883   1.874  20.562  12.069
30116W        W93884  33.593  21.101  14.311
30117W        W93885  13.345  41.889   1.935
30118W        W93886  43.965   2.914   4.614
30119W        W93887  34.069  22.587   3.850
30120W        W93888  27.559  16.287   0.429
30121W        W93889  11.805   2.394   1.277
30122W        W93890   3.349   6.867  14.313
30123W        W93891   3.913  37.548  14.832
30124W        W93892  17.256   2.896  14.895
30125W        W93893   7.392  31.459   3.724
30126W        W93894  31.969  41.344   2.337
30127W        W93895  12.667  43.281  13.444
30128W        W93896   5.355   5.363   2.316
30129W        W93897  44.850   1.355  13.461
30130W        W93898  15.324  35.959  12.900
30131W        W93899  42.434  11.326  12.419
30132W        W93900  22.607  25.561   4.711
30133W        W93901  10.716  15.315   2.235
30134W        W93902  25.971   5.728   0.363
30135W        W93903  21.696  42.374  14.355
30136W        W93904  10.318  21.168  14.286
30137W        W93905   8.373  14.599   2.309
30138W        W93906  37.346  39.363  12.472
30139W        W93907  40.979  17.716   0.813
30140W        W93908  44.954   7.339  13.486
30141W        W93909  40.425   6.852   3.805
30142W        W93910  16.124   8.331   0.792
30143W        W93911  17.116  22.069   2.785
30144W        W93912  32.410   7.281   4.626
30145W        W93913  13.336  12.822   3.206
30146W        W93914   9.230  25.993  10.902
30147W        W93915  43.456   0.437   0.331
30148W        W93916  34.392  10.145  12.890
30149W        W93917   0.305  12.723   3.672
30150W        W93918  30.634  12.184   1.700
30151W        W93919   3.917  30.084  11.862
30152W        W93920   4.722  41.387  12.906
30153W        W93921   0.975  14.113  12.990
30154W        W93922   1.920  38.489   1.444
30155W        W93923  21.726   2.318  11.113
30156W        W93924  21.237  32.962  12.407
30157W        W93925   1.457  25.690   2.198
30158W        W93926  31.986  41.916   4.300
30159W        W93927   1.903  10.723   2.805
30160W        W93928  26.686   4.368  11.977
30161W        W93929  20.196  17.561   2.315
30162W        W93930  36.515  15.111  12.413
30163W        W93931   9.873  27.495   0.809
30164W        W93932  23.554  12.692  12.058
30165W        W93933   5.214  19.151   4.212
30166W        W93934   1.299  43.402  14.403
30167W        W93935  31.014  10.648  13.036
30168W        W93936  18.189  25.603  10.930
30169W        W93937  26.084  44.497  14.444
30170W        W93938  11.687  27.589   1.233
30171W        W93939  35.078  39.473   4.276
30172W        W93940  17.191   3.337  13.391
30173W        W93941  13.767  34.414   3.779
30174W        W93942  36.483   2.920   3.220
30175W        W93943  35.004  29.936  13.404
30176W        W93944   8.292  17.279   1.414
30177W        W93945  36.579  28.511   4.257
30178W        W93946  14.209  29.578  10.414
30179W        W93947  25.002   8.185   1.829
30180W        W93948   7.909  42.344  14.809
30181W        W93949   3.448   9.772  11.010
30182W        W93950  31.000   7.385  10.909
30183W        W93951  42.915  17.733  12.972
30184W        W93952  36.358  12.244  13.319
30185W        W93953  43.480  22.669   1.836
30186W        W93954  21.027  15.802  12.928
30187W        W93955  44.374  19.229  11.893
30188W        W93956  33.566  26.164  13.045
30189W        W93957   2.373  28.076   1.781
30190W        W93958  44.872   5.886   0.794
30191W        W93959  10.370  30.545  12.907
30192W        W93960  19.105  22.741   0.258
30193W        W93961  28.652  43.941   2.241
30194W        W93962  34.585  11.816  13.912
30195W        W93963  40.341   7.846   0.828
30196W        W93964  26.496  31.897  13.060
30197W        W93965   3.315  17.674  12.078
30198W        W93966  15.262  16.220   4.184
30199W        W93967  36.063  33.896  10.407
30200W        W93968   2.867  36.461   0.327
30201W        W93969  11.360  28.184  11.065
30202W        W93970  33.563   1.804  13.999
30203W        W93971  23.009  27.599  14.331
30204W        W93972  29.537  11.744  14.339
30205W        W93973  39.021  37.996  14.018
30206W        W93974  34.030  24.991  14.966
30207W        W93975  10.721  31.935   1.264
30208W        W93976   3.348  15.630  12.918
30209W        W93977   9.828  24.020  12.466
30210W        W93978   4.755  22.721   5.113
30211W        W93979  22.043   9.728  12.898
30212W        W93980   7.324   1.774  13.440
30213W        W93981   8.235  21.682  12.845
30214W        W93982   9.663  37.975  10.535
30215W        W93983   6.340  38.429   4.195
30216W        W93984  43.956   9.859   4.312
30217W        W93985  35.554  40.347   4.119
30218W        W93986  12.848  39.019   0.309
30219W        W93987  39.063  11.688   0.867
30220W        W93988  13.262  37.041  10.989
30221W        W93989  29.479  13.300  13.803
30222W        W93990  32.628  23.714  13.823
30223W        W93991  24.068  25.150  14.882
30224W        W93992   6.387  34.453   2.414
30225W        W93993  24.692  11.263   9.579
30226W        W93994  25.499  24.200   1.853
30227W        W93995   7.335  36.439  12.526
30228W        W93996  39.337   9.365   5.136
30229W        W93997  20.553  38.522  10.913
30230W        W93998  35.082   5.798  14.978
30231W        W93999  17.146  29.618   4.310
30232W        W94000  35.867  30.441  13.374
30233W        W94001  24.514  14.334   1.242
30234W        W94002  36.374  21.170  12.404
30235W        W94003  41.373  13.273  12.003
30236W        W94004  34.501  19.668   4.825
30237W        W94005  22.168   4.793  14.315
30238W        W94006   8.657  34.092  14.386
30239W        W94007  38.353  12.764   2.271
30240W        W94008   7.186  35.479  12.877
30241W        W94009  20.762  43.388  10.430
30242W        W94010  24.049  32.496  12.474
30243W        W94011  29.478   6.373   4.244
30244W        W94012  17.573  20.268   2.325
30245W        W94013  20.041  14.833   2.320
30246W        W94014  14.321  18.227  13.321
30247W        W94015  42.390  13.672  13.440
30248W        W94016  26.659  16.760   3.837
30249W        W94017  18.725  35.924  14.012
30250W        W94018  24.513   2.853  14.759
30251W        W94019   6.765  22.669   2.723
30252W        W94020  20.236  21.182  11.438
30253W        W94021  37.831  33.029   1.423
30254W        W94022   9.685  26.970   3.263
30255W        W94023  13.668  32.472  10.483
30256W        W94024  26.999  11.642  11.063
30257W        W94025  32.515  28.962   0.413
30258W        W94026  29.440  13.673  14.758
30259W        W94027   8.880   7.741  14.459
30260W        W94028  40.920  36.925  13.373
30261W        W94029  22.185  28.982  10.517
30262W        W94030   5.382  15.732  10.454
30263W        W94031  20.142  35.509   1.801
30264W        W94032  40.936  26.956   3.214
30265W        W94033  40.825  21.164   0.452
30266W        W94034   3.298  35.015   3.162
30267W        W94035  38.988   2.926  14.878
30268W        W94036  31.524   8.238   1.389
30269W        W94037  30.104  43.994  11.003
30270W        W94038   3.714   0.943   3.263
30271W        W94039  38.532  19.651  11.007
30272W        W94040  15.297  12.685   0.813
30273W        W94041  32.637  17.105   4.258
30274W        W94042  38.499  23.220  10.597
30275W        W94043  16.144  26.526   5.170
30276W        W94044  35.872   8.840   0.821
30277W        W94045   4.360   3.347   1.874
30278W        W94046  29.463  27.080   3.217
30279W        W94047  10.693  21.095   1.701
30280W        W94048  10.217  24.155   1.855
30281W        W94049  43.813  29.484   0.785
30282W        W94050   9.388  22.630  14.877
30283W        W94051  20.688  17.280  14.385
30284W        W94052   7.268   1.917  13.865
30285W        W94053  13.668  22.734  11.426
30286W        W94054  41.531  10.651   2.761
30287W        W94055  30.086  29.056   4.629
30288W        W94056  14.244  26.999   0.317
30289W        W94057  13.325  33.085   3.811
30290W        W94058  29.028  21.718   2.745
30291W        W94059  14.769   6.883   4.679
30292W        W94060  22.689   8.680   4.195
30293W        W94061   8.240  37.459   1.278
30294W        W94062  25.470   8.873  13.380
30295W        W94063  36.031  40.493   1.408
30296W        W94064  42.890  12.208   1.287
30297W        W94065  18.632   8.240  10.524
30298W        W94066  18.659  42.439  10.466
30299W        W94067  13.720  16.629   2.229
30300W        W94068   2.382  42.798   4.124
30301W        W94069  35.887   7.322   1.873
30302W        W94070  33.438  24.049   2.820
30303W        W94071  44.967  33.007  10.440
30304W        W94072  16.577  18.557  12.536
30305W        W94073  34.064   4.297   4.344
30306W        W94074  22.709  24.608   4.613
30307W        W94075  21.529  32.054   3.672
30308W        W94076  11.348  33.566   1.927
30309W        W94077  29.441  20.576  13.328
30310W        W94078  16.193  28.666  12.499
30311W        W94079   9.786  29.459   1.879
30312W        W94080  22.158  39.349   1.255
30313W        W94081  26.673   3.360  10.021
30314W        W94082  35.003  35.462   1.756
30315W        W94083  38.474  33.120   4.752
30316W        W94084  30.943  35.044   2.238
30317W        W94085  14.156  20.048   0.960
30318W        W94086  38.448  37.489  12.412
30319W        W94087  34.959  19.067   0.916
30320W        W94088  19.619  36.075   1.411
30321W        W94089  15.688  16.195   0.280
30322W        W94090  22.564  19.582   2.189
30323W        W94091   1.839   8.368   0.917
30324W        W94092  17.556  11.250   3.781
30325W        W94093  38.054  38.481  13.374
30326W        W94094  33.085  31.054   2.376
30327W        W94095  26.072  33.075  11.465
30328W        W94096  20.091  40.350  13.999
30329W        W94097  32.080  19.101  11.010
30330W        W94098  17.800  38.417  13.860
30331W        W94099   0.421   5.742   0.947
30332W        W94100   2.861   4.738  13.861
30333W        W94101   7.867   5.823  10.999
30334W        W94102  18.061  36.057  10.543
30335W        W94103  35.966  19.579   0.384
30336W        W94104  40.510  35.536   3.280
30337W        W94105  41.919  10.146   2.727
30338W        W94106   1.399  34.949   2.832
30339W        W94107   0.302  20.657  10.495
30340W        W94108   1.826   9.865   0.739
30341W        W94109   7.280  28.609   2.879
30342W        W94110  30.150  12.647   1.781
30343W        W94111  16.150  23.502  12.865
30344W        W94112   6.214  25.199   3.764
30345W        W94113  12.653  25.148  12.886
30346W        W94114  35.549  21.103   1.880
30347W        W94115  39.358  37.875  11.523
30348W        W94116   4.753  15.762  11.066
30349W        W94117   9.308  22.027   2.218
30350W        W94118   1.764  28.585   1.820
30351W        W94119   7.353  34.555   0.798
30352W        W94120  14.763  18.737   0.449
30353W        W94121  35.427   0.316  12.871
30354W        W94122  19.644  38.468   3.342
30355W        W94123  35.366  12.337   1.445
30356W        W94124  44.426  22.577  11.510
30357W        W94125  43.013   8.298  11.965
30358W        W94126  30.517  24.177   0.857
30359W        W94127   2.832  10.204  13.860
30360W        W94128  20.270  29.071  12.863
30361W        W94129   9.253  28.161   3.789
30362W        W94130  18.685  29.455   3.790
30363W        W94131  12.676  15.136  14.429
30364W        W94132  33.968  44.916   0.266
30365W        W94133   3.441  31.087  14.970
30366W        W94134  43.379  33.469  14.796
30367W        W94135  44.792  32.960   0.782
30368W        W94136  34.978  26.111  12.384
30369W        W94137  34.407   0.247   0.893
30370W        W94138  41.456  22.623   4.132
30371W        W94139   2.835  29.075   0.409
30372W        W94140  11.635  30.501   1.818
30373W        W94141  24.072  37.956   0.902
30374W        W94142  33.999  21.512   2.218
30375W        W94143  33.899   8.267   0.347
30376W        W94144  12.755  34.444  12.487
30377W        W94145   3.459  38.964   2.318
30378W        W94146   2.733  18.644  13.324
30379W        W94147  16.720  30.461   0.909
30380W        W94148  12.727  44.817   2.230
30381W        W94149  19.053  32.515  12.871
30382W        W94150  30.911  42.339  13.981
30383W        W94151   6.319  40.543  12.869
30384W        W94152  18.635  36.076  13.368
30385W        W94153  30.527  26.085  13.863
30386W        W94154  10.310  27.050   3.750
30387W        W94155  20.690  12.226   2.722
30388W        W94156  27.573  37.534   4.750
30389W        W94157   5.837  18.075   1.788
30390W        W94158  15.646  43.788   4.761
30391W        W94159  30.599  32.093   2.784
30392W        W94160  23.221   9.366  12.914
30393W        W94161  30.097  28.023  11.384
30394W        W94162  44.491   9.850   1.363
30395W        W94163  10.799  26.541   3.205
30396W        W94164  28.642  37.564   3.181
30397W        W94165  28.467  12.128  12.893
30398W        W94166  18.675  10.697  13.511
30399W        W94167   3.851   9.266  14.344
30400W        W94168  10.820  22.252   2.704
30401W        W94169  26.515  20.251   1.810
30402W        W94170   2.776  23.606  12.554
30403W        W94171  34.584   6.184   2.316
30404W        W94172  36.421  42.867  11.038
30405W        W94173  21.165  31.524   3.755
30406W        W94174   2.872  38.467   1.870
30407W        W94175  18.247  26.127   2.830
30408W        W94176  11.674  35.908  12.453
30409W        W94177  33.931  36.570   3.161
30410W        W94178  33.553  44.330   0.764
30411W        W94179   1.267  26.500   3.729
30412W        W94180  37.420  27.500  13.447
30413W        W94181   0.445  34.489  11.387
30414W        W94182  21.660  23.500  12.898
30415W        W94183  36.932  25.083  10.576
30416W        W94184  30.108  38.354  13.000
30417W        W94185   8.667  38.421  14.351
30418W        W94186   4.239  18.231  14.297
30419W        W94187  39.551  27.558  14.463
30420W        W94188   7.858  42.834  10.089
30421W        W94189   1.392  27.966   1.860
30422W        W94190  32.446  39.005  10.564
30423W        W94191  33.571   3.266   4.196
30424W        W94192  28.443  31.499  11.965
30425W        W94193  18.248  13.343   0.954
30426W        W94194  44.815  22.561  11.579
30427W        W94195   6.874  16.278   0.832
30428W        W94196  30.011  39.989   4.132
30429W        W94197  41.941  32.489   1.291
30430W        W94198  27.160  41.956   4.212
30431W        W94199  25.019  28.517  13.543
30432W        W94200  41.035  34.990   3.818
30433W        W94201  24.990  37.537   2.797
30434W        W94202  39.051   8.858   5.236
30435W        W94203  38.923  11.677   1.844
30436W        W94204   9.788  43.314  14.380
30437W        W94205  22.674  38.338   1.860
30438W        W94206  36.419  29.992   0.265
30439W        W94207   7.728  27.499  14.854
30440W        W94208   7.240  23.646  10.423
30441W        W94209  22.582  41.333   4.325
30442W        W94210  27.575  12.843   9.951
30443W        W94211  24.565  21.688   1.372
30444W        W94212  39.539  43.970  11.558
30445W        W94213  28.978  28.073  12.962
30446W        W94214  39.924  39.525   1.872
30447W        W94215  30.998  14.271   0.373
30448W        W94216  24.512  26.591   3.174
30449W        W94217  10.362  22.521   3.174
30450W        W94218  26.001  24.167  14.923
30451W        W94219  18.653  40.894  10.561
30452W        W94220  38.831   6.694   4.226
30453W        W94221  24.625  37.984  13.854
30454W        W94222  30.592   5.806   3.761
30455W        W94223   1.740  35.448  13.842
30456W        W94224  19.762  10.711   2.893
30457W        W94225  42.901   6.286  12.887
30458W        W94226  29.608  12.318  12.519
30459W        W94227  20.272   0.318  10.642
30460W        W94228   0.937  28.671   4.784
30461W        W94229  19.039  19.743  13.931
30462W        W94230   2.804  37.353  13.990
30463W        W94231  21.101  41.951   5.172
30464W        W94232   3.439  26.539   2.795
30465W        W94233  32.480  38.963   1.714
30466W        W94234  35.908   3.353  14.994
30467W        W94235  11.757  16.194  11.112
30468W        W94236  17.115  41.033  11.909
30469W        W94237  33.509  31.987   5.290
30470W        W94238   6.292  26.646   3.745
30471W        W94239  27.010  27.688   4.702
30472W        W94240  24.983  17.797  12.438
30473W        W94241  17.153  32.424  14.430
30474W        W94242  23.599  31.578  12.969
30475W        W94243   6.399  26.030  13.896
30476W        W94244   5.697  28.552  12.965
30477W        W94245  42.519  35.490  12.406
30478W        W94246  37.474  31.537   2.719
30479W        W94247  13.605  34.921  12.841
30480W        W94248  28.143   1.359   4.709
30481W        W94249  12.759  26.490  13.324
30482W        W94250  41.003  18.257  13.831
30483W        W94251   1.477  29.016  11.439
30484W        W94252  42.457  36.381   4.201
30485W        W94253  29.611   1.287  14.396
30486W        W94254   2.231  11.644   3.785
30487W        W94255  28.439   2.888   2.344
30488W        W94256   0.814  20.186   3.832
30489W        W94257  36.483  11.789  14.308
30490W        W94258   9.751   7.733   0.949
30491W        W94259  22.173   7.284  13.857
30492W        W94260  18.579  28.161  10.611
30493W        W94261  38.836  34.381   1.892
30494W        W94262  34.091   8.662   3.273
30495W        W94263  37.523   8.332  14.467
30496W        W94264   8.316  40.847  11.047
30497W        W94265   7.292  24.695  11.498
30498W        W94266  23.992  32.609  13.942
30499W        W94267   6.814  13.700  11.964
30500W        W94268  38.887  13.234   2.845
30501W        W94269  31.412  40.430  13.396
30502W        W94270  32.070  21.048  12.968
30503W        W94271   0.399  31.134   4.624
30504W        W94272  37.361  23.511  14.794
30505W        W94273  41.956  24.120  10.593
30506W        W94274   2.964  30.077   4.686
30507W        W94275  12.702  19.115   1.271
30508W        W94276  23.984  12.837   3.724
30509W        W94277   2.871  25.510  10.517
30510W        W94278  30.501  29.158  12.524
30511W        W94279  14.629  27.048   1.439
30512W        W94280  29.623  14.596  10.575
30513W        W94281  25.653  14.820   2.270
30514W        W94282  44.303  14.742  12.359
30515W        W94283  26.127  32.441   4.827
30516W        W94284  38.438  13.785   3.364
30517W        W94285  25.581   0.439  11.572
30518W        W94286  22.048  22.226  12.486
30519W        W94287  18.773  34.969   0.867
30520W        W94288  26.459  14.695  13.845
30521W        W94289  24.629  31.559   2.847
30522W        W94290  13.211   9.260  12.046
30523W        W94291  24.097   6.185   0.825
30524W        W94292  28.522   7.400  14.461
30525W        W94293   2.410  40.509  10.005
30526W        W94294  31.968  19.607   2.255
30527W        W94295  28.062   1.299  10.943
30528W        W94296  12.333   4.401   1.407
30529W        W94297  35.434  26.502   2.381
30530W        W94298  30.607  37.027  12.467
30531W        W94299  13.603   3.749   1.922
30532W        W94300  22.543  12.355   4.310
30533W        W94301  20.724  10.651   3.749
30534W        W94302  31.581   1.751  14.761
30535W        W94303  11.844  34.889   3.351
30536W        W94304  35.462  23.640  10.990
30537W        W94305  39.351   2.301   0.911
30538W        W94306  40.806   4.248  12.023
30539W        W94307  39.847   9.176   3.252
30540W        W94308   3.954  43.351   4.708
30541W        W94309   3.238  29.107  13.043
30542W        W94310  13.200   8.769   0.434
30543W        W94311   2.358  34.372  12.533
30544W        W94312  17.174  15.206   3.291
30545W        W94313  34.077  32.105   4.316
30546W        W94314  20.205  13.753   0.311
30547W        W94315   5.730  25.073  11.577
30548W        W94316  32.473  22.723  12.512
30549W        W94317  20.174  33.411   2.315
30550W        W94318  38.383  32.887  12.534
30551W        W94319  41.487  27.186   2.278
30552W        W94320  28.455  44.984   0.399
30553W        W94321  21.671  22.250   4.727
30554W        W94322  26.961  14.175   1.860
30555W        W94323  11.174  19.717   3.385
30556W        W94324  18.653  34.553  11.425
30557W        W94325  27.557  25.699  14.951
30558W        W94326   9.710  23.637  10.527
30559W        W94327  10.208  40.423  13.922
30560W        W94328  40.424  23.565  10.989
30561W        W94329   5.218  26.547   1.274
30562W        W94330  25.130  32.393  13.939
30563W        W94331  29.065  26.596  11.119
30564W        W94332  43.454   0.374  10.548
30565W        W94333  42.527  32.611   4.349
30566W        W94334  22.198  37.517  13.434
30567W        W94335  24.683  34.120  13.483
30568W        W94336  33.555   0.850   4.768
30569W        W94337  40.362  16.256   3.293
30570W        W94338  20.618   6.820   0.411
30571W        W94339  30.109  39.905  14.496
30572W        W94340  28.563   7.386   2.305
30573W        W94341  21.597  21.077   3.841
30574W        W94342  43.020  38.398  10.997
30575W        W94343  23.115  14.636  11.890
30576W        W94344  21.524  18.579  10.457
30577W        W94345   1.442   8.346   4.761
30578W        W94346  19.615   3.889  10.562
30579W        W94347  30.547  37.016   1.918
30580W        W94348  36.963  28.087   3.772
30581W        W94349  28.512  27.627   2.777
30582W        W94350  44.426  42.369   3.734
30583W        W94351  27.609  42.514   1.345
30584W        W94352  40.374  12.721   2.885
30585W        W94353  42.947  37.531  13.794
30586W        W94354  32.609   5.758  14.852
30587W        W94355  40.844  33.945  12.569
30588W        W94356  31.913   8.402  13.935
30589W        W94357  24.687   6.419  12.392
30590W        W94358  23.161  24.509  13.354
30591W        W94359  38.835  23.006   1.858
30592W        W94360  41.887  43.975   3.698
30593W        W94361  28.058  42.451  11.895
30594W        W94362  25.999  26.463   4.699
30595W        W94363  41.023  23.685  14.276
30596W        W94364  40.987  39.347  11.049
30597W        W94365  20.746   0.352  12.058
30598W        W94366  33.451  39.552  13.857
30599W        W94367  38.856  22.221   2.403
30600W        W94368  20.691   9.200  13.807
30601W        W94369  40.877  35.100   0.273
30602W        W94370  26.992   2.331  14.760
30603W        W94371  23.003  29.003   3.168
30604W        W94372   8.699  37.952  13.337
30605W        W94373  11.217  27.030  13.889
30606W        W94374  21.126  24.649   4.179
30607W        W94375  44.369  24.018   9.998
30608W        W94376  40.949  41.377   3.669
30609W        W94377  41.865  32.431   2.272
30610W        W94378  18.657  11.758   3.790
30611W        W94379  31.587   1.306   3.253
30612W        W94380  17.231  35.000   4.253
30613W        W94381  21.738   2.937   2.699
30614W        W94382  30.552  38.523  10.917
30615W        W94383  38.005  25.167  13.876
30616W        W94384  12.138  21.520  14.861
30617W        W94385  26.969  36.894  13.340
30618W        W94386  31.931  11.293  11.088
30619W        W94387  12.829  43.864   3.261
30620W        W94388   3.808  26.488  10.481
30621W        W94389   2.956  28.947  12.366
30622W        W94390  37.010   1.446  14.286
30623W        W94391  15.612  31.626   3.362
30624W        W94392  16.733  41.393   0.463
30625W        W94393  30.019   1.433   2.805
30626W        W94394  26.548  22.633  11.895
30627W        W94395  35.475  15.815   1.272
30628W        W94396  14.725  24.527   0.849
30629W        W94397  28.009  10.159  14.760
30630W        W94398   3.284  20.535   0.845
30631W        W94399   8.192  20.100   3.252
30632W        W94400  27.521   9.860   1.338
30633W        W94401  44.989   5.250   1.332
30634W        W94402  25.539  39.011  12.863
30635W        W94403   1.409   5.920  11.435
30636W        W94404   7.854  11.815   2.201
30637W        W94405  43.334  24.997  12.914
30638W        W94406  39.901  12.707   2.788
30639W        W94407  39.938  18.548   3.863
30640W        W94408  29.569  29.096  11.985
30641W        W94409  38.421   1.760  12.877
30642W        W94410  21.121  23.128   2.662
30643W        W94411  13.203   3.923   0.950
30644W        W94412  24.587  28.177   1.361
30645W        W94413  38.040  31.002   0.345
30646W        W94414  24.000  42.389   3.810
30647W        W94415  35.522  24.072   3.863
30648W        W94416   1.387  28.523  12.459
30649W        W94417  26.686  35.062   3.282
30650W        W94418  23.090  37.992   0.368
30651W        W94419  15.096   2.453   4.307
30652W        W94420  40.410  25.580  12.884
30653W        W94421  31.013  19.546  14.822
30654W        W94422  26.160  44.421   2.254
30655W        W94423   5.331  14.657  10.489
30656W        W94424  15.611  30.950   1.352
30657W        W94425  21.071   4.905  14.358
30658W        W94426  15.696  44.869  11.897
30659W        W94427  34.444  23.548  12.353
30660W        W94428  42.788  30.511   3.761
30661W        W94429  10.645  13.225  12.409
30662W        W94430   1.312   9.779  12.457
30663W        W94431  18.611   3.751   1.706
30664W        W94432  40.387  15.602   9.969
30665W        W94433   9.153  36.372  12.909
30666W        W94434  44.452  37.977   1.351
30667W        W94435  43.411  22.588   2.727
30668W        W94436  35.067   2.296   4.733
30669W        W94437  36.990  20.706  10.637
30670W        W94438   7.690  32.613  12.928
30671W        W94439  24.217  40.413  10.594
30672W        W94440  35.082  28.079   2.351
30673W        W94441   9.263   3.927  11.435
30674W        W94442  18.687  23.073  14.032
30675W        W94443  33.419  22.185  12.052
30676W        W94444  31.610  41.876   3.671
30677W        W94445   1.238  23.631  12.893
30678W        W94446  34.992  37.065  12.876
30679W        W94447   9.739  10.138   1.219
30680W        W94448  21.529  35.055   1.317
30681W        W94449  27.182  29.441  13.957
30682W        W94450  35.566  38.344   1.315
30683W        W94451  13.628  14.641  14.796
30684W        W94452  10.691  32.091  12.528
30685W        W94453  28.635  16.690   1.243
30686W        W94454  17.068  10.771  13.397
30687W        W94455  24.016  24.212   1.334
30688W        W94456  27.537  22.067   3.347
30689W        W94457  30.646  36.059   2.763
30690W        W94458  15.140  23.719  14.426
30691W        W94459  43.912  32.635   4.829
30692W        W94460  33.533  16.272   9.590
30693W        W94461   8.321   4.894  13.493
30694W        W94462  37.555  17.215  11.419
30695W        W94463  25.614  34.020   1.900
30696W        W94464  28.123  27.524   1.395
30697W        W94465  21.158  11.243  10.006
30698W        W94466  21.654  38.419  11.585
30699W        W94467  40.323   0.442   2.782
30700W        W94468  41.824  20.129   4.195
30701W        W94469  43.851   4.423  12.024
30702W        W94470  44.322  42.957   3.827
30703W        W94471  34.886  36.966   0.874
30704W        W94472  40.486  11.183   4.656
30705W        W94473  12.768  28.504   1.747
30706W        W94474  40.369  21.719  12.035
30707W        W94475  27.678  28.487   2.294
30708W        W94476  12.120  10.701   1.229
30709W        W94477  24.151  13.331   4.346
30710W        W94478  13.674  17.220  11.423
30711W        W94479  27.117  41.951   0.823
30712W        W94480  17.719  37.980   3.814
30713W        W94481  44.290  11.695   3.784
30714W        W94482  20.170   4.207  10.942
30715W        W94483  30.462  22.713  11.594
30716W        W94484  15.136  11.135   0.286
30717W        W94485   3.318  38.515  14.509
30718W        W94486  18.739  37.449   1.747
30719W        W94487   9.753   2.742   3.785
30720W        W94488  29.947  30.142   4.301
30721W        W94489  17.712  42.808   1.820
30722W        W94490  18.652  22.526  10.441
30723W        W94491  25.571   1.269   3.253
30724W        W94492  14.727  10.178   2.885
30725W        W94493  21.114  23.143  12.539
30726W        W94494  34.375  29.956   3.827
30727W        W94495  24.100  33.941  11.496
30728W        W94496  14.615  41.509  13.827
30729W        W94497  39.815  17.578  13.039
30730W        W94498  13.175  22.617   2.713
30731W        W94499  23.597  29.954  14.391
30732W        W94500  34.043  17.093  13.924
30733W        W94501   6.407  38.041   0.938
30734W        W94502  16.130   6.276   2.679
30735W        W94503  39.346  29.925  14.955
30736W        W94504  28.670  28.148  10.554
30737W        W94505  38.554  25.106  10.543
30738W        W94506  39.811  16.242  10.947
30739W        W94507  29.656  32.538  12.845
30740W        W94508  25.533  21.213   0.293
30741W        W94509   0.346  24.540   1.704
30742W        W94510   3.912   1.412   0.907
30743W        W94511   4.415  26.477   1.372
30744W        W94512   7.234  15.789   1.834
30745W        W94513  32.007  22.155  10.607
30746W        W94514  27.967  12.803  13.408
30747W        W94515  26.102   4.913   0.305
30748W        W94516  28.159  35.417  13.933
30749W        W94517  39.041   1.864  12.547
30750W        W94518  25.687  23.720  10.006
30751W        W94519  32.490   4.764  11.378
30752W        W94520  41.960  32.951   3.346
30753W        W94521   9.838  23.046  14.433
30754W        W94522  13.837   1.415  10.910
30755W        W94523   0.918   3.848   3.668
30756W        W94524  21.094  38.455  12.004
30757W        W94525  24.131  32.528   4.650
30758W        W94526   9.775  43.979  14.923
30759W        W94527  32.455  19.151  10.907
30760W        W94528  35.963  19.156  13.391
30761W        W94529  21.137  26.562   1.895
30762W        W94530   4.864  20.064   4.300
30763W        W94531  41.017  19.204  13.959
30764W        W94532   5.235  15.124   4.206
30765W        W94533  33.514  26.184   4.199
30766W        W94534  30.466   0.823   3.721
30767W        W94535  13.162   8.825   4.136
30768W        W94536  15.604   0.745   0.459
30769W        W94537  22.999  36.463   0.796
30770W        W94538  12.642   8.376   1.782
30771W        W94539  23.241  29.531  14.029
30772W        W94540  11.755   2.435  11.053
30773W        W94541  34.088   8.346   4.219
30774W        W94542  32.102  17.307  14.347
30775W        W94543  26.594  14.164  13.476
30776W        W94544  21.136   8.780  12.421
30777W        W94545  43.458  34.913  14.911
30778W        W94546  12.163  14.291  10.073
30779W        W94547  19.187   6.392   1.260
30780W        W94548   3.219   5.723   4.299
30781W        W94549  16.607  16.208  14.288
30782W        W94550  13.808  34.937  10.989
30783W        W94551  43.986   6.257  11.935
30784W        W94552  10.312  10.718  11.058
30785W        W94553  37.842   9.664  14.423
30786W        W94554  15.140  28.606   0.476
30787W        W94555  23.061   7.263   0.319
30788W        W94556   5.777  40.496   4.702
30789W        W94557  19.662  22.063   0.734
30790W        W94558  36.424  17.751  10.510
30791W        W94559   1.289  38.879  13.794
30792W        W94560   2.739  35.957   1.782
30793W        W94561  21.132  35.897   3.244
30794W        W94562  29.515  27.631  14.877
30795W        W94563  25.149  22.186  14.023
30796W        W94564   3.261   8.704  13.385
30797W        W94565  25.150   7.709  10.566
30798W        W94566  23.654  40.393  13.402
30799W        W94567  14.203   4.263  11.091
30800W        W94568  24.723   8.187   4.352
30801W        W94569  26.480  28.080   4.610
30802W        W94570  30.028  13.242  10.604
30803W        W94571  34.987  36.962   1.354
30804W        W94572   6.841  37.375   1.271
30805W        W94573  27.013  42.375   1.834
30806W        W94574  24.615  13.256   1.722
30807W        W94575  36.922  26.031  14.332
30808W        W94576  19.635  17.130  13.858
30809W        W94577  35.913   5.357   3.742
30810W        W94578   4.802  13.721   0.472
30811W        W94579   7.268  30.043   1.238
30812W        W94580  22.628  43.475  13.806
30813W        W94581  35.429  15.303   4.339
30814W        W94582  21.191  34.067   3.747
30815W        W94583   3.898  38.452  12.858
30816W        W94584  17.765  22.140  10.999
30817W        W94585  32.533  20.581  12.897
30818W        W94586  36.055  32.414   1.725
30819W        W94587  27.998  40.317   5.283
30820W        W94588   8.711  19.134  12.483
30821W        W94589  37.339  31.977  13.923
30822W        W94590   7.236  31.044  12.067
30823W        W94591  35.065   7.288  12.919
30824W        W94592  30.438  31.483   3.742
30825W        W94593  42.947  29.618   2.187
30826W        W94594  13.610  41.020   2.272
30827W        W94595  12.824  19.682   2.318
30828W        W94596  29.550  35.410  12.930
30829W        W94597  42.873  11.367  13.534
30830W        W94598  29.071  41.448  14.507
30831W        W94599  22.010  39.047  10.444
30832W        W94600  10.844  35.867  10.956
30833W        W94601  18.744   6.361   2.733
30834W        W94602  19.048  29.002  10.990
30835W        W94603  25.578  39.472   3.246
30836W        W94604  36.478   5.386   3.694
30837W        W94605  19.643  12.294  14.500
30838W        W94606  44.280  22.105   4.619
30839W        W94607  11.184  33.465  14.411
30840W        W94608  15.665  18.201  13.541
30841W        W94609   7.717  13.253   0.818
30842W        W94610   3.303  43.352   1.812
30843W        W94611   3.307  43.405  13.031
30844W        W94612  36.482   1.798   2.245
30845W        W94613  39.544  22.575  14.362
30846W        W94614  16.137   0.844  14.962
30847W        W94615  12.135  23.571   1.370
30848W        W94616  44.467  13.794  11.958
30849W        W94617   0.916  42.822   0.860
30850W        W94618  44.390   7.336   3.842
30851W        W94619   7.729  33.565   9.956
30852W        W94620  43.465  28.678  14.444
30853W        W94621  28.999  10.722   1.419
30854W        W94622   3.713  21.095  14.866
30855W        W94623   9.278  24.102  11.861
30856W        W94624   2.832  18.682   0.259
30857W        W94625  17.593   1.398  11.971
30858W        W94626  19.633  23.100  11.991
30859W        W94627  43.279  11.691  13.323
30860W        W94628  28.184  12.730   2.886
30861W        W94629  41.840   1.755  14.842
30862W        W94630   1.967   8.778   0.286
30863W        W94631  37.388  14.619  14.786
30864W        W94632  36.592  27.686  10.434
30865W        W94633  30.551   1.745   3.795
30866W        W94634   7.876   3.940  10.497
30867W        W94635   8.304  30.929  11.903
30868W        W94636  11.776  13.211  12.054
30869W        W94637  22.081  37.577   4.320
30870W        W94638  31.472   6.742  11.580
30871W        W94639  10.733   7.379  14.788
30872W        W94640   2.927  30.957  11.084
30873W        W94641  23.691  15.293  12.437
30874W        W94642  12.299  28.101   2.368
30875W        W94643   5.246  27.995   2.814
30876W        W94644  38.555  13.837  12.965
30877W        W94645   7.297   8.681  11.391
30878W        W94646   4.791  34.560  12.420
30879W        W94647  24.587  24.606   2.677
30880W        W94648  35.415  22.647  12.829
30881W        W94649  43.966  15.322  12.021
30882W        W94650  43.879  42.338   0.442
30883W        W94651   2.394  12.153  13.408
30884W        W94652  21.719  10.188   2.836
30885W        W94653   6.182  20.741   0.728
30886W        W94654  25.539  23.593  14.483
30887W        W94655  32.062  43.914   0.918
30888W        W94656  34.421  35.074  11.008
30889W        W94657  30.948  31.531   0.957
30890W        W94658  29.138  27.626   0.457
30891W        W94659  18.274  12.217   0.344
30892W        W94660  17.068  26.040   4.624
30893W        W94661  16.576  27.120   1.935
30894W        W94662  13.769  41.967   3.158
30895W        W94663  18.783  43.965   2.740
30896W        W94664  31.907   2.845  12.425
30897W        W94665  44.903  39.022  14.963
30898W        W94666   2.967   4.933  14.944
30899W        W94667   4.914  38.570   3.314
30900W        W94668  13.307  35.378  10.636
30901W        W94669  38.541   0.417  11.046
30902W        W94670  27.061   0.799  13.917
30903W        W94671   3.297  10.810   3.722
30904W        W94672  35.100  34.000  11.956
30905W        W94673  15.783   0.822   2.664
30906W        W94674  29.515  24.061  14.008
30907W        W94675  20.051  37.579   4.329
30908W        W94676   4.449  20.181   4.638
30909W        W94677  35.000  27.604  12.574
30910W        W94678  26.045  14.221   4.800
30911W        W94679  42.413  26.186   2.287
30912W        W94680   4.898  40.895   2.700
30913W        W94681  29.079   0.437   3.288
30914W        W94682  26.083   9.289  10.430
30915W        W94683  26.183  15.578  12.415
30916W        W94684   2.739  10.297   4.668
30917W        W94685  31.467  30.129   4.618
30918W        W94686  16.610  34.076  13.889
30919W        W94687   6.763  34.054   2.329
30920W        W94688  32.114   8.840   1.438
30921W        W94689  31.567  20.092  10.461
30922W        W94690  37.897  14.246  14.959
30923W        W94691  23.128   0.858   0.745
30924W        W94692  28.663  41.501   2.675
30925W        W94693  41.434  29.988   2.846
30926W        W94694  30.592   8.848  13.814
30927W        W94695  41.952  24.634  12.576
30928W        W94696   7.839  42.502   4.807
30929W        W94697   2.252  34.000  12.522
30930W        W94698  42.441  33.514   2.847
30931W        W94699  19.107  23.595   9.588
30932W        W94700  39.830  43.439  13.900
30933W        W94701   7.186  19.274   2.718
30934W        W94702  32.938  30.989   0.406
30935W        W94703  24.038  26.191  14.501
30936W        W94704  29.976  20.701   3.147
30937W        W94705  14.678  28.597  12.011
30938W        W94706  41.967  31.414   5.764
30939W        W94707  17.161  10.383   0.464
30940W        W94708   4.335  16.671   1.359
30941W        W94709   3.296  26.202   3.228
30942W        W94710  20.058  15.747   5.117
30943W        W94711  34.576  19.111  14.876
30944W        W94712  23.705   1.880  11.527
30945W        W94713  15.787  20.187  14.838
30946W        W94714  41.402  21.701  14.338
30947W        W94715  28.004  17.143   4.648
30948W        W94716  24.217  24.625   0.736
30949W        W94717   2.949   3.877   1.885
30950W        W94718  33.001  39.992  11.863
30951W        W94719   5.346  21.634  13.933
30952W        W94720  27.526  16.730   1.698
30953W        W94721   7.244   4.928   1.358
30954W        W94722  13.203  16.673   3.723
30955W        W94723  33.393   5.691  12.917
30956W        W94724  42.360   9.654   1.447
30957W        W94725  14.336  39.811  14.001
30958W        W94726   4.420   0.369   3.770
30959W        W94727  17.656  38.391   2.284
30960W        W94728   9.812  44.871   3.643
30961W        W94729  10.699   1.260  12.951
30962W        W94730  24.540  24.649  14.448
30963W        W94731  11.317  29.172   2.894
30964W        W94732  32.928  33.916   3.740
30965W        W94733  37.060   9.890   2.348
30966W        W94734  23.157  34.984  13.456
30967W        W94735  41.435  14.663   4.185
30968W        W94736   3.907  31.593   0.426
30969W        W94737  32.418   9.207   4.779
30970W        W94738  23.493  18.750  13.534
30971W        W94739  37.863  27.631   0.439
30972W        W94740  20.663   9.231   1.834
30973W        W94741  31.008  30.413   1.375
30974W        W94742   6.304  42.019  13.529
30975W        W94743  43.452  40.455   2.891
30976W        W94744  37.878   2.887   2.692
30977W        W94745  15.723  37.049   2.263
30978W        W94746  16.745  32.979  11.437
30979W        W94747  42.428  35.932  11.858
30980W        W94748  10.789  44.327   4.680
30981W        W94749  23.540  20.749   2.190
30982W        W94750   4.717   7.682   3.153
30983W        W94751   8.698   7.886   3.306
30984W        W94752  13.604  44.892   3.226
30985W        W94753  44.288  40.918   3.702
30986W        W94754  16.201  26.652  14.933
30987W        W94755  21.553  19.179   2.296
30988W        W94756  36.426  32.131   2.784
30989W        W94757  29.992  42.305   2.739
30990W        W94758  22.534  18.713  10.613
30991W        W94759  17.096  35.534  13.938
30992W        W94760  16.588  28.091   0.395
30993W        W94761   0.781  13.797   3.682
30994W        W94762  29.515  15.211  12.066
30995W        W94763   3.364   9.259   0.255
30996W        W94764  38.867  20.250   2.227
30997W        W94765  36.532  24.128  14.465
30998W        W94766  25.565  11.840   4.289
30999W        W94767  21.695  34.047   3.230
31000W        W94768  26.580  43.838   0.956
31001W        W94769  19.155  30.984  13.830
31002W        W94770  37.046  11.853   0.828
31003W        W94771  24.669  24.537   2.401
31004W        W94772  25.550  24.657   3.850
31005W        W94773  44.831  39.479  13.343
31006W        W94774  10.642  17.134  14.295
31007W        W94775  32.398   8.759   0.387
31008W        W94776  13.308  26.489  14.901
31009W        W94777   2.471  38.565   2.715
31010W        W94778   2.426   8.370   0.334
31011W        W94779  39.454  33.439  10.123
31012W        W94780  28.182   9.222   3.843
31013W        W94781  31.483  11.152   4.180
31014W        W94782  27.460  44.369  12.070
31015W        W94783  36.559   5.774   2.702
31016W        W94784   1.365   9.646   0.426
31017W        W94785  23.082  41.490  12.988
31018W        W94786  14.834  29.084   0.811
31019W        W94787   5.295  35.439   3.638
31020W        W94788   7.377   8.276   4.611
31021W        W94789  22.680   2.965  11.007
31022W        W94790  20.635  43.798   1.212
31023W        W94791  30.571  37.385   2.247
31024W        W94792   1.338  22.125  11.070
31025W        W94793  44.997  14.813   3.743
31026W        W94794  18.166  22.662   1.272
31027W        W94795  35.887  37.534   0.733
31028W        W94796  15.180  23.113   2.243
31029W        W94797  24.146  26.519  14.490
31030W        W94798  11.756  44.263   5.243
31031W        W94799  16.591  19.183  12.079
31032W        W94800   7.185   1.907  12.368
31033W        W94801  19.687   3.760   1.884
31034W        W94802   0.465   2.391   1.378
31035W        W94803  33.516  30.477   4.262
31036W        W94804   6.385  19.152  12.994
31037W        W94805   1.440  25.489  14.009
31038W        W94806  37.416  41.947  13.792
31039W        W94807  26.958  37.000   1.338
31040W        W94808  30.471  31.600  10.923
31041W        W94809  37.014  25.138   3.368
31042W        W94810  25.539  11.223  14.475
31043W        W94811  21.215  36.486   0.804
31044W        W94812   5.212   7.194  12.395
31045W        W94813  22.020  12.686   1.884
31046W        W94814  35.860   8.172   1.719
31047W        W94815  14.784  18.225   2.869
31048W        W94816  23.164  44.804   4.717
31049W        W94817  41.944  38.918  10.064
31050W        W94818  26.041  29.517  11.058
31051W        W94819  23.011   1.461   4.702
31052W        W94820  15.093  33.104   3.378
31053W        W94821  11.709  39.850   0.938
31054W        W94822  25.083  39.513  14.999
31055W        W94823  25.013  31.560  12.866
31056W        W94824  43.015  13.640   3.672
31057W        W94825   5.810  43.913  13.022
31058W        W94826  18.757   7.842  13.913
31059W        W94827  18.660   3.263  12.519
31060W        W94828  27.645  43.929   0.843
31061W        W94829  29.120  14.615  11.487
31062W        W94830  35.092  15.137   2.792
31063W        W94831  26.699  39.433  11.879
31064W        W94832  14.657  26.026  11.857
31065W        W94833  43.806   5.437   3.365
31066W        W94834  14.333  37.391  12.466
31067W        W94835  23.653   0.346  11.966
31068W        W94836  34.875  27.993   2.761
31069W        W94837  33.415  14.267   1.268
31070W        W94838  16.129   2.822   4.258
31071W        W94839  22.688   7.172  11.477
31072W        W94840  24.138   6.408  13.944
31073W        W94841  33.118  31.097  12.564
31074W        W94842  16.602  17.573   1.352
31075W        W94843   7.909  33.095   1.772
31076W        W94844  35.599   9.847   4.142
31077W        W94845   4.279  12.212   1.700
31078W        W94846  42.916  22.620   0.341
31079W        W94847  21.099  31.077   3.263
31080W        W94848  37.867  26.702  10.960
31081W        W94849   5.905   9.375   2.357
31082W        W94850  10.687   0.320   2.406
31083W        W94851  32.076  30.034   0.753
31084W        W94852   3.443   9.292  12.485
31085W        W94853   0.273  15.764  12.094
31086W        W94854  21.614  38.964  12.916
31087W        W94855   5.385   3.461  12.563
31088W        W94856   4.945  42.309  12.571
31089W        W94857  42.946  38.901   3.703
31090W        W94858   1.753  44.917  13.030
31091W        W94859   9.774  14.303  10.473
31092W        W94860  19.741  24.535   3.683
31093W        W94861  24.147  13.839   3.372
31094W        W94862   0.295  15.668   5.287
31095W        W94863  11.286  20.694   2.239
31096W        W94864   4.374  18.674  11.886
31097W        W94865  14.103  12.797  11.538
31098W        W94866   3.827  19.119  13.892
31099W        W94867   8.261  32.593  12.938
31100W        W94868  24.038  18.237  10.512
31101W        W94869   6.318  25.023  14.831
31102W        W94870   0.438  39.888   4.165
31103W        W94871   4.415  39.918  11.891
31104W        W94872  26.493  16.745   9.951
31105W        W94873   7.216  34.926   4.802
31106W        W94874   9.815  39.553   1.862
31107W        W94875  20.733  33.517  11.407
31108W        W94876  31.600  13.269  10.973
31109W        W94877  26.535  33.510  11.023
31110W        W94878  39.473   7.750   1.303
31111W        W94879   1.443  41.024   2.370
31112W        W94880   9.654  35.450   4.825
31113W        W94881  20.691   4.329  11.946
31114W        W94882  41.522  21.151   4.627
31115W        W94883  38.365  30.019   1.326
31116W        W94884  35.059  20.536  11.053
31117W        W94885  35.556   7.313  11.490
31118W        W94886  26.057  14.597   2.184
31119W        W94887  35.365  25.208  12.467
31120W        W94888  25.981  24.092   2.834
31121W        W94889  31.643  24.142   2.186
31122W        W94890   3.750   5.400   3.353
31123W        W94891  35.408  22.696   3.667
31124W        W94892  17.202   5.826   1.291
31125W        W94893   4.859  18.658   3.860
31126W        W94894  30.415  32.404  11.605
31127W        W94895  27.969  23.684  10.069
31128W        W94896  40.420  17.138   2.804
31129W        W94897   8.386  37.917   4.311
31130W        W94898  42.808  29.949  12.933
31131W        W94899  28.490   8.214   3.368
31132W        W94900  30.620  10.165  12.882
31133W        W94901  26.069  22.734   2.715
31134W        W94902   3.933  17.662  14.324
31135W        W94903   0.946  35.525   2.766
31136W        W94904  38.993  19.722  13.332
31137W        W94905  25.125   9.394  12.494
31138W        W94906   5.353  38.026   4.748
31139W        W94907  15.306  29.145  13.958
31140W        W94908  11.232  24.130   1.706
31141W        W94909  14.730  18.734  12.085
31142W        W94910  14.168  38.504  13.330
31143W        W94911  38.543  42.850  11.092
31144W        W94912  40.541  27.529   4.837
31145W        W94913   3.255   9.199   4.606
31146W        W94914  34.864   6.426   2.757
31147W        W94915  18.231  39.499  10.604
31148W        W94916   8.306  37.889   3.376
31149W        W94917  35.483  42.291  14.324
31150W        W94918   2.380  20.559  13.821
31151W        W94919  24.077  26.041   3.298
31152W        W94920  10.839  11.336   4.221
31153W        W94921   3.761  28.142  10.951
31154W        W94922  36.050  16.722   3.297
31155W        W94923  12.164  16.776  11.434
31156W        W94924  38.559  21.108   1.450
31157W        W94925  20.198  17.115  13.532
31158W        W94926   5.307  42.809   5.151
31159W        W94927  42.342   1.846  11.031
31160W        W94928  28.951   9.383  13.486
31161W        W94929  15.770   0.302   3.291
31162W        W94930  44.912  10.214  11.119
31163W        W94931   8.798  26.006  12.344
31164W        W94932  22.192  23.183  13.880
31165W        W94933   0.271  16.210  14.821
31166W        W94934  25.989  25.633  10.933
31167W        W94935  34.949  23.684   1.357
31168W        W94936  36.918  12.689   2.280
31169W        W94937   5.779  20.674   0.756
31170W        W94938  13.610  27.994   0.426
31171W        W94939  35.999  41.965   1.343
31172W        W94940  37.008  18.156   2.784
31173W        W94941   2.889  25.547  14.831
31174W        W94942  12.118   7.276  12.005
31175W        W94943  35.359  41.298   3.276
31176W        W94944  11.316  13.647  14.951
31177W        W94945  19.055  25.674   0.935
31178W        W94946   8.714  12.150   3.668
31179W        W94947  18.743  27.018   1.321
31180W        W94948   1.318  15.166   0.276
31181W        W94949  23.701  27.032  10.442
31182W        W94950   1.377  36.520   0.387
31183W        W94951  30.446  25.563   3.316
31184W        W94952  14.115  33.592   4.792
31185W        W94953  18.267  15.086  13.014
31186W        W94954  14.235  37.479   4.169
31187W        W94955  25.069  24.704  10.641
31188W        W94956  35.579  13.752  13.348
31189W        W94957  33.112  34.601  12.398
31190W        W94958  37.470   8.856   1.810
31191W        W94959  10.854  20.574  13.868
31192W        W94960  18.713   3.326  14.809
31193W        W94961  17.089   9.786   0.260
31194W        W94962  27.537  39.535  10.983
31195W        W94963  35.032  10.199   1.901
31196W        W94964  34.613   8.384   1.786
31197W        W94965  42.839   1.352   0.960
31198W        W94966  36.554  23.105   4.232
31199W        W94967   1.831  35.890   2.228
31200W        W94968   3.900  31.031   1.850
31201W        W94969  39.493  39.996  10.583
31202W        W94970   2.791  43.991  12.507
31203W        W94971  33.552  26.133   4.653
31204W        W94972   4.902   3.320   0.384
31205W        W94973   9.246  24.626   4.618
31206W        W94974   4.348  14.617  11.934
31207W        W94975  39.025  12.232  12.062
31208W        W94976   1.819  10.673  10.625
31209W        W94977  27.129   4.709   1.746
31210W        W94978  36.396   3.356  10.898
31211W        W94979  21.530   9.838   4.239
31212W        W94980   2.811  25.199   1.412
31213W        W94981  24.629  38.858  13.976
31214W        W94982  43.307  43.306   3.378
31215W        W94983  39.505  28.941   0.267
31216W        W94984  31.509  26.695   3.847
31217W        W94985  25.049   9.360  13.960
31218W        W94986  31.433   3.301   1.245
31219W        W94987   4.267  39.503   0.429
31220W        W94988   3.891  33.484  14.022
31221W        W94989  40.041  44.918  13.980
31222W        W94990   5.320   2.770  12.974
31223W        W94991  25.117  18.752   4.615
31224W        W94992  30.965  29.924   1.256
31225W        W94993  36.949  32.406   1.232
31226W        W94994  38.492  27.961  13.811
31227W        W94995  35.552  37.894   1.220
31228W        W94996  34.508  23.553   1.813
31229W        W94997  27.654  34.569   0.935
31230W        W94998  40.528   3.829   1.266
31231W        W94999   1.429  17.228   3.636
31232W        W95000  35.899  42.329   2.306
31233W        W95001  39.489   5.734   1.218
31234W        W95002  26.644  21.079   2.367
31235W        W95003  39.462  33.506  14.792
31236W        W95004  25.628  20.673   3.803
31237W        W95005  18.187   3.334  13.815
31238W        W95006  40.871   1.435   4.614
31239W        W95007   8.197  28.971  13.904
31240W        W95008   8.706   2.338  11.591
31241W        W95009  11.834  35.013   2.875
31242W        W95010   0.755  25.589  13.825
31243W        W95011   4.895  21.228   0.344
31244W        W95012  23.502  12.285  13.547
31245W        W95013  21.748  21.538  11.371
31246W        W95014  33.022  41.314   4.352
31247W        W95015  18.206  26.536  12.515
31248W        W95016  40.540  43.493   2.187
31249W        W95017  26.606  26.549  11.104
31250W        W95018   4.278  13.735  12.468
31251W        W95019  19.058  15.643   1.267
31252W        W95020  27.032   2.305   0.365
31253W        W95021  31.419  14.750   9.608
31254W        W95022  24.564  43.311   0.929
31255W        W95023   7.828  15.193  14.505
31256W        W95024   1.407  18.731   2.184
31257W        W95025  34.451  11.816  10.976
31258W        W95026  34.898  36.068   1.858
31259W        W95027  11.186   7.864  14.460
31260W        W95028   0.945  32.045   1.358
31261W        W95029  35.946   1.751   0.816
31262W        W95030   5.699  22.044  14.856
31263W        W95031  23.650  41.330   0.316
31264W        W95032  23.647   6.356  14.498
31265W        W95033  10.222  31.996  11.518
31266W        W95034   2.854  12.165   1.401
31267W        W95035   2.371   9.661  10.421
31268W        W95036  22.076  13.296  12.469
31269W        W95037  40.053   8.832  11.045
31270W        W95038  23.992  31.110  14.893
31271W        W95039  36.068  17.677  14.321
31272W        W95040  17.562  37.449  14.863
31273W        W95041  11.776  16.677   1.424
31274W        W95042   3.328   3.245  10.594
31275W        W95043  33.455  23.218  14.996
31276W        W95044  18.567  40.011  11.058
31277W        W95045  33.472  42.475  14.856
31278W        W95046  29.578  33.116   1.895
31279W        W95047  19.140  15.212   2.206
31280W        W95048  36.379   1.461  13.810
31281W        W95049  37.071  34.069   0.743
31282W        W95050  15.150  39.516  12.987
31283W        W95051   0.811  38.403  14.403
31284W        W95052  14.713  34.106  14.931
31285W        W95053  39.378  41.322  13.484
31286W        W95054  29.129  15.688   5.174
31287W        W95055  11.794  43.491  14.785
31288W        W95056  26.603  15.815   5.177
31289W        W95057   7.378  15.598   4.787
31290W        W95058  11.348   4.702  12.891
31291W        W95059  31.557   1.738   0.320
31292W        W95060  29.052  16.244  10.596
31293W        W95061  16.109  19.251  10.469
31294W        W95062  18.626   4.820   2.365
31295W        W95063  22.566   2.347   4.754
31296W        W95064  30.938  27.170   4.346
31297W        W95065  14.229  25.030  10.038
31298W        W95066  22.697  39.047   5.244
31299W        W95067  26.086   9.803  14.760
31300W        W95068  10.166  35.435  11.074
31301W        W95069  12.200   5.755  12.454
31302W        W95070  16.773  43.454  13.018
31303W        W95071   4.213  30.484  11.522
31304W        W95072  28.539  38.824   4.666
31305W        W95073   0.924  35.906  11.542
31306W        W95074  12.856  24.979  13.870
31307W        W95075  17.249  40.907   1.899
31308W        W95076  42.831  40.348   4.156
31309W        W95077  15.306  38.950  12.378
31310W        W95078  14.198  43.303  14.022
31311W        W95079  28.613  36.578  13.368
31312W        W95080  39.960  29.964  14.373
31313W        W95081  35.561  40.979   3.340
31314W        W95082  23.695   7.714  13.012
31315W        W95083   3.240  43.402  14.910
31316W        W95084  22.011  16.114   4.820
31317W        W95085   0.343  43.879   0.792
31318W        W95086  21.224  17.711   0.394
31319W        W95087  33.455  16.148   3.152
31320W        W95088  11.249   7.844  14.764
31321W        W95089  27.655  13.614  10.027
31322W        W95090   6.740  29.920  14.347
31323W        W95091  35.009   2.859   1.370
31324W        W95092  10.738  15.263   3.666
31325W        W95093  10.721   5.377  14.403
31326W        W95094  16.135  39.387  10.425
31327W        W95095  14.813  20.561  10.925
31328W        W95096  25.649  20.079  12.985
31329W        W95097  40.463  22.996   0.833
31330W        W95098  38.355  26.674   1.293
31331W        W95099  19.098  37.003  11.568
31332W        W95100  40.312  10.687  14.872
31333W        W95101  30.550   6.734   1.302
31334W        W95102  40.333  25.586  11.526
31335W        W95103  21.176  32.988  11.091
31336W        W95104  11.852  28.055  13.818
31337W        W95105   6.271  38.342  13.336
31338W        W95106  42.458  21.181   1.259
31339W        W95107   7.369   3.373  12.941
31340W        W95108  15.149  14.175   2.797
31341W        W95109  39.400   6.368   3.754
31342W        W95110  33.057  29.153  11.409
31343W        W95111  35.445  30.638   3.304
31344W        W95112   6.240  16.589  11.396
31345W        W95113  40.363  13.702  10.902
31346W        W95114   2.422  18.152  12.989
31347W        W95115  35.506  39.848   1.345
31348W        W95116   1.307  35.919   3.757
31349W        W95117  36.411  30.469  13.516
31350W        W95118  11.714  39.010   5.247
31351W        W95119  20.074   6.310  13.813
31352W        W95120   5.763  44.927   3.197
31353W        W95121  34.882  25.050  13.824
31354W        W95122   7.308  24.516   0.314
31355W        W95123  12.791   1.390   0.300
31356W        W95124  33.496  24.550   2.787
31357W        W95125  26.180   9.174   1.706
31358W        W95126  17.231  24.065  13.829
31359W        W95127  42.842  18.743  11.017
31360W        W95128  26.684  38.482   0.894
31361W        W95129  18.632  22.675  14.888
31362W        W95130  37.888  26.128   1.929
31363W        W95131  22.208   7.315   3.280
31364W        W95132   6.759  30.083  12.444
31365W        W95133  33.051  22.168  10.414
31366W        W95134  20.043  38.852  12.083
31367W        W95135  25.083  29.427   3.174
31368W        W95136  26.561  31.031   3.635
31369W        W95137  20.657  29.016   1.423
31370W        W95138   4.860  12.630  11.036
31371W        W95139  12.260  28.449  11.483
31372W        W95140  11.646  29.629   4.219
31373W        W95141  36.370   0.323   1.704
31374W        W95142  14.139  30.441   3.328
31375W        W95143  26.173  19.089  13.505
31376W        W95144  18.169   1.925   4.738
31377W        W95145  23.579  33.887   4.823
31378W        W95146   2.934  10.272   3.743
31379W        W95147  34.992   3.899   0.827
31380W        W95148  18.088  32.132  11.453
31381W        W95149   7.864   0.320  13.894
31382W        W95150  20.689  37.430  14.422
31383W        W95151  20.534  36.417  14.972
31384W        W95152  22.570  32.619   1.235
31385W        W95153   9.208  43.795   4.162
31386W        W95154  37.400   7.725   4.644
31387W        W95155  34.555  14.831  11.583
31388W        W95156   3.282  40.542  13.454
31389W        W95157  19.175  13.757   0.344
31390W        W95158  37.552  24.099  13.044
31391W        W95159  13.757  20.531   1.227
31392W        W95160  41.393  28.634  14.426
31393W        W95161  35.517  33.420   1.403
31394W        W95162  14.799  40.048   2.226
31395W        W95163  13.141  28.657  11.941
31396W        W95164  28.636  21.527   2.282
31397W        W95165  14.690  11.155   1.400
31398W        W95166  19.089  20.662   2.674
31399W        W95167  31.413  39.930   3.735
31400W        W95168   6.310  41.842   0.308
31401W        W95169  33.885  29.164  10.414
31402W        W95170   0.900  25.536  14.872
31403W        W95171  33.954  34.064   3.667
31404W        W95172  33.033   0.842   2.414
31405W        W95173  44.988   9.793  10.629
31406W        W95174  41.417   0.909   4.235
31407W        W95175  28.132   8.678  12.995
31408W        W95176  17.695  10.721  11.603
31409W        W95177  41.894  13.796   3.216
31410W        W95178   9.758  43.511  11.462
31411W        W95179  20.051   3.437  10.947
31412W        W95180  12.825  35.940  11.405
31413W        W95181  37.406  44.464   0.443
31414W        W95182  40.968  37.977  11.554
31415W        W95183  28.184  28.615  13.513
31416W        W95184  44.939  24.997   1.233
31417W        W95185  10.223  44.913   4.335
31418W        W95186  11.200  10.705  12.060
31419W        W95187  20.682  34.604  10.054
31420W        W95188   2.389  37.569   2.827
31421W        W95189  33.060   1.345  10.998
31422W        W95190   0.311   3.821  10.986
31423W        W95191  14.096  37.947   1.802
31424W        W95192   9.171  23.542  12.394
31425W        W95193  16.681   9.229  14.335
31426W        W95194  15.641   4.438  14.000
31427W        W95195  21.062  37.037  14.869
31428W        W95196  26.984  10.798   4.317
31429W        W95197  41.792  18.153   5.111
31430W        W95198  19.717  13.774   0.806
31431W        W95199  15.218   5.855  14.947
31432W        W95200   7.709  34.896  12.361
31433W        W95201  32.567  27.160   0.956
31434W        W95202   0.441  34.393   4.116
31435W        W95203   7.698  41.786  11.085
31436W        W95204   7.305  12.709  13.397
31437W        W95205  10.730  44.845  14.486
31438W        W95206   7.748  33.403   0.437
31439W        W95207   3.737  36.583  13.486
31440W        W95208  37.858  15.154   2.183
31441W        W95209  40.817  23.669   2.293
31442W        W95210   7.736  11.261  11.513
31443W        W95211   6.792  23.734   1.725
31444W        W95212  11.754   1.440  11.946
31445W        W95213  37.376  25.540  14.412
31446W        W95214  26.083  40.509  11.910
31447W        W95215   0.906  23.086   2.718
31448W        W95216  23.088  16.600   4.136
31449W        W95217   0.977  36.916  13.493
31450W        W95218  32.034  12.356   3.783
31451W        W95219  32.061  21.150  10.979
31452W        W95220   4.233  16.665  10.421
31453W        W95221  19.584   9.663  10.557
31454W        W95222  30.572  15.628   1.921
31455W        W95223  25.042  31.142   2.412
31456W        W95224  32.420  17.610   4.659
31457W        W95225  38.415  33.589   4.737
31458W        W95226  12.351   6.738   3.719
31459W        W95227  29.612  34.560  14.939
31460W        W95228  44.454  21.211   3.184
31461W        W95229  37.993  35.503  13.020
31462W        W95230  23.037  10.728  12.546
31463W        W95231  10.663   1.825   0.881
31464W        W95232  30.067  33.422   0.890
31465W        W95233  33.421  22.689   1.401
31466W        W95234  32.998  32.008   2.886
31467W        W95235   2.879  35.883  12.074
31468W        W95236  31.447  41.027  13.395
31469W        W95237   5.203  13.702  11.593
31470W        W95238  33.598   7.675  12.898
31471W        W95239  19.267   7.861  12.854
31472W        W95240   5.348  10.804   0.248
31473W        W95241  13.328  25.018   2.812
31474W        W95242  34.528  26.490   2.252
31475W        W95243  40.939  16.296  13.831
31476W        W95244  30.911   0.482  13.858
31477W        W95245   6.731  42.871  12.519
31478W        W95246  22.029   2.390   0.318
31479W        W95247  16.695   1.237   1.448
31480W        W95248  35.479  41.924  11.965
31481W        W95249  11.805   6.750  12.479
31482W        W95250  30.130  33.875  13.951
31483W        W95251  17.740   8.352   3.648
31484W        W95252   9.671  44.825   1.398
31485W        W95253  40.913  18.677   0.833
31486W        W95254  11.820  19.247   1.859
31487W        W95255  28.987  36.370  13.455
31488W        W95256  28.481   9.338  10.563
31489W        W95257  33.461   3.446  11.934
31490W        W95258  16.706  30.415   4.723
31491W        W95259   5.772  14.719  10.472
31492W        W95260  37.914   2.249   0.249
31493W        W95261   0.297  25.163  14.006
31494W        W95262   8.780   6.267  10.932
31495W        W95263  43.479  41.968   1.915
31496W        W95264   6.381  16.229   0.954
31497W        W95265  41.477  24.130  13.964
31498W        W95266   5.411  39.560  11.101
31499W        W95267  22.244  35.890   2.824
31500W        W95268  40.373   4.814  11.102
31501W        W95269  43.784  41.991  12.363
31502W        W95270  20.045  34.025   0.824
31503W        W95271  10.830  13.147  11.010
31504W        W95272  24.039   4.700   2.693
31505W        W95273   8.199   1.906  11.011
31506W        W95274   7.717  44.330   0.290
31507W        W95275   2.886  40.830  14.975
31508W        W95276  23.114   0.365   4.207
31509W        W95277  19.727  39.402  11.053
31510W        W95278  37.349  43.778  10.511
31511W        W95279  23.213  29.602  11.066
31512W        W95280  14.185   4.283   0.908
31513W        W95281  36.970  29.526   4.160
31514W        W95282  26.622  42.873   3.829
31515W        W95283  35.065  20.055   0.385
31516W        W95284  14.160   6.377   0.958
31517W        W95285  28.062  38.403   1.751
31518W        W95286  31.025  38.486  14.002
31519W        W95287   1.414  25.116   4.779
31520W        W95288  33.516  14.801  13.898
31521W        W95289  36.517  27.638  11.495
31522W        W95290  34.472  25.469   1.397
31523W        W95291  39.877  30.532  14.338
31524W        W95292   1.752  38.487   4.318
31525W        W95293  31.980   5.403   3.759
31526W        W95294  26.041  34.979   0.445
31527W        W95295   5.414  23.225   1.226
31528W        W95296  24.183  36.515   2.248
31529W        W95297  10.232  11.852   0.773
31530W        W95298  11.342  39.418  12.568
31531W        W95299  24.535  34.544   0.798
31532W        W95300  11.250   2.770  12.891
31533W        W95301   4.874  36.564  13.336
31534W        W95302  25.615  33.463   1.397
31535W        W95303   8.310  31.618   0.389
31536W        W95304  21.583  34.450  12.999
31537W        W95305  19.195  43.906  10.929
31538W        W95306  44.820  33.594   1.409
31539W        W95307  43.412  14.171   4.811
31540W        W95308  38.339  41.460   4.821
31541W        W95309  15.759   3.304  10.573
31542W        W95310  43.008   7.327  14.368
31543W        W95311  20.612  12.690  14.904
31544W        W95312  20.050  26.965  10.614
31545W        W95313  41.791   6.317  11.121
31546W        W95314   1.343  16.244  13.462
31547W        W95315  35.970  15.677  10.551
31548W        W95316  43.283  11.189  13.004
31549W        W95317  32.019   7.881  11.113
31550W        W95318  18.683  29.030   3.706
31551W        W95319  24.713  37.468   2.256
31552W        W95320  41.938  27.445  14.430
31553W        W95321  39.921  28.146   3.867
31554W        W95322  27.984  11.839   0.277
31555W        W95323  35.896  11.749  13.348
31556W        W95324  36.403  32.521  13.432
31557W        W95325  24.593  42.904  13.810
31558W        W95326  31.048   6.353  11.981
31559W        W95327   9.230  18.167  11.606
31560W        W95328  38.541  19.278  12.463
31561W        W95329  31.507  13.602   3.859
31562W        W95330  12.304  31.982   2.825
31563W        W95331  17.658  44.940   0.915
31564W        W95332  10.195   5.690   3.368
31565W        W95333  18.627   8.866   1.883
31566W        W95334  23.640  37.042  12.072
31567W        W95335  42.786  12.256   2.680
31568W        W95336  28.167  37.967  14.857
31569W        W95337  26.036   1.955  14.761
31570W        W95338  41.410  17.085   2.670
31571W        W95339  22.144  40.918   2.804
31572W        W95340   3.332  28.156   5.096
31573W        W95341  44.503   6.419   3.354
31574W        W95342  30.053  17.680  14.877
31575W        W95343  37.432  20.545  13.487
31576W        W95344  33.537   5.865   1.248
31577W        W95345   9.322   2.735   2.759
31578W        W95346   7.233  24.056   4.316
31579W        W95347   9.696   5.249   4.325
31580W        W95348  30.917   3.426   1.929
31581W        W95349  22.516  12.801   2.382
31582W        W95350  42.376  22.164  13.502
31583W        W95351  19.255  26.616  11.105
31584W        W95352  37.395  22.514   5.172
31585W        W95353  25.618  10.657   9.991
31586W        W95354  14.304  13.682  13.491
31587W        W95355  43.911   2.367   0.314
31588W        W95356  27.136  17.171  11.536
31589W        W95357  37.992  17.271   1.346
31590W        W95358  12.306  31.032   1.760
31591W        W95359  43.855  25.051   0.339
31592W        W95360  38.836   1.482   0.844
31593W        W95361   5.380   3.351  13.054
31594W        W95362  35.472  30.551  10.579
31595W        W95363  13.128   9.868   2.872
31596W        W95364   6.893  40.805  10.996
31597W        W95365  10.864  24.113   4.814
31598W        W95366  20.274  15.293   4.611
31599W        W95367  44.842  28.010  11.436
31600W        W95368  43.322  20.272  11.879
31601W        W95369   7.887  40.336   1.919
31602W        W95370   3.400  26.958   2.709
31603W        W95371  30.532   2.444  13.334
31604W        W95372  31.935  14.204   2.396
31605W        W95373  28.972  11.798   3.668
31606W        W95374   9.830  37.927  12.084
31607W        W95375   4.714  36.435   3.174
31608W        W95376  20.037  26.038  13.864
31609W        W95377  36.910   7.838  12.396
31610W        W95378  17.286  32.952  12.922
31611W        W95379  40.403  17.118   2.384
31612W        W95380  16.312  38.925   1.287
31613W        W95381  36.000   8.174   4.745
31614W        W95382  11.761  10.647   0.401
31615W        W95383  42.356   1.391  12.460
31616W        W95384  34.398  36.413  12.949
31617W        W95385  27.019   7.748   1.215
31618W        W95386  36.091  12.809   4.328
31619W        W95387  37.335  18.294  11.400
31620W        W95388  12.144   6.337  14.370
31621W        W95389  31.081  12.798  12.020
31622W        W95390  44.362   8.785   0.378
31623W        W95391   6.206   2.416   0.461
31624W        W95392  40.487   1.245   0.767
31625W        W95393  41.507   2.811   0.797
31626W        W95394   4.822  39.486   3.369
31627W        W95395  36.951  29.921   2.750
31628W        W95396   6.209  31.999   0.429
31629W        W95397  43.298  23.214  14.450
31630W        W95398  31.414   8.287   1.696
31631W        W95399  11.850   6.382  10.958
31632W        W95400  24.007  25.066  12.481
31633W        W95401  11.287   8.729  13.993
31634W        W95402  12.704  27.014  11.473
31635W        W95403  38.923  21.604   1.395
31636W        W95404  42.384  33.469  12.345
31637W        W95405  35.905  35.448   4.121
31638W        W95406   7.816  43.810   1.397
31639W        W95407  22.196   8.822   3.345
31640W        W95408  35.565  10.145  12.895
31641W        W95409  19.241  42.452  11.023
31642W        W95410  37.938  13.768   2.773
31643W        W95411   3.865  23.165   4.781
31644W        W95412   0.331  40.411   4.795
31645W        W95413   6.872  39.462  11.041
31646W        W95414  32.984  14.108   4.318
31647W        W95415  19.235  34.494   2.689
31648W        W95416  41.868  32.573  13.353
31649W        W95417  35.360  34.385  14.892
31650W        W95418  37.551  10.321  14.324
31651W        W95419  34.469  12.811   0.391
31652W        W95420  34.428  29.432  13.476
31653W        W95421  11.170  28.470   4.633
31654W        W95422  27.052   9.854   1.253
31655W        W95423  33.591  39.351   3.853
31656W        W95424  14.249  22.041  10.423
31657W        W95425  33.420  36.469   3.313
31658W        W95426  36.579  37.573   5.260
31659W        W95427  44.754   6.690  13.313
31660W        W95428  10.304   3.826  12.565
31661W        W95429  31.091  31.644  12.848
31662W        W95430  11.831  23.069  10.574
31663W        W95431  20.164  15.753   4.615
31664W        W95432  31.613  16.766   1.906
31665W        W95433  35.571  41.036  13.425
31666W        W95434   7.211  35.946   3.308
31667W        W95435  15.725  25.150   2.223
31668W        W95436   3.389  39.415  13.448
31669W        W95437  18.138  18.105  13.406
31670W        W95438  19.713  17.716  14.024
31671W        W95439  23.118   3.366  14.375
31672W        W95440  22.727  23.490  13.465
31673W        W95441  20.719   2.410  11.977
31674W        W95442  27.521  29.427   0.828
31675W        W95443  31.631  15.190  14.855
31676W        W95444  41.465  10.761   0.300
31677W        W95445   4.892  30.149   4.676
31678W        W95446   2.911  34.034  12.023
31679W        W95447  29.155  38.932  12.443
31680W        W95448  15.810  35.391  12.487
31681W        W95449  28.456  32.924   9.675
31682W        W95450  31.083  43.978   2.679
31683W        W95451  21.122   8.290   2.851
31684W        W95452  36.392   9.653   3.847
31685W        W95453  21.730   4.212   1.302
31686W        W95454  10.197  18.589   1.290
31687W        W95455  34.052  23.100  14.505
31688W        W95456  43.301  14.339  13.328
31689W        W95457  23.655  29.447  10.933
31690W        W95458  41.006  18.577  10.622
31691W        W95459  12.272  37.860   0.806
31692W        W95460   5.281  32.503  11.097
31693W        W95461  34.579  37.519   1.284
31694W        W95462  18.072  15.809  14.510
31695W        W95463  29.075  32.569   4.677
31696W        W95464   5.707  42.032  12.502
31697W        W95465  29.657  43.322  13.942
31698W        W95466  26.095  10.839  10.065
31699W        W95467  24.503  42.424   4.263
31700W        W95468  12.793   6.806  11.963
31701W        W95469  28.955  28.651   1.223
31702W        W95470   2.296   5.428  11.453
31703W        W95471  31.110   3.884  12.070
31704W        W95472  28.520  26.200   2.889
31705W        W95473   3.396  20.669  10.543
31706W        W95474   1.456   7.276  10.595
31707W        W95475  44.420  23.181  12.847
31708W        W95476  39.912  12.687   1.833
31709W        W95477  15.225  28.562  12.933
31710W        W95478  15.727  29.117  13.808
31711W        W95479  37.408  24.987   1.822
31712W        W95480  30.063  42.830  10.482
31713W        W95481   0.766   9.357  13.806
31714W        W95482  40.836  14.105   1.318
31715W        W95483   0.336  25.983  12.404
31716W        W95484  11.226  39.424  11.391
31717W        W95485  32.427  27.527   2.299
31718W        W95486  28.454  37.943  12.512
31719W        W95487  33.598  39.339   2.859
31720W        W95488   4.264  22.543  13.847
31721W        W95489  43.842  35.481   3.703
31722W        W95490   5.790   7.818   0.796
31723W        W95491  44.893  20.080   3.230
31724W        W95492  17.799  44.356  11.538
31725W        W95493  44.809  20.725   4.619
31726W        W95494   4.340  21.080   3.679
31727W        W95495  21.183  42.823   0.364
31728W        W95496  37.580  25.114   4.124
31729W        W95497  27.077  43.790  13.792
31730W        W95498  25.544  11.317   1.872
31731W        W95499  20.534  14.816  11.076
31732W        W95500   1.820  24.725   1.375
31733W        W95501   1.430  25.479   4.630
31734W        W95502   0.433  30.545  11.958
31735W        W95503  20.252   7.815  12.082
31736W        W95504   2.279  20.715  10.919
31737W        W95505   3.753  14.723  13.854
31738W        W95506   8.705  30.634  11.455
31739W        W95507  33.926  19.685   2.739
31740W        W95508  10.760   2.889   0.266
31741W        W95509  40.402  25.483   4.695
31742W        W95510  13.211  10.763  12.050
31743W        W95511  18.569  11.301   3.279
31744W        W95512  32.475  25.620  11.060
31745W        W95513  28.601  24.176   1.446
31746W        W95514   3.743  25.061  11.916
31747W        W95515  39.860   6.407  10.119
31748W        W95516  19.234  32.617   2.732
31749W        W95517  13.253   0.814  11.867
31750W        W95518   4.850  44.357   2.870
31751W        W95519  23.108  35.971  12.568
31752W        W95520  26.058  32.095   2.829
31753W        W95521  33.439   8.823  13.500
31754W        W95522  14.611  39.935   0.811
31755W        W95523  21.674   6.704   1.790
31756W        W95524  15.243  40.034   0.769
31757W        W95525  39.901  28.937  12.526
31758W        W95526  19.583   1.873   4.320
31759W        W95527  25.203  37.831  13.876
31760W        W95528  13.263  37.903   0.747
31761W        W95529  37.080   5.829  13.450
31762W        W95530  26.526  39.915   3.833
31763W        W95531  43.857   1.401   4.117
31764W        W95532  42.332  30.076  12.895
31765W        W95533  31.434  25.031  13.428
31766W        W95534  43.849  30.535   2.701
31767W        W95535  19.155  22.718  14.324
31768W        W95536  15.806  22.165  10.581
31769W        W95537   8.369  38.067   4.663
31770W        W95538  17.215   6.781   0.768
31771W        W95539  39.352  28.444  14.760
31772W        W95540  28.027  36.928  13.915
31773W        W95541  30.610  44.895   0.309
31774W        W95542  43.494  34.474  11.013
31775W        W95543  10.282  35.543   4.343
31776W        W95544  41.940   7.306   2.187
31777W        W95545  31.085  36.989   2.291
31778W        W95546  21.613  32.083   0.783
31779W        W95547   9.684   3.724   4.626
31780W        W95548  21.142  35.463  12.898
31781W        W95549  36.071  35.017  10.499
31782W        W95550  18.662  13.644  13.959
31783W        W95551  23.642  17.147  13.792
31784W        W95552  13.229  41.809  12.513
31785W        W95553  20.206  24.083  13.430
31786W        W95554  39.528  15.627   4.665
31787W        W95555  37.920  37.887  13.957
31788W        W95556  35.588  42.850   1.401
31789W        W95557  32.619  31.618   0.765
31790W        W95558   2.342   8.239  10.459
31791W        W95559  25.564   7.772  11.019
31792W        W95560  12.159  27.997   4.178
31793W        W95561  22.149  42.841   1.301
31794W        W95562  37.888   9.881   3.387
31795W        W95563  11.322  30.629  12.025
31796W        W95564  35.566  11.153  12.845
31797W        W95565  38.925   9.802   3.359
31798W        W95566  12.296  31.601   2.319
31799W        W95567  22.593   4.866   3.852
31800W        W95568   0.800  33.411  13.513
31801W        W95569  18.295  37.924   2.395
31802W        W95570  43.898  36.586  10.528
31803W        W95571  18.271   7.728   3.828
31804W        W95572  29.085  12.191  13.843
31805W        W95573  18.630  13.210   4.237
31806W        W95574  28.991  11.732   0.407
31807W        W95575  20.224   2.385   2.707
31808W        W95576  24.182  37.056   2.697
31809W        W95577  17.112  38.418  10.632
31810W        W95578   8.307  28.183   1.913
31811W        W95579  37.079   9.256  14.500
31812W        W95580  10.371   6.356   1.752
31813W        W95581  34.483   4.747   2.370
31814W        W95582  43.505  11.296  13.345
31815W        W95583  22.561  37.071   1.732
31816W        W95584  37.894  38.461  11.483
31817W        W95585   5.401  19.640  13.443
31818W        W95586   2.939   1.878  12.879
31819W        W95587  22.230  16.585   2.851
31820W        W95588  35.100  27.160   2.663
31821W        W95589  25.487  34.545  10.986
31822W        W95590   7.212   9.323   0.424
31823W        W95591  14.330  42.344   3.689
31824W        W95592  19.164  16.096  13.419
31825W        W95593  38.955   5.377   2.206
31826W        W95594  42.833  13.311  13.982
31827W        W95595  37.347  32.575  12.860
31828W        W95596  30.535  22.213  14.988
31829W        W95597  22.719  40.401  12.884
31830W        W95598   6.386  10.269   3.172
31831W        W95599  10.358  20.153  11.521
31832W        W95600  18.654   0.318   0.876
31833W        W95601  22.695  40.424   2.296
31834W        W95602  14.233  35.380  10.496
31835W        W95603   7.705   3.810  14.886
31836W        W95604  31.971  42.408  12.990
31837W        W95605  10.799  37.872   0.950
31838W        W95606   5.844  16.626   2.707
31839W        W95607   4.865  21.207  12.512
31840W        W95608  17.234  10.175  13.347
31841W        W95609  38.568  43.486  11.988
31842W        W95610  36.364  27.943   0.289
31843W        W95611   1.765  33.503   1.237
31844W        W95612  16.790  32.897   5.658
31845W        W95613   0.909  36.848   4.304
31846W        W95614  39.858  28.452   3.696
31847W        W95615   0.437  33.075  12.504
31848W        W95616  30.991  36.937  10.430
31849W        W95617   1.405   9.359   4.646
31850W        W95618  35.544  19.265  11.115
31851W        W95619  15.272  21.740   1.753
31852W        W95620   0.970  28.480   2.873
31853W        W95621  32.065  40.859   4.673
31854W        W95622  35.542  12.725   2.884
31855W        W95623  29.007  35.100  12.827
31856W        W95624  30.008   9.857  13.962
31857W        W95625   3.272  30.578  13.935
31858W        W95626  14.129   7.790   5.224
31859W        W95627  21.019   3.942  13.816
31860W        W95628   3.880  29.458  13.792
31861W        W95629  36.438  13.599  10.949
31862W        W95630   2.775   4.863   2.897
31863W        W95631  33.890  20.627   4.743
31864W        W95632  27.683  30.948  12.529
31865W        W95633  12.794  27.563   2.362
31866W        W95634  41.339  31.517  11.887
31867W        W95635  33.461   9.191   0.424
31868W        W95636  27.156   9.284   2.255
31869W        W95637  10.166  17.220   3.308
31870W        W95638  28.637   8.170   4.777
31871W        W95639  40.002  43.963   1.785
31872W        W95640  11.317   2.746   0.317
31873W        W95641  13.172   7.311  13.032
31874W        W95642  36.512  18.162   4.805
31875W        W95643  14.652  43.981  11.578
31876W        W95644  15.114  41.003  11.429
31877W        W95645  20.275  30.031   4.604
31878W        W95646  43.483  38.473  14.300
31879W        W95647   9.177  15.640   3.853
31880W        W95648  14.697  31.620   0.425
31881W        W95649  25.969  20.611  10.475
31882W        W95650   8.232  37.901  10.895
31883W        W95651  31.136  15.751  10.971
31884W        W95652  41.013  31.644   2.891
31885W        W95653  39.430  28.618  12.360
31886W        W95654   4.370  31.993   2.857
31887W        W95655  41.942  30.561  13.390
31888W        W95656   4.417  34.972  10.464
31889W        W95657  41.461   7.303   0.353
31890W        W95658  13.247  24.549   3.319
31891W        W95659  30.442   6.184  10.918
31892W        W95660   8.676  12.725   0.892
31893W        W95661   2.879  28.661  11.020
31894W        W95662  36.090  26.123   1.903
31895W        W95663  29.994   5.270  11.902
31896W        W95664  10.809   7.879  11.533
31897W        W95665  25.027  32.586  13.439
31898W        W95666  44.260  31.985   0.246
31899W        W95667   1.460  32.089   2.789
31900W        W95668  44.926  15.673  12.558
31901W        W95669  13.715  11.748  12.422
31902W        W95670  27.528  17.189  10.561
31903W        W95671  41.863  39.454  11.115
31904W        W95672  44.272  36.027  10.423
31905W        W95673   5.435  27.582  14.324
31906W        W95674  11.244   2.310  13.349
31907W        W95675  44.366  14.816   4.755
31908W        W95676  21.062  43.299  13.339
31909W        W95677  16.766  36.088   3.738
31910W        W95678  33.444  15.165  13.375
31911W        W95679   3.736  17.676   4.794
31912W        W95680  12.655  24.174  13.494
31913W        W95681  11.854   7.344  10.005
31914W        W95682   5.193  39.843   3.363
31915W        W95683   6.266  39.520   0.781
31916W        W95684  32.121   4.932  12.927
31917W        W95685   1.800   6.315   2.790
31918W        W95686  40.965  28.121  10.891
31919W        W95687  42.828  21.701  12.005
31920W        W95688  28.449  39.408   3.155
31921W        W95689  30.596   1.928  14.972
31922W        W95690  38.433  19.182   2.860
31923W        W95691   3.341   0.284   2.248
31924W        W95692  16.171  13.746   1.804
31925W        W95693  32.985  25.480  11.911
31926W        W95694  16.073  30.988   3.363
31927W        W95695   5.848   7.897  11.492
31928W        W95696  40.304  38.822  10.485
31929W        W95697  40.022  23.165  12.418
31930W        W95698  27.192   7.353   1.397
31931W        W95699   9.880  34.902   2.343
31932W        W95700  14.608  13.653   5.149
31933W        W95701  11.326  43.386   1.816
31934W        W95702  18.566  11.347  12.062
31935W        W95703  35.098  35.545   2.806
31936W        W95704  26.601  22.151   3.358
31937W        W95705  26.564  23.635  12.445
31938W        W95706  43.342  21.578  11.546
31939W        W95707  40.466   6.795   2.333
31940W        W95708  40.824   2.351   4.215
31941W        W95709  21.226  17.117   5.221
31942W        W95710  34.042  39.056   2.662
31943W        W95711   1.926  18.604   2.284
31944W        W95712  22.125  21.740  12.398
31945W        W95713  29.013  23.549  14.490
31946W        W95714  43.870   4.930  10.494
31947W        W95715   8.264  20.543  11.410
31948W        W95716   0.411  41.344   1.287
31949W        W95717  16.659  27.625  11.891
31950W        W95718  23.694   8.897   3.673
31951W        W95719   1.294   8.894  11.457
31952W        W95720  11.654  33.086  11.061
31953W        W95721  23.235  29.535  13.473
31954W        W95722   4.378  17.602   3.649
31955W        W95723  41.476   5.300  11.426
31956W        W95724  17.594   0.903   3.261
31957W        W95725  34.933   2.326  13.499
31958W        W95726  41.512  26.508   4.335
31959W        W95727  37.453  18.262   0.766
31960W        W95728  22.571  12.711   0.745
31961W        W95729  41.880  29.994  12.524
31962W        W95730   4.793   6.316  14.912
31963W        W95731   7.848  32.093  10.538
31964W        W95732  13.349  31.062   1.901
31965W        W95733  16.096   2.230   1.715
31966W        W95734  32.416  11.349   3.849
31967W        W95735   0.898   4.852  14.764
31968W        W95736  32.525   3.261   1.313
31969W        W95737   2.270   1.435   3.821
31970W        W95738  36.550  38.571  12.393
31971W        W95739  24.525  11.165  10.004
31972W        W95740   9.393  33.009   1.367
31973W        W95741  43.415  42.911   0.817
31974W        W95742  43.312  27.559  12.835
31975W        W95743  24.671  37.919   2.789
31976W        W95744  12.357   4.855   0.322
31977W        W95745   9.816  17.073   1.749
31978W        W95746  41.813  35.602  10.941
31979W        W95747   6.818  36.056  11.930
31980W        W95748  43.882  38.438  13.477
31981W        W95749   3.778  17.069  12.008
31982W        W95750  38.446  29.459  14.778
31983W        W95751  11.283  14.726   2.724
31984W        W95752   4.842  18.573   1.417
31985W        W95753  29.540  43.437   3.188
31986W        W95754  40.402  16.203   4.120
31987W        W95755  19.090  28.448  13.900
31988W        W95756   4.217   9.355  14.870
31989W        W95757   6.229  30.443   2.256
31990W        W95758   9.647  10.858  13.387
31991W        W95759  28.465  19.193   4.818
31992W        W95760  13.349  28.147   1.252
31993W        W95761  10.875  22.502  12.552
31994W        W95762   8.216  12.650  10.934
31995W        W95763  11.264  18.109   3.801
31996W        W95764  43.954  23.581   2.738
31997W        W95765  40.483  10.852  10.404
31998W        W95766   9.293  21.606   2.321
31999W        W95767  12.679  32.028  10.963
32000W        W95768  42.389  24.097  12.572
32001W        W95769   5.774   3.862  13.322
32002W        W95770  35.076  26.202   3.263
32003W        W95771  44.883   3.754   0.925
32004W        W95772  36.961  33.920   2.718
32005W        W95773  27.054  40.390   0.904
32006W        W95774  37.988  29.649  13.997
32007W        W95775   5.831  37.398  13.904
32008W        W95776  11.728  33.886  10.621
32009W        W95777  25.066  32.535   1.367
32010W        W95778   0.897  36.036   1.272
32011W        W95779  19.572  26.610  10.024
32012W        W95780  33.123  22.150  12.912
32013W        W95781   7.777  43.385  14.958
32014W        W95782  10.665  17.286  10.910
32015W        W95783  42.492  25.650  11.897
32016W        W95784  35.097  23.555   4.127
32017W        W95785  40.865  20.117   0.360
32018W        W95786  41.848  44.328  14.822
32019W        W95787  26.684  17.152  12.466
32020W        W95788   8.690  26.999   2.364
32021W        W95789  26.617  15.792   1.853
32022W        W95790  24.016  35.426  10.483
32023W        W95791   7.855  23.679  14.362
32024W        W95792  37.435  24.524  10.580
32025W        W95793  11.254  29.963   2.828
32026W        W95794  22.640  10.195   1.360
32027W        W95795  14.271  23.577  11.049
32028W        W95796  36.068  16.193   1.720
32029W        W95797  11.227  35.085  13.809
32030W        W95798  30.160  32.063  10.150
32031W        W95799  14.672   2.865  13.932
32032W        W95800  26.034  18.643   2.816
32033W        W95801  13.827  17.665   2.327
32034W        W95802  38.351  30.449   2.377
32035W        W95803  35.876  39.558  14.463
32036W        W95804  21.071  17.279  10.511
32037W        W95805   2.956  33.077  10.522
32038W        W95806   8.166   3.732  14.905
32039W        W95807   3.780  21.643   4.607
32040W        W95808  18.203  12.123   3.841
32041W        W95809  30.951   3.447   3.732
32042W        W95810  43.871  37.946   1.297
32043W        W95811  18.114  18.694  13.424
32044W        W95812  24.635  34.469   1.864
32045W        W95813   9.794  42.387  13.865
32046W        W95814  28.169  18.700   0.384
32047W        W95815   0.486  21.572   1.443
32048W        W95816  12.682  22.142  14.421
32049W        W95817   7.227  13.623  11.123
32050W        W95818   2.232  24.098   0.469
32051W        W95819  21.541  22.575   1.324
32052W        W95820  14.727   8.826   1.871
32053W        W95821   0.341  39.352  13.468
32054W        W95822  14.768  25.690  13.803
32055W        W95823  25.506   9.649   2.396
32056W        W95824  26.063  41.355   1.758
32057W        W95825  44.488   4.917  12.900
32058W        W95826  12.712  11.313   4.330
32059W        W95827  36.095  22.010   0.378
32060W        W95828  39.041  13.713  14.411
32061W        W95829  11.852   3.318   5.303
32062W        W95830  26.460  31.578   3.634
32063W        W95831  25.104  43.813  12.397
32064W        W95832  40.432  35.954   3.704
32065W        W95833  27.478  21.075   4.166
32066W        W95834  16.798  44.501   2.732
32067W        W95835   9.273   7.203  10.556
32068W        W95836  29.498  17.288  14.332
32069W        W95837  14.826   3.231   2.767
32070W        W95838  28.677   2.393  14.432
32071W        W95839  44.929  30.013  11.587
32072W        W95840   1.457  39.971   2.386
32073W        W95841  23.494  30.529   0.840
32074W        W95842   1.925  17.721   4.711
32075W        W95843  27.984  25.037  11.561
32076W        W95844  17.740  37.497   3.750
32077W        W95845  28.007  34.894   0.935
32078W        W95846  12.345   8.236   2.875
32079W        W95847  18.674  18.763   3.833
32080W        W95848  40.305   4.883   2.872
32081W        W95849  22.135   4.753  12.533
32082W        W95850  25.693  33.017   9.944
32083W        W95851  22.206  27.058  11.452
32084W        W95852  41.509  33.070   3.694
32085W        W95853  15.206  41.456   2.749
32086W        W95854  10.166  24.036   3.372
32087W        W95855  12.194  39.886   0.334
32088W        W95856   3.904  14.305   4.708
32089W        W95857  31.106  37.376  13.900
32090W        W95858  21.189   9.217   2.872
32091W        W95859  43.398   9.679   0.739
32092W        W95860  35.897  22.720   4.741
32093W        W95861  34.382  31.441  11.531
32094W        W95862  33.908  16.115   1.806
32095W        W95863   2.467  30.992   1.917
32096W        W95864  38.506  21.612   1.803
32097W        W95865  42.437  41.418   4.252
32098W        W95866  38.027   3.907   3.773
32099W        W95867  29.921  41.516   0.430
32100W        W95868  14.159  22.235  14.296
32101W        W95869  33.454  26.148  10.553
32102W        W95870   7.380   5.286  10.989
32103W        W95871  24.038   1.340   2.765
32104W        W95872  22.640  12.700  10.550
32105W        W95873   7.714  31.133  14.366
32106W        W95874   4.806  23.148   2.853
32107W        W95875   6.819   4.907   4.817
32108W        W95876  23.717   8.310  14.486
32109W        W95877  21.645  17.087  11.040
32110W        W95878   2.415  34.868  10.905
32111W        W95879  24.019  34.897   0.895
32112W        W95880   3.737  35.537  14.828
32113W        W95881  36.457  39.902   2.772
32114W        W95882  17.135  28.180  11.446
32115W        W95883  13.823  23.692  13.023
32116W        W95884  37.956  13.740   1.764
32117W        W95885  16.605  11.744   2.283
32118W        W95886  11.622  18.198   4.167
32119W        W95887  18.073   3.389   0.438
32120W        W95888  12.813  37.965   3.803
32121W        W95889  37.560  39.931  14.438
32122W        W95890  11.736  43.804   4.222
32123W        W95891  15.237  38.996  13.314
32124W        W95892  10.759  11.182  12.934
32125W        W95893  12.715  26.048   4.179
32126W        W95894   6.870  23.039   1.921
32127W        W95895  24.006   4.305  12.944
32128W        W95896  21.733  14.815  10.575
32129W        W95897  40.848  19.663   0.807
32130W        W95898  36.924  33.996  13.392
32131W        W95899   1.419  37.927   1.396
32132W        W95900   4.366  18.694  11.512
32133W        W95901   7.687  31.509   1.933
32134W        W95902  20.751  27.530  14.343
32135W        W95903  27.470   1.978   4.185
32136W        W95904   2.445  24.052  14.944
32137W        W95905  20.210   4.931  14.805
32138W        W95906  16.298  27.647  12.928
32139W        W95907  29.174  25.093   1.251
32140W        W95908  29.636  18.772   2.228
32141W        W95909  32.490  15.129  12.492
32142W        W95910  24.987  44.787  14.970
32143W        W95911   1.806  18.567   4.620
32144W        W95912  28.072  11.784  14.435
32145W        W95913  15.293   6.901  13.483
32146W        W95914  17.300  39.999  14.778
32147W        W95915   5.807  28.570  13.924
32148W        W95916  22.142  39.422   2.266
32149W        W95917  21.636  23.674  10.949
32150W        W95918  20.142  39.359   1.831
32151W        W95919   8.722  34.536  11.030
32152W        W95920  17.071  33.429   2.306
32153W        W95921   1.956   2.430  10.502
32154W        W95922  14.329  37.932   0.950
32155W        W95923   2.770  27.156  10.924
32156W        W95924  19.639  35.928  13.539
32157W        W95925   0.367  24.581   4.817
32158W        W95926  20.234  43.965   0.962
32159W        W95927  21.175   7.368   2.286
32160W        W95928  36.569  11.816   0.786
32161W        W95929  11.234  33.925   2.359
32162W        W95930   7.776  12.840   2.870
32163W        W95931  40.417  18.702   5.245
32164W        W95932  42.795   5.312   0.392
32165W        W95933  29.536  23.108   4.732
32166W        W95934  43.463  37.374   1.891
32167W        W95935  15.150  35.375  12.057
32168W        W95936  12.358  40.801  13.319
32169W        W95937  40.355  12.242   1.839
32170W        W95938  35.068  27.058   4.221
32171W        W95939  14.154  31.623  13.449
32172W        W95940  24.141  27.075   3.653
32173W        W95941   7.351  28.983   4.761
32174W        W95942  19.642  35.003   0.417
32175W        W95943  29.938  24.561   2.835
32176W        W95944  16.289  14.150  11.916
32177W        W95945  12.699  31.409  10.420
32178W        W95946   1.270   2.381   1.312
32179W        W95947  33.549  40.995   0.351
32180W        W95948  11.168  38.514  13.898
32181W        W95949  42.968  30.656  12.489
32182W        W95950  33.980  31.915   3.745
32183W        W95951   6.851   4.872  13.456
32184W        W95952  33.088  32.079  13.545
32185W        W95953   6.332  22.107  13.371
32186W        W95954  36.031  36.036   0.734
32187W        W95955  29.443  42.968   0.327
32188W        W95956  38.825  12.665   0.907
32189W        W95957   4.774  27.104  11.593
32190W        W95958  40.497   9.661   0.436
32191W        W95959  26.963  25.050  10.907
32192W        W95960   1.286  35.397  11.012
32193W        W95961  31.619  16.188  11.070
32194W        W95962  29.991  36.469   4.117
32195W        W95963  23.130   4.856  12.514
32196W        W95964  13.691   4.700  11.911
32197W        W95965  35.554  40.874  14.313
32198W        W95966  38.397  25.013  13.808
32199W        W95967  20.202  27.971   3.202
32200W        W95968  18.132  36.049   2.669
32201W        W95969  27.950  22.034   4.119
32202W        W95970   1.298  16.170  11.868
32203W        W95971  14.827  36.364  13.904
32204W        W95972  15.147   8.858  11.015
32205W        W95973  38.461   0.452  14.909
32206W        W95974  37.978  28.942  11.565
32207W        W95975   7.826   6.729   1.822
32208W        W95976  12.644   9.823  14.466
32209W        W95977  11.245  23.706   0.793
32210W        W95978  36.524  28.530  10.625
32211W        W95979  38.931  17.624   3.647
32212W        W95980  41.895  20.726  11.476
32213W        W95981  19.148  42.431  11.564
32214W        W95982   5.854  25.146  12.466
32215W        W95983  13.179  24.584  14.993
32216W        W95984  26.118  30.440   0.866
32217W        W95985  36.432  27.105   4.712
32218W        W95986  22.124  18.133   2.245
32219W        W95987  22.135   1.301   2.248
32220W        W95988  15.279   9.864   2.664
32221W        W95989  43.438   7.252  12.962
32222W        W95990  29.451   2.767  11.416
32223W        W95991   9.766  17.234   3.734
32224W        W95992  20.615  38.359  10.490
32225W        W95993  32.457  44.901  13.797
32226W        W95994  35.590  31.636   4.675
32227W        W95995  13.223  24.703   2.366
32228W        W95996  32.390  36.061  13.812
32229W        W95997  37.896  18.765  11.938
32230W        W95998  31.936   7.793  13.510
32231W        W95999  31.640   3.890   2.401
32232W        W96000   3.858  14.147  12.827
32233W        W96001  31.017  33.085  13.476
32234W        W96002  31.482  37.381   0.732
32235W        W96003  31.582  21.566   2.761
32236W        W96004  27.560  34.579   1.867
32237W        W96005   2.789  39.986  13.397
32238W        W96006  42.389  20.160  13.942
32239W        W96007   2.910  12.825  13.968
32240W        W96008  37.971  43.863  13.887
32241W        W96009  38.898  14.283   4.782
32242W        W96010  29.106   1.306   3.784
32243W        W96011   3.229  28.456  14.761
32244W        W96012  30.004  40.868   3.665
32245W        W96013   5.197  34.963  12.380
32246W        W96014   4.940   3.276   1.267
32247W        W96015  12.189  44.264   2.341
32248W        W96016  16.261   3.335   1.261
32249W        W96017  34.014  33.587  14.954
32250W        W96018  31.903  26.611   4.604
32251W        W96019   2.465  41.498  10.909
32252W        W96020   4.216  30.054  10.908
32253W        W96021   3.831  30.518   1.246
32254W        W96022  41.393  37.474  13.951
32255W        W96023  38.920  30.632  11.122
32256W        W96024  17.229  30.483  10.066
32257W        W96025   6.705   0.256  14.827
32258W        W96026  31.919  13.718  14.920
32259W        W96027  35.970  34.060   2.819
32260W        W96028   4.227  18.205  12.928
32261W        W96029  17.083  24.204  14.837
32262W        W96030  44.414  39.989  10.902
32263W        W96031   4.316  24.512   1.816
32264W        W96032  30.580   8.837   2.360
32265W        W96033  35.894   5.824   1.739
32266W        W96034  13.217   2.860  10.588
32267W        W96035  41.029  27.157  12.394
32268W        W96036  39.932  42.363   0.247
32269W        W96037  42.857   0.892   4.699
32270W        W96038  12.260   3.312   2.357
32271W        W96039  42.298  44.320  11.546
32272W        W96040   1.382  39.350  14.411
32273W        W96041  29.175  44.787  12.475
32274W        W96042  37.841  41.331   5.298
32275W        W96043  35.940   2.886  12.885
32276W        W96044  11.166   3.740  12.067
32277W        W96045  21.223   0.282   0.815
32278W        W96046  22.094  27.450   0.843
32279W        W96047  24.579  36.883   1.283
32280W        W96048  27.987  41.984  11.035
32281W        W96049   6.706  10.643  10.894
32282W        W96050  27.059  34.052   2.210
32283W        W96051  41.506  43.319  12.836
32284W        W96052  22.023  40.998   2.234
32285W        W96053   0.940   6.225  13.051
32286W        W96054  40.960   4.708  12.841
32287W        W96055  40.013   9.693   1.710
32288W        W96056   6.367  20.216   1.833
32289W        W96057  34.995  21.138   4.745
32290W        W96058  13.602   0.328  12.526
32291W        W96059   0.368  29.615   4.349
32292W        W96060  13.123  24.019  10.629
32293W        W96061  28.097  12.741   4.610
32294W        W96062  10.173  18.146   4.795
32295W        W96063   4.908  11.634   4.769
32296W        W96064  37.363  17.583  14.425
32297W        W96065   0.282  38.027  13.378
32298W        W96066  44.968  16.598  11.011
32299W        W96067   5.409  17.121  11.537
32300W        W96068  13.834  34.510  13.940
32301W        W96069  30.100   6.411  14.450
32302W        W96070  10.756   2.335  11.390
32303W        W96071  22.048  30.493  11.372
32304W        W96072   4.366  15.799  13.366
32305W        W96073  32.460  12.745   5.210
32306W        W96074  32.487  24.674  10.454
32307W        W96075   0.283  11.836   0.391
32308W        W96076  28.960  28.148   0.308
32309W        W96077  44.980  40.331  13.039
32310W        W96078  33.588  33.493  13.053
32311W        W96079  35.583  26.197   0.745
32312W        W96080  17.137  43.796   4.134
32313W        W96081  28.150   0.457   4.623
32314W        W96082   9.292  40.885  13.872
32315W        W96083   3.297  12.241   0.893
32316W        W96084   7.837  35.604  12.985
32317W        W96085  35.941   1.424   3.847
32318W        W96086  18.554  43.903  12.040
32319W        W96087  42.472  34.954   1.749
32320W        W96088  40.004   6.356  10.910
32321W        W96089  39.419  37.887  11.863
32322W        W96090  43.820  44.411  14.969
32323W        W96091   7.890  25.618   3.823
32324W        W96092  20.036   9.767   2.674
32325W        W96093  22.150  18.717  13.545
32326W        W96094  15.805   7.717   0.813
32327W        W96095  29.508   8.793  11.431
32328W        W96096  21.632  24.529   1.402
32329W        W96097  39.983  11.820  13.829
32330W        W96098  41.854   3.871   1.882
32331W        W96099  35.079  18.292   9.934
32332W        W96100  25.201   8.394  14.435
32333W        W96101  10.273  28.045  14.786
32334W        W96102  15.186  26.641   3.717
32335W        W96103  17.285  20.707   0.343
32336W        W96104  38.497   9.159  12.008
32337W        W96105   9.158  27.482   3.807
32338W        W96106  33.395  17.597  13.338
32339W        W96107   1.264  31.067  11.994
32340W        W96108   7.764  17.132  13.953
32341W        W96109  31.105  39.816   9.993
32342W        W96110  25.630  20.115  11.004
32343W        W96111  29.599  39.518   4.680
32344W        W96112  21.647  22.600   0.919
32345W        W96113  43.877   7.751   1.864
32346W        W96114  17.139  19.158   2.306
32347W        W96115  21.745   3.874   0.331
32348W        W96116  14.732  25.522   1.347
32349W        W96117  30.038  10.744   1.258
32350W        W96118  26.054  31.041   2.404
32351W        W96119  21.711  31.048  14.276
32352W        W96120  31.110  41.480   1.228
32353W        W96121  34.500   0.463   1.412
32354W        W96122  32.957  12.237   4.115
32355W        W96123  27.648  31.933   5.262
32356W        W96124  37.933  35.986  10.152
32357W        W96125   1.773   8.187  13.042
32358W        W96126  37.518   5.195  12.057
32359W        W96127  33.882   9.277  11.491
32360W        W96128  15.307  35.858   1.880
32361W        W96129  19.583   3.348   1.748
32362W        W96130  35.896  32.505  11.951
32363W        W96131   3.440   2.248   4.250
32364W        W96132   7.889  14.764   1.366
32365W        W96133  35.006  11.673  13.321
32366W        W96134  38.566  17.623   2.772
32367W        W96135  28.035   7.410   2.378
32368W        W96136   1.965   7.191   0.726
32369W        W96137   0.936  14.734  13.871
32370W        W96138  13.145  16.120   1.415
32371W        W96139  30.414  19.601   0.728
32372W        W96140  36.443  12.224  11.493
32373W        W96141  21.165  12.217  14.831
32374W        W96142   2.894   9.770  13.934
32375W        W96143  13.155   2.818  14.288
32376W        W96144   6.794  32.952   3.729
32377W        W96145  16.733  17.716   0.786
32378W        W96146   8.202  20.621  12.018
32379W        W96147  26.532  32.390   3.262
32380W        W96148   0.462  13.279  13.451
32381W        W96149  15.774  18.754   0.774
32382W        W96150   1.477   9.186   2.187
32383W        W96151   1.262  20.054   2.790
32384W        W96152  12.332  20.691  13.514
32385W        W96153  35.545   5.216   0.281
32386W        W96154  11.264  27.503  12.375
32387W        W96155   0.338  23.183  12.422
32388W        W96156  19.732  40.015   1.305
32389W        W96157  22.520   5.687   4.603
32390W        W96158  44.818  31.940   0.889
32391W        W96159   5.779   6.841  12.059
32392W        W96160   7.871  43.913  10.927
32393W        W96161  43.488   1.238   4.785
32394W        W96162  21.065  17.279  13.394
32395W        W96163   5.728  20.725  11.972
32396W        W96164  29.609  11.669   0.341
32397W        W96165  44.917  21.173   4.334
32398W        W96166   5.701   9.394  14.027
32399W        W96167  22.180   0.756   2.268
32400W        W96168  20.051  31.616  11.396
32401W        W96169  40.878  27.954   4.214
32402W        W96170  44.872  17.071   0.951
32403W        W96171  32.084   7.838  11.394
32404W        W96172  17.692   2.909   0.862
32405W        W96173  41.845  13.630  12.428
32406W        W96174  29.535  13.202   3.758
32407W        W96175  18.707   2.960   0.346
32408W        W96176  13.328  26.616   1.444
32409W        W96177  43.903   1.805   3.351
32410W        W96178  18.239  13.232  11.041
32411W        W96179  10.239  44.967  12.927
32412W        W96180  17.265  13.626   4.216
32413W        W96181  22.141   3.891   0.258
32414W        W96182  19.640   5.319  10.469
32415W        W96183   5.842  20.624  14.302
32416W        W96184  16.628  29.622   4.616
32417W        W96185  28.976  20.049  12.395
32418W        W96186  31.977  25.710   2.788
32419W        W96187  39.003  40.448  12.845
32420W        W96188  40.360  29.610   1.401
32421W        W96189  10.323   1.846  12.419
32422W        W96190  25.585  39.063   0.840
32423W        W96191   7.309  17.130  11.032
32424W        W96192  38.430   4.718  13.807
32425W        W96193  39.514  37.388   0.964
32426W        W96194  35.037  13.127   3.753
32427W        W96195  32.034  30.924  13.982
32428W        W96196   8.733  13.653   4.198
32429W        W96197  41.338  11.280   2.709
32430W        W96198  38.019  31.114   3.250
32431W        W96199  43.765  44.278   3.290
32432W        W96200   0.477   6.331   4.234
32433W        W96201  32.521  15.083  13.411
32434W        W96202  14.105  41.309  11.514
32435W        W96203  35.074  18.235   3.280
32436W        W96204   1.932  32.095  11.566
32437W        W96205  32.898  19.686   1.798
32438W        W96206  22.058  25.481  12.066
32439W        W96207  30.132  16.147  14.995
32440W        W96208   5.878  26.975   0.803
32441W        W96209  25.564   0.761   0.331
32442W        W96210   9.182  39.832   3.708
32443W        W96211  44.988  10.705   4.124
32444W        W96212  25.985  32.410   9.662
32445W        W96213  44.769  22.648  11.937
32446W        W96214  36.988   2.930  12.511
32447W        W96215   4.785   2.448   1.919
32448W        W96216   9.214   4.432  10.435
32449W        W96217  32.989  22.558  12.007
32450W        W96218   8.858  27.082  12.889
32451W        W96219  17.157   3.765  11.049
32452W        W96220  33.571  10.857  10.579
32453W        W96221  16.267  17.142   3.328
32454W        W96222  32.057  30.453   3.286
32455W        W96223  23.490   2.879  11.922
32456W        W96224  16.587  16.596  12.036
32457W        W96225  22.738  17.795   2.792
32458W        W96226  38.410   8.189   1.750
32459W        W96227  26.039  21.246  10.951
32460W        W96228  29.588   1.737   9.925
32461W        W96229  39.537   1.916   2.266
32462W        W96230  25.010  17.225  12.543
32463W        W96231   3.771  12.610  11.955
32464W        W96232  22.218   0.745   0.806
32465W        W96233  18.149   5.872  11.876
32466W        W96234  35.019   8.198  11.465
32467W        W96235   8.185  35.435  14.790
32468W        W96236  32.038  39.400  12.083
32469W        W96237  41.412  18.293  13.312
32470W        W96238  12.277  31.432   3.364
32471W        W96239  11.170  40.449  12.495
32472W        W96240  42.801  34.390   2.749
32473W        W96241  19.224  38.415  10.483
32474W        W96242  11.801  26.464  14.976
32475W        W96243  37.895  28.472  13.449
32476W        W96244  17.724  25.629  14.511
32477W        W96245  10.681  18.085  12.055
32478W        W96246  42.828  35.573  12.547
32479W        W96247  21.180  29.023  13.831
32480W        W96248  13.652  12.207   2.407
32481W        W96249   4.864  19.069  10.406
32482W        W96250  43.492  18.561   0.889
32483W        W96251   1.872  14.191  14.959
32484W        W96252  44.265  36.869  10.021
32485W        W96253   5.212   6.717  11.424
32486W        W96254  28.147  40.474  14.777
32487W        W96255   6.357  26.071   0.820
32488W        W96256   3.397  30.920  12.030
32489W        W96257   7.412  37.542  11.495
32490W        W96258   6.395  12.694  11.082
32491W        W96259  11.665  12.121  13.980
32492W        W96260  31.556  44.442  14.870
32493W        W96261  28.016  14.314   1.764
32494W        W96262  14.179   0.458  14.882
32495W        W96263  40.309  34.050  12.078
32496W        W96264  41.365  26.538   1.780
32497W        W96265   5.852   2.239  11.008
32498W        W96266  39.360  13.119   4.650
32499W        W96267  14.752  13.811   3.198
32500W        W96268  43.353   7.253   5.243
32501W        W96269  36.927  26.006   0.802
32502W        W96270  10.138  10.856   4.153
32503W        W96271  15.709  30.965  12.998
32504W        W96272  16.145  12.818   1.861
32505W        W96273  12.211  19.545  14.001
32506W        W96274  28.658  15.779  11.499
32507W        W96275   8.881   5.396   0.469
32508W        W96276  37.919  34.529   2.879
32509W        W96277  11.280   3.715   1.734
32510W        W96278  24.004   7.367   1.934
32511W        W96279   1.322  17.616  10.970
32512W        W96280  38.451  14.691  13.953
32513W        W96281  36.881  43.917   1.777
32514W        W96282  27.481   7.332   1.875
32515W        W96283   0.319  36.925   2.701
32516W        W96284  17.298   3.939  12.407
32517W        W96285  17.121  44.259  11.881
32518W        W96286  17.128   5.381   4.610
32519W        W96287  29.491  38.857   5.222
32520W        W96288  23.677  13.654   3.180
32521W        W96289  28.950  11.238  12.387
32522W        W96290  29.161   5.712  11.034
32523W        W96291  25.619  44.324  11.414
32524W        W96292  35.400  23.508   3.678
32525W        W96293  23.099  36.498   4.765
32526W        W96294   8.785   8.876  12.487
32527W        W96295   2.319  26.481   0.770
32528W        W96296  26.535  40.442  13.940
32529W        W96297  24.552  11.267  14.775
32530W        W96298   3.366  31.524   4.118
32531W        W96299  11.356  17.259  11.897
32532W        W96300  34.579  32.901   2.773
32533W        W96301   3.407  23.735   3.710
32534W        W96302  30.577  26.157  11.438
32535W        W96303  28.178   2.349  11.032
32536W        W96304  39.976   3.890   1.304
32537W        W96305  18.744  19.223   0.821
32538W        W96306  35.990  42.315   4.256
32539W        W96307  25.161  33.983   1.865
32540W        W96308  26.514  11.219  12.442
32541W        W96309  32.002  44.418   4.744
32542W        W96310  38.067  12.711  10.572
32543W        W96311   0.972  27.177   2.412
32544W        W96312   1.864   2.233   3.204
32545W        W96313   4.415  15.298   2.348
32546W        W96314  39.533  37.578  11.578
32547W        W96315  10.871  35.977   0.380
32548W        W96316   1.441  31.044  13.947
32549W        W96317  36.453   8.290   0.362
32550W        W96318  44.300  23.670  11.997
32551W        W96319  28.072  19.775  13.011
32552W        W96320  33.379  35.397  10.581
32553W        W96321  41.390  29.165   2.892
32554W        W96322  44.436  11.814  11.417
32555W        W96323  21.701  22.668   3.274
32556W        W96324  20.764  22.055   3.259
32557W        W96325   6.788  20.074   2.880
32558W        W96326  14.186   7.763   0.758
32559W        W96327  44.354  24.639   3.690
32560W        W96328  28.624   7.787  13.945
32561W        W96329  30.553  10.174   0.904
32562W        W96330   9.275  24.483  14.943
32563W        W96331  39.357   5.393   0.339
32564W        W96332  39.923   0.766  13.046
32565W        W96333   1.844  11.767   0.954
32566W        W96334  25.565  22.179  10.960
32567W        W96335  25.642  23.589  13.424
32568W        W96336  23.116   9.751   1.317
32569W        W96337   5.279  12.709  13.842
32570W        W96338   1.473  36.093  10.991
32571W        W96339  13.794  40.314  13.435
32572W        W96340  32.623  30.463  10.476
32573W        W96341   4.336  18.774  13.045
32574W        W96342  30.114  36.054  13.904
32575W        W96343  11.706  35.590  13.474
32576W        W96344  32.459  29.030  12.937
32577W        W96345   7.191  43.780   4.113
32578W        W96346  24.134  13.753  10.417
32579W        W96347  22.207  16.310   2.306
32580W        W96348  11.668  23.987  14.351
32581W        W96349  18.093  10.321   1.429
32582W        W96350  15.138  12.342  14.460
32583W        W96351  24.498  39.548  14.342
32584W        W96352   6.184  22.644   0.280
32585W        W96353  42.023  27.058  12.563
32586W        W96354   3.917  41.967   1.250
32587W        W96355  25.045  24.082  10.637
32588W        W96356  38.823   5.688  13.488
32589W        W96357  39.385  34.470  14.850
32590W        W96358  18.295  40.053  10.570
32591W        W96359  39.490   1.749  12.405
32592W        W96360  22.215  37.932   2.413
32593W        W96361  24.526   5.223   1.928
32594W        W96362  18.059  29.508  11.114
32595W        W96363  17.119   7.255  13.517
32596W        W96364   0.883  42.422   3.368
32597W        W96365  37.856   3.440   1.866
32598W        W96366  28.171   6.819  13.529
32599W        W96367  35.889   8.807  10.040
32600W        W96368  17.137  19.536   1.307
32601W        W96369   2.279  10.701   4.711
32602W        W96370  23.228  41.445  14.918
32603W        W96371  27.187  23.144   0.806
32604W        W96372  21.705  39.490   0.774
32605W        W96373  26.532   4.229   3.810
32606W        W96374   8.893  37.575   4.615
32607W        W96375  40.955  19.601   0.345
32608W        W96376  25.058  25.536   4.686
32609W        W96377  13.691  38.928  12.081
32610W        W96378  12.614  35.072   1.297
32611W        W96379  17.064  32.422  11.424
32612W        W96380   2.416  27.079   0.952
32613W        W96381  37.951  33.470   0.865
32614W        W96382  11.723   3.457   2.257
32615W        W96383   4.765  21.643  12.061
32616W        W96384   6.243  20.177  12.072
32617W        W96385  39.348  30.956   0.366
32618W        W96386  12.335  37.050   3.792
32619W        W96387  23.161  42.794   0.730
32620W        W96388  28.595   3.945  13.364
32621W        W96389  34.000   7.315  14.989
32622W        W96390  28.606   4.435   4.617
32623W        W96391   5.329  35.473   2.832
32624W        W96392  23.649  25.562  14.894
32625W        W96393  14.270  22.630   0.807
32626W        W96394  16.251  22.210   3.268
32627W        W96395  17.763   0.411  13.452
32628W        W96396  26.533  37.553   0.966
32629W        W96397  35.405  36.497  14.030
32630W        W96398  24.620  19.280   0.474
32631W        W96399   8.173  18.222   3.720
32632W        W96400  33.029  17.599  12.363
32633W        W96401  25.537  26.989  12.940
32634W        W96402  25.002  18.223  12.373
32635W        W96403  43.904  10.304   1.924
32636W        W96404  12.783  26.016   1.276
32637W        W96405  31.098  33.584   3.814
32638W        W96406  26.152  31.070  12.876
32639W        W96407  29.953   8.363  14.911
32640W        W96408  19.156  19.671   4.784
32641W        W96409  18.667   3.398   4.281
32642W        W96410   7.796  34.605   5.273
32643W        W96411  17.614  22.503  12.075
32644W        W96412   4.857  44.855  10.505
32645W        W96413  31.431  25.051  11.579
32646W        W96414   0.268  24.030   3.751
32647W        W96415  36.553  11.251   0.928
32648W        W96416  13.211   2.287  13.020
32649W        W96417   3.432  26.059   0.772
32650W        W96418  35.556  25.172  10.619
32651W        W96419  36.529   7.289  12.911
32652W        W96420  34.576  12.829   3.353
32653W        W96421   9.396  43.332   2.207
32654W        W96422   7.276  11.849   0.816
32655W        W96423  10.234  29.503   3.152
32656W        W96424   5.296  29.489   0.866
32657W        W96425  20.681  19.136   4.218
32658W        W96426   1.360  43.793  11.588
32659W        W96427  23.604  32.393  13.401
32660W        W96428  41.829  34.395   2.752
32661W        W96429  16.298  25.478   3.184
32662W        W96430  38.365  17.212  11.433
32663W        W96431  27.573  22.690  12.516
32664W        W96432  24.014  17.202  12.381
32665W        W96433  34.436  19.118   2.845
32666W        W96434   2.283  25.120  13.017
32667W        W96435   8.682  43.861  12.468
32668W        W96436  18.182   0.783  12.358
32669W        W96437  22.197  38.405   4.731
32670W        W96438   1.945  24.093   1.844
32671W        W96439  24.126  18.133  10.088
32672W        W96440  10.824   4.940  12.859
32673W        W96441  33.923  37.481   3.636
32674W        W96442   6.773  31.480  11.955
32675W        W96443  17.170   1.287  12.848
32676W        W96444   9.682  25.592  11.124
32677W        W96445  20.035  23.720   3.383
32678W        W96446  13.632  12.117  13.991
32679W        W96447  30.075   6.776   0.956
32680W        W96448  26.958  25.036   2.828
32681W        W96449  12.650  25.565  12.840
32682W        W96450  44.299   6.333  10.593
32683W        W96451  24.635  39.496   1.913
32684W        W96452  37.891  10.161   4.600
32685W        W96453  23.592  27.636   4.751
32686W        W96454  31.583  19.091   3.804
32687W        W96455  12.337   6.738  11.931
32688W        W96456   8.804   2.765  11.001
32689W        W96457   4.210  27.650  13.916
32690W        W96458   8.217  40.808   0.912
32691W        W96459  29.132   4.772  14.882
32692W        W96460  19.755   8.894   1.328
32693W        W96461  40.931  40.427  11.547
32694W        W96462  16.572  37.074  13.843
32695W        W96463   0.870  19.723   4.198
32696W        W96464  41.794  21.727   2.195
32697W        W96465  18.747  36.462   1.365
32698W        W96466  28.648   5.733  12.081
32699W        W96467  42.467   3.919  12.471
32700W        W96468   6.832  20.729  13.485
32701W        W96469  22.535  28.111   4.140
32702W        W96470  14.715  38.538   0.255
32703W        W96471  23.998   9.382  11.125
32704W        W96472  35.559   6.741   2.195
32705W        W96473  42.338  28.481  13.307
32706W        W96474  36.875   2.257   4.334
32707W        W96475  31.517   0.263   2.696
32708W        W96476   7.354  44.766  14.964
32709W        W96477  18.642  37.556   0.346
32710W        W96478   3.815  26.526   0.736
32711W        W96479  26.671   7.704  10.907
32712W        W96480   2.813  21.588  10.485
32713W        W96481  35.462  42.949   4.352
32714W        W96482  25.514  12.130  12.071
32715W        W96483  18.701  34.964  10.103
32716W        W96484  39.820  38.410  11.954
32717W        W96485  29.662  35.905   3.696
32718W        W96486   6.314  12.188   2.744
32719W        W96487   6.898   1.920   1.362
32720W        W96488  14.644   8.381   1.346
32721W        W96489  26.120  21.675   1.283
32722W        W96490  18.630  34.005  10.496
32723W        W96491  39.393  35.368   4.123
32724W        W96492  38.501  43.825   1.808
32725W        W96493  12.312  36.370   4.347
32726W        W96494  23.179  20.590   4.737
32727W        W96495   6.258  30.651   4.314
32728W        W96496  18.076  43.280   2.671
32729W        W96497   1.928  10.189  12.360
32730W        W96498  18.554  31.457   9.584
32731W        W96499  11.623   2.267  10.482
32732W        W96500  42.518  30.563  13.359
32733W        W96501  26.980  40.304   2.260
32734W        W96502   5.725  22.675   4.348
32735W        W96503  28.162  24.137   1.813
32736W        W96504  33.043   3.309   0.811
32737W        W96505  35.887  37.062   4.764
32738W        W96506   7.261  16.595   1.730
32739W        W96507  13.669  31.529  12.863
32740W        W96508  16.653  23.686  14.833
32741W        W96509  29.135  39.534   4.247
32742W        W96510   5.827  37.353   1.219
32743W        W96511  42.452  29.657   2.223
32744W        W96512   7.853  18.187   2.697
32745W        W96513  31.924  42.873   3.820
32746W        W96514  28.072  36.082   3.855
32747W        W96515  38.483  18.752   1.372
32748W        W96516  21.699  43.772   0.263
32749W        W96517  34.426  42.409  12.533
32750W        W96518  11.643  39.870  12.981
32751W        W96519   6.258   4.763  14.302
32752W        W96520  41.357  42.803   4.634
32753W        W96521   2.365  38.473  12.992
32754W        W96522  25.182   6.746  12.481
32755W        W96523   0.941  18.107  13.368
32756W        W96524  22.083  13.204  14.330
32757W        W96525  44.951  21.257   1.894
32758W        W96526  36.488  32.891  12.480
32759W        W96527  20.226  33.943  13.483
32760W        W96528  16.118  37.900  11.505
32761W        W96529  34.413   8.352  13.918
32762W        W96530  24.027   7.311  14.001
32763W        W96531  26.098   6.716   0.262
32764W        W96532  26.651  27.979  10.535
32765W        W96533  11.741  42.942  12.896
32766W        W96534  27.686   1.453  11.518
32767W        W96535  44.795   7.711   3.359
32768W        W96536  20.691  42.990   3.850
32769W        W96537  25.473  38.076  12.018
32770W        W96538   5.702  10.801  11.951
32771W        W96539  28.544  15.681  14.867
32772W        W96540  32.433   1.467   4.173
32773W        W96541  44.451   8.240   1.289
32774W        W96542  14.820  26.640  10.967
32775W        W96543  12.644  40.317  10.493
32776W        W96544   9.789  14.824  13.878
32777W        W96545   2.807   8.840  14.445
32778W        W96546  25.114  29.120  14.967
32779W        W96547  37.426  19.735   2.398
32780W        W96548  15.688   7.791   5.286
32781W        W96549   1.889  10.242  11.909
32782W        W96550  16.625  44.289   1.701
32783W        W96551  24.091   3.456  13.455
32784W        W96552  32.912  23.235  12.996
32785W        W96553  41.803  37.428  13.965
32786W        W96554  44.439  17.160   3.805
32787W        W96555  37.502   8.822   5.243
32788W        W96556  44.463   7.673   1.756
32789W        W96557  10.274  28.533   0.255
32790W        W96558   9.238  19.625   1.420
32791W        W96559  41.842  40.518  12.546
32792W        W96560  11.827   4.752  11.610
32793W        W96561   8.704   3.304   2.331
32794W        W96562  17.287   8.883   3.706
32795W        W96563  10.194  22.249  14.367
32796W        W96564   8.276  26.031  14.500
32797W        W96565  40.352  20.674  10.498
32798W        W96566  19.278   1.734   2.685
32799W        W96567  36.867  40.433  13.974
32800W        W96568  44.338  12.830  11.447
32801W        W96569   5.762  35.597   0.455
32802W        W96570  39.060  27.633  11.569
32803W        W96571   6.380  40.454   2.229
32804W        W96572  26.701  44.906  12.550
32805W        W96573  31.023  44.789  10.406
32806W        W96574   7.303  18.686  10.527
32807W        W96575   1.274  11.667   2.714
32808W        W96576   5.930  13.711   0.248
32809W        W96577  28.554  17.775  13.323
32810W        W96578   4.861  28.626   4.738
32811W        W96579  13.810  42.438   3.754
32812W        W96580  31.095  32.605  13.401
32813W        W96581  44.405   1.278   0.850
32814W        W96582  29.507  16.272   4.644
32815W        W96583   2.311   2.417   3.289
32816W        W96584   1.478  43.440  11.939
32817W        W96585  28.531  18.701  13.408
32818W        W96586   1.977  40.458   2.224
32819W        W96587   4.759   5.333  10.962
32820W        W96588  22.650  44.314  13.963
32821W        W96589  42.798  12.183   3.348
32822W        W96590  30.505  35.507   3.306
32823W        W96591  23.002  18.248  11.880
32824W        W96592  26.164  36.905  10.625
32825W        W96593  41.938  36.520   0.450
32826W        W96594  19.682  36.570  14.333
32827W        W96595  38.828  27.668  12.417
32828W        W96596  25.709  40.365  13.464
32829W        W96597   9.335   9.740   2.783
32830W        W96598  28.178  26.596   2.210
32831W        W96599  12.259  27.940   3.643
32832W        W96600   7.183  20.122  13.449
32833W        W96601  27.954  43.984   1.215
32834W        W96602   3.221  40.378   1.912
32835W        W96603   2.907  42.956   3.755
32836W        W96604  29.536  30.514  10.590
32837W        W96605  22.673  29.937  13.911
32838W        W96606  40.947   7.246   0.949
32839W        W96607  26.685  43.292  10.522
32840W        W96608   0.932  37.026   3.334
32841W        W96609  26.065  19.205  14.345
32842W        W96610  16.172  15.183  14.008
32843W        W96611  35.953  11.270   0.785
32844W        W96612  36.026  22.626  12.829
32845W        W96613   9.757  35.393   2.704
32846W        W96614  36.387  37.867   3.633
32847W        W96615   9.783   9.824  12.448
32848W        W96616  23.235  39.363  12.054
32849W        W96617  15.599   0.794  11.497
32850W        W96618  29.991  20.274  14.385
32851W        W96619  29.553   9.231   3.818
32852W        W96620  31.576  36.515  12.441
32853W        W96621  21.680  30.470   4.761
32854W        W96622  10.281  25.589  12.080
32855W        W96623  38.524   0.439   1.843
32856W        W96624  38.516  26.136  12.991
32857W        W96625  33.492  19.732  13.008
32858W        W96626  15.670  33.390  13.878
32859W        W96627  39.830  22.248  10.428
32860W        W96628  26.590  13.735  10.593
32861W        W96629  44.375  22.109  14.415
32862W        W96630  27.644  36.960  13.791
32863W        W96631  15.182  26.671   1.412
32864W        W96632  36.063  21.715   3.736
32865W        W96633  15.749  16.749   2.816
32866W        W96634   9.677  42.880  10.618
32867W        W96635  21.102  44.328   3.783
32868W        W96636  21.114  27.623  11.071
32869W        W96637  15.654  33.583  12.463
32870W        W96638  15.813  12.666  13.397
32871W        W96639  25.973   1.373  10.891
32872W        W96640  41.900  22.526   0.373
32873W        W96641  17.758  14.167   2.417
32874W        W96642  12.218  24.663   4.695
32875W        W96643  16.206  37.581  12.464
32876W        W96644  23.200  17.774  12.933
32877W        W96645  18.272  42.889   2.890
32878W        W96646  27.015  35.074   1.835
32879W        W96647  36.893   3.270  13.376
32880W        W96648  35.365  36.068  12.020
32881W        W96649   8.769  14.170  14.462
32882W        W96650  26.109  11.201   0.953
32883W        W96651  29.627  27.974   1.410
32884W        W96652  42.906  40.468   1.339
32885W        W96653  17.613  37.366  12.090
32886W        W96654   8.341  29.597  11.033
32887W        W96655  15.631  43.900   0.283
32888W        W96656  24.009   0.845   4.691
32889W        W96657   8.865  39.010  11.601
32890W        W96658  32.983  34.434   0.843
32891W        W96659  39.469  42.513  12.956
32892W        W96660  34.924  14.206   4.311
32893W        W96661  39.486  16.807   3.813
32894W        W96662  34.082   4.446  11.594
32895W        W96663  11.767   7.359  11.406
32896W        W96664  13.648  12.806  12.348
32897W        W96665  36.406   0.465   3.845
32898W        W96666  30.956  44.467   4.186
32899W        W96667  36.915  25.074   1.294
32900W        W96668   8.225  20.551   0.766
32901W        W96669  32.391  43.445   1.258
32902W        W96670  26.683  20.639  12.426
32903W        W96671  28.616  39.560   2.189
32904W        W96672  16.108  19.157  12.379
32905W        W96673  38.937  31.538   4.656
32906W        W96674  29.473   3.877  13.393
32907W        W96675  42.844  18.580   2.760
32908W        W96676  38.560  36.580  14.007
32909W        W96677  15.733  33.100  13.517
32910W        W96678  34.949   8.346   1.304
32911W        W96679  11.158  31.896   0.916
32912W        W96680  37.528  43.913   3.170
32913W        W96681  24.997  37.496   4.157
32914W        W96682  11.191  20.625   0.325
32915W        W96683  26.617  26.577   5.236
32916W        W96684   6.786   7.888   1.410
32917W        W96685  29.041  24.138  12.962
32918W        W96686  30.462  17.780   0.805
32919W        W96687  27.539  24.991  11.070
32920W        W96688   3.223  43.836   2.745
32921W        W96689  23.550  28.626   3.229
32922W        W96690   4.885  18.235   1.829
32923W        W96691  24.163   0.384  14.445
32924W        W96692  29.106  40.862   2.381
32925W        W96693  19.094  29.130   3.775
32926W        W96694  41.848   5.887  13.327
32927W        W96695  26.486  35.971   1.932
32928W        W96696  28.675  37.890   1.430
32929W        W96697   8.776   0.873   3.290
32930W        W96698  11.712  12.730  11.894
32931W        W96699  23.665  35.460  12.547
32932W        W96700  14.142  17.649   3.339
32933W        W96701  41.902   3.287   0.738
32934W        W96702   3.757  26.466  14.325
32935W        W96703  19.174  12.170   2.772
32936W        W96704   9.192  31.625   4.826
32937W        W96705  20.231  41.340  13.055
32938W        W96706  19.744  18.607  11.920
32939W        W96707  35.053  20.206   3.311
32940W        W96708  26.982   7.904  11.047
32941W        W96709   6.680  24.664  10.524
32942W        W96710  43.841  37.044   0.441
32943W        W96711  29.958   0.941   1.285
32944W        W96712  35.858   7.782  14.819
32945W        W96713   3.401  17.699   3.242
32946W        W96714  29.467   0.291  13.997
32947W        W96715  29.586   1.411   2.854
32948W        W96716  10.203  23.670  11.057
32949W        W96717  37.442  40.936   2.756
32950W        W96718  14.659  38.510  14.774
32951W        W96719  19.542  23.515   0.777
32952W        W96720  22.218  34.541  13.540
32953W        W96721  44.879  19.776   3.788
32954W        W96722   0.289   3.889   1.366
32955W        W96723  29.627  34.431   2.410
32956W        W96724  23.214  40.979  12.022
32957W        W96725   2.398  10.785  12.493
32958W        W96726  27.644   0.368  10.970
32959W        W96727  39.055  24.978  10.629
32960W        W96728  30.448  29.562  13.947
32961W        W96729  30.099  20.092   3.641
32962W        W96730  10.752   0.928  10.511
32963W        W96731  29.461  11.832  14.877
32964W        W96732  37.952  16.685  10.948
32965W        W96733  19.254  31.518  11.467
32966W        W96734   7.270  31.524   4.689
32967W        W96735   7.761   5.821   2.716
32968W        W96736  10.665  16.708   4.714
32969W        W96737  24.101  14.598   0.353
32970W        W96738  28.086  13.788   3.791
32971W        W96739  44.852   5.719   2.720
32972W        W96740   3.265  12.855   0.810
32973W        W96741   3.456   8.736   2.700
32974W        W96742  29.033  39.455   0.263
32975W        W96743  11.311  21.141   4.270
32976W        W96744  38.862  14.632  10.505
32977W        W96745  15.658   6.921   0.298
32978W        W96746   0.406  20.031   0.938
32979W        W96747  14.171   8.778  12.087
32980W        W96748   3.840   4.791   4.662
32981W        W96749   8.709   0.306  12.348
32982W        W96750  42.469   4.313  10.960
32983W        W96751  27.084  27.162   2.350
32984W        W96752  20.073  16.103  10.580
32985W        W96753  32.619  42.292   4.318
32986W        W96754  44.770  32.995   4.329
32987W        W96755   6.853  30.420   3.252
32988W        W96756  21.580  40.414   3.346
32989W        W96757  14.110  21.035  13.400
32990W        W96758  36.017  30.464  12.446
32991W        W96759  16.599  34.051   3.277
32992W        W96760  33.100  12.313  14.811
32993W        W96761   8.193  43.459   4.807
32994W        W96762  16.784  10.373  10.477
32995W        W96763  13.797  27.164   4.722
32996W        W96764   0.445  15.271   1.803
32997W        W96765  29.918  15.767  12.478
32998W        W96766   7.327  13.802   2.836
32999W        W96767   2.833  20.223   0.314
33000W        W96768  18.628  42.479   4.766
33001W        W96769  41.836  23.627   5.102
33002W        W96770  18.777  34.377   3.331
33003W        W96771  27.949   0.440   9.979
33004W        W96772  22.598   0.987   4.304
33005W        W96773  25.479  44.440   1.373
33006W        W96774  38.958   1.290  12.920
33007W        W96775  14.156  30.479  13.371
33008W        W96776   9.223  30.131   2.412
33009W        W96777  23.663   1.355  13.959
33010W        W96778   9.884  34.974   0.445
33011W        W96779  32.402  10.360   2.217
33012W        W96780  12.769  33.469   2.359
33013W        W96781   5.817  22.117   2.256
33014W        W96782  38.065   1.814  12.402
33015W        W96783  33.520  28.036  12.341
33016W        W96784  23.696   3.395  12.347
33017W        W96785   5.877  39.471  14.839
33018W        W96786   0.874   6.278   1.274
33019W        W96787  38.524  38.555   3.249
33020W        W96788  32.084  36.531  13.984
33021W        W96789  10.243  34.040  13.545
33022W        W96790  25.980   2.821   2.251
33023W        W96791   1.463  25.700   3.160
33024W        W96792  39.475  11.346   1.825
33025W        W96793  27.462  15.116   1.824
33026W        W96794  19.565  41.388  10.996
33027W        W96795  43.018   1.447   3.722
33028W        W96796  16.082  12.319   1.416
33029W        W96797  21.653  44.779   4.628
33030W        W96798  23.106  35.565  11.517
33031W        W96799  20.148  27.690   3.850
33032W        W96800   6.824  12.290  11.067
33033W        W96801  11.655  35.067  10.553
33034W        W96802  16.090  26.625  11.999
33035W        W96803  27.126  36.494   0.372
33036W        W96804   1.351  12.829   1.240
33037W        W96805  39.415  41.929   4.235
33038W        W96806   0.813  14.830   1.320
33039W        W96807  23.995   0.300  12.982
33040W        W96808  19.605  10.690  14.486
33041W        W96809  41.802  42.456  13.343
33042W        W96810  17.179  16.763   4.122
33043W        W96811   0.827  24.538   4.350
33044W        W96812  39.454   6.308   2.803
33045W        W96813   4.237  40.442  13.394
33046W        W96814   1.483   6.200  13.444
33047W        W96815  30.034   6.899  10.944
33048W        W96816  38.328  29.991  13.421
33049W        W96817  20.567  25.151  13.464
33050W        W96818  30.116   6.390  10.475
33051W        W96819  40.840   7.851   2.675
33052W        W96820  36.525  36.444   2.243
33053W        W96821   6.397   9.730  14.900
33054W        W96822   9.261  42.866   1.918
33055W        W96823  18.110  36.950  12.903
33056W        W96824  30.115  39.958   0.419
33057W        W96825  23.055  27.656   1.799
33058W        W96826  17.098  21.259   0.371
33059W        W96827   8.293   7.406  13.063
33060W        W96828  38.017   5.871  11.027
33061W        W96829   0.815   7.746  12.984
33062W        W96830  10.273  39.982  11.450
33063W        W96831  37.941  44.317  10.464
33064W        W96832  10.165  14.192  10.902
33065W        W96833  31.083  31.100   3.239
33066W        W96834  22.175  26.046  13.372
33067W        W96835   2.242  18.740  14.939
33068W        W96836  40.960  26.633   1.840
33069W        W96837  27.195   8.342  13.321
33070W        W96838  40.898  24.043   0.853
33071W        W96839   4.325  23.685  10.555
33072W        W96840  32.417  34.525  10.895
33073W        W96841  37.914   9.663  11.993
33074W        W96842  28.642  35.109   3.232
33075W        W96843  26.542  15.743  14.932
33076W        W96844   4.867  33.911  10.525
33077W        W96845  34.918  17.685  13.354
33078W        W96846  16.252   3.890   2.676
33079W        W96847  39.324  27.001  13.987
33080W        W96848  40.439  11.857  12.394
33081W        W96849  27.686  18.290  14.988
33082W        W96850  16.190  21.199   2.785
33083W        W96851   6.830  18.604  11.956
33084W        W96852  44.407   9.857   2.355
33085W        W96853  36.373   9.331  13.362
33086W        W96854   9.753  40.331  11.541
33087W        W96855  28.537  15.818   4.291
33088W        W96856  41.975  30.519   4.611
33089W        W96857  21.751  15.204   0.419
33090W        W96858  43.790  23.138  10.889
33091W        W96859   3.459  19.081   4.785
33092W        W96860  30.049  27.160  12.419
33093W        W96861  37.982  40.408  10.137
33094W        W96862  27.616  20.633   4.770
33095W        W96863   1.911  11.237  12.520
33096W        W96864   7.879   2.830  11.587
33097W        W96865  28.085  12.185   2.351
33098W        W96866   5.314  18.718  10.992
33099W        W96867  44.488  39.415  10.980
33100W        W96868  11.181  19.607   1.837
33101W        W96869   6.810  21.734  13.841
33102W        W96870   1.281  34.984   3.185
33103W        W96871   9.302  23.570  14.775
33104W        W96872  42.499  43.876  14.820
33105W        W96873  28.552  24.105   1.838
33106W        W96874  13.172  40.316   2.362
33107W        W96875  42.935  33.591   5.199
33108W        W96876  38.478   3.220  11.049
33109W        W96877  40.914  28.030   3.793
33110W        W96878   4.826   5.365  11.970
33111W        W96879  20.524  39.865   0.482
33112W        W96880  34.004  41.455  12.877
33113W        W96881   4.262  24.587  14.394
33114W        W96882  15.806  29.477  14.313
33115W        W96883  16.256  22.116  14.300
33116W        W96884  28.154  34.101  14.004
33117W        W96885  44.308  15.773  12.410
33118W        W96886  17.769  30.059  10.104
33119W        W96887   9.255  41.435   0.800
33120W        W96888  12.817   2.232   4.807
33121W        W96889  33.572  13.255  14.280
33122W        W96890  13.726  11.173  13.890
33123W        W96891  21.055   5.388  11.449
33124W        W96892  15.687   5.840  11.958
33125W        W96893   4.842  42.905   0.779
33126W        W96894  41.491   0.869  10.620
33127W        W96895  29.548   2.839  12.967
33128W        W96896  16.615   5.350  14.314
33129W        W96897  32.565  26.687   1.391
33130W        W96898  22.068  22.600   2.353
33131W        W96899  25.172  41.364   4.689
33132W        W96900  33.929  22.111   4.210
33133W        W96901  27.175   4.824   3.200
33134W        W96902  24.483  30.051   0.787
33135W        W96903   0.844  29.556   0.891
33136W        W96904   4.867   4.766  11.036
33137W        W96905  17.627  27.654  12.039
33138W        W96906  15.649  44.503  11.523
33139W        W96907  25.615  44.776   2.240
33140W        W96908  15.221  17.115  11.591
33141W        W96909  28.515  31.645  12.480
33142W        W96910   8.299   3.831   3.380
33143W        W96911  31.931  13.116  13.311
33144W        W96912  15.104   5.712   0.406
33145W        W96913  37.375   4.932  10.491
33146W        W96914  44.004  40.022   2.363
33147W        W96915   1.243  33.984   3.868
33148W        W96916  34.442   4.254  13.352
33149W        W96917  14.680  37.441   3.810
33150W        W96918  16.188  28.542  13.949
33151W        W96919  43.516  40.528   3.310
33152W        W96920  14.626  30.630  11.967
33153W        W96921  15.678  19.129   0.800
33154W        W96922   9.669  24.179  13.849
33155W        W96923  13.104  21.233  13.811
33156W        W96924   6.890  39.979   4.817
33157W        W96925  33.425  10.153  11.054
33158W        W96926  21.595  44.932   0.323
33159W        W96927  40.396  40.871   2.711
33160W        W96928  16.090  34.005   3.782
33161W        W96929  27.560  19.726   4.327
33162W        W96930   1.740  23.711  12.561
33163W        W96931  13.811  24.011   5.235
33164W        W96932  14.227   9.371  14.848
33165W        W96933  41.409  12.772  14.759
33166W        W96934  23.655  33.957   3.632
33167W        W96935  38.424  36.957  13.431
33168W        W96936   9.730  29.998  14.375
33169W        W96937  33.578  37.582  11.068
33170W        W96938   1.901  17.264   5.191
33171W        W96939   7.666  26.646   9.936
33172W        W96940  29.922  18.257   5.177
33173W        W96941  34.436  17.141  12.576
33174W        W96942   9.762  42.909   3.849
33175W        W96943  37.406  13.179   1.381
33176W        W96944  17.592  21.081   2.664
33177W        W96945   6.241  21.605   0.883
33178W        W96946  36.564  43.889   3.344
33179W        W96947  41.358  12.845  12.497
33180W        W96948  17.741  42.810  13.384
33181W        W96949  36.499  43.901   2.732
33182W        W96950  23.991  35.032  12.578
33183W        W96951  16.090  44.330  12.579
33184W        W96952  26.152  12.718  13.471
33185W        W96953   9.702  12.190  10.561
33186W        W96954  11.147  24.587   2.877
33187W        W96955  44.009   7.259  10.594
33188W        W96956  10.859   5.309  10.642
33189W        W96957  37.933  31.998  10.415
33190W        W96958  31.943  34.500   0.929
33191W        W96959  34.033   4.797   4.137
33192W        W96960  18.206  16.687  14.358
33193W        W96961   3.257  43.316   0.372
33194W        W96962  39.524   5.867   0.370
33195W        W96963  40.912  12.123  11.386
33196W        W96964  25.668  10.776   0.331
33197W        W96965  26.131  14.263   0.440
33198W        W96966   1.342  32.969  11.429
33199W        W96967  42.317  19.650   1.273
33200W        W96968  23.649  35.920   0.414
33201W        W96969  32.899  35.454   0.440
33202W        W96970  12.335   0.347   4.296
33203W        W96971  22.233  12.796   0.294
33204W        W96972  14.721  27.618  14.389
33205W        W96973  14.183  40.876   4.783
33206W        W96974   5.203   4.280   3.197
33207W        W96975  36.085  19.131  13.829
33208W        W96976  32.128  35.040  13.371
33209W        W96977  24.572   2.316   3.726
33210W        W96978  43.305  33.435  14.352
33211W        W96979   2.344  44.388  12.426
33212W        W96980  18.597  17.223  14.396
33213W        W96981  37.439  38.051  14.343
33214W        W96982   5.801  22.546   2.323
33215W        W96983  40.459  35.379   2.347
33216W        W96984  28.084  14.637  12.552
33217W        W96985  32.482   7.336  13.453
33218W        W96986  17.062   2.743   3.368
33219W        W96987  23.731  27.611  13.966
33220W        W96988  23.133  42.777  13.532
33221W        W96989  44.797  33.009  14.343
33222W        W96990  41.495  20.568  11.448
33223W        W96991  18.161  34.497  13.320
33224W        W96992   0.928  33.579   3.676
33225W        W96993  22.251  11.866  14.811
33226W        W96994  43.008  19.682  12.913
33227W        W96995  37.478   5.851   2.267
33228W        W96996   4.409  10.147   4.207
33229W        W96997  40.425  13.689  10.437
33230W        W96998  12.203  38.378  13.470
33231W        W96999  44.421  19.732   3.768
33232W        W97000   4.387  35.428  10.406
33233W        W97001  37.515  38.552   1.699
33234W        W97002  24.711  12.350   0.432
33235W        W97003  18.289  25.994   0.796
33236W        W97004  30.496   3.341   1.742
33237W        W97005  25.001  40.325   2.402
33238W        W97006   2.454  18.274   3.163
33239W        W97007  41.395   4.777  14.455
33240W        W97008  16.266   8.168   2.715
33241W        W97009  35.456  16.765   2.717
33242W        W97010  17.555  20.634  11.993
33243W        W97011   1.237   7.333  13.959
33244W        W97012  34.385  18.179  10.452
33245W        W97013   2.395  12.195   1.275
33246W        W97014  32.097  26.157  12.341
33247W        W97015  11.303  14.269   4.236
33248W        W97016  17.299  30.529   1.753
33249W        W97017  22.020  24.665   3.181
33250W        W97018  34.608  34.008   4.797
33251W        W97019   9.835  10.200   2.244
33252W        W97020   2.432  31.920  11.396
33253W        W97021  32.065   6.810   2.196
33254W        W97022  39.996  15.591  14.927
33255W        W97023  39.485   1.922  14.429
33256W        W97024   9.832   8.207   0.911
33257W        W97025  13.794  13.205   2.718
33258W        W97026  38.430  16.591   4.659
33259W        W97027  18.569   2.885   4.738
33260W        W97028  31.589  29.513   2.397
33261W        W97029  24.546  10.220   2.201
33262W        W97030  14.277   3.331   4.820
33263W        W97031  11.714  36.893   1.225
33264W        W97032  26.994   8.200   1.739
33265W        W97033   0.440  35.019   4.675
33266W        W97034  41.884  40.831   0.416
33267W        W97035  13.174  42.838  11.973
33268W        W97036   1.453  29.593  10.921
33269W        W97037   6.346   0.316  14.867
33270W        W97038  19.665  10.865   1.289
33271W        W97039  25.597  22.170  12.503
33272W        W97040  35.979   0.782  12.970
33273W        W97041  11.246  16.167  11.473
33274W        W97042  33.059  15.731   1.394
33275W        W97043  29.085  24.986  10.544
33276W        W97044  12.663  34.880  14.454
33277W        W97045  21.559  33.933   9.548
33278W        W97046  17.153  35.519  14.817
33279W        W97047  33.588  43.386  11.084
33280W        W97048  29.018   8.270   2.830
33281W        W97049  33.451  19.157   2.839
33282W        W97050  15.817  31.113  14.005
33283W        W97051  11.370   4.909   2.355
33284W        W97052  41.928  36.873  14.309
33285W        W97053   0.316  30.977   3.303
33286W        W97054  16.249   9.188  10.990
33287W        W97055  25.653  15.789  11.555
33288W        W97056  30.438  29.651   0.455
33289W        W97057  20.180  14.808   1.814
33290W        W97058  24.180  39.437   1.860
33291W        W97059  40.377  37.476  11.016
33292W        W97060  36.990  27.152  13.540
33293W        W97061  24.540  32.523   4.245
33294W        W97062  24.697  27.674  11.054
33295W        W97063  41.374  28.555   0.362
33296W        W97064  22.020  38.533  14.946
33297W        W97065   3.855  38.001   0.254
33298W        W97066   5.903  26.480   0.258
33299W        W97067   8.854  37.876  10.530
33300W        W97068  40.379  37.475   3.315
33301W        W97069  28.598  23.638   3.313
33302W        W97070  23.118  13.259  11.551
33303W        W97071   1.944  23.600  14.958
33304W        W97072  39.490  19.256  13.429
33305W        W97073   9.700  11.859   4.838
33306W        W97074  23.714  18.168   2.890
33307W        W97075  27.685  36.458   3.187
33308W        W97076  30.580  23.051  14.336
33309W        W97077  42.872  12.187   0.834
33310W        W97078  22.541  28.933   4.232
33311W        W97079  35.982  41.463  11.107
33312W        W97080  12.852  30.968  10.910
33313W        W97081  33.483  21.133  12.464
33314W        W97082  31.009   4.216  14.945
33315W        W97083  10.813  22.517  13.423
33316W        W97084  42.390  36.880  10.996
33317W        W97085  39.345   5.285  12.861
33318W        W97086   5.796  31.483   4.837
33319W        W97087  20.138  29.604   3.326
33320W        W97088  17.297   7.686  12.569
33321W        W97089  17.084  12.188  13.057
33322W        W97090  42.809   6.784  14.002
33323W        W97091  37.839  39.957   0.764
33324W        W97092   8.370  35.584   2.680
33325W        W97093  22.514  32.010   2.400
33326W        W97094  19.172  20.028  14.350
33327W        W97095  42.326  11.867  14.477
33328W        W97096  11.721  38.556  14.763
33329W        W97097   9.789  28.101   0.942
33330W        W97098   0.883  29.935   3.692
33331W        W97099  41.884  20.593  14.983
33332W        W97100   9.347  27.099  14.838
33333W        W97101  25.490   1.373   3.704
33334W        W97102  14.623  31.611   4.185
33335W        W97103  31.512  18.694  12.541
33336W        W97104  26.509   6.375   4.180
33337W        W97105   6.393  33.032  13.960
33338W        W97106  41.807  31.017  14.854
33339W        W97107  22.157  19.251  11.990
33340W        W97108  32.609  24.590   2.262
33341W        W97109  36.957   8.682   3.648
33342W        W97110  35.486  34.542   3.845
33343W        W97111  11.746  37.901  10.444
33344W        W97112   4.713  20.611   4.160
33345W        W97113  12.626  13.221   2.297
33346W        W97114   1.265  18.054   0.355
33347W        W97115  33.528  44.259   1.433
33348W        W97116   5.373   7.411   4.766
33349W        W97117  29.565   6.266  11.976
33350W        W97118  41.364  42.788   2.374
33351W        W97119  17.788  26.041   3.836
33352W        W97120  30.530  36.356  14.370
33353W        W97121  40.339  13.232  12.075
33354W        W97122  28.549  40.528  11.488
33355W        W97123   4.868  32.535   3.308
33356W        W97124  16.228   3.830   4.680
33357W        W97125  24.184   6.317  14.803
33358W        W97126  31.059  31.529   4.352
33359W        W97127  24.983   4.930   4.219
33360W        W97128  26.063  42.831   3.283
33361W        W97129  15.149  34.909  13.446
33362W        W97130  27.506   4.405   1.727
33363W        W97131  18.687  29.094   4.123
33364W        W97132  33.950   8.827   2.811
33365W        W97133   2.914  34.864   4.170
33366W        W97134  24.584   6.889   0.443
33367W        W97135  16.202  31.607  11.563
33368W        W97136  19.084   0.467   0.735
33369W        W97137  38.553   3.223  13.938
33370W        W97138  11.686  28.186  14.474
33371W        W97139  24.487  30.559  12.363
33372W        W97140  36.089   5.396   3.274
33373W        W97141  18.100  43.440  11.444
33374W        W97142  17.303  35.028  10.543
33375W        W97143  39.973  31.602   4.214
33376W        W97144  13.618  39.423  12.450
33377W        W97145  25.979  10.816   1.225
33378W        W97146  38.838  23.673   3.764
33379W        W97147  34.449  43.297   4.198
33380W        W97148  11.146  33.129   0.884
33381W        W97149   5.782  25.091  10.963
33382W        W97150  41.846  10.822  14.429
33383W        W97151  39.021  15.691  10.494
33384W        W97152  21.570   9.163  14.914
33385W        W97153   0.493   5.787   4.685
33386W        W97154  19.713  44.892  11.107
33387W        W97155  22.189  15.757  14.765
33388W        W97156  11.686  40.930  13.805
33389W        W97157  38.819  26.013   2.785
33390W        W97158  20.539  22.568   4.230
33391W        W97159  15.307  23.112  11.542
33392W        W97160  34.966  39.397   3.802
33393W        W97161  26.173  23.172  14.861
33394W        W97162  32.963   4.324  12.877
33395W        W97163  35.916  31.152  10.453
33396W        W97164   2.248   2.868   1.368
33397W        W97165  28.631  32.913   3.327
33398W        W97166  11.670  34.034  14.902
33399W        W97167   7.199   3.389   2.189
33400W        W97168  17.269  38.070   3.310
33401W        W97169   7.739  42.899  11.026
33402W        W97170   7.203  37.047   0.773
33403W        W97171  30.948   7.173  12.350
33404W        W97172   0.407  27.075   3.308
33405W        W97173  13.336   5.277   3.255
33406W        W97174  32.086  27.577  12.999
33407W        W97175  24.133  38.394  11.969
33408W        W97176   8.866  37.336  14.786
33409W        W97177  40.002   0.988   0.262
33410W        W97178  26.576  32.111  11.475
33411W        W97179  33.901  11.329  11.450
33412W        W97180  23.520  29.155  11.509
33413W        W97181  11.817  24.112  13.020
33414W        W97182  15.695  26.967   3.842
33415W        W97183  27.691  25.024   0.281
33416W        W97184  21.664  37.566   3.258
33417W        W97185  15.274  23.014   0.266
33418W        W97186  26.628  12.233   2.723
33419W        W97187  44.824   3.429  10.540
33420W        W97188  23.559  17.096   2.315
33421W        W97189  39.901  13.636   2.380
33422W        W97190  34.609  30.033  12.341
33423W        W97191  27.180   2.346  10.531
33424W        W97192  26.666  11.342   2.392
33425W        W97193  10.763  10.237   2.207
33426W        W97194  11.335  30.655   4.697
33427W        W97195  29.465  23.674   4.661
33428W        W97196   9.186  20.081   3.345
33429W        W97197  38.936   8.343  14.996
33430W        W97198  38.899  14.755   1.815
33431W        W97199  43.408  34.484  11.387
33432W        W97200  16.605   1.366  11.443
33433W        W97201   9.306  17.303  10.966
33434W        W97202  25.498  19.269   3.284
33435W        W97203  29.596   7.668  10.406
33436W        W97204  10.762  39.945   3.643
33437W        W97205   4.885  13.252   3.661
33438W        W97206  10.657   8.798  14.980
33439W        W97207  14.318  11.363   2.773
33440W        W97208  32.574  12.796   2.411
33441W        W97209  25.000  27.067  14.495
33442W        W97210  14.660  27.668  13.804
33443W        W97211  37.497  38.961   0.397
33444W        W97212  44.459  23.554   2.379
33445W        W97213  20.043   9.759  12.078
33446W        W97214  44.004  12.184  10.428
33447W        W97215  11.245  13.329  13.063
33448W        W97216  10.722  10.336  12.426
33449W        W97217  26.638  12.252  14.408
33450W        W97218  32.394   8.354   1.366
33451W        W97219  21.166  36.453   3.186
33452W        W97220  41.838  11.694  10.448
33453W        W97221  18.596  41.948  10.642
33454W        W97222  31.455  27.093  12.914
33455W        W97223   8.757  30.141  11.452
33456W        W97224  40.362  35.093  13.044
33457W        W97225   1.883  30.526   4.216
33458W        W97226   4.301  18.675   4.705
33459W        W97227  34.988  27.477  14.290
33460W        W97228  43.273  25.504  13.979
33461W        W97229   4.731  28.495  11.467
33462W        W97230  18.260  12.282   4.672
33463W        W97231  16.318   3.324   4.287
33464W        W97232  30.494  29.049  13.913
33465W        W97233  19.692  12.789  12.835
33466W        W97234  18.743  28.566   3.751
33467W        W97235  28.995  33.939  12.492
33468W        W97236  30.445  14.703  10.564
33469W        W97237  43.456  14.712  12.911
33470W        W97238  28.184  17.290   3.698
33471W        W97239  29.003  29.547   3.296
33472W        W97240  20.763  22.163  12.011
33473W        W97241  34.019  15.299   4.813
33474W        W97242  24.205   2.396  12.850
33475W        W97243  11.289  26.980  14.421
33476W        W97244   0.856  22.574  13.019
33477W        W97245  19.582   3.844   3.793
33478W        W97246  17.575   7.311   1.890
33479W        W97247  27.964   0.352   4.198
33480W        W97248  12.202  10.697  14.291
33481W        W97249   2.951  35.001  11.869
33482W        W97250  40.830   0.420   3.327
33483W        W97251  27.504  43.928   0.484
33484W        W97252  12.342  37.473  13.326
33485W        W97253   9.258  40.859   4.330
33486W        W97254  13.655  28.457  13.051
33487W        W97255  40.812   2.402  13.060
33488W        W97256  38.955  25.164   2.756
33489W        W97257  19.118  41.317  11.921
33490W        W97258  35.472   2.793   2.886
33491W        W97259  14.771   7.763  14.029
33492W        W97260   2.354   4.779   0.342
33493W        W97261  11.360   3.285  13.964
33494W        W97262   4.926   8.876  10.600
33495W        W97263  43.866  28.935   2.895
33496W        W97264  44.977  28.947   4.682
33497W        W97265  41.878  14.820  13.949
33498W        W97266  36.378  26.036   1.298
33499W        W97267  21.093  11.280   5.295
33500W        W97268  14.755  16.738  10.617
33501W        W97269  25.133  14.146   1.346
33502W        W97270  10.753  38.476  14.784
33503W        W97271  41.530  42.417  12.362
33504W        W97272   7.911   4.224  10.503
33505W        W97273  11.794   3.898   4.314
33506W        W97274  37.463   1.858  12.526
33507W        W97275   9.276  28.175  10.416
33508W        W97276  21.050  26.086   4.192
33509W        W97277  12.269  31.409   0.477
33510W        W97278  34.073   3.376   3.665
33511W        W97279   6.678  27.591  11.416
33512W        W97280  14.306  33.908   1.820
33513W        W97281  15.184  19.128  10.896
33514W        W97282  40.891  21.194  12.979
33515W        W97283  11.774  15.124   2.817
33516W        W97284  40.900  34.007  13.018
33517W        W97285  11.716  10.651   1.785
33518W        W97286  17.675  17.226  13.408
33519W        W97287   2.833  18.206  14.875
33520W        W97288  28.631  37.042  14.286
33521W        W97289   3.890  22.576   4.631
33522W        W97290  16.707   5.383  11.958
33523W        W97291   4.342  11.800   3.351
33524W        W97292  32.034  14.315  14.777
33525W        W97293  30.647  38.013   3.671
33526W        W97294   8.881  34.468  14.301
33527W        W97295  32.480  26.008  13.491
33528W        W97296  16.701  36.531  11.590
33529W        W97297   5.233  37.934   2.247
33530W        W97298  40.526  14.109   4.287
33531W        W97299   4.718  30.924   4.662
33532W        W97300  37.920  24.113   0.433
33533W        W97301  22.579   1.249   1.446
33534W        W97302   9.242  13.606   3.330
33535W        W97303  36.892  30.021   3.321
33536W        W97304  37.506   4.216   1.266
33537W        W97305  35.011   1.350   4.804
33538W        W97306  44.764  43.474   2.400
33539W        W97307  12.778  34.445  12.092
33540W        W97308  29.155  40.469   1.877
33541W        W97309   1.975  30.968  13.421
33542W        W97310   2.807  39.399   9.947
33543W        W97311   0.470  31.524  14.994
33544W        W97312  35.475  22.247   2.779
33545W        W97313  17.727  19.553   0.933
33546W        W97314  27.587  41.300  10.601
33547W        W97315  21.021   5.744  14.859
33548W        W97316  31.531   7.715   1.830
33549W        W97317  38.955  12.659   4.346
33550W        W97318  34.051  34.003  10.485
33551W        W97319   3.734  28.151   4.176
33552W        W97320  24.652  43.292  13.810
33553W        W97321  27.115   6.321   4.674
33554W        W97322  34.427  10.828  13.915
33555W        W97323  28.025  27.046   2.194
33556W        W97324  39.973   3.833  10.466
33557W        W97325  26.007  24.657  13.544
33558W        W97326  29.165  43.366  13.453
33559W        W97327  35.561  35.520  12.432
33560W        W97328  37.857  22.720   2.728
33561W        W97329  20.623  10.776   1.742
33562W        W97330   2.898  43.998   3.686
33563W        W97331  21.750  25.691   0.397
33564W        W97332  20.219  29.561  10.932
33565W        W97333  17.291  20.709  14.496
33566W        W97334   5.900  16.139   1.934
33567W        W97335  36.385  21.258  12.868
33568W        W97336  42.468   9.362   4.134
33569W        W97337   0.855  32.969   3.754
33570W        W97338  36.897  37.927  13.336
33571W        W97339  13.260   7.209  10.992
33572W        W97340  15.150  28.453  13.979
33573W        W97341  14.192  39.960  12.085
33574W        W97342  40.493  33.586   3.815
33575W        W97343  33.538  37.927  13.047
33576W        W97344   6.890  12.241   0.854
33577W        W97345  25.012  10.632   2.847
33578W        W97346  36.387  37.977   4.659
33579W        W97347  19.285  38.976   2.333
33580W        W97348  12.644  40.431   3.277
33581W        W97349  15.182  30.115  11.503
33582W        W97350  26.167  43.968   2.717
33583W        W97351  43.382  12.349   3.279
33584W        W97352  30.017  31.529  11.095
33585W        W97353  31.490  24.116   2.766
33586W        W97354  14.329  33.881   3.683
33587W        W97355  20.591  44.777   3.758
33588W        W97356  42.999   4.216   2.853
33589W        W97357  14.300   7.413   0.919
33590W        W97358  31.540  36.350   3.154
33591W        W97359  23.148  14.240  10.555
33592W        W97360  34.043  35.399   3.670
33593W        W97361  12.691  26.556   0.968
33594W        W97362  37.029  26.683   4.342
33595W        W97363  40.505  23.213  10.427
33596W        W97364  33.486  12.655   2.252
33597W        W97365  39.013  35.961  12.025
33598W        W97366  20.710  18.291   4.164
33599W        W97367   8.679  43.469  14.962
33600W        W97368  38.537  16.188   2.853
33601W        W97369   0.799   4.728   2.778
33602W        W97370  21.534  21.750   3.254
33603W        W97371  14.733   2.897   4.799
33604W        W97372  35.565  15.152  10.525
33605W        W97373  40.930   0.252   4.781
33606W        W97374  24.717  24.651   3.334
33607W        W97375  35.880  17.788   3.826
33608W        W97376   4.346  17.658   4.251
33609W        W97377   5.430  21.636  12.987
33610W        W97378  39.347  35.073  11.484
33611W        W97379  35.855   8.165   4.304
33612W        W97380  20.124  43.945   0.310
33613W        W97381  37.399  13.750   0.445
33614W        W97382  33.514  24.676  10.910
33615W        W97383  13.138  22.703  14.321
33616W        W97384  26.984  37.439  11.407
33617W        W97385  35.969  28.676  12.977
33618W        W97386  12.214  14.750  11.554
33619W        W97387  18.289  17.757   2.413
33620W        W97388  43.817  10.662  13.424
33621W        W97389  29.644   0.822   0.435
33622W        W97390   5.383  32.526   1.837
33623W        W97391  32.508  33.492   4.309
33624W        W97392  26.097  37.831  11.884
33625W        W97393  27.959  44.460   5.193
33626W        W97394  18.208  27.076  14.807
33627W        W97395  34.909  18.288   0.907
33628W        W97396  26.524   6.840  13.413
33629W        W97397  31.464  13.792   2.373
33630W        W97398  26.592  43.950  10.891
33631W        W97399  12.166   3.878  12.085
33632W        W97400  11.199  11.257   3.225
33633W        W97401   1.363  37.033  12.342
33634W        W97402  15.301  28.446  14.962
33635W        W97403  26.508  42.815   0.824
33636W        W97404  24.623  10.879  14.007
33637W        W97405  31.992  39.518  14.951
33638W        W97406  31.440  11.163  13.464
33639W        W97407  32.094   2.252   2.352
33640W        W97408  13.202   0.376  14.951
33641W        W97409  37.394  16.201  12.824
33642W        W97410  34.410  20.756   2.836
33643W        W97411  38.047  40.992   2.888
33644W        W97412  37.440  20.652  11.438
33645W        W97413  25.496  34.608   1.820
33646W        W97414  14.637   2.943  11.872
33647W        W97415   2.321   0.433  14.946
33648W        W97416  21.706  27.036  12.475
33649W        W97417   9.303  43.885   2.726
33650W        W97418  34.604  20.208   3.239
33651W        W97419  29.111  11.305   4.606
33652W        W97420  31.509  13.627  14.015
33653W        W97421   0.482  38.529   1.848
33654W        W97422   2.411  13.243   2.225
33655W        W97423  40.485   6.836   1.377
33656W        W97424  27.036  10.726   3.677
33657W        W97425  21.146  10.147   4.225
33658W        W97426  42.791   6.399   4.820
33659W        W97427  44.466   9.379   1.250
33660W        W97428   4.698  30.646   1.928
33661W        W97429  36.092  19.662  13.039
33662W        W97430  20.646   3.719  13.408
33663W        W97431  26.475   3.767   4.659
33664W        W97432   0.325  33.953  11.092
33665W        W97433  10.667  35.435   2.752
33666W        W97434  43.464   2.251   0.937
33667W        W97435  10.341  13.833   2.765
33668W        W97436  14.729  35.900  10.535
33669W        W97437  14.658   7.720  10.977
33670W        W97438  11.275  44.766  14.767
33671W        W97439  21.517  31.412  14.966
33672W        W97440   5.421  25.056  13.823
33673W        W97441  13.816  29.551  11.113
33674W        W97442  29.154   1.303   0.332
33675W        W97443  16.297  29.993  11.033
33676W        W97444  17.616  23.062  13.379
33677W        W97445  17.681  16.237  12.577
33678W        W97446  42.342  16.787   3.288
33679W        W97447  43.847   8.305   1.325
33680W        W97448  32.076   2.905   5.254
33681W        W97449  44.450  38.947  11.396
33682W        W97450  32.051  24.219   2.395
33683W        W97451  43.765  31.440   1.279
33684W        W97452  27.117  10.813  13.952
33685W        W97453  22.590   6.404   4.200
33686W        W97454  21.056   2.400   1.384
33687W        W97455  32.505   5.807  13.848
33688W        W97456  34.005  32.954   2.895
33689W        W97457  22.020  37.006  14.808
33690W        W97458  34.083  40.839  10.527
33691W        W97459   1.268  23.221   0.850
33692W        W97460  35.889  12.354  11.068
33693W        W97461   4.885  30.089   2.308
33694W        W97462  33.610  10.660   3.226
33695W        W97463   2.778   4.275   0.917
33696W        W97464  22.102   8.212   3.663
33697W        W97465   2.438   2.941  14.333
33698W        W97466  39.845  26.158  13.027
33699W        W97467  10.179  19.656   0.865
33700W        W97468  34.604  11.787   3.758
33701W        W97469   9.871  12.626  12.899
33702W        W97470  38.434   9.801   2.403
33703W        W97471   9.707  28.032  13.476
33704W        W97472  29.148  41.912   1.383
33705W        W97473  36.512  35.917  10.518
33706W        W97474  29.659  14.714   3.791
33707W        W97475  22.675  21.601   2.294
33708W        W97476  38.867  35.024   3.315
33709W        W97477  36.352  24.560  12.897
33710W        W97478  32.557  10.701   4.306
33711W        W97479  25.677  35.529  14.835
33712W        W97480  17.723  34.031   4.230
33713W        W97481  42.304  26.042  13.437
33714W        W97482  17.732   6.842  12.363
33715W        W97483  26.008   0.926  10.939
33716W        W97484   0.445  32.501  14.285
33717W        W97485  42.964   1.945  10.460
33718W        W97486  35.443  17.089   1.756
33719W        W97487  30.044  14.717  12.483
33720W        W97488  34.948   4.206   0.284
33721W        W97489  27.983   9.151  12.899
33722W        W97490  31.089  39.407  11.009
33723W        W97491  16.715  14.308   0.411
33724W        W97492  37.075  30.617   1.756
33725W        W97493  44.887  41.306  11.025
33726W        W97494   7.768  18.190  10.046
33727W        W97495  13.278  20.697  12.005
33728W        W97496  27.077  20.199   4.269
33729W        W97497  41.377  16.267   0.861
33730W        W97498   8.788  15.096   1.430
33731W        W97499  41.959   0.334   4.676
33732W        W97500  13.797  29.586   0.265
33733W        W97501  34.937  23.101   3.383
33734W        W97502   6.361  28.644  14.383
33735W        W97503  38.331  40.484  11.974
33736W        W97504  33.993  29.985  10.464
33737W        W97505  37.511  20.673  13.914
33738W        W97506   6.803  24.067   3.351
33739W        W97507  34.087  14.658   0.824
33740W        W97508  22.608   1.854  12.856
33741W        W97509  20.754  15.246  12.036
33742W        W97510  29.598  22.138  11.379
33743W        W97511  25.713  35.093   3.356
33744W        W97512  18.685  33.563  14.418
33745W        W97513  32.080   6.318   3.255
33746W        W97514  26.013  31.044   1.255
33747W        W97515   0.900   4.792  13.439
33748W        W97516  43.782  33.891   0.448
33749W        W97517  16.655   1.928   3.227
33750W        W97518  28.448   6.413   2.818
33751W        W97519  37.568   2.394   4.677
33752W        W97520   9.663   0.866  13.934
33753W        W97521  42.471  16.602  11.894
33754W        W97522   4.410  14.716   3.326
33755W        W97523  22.716  33.419  11.987
33756W        W97524  39.064   2.799   1.305
33757W        W97525  39.024  30.128  11.935
33758W        W97526  20.596  34.418   5.257
33759W        W97527  19.263  21.116  11.456
33760W        W97528  41.791  39.951   0.782
33761W        W97529  23.197  12.689   4.825
33762W        W97530  16.262  39.348  14.473
33763W        W97531  22.077  42.356   0.863
33764W        W97532  39.557  15.262  10.965
33765W        W97533   9.673   6.423   0.468
33766W        W97534   9.329  22.138   1.270
33767W        W97535   3.837  20.693   4.149
33768W        W97536  17.649   4.829  11.474
33769W        W97537  15.786   8.850  14.340
33770W        W97538  26.072  23.049  10.536
33771W        W97539  35.979   8.700   3.283
33772W        W97540  23.026  29.511  10.507
33773W        W97541  37.546  23.199  11.036
33774W        W97542  21.175  25.209  13.319
33775W        W97543   2.795  19.716  11.964
33776W        W97544  43.893  25.712   3.295
33777W        W97545   0.825  30.557   2.330
33778W        W97546  20.562   7.903   2.736
33779W        W97547  10.372  21.075  10.583
33780W        W97548  25.188  41.524  13.953
33781W        W97549   1.871  19.570  10.916
33782W        W97550  21.600  33.480  14.400
33783W        W97551  21.550   8.242   4.699
33784W        W97552  27.170   0.870  12.408
33785W        W97553  43.417  36.417  10.455
33786W        W97554  23.075   5.833   3.717
33787W        W97555  42.819  43.346  10.537
33788W        W97556  35.046  35.420  14.796
33789W        W97557  12.180  31.642  14.324
33790W        W97558  37.856   2.957  14.994
33791W        W97559  14.667  38.382  13.055
33792W        W97560  18.628  25.520  13.317
33793W        W97561  39.832  13.180   4.188
33794W        W97562   3.845  16.084  11.967
33795W        W97563   8.808  33.400  11.445
33796W        W97564  34.095  26.105   1.439
33797W        W97565  42.846  27.943  11.546
33798W        W97566   3.379  22.211  14.941
33799W        W97567  29.436   0.381   4.299
33800W        W97568   7.812   5.754   4.272
33801W        W97569  31.907  38.547  12.012
33802W        W97570  24.082   5.340  11.117
33803W        W97571  38.482  28.572  14.350
33804W        W97572   4.835  25.472   3.694
33805W        W97573  34.070  20.067  12.469
33806W        W97574   7.701  26.460  14.446
33807W        W97575  42.783  35.015   4.715
33808W        W97576  31.086  24.226   3.638
33809W        W97577  29.578   6.416  12.532
33810W        W97578   3.414  16.748  14.863
33811W        W97579   4.356   9.648   4.789
33812W        W97580  44.339  44.951  10.569
33813W        W97581  31.929  31.413   1.904
33814W        W97582  28.608  12.306   2.290
33815W        W97583  25.002  30.083  12.539
33816W        W97584  34.987  21.616   1.698
33817W        W97585  25.593   8.815   0.434
33818W        W97586  30.078  37.514   5.122
33819W        W97587  44.798  36.589   2.270
33820W        W97588  22.012   5.388   0.924
33821W        W97589   8.763  16.764  14.455
33822W        W97590  13.277  23.000  10.551
33823W        W97591  23.228   3.306  14.853
33824W        W97592   3.395   7.362  14.941
33825W        W97593  28.159  35.392   3.171
33826W        W97594  33.501  12.191   1.352
33827W        W97595  10.139   8.233  14.504
33828W        W97596  39.053   2.801   0.799
33829W        W97597  15.131  41.043   0.799
33830W        W97598  31.636   9.664  11.016
33831W        W97599  33.626  43.439   2.374
33832W        W97600  14.711  10.749  10.909
33833W        W97601   7.673  22.522  12.825
33834W        W97602  17.636  25.636  14.022
33835W        W97603  38.505  30.130  12.935
33836W        W97604  18.181   5.724   0.355
33837W        W97605  30.510  42.855   0.300
33838W        W97606  33.384  30.618   2.854
33839W        W97607  23.667  42.445   3.307
33840W        W97608  22.678   6.353   1.271
33841W        W97609  39.995  37.971   2.860
33842W        W97610  12.142  43.356   1.848
33843W        W97611  31.512   7.734  11.468
33844W        W97612  25.993  31.041   1.870
33845W        W97613  34.018  42.357  12.858
33846W        W97614  18.159  36.535   3.800
33847W        W97615  23.101  24.533   1.759
33848W        W97616  32.446  20.144  10.436
33849W        W97617  41.326  19.604  13.469
33850W        W97618  13.738  31.937  14.847
33851W        W97619  21.522  32.975   1.764
33852W        W97620  36.394  16.149   1.753
33853W        W97621  15.645  11.206  13.927
33854W        W97622   4.715   2.235   0.949
33855W        W97623  41.512   9.887  13.044
33856W        W97624  15.617  13.341  13.798
33857W        W97625   0.486  28.471   2.810
33858W        W97626   8.662  40.014  11.607
33859W        W97627  35.576  21.702  12.445
33860W        W97628   9.803  17.261   3.311
33861W        W97629  39.541  35.882   4.712
33862W        W97630  10.197   4.698  12.496
33863W        W97631  18.286  11.832  14.994
33864W        W97632  14.793  32.125   4.779
33865W        W97633  18.652   9.358   3.790
33866W        W97634   2.308  22.053  13.313
33867W        W97635   4.886  25.694   0.295
33868W        W97636  43.906  13.200  12.375
33869W        W97637  29.660  25.578  14.999
33870W        W97638  33.418  19.536   2.725
33871W        W97639   3.948  26.499  14.795
33872W        W97640  29.463  26.050   4.227
33873W        W97641  44.415  29.103   2.704
33874W        W97642  42.841  30.596  13.320
33875W        W97643  30.511   1.771   4.337
33876W        W97644  18.088  29.061  11.913
33877W        W97645  12.653   8.195  11.105
33878W        W97646   5.917  44.789  11.390
33879W        W97647  39.456  35.037   4.793
33880W        W97648   3.221  37.504   0.364
33881W        W97649  37.987  12.362  14.831
33882W        W97650  44.342  30.535  14.447
33883W        W97651  13.825  40.411  13.997
33884W        W97652  22.609  41.946   0.937
33885W        W97653  39.992   0.839   4.752
33886W        W97654  24.069  27.192  10.605
33887W        W97655  28.168  12.198   1.916
33888W        W97656  14.206  37.466  14.793
33889W        W97657   9.393  30.432  10.946
33890W        W97658  39.432  25.533   4.186
33891W        W97659  38.961   6.243  14.339
33892W        W97660  35.100   4.751  14.853
33893W        W97661   8.279  39.811  10.498
33894W        W97662   4.296  21.562   2.400
33895W        W97663  24.486  28.587  14.402
33896W        W97664  19.579  31.435   0.398
33897W        W97665  36.086   2.463  13.453
33898W        W97666  32.969  29.517   1.303
33899W        W97667   4.312   7.844   0.246
33900W        W97668   2.787  32.583  14.826
33901W        W97669  21.656  41.902   2.187
33902W        W97670  27.596  33.102  13.027
33903W        W97671  42.463  39.405   3.803
33904W        W97672  25.187  10.652  10.613
33905W        W97673   6.885  26.482  11.459
33906W        W97674  26.197   6.261  12.000
33907W        W97675  13.267   1.446  10.934
33908W        W97676  23.553  19.216  13.026
33909W        W97677  10.758  12.723  14.378
33910W        W97678   5.374  15.206   3.148
33911W        W97679  24.111  33.531   2.308
33912W        W97680  34.062  25.999   0.340
33913W        W97681  28.461  24.080  12.067
33914W        W97682  38.461  36.058   2.821
33915W        W97683  42.946  28.457   1.415
33916W        W97684  38.492  19.573   2.888
33917W        W97685   7.891  11.132   9.942
33918W        W97686  44.291  26.104  14.833
33919W        W97687  34.878  33.393   4.310
33920W        W97688  12.152  34.067  11.865
33921W        W97689  22.181   6.868   3.756
33922W        W97690   2.360   0.435   4.182
33923W        W97691  36.516  38.819   2.853
33924W        W97692  39.020  42.389   0.774
33925W        W97693  25.597  25.679   1.300
33926W        W97694  15.227  14.097   1.783
33927W        W97695  42.777  38.900  12.512
33928W        W97696  23.239  29.949   0.852
33929W        W97697   2.442  19.554   5.116
33930W        W97698  16.597  15.610   1.271
33931W        W97699  15.109  12.785  10.417
33932W        W97700  35.418  37.081  13.063
33933W        W97701  18.239  22.741  11.945
33934W        W97702  41.458  26.653   0.880
33935W        W97703  15.259   7.257  14.856
33936W        W97704  25.648  39.464   4.638
33937W        W97705   6.680   5.349  14.464
33938W        W97706  17.760   0.848  13.312
33939W        W97707  43.429  17.772   1.887
33940W        W97708  25.630  35.545  10.936
33941W        W97709   8.308  11.687  10.541
33942W        W97710  35.504  36.469  14.422
33943W        W97711  17.573   6.192  10.560
33944W        W97712  30.146  10.244  13.425
33945W        W97713  35.509  24.675   0.810
33946W        W97714  13.680  28.052  14.967
33947W        W97715  23.000  33.886  12.439
33948W        W97716  30.981   9.712   3.217
33949W        W97717  39.475  40.417   0.861
33950W        W97718   8.350  23.148   4.791
33951W        W97719  40.343  44.010   0.961
33952W        W97720  27.053  33.558  12.483
33953W        W97721  11.341  17.713   0.825
33954W        W97722  29.105  22.621  14.855
33955W        W97723  13.310  15.623   4.143
33956W        W97724  44.270  35.867   2.861
33957W        W97725  17.198  37.873  13.528
33958W        W97726  23.235  35.434   4.713
33959W        W97727   3.766  35.391  12.982
33960W        W97728   7.882  24.104   5.273
33961W        W97729  40.432  11.803  10.135
33962W        W97730  16.230   6.904  11.964
33963W        W97731  16.110  22.106  13.801
33964W        W97732  42.847  43.411   5.295
33965W        W97733   6.885  24.032  13.891
33966W        W97734   6.199  24.483  12.406
33967W        W97735  15.700  40.390   1.737
33968W        W97736  19.145  23.027   3.339
33969W        W97737  14.286   3.283  10.986
33970W        W97738   1.825  27.654   2.760
33971W        W97739   4.763   6.834  14.354
33972W        W97740  35.367  27.978   2.377
33973W        W97741  29.515  18.659   1.292
33974W        W97742   9.245  15.637  14.006
33975W        W97743   9.658  11.680  14.438
33976W        W97744   6.730  15.785  11.934
33977W        W97745  33.495  13.709   0.860
33978W        W97746  22.178  22.226   3.795
33979W        W97747  18.658  44.464  12.019
33980W        W97748   1.915  31.454  14.387
33981W        W97749  27.512  10.200  14.318
33982W        W97750   1.907  11.349   0.402
33983W        W97751  43.800  15.578  11.036
33984W        W97752   5.705   3.839   0.739
33985W        W97753  13.812  44.476  13.938
33986W        W97754  14.625  19.671   4.644
33987W        W97755   2.857  44.314   0.891
33988W        W97756  39.372  43.312  14.463
33989W        W97757  23.505  43.776   3.366
33990W        W97758   6.236   7.791  10.951
33991W        W97759  26.636  26.002   0.815
33992W        W97760  21.562  15.323   2.398
33993W        W97761  27.023  21.539  14.011
33994W        W97762  12.293   9.248   2.186
33995W        W97763  44.944  30.964  11.123
33996W        W97764  33.103  10.818  14.784
33997W        W97765  36.531  18.745  12.880
33998W        W97766  41.036  39.332  13.796
33999W        W97767  39.482  11.173  12.422
34000W        W97768  39.318   9.665   9.946
34001W        W97769  10.680   3.931   0.378
34002W        W97770  42.003  22.240   3.265
34003W        W97771  23.625   9.173   1.929
34004W        W97772  33.421  10.649   1.396
34005W        W97773   0.317  26.073   1.355
34006W        W97774  23.052  33.897   0.933
34007W        W97775   4.412  38.004  12.531
34008W        W97776  38.394  31.153  13.039
34009W        W97777  25.107  39.002   4.178
34010W        W97778  11.836   2.891  10.970
34011W        W97779   7.213  39.004   0.368
34012W        W97780  31.992  38.935  10.469
34013W        W97781  41.804   0.829   4.800
34014W        W97782  29.560  31.598  12.456
34015W        W97783  17.769  40.896  12.403
34016W        W97784  21.113  10.735   2.817
34017W        W97785  32.611  13.121  12.384
34018W        W97786  43.332  20.560   4.782
34019W        W97787  40.518  23.237   1.443
34020W        W97788  23.546  33.445  11.559
34021W        W97789  19.616  23.695  13.401
34022W        W97790  34.020  39.010  13.354
34023W        W97791  18.769   3.866   1.274
34024W        W97792  15.235  34.065   2.854
34025W        W97793  30.128  26.149  11.584
34026W        W97794  19.722  27.605  11.453
34027W        W97795  24.117  29.467   5.266
34028W        W97796   5.869  31.543   3.263
34029W        W97797  38.554  42.519  13.031
34030W        W97798  23.082  38.034  13.886
34031W        W97799  38.532  36.368  11.054
34032W        W97800  26.481  43.954  12.347
34033W        W97801  37.338   2.450  14.299
34034W        W97802  15.150  42.780   4.713
34035W        W97803  42.963   8.832   4.231
34036W        W97804  10.757  15.805   0.760
34037W        W97805  37.852  19.757   1.332
34038W        W97806  25.511  11.691  12.381
34039W        W97807  29.140   5.419  13.857
34040W        W97808   4.719  15.815   5.295
34041W        W97809  41.353  28.113   0.874
34042W        W97810   4.880  20.703   0.954
34043W        W97811  40.420  12.642  12.972
34044W        W97812  35.591   0.930   1.292
34045W        W97813  37.925   6.349   1.293
34046W        W97814  25.525  18.172  10.602
34047W        W97815  42.311  37.946   1.717
34048W        W97816  38.493  40.956  14.360
34049W        W97817   8.278  15.097   3.183
34050W        W97818  17.299  27.179   2.257
34051W        W97819  31.583   7.792   2.792
34052W        W97820  35.533  35.527   0.729
34053W        W97821  25.132  27.473  13.889
34054W        W97822  18.177  33.883   1.351
34055W        W97823   7.406   0.269   2.816
34056W        W97824  30.909  23.176  13.486
34057W        W97825  24.671  37.993   0.370
34058W        W97826  21.017  24.523  13.548
34059W        W97827  11.360  15.241   3.664
34060W        W97828  27.089  23.514   3.733
34061W        W97829  28.565   4.936   2.386
34062W        W97830   8.402  33.971   2.785
34063W        W97831  36.846  44.890   0.270
34064W        W97832  28.112  24.044   4.670
34065W        W97833  34.068   6.750  14.316
34066W        W97834  41.497  20.182  14.824
34067W        W97835  32.553  14.803  14.399
34068W        W97836  13.807  37.376   4.266
34069W        W97837  36.487  29.108  10.119
34070W        W97838   1.466   1.897   3.764
34071W        W97839  35.082  31.984  13.035
34072W        W97840  19.042  23.105  14.804
34073W        W97841   1.891   6.188   0.780
34074W        W97842  41.416   7.808  10.940
34075W        W97843  16.795  40.410   3.687
34076W        W97844  39.043  36.996   0.374
34077W        W97845   0.807  26.476  13.422
34078W        W97846  33.913   9.372   2.733
34079W        W97847  26.548  22.076  11.026
34080W        W97848  41.878   4.849   2.758
34081W        W97849  16.300   8.330  13.465
34082W        W97850  12.657  32.003  10.643
34083W        W97851  43.975  37.478  14.338
34084W        W97852  43.926  13.156  10.579
34085W        W97853  34.449   0.414  12.984
34086W        W97854  32.928  18.571  12.035
34087W        W97855   1.885  13.316   1.735
34088W        W97856   0.453  41.535   3.245
34089W        W97857  33.103  12.354  12.419
34090W        W97858  16.791  24.719  10.639
34091W        W97859  25.020   1.874   2.869
34092W        W97860  43.926  25.167   4.122
34093W        W97861   5.805  28.175   0.282
34094W        W97862  40.003   5.323   2.813
34095W        W97863   7.395  25.654   0.958
34096W        W97864  37.481  34.583   1.370
34097W        W97865   3.422  38.567   2.668
34098W        W97866  16.280  18.587  11.037
34099W        W97867  23.559  38.002   4.779
34100W        W97868  13.706  28.147   2.323
34101W        W97869  27.643  14.183  14.829
34102W        W97870  24.033  39.917  11.903
34103W        W97871  16.184  38.982  12.861
34104W        W97872  32.890  16.798   4.274
34105W        W97873  25.089  10.695   2.418
34106W        W97874  32.131  25.084  11.121
34107W        W97875  27.189  37.527  11.992
34108W        W97876  18.230  30.162  11.025
34109W        W97877  42.365  33.419   0.299
34110W        W97878  28.938  13.782   3.339
34111W        W97879  42.914   3.301  13.837
34112W        W97880  16.172  37.050   1.417
34113W        W97881  44.459  23.156   3.216
34114W        W97882   1.470   1.316  14.846
34115W        W97883  21.104  23.536  13.522
34116W        W97884   1.830  13.259   3.237
34117W        W97885  25.216  10.284   2.817
34118W        W97886  36.446   9.335   0.799
34119W        W97887  19.622  11.819  12.519
34120W        W97888  33.434  40.953  12.935
34121W        W97889  23.638   2.882   2.235
34122W        W97890  23.554  15.708   3.633
34123W        W97891  22.160  30.096  11.963
34124W        W97892  16.080  14.732  14.333
34125W        W97893  23.681  22.547   3.808
34126W        W97894  14.594  26.626   2.250
34127W        W97895   6.328  14.830  10.522
34128W        W97896  20.602  30.551   1.723
34129W        W97897  42.894  25.526  11.578
34130W        W97898  31.103   2.398   1.256
34131W        W97899   3.739  28.625  12.543
34132W        W97900  28.566  37.949  14.878
34133W        W97901   1.849   0.786  13.509
34134W        W97902  27.676  18.620   2.697
34135W        W97903  12.332  42.979  11.053
34136W        W97904   2.443  29.664  14.800
34137W        W97905   6.394  19.765   0.402
34138W        W97906  19.198  42.478  13.060
34139W        W97907  33.930   2.966  14.933
34140W        W97908   5.199  36.515  10.603
34141W        W97909  17.612  20.191   2.865
34142W        W97910  24.193   4.799   3.798
34143W        W97911  20.723   1.364  13.526
34144W        W97912  43.855  22.023  11.380
34145W        W97913  25.078  28.052  12.091
34146W        W97914   4.278  39.413  12.893
34147W        W97915   1.467  18.728   1.423
34148W        W97916   3.888  18.164  12.520
34149W        W97917   8.824  37.429   2.226
34150W        W97918  37.535  21.617   2.879
34151W        W97919  41.880   4.327   2.885
34152W        W97920   8.386  13.242   4.647
34153W        W97921  42.395  26.606   2.687
34154W        W97922  24.198   7.911   2.347
34155W        W97923  16.808  22.178  14.934
34156W        W97924   7.773   4.427  13.857
34157W        W97925  36.072  38.073   1.694
34158W        W97926  18.110  36.570   1.850
34159W        W97927   2.759  39.351  14.018
34160W        W97928  18.721  33.014  13.479
34161W        W97929  25.155   1.333  14.764
34162W        W97930  13.268  41.366  10.454
34163W        W97931  37.422  14.311  12.917
34164W        W97932   5.379  36.909   3.683
34165W        W97933  34.589  42.432  10.482
34166W        W97934  24.628  24.556  13.036
34167W        W97935  17.783  38.884  10.589
34168W        W97936  15.789  11.699   3.202
34169W        W97937  36.481  20.719   4.747
34170W        W97938  22.154  31.450   3.377
34171W        W97939  11.742  38.385  10.008
34172W        W97940   0.841  10.807  14.785
34173W        W97941  38.463  30.475  12.924
34174W        W97942  17.676   3.241  13.960
34175W        W97943  42.849  28.616  11.898
34176W        W97944   8.323  32.913  12.516
34177W        W97945  36.050   5.794  10.495
34178W        W97946   8.731  12.773  10.955
34179W        W97947  28.181  30.566  14.995
34180W        W97948  19.093  44.341  12.957
34181W        W97949  27.465  17.608   4.206
34182W        W97950  20.264  11.219  12.370
34183W        W97951  39.502  27.066   4.146
34184W        W97952  27.652   3.784  14.959
34185W        W97953  37.493  17.136   5.152
34186W        W97954  37.022  29.079  13.430
34187W        W97955  20.037  27.482   0.459
34188W        W97956  11.229  32.991   3.813
34189W        W97957  12.719  15.735  12.405
34190W        W97958  22.738  38.013   4.694
34191W        W97959  14.763  28.165   2.683
34192W        W97960  18.737  38.894   5.085
34193W        W97961  40.429  14.667   4.625
34194W        W97962  25.026  18.728   2.749
34195W        W97963   3.335   0.331   0.793
34196W        W97964  10.197  40.797   1.737
34197W        W97965  26.091   2.881  11.584
34198W        W97966   3.351  16.772   3.168
34199W        W97967  41.458   3.311  13.934
34200W        W97968  44.460  32.020  14.358
34201W        W97969  17.307  23.058   0.460
34202W        W97970  32.495  37.542  10.997
34203W        W97971  25.055  28.656  11.600
34204W        W97972   3.292  36.930  13.404
34205W        W97973  25.109   6.707   3.867
34206W        W97974  13.721  19.228  12.837
34207W        W97975   9.201  35.064   5.081
34208W        W97976   8.740   0.815   1.327
34209W        W97977  25.119  30.643  13.922
34210W        W97978  25.694  25.631  14.901
34211W        W97979  36.460  13.845   4.767
34212W        W97980  20.718  15.325   1.433
34213W        W97981  15.686  42.315  13.338
34214W        W97982  15.758  33.576   3.831
34215W        W97983  14.634  19.723  10.887
34216W        W97984   1.263   6.755  11.952
34217W        W97985  12.656  39.856   3.352
34218W        W97986   8.354  43.779  12.420
34219W        W97987   5.912   2.890   4.762
34220W        W97988  33.962  36.887  12.429
34221W        W97989  19.155  36.927   2.417
34222W        W97990   5.902  16.800   3.763
34223W        W97991  22.593  44.312   4.324
34224W        W97992  11.659  35.091   4.601
34225W        W97993  27.557   7.836   1.388
34226W        W97994  34.866  23.000  14.990
34227W        W97995  36.894   5.432   0.883
34228W        W97996  20.101  31.614  14.375
34229W        W97997  11.305  34.435   2.267
34230W        W97998   4.369  33.417   3.198
34231W        W97999  36.961  43.292   0.439
34232W        W98000  31.143  15.732  13.532
34233W        W98001  20.237  26.688   4.317
34234W        W98002   8.203  27.589   4.120
34235W        W98003  26.132  21.526  14.418
34236W        W98004   9.277  40.971   1.271
34237W        W98005  24.597  26.486  12.572
34238W        W98006  25.135  17.558   4.248
34239W        W98007   5.863  22.187   3.699
34240W        W98008  37.951  14.216   1.390
34241W        W98009   9.716  25.483   1.392
34242W        W98010  28.129  25.685   3.676
34243W        W98011  24.221  29.640  12.496
34244W        W98012  22.578  26.093   0.909
34245W        W98013  42.983  10.659  12.830
34246W        W98014  41.405  20.066  11.928
34247W        W98015  14.158  28.589   0.286
34248W        W98016  24.010  13.194  12.572
34249W        W98017  11.689   0.886   5.212
34250W        W98018  37.944   7.332   2.824
34251W        W98019  10.258  29.656   0.867
34252W        W98020  18.576  40.369  14.392
34253W        W98021  38.505  42.882  13.808
34254W        W98022  36.844  39.050   1.722
34255W        W98023  15.651   4.277   0.826
34256W        W98024  21.558   0.756  10.142
34257W        W98025   6.211  25.603  13.464
34258W        W98026  19.735  36.883   3.257
34259W        W98027  40.956  13.250  10.968
34260W        W98028   3.334   6.278   3.296
34261W        W98029  11.864  19.583  14.928
34262W        W98030  37.878   8.862   0.763
34263W        W98031   2.725  43.874   2.703
34264W        W98032  17.098  36.458   4.806
34265W        W98033  34.026  35.464  12.961
34266W        W98034   0.931  42.496  14.291
34267W        W98035  27.042  21.113  14.947
34268W        W98036  32.501  19.680   0.912
34269W        W98037  42.840  10.160   4.337
34270W        W98038  19.536  35.417   3.692
34271W        W98039   0.962  38.431   0.964
34272W        W98040  38.457   3.429   2.361
34273W        W98041  41.314  21.681  12.869
34274W        W98042   3.835  42.295   1.431
34275W        W98043  20.632  34.944  10.100
34276W        W98044   0.920  31.541   4.626
34277W        W98045  32.424  31.446   3.348
34278W        W98046  21.073  41.000   5.319
34279W        W98047  27.616  10.186  11.874
34280W        W98048   0.365  32.510   4.690
34281W        W98049  33.956  37.402   0.881
34282W        W98050   6.684   5.258   2.273
34283W        W98051  20.609  11.190   0.915
34284W        W98052  32.427  20.671  12.493
34285W        W98053  15.715   5.714   1.250
34286W        W98054  33.547  11.860   2.339
34287W        W98055   0.281  35.068  11.543
34288W        W98056  40.022  17.125   1.903
34289W        W98057  26.007  40.004  11.975
34290W        W98058  34.049   1.774   0.293
34291W        W98059   6.789  17.083   3.707
34292W        W98060  36.917  33.915  10.973
34293W        W98061  32.912  42.280   2.729
34294W        W98062   9.274  35.468  13.875
34295W        W98063   6.374   8.308  11.600
34296W        W98064  27.984  32.931   2.793
34297W        W98065  23.135  21.050   1.837
34298W        W98066  15.707   2.775   1.294
34299W        W98067  13.139  15.130   0.374
34300W        W98068  19.583   2.263   0.829
34301W        W98069  36.960  41.397  13.006
34302W        W98070  15.322  37.060  13.962
34303W        W98071  15.620  44.423  13.533
34304W        W98072  38.033  19.229  12.368
34305W        W98073  29.974  24.701  10.912
34306W        W98074  29.108   3.770  12.423
34307W        W98075  39.466  16.249   0.481
34308W        W98076   9.255  38.071  11.018
34309W        W98077  28.446  38.031   0.378
34310W        W98078   8.251  25.047  11.083
34311W        W98079  12.215  36.024   4.725
34312W        W98080  23.632  40.981  11.393
34313W        W98081  15.714  32.143   3.716
34314W        W98082  44.989  17.677   4.616
34315W        W98083   7.796  38.005  11.971
34316W        W98084  33.536  15.316   3.869
34317W        W98085  11.686  36.478   0.435
34318W        W98086  10.385   9.841   1.919
34319W        W98087   8.795  31.899  10.990
34320W        W98088   5.742  34.573   3.355
34321W        W98089   0.281  36.424   9.611
34322W        W98090  24.070  31.087   2.270
34323W        W98091  21.037  12.689   4.780
34324W        W98092  32.140  23.615   4.824
34325W        W98093  29.024   1.278  10.623
34326W        W98094  13.726   8.815   4.626
34327W        W98095  19.074  20.265   1.890
34328W        W98096  35.077  27.163   1.341
34329W        W98097  31.124  26.976  14.839
34330W        W98098  10.806  16.776  12.424
34331W        W98099  34.413   6.257   0.310
34332W        W98100  11.304   1.326  11.123
34333W        W98101   4.304  31.601  12.091
34334W        W98102  29.091  32.475   0.862
34335W        W98103  27.091  28.025   2.181
34336W        W98104  13.727  20.269  12.513
34337W        W98105  44.278  33.883  12.058
34338W        W98106  28.563  35.438   9.666
34339W        W98107  36.572  18.140  11.495
34340W        W98108   6.354  42.797  14.509
34341W        W98109  20.721  28.667  13.542
34342W        W98110  34.406  41.810  12.560
34343W        W98111  39.906   7.811   3.368
34344W        W98112  20.156  20.546   4.243
34345W        W98113  13.713  19.561  14.337
34346W        W98114  41.013  20.090  14.778
34347W        W98115  10.863  34.880   4.600
34348W        W98116  26.167  30.111  14.864
34349W        W98117   8.307  33.451   0.451
34350W        W98118   2.364  15.214  13.409
34351W        W98119  27.615  43.331  13.942
34352W        W98120  16.228  36.992  12.863
34353W        W98121  25.124  14.168   3.701
34354W        W98122  23.684  40.887  10.463
34355W        W98123  35.073   7.334  13.959
34356W        W98124  29.008   4.798  12.876
34357W        W98125   9.655  25.596   0.437
34358W        W98126  36.386  33.072   0.242
34359W        W98127  37.883  23.549   1.297
34360W        W98128  40.385  22.680  13.408
34361W        W98129   4.292  38.562  10.422
34362W        W98130  19.187  19.095   3.680
34363W        W98131  38.438  15.151  10.490
34364W        W98132  24.973   1.259   1.768
34365W        W98133  15.238   2.784   2.717
34366W        W98134  38.992   2.258   2.895
34367W        W98135  23.671  36.476   9.477
34368W        W98136  38.366   9.382  10.585
34369W        W98137  23.522  23.984   0.902
34370W        W98138   1.921   7.255  11.530
34371W        W98139  30.503  22.568   4.320
34372W        W98140  34.080   0.768   1.363
34373W        W98141  30.017  21.722  12.850
34374W        W98142  42.467  29.999   1.382
34375W        W98143  19.716  42.833  14.510
34376W        W98144  19.065  27.980  10.492
34377W        W98145   2.943  43.440   4.284
34378W        W98146  43.282   0.789  13.364
34379W        W98147   3.783  34.901   0.304
34380W        W98148  15.124  20.235   3.709
34381W        W98149   3.408   1.914  12.523
34382W        W98150  43.848  13.175  11.518
34383W        W98151  13.176  25.679  14.882
34384W        W98152  41.798  13.779  13.969
34385W        W98153  20.623  20.613  10.556
34386W        W98154   2.364  20.115  11.971
34387W        W98155  37.366  40.019   1.724
34388W        W98156  11.802  16.574   0.337
34389W        W98157   5.868  26.568   3.222
34390W        W98158   6.214  42.356  12.534
34391W        W98159  23.143   3.420  10.979
34392W        W98160   1.425  33.463   1.884
34393W        W98161  40.472  14.162  13.981
34394W        W98162   5.213  43.884  10.477
34395W        W98163  15.698  28.945   1.428
34396W        W98164  39.441   8.396   2.681
34397W        W98165  14.281  13.827  11.534
34398W        W98166  10.738  23.519   2.412
34399W        W98167  18.109  15.311   4.352
34400W        W98168  36.497  20.251   0.823
34401W        W98169   1.768  34.882   0.261
34402W        W98170   0.962   2.347   1.450
34403W        W98171  30.063  27.487   1.349
34404W        W98172  41.519   3.316  14.923
34405W        W98173  33.382  20.181   3.677
34406W        W98174  39.892  12.642  11.374
34407W        W98175  42.412  24.063   0.408
34408W        W98176  31.444  20.698   4.668
34409W        W98177  16.265  38.966   2.900
34410W        W98178  17.148  19.046  11.127
34411W        W98179  32.467   1.351   3.725
34412W        W98180  22.096  19.617  10.978
34413W        W98181  40.845  44.960   3.338
34414W        W98182  10.829  41.309   1.714
34415W        W98183  36.894  24.516   4.207
34416W        W98184  32.133  18.193  11.099
34417W        W98185   4.439  23.697  13.488
34418W        W98186  25.018  32.041  11.083
34419W        W98187  14.715  43.985  12.954
34420W        W98188  44.322   0.436   3.345
34421W        W98189  14.117  25.112  11.489
34422W        W98190  17.070  39.542  13.809
34423W        W98191  22.531  44.457   2.721
34424W        W98192  22.660  29.115   4.638
34425W        W98193  32.563  28.534  13.523
34426W        W98194   4.795  41.913   2.851
34427W        W98195  16.568  24.001  10.904
34428W        W98196  27.476  27.508   3.774
34429W        W98197   0.829  17.588   1.746
34430W        W98198  26.084   4.892   0.866
34431W        W98199  16.194  20.068   3.250
34432W        W98200  39.034  17.071  13.904
34433W        W98201  22.113  32.600  11.913
34434W        W98202  28.546  32.960   2.311
34435W        W98203  26.634  30.088   0.737
34436W        W98204   6.329  41.836  13.023
34437W        W98205  17.745  16.705   5.139
34438W        W98206  14.714   2.961  12.565
34439W        W98207   7.769  20.760  10.937
34440W        W98208   9.689  23.510   3.844
34441W        W98209  28.156  31.604   3.723
34442W        W98210  37.951  24.146  12.073
34443W        W98211  23.008  17.213  13.439
34444W        W98212  18.679  29.458   1.342
34445W        W98213  13.342  28.505  12.860
34446W        W98214  31.580  39.848  11.988
34447W        W98215  32.572  22.530   0.833
34448W        W98216  37.484  27.583  12.840
34449W        W98217  34.971  25.470   3.298
34450W        W98218   4.299  10.212  11.952
34451W        W98219  39.023   7.805   0.827
34452W        W98220  30.438  40.395   5.295
34453W        W98221   6.784  13.694  13.003
34454W        W98222  44.305  19.084  13.471
34455W        W98223  33.439  20.692  12.891
34456W        W98224  16.602  12.682   3.323
34457W        W98225  16.151  16.628   1.828
34458W        W98226   0.789  19.047   0.931
34459W        W98227   3.457  15.718   2.216
34460W        W98228  35.992  26.000   3.811
34461W        W98229  29.635  37.016  10.633
34462W        W98230   1.449  24.490  14.816
34463W        W98231  18.179  27.606  14.816
34464W        W98232  41.389  30.991   3.386
34465W        W98233  10.152  40.349   3.821
34466W        W98234   5.723  34.484  14.349
34467W        W98235  35.874  18.123  12.038
34468W        W98236  24.105  16.234  11.015
34469W        W98237  31.012  13.260   2.285
34470W        W98238  44.448   9.769  14.298
34471W        W98239   6.276  36.452  10.600
34472W        W98240  27.679  43.994  13.545
34473W        W98241  17.800  19.073   2.692
34474W        W98242  13.846  15.665  13.999
34475W        W98243   2.377  23.556   0.892
34476W        W98244  16.743  11.373  11.553
34477W        W98245  42.810  34.968  13.946
34478W        W98246  31.425   8.712  14.898
34479W        W98247  36.095   2.816  13.499
34480W        W98248  43.966  32.482  13.458
34481W        W98249  26.963  15.637  10.915
34482W        W98250  11.222  33.447   3.344
34483W        W98251  42.425  29.493  10.528
34484W        W98252  31.903  25.963  11.972
34485W        W98253  43.465  30.064  14.396
34486W        W98254  18.121  10.813  12.996
34487W        W98255  15.618  23.204   1.305
34488W        W98256  40.498  42.463  12.051
34489W        W98257  28.671   5.391  12.491
34490W        W98258  15.099   4.264  13.452
34491W        W98259  38.049   6.686   1.879
34492W        W98260   6.338  17.614   1.391
34493W        W98261   3.273   8.225   2.897
34494W        W98262  11.154   6.717   0.263
34495W        W98263  43.354   7.287   1.834
34496W        W98264   5.708  30.537  10.410
34497W        W98265  18.586   7.355   4.149
34498W        W98266  24.580  32.574   2.758
34499W        W98267  15.734  23.659   1.747
34500W        W98268  37.444  40.426   3.734
34501W        W98269  30.502   1.829  11.539
34502W        W98270  24.673  11.627  12.031
34503W        W98271  22.682  13.286  12.482
34504W        W98272  41.962  28.942  10.433
34505W        W98273  32.935  24.652   2.686
34506W        W98274   7.173  23.112   4.780
34507W        W98275   9.851  12.753   4.174
34508W        W98276  44.422   5.410   2.309
34509W        W98277   4.292   8.794   2.740
34510W        W98278  28.452   2.426  11.074
34511W        W98279  34.945  36.074  12.069
34512W        W98280   5.740   6.734   3.859
34513W        W98281  28.037  22.704  13.473
34514W        W98282   0.880  10.213   1.805
34515W        W98283  14.785  16.688   4.831
34516W        W98284  42.339  38.932  12.491
34517W        W98285  36.978   7.727   1.785
34518W        W98286  16.130  33.041   3.279
34519W        W98287  17.148  43.773  13.316
34520W        W98288   7.781  14.327  11.866
34521W        W98289  30.995  27.048   1.742
34522W        W98290   9.167  17.279  12.844
34523W        W98291  28.500  41.518  12.425
34524W        W98292  13.741  38.999  14.006
34525W        W98293  14.758  11.685  11.893
34526W        W98294  32.481   7.670   1.707
34527W        W98295   1.905  10.741  11.919
34528W        W98296  20.063  25.636  11.464
34529W        W98297  42.978  18.178   4.666
34530W        W98298  35.362  23.002  11.417
34531W        W98299   2.864  34.429   0.251
34532W        W98300  43.336  44.341   4.836
34533W        W98301  25.046  36.390   5.115
34534W        W98302  24.175  28.127   3.311
34535W        W98303  11.177   1.939  11.387
34536W        W98304  11.372  10.877   4.278
34537W        W98305  42.908  28.651  14.026
34538W        W98306  39.512  10.729  13.338
34539W        W98307  26.049  44.799  10.552
34540W        W98308  32.512  11.811   0.307
34541W        W98309  42.465  23.205  12.067
34542W        W98310  11.689  16.176   4.798
34543W        W98311   6.865  43.350  13.052
34544W        W98312  41.029  26.461  11.860
34545W        W98313  13.342  25.498  13.830
34546W        W98314  32.079   8.202  14.319
34547W        W98315  27.456  25.590  12.433
34548W        W98316  37.542  13.312   2.758
34549W        W98317  19.720  15.109  12.564
34550W        W98318   2.870  13.835  14.327
34551W        W98319  39.992  14.689  12.897
34552W        W98320  30.970  34.974  14.026
34553W        W98321   1.434  25.103  13.403
34554W        W98322  25.044   8.378  11.484
34555W        W98323   3.728  18.559  12.855
34556W        W98324  24.119  39.018   2.400
34557W        W98325  42.966  36.014  12.391
34558W        W98326  22.213  28.664  12.069
34559W        W98327   2.781  22.690  14.311
34560W        W98328  14.134   2.742  14.410
34561W        W98329   5.805  44.990  14.914
34562W        W98330  24.565  39.861   3.699
34563W        W98331  42.868  16.677   2.354
34564W        W98332  39.861   3.736  11.892
34565W        W98333  43.897  17.236  10.922
34566W        W98334   7.707  29.105  12.550
34567W        W98335  36.458  25.471  13.515
34568W        W98336   6.703  22.699  14.366
34569W        W98337  26.960  31.493  10.516
34570W        W98338   5.245   3.825   2.886
34571W        W98339  26.658  29.601   4.288
34572W        W98340   3.880  26.496   3.213
34573W        W98341  13.821   6.421   3.296
34574W        W98342  38.945  34.030  14.429
34575W        W98343   2.824  13.115  10.584
34576W        W98344   7.366   0.357  11.458
34577W        W98345   1.425   6.817  14.325
34578W        W98346   0.423  15.629  13.965
34579W        W98347  18.704   2.468  14.010
34580W        W98348  32.137  28.122  13.846
34581W        W98349  21.020  16.782  12.832
34582W        W98350   4.392  29.584  13.007
34583W        W98351  32.971  41.306   1.229
34584W        W98352   2.721  29.073  14.945
34585W        W98353   6.200  30.980  13.034
34586W        W98354  18.627   7.731  11.401
34587W        W98355  22.241  16.602  13.913
34588W        W98356   4.708  34.536   0.392
34589W        W98357  32.405  24.021   0.443
34590W        W98358  33.554  40.446   4.260
34591W        W98359  23.122   6.876  10.929
34592W        W98360   3.341   7.409   0.796
34593W        W98361  32.962  15.253   2.859
34594W        W98362  19.567   2.806  12.464
34595W        W98363  41.315   1.843   0.259
34596W        W98364  15.205  11.236   3.694
34597W        W98365  44.790   1.402  13.050
34598W        W98366  31.444  11.176  11.609
34599W        W98367  39.034  34.112  11.512
34600W        W98368  36.494   5.784   3.378
34601W        W98369  14.676  42.378   3.334
34602W        W98370  36.443  38.832  10.978
34603W        W98371  24.588  42.840   3.372
34604W        W98372   9.884  35.010  12.485
34605W        W98373  19.222  23.650   4.802
34606W        W98374  34.028  32.578   1.879
34607W        W98375  16.687   9.783  12.468
34608W        W98376  42.988  26.507   0.889
34609W        W98377   8.296  35.366  12.013
34610W        W98378  37.960   8.836   5.281
34611W        W98379  16.735   0.252  11.407
34612W        W98380  42.927  42.283  13.308
34613W        W98381  19.751  25.114  10.606
34614W        W98382  18.659  42.899  10.569
34615W        W98383   3.854  25.047   4.693
34616W        W98384  18.777  16.152   3.682
34617W        W98385  27.452  11.135   1.428
34618W        W98386  15.813  26.498   2.684
34619W        W98387  28.611  27.491   2.198
34620W        W98388  17.785  18.291  11.441
34621W        W98389  36.589  32.132  12.860
34622W        W98390  36.068  13.110  14.414
34623W        W98391  13.782  10.178   2.216
34624W        W98392  25.664  26.127   4.242
34625W        W98393  24.645  33.948  12.445
34626W        W98394   7.754  21.695   3.182
34627W        W98395  33.510   7.823  14.960
34628W        W98396  41.833  31.503  13.943
34629W        W98397  15.791  22.629   1.925
34630W        W98398  27.608  15.762   2.210
34631W        W98399  44.967  33.020  13.409
34632W        W98400   1.315  24.208  10.974
34633W        W98401  32.941  44.914   2.203
34634W        W98402  44.965  22.009  13.982
34635W        W98403  22.068  20.604   0.753
34636W        W98404   2.254   8.184  13.325
34637W        W98405   5.343  11.246  10.491
34638W        W98406   9.212  43.971  12.944
34639W        W98407  37.890   9.799  11.040
34640W        W98408  38.449  22.023   4.269
34641W        W98409  13.797  38.511   3.697
34642W        W98410  11.146  20.197  11.955
34643W        W98411  42.363  13.225  11.882
34644W        W98412  18.076  27.473  14.511
34645W        W98413  21.674  17.183   3.657
34646W        W98414  28.527  44.864  11.958
34647W        W98415   7.791   9.329  13.332
34648W        W98416  26.206   2.767  10.945
34649W        W98417  24.135  41.911  13.511
34650W        W98418  29.957  36.859  11.430
34651W        W98419   2.783  18.630   4.223
34652W        W98420  21.179   0.842   3.276
34653W        W98421   6.261   1.254  14.990
34654W        W98422  28.989  20.715  12.890
34655W        W98423   3.765  14.170   4.289
34656W        W98424  12.156  25.550   0.879
34657W        W98425  12.163  10.220  12.828
34658W        W98426  13.147  18.163  14.779
34659W        W98427  34.933  16.682  13.035
34660W        W98428  17.613  44.442   2.327
34661W        W98429  16.794  27.575   4.678
34662W        W98430  20.576   9.662   1.345
34663W        W98431  37.436   9.733  11.488
34664W        W98432   5.904  10.141  13.947
34665W        W98433  30.032  44.435   2.726
34666W        W98434   4.862  23.621   2.841
34667W        W98435   6.831   6.891  11.102
34668W        W98436  25.013  36.423   3.201
34669W        W98437  25.064   0.404  10.941
34670W        W98438  32.928   4.290   3.635
34671W        W98439  25.597  16.255  12.963
34672W        W98440   8.720   7.720   1.732
34673W        W98441  33.054  18.255   3.267
34674W        W98442  41.359  34.967   1.918
34675W        W98443  35.968  26.963   4.327
34676W        W98444   3.777  41.455   2.250
34677W        W98445  42.469   5.271  12.077
34678W        W98446  23.171   5.385  11.606
34679W        W98447  22.231   4.224   1.430
34680W        W98448   4.791  28.057   2.350
34681W        W98449  41.414  12.336  13.887
34682W        W98450  35.867  19.711  13.490
34683W        W98451  39.412  39.349  12.978
34684W        W98452  43.490   8.173  11.860
34685W        W98453  18.768  22.037   9.932
34686W        W98454  17.733  17.190   3.762
34687W        W98455  42.877   4.754   4.675
34688W        W98456  35.428  35.912  13.482
34689W        W98457  28.444   5.311   1.741
34690W        W98458  28.633  24.016  14.773
34691W        W98459  20.059  10.259   0.777
34692W        W98460  11.751  24.662  13.460
34693W        W98461  43.347  16.217   3.243
34694W        W98462  22.534  22.501  14.275
34695W        W98463  16.784  26.477   1.405
34696W        W98464  36.473  19.058   1.315
34697W        W98465  18.143  26.617   2.285
34698W        W98466  16.282  11.860  14.367
34699W        W98467   0.820  38.983  12.883
34700W        W98468  42.922  25.210  14.964
34701W        W98469  18.147   9.235   0.798
34702W        W98470  22.225  13.789  14.349
34703W        W98471  44.958  32.057   2.847
34704W        W98472   2.772  26.629  10.572
34705W        W98473  29.564   5.210  12.365
34706W        W98474  26.074  23.632   2.881
34707W        W98475  22.691  41.978   2.233
34708W        W98476  25.709  22.563  13.932
34709W        W98477  42.006   7.885   0.275
34710W        W98478   5.697  33.936  11.527
34711W        W98479  18.656  18.551   4.696
34712W        W98480   6.790   3.764   3.263
34713W        W98481  10.381  34.480   0.886
34714W        W98482  15.304  40.500   3.370
34715W        W98483  33.920  31.586   0.948
34716W        W98484  27.029  24.055  11.423
34717W        W98485   4.703  37.401  12.909
34718W        W98486  19.747  43.942  11.116
34719W        W98487  24.669  10.179  13.388
34720W        W98488  12.330  23.165  11.388
34721W        W98489  32.116  30.473  10.598
34722W        W98490  41.815  35.494  10.494
34723W        W98491  15.767  38.539  10.018
34724W        W98492  33.909  41.995   1.768
34725W        W98493  29.961  14.705   1.758
34726W        W98494  31.106  23.229   4.244
34727W        W98495  22.178  26.101  12.952
34728W        W98496  23.616  23.559  11.453
34729W        W98497  16.117  11.270  14.885
34730W        W98498  27.650  35.477  11.000
34731W        W98499  28.017  21.094  11.938
34732W        W98500   0.490  14.096  10.423
34733W        W98501  40.830  30.430  10.944
34734W        W98502  34.579  30.953  14.375
34735W        W98503  24.984  20.598   4.210
34736W        W98504  25.176  30.163  10.582
34737W        W98505  38.986   2.939   2.838
34738W        W98506  34.876   5.388   0.398
34739W        W98507  12.258  33.381  10.480
34740W        W98508  35.944  21.733   0.910
34741W        W98509   6.379  26.598   5.261
34742W        W98510  43.487  37.860   3.336
34743W        W98511  24.000  21.140  12.029
34744W        W98512   8.777  39.337  14.845
34745W        W98513  43.982  16.095  10.610
34746W        W98514  28.101  31.481   0.870
34747W        W98515  35.083  30.980   3.788
34748W        W98516  32.459  10.831   3.188
34749W        W98517   8.747  42.325   3.748
34750W        W98518  31.014  40.370  13.496
34751W        W98519  33.942  14.623  10.497
34752W        W98520  37.475  18.736   4.838
34753W        W98521   1.818  28.491  11.607
34754W        W98522   8.286  10.762   0.914
34755W        W98523  19.665  44.456  11.941
34756W        W98524  26.171   5.216   1.765
34757W        W98525  26.127  38.394  14.794
34758W        W98526  33.601  43.353  11.602
34759W        W98527   5.215  21.072  10.910
34760W        W98528  43.987  15.140  14.996
34761W        W98529  29.968  16.625  10.952
34762W        W98530  14.172  19.067  11.925
34763W        W98531  14.606  18.174  12.385
34764W        W98532   6.424  32.562  11.860
34765W        W98533  26.636   1.896  13.450
34766W        W98534  42.871  41.451  12.479
34767W        W98535   5.848  10.314  10.920
34768W        W98536   1.876   1.884  12.967
34769W        W98537   7.867  41.513   5.166
34770W        W98538  40.512   2.872   0.333
34771W        W98539   4.393  18.074   0.367
34772W        W98540   8.766  34.495  11.943
34773W        W98541  17.149  16.109  13.318
34774W        W98542  16.282  29.109  12.906
34775W        W98543  37.396  37.927   0.424
34776W        W98544   9.162  19.142  11.922
34777W        W98545  43.486  19.275   3.227
34778W        W98546  40.368  27.056   4.185
34779W        W98547  41.888  14.228   2.844
34780W        W98548  15.577  31.446  11.081
34781W        W98549   2.814   7.860  14.419
34782W        W98550  11.646  22.709   2.842
34783W        W98551  13.786  37.886  14.872
34784W        W98552  20.690  11.733   4.193
34785W        W98553  22.514  34.609   1.421
34786W        W98554  21.651  34.579  10.503
34787W        W98555  27.654  23.736   4.329
34788W        W98556  40.918  31.578   0.840
34789W        W98557  13.798  20.646  13.815
34790W        W98558  32.421   9.837  11.409
34791W        W98559  21.188  21.524  12.045
34792W        W98560  26.103  41.006  12.354
34793W        W98561  35.872  28.168  11.512
34794W        W98562  31.637  20.121   4.323
34795W        W98563   1.935  34.494   1.910
34796W        W98564  35.940  18.238   2.695
34797W        W98565  14.618   9.309  14.280
34798W        W98566  33.106  17.591   3.271
34799W        W98567  10.813  15.771  13.529
34800W        W98568  28.010  29.662   1.871
34801W        W98569   3.820  14.653   2.680
34802W        W98570  19.060  43.872   3.692
34803W        W98571  35.948  29.937  12.353
34804W        W98572   6.899  11.187  14.981
34805W        W98573  16.292  29.065  13.428
34806W        W98574  18.712  40.995  13.394
34807W        W98575   8.216  40.957   2.327
34808W        W98576  19.082  28.010   0.958
34809W        W98577  41.823  26.543  11.972
34810W        W98578  25.584  24.723  14.860
34811W        W98579  18.663  25.077  12.082
34812W        W98580  10.172   0.289   1.240
34813W        W98581   6.872  28.646  14.949
34814W        W98582  37.371  33.601  12.563
34815W        W98583  37.916   7.669   0.256
34816W        W98584  35.025  24.044  12.923
34817W        W98585  30.142  20.706  11.573
34818W        W98586  36.350  36.933  14.975
34819W        W98587  16.694  13.280  14.947
34820W        W98588  14.773  20.657   1.355
34821W        W98589   1.308   5.250  14.827
34822W        W98590  29.494   8.264  14.942
34823W        W98591  29.988  43.288   3.178
34824W        W98592  41.037  44.374  13.798
34825W        W98593  44.263  30.606   1.696
34826W        W98594   2.414  20.041  12.996
34827W        W98595  24.061   7.785  14.430
34828W        W98596  18.230  32.046   2.382
34829W        W98597   4.220  16.208  13.824
34830W        W98598  18.719  19.139   3.264
34831W        W98599   1.906  22.719   2.287
34832W        W98600   4.362  31.558  14.019
34833W        W98601  41.866  21.575  13.017
34834W        W98602  19.568  26.693  11.383
34835W        W98603  37.408  43.994   3.723
34836W        W98604  27.057   9.231  10.936
34837W        W98605   5.384  31.048  11.094
34838W        W98606  20.145  14.674   3.196
34839W        W98607  25.075  13.299  13.999
34840W        W98608  11.213  13.123   4.669
34841W        W98609   4.317  11.727  13.420
34842W        W98610  38.532  32.071  11.123
34843W        W98611   4.246  13.804   4.805
34844W        W98612  15.755  32.562   4.247
34845W        W98613  32.102   7.310   1.306
34846W        W98614  15.711  25.165   2.847
34847W        W98615  36.947  17.290   0.329
34848W        W98616  31.552  26.994  11.913
34849W        W98617  37.846   1.408   0.954
34850W        W98618   4.254  36.346   5.227
34851W        W98619   9.150  26.117   2.875
34852W        W98620  13.711   4.833  13.370
34853W        W98621  43.868  19.754  12.880
34854W        W98622  19.555  18.088  13.376
34855W        W98623  24.520  41.844   2.270
34856W        W98624   6.875  11.321   2.269
34857W        W98625  35.543  21.094   2.683
34858W        W98626   6.872  43.888  11.981
34859W        W98627  14.672   7.358   0.461
34860W        W98628  40.979  37.424  13.958
34861W        W98629  10.249  12.690  13.398
34862W        W98630   7.204  12.656   3.151
34863W        W98631  31.143  16.097  13.887
34864W        W98632  43.017  26.539   4.196
34865W        W98633   9.245   8.693   2.775
34866W        W98634  28.112  28.083   1.882
34867W        W98635  40.009   3.949  13.422
34868W        W98636  26.508  35.067  11.999
34869W        W98637   4.780  18.279  14.430
34870W        W98638  30.506  38.941   0.827
34871W        W98639   5.329  29.935  12.388
34872W        W98640  23.199  29.545  12.402
34873W        W98641  35.444  30.034   1.241
34874W        W98642  41.417  17.142  10.551
34875W        W98643   0.425   1.473  13.957
34876W        W98644   6.776  18.131   3.352
34877W        W98645  15.280  40.885  13.322
34878W        W98646  23.526   1.937   2.345
34879W        W98647  19.153  44.275  14.334
34880W        W98648  35.459  25.671  12.564
34881W        W98649   6.689   4.375  11.940
34882W        W98650  16.608  18.117   0.824
34883W        W98651   6.839   4.311   0.935
34884W        W98652  30.920  29.958  13.413
34885W        W98653  23.571  21.097   1.904
34886W        W98654   2.737   6.374  12.404
34887W        W98655   1.480   2.950  11.412
34888W        W98656  38.061  34.513  10.435
34889W        W98657  35.531  31.101   0.480
34890W        W98658   9.171  34.864   3.847
34891W        W98659  43.845  37.496  11.439
34892W        W98660  41.312  26.992  11.867
34893W        W98661  27.105  28.991   3.302
34894W        W98662   4.872  20.255  11.917
34895W        W98663  36.030   4.901   5.265
34896W        W98664   7.743  15.705   5.127
34897W        W98665  31.962  34.381   2.226
34898W        W98666   6.721  42.320   2.686
34899W        W98667   3.720  26.527  10.943
34900W        W98668  31.414   5.862  11.376
34901W        W98669  32.093  24.160  12.085
34902W        W98670   7.355  43.359   2.741
34903W        W98671  15.587   8.741  11.404
34904W        W98672  25.145  26.687   3.862
34905W        W98673  43.918  30.097  11.500
34906W        W98674  14.233   1.912   4.748
34907W        W98675   4.717  16.751   2.775
34908W        W98676  31.041   8.832   2.412
34909W        W98677  12.769  25.616  11.985
34910W        W98678  13.656   7.311  10.923
34911W        W98679  11.695  33.493   2.876
34912W        W98680  30.475  31.968  13.450
34913W        W98681  15.761  33.049   0.736
34914W        W98682  31.579   7.339  13.936
34915W        W98683  16.212  13.111  11.990
34916W        W98684  35.046  13.232  10.915
34917W        W98685  44.867  19.558  11.902
34918W        W98686  31.109  23.585  11.022
34919W        W98687  38.982  27.674   5.311
34920W        W98688  24.676  41.941   1.789
34921W        W98689  40.363  37.360  11.943
34922W        W98690  14.646   7.254   5.253
34923W        W98691  30.147   3.740   3.722
34924W        W98692  20.214  11.198   2.681
34925W        W98693  14.832  23.989  13.514
34926W        W98694  13.601  36.476   4.326
34927W        W98695  29.072  27.149  13.997
34928W        W98696  13.822   9.722   2.750
34929W        W98697  43.513  28.172  14.852
34930W        W98698  27.997   5.868   0.933
34931W        W98699  34.070   5.773   0.827
34932W        W98700   7.830  26.661   0.839
34933W        W98701  24.228  11.278   2.831
34934W        W98702  24.151  33.994  12.459
34935W        W98703  30.606  38.412  14.506
34936W        W98704  25.605   8.201   4.343
34937W        W98705  42.856  19.742   4.154
34938W        W98706   0.955   6.830  11.570
34939W        W98707  36.944  28.971  12.341
34940W        W98708  39.937  20.263   0.249
34941W        W98709  19.777   8.659   0.377
34942W        W98710  26.680   1.875   3.665
34943W        W98711   0.254   7.270  11.394
34944W        W98712  15.250  30.628   3.310
34945W        W98713  22.563  31.997   0.967
34946W        W98714  21.187  16.729  14.965
34947W        W98715  15.193   3.278   3.378
34948W        W98716   7.832   2.868   4.228
34949W        W98717  17.101   8.766  14.932
34950W        W98718   9.788  32.517   4.332
34951W        W98719  42.463   6.884  11.947
34952W        W98720  18.607  11.762   5.279
34953W        W98721  23.735  18.671   4.229
34954W        W98722  15.104  43.773   1.413
34955W        W98723  27.052  18.093   0.444
34956W        W98724  31.144  26.066   2.719
34957W        W98725   8.291   8.227  11.106
34958W        W98726  39.337  25.154   1.709
34959W        W98727  12.694  37.508   3.856
34960W        W98728  36.879  42.319   2.343
34961W        W98729  12.657  16.769   4.667
34962W        W98730  29.015   7.367   4.252
34963W        W98731  44.399   2.912   4.343
34964W        W98732  34.056  16.771   0.866
34965W        W98733  32.957   1.320  12.422
34966W        W98734  29.087   5.300   3.188
34967W        W98735  36.909   0.345  14.933
34968W        W98736  38.951   5.887  12.463
34969W        W98737  39.870  41.419   1.815
34970W        W98738  13.308  20.617  14.503
34971W        W98739  44.938  27.671   2.338
34972W        W98740  11.310  30.566  12.854
34973W        W98741   2.884  44.756   1.788
34974W        W98742  32.051  44.999  14.887
34975W        W98743  16.237  41.374  10.445
34976W        W98744  14.721   3.249   4.681
34977W        W98745  20.142  38.542   0.403
34978W        W98746   4.421  23.608  12.903
34979W        W98747  15.103  26.090  11.860
34980W        W98748  37.024   0.946  13.323
34981W        W98749  27.499  13.340  10.590
34982W        W98750  23.731   3.324   0.754
34983W        W98751  25.125  21.576   3.641
34984W        W98752  27.688  24.534  11.957
34985W        W98753  31.042  17.267  14.473
34986W        W98754   5.248  14.226  10.460
34987W        W98755   2.263  22.146  11.862
34988W        W98756   2.790  23.588   4.705
34989W        W98757   0.923  33.572   4.231
34990W        W98758  42.777  24.699  12.390
34991W        W98759  16.274   5.765  11.984
34992W        W98760  43.394  44.966   1.811
34993W        W98761  26.555   4.907  13.993
34994W        W98762   2.437  12.799   3.241
34995W        W98763  23.204   0.374   2.287
34996W        W98764  28.487  10.212   4.273
34997W        W98765   0.805  32.601  10.936
34998W        W98766  13.210  26.003  11.924
34999W        W98767  35.923  43.289  12.838
35000W        W98768  21.533  39.051  11.125
35001W        W98769  11.829  17.754   4.300
35002W        W98770  43.453  10.769  14.974
35003W        W98771   9.862   6.253   4.148
35004W        W98772   0.872   7.388  10.024
35005W        W98773  24.671   9.678   5.140
35006W        W98774   2.909  12.124   4.695
35007W        W98775   2.271   0.349  12.389
35008W        W98776  39.951  35.109  12.999
35009W        W98777  12.666  19.101   3.851
35010W        W98778  12.726   1.735   2.860
35011W        W98779  29.543   2.241  14.441
35012W        W98780  30.090  42.431  14.834
35013W        W98781  19.052  18.285   3.385
35014W        W98782  37.416   1.844  12.869
35015W        W98783  31.433  15.249  12.522
35016W        W98784  19.759   8.188  10.907
35017W        W98785  16.724  31.600  10.588
35018W        W98786  34.992  35.102  10.424
35019W        W98787   6.784  12.810  12.041
35020W        W98788   4.234  14.640   0.309
35021W        W98789  32.945  10.311  11.466
35022W        W98790   5.790  19.077   2.367
35023W        W98791  44.905  21.017  10.412
35024W        W98792  27.977  24.999   3.226
35025W        W98793  29.000  10.770   4.318
35026W        W98794  39.349  38.922  10.591
35027W        W98795  10.305   3.771  14.830
35028W        W98796   5.356  30.042   0.276
35029W        W98797  28.019  42.954   9.942
35030W        W98798   6.335  40.498  10.555
35031W        W98799  10.717  43.340   0.962
35032W        W98800  27.045  12.743   1.302
35033W        W98801  33.572  18.273  10.106
35034W        W98802  22.557  29.576   0.398
35035W        W98803  36.489   3.367   1.808
35036W        W98804   6.391   2.850   3.807
35037W        W98805  43.492  33.897   0.274
35038W        W98806  35.008  26.518  12.071
35039W        W98807  14.708  10.151   3.150
35040W        W98808  40.822  42.402  12.457
35041W        W98809   8.795  18.559  12.383
35042W        W98810  41.513  13.145   3.194
35043W        W98811  30.109   2.900  12.896
35044W        W98812  26.049  22.729   0.925
35045W        W98813  21.578  14.229  14.465
35046W        W98814  30.435  21.540  14.321
35047W        W98815   7.240  31.917  10.419
35048W        W98816   9.835  38.461  11.567
35049W        W98817  38.402  31.457  11.520
35050W        W98818  39.499  10.761  14.429
35051W        W98819  24.072  23.668   1.235
35052W        W98820   2.406  29.611  11.542
35053W        W98821  19.637  16.668   4.288
35054W        W98822  37.558  12.841  10.528
35055W        W98823  29.461  31.556  12.849
35056W        W98824  14.633  12.256   4.747
35057W        W98825   8.787  26.970  13.312
35058W        W98826  20.147   9.644  13.987
35059W        W98827  23.215   0.275   0.790
35060W        W98828  24.176  12.824  11.605
35061W        W98829  22.711  10.757  14.925
35062W        W98830  13.282  24.134  11.967
35063W        W98831  44.301  42.353   0.313
35064W        W98832  43.504  16.224  11.526
35065W        W98833  36.859  22.153  14.990
35066W        W98834   2.257   7.670  13.468
35067W        W98835  26.671   5.760   2.804
35068W        W98836  31.000  12.686  14.288
35069W        W98837  26.006  17.204   1.750
35070W        W98838   5.866  13.245  14.907
35071W        W98839   1.978  38.339   0.415
35072W        W98840  14.758  21.223   4.291
35073W        W98841   6.313  28.142   4.758
35074W        W98842  40.503  14.134   3.302
35075W        W98843  28.020   4.315  12.364
35076W        W98844  22.644   1.445  10.570
35077W        W98845  11.369  35.366   0.823
35078W        W98846  41.928  25.689  11.860
35079W        W98847   0.475  31.608   0.809
35080W        W98848  30.127   2.811   0.377
35081W        W98849  32.487  35.465  13.837
35082W        W98850  35.602  19.600   5.181
35083W        W98851  40.936  23.066   4.831
35084W        W98852   3.396  15.170   4.748
35085W        W98853  10.849  23.197   4.313
35086W        W98854  35.515  35.503   3.345
35087W        W98855   7.220  28.667  10.506
35088W        W98856  13.163  42.976   1.286
35089W        W98857  37.435  24.507   0.877
35090W        W98858  16.235  21.670  14.833
35091W        W98859  43.497  36.403  11.469
35092W        W98860  19.244  25.020   3.146
35093W        W98861  26.099  13.259   2.784
35094W        W98862  16.779  12.649  11.048
35095W        W98863  10.821  29.655   0.784
35096W        W98864  19.675  22.210  11.905
35097W        W98865  26.191  23.989  11.548
35098W        W98866  17.672  40.530  11.001
35099W        W98867  35.522  15.776   1.794
35100W        W98868   4.872  15.692   2.238
35101W        W98869  26.596  34.062  12.434
35102W        W98870  44.821  19.671  13.403
35103W        W98871  26.183   5.406   0.365
35104W        W98872   1.792  16.759   2.801
35105W        W98873  21.234   9.782   3.204
35106W        W98874  17.227  11.149  11.416
35107W        W98875  42.499  31.492  12.881
35108W        W98876  29.495   6.303   0.321
35109W        W98877  31.132  44.784   2.316
35110W        W98878  16.315  38.989   0.967
35111W        W98879  32.970  40.314   3.744
35112W        W98880  39.841  33.413   3.776
35113W        W98881  16.241  12.251  13.854
35114W        W98882  30.083  36.027  11.087
35115W        W98883  10.265   8.303  11.544
35116W        W98884  37.453   7.182   3.697
35117W        W98885  44.442  21.242  14.905
35118W        W98886  39.970  27.625   0.808
35119W        W98887  29.503  42.894  13.525
35120W        W98888  37.546  35.522   2.722
35121W        W98889  33.004  24.973   1.900
35122W        W98890   3.822  15.634   2.690
35123W        W98891  32.485  31.101   3.200
35124W        W98892  41.445   4.295   2.365
35125W        W98893  17.213   2.375  13.525
35126W        W98894  43.854  22.169   2.403
35127W        W98895   9.337   7.910  14.986
35128W        W98896  11.815  21.216  10.605
35129W        W98897  17.755  18.202  14.988
35130W        W98898  28.074   3.314   4.278
35131W        W98899  34.417  38.018  11.585
35132W        W98900   7.899  12.248   0.259
35133W        W98901  25.549  14.120   1.697
35134W        W98902  16.078  41.520   4.267
35135W        W98903  26.703  21.596  14.289
35136W        W98904  21.038  23.609   1.306
35137W        W98905   8.346  42.910  14.384
35138W        W98906  27.985   8.286   1.862
35139W        W98907   3.838  35.483  11.464
35140W        W98908  40.838  41.345  11.896
35141W        W98909  30.448  42.030   4.142
35142W        W98910  34.452  39.008   2.719
35143W        W98911   9.343  28.677   0.384
35144W        W98912   4.739  41.923  12.961
35145W        W98913  39.017  19.615  10.512
35146W        W98914   5.719   0.361  11.919
35147W        W98915  31.450  24.980   1.316
35148W        W98916  22.539  21.256  11.604
35149W        W98917  16.249   6.861  11.117
35150W        W98918  41.980   4.760  13.521
35151W        W98919  15.286  35.440   1.797
35152W        W98920  41.525  19.577   3.664
35153W        W98921  38.511  11.650   1.927
35154W        W98922  32.501  30.063   1.706
35155W        W98923  33.082  44.756  13.339
35156W        W98924  41.030   5.397  12.003
35157W        W98925  26.068  35.054  12.062
35158W        W98926   2.229  10.816   4.273
35159W        W98927   1.478  25.485  12.412
35160W        W98928  42.899   8.380  11.105
35161W        W98929  19.214   8.390   2.233
35162W        W98930   7.374  19.771  14.799
35163W        W98931  44.406   1.832   2.723
35164W        W98932  27.474  40.458  13.010
35165W        W98933  22.051  26.689  10.990
35166W        W98934  14.714  31.581   0.762
35167W        W98935  38.948  32.117   2.893
35168W        W98936  40.990  24.212   4.164
35169W        W98937  31.121  17.764  11.543
35170W        W98938  37.488  11.638  13.485
35171W        W98939   1.246   3.859  11.977
35172W        W98940  29.136   8.818  14.878
35173W        W98941   3.752  26.098  13.347
35174W        W98942  27.058  13.242  14.853
35175W        W98943   9.767  13.301  14.985
35176W        W98944  13.799  21.126  12.431
35177W        W98945  14.303   4.439  12.901
35178W        W98946  16.603  38.959   3.687
35179W        W98947  12.795   7.404   4.734
35180W        W98948  42.824   7.829   2.298
35181W        W98949  28.658  21.220  13.417
35182W        W98950  39.049  30.097  13.345
35183W        W98951   0.798  16.212   2.837
35184W        W98952   6.680  23.148   3.757
35185W        W98953  17.593  34.027   3.709
35186W        W98954  39.838  33.507  12.361
35187W        W98955   1.294  18.733   4.801
35188W        W98956  18.622  36.970   1.323
35189W        W98957  13.236  24.530  13.939
35190W        W98958  33.048  30.442  13.980
35191W        W98959   1.782  37.040   2.722
35192W        W98960  31.971   5.719  14.972
35193W        W98961   0.794  36.564   1.902
35194W        W98962  26.583  23.042   1.721
35195W        W98963  34.535   7.764   0.871
35196W        W98964  32.598  16.181  11.476
35197W        W98965  21.529  26.970  10.901
35198W        W98966  20.207  30.425  11.400
35199W        W98967  29.518  39.550   2.241
35200W        W98968  40.967  16.307   1.796
35201W        W98969  29.052   3.836   1.234
35202W        W98970   6.759   2.451   2.306
35203W        W98971   1.848  40.998   4.136
35204W        W98972  33.985  24.111   0.906
35205W        W98973  21.194  44.425  13.967
35206W        W98974  10.875   1.440   3.681
35207W        W98975   6.821  41.980  11.510
35208W        W98976  33.092  18.596   0.839
35209W        W98977   3.458  17.579  14.881
35210W        W98978   1.788   2.314   4.251
35211W        W98979  40.971  17.607  14.438
35212W        W98980   4.788  41.792   4.721
35213W        W98981  17.761  44.961   4.179
35214W        W98982  15.162   9.755   4.627
35215W        W98983  11.833  24.614  11.581
35216W        W98984  37.981  24.133  12.420
35217W        W98985  18.545   8.753   4.749
35218W        W98986  33.513   4.381  12.439
35219W        W98987  27.159  15.701   4.721
35220W        W98988  31.095   8.896  14.358
35221W        W98989  10.271  16.691   0.315
35222W        W98990  20.649  35.095   4.653
35223W        W98991  22.569  34.036   1.329
35224W        W98992  27.164  13.286  13.506
35225W        W98993   5.375   4.752   0.454
35226W        W98994  30.147  35.935  12.854
35227W        W98995  25.078  33.514  11.055
35228W        W98996  42.406   4.922  12.422
35229W        W98997   9.703   6.291  13.461
35230W        W98998  42.390  23.233  12.472
35231W        W98999  20.247   3.363  13.876
35232W        W99000  30.628   2.722  10.985
35233W        W99001  28.653  24.073  10.507
35234W        W99002   0.798  12.147  11.492
35235W        W99003   6.785   6.272   1.841
35236W        W99004  13.157  13.837  11.918
35237W        W99005   3.887   4.296  13.458
35238W        W99006  40.975  23.604  11.603
35239W        W99007  38.871  13.780   3.764
35240W        W99008  23.030  40.797   0.770
35241W        W99009   6.916  25.993   1.244
35242W        W99010  22.188   1.910   3.312
35243W        W99011  44.401  36.382   3.256
35244W        W99012  13.130   2.897  11.564
35245W        W99013  17.071  30.514  12.999
35246W        W99014  35.893  30.911  11.061
35247W        W99015  26.567  17.282  11.523
35248W        W99016  27.157  32.569  12.856
35249W        W99017  37.504   6.407   9.552
35250W        W99018  17.189  40.042   9.990
35251W        W99019  12.223   6.738   0.287
35252W        W99020  44.347   3.769   2.889
35253W        W99021  12.802  34.041  11.478
35254W        W99022  42.877  27.474  12.385
35255W        W99023   6.838  33.625   2.786
35256W        W99024  44.449  29.510   2.360
35257W        W99025  27.610  29.423  13.845
35258W        W99026  43.339  22.075  11.090
35259W        W99027  41.987  42.815   1.223
35260W        W99028   4.334  36.975  10.939
35261W        W99029   7.732  39.345  13.052
35262W        W99030  20.724  43.359   3.662
35263W        W99031  44.311   9.649  13.493
35264W        W99032   7.780  13.314  14.883
35265W        W99033  24.984  25.583  13.432
35266W        W99034  13.127   0.852   5.197
35267W        W99035   7.848   4.444  14.480
35268W        W99036  30.939  29.518   2.416
35269W        W99037  43.918  43.450   2.672
35270W        W99038  18.700  31.917  14.291
35271W        W99039  26.195   5.795   2.192
35272W        W99040  41.390  12.641  13.514
35273W        W99041  23.726  12.178   1.423
35274W        W99042  30.610  15.254   2.899
35275W        W99043  13.642   0.476  11.890
35276W        W99044  38.925  27.678  14.324
35277W        W99045  19.193   1.772   1.316
35278W        W99046  16.270  13.226   1.842
35279W        W99047  28.517  44.290  14.879
35280W        W99048  13.296  24.508   4.155
35281W        W99049  38.852  28.465   4.177
35282W        W99050  39.838  36.355  10.978
35283W        W99051  32.425  37.378   4.207
35284W        W99052   5.919  34.396   1.328
35285W        W99053  17.194  19.663   1.848
35286W        W99054   6.233  15.188  10.530
35287W        W99055  39.851  34.011  14.818
35288W        W99056  30.511  37.884   2.223
35289W        W99057  10.772  22.240   1.212
35290W        W99058  28.134  35.876   0.765
35291W        W99059   8.764   5.723  11.916
35292W        W99060   1.246   2.235   3.810
35293W        W99061   2.720  19.645   4.689
35294W        W99062  32.113  39.947  12.998
35295W        W99063  25.020  16.791  10.590
35296W        W99064  26.102  13.693  13.859
35297W        W99065   7.717  27.513  12.044
35298W        W99066  31.928  43.012  12.429
35299W        W99067  26.960  11.247   1.778
35300W        W99068  11.826  33.119  13.043
35301W        W99069  33.530   5.759  11.064
35302W        W99070   1.830  25.028   3.798
35303W        W99071   8.318  17.200   4.737
35304W        W99072  16.250  32.982   0.357
35305W        W99073  43.395  11.334  12.445
35306W        W99074  39.388  18.635  13.866
35307W        W99075  43.926  39.031  11.603
35308W        W99076   4.416  21.130   3.362
35309W        W99077   4.774  38.039   1.750
35310W        W99078  23.008  12.692   5.712
35311W        W99079   0.984   1.817   2.264
35312W        W99080  43.921  16.198   2.200
35313W        W99081  43.867  18.604   1.816
35314W        W99082  34.574   5.689  13.053
35315W        W99083  17.275  41.027  11.575
35316W        W99084  15.294  22.131   3.804
35317W        W99085   3.349  27.028  11.545
35318W        W99086  34.568  21.653   2.318
35319W        W99087  29.094  27.653  14.859
35320W        W99088  44.495  15.730   1.398
35321W        W99089  14.109  35.862   4.330
35322W        W99090  15.800  17.286  14.779
35323W        W99091  25.053  32.430   3.636
35324W        W99092  29.541  38.408  10.416
35325W        W99093  25.550  21.099  10.106
35326W        W99094   3.287  17.264   2.894
35327W        W99095  25.572  33.475   2.331
35328W        W99096   6.710   7.767  11.113
35329W        W99097  43.472  37.934  12.932
35330W        W99098  40.519  42.382  10.450
35331W        W99099  42.475  31.927   4.273
35332W        W99100   2.875  15.104   2.365
35333W        W99101  13.812  14.326   2.340
35334W        W99102   0.447   0.335   4.624
35335W        W99103  12.194   5.379  14.496
35336W        W99104  31.950  37.393   2.686
35337W        W99105  25.580   7.681  13.878
35338W        W99106  21.208   8.752   0.271
35339W        W99107  27.185  26.016   0.398
35340W        W99108  39.000   7.279   1.883
35341W        W99109  19.686  32.033   1.851
35342W        W99110  20.203  28.153   1.823
35343W        W99111  15.083  32.993   4.782
35344W        W99112   4.389  27.594  11.880
35345W        W99113  11.301   3.349  13.541
35346W        W99114  30.063  23.650   3.162
35347W        W99115  22.232  44.474  12.895
35348W        W99116  32.887  34.613  11.916
35349W        W99117  33.913  39.384  14.291
35350W        W99118   1.900  29.099  11.977
35351W        W99119  11.845  24.024  11.537
35352W        W99120  44.834   5.739   1.821
35353W        W99121  33.446  37.914  11.546
35354W        W99122  17.115  30.133  13.513
35355W        W99123   0.979   0.425  13.502
35356W        W99124  34.022  21.650   1.861
35357W        W99125  31.596  34.518  14.963
35358W        W99126  11.685  11.248  12.551
35359W        W99127  24.026  23.514   4.264
35360W        W99128  16.243  16.743   1.261
35361W        W99129   1.817  17.730  12.438
35362W        W99130  12.322   9.185  12.513
35363W        W99131   1.780   6.827   2.674
35364W        W99132  23.651  28.459  10.984
35365W        W99133  40.429  40.527  11.572
35366W        W99134  19.595  24.592  10.411
35367W        W99135   3.261  40.436  12.550
35368W        W99136  26.692  28.623  13.800
35369W        W99137  14.194  10.345  11.941
35370W        W99138  24.719   1.793   2.386
35371W        W99139  32.484  29.582   4.163
35372W        W99140  36.528  32.543  14.313
35373W        W99141  20.642  43.441  14.873
35374W        W99142  29.611  19.665   4.220
35375W        W99143  17.593   1.858   2.888
35376W        W99144   9.764  43.989   0.885
35377W        W99145  20.255  41.434  10.962
35378W        W99146  10.267  28.553   2.180
35379W        W99147  10.218  39.818   3.728
35380W        W99148   1.847  22.110  11.578
35381W        W99149  28.950   0.927   0.466
35382W        W99150  13.301  38.026  12.839
35383W        W99151  38.554  28.072  14.995
35384W        W99152  12.276  33.992   0.728
35385W        W99153  38.528  34.540  10.485
35386W        W99154  33.504  34.397  10.613
35387W        W99155   2.265  17.131  14.788
35388W        W99156   0.756  32.887   4.656
35389W        W99157   3.379   5.737  13.416
35390W        W99158  12.667  12.116  13.386
35391W        W99159  30.600  21.065  14.387
35392W        W99160  40.459  30.487  11.871
35393W        W99161  34.932  42.474  13.967
35394W        W99162  28.943  13.217   4.605
35395W        W99163   2.943  13.732  13.362
35396W        W99164  40.541  33.575   1.783
35397W        W99165  15.249   5.727   0.951
35398W        W99166   2.419  16.091   3.186
35399W        W99167   8.193  31.085   3.290
35400W        W99168  32.629  39.535   2.309
35401W        W99169  25.648  15.271  12.365
35402W        W99170  17.746  23.646   3.689
35403W        W99171  27.571  39.502  12.420
35404W        W99172  28.929  37.024  10.528
35405W        W99173  22.139  19.072   4.794
35406W        W99174  22.629   8.686  13.425
35407W        W99175   9.278  33.966   2.700
35408W        W99176   4.853  11.255  13.046
35409W        W99177   4.751  22.560  14.293
35410W        W99178   4.279  29.441  14.764
35411W        W99179  40.981   5.205   2.309
35412W        W99180   1.399  23.170   4.681
35413W        W99181  23.986  11.646  12.927
35414W        W99182  39.478  40.985  13.799
35415W        W99183  19.075  18.219  12.862
35416W        W99184  35.987  44.832   0.934
35417W        W99185  42.474   3.846  12.906
35418W        W99186  19.687  33.058  11.947
35419W        W99187   9.335  19.225   2.401
35420W        W99188  41.033  12.689   0.431
35421W        W99189   2.753  37.359  13.442
35422W        W99190  44.997  40.487  10.948
35423W        W99191  34.034  34.434   0.403
35424W        W99192  38.994  28.138  12.967
35425W        W99193  16.085  20.039  12.086
35426W        W99194   8.760  25.659   3.288
35427W        W99195  41.918  21.043  10.038
35428W        W99196  20.133  24.007  11.914
35429W        W99197  12.757  44.386  11.439
35430W        W99198  23.072  23.076   2.760
35431W        W99199  27.078  13.148  13.879
35432W        W99200  39.465  44.404   3.646
35433W        W99201  25.709  43.877   0.379
35434W        W99202   4.944  38.967   4.196
35435W        W99203  43.971  28.027   2.899
35436W        W99204  39.857  15.677   0.736
35437W        W99205  38.468  25.142   2.278
35438W        W99206  30.429   8.807   3.772
35439W        W99207  17.716  34.895  13.976
35440W        W99208  31.417  36.557  14.944
35441W        W99209  12.764  23.544  14.365
35442W        W99210  17.745  15.769   4.326
35443W        W99211   5.789  20.174  12.900
35444W        W99212  17.680  11.786  11.381
35445W        W99213  26.674  23.167   2.845
35446W        W99214  44.378  42.423  13.854
35447W        W99215   9.268   2.777  12.864
35448W        W99216  13.224  28.478   4.336
35449W        W99217  15.588  34.555   0.304
35450W        W99218  13.781  35.417   3.283
35451W        W99219  27.540  11.831   3.257
35452W        W99220  12.164  25.586   1.751
35453W        W99221  39.837  42.337   3.763
35454W        W99222  35.945  27.019  12.525
35455W        W99223  40.456  41.889  11.900
35456W        W99224   3.916  25.092   3.723
35457W        W99225  23.664   1.327  10.529
35458W        W99226  40.455  37.058   2.766
35459W        W99227  19.259  25.997   4.316
35460W        W99228  21.650  29.137   4.626
35461W        W99229  44.298  19.176   2.891
35462W        W99230  27.131  27.121  12.832
35463W        W99231  20.751  42.367  12.446
35464W        W99232  41.019  44.852   4.338
35465W        W99233  23.169  14.333   2.232
35466W        W99234  29.569  16.588   1.911
35467W        W99235   7.414   5.862  14.947
35468W        W99236  11.219  27.039  12.031
35469W        W99237  14.293   9.344  14.328
35470W        W99238  25.661  35.038   4.354
35471W        W99239  14.616  28.619  14.414
35472W        W99240  37.374   8.220   0.733
35473W        W99241   0.766   5.417  11.570
35474W        W99242  40.989  25.690  14.288
35475W        W99243  14.813  40.404  13.879
35476W        W99244   8.667   7.318   1.351
35477W        W99245  23.021  22.711   1.811
35478W        W99246  37.529  31.643  10.436
35479W        W99247  39.969  26.547  11.043
35480W        W99248  36.549  40.962  14.305
35481W        W99249   4.825   3.829  13.863
35482W        W99250  32.551   3.231  13.914
35483W        W99251  28.141   0.883  14.974
35484W        W99252  41.894  12.352  11.111
35485W        W99253  39.822  29.985   3.696
35486W        W99254   7.705  11.865   1.246
35487W        W99255  16.779  29.119   0.442
35488W        W99256  35.573  30.143  12.419
35489W        W99257  26.569   7.850   2.873
35490W        W99258   8.856  44.498   0.345
35491W        W99259   4.284   9.710  14.933
35492W        W99260  19.768   2.913   0.282
35493W        W99261  13.261  35.957   9.988
35494W        W99262  44.372  15.304  14.462
35495W        W99263  10.877  19.182  14.359
35496W        W99264  23.526  10.650   4.197
35497W        W99265  37.341  33.542  14.780
35498W        W99266  29.139  16.629   1.825
35499W        W99267  17.096  26.558   2.672
35500W        W99268   9.745   5.712  10.939
35501W        W99269  21.043  10.365  13.885
35502W        W99270  29.942  21.017   0.967
35503W        W99271  36.358   6.857  10.913
35504W        W99272  18.292  18.755   4.145
35505W        W99273  12.829  24.675   2.678
35506W        W99274  40.473  34.032  10.632
35507W        W99275  13.198  43.774  11.524
35508W        W99276  28.642  22.077  13.033
35509W        W99277  29.428   3.930  14.466
35510W        W99278  24.590  42.000   4.704
35511W        W99279  25.013   0.335  10.613
35512W        W99280  26.138  20.039   0.404
35513W        W99281  30.650  30.635  14.937
35514W        W99282  14.245   3.223  14.302
35515W        W99283  15.213  17.181  14.802
35516W        W99284   6.843  38.399   2.419
35517W        W99285  42.844  38.950   5.107
35518W        W99286  43.365  34.453   2.268
35519W        W99287  26.638  30.023  11.866
35520W        W99288  15.713  24.128  12.373
35521W        W99289   1.931  37.858   3.292
35522W        W99290  22.218  41.979   0.937
35523W        W99291  20.036  12.332   0.880
35524W        W99292  38.408  16.642  13.898
35525W        W99293  26.665  32.455   2.842
35526W        W99294  17.766   1.423   0.738
35527W        W99295  31.968  37.897   3.805
35528W        W99296   3.823  44.366  12.454
35529W        W99297  39.991  34.406   1.369
35530W        W99298  16.260   2.309  11.454
35531W        W99299  34.575  23.109  13.307
35532W        W99300  43.780  28.114  10.640
35533W        W99301  30.566  33.511  13.376
35534W        W99302  24.044   2.251  13.854
35535W        W99303   8.357  32.064  12.979
35536W        W99304   5.796  11.309   1.865
35537W        W99305  31.421  10.154   3.646
35538W        W99306  12.225  14.232   2.841
35539W        W99307  20.656  35.080  11.940
35540W        W99308   6.829  40.519   4.611
35541W        W99309   7.808   5.744  11.435
35542W        W99310  37.374  39.862   9.953
35543W        W99311  24.547  32.511  13.338
35544W        W99312  32.462  36.478   1.369
35545W        W99313  16.165   6.386  10.448
35546W        W99314  12.129   6.323   1.795
35547W        W99315  21.077  14.800  11.918
35548W        W99316  44.410  12.852   5.114
35549W        W99317  33.907  30.066   1.420
35550W        W99318   1.898  13.193  11.976
35551W        W99319  34.540  20.050  13.397
35552W        W99320  26.086  14.170   5.579
35553W        W99321  41.993  17.652   2.380
35554W        W99322  40.823  11.280   1.857
35555W        W99323  33.045  16.607   0.270
35556W        W99324  35.955  24.073   0.286
35557W        W99325  29.039  39.553  14.898
35558W        W99326  11.662  32.941   2.725
35559W        W99327  22.518  35.599   3.692
35560W        W99328  41.941  16.759  13.319
35561W        W99329  17.672  41.414   0.944
35562W        W99330  33.549  30.045   0.859
35563W        W99331  43.416  40.052  13.471
35564W        W99332  31.482  37.016  10.527
35565W        W99333  32.442  41.793   1.449
35566W        W99334   0.814   3.430   4.639
35567W        W99335  13.775  24.143  13.064
35568W        W99336  31.476  13.193  13.334
35569W        W99337  12.242  16.663  12.971
35570W        W99338  43.371   6.258   1.236
35571W        W99339   9.864  34.508   2.407
35572W        W99340  41.860  40.330   0.740
35573W        W99341  11.847  30.098   3.711
35574W        W99342  39.975  13.346   1.889
35575W        W99343  40.802   6.735   2.405
35576W        W99344   2.326  31.912  14.323
35577W        W99345  25.581  31.901   9.937
35578W        W99346  17.247  36.551   2.857
35579W        W99347  21.744  42.436   1.734
35580W        W99348  44.899  42.810  12.837
35581W        W99349   0.833   8.815   3.694
35582W        W99350   6.682   3.378   1.841
35583W        W99351  44.378  11.777  13.493
35584W        W99352  40.943  11.632  11.599
35585W        W99353  38.054  34.476  11.081
35586W        W99354  12.166  20.106   4.143
35587W        W99355  30.974   1.907  14.022
35588W        W99356  10.342  38.436  10.545
35589W        W99357   1.301   5.711  12.346
35590W        W99358  37.885  23.625   0.349
35591W        W99359   5.296   3.448   2.180
35592W        W99360  38.929  18.057  10.058
35593W        W99361  27.121  18.570  12.068
35594W        W99362   3.258  24.129   3.214
35595W        W99363   8.212   3.722  11.417
35596W        W99364  29.649  36.954   0.738
35597W        W99365  12.308   7.834   2.834
35598W        W99366  25.612  17.297   1.862
35599W        W99367  15.741  38.834  14.312
35600W        W99368   5.913   0.811  11.487
35601W        W99369   9.311  44.403  12.515
35602W        W99370   9.195  27.099   2.392
35603W        W99371  30.489  13.217   1.240
35604W        W99372  26.983  41.029  10.441
35605W        W99373  44.802  24.117   2.394
35606W        W99374  12.219  30.946  13.312
35607W        W99375  39.412   2.243   4.195
35608W        W99376   6.899  25.535   1.267
35609W        W99377  31.067  28.982   3.786
35610W        W99378  22.069  40.454   0.413
35611W        W99379  17.783  31.567   2.247
35612W        W99380  43.795  39.971  12.360
35613W        W99381  36.090  25.080   1.755
35614W        W99382  27.021  24.519   3.842
35615W        W99383  43.798  21.141  14.324
35616W        W99384  38.479  41.407   2.212
35617W        W99385  31.480  32.108   3.797
35618W        W99386  37.549  17.587  14.821
35619W        W99387   8.872   2.360   2.374
35620W        W99388  28.007  26.951  14.392
35621W        W99389  42.825   2.916  13.928
35622W        W99390  37.897   1.385   0.414
35623W        W99391   8.254  14.807  11.419
35624W        W99392  44.814  27.953   3.860
35625W        W99393  25.488  18.089   4.817
35626W        W99394  33.892  28.561   0.783
35627W        W99395  27.120  27.500   1.739
35628W        W99396   6.736  42.511   4.192
35629W        W99397  22.576  32.049  11.105
35630W        W99398   1.802  11.304  12.846
35631W        W99399  28.654  44.761   2.261
35632W        W99400  22.694   8.855  13.035
35633W        W99401  24.174   6.426  11.109
35634W        W99402  16.806  10.172   2.854
35635W        W99403  29.978   1.968  11.476
35636W        W99404  36.512  43.960   4.206
35637W        W99405  10.214  35.051   3.800
35638W        W99406   0.768  32.038  11.566
35639W        W99407  19.748  19.157   2.670
35640W        W99408  20.654  39.819   3.741
35641W        W99409  20.748  29.643   1.242
35642W        W99410  23.209   9.869  11.402
35643W        W99411  10.314  12.638   4.648
35644W        W99412  44.477  39.522  11.988
35645W        W99413   5.809  17.148   4.683
35646W        W99414  25.706   2.421   1.806
35647W        W99415  20.607   4.922  11.456
35648W        W99416  40.314  16.075  13.402
35649W        W99417   2.242   3.717  14.897
35650W        W99418  34.000   3.373  13.053
35651W        W99419  31.049   5.777  10.908
35652W        W99420   0.901   8.251   0.800
35653W        W99421  14.146  13.177  13.336
35654W        W99422  20.111  32.433   1.717
35655W        W99423  13.266  35.392   3.645
35656W        W99424  26.112  44.370  12.044
35657W        W99425  34.003  34.599   3.726
35658W        W99426  43.975  40.514   4.324
35659W        W99427   1.317   6.405  13.983
35660W        W99428  37.527   3.810  11.110
35661W        W99429  21.208  11.711  13.840
35662W        W99430  17.637  12.813  11.502
35663W        W99431  22.100   8.261   1.396
35664W        W99432   0.279  26.095   2.267
35665W        W99433  28.571  13.295  11.046
35666W        W99434   3.370   5.279   3.299
35667W        W99435  44.322  17.258  12.031
35668W        W99436  38.429  21.738  12.917
35669W        W99437   8.814  14.163  13.482
35670W        W99438  24.985  20.583  10.531
35671W        W99439   0.755  29.587  10.497
35672W        W99440  44.796  13.761   2.208
35673W        W99441   6.770  37.011   2.412
35674W        W99442  29.969  34.055   4.763
35675W        W99443  18.761  28.982   0.792
35676W        W99444  13.741  34.578  13.344
35677W        W99445  41.797  26.646  10.114
35678W        W99446  40.368  23.178  13.542
35679W        W99447  24.541   3.223  11.983
35680W        W99448   3.933  24.497   1.812
35681W        W99449  37.526  11.757   2.215
35682W        W99450   1.384  30.479  14.417
35683W        W99451  43.400  10.692  14.500
35684W        W99452  28.646  26.599   4.723
35685W        W99453  33.110  36.574  12.391
35686W        W99454   4.234  20.607  14.278
35687W        W99455  20.083  21.728   3.168
35688W        W99456  10.207  24.189   5.166
35689W        W99457  39.387   8.300  11.910
35690W        W99458   2.753  42.812  12.017
35691W        W99459  23.111   4.227  13.923
35692W        W99460  21.046  35.952  10.058
35693W        W99461  23.581   9.289   2.774
35694W        W99462  29.628  43.823   1.279
35695W        W99463  11.293  17.699  11.569
35696W        W99464   9.313  30.497   4.664
35697W        W99465  25.996   6.919  12.995
35698W        W99466  34.966  15.290   0.400
35699W        W99467  42.397  13.706  14.971
35700W        W99468   9.746  38.931  12.826
35701W        W99469  35.930  26.126   3.324
35702W        W99470  27.971  16.702   3.194
35703W        W99471  34.520  29.562  14.922
35704W        W99472  16.752  35.899   0.747
35705W        W99473  38.547  14.229  14.918
35706W        W99474  44.459  35.538   1.929
35707W        W99475  12.281  16.684   0.901
35708W        W99476   1.304  33.577   1.244
35709W        W99477  42.510  27.630  11.015
35710W        W99478  17.798  19.283   2.207
35711W        W99479  13.202  21.020  10.998
35712W        W99480   5.235  36.052   3.202
35713W        W99481  18.623  42.455  13.046
35714W        W99482   2.337  28.079  14.987
35715W        W99483  16.283  34.083  11.952
35716W        W99484  24.638  12.680  13.057
35717W        W99485  19.105   5.377   0.766
35718W        W99486   1.409  21.560  13.964
35719W        W99487  27.537  44.803  13.890
35720W        W99488  36.514  32.956  12.026
35721W        W99489  30.465   2.851   3.326
35722W        W99490  39.432  42.788  13.968
35723W        W99491  12.844  33.599  10.991
35724W        W99492   8.340  18.112   0.366
35725W        W99493  26.513  33.943  12.860
35726W        W99494  13.708  34.867  12.054
35727W        W99495   7.341  10.178   2.682
35728W        W99496   7.859  10.199   2.760
35729W        W99497  11.710  25.596  10.948
35730W        W99498   9.361  12.288   0.319
35731W        W99499  11.669  25.087   1.715
35732W        W99500  26.985  31.472  10.897
35733W        W99501  14.197  22.202  11.445
35734W        W99502  30.489  17.657   3.637
35735W        W99503  24.613  31.898   0.958
35736W        W99504  43.410  13.155  13.394
35737W        W99505  29.111  18.146   0.916
35738W        W99506  17.787  24.996  13.795
35739W        W99507  14.272  43.463   0.441
35740W        W99508   6.315  35.096  14.798
35741W        W99509  23.503   5.875   4.345
35742W        W99510  44.362  33.080   2.761
35743W        W99511  16.083  43.974   3.202
35744W        W99512  23.094  12.290  12.852
35745W        W99513  27.029  28.646  12.086
35746W        W99514  21.242  24.502   3.324
35747W        W99515  44.427   7.384  14.507
35748W        W99516  19.070  12.853  11.004
35749W        W99517  11.368  16.266  14.765
35750W        W99518  25.086  15.223   3.771
35751W        W99519  36.454  14.692   2.397
35752W        W99520  19.109   5.233  11.128
35753W        W99521  30.620  39.395   2.367
35754W        W99522  19.679  26.076  10.592
35755W        W99523   7.717  17.220   0.944
35756W        W99524  19.090   5.375   3.844
35757W        W99525  13.794   7.368   2.886
35758W        W99526  42.916  33.471  12.849
35759W        W99527  18.157  36.350   4.329
35760W        W99528   9.201  43.503   4.343
35761W        W99529  12.168  28.033  10.537
35762W        W99530  34.999  10.849  13.047
35763W        W99531  28.142  12.267  12.958
35764W        W99532  26.027  28.517  14.438
35765W        W99533  32.474   7.191   0.953
35766W        W99534  35.520  27.521  11.462
35767W        W99535  15.245   3.413  14.289
35768W        W99536  25.049   2.769  12.932
35769W        W99537  13.268  34.908  13.464
35770W        W99538   3.403  39.371  13.842
35771W        W99539  28.496  37.496   2.387
35772W        W99540  27.050  13.830  14.341
35773W        W99541   6.264  32.580  11.083
35774W        W99542  38.560  11.152  10.587
35775W        W99543  24.612  17.300   2.682
35776W        W99544  23.704  22.222  12.836
35777W        W99545  37.975  31.040  12.565
35778W        W99546  29.063   4.216  11.446
35779W        W99547  30.436  42.031  14.327
35780W        W99548  21.086  22.056   2.684
35781W        W99549   6.746  34.505   3.664
35782W        W99550  40.990  41.879   4.346
35783W        W99551   0.846   9.388   2.830
35784W        W99552   4.244  36.094   9.447
35785W        W99553  42.013  37.054  11.490
35786W        W99554  37.898  10.877   2.749
35787W        W99555  37.402  11.248   1.348
35788W        W99556  39.425   4.234   4.709
35789W        W99557  15.142  21.151  13.849
35790W        W99558  17.584  25.657   2.843
35791W        W99559  29.593  12.296  14.363
35792W        W99560  25.025   3.284  14.866
35793W        W99561  35.583  27.042   1.741
35794W        W99562  36.987  28.619  12.448
35795W        W99563  33.078  29.960   0.839
35796W        W99564  23.129  35.085  13.825
35797W        W99565  27.107  27.156   3.171
35798W        W99566   0.814   6.743  14.286
35799W        W99567  31.048  39.391  12.002
35800W        W99568   8.405  19.157  10.535
35801W        W99569  30.546  15.101   1.304
35802W        W99570  44.277  39.399  12.931
35803W        W99571  17.087  35.035   1.336
35804W        W99572  33.455   2.230   3.678
35805W        W99573  39.343  11.348  10.580
35806W        W99574   3.929  29.562  13.014
35807W        W99575   4.907  41.906  14.796
35808W        W99576   1.249  23.669   0.868
35809W        W99577   2.349  30.435  11.607
35810W        W99578   2.786  32.015   4.151
35811W        W99579  31.104  37.570  10.957
35812W        W99580   6.417  24.109  13.448
35813W        W99581  38.012   6.767   3.308
35814W        W99582  34.061   7.784   4.712
35815W        W99583  13.305  33.487   1.767
35816W        W99584  27.499  31.975  13.355
35817W        W99585  30.007  10.202   1.738
35818W        W99586  27.457  17.780  12.347
35819W        W99587  29.642  15.133   0.431
35820W        W99588   7.378  16.257   1.271
35821W        W99589  20.067  38.368  11.407
35822W        W99590  15.726  22.660  14.276
35823W        W99591  40.041  42.954   2.355
35824W        W99592  37.037  28.042  11.859
35825W        W99593  20.646  35.557  11.026
35826W        W99594  40.996   6.401  14.793
35827W        W99595   4.719  34.423  13.489
35828W        W99596   3.281   6.857  10.902
35829W        W99597   6.295  22.237  13.821
35830W        W99598  24.190  34.505   1.451
35831W        W99599  22.518  13.743   0.872
35832W        W99600  27.003  11.238  10.043
35833W        W99601  31.647  30.098   0.777
35834W        W99602   6.227  16.743   0.900
35835W        W99603  22.235  37.983  14.801
35836W        W99604  30.621   3.846   2.241
35837W        W99605  18.555  37.522  10.580
35838W        W99606  43.863  12.693   4.295
35839W        W99607   1.295  41.378   2.334
35840W        W99608  36.022  33.388   4.753
35841W        W99609  33.603  16.222   1.900
35842W        W99610  32.021  32.634  10.522
35843W        W99611  34.556  33.970  14.879
35844W        W99612  21.166  30.151  12.080
35845W        W99613  25.963  23.515   1.435
35846W        W99614  20.658  28.575   4.268
35847W        W99615  11.633   5.757   1.904
35848W        W99616   3.930  39.881  12.864
35849W        W99617   4.449  24.174  14.306
35850W        W99618  26.030  36.516   5.297
35851W        W99619  32.397  37.490  14.974
35852W        W99620  10.194  28.437  12.035
35853W        W99621  38.395  44.383  12.450
35854W        W99622  21.158   2.952  12.575
35855W        W99623  38.552   2.456  12.893
35856W        W99624  15.269  30.508   4.127
35857W        W99625  43.279  42.312  10.594
35858W        W99626  13.837  26.517   4.598
35859W        W99627  23.534  36.866  12.947
35860W        W99628   2.737  30.960   0.763
35861W        W99629  11.634  36.084  10.429
35862W        W99630   2.785  42.403   2.754
35863W        W99631  13.715  30.154   2.205
35864W        W99632  16.681  12.256  14.351
35865W        W99633  38.492  26.634  14.491
35866W        W99634  26.536  22.548  10.969
35867W        W99635  36.458  32.112   0.878
35868W        W99636  15.118  44.824   3.334
35869W        W99637  43.341  36.039   3.674
35870W        W99638  37.842  11.755   3.225
35871W        W99639   5.904  10.370   0.314
35872W        W99640  39.881   3.382  12.572
35873W        W99641  12.633   7.343  10.988
35874W        W99642  42.519   6.400   0.368
35875W        W99643  21.087  19.055   2.736
35876W        W99644  33.913  22.016  11.510
35877W        W99645  25.032  12.761   0.402
35878W        W99646   1.839  32.446  13.398
35879W        W99647   0.781  25.488  11.388
35880W        W99648   3.230  13.791  13.369
35881W        W99649  24.047  27.185   4.776
35882W        W99650   8.396  28.521   2.257
35883W        W99651  44.450  27.149  13.522
35884W        W99652   5.745   1.352  10.960
35885W        W99653  24.649   9.820   2.371
35886W        W99654  18.677  14.177   0.849
35887W        W99655  19.757  28.978   4.236
35888W        W99656   1.969  38.032  11.502
35889W        W99657   0.250  41.402   0.401
35890W        W99658  14.721  12.323   5.286
35891W        W99659   5.878  14.152   2.863
35892W        W99660  31.991   3.294  12.393
35893W        W99661  10.796  37.391  13.849
35894W        W99662  12.714  18.066  13.507
35895W        W99663  40.008  12.828  14.423
35896W        W99664   9.665   1.742   2.855
35897W        W99665  20.052   4.349  12.425
35898W        W99666   7.406  10.707  13.323
35899W        W99667  16.194  21.696  14.439
35900W        W99668   1.347  10.331  12.509
35901W        W99669   4.354  33.036  11.092
35902W        W99670   2.930   0.304  12.393
35903W        W99671  14.759   1.356  10.934
35904W        W99672  43.858   9.357   1.795
35905W        W99673  14.119  42.372  12.045
35906W        W99674   6.312   2.236   1.419
35907W        W99675  25.519  20.751  11.063
35908W        W99676  26.560  26.996   3.288
35909W        W99677   4.370  30.507   4.154
35910W        W99678  17.152  26.490  13.393
35911W        W99679  31.120  19.779   5.302
35912W        W99680   6.829  24.199  12.387
35913W        W99681  13.712  13.257  12.846
35914W        W99682   2.837  23.621   3.661
35915W        W99683  36.528  16.648  11.942
35916W        W99684  42.492  40.876  13.055
35917W        W99685  27.512  38.820  12.961
35918W        W99686  31.916  19.132  13.381
35919W        W99687  25.505  42.338  11.425
35920W        W99688  11.722  27.593  14.820
35921W        W99689  18.166  11.289  11.938
35922W        W99690  34.946  11.160   9.947
35923W        W99691  35.869  44.325   3.314
35924W        W99692  43.844  42.913  13.472
35925W        W99693  29.967  43.883  13.498
35926W        W99694  11.817  13.324  11.395
35927W        W99695   8.233  33.625  10.490
35928W        W99696  10.834  29.536   2.770
35929W        W99697  41.829   2.396  14.308
35930W        W99698   4.825   9.815   0.321
35931W        W99699  37.950  37.051   3.663
35932W        W99700  18.257  24.513   2.728
35933W        W99701   6.240  17.727  10.077
35934W        W99702  30.413   6.374  14.930
35935W        W99703  14.213   6.277  14.759
35936W        W99704  16.673  13.719  14.963
35937W        W99705  41.403  44.288   3.635
35938W        W99706  11.199  33.559   0.284
35939W        W99707   6.827  26.634   3.754
35940W        W99708  44.788  19.048   2.377
35941W        W99709   5.827  28.982  10.525
35942W        W99710  41.507  28.139  12.947
35943W        W99711  16.097  35.874  11.876
35944W        W99712  34.072   4.820   2.320
35945W        W99713  11.711  13.330  12.398
35946W        W99714  23.103  41.801  11.465
35947W        W99715   7.877  28.587  13.363
35948W        W99716   6.423  24.506   2.841
35949W        W99717  13.340  30.635  12.951
35950W        W99718   0.884  19.695  11.402
35951W        W99719  30.553  18.140   0.792
35952W        W99720   7.841  20.205  11.473
35953W        W99721  12.213  20.118  10.978
35954W        W99722  42.865  27.679  10.496
35955W        W99723  18.158  16.641   5.128
35956W        W99724  39.877  25.058  12.971
35957W        W99725  41.536  28.057  12.381
35958W        W99726  31.413  43.350   1.449
35959W        W99727  20.757  37.921   2.829
35960W        W99728  10.735  24.660  12.476
35961W        W99729  18.160  20.535   3.840
35962W        W99730  18.092  19.645  14.013
35963W        W99731  19.775  34.465  13.485
35964W        W99732  29.589   4.798  10.958
35965W        W99733  27.467  23.161  12.885
35966W        W99734  21.055  43.948   5.292
35967W        W99735  40.811  15.119   2.843
35968W        W99736   8.847  10.855  10.939
35969W        W99737  12.617  38.983   0.947
35970W        W99738  38.940  43.470   2.357
35971W        W99739   2.333  35.457  13.806
35972W        W99740   4.892  12.253   3.267
35973W        W99741  25.666  29.541  13.908
35974W        W99742   3.845   7.886  12.907
35975W        W99743   5.423  12.655  14.437
35976W        W99744  13.286   4.761  11.866
35977W        W99745   6.796   0.816   1.891
35978W        W99746   1.251  12.683  13.907
35979W        W99747  38.994  28.503  11.610
35980W        W99748  18.790  12.229   3.680
35981W        W99749   3.799  17.632  11.896
35982W        W99750   4.729  43.368  14.350
35983W        W99751  31.019   7.348   9.993
35984W        W99752  14.247  20.134  12.925
35985W        W99753  43.275  44.853   0.318
35986W        W99754  26.544  37.542   2.853
35987W        W99755  33.599  34.892  11.021
35988W        W99756   0.346  17.206  13.361
35989W        W99757   0.423   2.442  10.924
35990W        W99758  43.825  32.097   1.351
35991W        W99759   9.750  29.060  11.383
35992W        W99760  23.061  31.503   1.751
35993W        W99761  31.634  39.867   3.158
35994W        W99762  44.859  27.093   1.882
35995W        W99763   1.945  42.847   2.347
35996W        W99764  33.563  41.009   2.718
35997W        W99765   7.745  37.366   2.375
35998W        W99766  31.146  29.951   4.818
35999W        W99767  12.686  41.506   4.706
36000W        W99768  21.084  41.994   3.211
36001W        W99769  43.795  36.532   3.186
36002W        W99770  24.188   2.913   4.714
36003W        W99771  27.091  10.846   2.743
36004W        W99772  10.738  31.544   3.309
36005W        W99773  30.641  44.467   0.397
36006W        W99774  38.053  19.743  13.887
36007W        W99775  13.660   8.891   0.902
36008W        W99776  42.520  20.548  11.488
36009W        W99777  20.628  25.102  14.471
36010W        W99778  27.469  41.496   3.161
36011W        W99779  26.555  34.094  11.517
36012W        W99780  17.151   3.816  14.839
36013W        W99781  13.799   6.923  11.510
36014W        W99782   3.369  16.740  12.910
36015W        W99783  40.996  41.398   1.879
36016W        W99784  16.641   6.728  10.473
36017W        W99785  30.046   5.817   0.830
36018W        W99786  34.030  30.513   0.262
36019W        W99787  30.426  12.201   0.748
36020W        W99788  38.990  25.150   3.374
36021W        W99789  26.531  30.477   3.226
36022W        W99790  44.403  37.353  12.476
36023W        W99791  14.681  21.164  11.904
36024W        W99792   6.403   8.806  13.445
36025W        W99793  25.549   0.434   2.888
36026W        W99794   4.792  43.995   3.300
36027W        W99795  21.707  22.663  12.958
36028W        W99796  17.768  11.260  14.921
36029W        W99797  23.559  17.249   1.885
36030W        W99798  38.886  28.503   2.403
36031W        W99799  43.933   5.301  12.905
36032W        W99800   7.296  25.619   4.281
36033W        W99801  33.576  15.150  11.894
36034W        W99802  31.520  25.588  11.120
36035W        W99803  14.722  22.648  10.509
36036W        W99804   3.866   2.966   0.942
36037W        W99805  23.186  31.433  14.795
36038W        W99806  10.830   5.786   3.368
36039W        W99807  19.183   5.808  12.005
36040W        W99808  28.081  10.685   2.866
36041W        W99809  31.465  32.575   2.700
36042W        W99810  28.970   2.901   3.843
36043W        W99811  27.120   5.199   3.734
36044W        W99812  26.199  32.626   0.348
36045W        W99813  16.604  40.377  11.470
36046W        W99814  28.108  11.243  13.918
36047W        W99815  12.639  41.364  14.976
36048W        W99816  37.581  21.609  13.919
36049W        W99817   5.822  18.651   2.240
36050W        W99818  40.863  21.526  13.028
36051W        W99819   9.384  26.695  13.358
36052W        W99820   3.777  35.042   4.738
36053W        W99821  23.612  23.636   4.171
36054W        W99822   2.395  27.032   1.871
36055W        W99823  39.828  25.114  11.428
36056W        W99824  19.147  29.083  13.371
36057W        W99825  44.940  40.488  14.839
36058W        W99826  16.186  36.391  14.448
36059W        W99827   3.330  11.816   3.182
36060W        W99828  22.714  22.618   0.393
36061W        W99829   9.231   3.304   0.407
36062W        W99830   0.453  28.572  13.426
36063W        W99831  23.054  27.954  12.942
36064W        W99832  40.802  34.997  13.965
36065W        W99833  24.066  26.695  12.543
36066W        W99834  33.015  40.326  12.531
36067W        W99835  25.051  22.236   0.326
36068W        W99836  15.273  22.240   4.676
36069W        W99837  15.124  40.033  13.490
36070W        W99838  22.565  42.478   3.177
36071W        W99839  36.048   1.307  14.903
36072W        W99840  28.078  28.993   2.302
36073W        W99841  20.104  16.272  12.548
36074W        W99842  41.496  25.176   0.461
36075W        W99843  11.316   1.821  12.383
36076W        W99844   6.891   3.770  11.943
36077W        W99845  40.043  20.176  13.455
36078W        W99846  37.830  43.938   4.116
36079W        W99847   4.736   8.667  13.851
36080W        W99848   3.361  23.514  10.966
36081W        W99849   8.342  40.410   0.364
36082W        W99850  27.050   9.835   2.352
36083W        W99851  12.353  13.332  10.517
36084W        W99852   3.283  39.522   1.775
36085W        W99853  22.078  44.977  12.560
36086W        W99854  33.095  28.658   1.291
36087W        W99855  39.420  39.018  11.544
36088W        W99856   0.443  23.192  10.554
36089W        W99857  26.978  38.544   3.845
36090W        W99858  33.087   0.969  12.065
36091W        W99859  21.627  43.798  12.066
36092W        W99860  23.603  35.083   3.747
36093W        W99861  22.678  21.706   0.400
36094W        W99862   2.351   5.254  13.500
36095W        W99863  24.032  24.039  10.031
36096W        W99864  24.133  19.251   1.384
36097W        W99865  25.526  30.142   4.159
36098W        W99866  30.615  39.551  12.951
36099W        W99867  35.003  30.636  10.507
36100W        W99868   3.717  15.172  13.384
36101W        W99869  39.420  16.109  11.580
36102W        W99870  44.360  16.624   2.699
36103W        W99871  13.273  24.125  11.478
36104W        W99872  24.642  19.736   0.373
36105W        W99873  28.622  37.381  12.999
36106W        W99874   1.843  39.430  12.935
36107W        W99875  28.948  24.665   2.800
36108W        W99876  31.489   0.775  13.931
36109W        W99877  23.650  16.753  11.535
36110W        W99878  19.587   2.960   2.303
36111W        W99879  36.040  17.235   0.770
36112W        W99880  13.240   8.194   2.373
36113W        W99881  16.651  39.318   0.288
36114W        W99882  32.601  12.263   1.243
36115W        W99883  25.560  17.224   3.658
36116W        W99884   5.352  39.385  10.635
36117W        W99885  36.993  32.413  12.359
36118W        W99886  11.201  20.129  12.385
36119W        W99887  22.015  16.708  10.411
36120W        W99888  15.751   7.199   1.392
36121W        W99889  23.689   8.677  11.508
36122W        W99890  24.000   4.283  13.515
36123W        W99891  11.676   0.894  11.463
36124W        W99892  37.017   6.772  12.452
36125W        W99893  20.260  26.594  11.508
36126W        W99894  11.636  26.086  11.048
36127W        W99895  39.993   3.821  14.957
36128W        W99896  34.398  16.612   9.990
36129W        W99897  16.723  41.948   1.300
36130W        W99898  25.990   1.878   0.385
36131W        W99899  21.743  14.178   1.291
36132W        W99900  17.094  11.207  10.437
36133W        W99901  19.257  16.261   9.443
36134W        W99902  34.558   3.865  13.876
36135W        W99903  32.527   5.798  10.891
36136W        W99904  23.104   5.906  13.394
36137W        W99905  43.788   2.790  11.439
36138W        W99906  18.769  16.090   1.921
36139W        W99907  13.643   1.237   0.884
36140W        W99908   2.307   4.444   0.961
36141W        W99909  24.572  27.647  10.570
36142W        W99910  44.911   2.856   1.291
36143W        W99911  13.716  26.084  12.943
36144W        W99912   6.265   7.675  11.522
36145W        W99913  34.072   9.789   4.251
36146W        W99914  36.090  28.543   3.276
36147W        W99915  34.530  24.136   3.769
36148W        W99916  28.077  29.615   2.788
36149W        W99917   4.277  40.334   1.730
36150W        W99918  43.328  21.029  14.324
36151W        W99919   4.383   3.935  14.874
36152W        W99920  30.590  16.756   0.947
36153W        W99921  15.299  12.698  12.389
36154W        W99922  27.465  13.726  10.607
36155W        W99923  33.393  38.549   1.899
36156W        W99924  21.035   3.420   4.683
36157W        W99925  33.500  36.585   2.881
36158W        W99926   8.845  38.377   3.264
36159W        W99927  30.909  26.518   4.321
36160W        W99928  26.191  17.748   2.848
36161W        W99929  32.400  39.911  14.340
36162W        W99930  24.161  18.762   1.881
36163W        W99931  43.322  33.482   0.350
36164W        W99932  42.990  41.007   1.429
36165W        W99933   4.430  38.523   3.224
36166W        W99934   8.760  10.262   5.194
36167W        W99935  34.418   5.379  11.967
36168W        W99936  19.260  30.599   0.939
36169W        W99937  19.146  40.441  14.419
36170W        W99938  16.137  31.902  12.057
36171W        W99939  23.726  21.110   4.153
36172W        W99940  20.039  27.170   4.156
36173W        W99941  38.549  10.353  14.510
36174W        W99942  32.896  38.402  11.900
36175W        W99943   9.775  18.616   2.372
36176W        W99944   6.748  36.379   2.301
36177W        W99945  15.310  32.993  11.453
36178W        W99946  29.939  10.776  14.284
36179W        W99947  22.208  24.561   2.363
36180W        W99948  10.376  14.226   0.948
36181W        W99949  19.632   7.900  13.454
36182W        W99950  40.997   5.699  14.868
36183W        W99951  39.397   0.421  14.331
36184W        W99952  20.766  44.782   0.317
36185W        W99953   3.340  43.892   0.387
36186W        W99954  20.646  23.208   2.306
36187W        W99955  29.955  36.437  11.895
36188W        W99956  15.745  28.592  12.491
36189W        W99957  40.540  19.208  14.977
36190W        W99958  11.367  27.454   0.419
36191W        W99959   6.749  42.964  11.428
36192W        W99960  14.661   9.220   1.920
36193W        W99961  37.952  32.039   4.206
36194W        W99962   5.838  12.171   4.257
36195W        W99963  39.349  25.181   0.803
36196W        W99964  16.274  20.255  12.879
36197W        W99965  21.628  32.095  11.513
36198W        W99966   1.902  36.863   3.742
36199W        W99967  18.626   0.813   1.849
36200W        W99968  19.678  22.594   4.212
36201W        W99969   9.661  28.574  10.941
36202W        W99970  41.419  34.934   2.682
36203W        W99971  15.319  32.890   1.725
36204W        W99972  27.132  30.560  13.927
36205W        W99973  24.007  37.937   1.856
36206W        W99974   8.692  26.567   3.803
36207W        W99975  33.425   8.175  14.399
36208W        W99976  16.649  10.312  12.047
36209W        W99977  31.996  31.955   1.743
36210W        W99978   8.794   6.774   0.843
36211W        W99979  16.726  33.549  14.937
36212W        W99980  30.525  30.561  13.906
36213W        W99981  22.502  17.249  11.093
36214W        W99982  16.703  18.617   5.729
36215W        W99983   3.357  39.944   0.313
36216W        W99984  20.113  12.801   1.270
36217W        W99985  15.634  23.200  14.908
36218W        W99986  30.047  14.118  14.978
36219W        W99987  26.478  12.653   0.726
36220W        W99988  38.333  14.700  14.990
36221W        W99989  41.359   6.281   3.360
36222W        W99990  23.127   3.428  13.349
36223W        W99991  24.162   4.248   0.477
36224W        W99992  23.241  28.639   2.376
36225W        W99993  22.725  30.151  10.995
36226W        W99994  19.187   4.842  13.494
36227W        W99995  44.977  14.717  12.351
36228W        W99996   8.294  29.441  14.425
36229W        W99997   5.748  30.075  12.410
36230W        W99998  21.653  41.829   4.350
36231W        W99999  40.317  38.915   1.801
36232W        W    0  38.947   3.760   2.318
36233W        W    1  13.280  32.512   1.248
36234W        W    2  23.202  35.038  11.953
36235W        W    3  23.145   1.797   2.804
36236W        W    4  38.921  24.579   4.284
36237W        W    5  33.381  24.599  13.485
36238W        W    6  10.762  38.433   3.344
36239W        W    7  18.168   5.254  14.028
36240W        W    8  34.595   6.368  12.537
36241W        W    9  36.889  17.622   2.897
36242W        W   10   9.731  22.056   3.146
36243W        W   11  17.177  10.239   2.859
36244W        W   12   8.361  25.600  14.011
36245W        W   13   1.735  31.050  12.071
36246W        W   14  19.667  19.136  12.063
36247W        W   15   1.451  29.478  12.936
36248W        W   16  24.547  38.464  12.563
36249W        W   17  38.520  15.748  11.542
36250W        W   18  16.199  26.528  14.027
36251W        W   19  43.004  25.002  11.054
36252W        W   20  32.068  43.007   1.431
36253W        W   21  20.054  40.810   3.157
36254W        W   22  40.524   3.808  13.347
36255W        W   23   9.189  26.580  13.035
36256W        W   24  28.455  40.976  13.399
36257W        W   25  30.163  21.122  11.857
36258W        W   26  20.556  35.557   1.885
36259W        W   27   1.297  17.070  12.977
36260W        W   28  43.863  36.864   2.251
36261W        W   29  14.222  32.940   2.287
36262W        W   30  37.427  21.199   4.300
36263W        W   31  17.251  35.975  13.977
36264W        W   32  20.599   7.197  10.591
36265W        W   33  39.939  25.964   3.747
36266W        W   34  36.442  11.626  11.534
36267W        W   35  41.493   8.206  13.905
36268W        W   36   9.338  15.685   2.285
36269W        W   37  13.176   2.277  13.404
36270W        W   38  17.664  21.753   0.803
36271W        W   39  14.339  10.218   0.279
36272W        W   40  34.369  13.191   4.669
36273W        W   41  15.679   4.901  12.014
36274W        W   42  29.081   0.764  13.919
36275W        W   43  12.233  35.876  14.919
36276W        W   44  18.255   9.333   1.313
36277W        W   45   7.744  24.188  12.868
36278W        W   46   4.711  15.778  13.317
36279W        W   47  17.224  18.295   2.357
36280W        W   48  41.443  22.202  14.321
36281W        W   49   2.421  15.744   1.358
36282W        W   50  17.603  34.558   4.601
36283W        W   51   2.960  18.292  12.920
36284W        W   52   9.222  23.504   1.437
36285W        W   53  39.375  13.147  10.559
36286W        W   54  10.176  30.490  13.508
36287W        W   55  12.642  41.384  11.578
36288W        W   56  21.612  32.446  14.416
36289W        W   57  40.461  39.347  13.049
36290W        W   58  31.128  33.876  12.371
36291W        W   59  24.673  26.594   0.247
36292W        W   60  34.411  17.294  13.929
36293W        W   61  22.087  36.014   1.426
36294W        W   62  41.434  30.941   3.716
36295W        W   63  30.645  41.924   0.344
36296W        W   64  21.757  30.957  10.525
36297W        W   65  14.226  36.905   2.765
36298W        W   66  42.001   1.742   2.780
36299W        W   67  27.474  14.132  12.484
36300W        W   68   8.818  10.314   0.348
36301W        W   69  21.581  41.493  12.908
36302W        W   70  20.759  21.067   3.280
36303W        W   71  20.570  12.683  14.279
36304W        W   72  29.573  19.564   9.932
36305W        W   73  17.153  19.244   5.601
36306W        W   74   2.891  15.141   1.281
36307W        W   75   1.358  34.934   1.219
36308W        W   76   9.661  42.384  14.513
36309W        W   77  25.485  39.531  10.644
36310W        W   78  15.311  20.137   4.228
36311W        W   79  27.612   8.804  14.851
36312W        W   80  24.694   1.921   4.657
36313W        W   81  33.019  30.057  14.336
36314W        W   82  18.293  36.430   4.780
36315W        W   83  17.273  37.466  11.966
36316W        W   84  31.535   2.800  12.040
36317W        W   85  34.550  18.136   2.800
36318W        W   86  17.198  27.954   4.686
36319W        W   87  43.488  13.222   2.758
36320W        W   88  33.496  25.976  13.504
36321W        W   89   8.334  23.090   4.284
36322W        W   90  23.130  22.186  10.513
36323W        W   91  39.849  41.903  10.942
36324W        W   92  28.523  17.794   0.770
36325W        W   93  28.103  36.561  11.019
36326W        W   94  33.450  43.898  10.452
36327W        W   95  31.103   0.267  10.053
36328W        W   96   4.243  17.783   2.299
36329W        W   97  42.032  34.611  11.994
36330W        W   98   9.682  33.988   1.421
36331W        W   99  19.206  42.945   0.829
36332W        W  100  31.920  18.688   4.770
36333W        W  101  12.704  16.234   4.652
36334W        W  102  14.171   7.334  12.538
36335W        W  103   6.803  41.930  12.512
36336W        W  104  21.610  42.987  14.501
36337W        W  105  40.548   7.669  12.915
36338W        W  106  35.904  44.997  11.979
36339W        W  107  12.645   8.857  10.605
36340W        W  108   3.949  29.590   1.283
36341W        W  109   1.742  36.979   3.217
36342W        W  110  26.675  28.437  12.394
36343W        W  111  33.927   0.920   4.748
36344W        W  112  27.451  16.082   2.814
36345W        W  113  20.197  31.147   2.226
36346W        W  114  39.836  17.076  11.501
36347W        W  115  10.190  35.582   1.328
36348W        W  116   4.819  15.165   2.878
36349W        W  117  43.335  30.443   0.356
36350W        W  118  27.655  25.680  13.812
36351W        W  119  13.338  43.356   3.183
36352W        W  120  27.013  43.901  11.451
36353W        W  121  17.780  26.038  11.922
36354W        W  122   3.783   9.761   1.432
36355W        W  123  19.231  34.057  14.009
36356W        W  124  35.584  12.833   3.745
36357W        W  125  33.107  37.424   0.818
36358W        W  126  29.481   7.297   3.251
36359W        W  127  23.128  13.247   5.230
36360W        W  128  35.948   1.805  14.827
36361W        W  129   4.359  14.645  10.935
36362W        W  130  21.191   3.292   1.220
36363W        W  131  24.620  11.669  12.561
36364W        W  132  41.899  33.552  10.038
36365W        W  133  26.138   5.251  13.928
36366W        W  134  29.640  30.010   4.127
36367W        W  135  33.977   1.779  14.503
36368W        W  136  42.337  41.534   3.279
36369W        W  137   3.406  29.452   3.774
36370W        W  138  34.892  20.532   4.316
36371W        W  139  15.732  25.102  13.018
36372W        W  140  36.908  24.133   4.354
36373W        W  141  37.474  27.050  14.418
36374W        W  142  29.555  27.460  11.107
36375W        W  143  35.391  40.336  12.060
36376W        W  144  20.694   4.828  14.971
36377W        W  145  35.953   6.853   4.121
36378W        W  146  39.000  36.567  10.981
36379W        W  147  19.163  31.966  13.383
36380W        W  148  19.150  37.998  10.986
36381W        W  149  26.618  43.787   2.293
36382W        W  150  38.060   4.819  14.375
36383W        W  151  44.842  11.309   2.273
36384W        W  152  43.929  43.981   4.642
36385W        W  153  24.582  15.321  12.411
36386W        W  154  33.432  22.056  14.307
36387W        W  155   0.901   7.400  12.006
36388W        W  156  34.551  15.784   1.892
36389W        W  157  29.151  15.823   0.484
36390W        W  158  12.141   6.416  14.779
36391W        W  159  14.632  15.149  12.856
36392W        W  160   7.821  29.979   2.270
36393W        W  161  37.862  21.710  11.514
36394W        W  162  41.422  16.629  11.426
36395W        W  163   3.727   7.256  14.931
36396W        W  164  28.136  42.449  13.533
36397W        W  165  30.973  13.151   3.741
36398W        W  166   6.404  11.344   1.882
36399W        W  167  33.509  28.594  11.110
36400W        W  168  22.995  40.047  11.576
36401W        W  169  14.824  34.514  12.055
36402W        W  170  26.195  21.534  10.403
36403W        W  171  40.448  31.496  10.068
36404W        W  172  11.251  33.876  14.766
36405W        W  173   2.955   9.707   3.831
36406W        W  174  30.653  34.447  10.944
36407W        W  175  44.377  33.093   3.637
36408W        W  176  33.515  44.332   0.455
36409W        W  177  14.245  21.199  11.903
36410W        W  178  24.993  32.058  12.556
36411W        W  179  36.009   3.373  13.371
36412W        W  180   0.465  29.148  14.967
36413W        W  181  11.203  39.949  14.012
36414W        W  182   0.773  10.751   2.757
36415W        W  183  17.089   9.261  11.390
36416W        W  184   2.353  36.898   3.782
36417W        W  185   4.765  12.202  14.943
36418W        W  186  23.990  16.650  13.988
36419W        W  187  44.455  28.956   2.299
36420W        W  188   4.930  11.766   4.155
36421W        W  189  36.996   4.914   1.858
36422W        W  190  24.689  44.479   0.929
36423W        W  191  14.707  18.720  12.860
36424W        W  192  27.143  21.113   4.750
36425W        W  193  10.759   7.262  10.477
36426W        W  194  44.442   1.431  14.787
36427W        W  195  11.254   1.807   3.287
36428W        W  196  34.013  11.272   0.755
36429W        W  197  41.481   9.326   1.877
36430W        W  198  41.415  10.303   4.623
36431W        W  199  28.108  11.854   2.746
36432W        W  200  13.624   5.776  14.829
36433W        W  201   4.806   8.667  12.560
36434W        W  202   3.237  30.054   4.114
36435W        W  203  34.551  34.595  12.475
36436W        W  204   9.372  10.692  14.874
36437W        W  205  38.891  22.712   1.239
36438W        W  206  29.653  10.682  12.393
36439W        W  207  36.052  35.864  13.411
36440W        W  208  43.331  15.180  10.535
36441W        W  209  10.697   9.725   2.189
36442W        W  210   3.724  23.071  11.945
36443W        W  211  44.260  26.495  13.976
36444W        W  212  35.079  20.232   4.113
36445W        W  213  14.266  39.552   2.892
36446W        W  214  39.809  16.765   2.826
36447W        W  215   1.368  33.395  14.279
36448W        W  216  44.763  27.990   0.266
36449W        W  217  33.986   6.372  13.987
36450W        W  218  14.326  14.315  13.864
36451W        W  219  13.198  18.121  11.383
36452W        W  220  42.933  14.127   3.871
36453W        W  221   2.761  16.688  13.324
36454W        W  222   5.912  18.587  10.557
36455W        W  223  23.184  29.023  12.541
36456W        W  224   0.411  35.521  11.482
36457W        W  225  30.442   6.258  12.467
36458W        W  226  13.790   4.937   0.776
36459W        W  227  33.033   8.367   0.805
36460W        W  228  17.719  34.604  13.916
36461W        W  229  20.218   9.887   1.322
36462W        W  230  39.054  24.694   4.637
36463W        W  231  27.493  37.857  10.505
36464W        W  232  36.578  38.431  11.479
36465W        W  233  10.770  27.135  12.892
36466W        W  234   9.812   1.331  13.837
36467W        W  235  36.562  34.090   3.224
36468W        W  236   1.794  34.517   5.121
36469W        W  237   2.411  11.813  13.955
36470W        W  238   2.888  16.663   1.753
36471W        W  239   5.395  13.267   1.366
36472W        W  240  25.151  39.921  11.865
36473W        W  241  35.015  21.117  10.510
36474W        W  242  15.760   0.343   2.819
36475W        W  243  21.120  33.454  13.517
36476W        W  244  15.151   8.877   1.703
36477W        W  245  24.636   8.710   1.249
36478W        W  246  18.561  22.674  11.033
36479W        W  247  40.347  38.900   3.636
36480W        W  248   5.716  16.299   4.761
36481W        W  249  20.623   9.774  10.926
36482W        W  250  10.147   6.276  14.018
36483W        W  251   2.877   4.220   2.887
36484W        W  252  43.005  34.972  12.520
36485W        W  253  36.847  44.763  14.876
36486W        W  254   1.825  15.667  14.929
36487W        W  255   4.387  44.886   0.443
36488W        W  256  28.461  40.018  14.510
36489W        W  257  36.387  22.722   0.283
36490W        W  258  37.076  33.502  12.048
36491W        W  259  21.655   1.417  13.441
36492W        W  260  15.659  27.024   4.164
36493W        W  261  40.326  26.022  13.472
36494W        W  262  29.940  22.545   3.182
36495W        W  263   8.331   7.874  10.416
36496W        W  264  28.959  34.868  12.379
36497W        W  265  34.919  19.152   4.201
36498W        W  266  43.857  37.566   2.222
36499W        W  267  17.115  28.950   9.968
36500W        W  268   7.799  20.270   4.165
36501W        W  269  17.771  39.523   2.794
36502W        W  270  42.298  43.864  13.472
36503W        W  271  10.879  33.511  12.356
36504W        W  272  43.284   3.289   2.897
36505W        W  273  43.496  42.306   1.437
36506W        W  274  12.128  17.657   1.759
36507W        W  275  32.608  40.049  13.483
36508W        W  276   9.197  20.226   3.646
36509W        W  277   3.930  26.535   4.165
36510W        W  278   4.395   0.315   2.281
36511W        W  279  39.357  13.614   2.673
36512W        W  280  22.640  34.974   0.300
36513W        W  281   5.376  11.664  10.148
36514W        W  282   1.361   7.847   0.280
36515W        W  283  20.593   0.804   4.145
36516W        W  284  33.620  19.176   1.274
36517W        W  285  32.047  18.580  11.944
36518W        W  286  11.303  18.553  13.391
36519W        W  287  20.147  31.120  12.989
36520W        W  288  42.828   8.673  14.393
36521W        W  289  32.605  31.590   2.853
36522W        W  290  31.403   6.399   3.268
36523W        W  291  19.116  20.572   4.783
36524W        W  292  31.067  42.379  11.127
36525W        W  293  42.021  17.206  13.917
36526W        W  294  29.457  23.623  11.380
36527W        W  295  17.180  22.045   1.855
36528W        W  296  20.708  21.754   2.239
36529W        W  297   0.956  16.237  13.863
36530W        W  298  32.998  20.727   3.262
36531W        W  299  31.605   1.430   4.182
36532W        W  300  17.148  25.656   4.827
36533W        W  301  17.608   6.918  13.517
36534W        W  302  30.531  37.861  12.549
36535W        W  303  34.954  18.293  12.909
36536W        W  304   5.879  16.143   0.286
36537W        W  305  42.328  14.199  11.521
36538W        W  306   7.759  40.436  13.834
36539W        W  307  43.945  26.489   4.269
36540W        W  308  25.158  37.931   5.283
36541W        W  309  35.906  30.644   3.221
36542W        W  310  19.645  11.634   5.243
36543W        W  311  20.228  29.983  13.028
36544W        W  312  37.874  35.919  12.579
36545W        W  313  25.709   3.938  12.578
36546W        W  314  34.985  16.729   5.731
36547W        W  315  39.911  35.520  14.827
36548W        W  316   4.295  24.220   3.729
36549W        W  317  42.446  18.115  13.320
36550W        W  318  44.470  10.846   4.243
36551W        W  319  42.285  22.108  12.036
36552W        W  320  19.768   8.718  14.880
36553W        W  321   1.415   2.437  13.468
36554W        W  322  11.859  14.289  13.412
36555W        W  323  24.991  26.186  14.822
36556W        W  324  25.552  38.411   0.358
36557W        W  325  36.491  40.809  13.993
36558W        W  326   5.437  16.285  12.396
36559W        W  327   9.763  40.308  14.421
36560W        W  328  27.615  30.520  11.043
36561W        W  329  38.446  12.335  10.590
36562W        W  330  24.216   5.251  14.981
36563W        W  331  43.845  37.463  10.541
36564W        W  332  30.013  42.870  11.387
36565W        W  333  40.378   3.936   0.410
36566W        W  334  10.746  27.448   3.659
36567W        W  335  23.579  38.381  14.297
36568W        W  336  17.263  31.090   2.214
36569W        W  337   3.387  21.639  14.011
36570W        W  338  32.106  35.967  12.020
36571W        W  339   8.710  13.615  11.497
36572W        W  340   3.239  27.514   0.846
36573W        W  341   6.679   9.385  14.421
36574W        W  342   7.778   1.821  14.795
36575W        W  343  38.928  14.611   4.790
36576W        W  344   1.959  41.363   3.316
36577W        W  345  28.447   1.359   3.697
36578W        W  346   6.239  14.194   2.404
36579W        W  347  31.525  35.930  13.421
36580W        W  348  43.972  43.809   3.748
36581W        W  349   1.957  43.951  13.820
36582W        W  350  42.995  33.515   3.850
36583W        W  351  13.713   8.231   2.367
36584W        W  352   8.724  25.128   3.794
36585W        W  353  10.710  18.631   2.726
36586W        W  354  28.506  40.365  14.460
36587W        W  355  20.669  28.448   2.254
36588W        W  356  33.513   9.814  14.981
36589W        W  357  34.052  10.259   2.857
36590W        W  358  32.622  13.822   1.225
36591W        W  359  17.290  15.097  14.487
36592W        W  360  41.001  41.457  10.474
36593W        W  361   7.901  38.366  12.885
36594W        W  362   2.270  41.916   1.433
36595W        W  363  10.361   1.977   4.173
36596W        W  364  12.853  27.466   0.881
36597W        W  365  14.303  10.141   3.683
36598W        W  366  43.298   5.845  11.866
36599W        W  367  10.313  44.426   2.200
36600W        W  368  41.815  16.202   1.439
36601W        W  369  44.260  35.579  12.027
36602W        W  370  29.601   5.924   2.880
36603W        W  371  32.594   6.691  14.030
36604W        W  372  26.012  36.396   4.827
36605W        W  373   5.724  35.572   1.258
36606W        W  374  24.686   9.730  11.904
36607W        W  375  27.060   0.853   4.288
36608W        W  376  14.183  26.664  13.046
36609W        W  377   3.324   0.917   0.805
36610W        W  378  17.702   3.258  12.996
36611W        W  379  10.795   8.173   2.347
36612W        W  380   2.288  15.086  11.501
36613W        W  381  30.002  14.600  11.955
36614W        W  382  15.818  22.553   4.340
36615W        W  383  44.783  28.169  11.889
36616W        W  384  38.439  28.989  11.006
36617W        W  385  10.310  28.971   2.662
36618W        W  386   4.252  43.320   3.811
36619W        W  387  29.145  24.188  11.856
36620W        W  388  32.441  44.499  10.626
36621W        W  389   0.249  40.802   0.341
36622W        W  390  38.914  13.165   0.828
36623W        W  391  13.326  22.590   2.294
36624W        W  392   6.318  40.010   2.695
36625W        W  393  18.631   0.961   4.277
36626W        W  394  21.563  37.528  10.154
36627W        W  395  31.444  39.324   4.285
36628W        W  396  18.625  43.916  12.363
36629W        W  397  27.640  39.869  12.386
36630W        W  398  20.270   2.387  12.978
36631W        W  399  43.330  14.600  13.517
36632W        W  400  23.601  12.327   3.785
36633W        W  401  37.939   3.442   0.956
36634W        W  402  42.862  16.092   3.700
36635W        W  403  12.666  35.510   4.827
36636W        W  404  12.324  33.999  10.483
36637W        W  405  10.186  17.156  13.847
36638W        W  406   8.734  31.614   2.853
36639W        W  407  41.478   3.949   0.922
36640W        W  408  41.510  41.038   1.388
36641W        W  409  24.546  11.817   2.233
36642W        W  410  34.439  15.798   2.747
36643W        W  411  20.597  10.367  14.300
36644W        W  412  37.885  28.548  10.548
36645W        W  413   2.311  27.066  12.370
36646W        W  414  35.093  30.624  12.572
36647W        W  415  40.861   3.328   1.928
36648W        W  416  41.967  41.944   2.352
36649W        W  417  13.781   7.763  13.405
36650W        W  418  39.981  41.365  14.339
36651W        W  419  38.396  37.461   1.262
36652W        W  420  24.084  18.294  13.917
36653W        W  421  31.438  40.818   3.330
36654W        W  422  28.112   1.312   1.243
36655W        W  423  31.146   1.794   2.350
36656W        W  424  16.567   5.766  13.436
36657W        W  425  35.068  31.116  13.989
36658W        W  426  23.721  21.253   1.219
36659W        W  427  16.772  26.134   5.255
36660W        W  428   0.923   0.953  14.793
36661W        W  429   0.348   6.826  14.973
36662W        W  430   4.387  10.191   2.866
36663W        W  431  30.954  18.289   1.384
36664W        W  432   0.795  44.966   2.767
36665W        W  433  42.476   7.381  10.597
36666W        W  434  28.659  20.183  10.975
36667W        W  435  37.921   1.832  13.924
36668W        W  436   4.716   5.838   2.185
36669W        W  437   7.816  14.792   4.768
36670W        W  438  14.293  25.555  10.920
36671W        W  439  29.115  29.014   0.952
36672W        W  440  33.071  21.549  14.848
36673W        W  441  39.888  13.204  14.025
36674W        W  442  28.458   3.302   4.173
36675W        W  443   1.876  42.971   5.232
36676W        W  444  32.469  30.487  14.953
36677W        W  445  40.522  25.120   4.769
36678W        W  446  13.168  27.683  14.862
36679W        W  447  33.513  44.876  14.425
36680W        W  448  25.004  30.442   2.287
36681W        W  449  41.861  38.424   0.250
36682W        W  450  34.508  34.463   3.739
36683W        W  451  37.064  11.347  11.573
36684W        W  452  28.603   2.806  14.413
36685W        W  453  11.156  12.329   3.155
36686W        W  454  42.961  24.607   4.598
36687W        W  455  36.559  32.000  12.570
36688W        W  456  22.679  25.658  11.605
36689W        W  457  17.197  40.347  11.964
36690W        W  458  32.896  29.162  13.008
36691W        W  459  18.705  10.677   2.363
36692W        W  460  34.547  38.424   0.346
36693W        W  461  32.438  14.297  14.480
36694W        W  462  36.413   2.790  14.013
36695W        W  463   2.794  43.313   1.766
36696W        W  464  30.519  35.997  11.041
36697W        W  465  21.189  27.604   4.788
36698W        W  466  18.611  18.172   3.375
36699W        W  467  18.666  16.224   0.899
36700W        W  468  10.284  14.232   5.162
36701W        W  469  32.502  13.774   4.620
36702W        W  470  15.659  16.717   1.873
36703W        W  471  32.581  24.218   3.801
36704W        W  472   6.779   2.244   0.424
36705W        W  473  20.147  20.206  12.982
36706W        W  474  32.072   2.735   0.810
36707W        W  475  17.713   8.793   1.758
36708W        W  476   5.260  38.390   2.198
36709W        W  477  35.423  42.355   1.895
36710W        W  478  41.935   8.677   5.156
36711W        W  479  28.995   5.922  12.509
36712W        W  480  34.059  22.039   0.476
36713W        W  481  42.016   9.162   4.829
36714W        W  482  12.679   5.423  14.901
36715W        W  483   6.305  32.604   0.756
36716W        W  484  40.433  41.870   4.305
36717W        W  485  28.170  33.594   1.707
36718W        W  486  43.849  23.044   4.672
36719W        W  487  37.048   5.252   0.393
36720W        W  488  23.581  42.949  12.511
36721W        W  489  35.465  39.370   1.429
36722W        W  490   8.882  15.323  12.340
36723W        W  491  32.535  14.128  11.024
36724W        W  492   7.806  22.654   2.283
36725W        W  493  12.611  42.298   2.665
36726W        W  494  24.977   5.306  11.970
36727W        W  495  36.995  43.444   4.192
36728W        W  496  15.323  25.501   3.797
36729W        W  497   7.797  34.378  10.538
36730W        W  498  44.266  36.522   2.273
36731W        W  499   7.175   5.322  11.987
36732W        W  500  16.679  36.374  10.489
36733W        W  501   9.814  14.339   4.699
36734W        W  502  43.497  35.028  12.948
36735W        W  503  42.367  40.949   0.863
36736W        W  504  11.840  33.625   1.222
36737W        W  505  42.352  18.259   1.909
36738W        W  506  44.497   1.424   4.758
36739W        W  507  16.616  16.639   4.606
36740W        W  508   6.677  17.795  13.455
36741W        W  509  10.254  20.642  11.488
36742W        W  510  42.838  12.359  11.589
36743W        W  511  43.918  27.547  14.285
36744W        W  512  32.588  23.714  13.415
36745W        W  513   1.248  21.213   1.245
36746W        W  514  29.510   0.487  12.089
36747W        W  515   9.373   0.879   2.842
36748W        W  516  28.043  35.854  11.458
36749W        W  517   6.683  41.402   2.336
36750W        W  518  44.468   8.848  13.857
36751W        W  519  26.194   2.815   1.733
36752W        W  520  36.583  30.937  12.515
36753W        W  521  27.973  18.668   5.265
36754W        W  522   0.323   7.397  11.923
36755W        W  523   3.865  40.346   4.669
36756W        W  524  44.505  17.679   1.756
36757W        W  525  43.008  33.019  14.933
36758W        W  526  17.727  13.338   2.672
36759W        W  527  43.014   7.189   9.991
36760W        W  528  13.115   0.829   1.821
36761W        W  529  33.536  17.576   4.207
36762W        W  530  37.568   9.344   3.346
36763W        W  531  20.121  38.532   1.231
36764W        W  532  15.629  32.026  13.987
36765W        W  533  13.617  36.413  12.365
36766W        W  534  14.201  33.542   4.199
36767W        W  535  10.315   9.702  11.889
36768W        W  536   5.805  31.049   3.688
36769W        W  537  38.380  43.979  12.912
36770W        W  538  33.544  19.640   2.245
36771W        W  539  27.170   2.262   4.707
36772W        W  540   5.388   6.727   2.679
36773W        W  541  41.353  43.766   3.676
36774W        W  542  27.584   6.715  12.084
36775W        W  543  37.954  27.093   3.734
36776W        W  544  38.570  10.853  14.434
36777W        W  545   1.834  36.583   1.922
36778W        W  546  30.451   3.910   0.953
36779W        W  547  16.302  25.007   0.902
36780W        W  548  30.921  21.593   1.428
36781W        W  549   0.830   3.362   0.344
36782W        W  550  19.687  42.895  10.635
36783W        W  551   1.330  22.225  11.403
36784W        W  552  23.706  38.484   4.616
36785W        W  553   3.787  37.017  14.340
36786W        W  554   9.819  24.495  14.881
36787W        W  555  34.478  44.330  13.811
36788W        W  556  26.481  30.521  10.582
36789W        W  557  28.036  35.894   4.222
36790W        W  558  20.154  12.735   0.246
36791W        W  559  19.648  19.579  13.419
36792W        W  560  33.105   5.928  10.406
36793W        W  561  40.357   3.712  11.558
36794W        W  562  25.661  25.194  13.406
36795W        W  563   4.416  42.867  13.359
36796W        W  564  16.189  32.910  12.996
36797W        W  565  12.715   4.349  12.368
36798W        W  566  28.019   4.758  11.917
36799W        W  567  27.179  30.969  11.495
36800W        W  568  17.279  16.167   0.331
36801W        W  569  32.027  23.669  12.483
36802W        W  570  33.965  25.523   4.712
36803W        W  571  21.515  38.488   0.481
36804W        W  572  26.150  36.527  14.784
36805W        W  573  11.304  20.166   0.437
36806W        W  574   2.341  20.604  13.485
36807W        W  575  38.391  39.005   3.283
36808W        W  576   3.427  25.700   0.390
36809W        W  577  22.084  29.527   1.824
36810W        W  578  20.670  26.469  11.568
36811W        W  579   6.416   8.865   1.716
36812W        W  580  19.179  16.739   4.125
36813W        W  581   3.333   8.304   3.362
36814W        W  582  33.085  39.503  12.572
36815W        W  583  43.931  18.236  13.009
36816W        W  584  22.712  42.010  10.081
36817W        W  585  16.804  42.487  12.505
36818W        W  586  43.921  22.590  10.616
36819W        W  587  29.087  39.365  11.381
36820W        W  588  11.326  40.921  14.422
36821W        W  589   5.349  30.571   0.914
36822W        W  590  20.654  37.040  13.855
36823W        W  591   8.792  17.760  12.419
36824W        W  592   4.901  13.298   1.353
36825W        W  593  42.866  26.538  11.123
36826W        W  594   3.836  38.940  11.469
36827W        W  595   2.818   8.388  11.594
36828W        W  596  15.117  14.168   0.259
36829W        W  597   5.349  35.507  12.877
36830W        W  598  44.765  18.709   0.301
36831W        W  599  26.488  29.663   0.765
36832W        W  600   4.882  25.661  14.878
36833W        W  601  15.174  23.622   5.221
36834W        W  602  44.387  28.638   3.336
36835W        W  603   9.836  18.093   1.776
36836W        W  604  41.974  23.625   3.718
36837W        W  605  34.463   4.791   0.419
36838W        W  606  24.532   9.813  13.896
36839W        W  607  35.016   1.952   9.935
36840W        W  608   8.248  44.270   3.713
36841W        W  609   8.247  39.928  12.403
36842W        W  610  37.564  19.147   4.314
36843W        W  611  35.571  12.813  14.331
36844W        W  612  41.403  34.380  10.574
36845W        W  613  43.915  26.703  12.393
36846W        W  614  38.968  17.151  14.820
36847W        W  615  32.435  19.278   5.200
36848W        W  616  43.311  44.382  12.493
36849W        W  617   2.308  10.249  12.896
36850W        W  618   2.427  39.491   3.758
36851W        W  619  21.072  22.049   1.334
36852W        W  620  32.524   2.824  11.566
36853W        W  621   9.761   6.810   4.252
36854W        W  622  10.335  28.607   4.618
36855W        W  623  38.921   5.889   1.806
36856W        W  624  19.639  29.613   1.422
36857W        W  625  31.913   7.373   0.372
36858W        W  626  30.070  28.530  11.082
36859W        W  627  17.628  16.621  13.315
36860W        W  628  40.325  16.704   2.759
36861W        W  629   8.327  35.438  11.543
36862W        W  630  21.157  16.590   0.321
36863W        W  631   8.804  15.616  11.532
36864W        W  632  34.555  18.271   3.858
36865W        W  633  19.720  44.388   4.197
36866W        W  634   1.415  36.014   1.416
36867W        W  635  22.714  40.472  14.503
36868W        W  636  44.761  35.073   3.650
36869W        W  637   8.224  24.126   4.215
36870W        W  638  33.875  17.185  14.292
36871W        W  639   8.778  26.157  14.501
36872W        W  640  40.351  29.049   1.935
36873W        W  641  15.243  32.518  12.847
36874W        W  642  38.342  23.729   2.192
36875W        W  643  18.594  25.522   5.289
36876W        W  644  37.533  41.412  10.081
36877W        W  645  20.047  41.531   5.255
36878W        W  646  41.025  21.182   3.320
36879W        W  647  16.155  14.611  12.986
36880W        W  648  39.482  32.100   3.761
36881W        W  649   5.320  16.682   1.379
36882W        W  650  21.613  44.492   1.815
36883W        W  651   1.878   6.848  11.878
36884W        W  652  16.568  28.553  12.021
36885W        W  653  10.808  14.149   2.748
36886W        W  654  39.471  20.719  14.281
36887W        W  655  21.528  44.304  14.889
36888W        W  656  43.292   4.857  13.913
36889W        W  657  30.509   2.960   0.946
36890W        W  658  19.066   1.810   0.730
36891W        W  659  32.913  10.242   4.782
36892W        W  660  42.923   0.455  11.858
36893W        W  661  28.122  26.094   3.821
36894W        W  662  18.168  14.627  11.403
36895W        W  663  20.112   1.380  14.790
36896W        W  664   0.796   1.411  10.488
36897W        W  665   6.895  20.677   4.602
36898W        W  666  10.764  38.835  10.632
36899W        W  667  25.582  18.135   1.240
36900W        W  668  18.568  29.443  13.495
36901W        W  669   0.307  21.059  13.487
36902W        W  670   8.800  38.020  13.907
36903W        W  671  33.092  37.399  13.811
36904W        W  672  28.127   6.226   0.882
36905W        W  673  41.472   8.314  14.809
36906W        W  674  32.929  13.680  14.488
36907W        W  675  28.974  20.267  13.940
36908W        W  676  21.542  18.219  12.472
36909W        W  677  15.085   4.259  12.002
36910W        W  678  40.007  42.352   4.685
36911W        W  679   3.218  19.584  14.989
36912W        W  680  17.711   8.712   3.227
36913W        W  681   7.413  11.672   4.801
36914W        W  682   9.742   0.940  10.417
36915W        W  683  31.037  27.075  12.940
36916W        W  684  42.856  22.731  12.927
36917W        W  685  25.164  22.656  10.439
36918W        W  686  30.644  41.023   0.924
36919W        W  687  27.607  39.328  11.569
36920W        W  688  22.539  19.740   4.682
36921W        W  689  25.974  36.046   2.334
36922W        W  690  20.220  31.528   1.367
36923W        W  691  33.970   6.206  14.296
36924W        W  692  17.231  27.584   4.175
36925W        W  693  43.983  22.059  13.363
36926W        W  694  17.619  37.950   1.803
36927W        W  695  21.129  15.111  11.991
36928W        W  696  44.785  39.942  10.999
36929W        W  697  39.875  10.150   1.740
36930W        W  698   1.366   7.184  11.428
36931W        W  699  15.709  17.721   2.263
36932W        W  700  28.945  34.398  12.365
36933W        W  701  11.360   3.374  14.926
36934W        W  702  17.095  23.051   9.494
36935W        W  703   2.306  19.248  11.980
36936W        W  704  29.466  18.573  10.480
36937W        W  705  24.494   0.431  13.365
36938W        W  706  34.530  35.433  12.074
36939W        W  707  33.035   5.209  10.590
36940W        W  708   1.238  11.663  12.478
36941W        W  709  35.048   5.347   1.413
36942W        W  710  40.911  10.684   3.343
36943W        W  711  25.489   6.756  10.517
36944W        W  712  25.050  44.905  12.014
36945W        W  713  34.895   0.859   0.349
36946W        W  714  20.621  39.334   2.785
36947W        W  715  41.431  30.115   2.291
36948W        W  716  41.798  18.575   2.699
36949W        W  717  13.642  30.107   2.804
36950W        W  718   3.856  18.553   2.291
36951W        W  719   3.289  20.629  10.997
36952W        W  720  32.562   1.866   0.294
36953W        W  721  41.979  31.461   2.816
36954W        W  722  33.558  21.041   4.661
36955W        W  723   9.860   6.787  10.421
36956W        W  724  23.104  39.027  11.377
36957W        W  725  19.652   7.889   3.789
36958W        W  726  18.560  31.058  10.500
36959W        W  727  15.789  14.834   2.337
36960W        W  728  26.185   8.840   1.885
36961W        W  729  14.684  10.728   1.346
36962W        W  730  43.296  20.658  10.411
36963W        W  731  27.197  16.144   3.725
36964W        W  732  10.323  18.283   1.229
36965W        W  733  30.637   9.180  11.046
36966W        W  734  36.957   2.459  11.119
36967W        W  735  40.870   2.438  14.933
36968W        W  736  23.085   0.984   3.761
36969W        W  737  14.629   8.747   2.831
36970W        W  738  25.634  19.556   4.823
36971W        W  739   0.456  30.483   4.753
36972W        W  740  29.125  33.442  14.500
36973W        W  741  38.444  20.065  12.934
36974W        W  742  35.072  44.837  10.424
36975W        W  743   9.154  20.147   4.700
36976W        W  744  19.176  23.152  10.541
36977W        W  745  13.339   5.772   4.821
36978W        W  746  41.839   3.922  10.466
36979W        W  747  26.088  40.939  13.013
36980W        W  748  20.747   1.760   3.260
36981W        W  749  32.127  41.907   4.658
36982W        W  750   7.208  19.266   4.631
36983W        W  751  31.552  30.519   3.816
36984W        W  752  41.315  31.598   3.800
36985W        W  753  29.084   4.751  14.392
36986W        W  754   1.871  30.978   4.169
36987W        W  755   7.218   3.227   3.756
36988W        W  756  15.255  22.549   3.734
36989W        W  757   0.913  23.212  10.613
36990W        W  758  42.356  22.048  12.511
36991W        W  759  20.102  18.109  14.809
36992W        W  760   9.882  40.925   3.149
36993W        W  761   3.411  27.587   3.785
36994W        W  762  20.219  31.052  11.112
36995W        W  763  23.145   1.387  14.845
36996W        W  764   0.811  36.895  12.966
36997W        W  765  32.613  41.518   3.668
36998W        W  766  13.318   8.661  11.990
36999W        W  767  32.474  22.199   0.413
37000W        W  768  30.957  36.428  13.340
37001W        W  769   8.870  18.695  12.991
37002W        W  770  38.539  42.870   4.226
37003W        W  771   2.368  21.736  11.936
37004W        W  772  32.440  15.655   9.547
37005W        W  773  27.575  20.087   3.213
37006W        W  774  19.564  16.118  14.424
37007W        W  775  27.622  35.091   4.199
37008W        W  776  27.513  41.479   1.213
37009W        W  777  38.970   2.236   3.847
37010W        W  778  24.140  39.011   0.483
37011W        W  779   1.305   0.881  14.980
37012W        W  780  14.799  36.939   2.205
37013W        W  781  37.366   2.421  13.952
37014W        W  782  17.777  38.915  12.344
37015W        W  783  31.145  40.996   4.225
37016W        W  784  38.536  32.502  14.888
37017W        W  785  37.002  36.451   1.292
37018W        W  786   9.658  26.009  10.612
37019W        W  787  12.639   5.703   3.832
37020W        W  788  34.054  44.433   0.439
37021W        W  789  39.419   2.753   2.809
37022W        W  790  31.918  31.542  12.901
37023W        W  791   5.768  15.138  13.457
37024W        W  792  40.053  20.140   0.907
37025W        W  793   1.885  41.023   4.632
37026W        W  794  26.678   2.250  12.951
37027W        W  795   0.782   7.389   0.419
37028W        W  796  10.144  26.661   5.231
37029W        W  797  44.471  38.445  13.964
37030W        W  798  15.312  12.629  14.884
37031W        W  799   8.346  22.535  14.281
37032W        W  800  27.535  19.157   2.292
37033W        W  801   3.360   6.740   0.346
37034W        W  802  30.473  37.063   3.701
37035W        W  803  18.072  22.237  12.057
37036W        W  804  33.113   7.765  10.604
37037W        W  805  37.352   1.917   4.753
37038W        W  806   5.213   3.729  13.957
37039W        W  807  11.209   0.867  14.472
37040W        W  808  17.771  31.948   1.238
37041W        W  809  27.947   3.381  10.552
37042W        W  810  26.995  26.586   4.206
37043W        W  811   9.703  36.359   4.244
37044W        W  812  32.403  19.780   1.734
37045W        W  813  28.019  26.052   2.825
37046W        W  814  16.717  44.988   1.402
37047W        W  815  10.376  29.967   1.865
37048W        W  816  29.132   3.802   0.828
37049W        W  817   3.425  41.842  10.610
37050W        W  818  32.106   0.360  14.353
37051W        W  819   2.890  27.174  12.927
37052W        W  820  14.679  28.676  14.892
37053W        W  821  27.188   9.306   0.249
37054W        W  822  18.128  13.266   2.270
37055W        W  823  14.644  17.285  10.604
37056W        W  824  24.103  15.717  12.521
37057W        W  825  19.109   0.981  12.438
37058W        W  826  43.455  25.682   0.744
37059W        W  827  40.493  14.826  12.967
37060W        W  828  14.316  29.436   0.454
37061W        W  829  43.360  24.053  13.842
37062W        W  830  39.988  19.546   3.339
37063W        W  831  42.775  16.234   0.265
37064W        W  832  28.949  25.107   4.654
37065W        W  833  12.724  25.182  12.404
37066W        W  834  14.812  40.337   4.259
37067W        W  835  39.514  15.741   4.220
37068W        W  836  29.472  13.635  11.081
37069W        W  837  16.132  31.145   2.229
37070W        W  838  43.893   7.872  14.515
37071W        W  839  30.921  20.098  10.561
37072W        W  840   2.827  11.181  11.536
37073W        W  841   8.397  44.259   1.876
37074W        W  842  42.481  35.550  11.072
37075W        W  843  22.157  14.291  13.912
37076W        W  844  27.592  17.132   1.306
37077W        W  845  24.158   5.790  10.412
37078W        W  846  27.508  24.694   3.356
37079W        W  847  33.047  19.657   1.401
37080W        W  848  11.213  37.941   0.483
37081W        W  849   6.287  19.758   4.709
37082W        W  850   2.253  36.955  12.970
37083W        W  851  24.111  32.113  14.422
37084W        W  852   9.166  37.938   1.230
37085W        W  853  22.698  12.208   1.749
37086W        W  854  41.442   1.398  12.362
37087W        W  855  39.547   5.241   1.793
37088W        W  856   6.750  19.174  11.919
37089W        W  857  32.897  26.628   3.260
37090W        W  858   4.441  17.686   1.279
37091W        W  859  41.962  22.248   0.353
37092W        W  860  19.096  44.404   2.871
37093W        W  861  19.536  10.705  13.470
37094W        W  862  17.193  40.904   0.867
37095W        W  863  40.832  30.605  12.854
37096W        W  864   8.695   8.680   1.882
37097W        W  865  30.072  22.547  14.822
37098W        W  866  23.596  22.590  10.977
37099W        W  867   8.707  28.465  12.827
37100W        W  868  28.957  41.439  13.324
37101W        W  869  20.270  32.962  11.021
37102W        W  870  30.076  33.522  12.361
37103W        W  871  25.624  33.611  11.563
37104W        W  872  25.621  26.533   1.861
37105W        W  873   9.828  31.424  10.416
37106W        W  874  27.189  23.156   0.364
37107W        W  875  40.052  24.587   0.358
37108W        W  876  10.355  19.661  10.421
37109W        W  877  10.350   3.257  11.876
37110W        W  878  14.282  29.026  14.339
37111W        W  879  42.892  37.879   3.820
37112W        W  880  31.987  23.588  13.462
37113W        W  881   4.355  35.445   2.214
37114W        W  882  21.177  27.037  13.909
37115W        W  883  21.085  39.466   2.798
37116W        W  884   7.760  11.710   4.659
37117W        W  885   9.688  25.619  11.476
37118W        W  886   0.297   0.367   0.246
37119W        W  887  29.431  11.820  13.947
37120W        W  888  24.622  36.537  14.854
37121W        W  889  40.856  28.539  11.987
37122W        W  890  18.093  20.109  13.970
37123W        W  891  29.630  20.715  13.979
37124W        W  892   1.959  22.702   4.822
37125W        W  893   3.826   2.837  14.901
37126W        W  894   1.422  24.222   3.833
37127W        W  895  35.059  22.528  12.509
37128W        W  896  41.448  33.490   1.217
37129W        W  897  14.213  13.720  12.860
37130W        W  898   9.853  42.952   2.866
37131W        W  899  19.754   6.760  12.880
37132W        W  900   2.309   5.918  13.900
37133W        W  901  10.174  27.636   9.984
37134W        W  902  35.874  42.502  12.020
37135W        W  903  37.004  18.653  12.825
37136W        W  904  32.046  24.579   2.276
37137W        W  905  34.101   1.294  12.929
37138W        W  906  31.403  24.133  14.880
37139W        W  907  17.783  11.276   1.273
37140W        W  908  21.021  19.722   2.886
37141W        W  909  13.286  42.436  11.889
37142W        W  910   7.803  32.602   4.790
37143W        W  911   5.926  20.762   3.313
37144W        W  912  11.203   7.714   2.224
37145W        W  913   5.847   2.743  12.388
37146W        W  914  26.051  34.439  11.388
37147W        W  915  13.756   6.378   0.795
37148W        W  916  38.504  40.839  11.050
37149W        W  917  18.282  38.414   2.408
37150W        W  918   5.695  21.516   2.336
37151W        W  919  20.641  27.076   3.201
37152W        W  920  42.791  18.216   0.896
37153W        W  921  27.154  13.168  11.425
37154W        W  922  14.794  31.503  13.326
37155W        W  923  18.282  11.198  10.936
37156W        W  924  42.980  27.487   2.418
37157W        W  925  25.011  32.568  11.424
37158W        W  926  34.968  18.243  11.429
37159W        W  927  14.591   7.314  13.392
37160W        W  928   2.348  31.622  13.907
37161W        W  929  12.699  23.984   3.867
37162W        W  930  17.119  35.075   0.377
37163W        W  931  12.310  38.072  12.053
37164W        W  932   3.782  33.441  10.580
37165W        W  933  23.597  13.788  12.942
37166W        W  934   7.228  28.680   4.282
37167W        W  935  42.308  32.126  14.313
37168W        W  936  24.698  14.692   2.716
37169W        W  937  14.222   5.702  14.485
37170W        W  938   3.890   5.929   2.839
37171W        W  939  25.582  21.156   0.775
37172W        W  940  20.762  20.208  11.060
37173W        W  941  44.390   8.325   1.809
37174W        W  942  26.055  31.978   5.322
37175W        W  943  11.838  27.610  10.930
37176W        W  944  23.099  24.591   4.290
37177W        W  945  20.085  15.610  13.012
37178W        W  946   9.358   2.405  13.419
37179W        W  947   5.264  26.556  11.938
37180W        W  948  30.119  26.564  10.963
37181W        W  949  44.438  27.163   0.864
37182W        W  950  19.118  38.325  13.446
37183W        W  951  21.185  33.096  13.392
37184W        W  952  44.873  21.543  14.848
37185W        W  953  15.214  18.592  13.902
37186W        W  954   6.358   5.300   4.248
37187W        W  955  40.307  41.010  12.890
37188W        W  956   2.780  36.847   0.894
37189W        W  957  40.470  21.610  11.552
37190W        W  958  39.864  18.693  13.978
37191W        W  959  44.943   4.220  10.447
37192W        W  960   8.746  34.394   4.178
37193W        W  961  18.615  39.412  10.407
37194W        W  962   5.927  13.308  10.511
37195W        W  963  39.978  43.441   1.288
37196W        W  964  28.129  20.121  13.325
37197W        W  965   3.284   9.727  12.495
37198W        W  966  28.992  14.692   2.349
37199W        W  967  26.209   2.436  13.432
37200W        W  968  22.578  16.090   3.745
37201W        W  969  15.112  19.622  11.574
37202W        W  970  13.327  15.781  13.313
37203W        W  971  17.231  15.156  11.021
37204W        W  972   1.408  37.013   1.879
37205W        W  973  42.804   1.271  14.283
37206W        W  974  30.544  36.485  11.108
37207W        W  975   2.859  42.954   3.385
37208W        W  976  44.459   0.967   0.258
37209W        W  977  39.992   8.659  13.936
37210W        W  978   9.203  34.456  13.438
37211W        W  979  13.729   7.735   1.715
37212W        W  980  27.686  35.896  12.906
37213W        W  981  34.022   9.341  14.795
37214W        W  982  14.649  11.161   1.748
37215W        W  983   0.329  33.451   0.337
37216W        W  984  10.738  10.691   1.900
37217W        W  985  13.277  22.189   4.713
37218W        W  986  40.012  30.500  14.966
37219W        W  987  37.446  41.529   2.399
37220W        W  988   4.889  43.983   2.298
37221W        W  989  30.433  27.176  13.896
37222W        W  990   5.862  40.449   1.879
37223W        W  991  13.828  23.603   4.225
37224W        W  992  30.494   7.403   3.267
37225W        W  993  10.293  17.281  10.614
37226W        W  994  33.619  39.824   4.600
37227W        W  995  22.092  22.224   3.357
37228W        W  996  26.080  24.112   0.751
37229W        W  997  21.253  26.646  13.848
37230W        W  998  13.123  28.439  10.495
37231W        W  999  22.246  28.180   0.457
37232W        W 1000  13.839  23.670  11.426
37233W        W 1001  43.776  22.047   4.779
37234W        W 1002  28.128  13.276  13.540
37235W        W 1003  15.586  11.279   4.800
37236W        W 1004   3.820   3.852  12.563
37237W        W 1005   5.302   9.859  12.912
37238W        W 1006  26.149  17.682   3.854
37239W        W 1007  26.635  13.260   2.310
37240W        W 1008  41.968  36.055  10.905
37241W        W 1009  10.826   8.708  14.503
37242W        W 1010  41.031  18.120  13.525
37243W        W 1011  23.591   8.288   2.883
37244W        W 1012  13.128  41.961   0.388
37245W        W 1013  38.007  23.619  13.064
37246W        W 1014  17.592  18.768   0.290
37247W        W 1015  13.667  27.137  14.499
37248W        W 1016  33.564  10.334   2.774
37249W        W 1017  37.863   5.268  13.898
37250W        W 1018  37.467  42.933   3.309
37251W        W 1019  17.071  36.439  12.077
37252W        W 1020  26.510  33.392  13.825
37253W        W 1021  16.314   8.186   4.285
37254W        W 1022  43.774  27.623  13.353
37255W        W 1023  25.022  27.013   0.429
37256W        W 1024  27.994  35.036   0.447
37257W        W 1025  11.184  43.432  14.923
37258W        W 1026  36.423   3.785   4.245
37259W        W 1027  27.197   9.646  11.054
37260W        W 1028  14.698   0.915  10.533
37261W        W 1029  36.488  10.755  12.079
37262W        W 1030  42.920   4.299  11.929
37263W        W 1031  22.031  35.064  14.327
37264W        W 1032  31.016   2.333   4.351
37265W        W 1033  15.800  30.442  13.842
37266W        W 1034  25.522  21.262  14.996
37267W        W 1035  29.620  29.970  14.990
37268W        W 1036  28.665  23.237  13.473
37269W        W 1037  28.983   4.268  14.950
37270W        W 1038  31.915  12.314  10.563
37271W        W 1039   6.328  10.280  11.414
37272W        W 1040  21.260   7.352   0.453
37273W        W 1041  26.462  24.709   3.808
37274W        W 1042   9.655  34.081  13.912
37275W        W 1043  42.420   7.889  11.939
37276W        W 1044  16.800  28.471   4.629
37277W        W 1045  16.662  42.785  12.465
37278W        W 1046  42.776  40.442   3.336
37279W        W 1047  37.500  36.038   2.812
37280W        W 1048  38.352  37.494  14.954
37281W        W 1049  17.112   3.954  13.449
37282W        W 1050  29.449   5.772   1.265
37283W        W 1051  17.126   0.785   3.662
37284W        W 1052   7.842  31.975   0.444
37285W        W 1053   5.294   2.761  14.874
37286W        W 1054  37.895   2.930  11.582
37287W        W 1055  43.821  11.350  13.916
37288W        W 1056  31.959  44.800   4.662
37289W        W 1057  27.560  10.731   0.334
37290W        W 1058  17.110  41.317   1.297
37291W        W 1059  19.225  39.528  12.344
37292W        W 1060  21.756  25.593   4.119
37293W        W 1061  39.025  30.609   5.155
37294W        W 1062  10.297  38.931   2.383
37295W        W 1063  26.560  13.688  11.397
37296W        W 1064   5.336   9.832   2.674
37297W        W 1065  10.650  14.230   1.784
37298W        W 1066  22.155  37.489  10.977
37299W        W 1067  26.658   8.665  11.043
37300W        W 1068  12.194  23.545   0.362
37301W        W 1069  12.670  17.214   0.748
37302W        W 1070  24.587  22.659  13.329
37303W        W 1071   1.439  42.788   0.270
37304W        W 1072  15.178  15.656  11.592
37305W        W 1073  26.052  36.358  11.543
37306W        W 1074  41.830  39.862  12.541
37307W        W 1075  37.362  15.198  13.323
37308W        W 1076   5.817   0.966  10.428
37309W        W 1077  11.141  40.500  13.900
37310W        W 1078  12.616  35.955  13.378
37311W        W 1079   7.219   0.970   1.894
37312W        W 1080  37.005   4.401   2.819
37313W        W 1081  10.355  29.971  12.837
37314W        W 1082  39.326  15.083  13.889
37315W        W 1083   5.694  31.125   1.221
37316W        W 1084  38.352  44.421   2.276
37317W        W 1085   5.836  15.313   3.703
37318W        W 1086  25.500  40.803   0.280
37319W        W 1087  41.004  16.621  14.946
37320W        W 1088  10.731  38.510   2.283
37321W        W 1089  12.711  25.977  13.440
37322W        W 1090  43.857  20.560  14.859
37323W        W 1091   0.868  19.731   1.799
37324W        W 1092  30.998  35.002   0.454
37325W        W 1093  13.290  39.544   2.704
37326W        W 1094  17.657  16.631   4.280
37327W        W 1095  18.564  30.966  10.910
37328W        W 1096  43.511  16.193   1.874
37329W        W 1097  25.045  43.423  13.519
37330W        W 1098  24.059  36.502   0.889
37331W        W 1099  35.375  36.872  14.986
37332W        W 1100   0.919  29.616   0.257
37333W        W 1101  32.515  18.606  12.423
37334W        W 1102  21.137   5.716  10.105
37335W        W 1103  19.215  10.202   2.352
37336W        W 1104   1.799  36.000  11.035
37337W        W 1105  20.526  14.723   1.908
37338W        W 1106  25.131  13.292  14.903
37339W        W 1107  16.809  36.473  14.410
37340W        W 1108  15.183  32.546   4.337
37341W        W 1109  26.147  25.703   0.736
37342W        W 1110  16.620  42.901   0.803
37343W        W 1111  41.531  19.183   1.266
37344W        W 1112   6.913  38.864   4.624
37345W        W 1113  42.824   2.386  13.824
37346W        W 1114  42.819  23.586   0.361
37347W        W 1115  25.589  13.294  14.915
37348W        W 1116  21.257  13.816  13.996
37349W        W 1117   8.321  40.941   0.322
37350W        W 1118  21.533  39.453  10.522
37351W        W 1119  38.857  38.975  11.964
37352W        W 1120  31.573  43.411   2.328
37353W        W 1121   0.947  27.681   1.374
37354W        W 1122  26.207  29.658   0.339
37355W        W 1123  10.140   4.770   3.651
37356W        W 1124  11.674  29.524  14.475
37357W        W 1125   3.400  34.036  11.894
37358W        W 1126  20.647  31.124   4.802
37359W        W 1127   9.785  25.665   2.295
37360W        W 1128   0.268  42.776  12.492
37361W        W 1129  29.007  44.279   3.197
37362W        W 1130  13.115   9.706  13.500
37363W        W 1131   2.253  40.823  11.071
37364W        W 1132   4.446  20.194   0.249
37365W        W 1133  30.990  22.689  12.006
37366W        W 1134   3.359  39.408   1.359
37367W        W 1135   4.432  26.702  12.033
37368W        W 1136  15.629  35.394   2.200
37369W        W 1137   3.830  40.462  13.928
37370W        W 1138  43.305  33.090   2.823
37371W        W 1139   0.483   2.818   3.165
37372W        W 1140  38.881  44.763  11.982
37373W        W 1141  39.432  32.935   0.467
37374W        W 1142   2.422  35.855   3.340
37375W        W 1143  43.418  32.051  14.792
37376W        W 1144  38.364  29.629   0.940
37377W        W 1145  41.840  18.741   2.204
37378W        W 1146  21.744  13.279   2.822
37379W        W 1147  13.834  14.120   1.743
37380W        W 1148  34.508   7.400  10.045
37381W        W 1149  29.662  16.749   4.803
37382W        W 1150  29.548   3.373  11.570
37383W        W 1151   5.406   7.729  13.397
37384W        W 1152  37.043  25.621   4.132
37385W        W 1153  12.807  14.197   3.751
37386W        W 1154  18.632  20.585  13.511
37387W        W 1155  36.082   9.305   4.117
37388W        W 1156  20.522  18.731   4.141
37389W        W 1157   4.909  35.946  13.470
37390W        W 1158  28.457  44.778  11.467
37391W        W 1159  24.225  18.265  10.985
37392W        W 1160  20.123   6.266  11.975
37393W        W 1161  29.665   7.258   4.741
37394W        W 1162  21.519  32.396  14.765
37395W        W 1163   1.781  30.565  13.522
37396W        W 1164  12.277  39.882   2.735
37397W        W 1165  31.114   5.761   1.317
37398W        W 1166  36.546  19.609  12.467
37399W        W 1167  16.670   9.393   3.356
37400W        W 1168  28.015  13.209   1.370
37401W        W 1169  33.960  42.517   1.272
37402W        W 1170   4.220  35.964   5.710
37403W        W 1171   7.848   0.398  14.344
37404W        W 1172  38.541  41.007  13.309
37405W        W 1173  34.484  32.933  12.955
37406W        W 1174   3.952  37.055   0.769
37407W        W 1175  31.973  43.904  13.050
37408W        W 1176  21.536  20.688  13.395
37409W        W 1177  34.419  18.692  11.387
37410W        W 1178  21.146  19.047   2.351
37411W        W 1179   4.390   4.856   2.266
37412W        W 1180  22.121  24.643   4.309
37413W        W 1181  36.456  39.953   0.822
37414W        W 1182   2.396   8.228   3.302
37415W        W 1183   1.465  40.338   1.834
37416W        W 1184  12.802  17.614  14.320
37417W        W 1185  41.906  18.616  14.936
37418W        W 1186  19.283  21.668  11.453
37419W        W 1187  16.169  40.994   3.757
37420W        W 1188  25.218  25.691   2.676
37421W        W 1189  25.539  18.695   3.666
37422W        W 1190   7.266  21.142   2.218
37423W        W 1191  34.059   2.844   1.397
37424W        W 1192  29.986  33.981   4.343
37425W        W 1193   7.302   1.393  11.545
37426W        W 1194  37.888  18.715   4.629
37427W        W 1195  24.119  34.911   0.339
37428W        W 1196  22.515  35.478  10.552
37429W        W 1197   3.417  36.494  10.972
37430W        W 1198   0.376  39.911   2.731
37431W        W 1199   1.410  11.687  11.020
37432W        W 1200   4.737  25.538   4.805
37433W        W 1201  15.613   2.392  14.393
37434W        W 1202  16.663  32.497   4.723
37435W        W 1203   5.377  22.035   2.731
37436W        W 1204  39.458  33.409  10.907
37437W        W 1205  23.987  13.226   2.680
37438W        W 1206  35.107   6.317   3.836
37439W        W 1207  31.420   4.286  12.925
37440W        W 1208  15.105  38.981  12.938
37441W        W 1209   6.821  40.971   0.292
37442W        W 1210  38.908  37.456   5.096
37443W        W 1211  17.063   2.809  12.486
37444W        W 1212  31.442  12.322  12.926
37445W        W 1213   2.393  12.726  11.096
37446W        W 1214  18.089  18.266  11.609
37447W        W 1215  13.141  28.076   3.842
37448W        W 1216  16.575  33.102   1.214
37449W        W 1217  30.644  36.484   5.158
37450W        W 1218  11.827  24.005   4.787
37451W        W 1219  13.761  18.064  10.496
37452W        W 1220  31.631  40.027   4.657
37453W        W 1221   2.767  12.765   1.875
37454W        W 1222  30.910  31.404   2.763
37455W        W 1223  43.357  27.197   0.813
37456W        W 1224   1.302  41.911  14.366
37457W        W 1225  12.648  12.829  11.107
37458W        W 1226  29.597   3.884   4.814
37459W        W 1227  36.592   5.790  11.891
37460W        W 1228   7.675   6.701  12.547
37461W        W 1229  39.899  12.204   2.202
37462W        W 1230  41.464  13.313  10.513
37463W        W 1231   2.441  32.121   0.750
37464W        W 1232  42.004  38.340  12.560
37465W        W 1233   6.241  40.358   0.742
37466W        W 1234  20.268  23.500   4.131
37467W        W 1235   2.796  44.868  14.357
37468W        W 1236  22.566  24.123   0.798
37469W        W 1237   2.266   6.900   4.323
37470W        W 1238  23.010  43.781  10.574
37471W        W 1239   3.315   0.354  10.409
37472W        W 1240   8.762  37.426   4.129
37473W        W 1241  42.924   8.736  12.080
37474W        W 1242  42.027  35.049  10.962
37475W        W 1243  27.613  12.832  13.482
37476W        W 1244   1.855   4.929   1.733
37477W        W 1245  36.901  11.140  13.988
37478W        W 1246  43.787  17.572  13.902
37479W        W 1247  40.359  29.592   4.597
37480W        W 1248  34.426   9.208   3.738
37481W        W 1249   9.149   7.750   2.284
37482W        W 1250  44.455   3.724   0.803
37483W        W 1251  42.447  15.322  12.054
37484W        W 1252   0.783   5.236   1.859
37485W        W 1253  11.167  16.679  11.588
37486W        W 1254  13.774   8.396   3.768
37487W        W 1255  12.218   8.369  12.560
37488W        W 1256  22.517  20.131  13.019
37489W        W 1257  23.620  41.975  10.613
37490W        W 1258  16.798  29.023   4.795
37491W        W 1259  34.582  30.036   3.374
37492W        W 1260  16.662  41.815  12.960
37493W        W 1261  40.976  15.220  14.810
37494W        W 1262  39.439  29.440   1.251
37495W        W 1263  31.999  10.301  14.475
37496W        W 1264   4.253   4.245  10.487
37497W        W 1265   2.808   9.750  10.454
37498W        W 1266  43.289  29.497  12.021
37499W        W 1267   0.429  20.638   1.241
37500W        W 1268  35.014  24.118  14.394
37501W        W 1269  43.370   9.859   0.463
37502W        W 1270  37.568  22.730  12.439
37503W        W 1271   3.262   1.270   4.719
37504W        W 1272  36.088  23.218   3.660
37505W        W 1273  23.552  16.752   0.815
37506W        W 1274  33.039   5.432   2.295
37507W        W 1275  17.712   4.365  14.429
37508W        W 1276  34.538   7.182   0.243
37509W        W 1277   0.900  16.117  12.382
37510W        W 1278   3.316  11.766   1.725
37511W        W 1279  32.957  30.077   1.706
37512W        W 1280  26.647   4.775  12.443
37513W        W 1281  15.583   6.770   4.687
37514W        W 1282  42.976   6.794   4.313
37515W        W 1283  13.346  18.117  11.886
37516W        W 1284  41.861  40.357  10.573
37517W        W 1285   9.289  34.467  11.568
37518W        W 1286  11.645  16.607  11.028
37519W        W 1287  12.330   0.892   2.264
37520W        W 1288  15.153   7.767   4.128
37521W        W 1289   5.815   1.461   2.413
37522W        W 1290  20.266  38.400   2.854
37523W        W 1291   7.366  26.047   3.174
37524W        W 1292  35.938  44.479   0.379
37525W        W 1293  38.399  26.162   3.854
37526W        W 1294   4.430  28.543   2.854
37527W        W 1295  21.143  10.735   1.317
37528W        W 1296   5.923  26.959   1.329
37529W        W 1297  23.996  42.471  13.479
37530W        W 1298   7.852   3.245  14.967
37531W        W 1299  17.651  32.581   4.185
37532W        W 1300  13.619   2.727  12.863
37533W        W 1301  36.024  33.568  14.301
37534W        W 1302  36.406  20.694   1.823
37535W        W 1303  37.495  41.868   3.656
37536W        W 1304  28.677  11.196  14.997
37537W        W 1305  34.436  37.849   2.363
37538W        W 1306  31.952  15.604   9.610
37539W        W 1307   2.773   2.403   3.754
37540W        W 1308  15.694  29.667  11.438
37541W        W 1309   9.283  15.630  12.876
37542W        W 1310  19.732  23.226  10.416
37543W        W 1311   7.909  23.114   1.733
37544W        W 1312  13.163  25.679   0.819
37545W        W 1313  31.996   7.790  11.938
37546W        W 1314  24.710  28.104   3.234
37547W        W 1315  32.132  41.865  14.864
37548W        W 1316   8.286   1.417   2.771
37549W        W 1317  29.133  26.051  10.938
37550W        W 1318  22.052   5.736  13.384
37551W        W 1319   9.292  13.347   2.362
37552W        W 1320   9.856  22.655   3.158
37553W        W 1321  28.991   8.357  14.929
37554W        W 1322  11.689  23.078  13.982
37555W        W 1323   0.873  30.149  12.861
37556W        W 1324  27.482  41.525   0.394
37557W        W 1325  21.638  27.676   0.480
37558W        W 1326  37.972  28.486   2.215
37559W        W 1327   4.879   9.358  12.843
37560W        W 1328  39.040  15.327   0.393
37561W        W 1329  21.695   7.835   0.914
37562W        W 1330  38.919   0.268  13.320
37563W        W 1331  17.793  35.052   4.251
37564W        W 1332  12.688  41.396   3.640
37565W        W 1333  42.989  39.530   2.719
37566W        W 1334  12.275  20.734  14.913
37567W        W 1335  33.040  21.112  13.820
37568W        W 1336  27.002  36.874  12.944
37569W        W 1337  42.992  21.588   1.907
37570W        W 1338  34.931  19.587  13.925
37571W        W 1339  36.089  23.635  11.067
37572W        W 1340  10.873   7.369   4.242
37573W        W 1341  28.665   5.339   3.308
37574W        W 1342  40.989  10.308   2.215
37575W        W 1343   1.481  22.253  10.554
37576W        W 1344   4.918  24.032   3.192
37577W        W 1345  20.610  23.648  10.893
37578W        W 1346  43.340  36.437  13.797
37579W        W 1347  44.312   5.746   5.183
37580W        W 1348  23.652  28.595   2.179
37581W        W 1349  19.708  10.373   5.264
37582W        W 1350   7.290   0.775   0.788
37583W        W 1351  36.578  39.328  13.472
37584W        W 1352   4.786  13.737   4.785
37585W        W 1353  22.226  26.699   3.708
37586W        W 1354  41.976  29.945  14.991
37587W        W 1355  44.261   4.246  12.910
37588W        W 1356  30.480  13.106   3.768
37589W        W 1357  30.002  24.511  14.962
37590W        W 1358  42.333  27.098  11.472
37591W        W 1359  14.144  11.643   2.777
37592W        W 1360  25.036   8.670  10.628
37593W        W 1361  31.007   4.743   4.742
37594W        W 1362  17.615  12.120  11.885
37595W        W 1363   9.684   0.331  11.975
37596W        W 1364   1.460  34.067   1.926
37597W        W 1365  10.366  33.983   1.697
37598W        W 1366  16.228   8.367   1.286
37599W        W 1367  33.915  13.345  13.837
37600W        W 1368  21.705  31.623   0.889
37601W        W 1369   2.245  10.850   1.423
37602W        W 1370  22.666  39.340  13.537
37603W        W 1371   1.743  11.717  13.819
37604W        W 1372  37.948  44.376  11.563
37605W        W 1373   5.824   6.727   3.279
37606W        W 1374  41.296  27.625   1.836
37607W        W 1375  40.931  25.515   3.223
37608W        W 1376  26.649  35.593   1.921
37609W        W 1377  28.517  42.417  11.083
37610W        W 1378  24.219   9.275  13.921
37611W        W 1379  44.928   7.260  10.995
37612W        W 1380  38.949  40.400  12.506
37613W        W 1381  10.844   9.168  11.553
37614W        W 1382  42.462  34.562   3.854
37615W        W 1383   3.869  23.557   1.731
37616W        W 1384   8.720  18.247   3.312
37617W        W 1385  32.044  14.132  14.316
37618W        W 1386  14.708  25.166  13.988
37619W        W 1387   3.713  16.703  10.037
37620W        W 1388  42.912  18.137  13.016
37621W        W 1389  29.531  14.303  10.636
37622W        W 1390  37.840  42.878  13.544
37623W        W 1391  43.894  39.845  14.411
37624W        W 1392  13.279  31.526  11.520
37625W        W 1393   2.777  42.906  12.880
37626W        W 1394   9.791  27.575  14.310
37627W        W 1395  44.985   9.777  11.518
37628W        W 1396   7.772  22.039   2.677
37629W        W 1397   7.833   7.201   2.194
37630W        W 1398   4.924   9.188   4.800
37631W        W 1399  29.119  29.644   2.886
37632W        W 1400  24.111  27.587  10.543
37633W        W 1401  21.218  30.579  12.879
37634W        W 1402   3.895   7.265  13.396
37635W        W 1403  19.069  37.390   4.722
37636W        W 1404  23.128  33.112   4.232
37637W        W 1405   6.776  38.404   2.824
37638W        W 1406  35.867   1.355  11.427
37639W        W 1407   1.251   2.339   2.843
37640W        W 1408  13.737  28.014  13.803
37641W        W 1409  24.119  37.861  11.981
37642W        W 1410  26.134  27.015   0.874
37643W        W 1411  29.102  42.886  11.443
37644W        W 1412  39.415   1.891   1.223
37645W        W 1413  17.137  25.475   4.119
37646W        W 1414   6.367  24.585   3.308
37647W        W 1415  13.257   7.722   2.398
37648W        W 1416   0.818  27.158  10.593
37649W        W 1417  10.382  27.496  12.542
37650W        W 1418  13.779  16.237  11.013
37651W        W 1419  20.677  26.072   3.832
37652W        W 1420  44.357  23.610  10.560
37653W        W 1421  16.083  16.611   9.595
37654W        W 1422  31.036   6.207   3.334
37655W        W 1423  34.082  24.515   4.354
37656W        W 1424  30.548  15.125  11.000
37657W        W 1425  19.761  39.841  11.091
37658W        W 1426   2.415  16.610   0.750
37659W        W 1427  11.686  27.481   4.130
37660W        W 1428  32.525   9.848   4.655
37661W        W 1429  33.506  36.379  12.571
37662W        W 1430  25.693  10.140  13.465
37663W        W 1431   7.764  20.592   1.922
37664W        W 1432  36.842   0.986   1.262
37665W        W 1433  22.024  32.123   1.427
37666W        W 1434   4.279  21.757  13.315
37667W        W 1435   6.774  27.135   3.301
37668W        W 1436  27.979  41.969  11.463
37669W        W 1437  24.545   7.697  10.919
37670W        W 1438  18.189  39.390  11.565
37671W        W 1439  23.632  25.093  13.313
37672W        W 1440  23.533  39.483   1.214
37673W        W 1441  27.555  21.248  11.580
37674W        W 1442  27.688  40.006  14.839
37675W        W 1443  42.833  33.445   4.655
37676W        W 1444   6.197  42.016  12.060
37677W        W 1445  27.486  27.645   4.748
37678W        W 1446   2.957   0.772  12.396
37679W        W 1447  38.529  29.132   9.504
37680W        W 1448  30.014  30.437   0.813
37681W        W 1449  20.232  29.058   1.433
37682W        W 1450  15.731   2.753  13.511
37683W        W 1451   8.701   6.740   0.414
37684W        W 1452   0.284  37.993   0.305
37685W        W 1453  40.969  21.154   1.367
37686W        W 1454  34.536  21.655  12.899
37687W        W 1455  17.614  27.556   0.904
37688W        W 1456   8.761  36.966  14.009
37689W        W 1457  44.861  23.165   3.167
37690W        W 1458   9.662   3.746   0.749
37691W        W 1459   8.886  27.163  10.625
37692W        W 1460   1.257   9.803   3.332
37693W        W 1461  40.976  11.777   1.211
37694W        W 1462  27.670   4.297   3.295
37695W        W 1463  37.428  41.897   3.148
37696W        W 1464  27.128  15.115  12.477
37697W        W 1465  11.151  15.771   3.186
37698W        W 1466   0.450  22.141  13.415
37699W        W 1467   6.248  33.928  13.499
37700W        W 1468  41.846  22.533   4.607
37701W        W 1469   8.332  25.685  10.995
37702W        W 1470  28.101   4.311   0.443
37703W        W 1471  36.408  40.949   4.322
37704W        W 1472  36.360  29.922  10.011
37705W        W 1473  25.651   5.391  14.499
37706W        W 1474  26.156   1.837  12.514
37707W        W 1475  42.817   9.668   0.333
37708W        W 1476  26.183  44.932   2.674
37709W        W 1477  22.622  37.519   1.216
37710W        W 1478  21.681  23.035  12.364
37711W        W 1479  28.111  11.659  14.762
37712W        W 1480  35.549  36.008   2.675
37713W        W 1481  21.223   0.282  14.909
37714W        W 1482  37.341  43.391  11.445
37715W        W 1483  36.386  35.053  14.021
37716W        W 1484  16.307  43.886  11.480
37717W        W 1485  39.837  34.873  10.959
37718W        W 1486   4.841  19.163   0.260
37719W        W 1487  14.803  36.547   2.265
37720W        W 1488  41.479  34.602   2.185
37721W        W 1489  42.892  39.386  11.604
37722W        W 1490  21.729   2.728  12.041
37723W        W 1491  39.446  18.186  13.929
37724W        W 1492   4.227  17.154  12.848
37725W        W 1493  24.223   7.214   2.299
37726W        W 1494  40.409  25.163   0.777
37727W        W 1495  29.611  31.492   3.717
37728W        W 1496   5.212   7.334   3.673
37729W        W 1497  32.515  36.549  14.303
37730W        W 1498  24.161  20.757  13.052
37731W        W 1499   8.694  39.039   3.246
37732W        W 1500  28.025  19.653   3.241
37733W        W 1501  10.764   0.934   4.642
37734W        W 1502  40.014  20.636  14.874
37735W        W 1503  25.643  35.949   3.353
37736W        W 1504  29.970  21.100   4.276
37737W        W 1505  23.724  30.528   2.300
37738W        W 1506  11.141   9.808   0.349
37739W        W 1507  42.993  30.594   0.922
37740W        W 1508  17.093   0.413  12.419
37741W        W 1509  15.715   3.460   5.223
37742W        W 1510  12.299  35.897  10.639
37743W        W 1511   2.805   6.190   1.807
37744W        W 1512  27.127   5.320  10.614
37745W        W 1513  14.716  24.183   0.744
37746W        W 1514  31.591  13.136   1.745
37747W        W 1515   1.934  41.348   1.392
37748W        W 1516   6.733  14.096   0.263
37749W        W 1517  15.283  18.757  10.531
37750W        W 1518  20.623  11.160  14.919
37751W        W 1519  38.514  38.530   0.957
37752W        W 1520  37.576  39.457   0.824
37753W        W 1521   2.950   1.371   0.462
37754W        W 1522  29.567   2.806  13.395
37755W        W 1523   9.246  23.689  13.831
37756W        W 1524  21.090  17.201  10.920
37757W        W 1525  34.454   4.705  12.968
37758W        W 1526  13.151  39.474   1.886
37759W        W 1527  32.996  19.734   9.922
37760W        W 1528  32.023  19.726   2.718
37761W        W 1529  35.579  18.054  14.874
37762W        W 1530  10.356  28.134   2.896
37763W        W 1531   2.793   8.183   4.694
37764W        W 1532  33.503   9.889   4.224
37765W        W 1533  20.226   2.927  14.775
37766W        W 1534   7.777  26.660  13.904
37767W        W 1535   4.212   1.857  13.041
37768W        W 1536   2.884  41.492  11.063
37769W        W 1537   0.435  18.585  12.075
37770W        W 1538   4.373  20.610   2.898
37771W        W 1539   5.814  10.309  13.487
37772W        W 1540  23.724  27.661  11.035
37773W        W 1541  32.091  10.298   1.897
37774W        W 1542   1.905  30.547   0.739
37775W        W 1543  33.910  30.510   2.254
37776W        W 1544  38.482  29.584  11.027
37777W        W 1545   0.375  22.200  10.891
37778W        W 1546  22.236  20.136  13.330
37779W        W 1547  12.683  24.511   3.725
37780W        W 1548  31.544  21.111  14.934
37781W        W 1549  40.048  37.018  12.490
37782W        W 1550  20.612  38.041   3.276
37783W        W 1551  30.057  40.941   1.299
37784W        W 1552  34.596  24.087   2.371
37785W        W 1553  11.700  10.165  11.602
37786W        W 1554   6.334   8.880  12.357
37787W        W 1555  29.100   7.726   3.656
37788W        W 1556  29.070   8.716   2.671
37789W        W 1557   0.752  13.601  13.342
37790W        W 1558   3.860  37.566   4.656
37791W        W 1559  18.264  44.980   4.344
37792W        W 1560  41.393   4.899  12.992
37793W        W 1561  33.534  20.677  10.517
37794W        W 1562  11.356  26.984  10.489
37795W        W 1563   8.388  27.975   3.713
37796W        W 1564   8.367  22.513   3.830
37797W        W 1565  21.135  30.932  12.391
37798W        W 1566  34.498  29.113   2.756
37799W        W 1567  24.535  12.763   0.246
37800W        W 1568  17.223  15.689   3.178
37801W        W 1569  34.904  35.883  11.018
37802W        W 1570  30.645  21.108   4.249
37803W        W 1571  14.742  29.525  14.306
37804W        W 1572  14.188   0.904  11.993
37805W        W 1573  39.469  29.967  12.573
37806W        W 1574  29.500  35.514   2.856
37807W        W 1575   6.329  27.597  13.327
37808W        W 1576  31.591  12.295  14.422
37809W        W 1577  16.614  33.502   3.757
37810W        W 1578  35.431   4.275   3.660
37811W        W 1579  33.019  42.441   0.768
37812W        W 1580  23.178  18.560   1.220
37813W        W 1581  37.913  18.053  14.811
37814W        W 1582  36.857  32.392   0.403
37815W        W 1583   5.888  29.657  14.370
37816W        W 1584  17.140  35.587   2.831
37817W        W 1585  11.288  40.452  10.622
37818W        W 1586   8.219  27.970   4.177
37819W        W 1587  18.780  28.548  11.893
37820W        W 1588  19.107  18.212   5.300
37821W        W 1589   4.332  21.602   3.171
37822W        W 1590  27.650  36.496   2.835
37823W        W 1591   5.433  11.320   4.679
37824W        W 1592  43.459  29.535   0.334
37825W        W 1593  17.672  14.230  10.543
37826W        W 1594  15.158   0.761  14.870
37827W        W 1595  39.933   8.718   1.878
37828W        W 1596  30.921  31.584   0.404
37829W        W 1597  18.181   2.296  14.332
37830W        W 1598  41.435  33.970   4.679
37831W        W 1599  20.261  23.556  11.459
37832W        W 1600  17.127  10.183  14.763
37833W        W 1601  41.502  14.330  12.392
37834W        W 1602   2.274  37.400   5.251
37835W        W 1603   8.348  23.658  10.485
37836W        W 1604   7.891  28.563   2.725
37837W        W 1605  36.420  29.510   4.215
37838W        W 1606  44.436  10.304  11.571
37839W        W 1607   5.812  29.155  14.340
37840W        W 1608  43.817  15.318   3.177
37841W        W 1609   5.310  17.288   4.772
37842W        W 1610  30.023   1.943   0.883
37843W        W 1611  41.014  22.588   4.123
37844W        W 1612  33.544  15.644  10.918
37845W        W 1613  26.151  28.491  13.380
37846W        W 1614  35.933  24.128  12.017
37847W        W 1615   6.359  34.105   0.904
37848W        W 1616  33.889  40.328  12.445
37849W        W 1617  41.444  13.271   1.934
37850W        W 1618  37.365  43.826  14.297
37851W        W 1619  34.990  22.720   0.286
37852W        W 1620   8.225  41.346   3.321
37853W        W 1621  10.249  15.225   0.882
37854W        W 1622   2.870   1.880   3.181
37855W        W 1623  20.049   8.335   1.929
37856W        W 1624  24.665   9.867   2.745
37857W        W 1625   6.912  20.097  10.937
37858W        W 1626   5.697  26.051   1.713
37859W        W 1627  29.506  14.631  14.429
37860W        W 1628  28.943  25.538  11.472
37861W        W 1629  32.462  34.394  12.858
37862W        W 1630  42.869  44.991   4.719
37863W        W 1631  32.446  40.435  11.478
37864W        W 1632  15.809  32.990   9.969
37865W        W 1633  16.087  38.852  13.430
37866W        W 1634   7.822  36.060  12.849
37867W        W 1635   9.297  20.769   3.292
37868W        W 1636  13.759  37.858   0.344
37869W        W 1637  21.157  14.193  14.783
37870W        W 1638   7.368  43.822  14.495
37871W        W 1639  16.732  44.459   2.193
37872W        W 1640  41.013  40.441   1.262
37873W        W 1641  28.183  18.701  12.549
37874W        W 1642   6.693  33.954   0.808
37875W        W 1643   7.786  39.409  14.930
37876W        W 1644   2.738  14.260  14.893
37877W        W 1645  33.504  20.115  11.092
37878W        W 1646   7.215  33.896   1.722
37879W        W 1647  18.189  35.495  12.087
37880W        W 1648  11.323  28.954   3.727
37881W        W 1649   0.758  42.422  10.546
37882W        W 1650   1.267  37.576  11.588
37883W        W 1651  30.008  35.400   1.281
37884W        W 1652  34.120  11.785  11.925
37885W        W 1653  30.581  14.726  11.114
37886W        W 1654  31.480  21.226  11.593
37887W        W 1655  36.035  34.864  14.321
37888W        W 1656  27.498   2.231   1.431
37889W        W 1657  22.032   9.838   1.847
37890W        W 1658  13.323  22.548  12.070
37891W        W 1659  33.570  12.697  12.489
37892W        W 1660   9.341  34.472   3.777
37893W        W 1661  42.910  33.614   0.851
37894W        W 1662  19.627  36.958  11.409
37895W        W 1663  25.589  19.638   2.321
37896W        W 1664  22.033  31.969   4.676
37897W        W 1665  29.118  16.670  13.535
37898W        W 1666  24.041   2.918  12.475
37899W        W 1667  34.068  27.086   4.316
37900W        W 1668  23.646  22.611   4.733
37901W        W 1669  29.456  17.693   2.770
37902W        W 1670  41.823  21.608  12.393
37903W        W 1671  31.118  32.552  14.341
37904W        W 1672  36.061   2.318   4.798
37905W        W 1673  23.095  17.666  13.400
37906W        W 1674  42.479  15.645  10.488
37907W        W 1675   4.893   3.727   0.762
37908W        W 1676  11.299   3.276   3.162
37909W        W 1677   4.250   6.723   4.667
37910W        W 1678  35.083  20.568  14.476
37911W        W 1679  19.630  18.567  11.451
37912W        W 1680  24.701  42.441  14.435
37913W        W 1681  38.932   4.732   1.913
37914W        W 1682  41.017   1.797  13.345
37915W        W 1683   3.435   0.485   1.371
37916W        W 1684  29.931  13.230  11.863
37917W        W 1685  17.210  18.750   1.824
37918W        W 1686  15.258  31.536   4.806
37919W        W 1687  19.697  21.557   3.240
37920W        W 1688  16.804  23.202  11.544
37921W        W 1689  42.505   5.437   0.383
37922W        W 1690  25.209  30.615   1.714
37923W        W 1691  38.411  31.471  14.510
37924W        W 1692   0.866  39.386  11.406
37925W        W 1693  21.114  20.028   3.708
37926W        W 1694  43.359   8.711  11.407
37927W        W 1695  26.088  30.142   1.778
37928W        W 1696  40.982  20.163  13.808
37929W        W 1697  13.235  30.481   3.754
37930W        W 1698  27.452  21.177  11.027
37931W        W 1699  37.921  32.905   4.149
37932W        W 1700   7.189  38.461   1.431
37933W        W 1701  42.353  18.572  11.080
37934W        W 1702  31.602  15.760  10.632
37935W        W 1703  35.447  25.049   3.854
37936W        W 1704  41.337  19.232  10.406
37937W        W 1705  29.003  14.688  12.526
37938W        W 1706  25.061  42.421   0.304
37939W        W 1707  22.247  17.769  12.973
37940W        W 1708  44.939  20.654  14.483
37941W        W 1709   4.882  20.037   2.767
37942W        W 1710  22.560  35.990  14.995
37943W        W 1711   4.824  24.138  13.013
37944W        W 1712   9.790  26.145   3.193
37945W        W 1713  29.009  41.319   1.311
37946W        W 1714  41.521  34.059   2.412
37947W        W 1715   8.379  26.092   4.300
37948W        W 1716   6.402  28.976   1.434
37949W        W 1717  19.701   1.838  13.989
37950W        W 1718  21.515  16.743  13.307
37951W        W 1719  35.072   5.896  13.387
37952W        W 1720  13.835  14.221   2.727
37953W        W 1721  13.814  31.431  13.815
37954W        W 1722   3.732   6.718   4.616
37955W        W 1723  34.557  12.201  12.526
37956W        W 1724  34.445  13.820  14.773
37957W        W 1725  34.072  37.070  14.275
37958W        W 1726   7.737   3.775   3.369
37959W        W 1727  20.130  12.659   4.310
37960W        W 1728  31.457   5.795   4.212
37961W        W 1729  42.391   2.233   2.297
37962W        W 1730   1.255  26.679  14.307
37963W        W 1731   9.838  25.650  12.357
37964W        W 1732  16.736  29.465   2.709
37965W        W 1733  21.738  34.881  12.870
37966W        W 1734  33.099  13.787   3.821
37967W        W 1735  15.765  34.961   4.641
37968W        W 1736  44.821  40.355   4.181
37969W        W 1737  25.554  11.628   1.725
37970W        W 1738  24.519  44.829  11.478
37971W        W 1739  32.537  31.951   2.878
37972W        W 1740   7.666  35.014   1.289
37973W        W 1741  17.165  15.137   0.346
37974W        W 1742   6.360  21.638   2.848
37975W        W 1743   7.304  26.685   0.829
37976W        W 1744  34.605   0.758   3.288
37977W        W 1745   8.213   3.843  10.619
37978W        W 1746   6.184  33.449   2.353
37979W        W 1747  27.183  37.429  12.954
37980W        W 1748   1.957  35.414   1.295
37981W        W 1749   9.250  10.159   0.448
37982W        W 1750  31.447  36.362   4.706
37983W        W 1751   9.879  23.729  12.452
37984W        W 1752  12.325   6.237  14.020
37985W        W 1753  40.389  40.813  10.942
37986W        W 1754  19.100  23.605   3.731
37987W        W 1755   1.472  11.697  11.860
37988W        W 1756  10.354  20.686  12.415
37989W        W 1757   9.688  36.366  11.394
37990W        W 1758   8.327   6.244  12.451
37991W        W 1759  13.339  43.338   2.810
37992W        W 1760  28.626  24.712  14.877
37993W        W 1761  39.050  29.121   5.783
37994W        W 1762   8.778  13.190  13.344
37995W        W 1763   2.893  21.164  10.459
37996W        W 1764  37.389  19.692  12.498
37997W        W 1765  28.019  44.402  13.480
37998W        W 1766  39.542  11.357   4.194
37999W        W 1767  41.307  34.891  10.602
38000W        W 1768  35.036   5.393  11.045
38001W        W 1769   7.253  16.155  13.018
38002W        W 1770   6.253  32.129  13.801
38003W        W 1771  14.141  17.753  14.912
38004W        W 1772   6.700  16.760  14.984
38005W        W 1773  38.525  11.159  10.985
38006W        W 1774  43.361  17.087  11.877
38007W        W 1775  36.449  30.502  14.943
38008W        W 1776   5.828   2.741  14.466
38009W        W 1777   6.705  35.521   0.829
38010W        W 1778  44.776  31.952   1.726
38011W        W 1779  34.045  16.752  10.998
38012W        W 1780  13.216   6.731   0.433
38013W        W 1781  17.743   6.738  14.025
38014W        W 1782  43.837  10.175   4.146
38015W        W 1783   4.363  43.924  10.413
38016W        W 1784  23.187   7.256   4.152
38017W        W 1785  43.373  44.803   2.283
38018W        W 1786  18.206  25.185  14.463
38019W        W 1787  22.052  11.667  12.574
38020W        W 1788  16.118  38.363   0.438
38021W        W 1789  22.232   4.261   4.661
38022W        W 1790  43.925  29.574   4.122
38023W        W 1791   4.313  16.743  12.862
38024W        W 1792  20.733  27.602   4.202
38025W        W 1793  29.591  34.036  12.088
38026W        W 1794  32.065  40.895  12.043
38027W        W 1795   8.856  30.975   2.711
38028W        W 1796  25.695   8.213   2.310
38029W        W 1797  26.029   2.463   0.851
38030W        W 1798  27.087  36.919  10.406
38031W        W 1799  24.584   0.830  12.549
38032W        W 1800   7.909  24.005   0.270
38033W        W 1801  18.699  41.957   2.899
38034W        W 1802  35.945  42.846  10.912
38035W        W 1803  12.314   6.847   4.165
38036W        W 1804  10.826  34.920  13.511
38037W        W 1805   1.265  10.191  10.633
38038W        W 1806  40.002  38.945  11.468
38039W        W 1807  13.283   1.837   3.665
38040W        W 1808  33.979  15.250  14.313
38041W        W 1809   9.833  23.546   1.884
38042W        W 1810   4.715  16.082  12.991
38043W        W 1811  30.979   2.868  10.409
38044W        W 1812  40.457   8.804   4.798
38045W        W 1813  31.148  14.146  10.564
38046W        W 1814  19.137  18.575  12.485
38047W        W 1815  15.178   4.314   3.369
38048W        W 1816  43.851  34.879   1.379
38049W        W 1817  18.248  25.632  10.570
38050W        W 1818  38.532   0.960   1.296
38051W        W 1819  36.938  33.003   5.651
38052W        W 1820  17.772  30.470   1.361
38053W        W 1821  40.013  10.704  14.978
38054W        W 1822  29.921   6.790   1.906
38055W        W 1823  29.033  41.906  12.545
38056W        W 1824  18.053  37.006   0.942
38057W        W 1825  27.107  29.974  10.562
38058W        W 1826  30.910  41.350   2.674
38059W        W 1827  34.611  10.356  13.878
38060W        W 1828  12.357   7.303  12.494
38061W        W 1829  16.809   9.343  12.055
38062W        W 1830   2.798  15.722   3.758
38063W        W 1831  25.072  34.408  14.841
38064W        W 1832  15.151  24.200  12.476
38065W        W 1833  33.086  32.917   3.349
38066W        W 1834   8.692   4.725  12.968
38067W        W 1835  15.311  40.819  12.349
38068W        W 1836  32.558  31.505  12.511
38069W        W 1837  44.993  18.178   4.600
38070W        W 1838  25.692  18.233   9.929
38071W        W 1839   1.390  15.681  10.610
38072W        W 1840  30.943  25.571  12.956
38073W        W 1841   3.287  27.627  13.018
38074W        W 1842  11.707  24.192   3.722
38075W        W 1843  21.749  26.045  12.560
38076W        W 1844   7.212  27.194   3.195
38077W        W 1845  34.058  42.309   4.270
38078W        W 1846   6.899   5.208  11.560
38079W        W 1847  21.512  11.812  12.420
38080W        W 1848  31.982  19.623   1.227
38081W        W 1849  44.394  26.544   0.319
38082W        W 1850  40.856  29.664   4.262
38083W        W 1851  21.147  19.100   4.780
38084W        W 1852  27.056  31.529  14.444
38085W        W 1853  23.155  30.468   4.599
38086W        W 1854  42.987  29.081   4.663
38087W        W 1855  32.622  10.645  13.481
38088W        W 1856  22.116  10.737  13.440
38089W        W 1857   1.386  19.596   1.315
38090W        W 1858  27.544   1.245  12.370
38091W        W 1859  43.320  31.008  11.001
38092W        W 1860  33.078  14.696  10.574
38093W        W 1861  36.068  43.478  14.480
38094W        W 1862  40.049  39.042  14.871
38095W        W 1863  29.928  16.084   4.633
38096W        W 1864  21.021  25.999  10.482
38097W        W 1865  11.852  42.885  12.531
38098W        W 1866  37.876  29.474  14.926
38099W        W 1867  43.831   8.286   0.346
38100W        W 1868  16.074   6.805   3.162
38101W        W 1869  34.446  38.824  11.470
38102W        W 1870  12.306  33.092  14.323
38103W        W 1871  38.043  27.469   1.315
38104W        W 1872   1.756  40.307  12.884
38105W        W 1873  40.868  40.875   2.772
38106W        W 1874   9.699  22.662  10.984
38107W        W 1875  29.611  19.610   5.129
38108W        W 1876   6.336  12.131  12.520
38109W        W 1877  35.089  40.366   2.725
38110W        W 1878  17.593  27.068  14.776
38111W        W 1879  40.414  26.181   4.705
38112W        W 1880   8.857   5.403  11.066
38113W        W 1881  32.943  15.100   0.953
38114W        W 1882  40.838  14.798  11.114
38115W        W 1883  43.429  40.910  12.940
38116W        W 1884  22.107  24.694  14.346
38117W        W 1885  33.489  42.480   3.178
38118W        W 1886  20.073  37.944  13.509
38119W        W 1887  28.557  17.270   4.266
38120W        W 1888  40.438   6.785   5.239
38121W        W 1889  35.445  42.376   2.883
38122W        W 1890  43.361   4.725   1.909
38123W        W 1891   2.459  36.886  14.921
38124W        W 1892  29.549  38.056  10.410
38125W        W 1893  17.657  11.688  12.079
38126W        W 1894  39.474  17.616   2.886
38127W        W 1895  22.234   4.758   0.817
38128W        W 1896   4.273  14.337  12.999
38129W        W 1897   4.803  38.879   1.699
38130W        W 1898  35.083  19.237  13.507
38131W        W 1899  38.894  28.450  13.999
38132W        W 1900  22.575  15.215  11.907
38133W        W 1901  28.626   9.693  11.503
38134W        W 1902  10.198  22.142   4.664
38135W        W 1903  18.292  12.175   4.243
38136W        W 1904  39.036  24.039   5.242
38137W        W 1905  41.363  29.105  14.769
38138W        W 1906  17.771  37.068   4.650
38139W        W 1907   6.263  28.103  12.033
38140W        W 1908  18.106  16.157   3.200
38141W        W 1909  37.001  28.482   9.446
38142W        W 1910  16.599  32.417   2.224
38143W        W 1911  43.419  39.816  11.957
38144W        W 1912  44.958  22.602  11.116
38145W        W 1913   8.183   3.387   4.217
38146W        W 1914   7.353  40.959  14.390
38147W        W 1915   7.780  11.358  12.073
38148W        W 1916  40.472  20.119  13.489
38149W        W 1917  32.114  37.923  12.983
38150W        W 1918  35.479  27.522   4.299
38151W        W 1919  37.407  29.043   0.772
38152W        W 1920  26.161  33.049  14.002
38153W        W 1921  19.130  27.987  11.531
38154W        W 1922  16.126  29.437   1.894
38155W        W 1923  35.916  29.973   3.849
38156W        W 1924  19.562  15.771   2.701
38157W        W 1925  26.562   7.358   4.193
38158W        W 1926  12.804   6.820  13.817
38159W        W 1927  30.078  19.164   0.472
38160W        W 1928  15.103   9.336  14.918
38161W        W 1929  30.105  36.365   3.864
38162W        W 1930  35.062  33.484  10.418
38163W        W 1931  25.177  42.475   4.607
38164W        W 1932   8.875  43.908   1.343
38165W        W 1933  31.606  27.657  10.951
38166W        W 1934  43.817   6.291   3.313
38167W        W 1935   8.308  38.870   4.146
38168W        W 1936  35.555   5.718   4.123
38169W        W 1937  37.930  29.028   0.473
38170W        W 1938  34.532  19.061   4.317
38171W        W 1939  29.979  13.306  14.455
38172W        W 1940  12.351   1.370   0.304
38173W        W 1941   9.692  16.236  14.333
38174W        W 1942   6.197   8.296  14.416
38175W        W 1943  19.655  24.228  14.288
38176W        W 1944   4.233  39.501  11.571
38177W        W 1945  35.048  13.196   0.731
38178W        W 1946   8.896   3.887   0.892
38179W        W 1947   9.687  39.427   0.345
38180W        W 1948   4.760  11.225   1.446
38181W        W 1949  11.180   6.861   4.237
38182W        W 1950  42.975  24.632   1.921
38183W        W 1951   7.352  41.384   4.650
38184W        W 1952  26.131   1.742   1.340
38185W        W 1953  25.658  39.996   3.239
38186W        W 1954   2.745  31.504   1.813
38187W        W 1955   5.708  35.480   2.231
38188W        W 1956  32.918   9.659  11.437
38189W        W 1957  41.949  33.084  14.303
38190W        W 1958  13.204  16.297   3.223
38191W        W 1959  17.086  22.177  10.451
38192W        W 1960  16.770  15.195  11.470
38193W        W 1961   5.231  44.278  11.108
38194W        W 1962  13.274  37.980  14.841
38195W        W 1963  36.544   7.749  11.412
38196W        W 1964  29.993  18.161  10.098
38197W        W 1965  28.931  43.003  10.071
38198W        W 1966  17.730  39.530   2.288
38199W        W 1967  44.859  35.907  13.807
38200W        W 1968  44.490  31.500   3.757
38201W        W 1969  19.668  26.515   1.792
38202W        W 1970   0.288  22.707  12.050
38203W        W 1971  24.041  28.947  10.507
38204W        W 1972  15.810  10.334  11.926
38205W        W 1973  44.389  30.966  14.004
38206W        W 1974  11.644  18.668   1.813
38207W        W 1975  31.946  23.187   0.279
38208W        W 1976   2.443  16.723  14.804
38209W        W 1977   6.824  19.053   2.697
38210W        W 1978  36.948  25.111   4.824
38211W        W 1979  14.236  17.758   0.437
38212W        W 1980  29.949   1.351   4.279
38213W        W 1981  25.047  15.617   2.303
38214W        W 1982  20.172   7.893   0.452
38215W        W 1983  17.289   3.939   2.244
38216W        W 1984  18.262  30.599   4.167
38217W        W 1985  14.624  11.325   3.857
38218W        W 1986  37.543   5.703   5.576
38219W        W 1987   5.389  22.227  11.596
38220W        W 1988  38.008   8.233   0.890
38221W        W 1989  44.341  44.794  12.343
38222W        W 1990   9.372   8.391   0.335
38223W        W 1991  17.192  35.909   4.325
38224W        W 1992  24.629  24.181  12.532
38225W        W 1993  41.007  35.517   0.815
38226W        W 1994  42.377  13.702  11.397
38227W        W 1995   9.703  43.476  13.815
38228W        W 1996  28.454  10.744  13.025
38229W        W 1997   8.163  16.218  12.053
38230W        W 1998   6.411  20.268   2.822
38231W        W 1999  28.467  36.364   2.378
38232W        W 2000   1.366  18.555  11.484
38233W        W 2001  41.824  34.394   4.195
38234W        W 2002  37.509  12.359  13.343
38235W        W 2003   1.386  29.948   0.809
38236W        W 2004  40.407   1.249  10.513
38237W        W 2005  20.654  21.526   1.715
38238W        W 2006  25.152  40.304   5.285
38239W        W 2007  21.589  37.874   2.897
38240W        W 2008  39.060  23.642  14.357
38241W        W 2009  24.629  11.672   3.650
38242W        W 2010  10.171  21.059   4.174
38243W        W 2011  26.026  38.402  11.037
38244W        W 2012  32.456  20.225   4.805
38245W        W 2013  12.360   9.159  13.337
38246W        W 2014  18.277  44.282  14.888
38247W        W 2015  39.434  29.155  12.449
38248W        W 2016  40.429  37.394   0.943
38249W        W 2017  13.142   4.721   3.241
38250W        W 2018  17.752  11.212   4.163
38251W        W 2019  35.085  11.756   0.377
38252W        W 2020  44.381   3.272  11.885
38253W        W 2021  29.162  33.084  12.395
38254W        W 2022  13.245   3.920  13.025
38255W        W 2023  36.372   2.732   2.308
38256W        W 2024  43.969   3.747   3.341
38257W        W 2025   2.740  26.179   2.862
38258W        W 2026  29.544  15.801   0.768
38259W        W 2027   8.728  43.873   3.150
38260W        W 2028  20.189  16.589  10.968
38261W        W 2029  44.372  21.600  12.579
38262W        W 2030   8.393  41.840   1.344
38263W        W 2031  18.623   8.736  11.012
38264W        W 2032  33.090  22.706  13.954
38265W        W 2033  13.165  44.372  10.492
38266W        W 2034  43.499  40.908   0.476
38267W        W 2035  22.207  36.561   2.220
38268W        W 2036  44.786  33.596   3.830
38269W        W 2037   8.315  19.266  13.838
38270W        W 2038  21.740  23.187   3.654
38271W        W 2039  40.483  33.607  12.489
38272W        W 2040   0.985   1.757  11.861
38273W        W 2041   6.900  40.972   0.785
38274W        W 2042  41.918   3.346   4.761
38275W        W 2043  41.527  40.507  12.463
38276W        W 2044  32.624  14.193   3.772
38277W        W 2045  28.561  32.587   4.347
38278W        W 2046   3.908  42.965   2.689
38279W        W 2047  33.504  42.908   2.255
38280W        W 2048   1.378  21.637   1.386
38281W        W 2049  21.236  32.960   0.273
38282W        W 2050  42.867   0.878   4.312
38283W        W 2051  39.056  44.442   4.785
38284W        W 2052  44.767  44.384   0.800
38285W        W 2053  24.038  20.273   4.605
38286W        W 2054  18.753  31.489   5.236
38287W        W 2055  20.710  32.539  10.997
38288W        W 2056   0.366  21.523  13.310
38289W        W 2057  32.899  22.050  12.464
38290W        W 2058  19.547  22.663   2.235
38291W        W 2059  37.039  24.979  13.856
38292W        W 2060  36.370  16.585  12.840
38293W        W 2061  22.999   1.265   0.915
38294W        W 2062  28.966  23.679   1.900
38295W        W 2063   0.266  16.101  11.025
38296W        W 2064  21.228  21.070   0.381
38297W        W 2065  27.689   9.325   4.151
38298W        W 2066  34.938  44.424  12.524
38299W        W 2067   0.803  32.433  10.499
38300W        W 2068  35.881  30.458  13.855
38301W        W 2069  22.085  21.099   1.805
38302W        W 2070  39.999  26.149   4.760
38303W        W 2071  20.084  38.407  14.484
38304W        W 2072  28.553   2.324   1.805
38305W        W 2073   6.901   8.377   2.348
38306W        W 2074  25.656  36.540   4.315
38307W        W 2075  34.463  30.584  14.894
38308W        W 2076   6.921  30.148   4.283
38309W        W 2077  33.920  20.632   0.390
38310W        W 2078  41.832  12.313  10.571
38311W        W 2079   5.837  19.536   1.721
38312W        W 2080  39.518  23.607  14.363
38313W        W 2081  36.455  29.017  14.852
38314W        W 2082  38.074  38.916  14.411
38315W        W 2083   1.754  40.432  11.003
38316W        W 2084   6.253  34.938   1.885
38317W        W 2085  17.565   2.426   2.720
38318W        W 2086  42.297  25.156   3.166
38319W        W 2087  30.103  44.336  10.409
38320W        W 2088  42.500  37.005  10.613
38321W        W 2089  24.991  41.530  12.842
38322W        W 2090  18.056  18.186  12.410
38323W        W 2091  24.048   1.780  12.963
38324W        W 2092   8.314   7.757   1.340
38325W        W 2093  26.483   2.873   4.826
38326W        W 2094   8.390  29.448  13.851
38327W        W 2095  18.601  35.002   2.385
38328W        W 2096   4.811  32.507   4.204
38329W        W 2097  39.321  24.031   1.767
38330W        W 2098  33.553  25.549  10.996
38331W        W 2099  11.748   9.369   4.695
38332W        W 2100   5.325  18.575  14.423
38333W        W 2101  32.106  20.258   1.437
38334W        W 2102   0.746  29.127   1.733
38335W        W 2103   7.806  12.261  12.903
38336W        W 2104  43.928  20.049   3.172
38337W        W 2105   2.265  24.513   4.801
38338W        W 2106  13.631   8.345  11.122
38339W        W 2107   3.312  18.781  12.881
38340W        W 2108   9.216  42.979  14.824
38341W        W 2109  41.966  18.217  14.356
38342W        W 2110   0.361  10.378  13.933
38343W        W 2111  21.052  33.117   4.167
38344W        W 2112   4.446  36.914   4.724
38345W        W 2113  32.107  40.000  10.408
38346W        W 2114  13.251   6.308  12.567
38347W        W 2115  25.068  31.647   5.094
38348W        W 2116  12.348   2.249  10.435
38349W        W 2117  19.681   1.473   3.331
38350W        W 2118  21.204  35.016   0.438
38351W        W 2119  40.510   3.294   0.262
38352W        W 2120  36.414  39.050   5.204
38353W        W 2121  26.066  27.577  12.504
38354W        W 2122  11.210  29.993   2.379
38355W        W 2123  28.589  20.272   4.155
38356W        W 2124  34.492  18.256  14.505
38357W        W 2125  43.996  17.557  10.523
38358W        W 2126   9.327  10.721   0.851
38359W        W 2127  27.630   6.778  10.634
38360W        W 2128  18.216   6.366  14.329
38361W        W 2129  26.964  41.859  14.409
38362W        W 2130   2.415   8.200   2.900
38363W        W 2131  12.285  21.216   0.349
38364W        W 2132  15.196  25.489  10.953
38365W        W 2133   7.844  44.848   1.804
38366W        W 2134   6.787  33.516  10.629
38367W        W 2135  36.011  35.990  14.948
38368W        W 2136  24.128   7.371   4.702
38369W        W 2137  39.042  28.012   1.749
38370W        W 2138   2.334  33.552  11.466
38371W        W 2139  13.339  26.539  13.933
38372W        W 2140  34.098  13.283  12.033
38373W        W 2141  22.573  20.633  12.950
38374W        W 2142  10.683  22.717   3.383
38375W        W 2143  13.242  19.250  13.028
38376W        W 2144  40.526  32.984  12.078
38377W        W 2145   1.890  24.131   1.399
38378W        W 2146  26.674  20.762  14.492
38379W        W 2147  37.003  39.354   4.607
38380W        W 2148  35.899  40.813   2.837
38381W        W 2149  17.152  21.187   1.439
38382W        W 2150  37.342   4.943   4.281
38383W        W 2151  19.679   7.672  11.432
38384W        W 2152  34.954  31.927   4.734
38385W        W 2153  10.336  27.684   0.346
38386W        W 2154  25.699  43.345   2.835
38387W        W 2155  35.493  23.618  14.360
38388W        W 2156  14.809  16.164  10.962
38389W        W 2157  40.030  11.647   4.318
38390W        W 2158  14.117   6.298  11.121
38391W        W 2159  11.630   4.886  10.928
38392W        W 2160  42.961  18.177   2.208
38393W        W 2161  20.619  26.580  11.923
38394W        W 2162   4.758  17.265   2.243
38395W        W 2163  17.717  12.327  14.928
38396W        W 2164  38.562   2.925   2.779
38397W        W 2165  10.359   0.927   2.186
38398W        W 2166  34.923  19.168  14.920
38399W        W 2167   3.417   5.259   0.748
38400W        W 2168  14.304  14.330   3.782
38401W        W 2169  41.881  25.485  12.860
38402W        W 2170  31.602  30.585  14.989
38403W        W 2171  40.025  29.145  14.990
38404W        W 2172  27.176  30.015   0.372
38405W        W 2173  23.162  36.853  11.462
38406W        W 2174  36.482  12.182  12.366
38407W        W 2175   4.305  34.914  14.502
38408W        W 2176  34.914  27.943   0.834
38409W        W 2177   5.282   7.198  12.854
38410W        W 2178  14.742  13.321   0.301
38411W        W 2179  22.727   1.866  13.355
38412W        W 2180  35.059  19.654  10.572
38413W        W 2181  20.701   5.782   2.857
38414W        W 2182   8.186   9.236   3.649
38415W        W 2183  37.056  10.669   5.585
38416W        W 2184   4.403  42.902  11.878
38417W        W 2185   4.364  27.137   0.454
38418W        W 2186  14.306   5.264  12.849
38419W        W 2187  16.088   2.285  10.609
38420W        W 2188  26.010  43.887   0.901
38421W        W 2189  39.539  19.077   4.777
38422W        W 2190  10.164  20.690  14.278
38423W        W 2191   3.263  12.265   1.264
38424W        W 2192  17.655  38.559  11.431
38425W        W 2193  13.248  18.625  13.015
38426W        W 2194  42.368  23.734  13.515
38427W        W 2195  12.124   4.308   0.828
38428W        W 2196  24.182  31.014  11.536
38429W        W 2197  17.652   7.337   0.414
38430W        W 2198  14.102   7.254  14.361
38431W        W 2199  24.155  35.444   1.824
38432W        W 2200  32.475  27.545   4.181
38433W        W 2201   4.215   7.403  11.928
38434W        W 2202  19.622  18.282  12.352
38435W        W 2203  18.180   2.886  13.992
38436W        W 2204  11.772  20.638  12.454
38437W        W 2205   4.885   5.812  10.437
38438W        W 2206   5.415  32.501  14.482
38439W        W 2207  44.295   2.465  11.434
38440W        W 2208  43.402  39.014   4.337
38441W        W 2209   3.295  19.700   0.364
38442W        W 2210  29.987  17.676  10.948
38443W        W 2211  16.239  39.432  12.404
38444W        W 2212  23.098   2.787  14.770
38445W        W 2213  24.228  25.968  11.109
38446W        W 2214  34.547  13.803   1.443
38447W        W 2215  29.966  19.095  12.023
38448W        W 2216  21.197  32.110  12.073
38449W        W 2217  28.640  25.057   4.288
38450W        W 2218  27.955  34.378  12.432
38451W        W 2219  34.929  17.703   0.746
38452W        W 2220  18.255  35.883   5.174
38453W        W 2221  37.397  36.362  11.593
38454W        W 2222  13.306  23.996  13.957
38455W        W 2223  44.286  21.076  12.003
38456W        W 2224  35.862   7.822  10.980
38457W        W 2225   1.846  20.616   0.376
38458W        W 2226   8.271  17.797  13.498
38459W        W 2227  40.392  26.969   4.824
38460W        W 2228  14.627   8.180  11.065
38461W        W 2229  36.482  41.405   1.353
38462W        W 2230  34.545  31.071  13.931
38463W        W 2231  14.247  18.202   0.328
38464W        W 2232   2.236  31.438  13.405
38465W        W 2233   8.759  16.104  13.457
38466W        W 2234  23.551   7.351   2.745
38467W        W 2235  18.575  35.906  10.439
38468W        W 2236  35.517  41.828   4.196
38469W        W 2237  35.871  31.915   3.387
38470W        W 2238   4.333   3.850   0.455
38471W        W 2239   4.882  11.730  12.944
38472W        W 2240  30.460  31.428   4.276
38473W        W 2241  31.103  24.652   3.297
38474W        W 2242   9.258  38.851   2.856
38475W        W 2243   6.391  18.064  10.596
38476W        W 2244  43.956  19.069  11.535
38477W        W 2245   1.391  19.105  11.918
38478W        W 2246  17.692  30.035  10.462
38479W        W 2247  26.569   9.375   4.211
38480W        W 2248  43.507   5.289  13.508
38481W        W 2249  17.592   2.888  12.419
38482W        W 2250   5.277  39.909  11.510
38483W        W 2251  35.588  42.804  14.298
38484W        W 2252  11.326  29.623   0.416
38485W        W 2253  35.979  10.213  11.857
38486W        W 2254  41.004   0.925   4.801
38487W        W 2255   9.235  14.157   0.412
38488W        W 2256  42.304  13.731   3.369
38489W        W 2257  17.211  26.013  11.978
38490W        W 2258  41.444  11.275   1.236
38491W        W 2259  43.914  25.115  10.570
38492W        W 2260  19.609  19.703   4.262
38493W        W 2261  33.902  13.176  10.491
38494W        W 2262  30.934  25.182  13.024
38495W        W 2263  35.478   7.224   3.174
38496W        W 2264   9.823  37.835   3.822
38497W        W 2265  14.665  14.321   1.900
38498W        W 2266  42.849  43.012  13.497
38499W        W 2267  38.366  42.854   1.391
38500W        W 2268  26.661   3.723   0.810
38501W        W 2269  37.495  41.810   0.890
38502W        W 2270  36.446  33.570   1.828
38503W        W 2271  11.760  21.238  11.033
38504W        W 2272  43.954  27.138   1.861
38505W        W 2273  20.142   1.816   4.322
38506W        W 2274  41.469   5.199  11.113
38507W        W 2275   9.156  15.310  13.493
38508W        W 2276  17.166   1.284  12.467
38509W        W 2277  10.350   6.744   2.253
38510W        W 2278  36.475  33.430   0.947
38511W        W 2279  15.228  23.036  12.096
38512W        W 2280  28.574   5.386   3.869
38513W        W 2281  40.856  34.554  10.448
38514W        W 2282  11.291  17.569  14.480
38515W        W 2283  30.623  38.522   2.377
38516W        W 2284  20.529   0.378  14.907
38517W        W 2285  44.362   3.445   5.300
38518W        W 2286  24.605  23.623  14.916
38519W        W 2287  32.419  26.481   1.807
38520W        W 2288  15.783  10.849  12.461
38521W        W 2289  22.047   4.419  12.423
38522W        W 2290  44.918   8.271  12.433
38523W        W 2291  10.835   3.262   0.834
38524W        W 2292  28.493  40.897  12.910
38525W        W 2293  42.410  19.674   1.700
38526W        W 2294   4.377  44.008   0.891
38527W        W 2295  19.552  32.406  11.957
38528W        W 2296  23.711  34.956   2.275
38529W        W 2297  31.920  40.486  14.394
38530W        W 2298  27.947  10.279   0.847
38531W        W 2299  43.321   5.328   2.687
38532W        W 2300  35.505  20.075   1.894
38533W        W 2301  21.059   1.426  13.469
38534W        W 2302  15.692  11.762  13.508
38535W        W 2303  19.644  15.123  14.477
38536W        W 2304  21.249   3.217   2.315
38537W        W 2305  33.599  33.043   4.683
38538W        W 2306  44.337  19.236   4.773
38539W        W 2307  17.061  22.149  12.895
38540W        W 2308  38.480  26.516   2.368
38541W        W 2309  31.107  37.847   1.809
38542W        W 2310  16.785  18.747   3.782
38543W        W 2311  17.197  44.262   2.339
38544W        W 2312  12.632  12.855   3.733
38545W        W 2313  20.732  38.521  13.865
38546W        W 2314  35.032  40.839  10.937
38547W        W 2315  36.553  17.556  13.966
38548W        W 2316  42.444  23.129   3.241
38549W        W 2317  30.132  15.661  10.526
38550W        W 2318  37.923   6.748   3.812
38551W        W 2319   0.376  24.106  11.461
38552W        W 2320  24.525  23.610   1.928
38553W        W 2321  34.095  28.182  12.529
38554W        W 2322  25.634   2.927   4.238
38555W        W 2323  15.726  35.555  10.467
38556W        W 2324   4.837   9.706   0.732
38557W        W 2325  22.087  33.497  14.322
38558W        W 2326  39.051  24.570  11.952
38559W        W 2327  19.658   2.420  14.965
38560W        W 2328  24.983  41.512   0.368
38561W        W 2329   5.272  29.062   4.781
38562W        W 2330   3.376  38.071  13.850
38563W        W 2331  25.580  26.633   0.456
38564W        W 2332   6.331  11.865   0.361
38565W        W 2333   4.355  21.525  14.884
38566W        W 2334  44.469   0.338  11.105
38567W        W 2335  16.280  23.514   3.836
38568W        W 2336  11.312  40.466   4.203
38569W        W 2337  31.540   4.939  13.040
38570W        W 2338   8.314  43.459  14.772
38571W        W 2339  24.711   1.753   3.181
38572W        W 2340  21.153  19.701   0.313
38573W        W 2341  30.978  29.555  10.569
38574W        W 2342  15.223  12.291   0.383
38575W        W 2343  39.411  13.344   1.793
38576W        W 2344   1.304  40.512   3.738
38577W        W 2345  17.204  39.004   4.127
38578W        W 2346  41.794   4.280  11.906
38579W        W 2347   0.274  14.609   4.621
38580W        W 2348  18.659  22.696  13.528
38581W        W 2349  37.444  12.816  13.403
38582W        W 2350  30.911  19.678   0.243
38583W        W 2351  20.551  39.844   1.895
38584W        W 2352   7.864  41.876  12.967
38585W        W 2353   9.740  28.143   2.308
38586W        W 2354   6.366  14.733  11.509
38587W        W 2355  37.343  25.492   3.210
38588W        W 2356  28.169   9.307  10.514
38589W        W 2357  33.978   5.744  13.895
38590W        W 2358  26.096  31.137   2.756
38591W        W 2359  14.639  13.620  13.999
38592W        W 2360  15.699  41.481   3.718
38593W        W 2361  11.834   3.221  12.548
38594W        W 2362   0.465  20.175   0.395
38595W        W 2363  39.417  14.136   0.332
38596W        W 2364   3.287   2.257  14.291
38597W        W 2365  40.374  27.178  12.976
38598W        W 2366  37.972  36.573  12.944
38599W        W 2367  13.745  19.583  12.842
38600W        W 2368  20.695  34.007  14.012
38601W        W 2369  39.539   4.738   1.901
38602W        W 2370  43.390  43.483   2.311
38603W        W 2371  33.053   4.245   4.192
38604W        W 2372  29.070  34.970  14.941
38605W        W 2373  36.582  32.108   4.181
38606W        W 2374  33.422  20.055   0.278
38607W        W 2375  14.120  12.227   0.918
38608W        W 2376  26.458  18.239   3.706
38609W        W 2377   5.933  27.687  10.461
38610W        W 2378  18.222   5.383  11.878
38611W        W 2379  36.997   8.385  13.986
38612W        W 2380  17.228  14.295  10.464
38613W        W 2381   1.961  25.002   4.602
38614W        W 2382  16.312  41.353  13.899
38615W        W 2383  43.870  13.121   0.444
38616W        W 2384   0.960  12.629   2.827
38617W        W 2385  10.739  43.014   2.186
38618W        W 2386  40.394   9.814   2.338
38619W        W 2387  25.707   1.757   1.810
38620W        W 2388  32.607  19.254   2.834
38621W        W 2389  19.632  21.756   3.789
38622W        W 2390  10.237  29.924   0.341
38623W        W 2391  13.206  43.272  14.827
38624W        W 2392   2.947  40.904   0.443
38625W        W 2393  28.449  15.291   4.625
38626W        W 2394  42.527  30.620  14.977
38627W        W 2395  22.579   1.468   3.364
38628W        W 2396  41.301  29.424  13.336
38629W        W 2397  38.487  19.600  13.961
38630W        W 2398  16.688  16.704  10.072
38631W        W 2399  14.728  21.232   3.239
38632W        W 2400   1.456  17.227  11.920
38633W        W 2401   3.863  43.947  13.906
38634W        W 2402   2.803  43.808   1.819
38635W        W 2403  36.394  43.017   2.785
38636W        W 2404  24.589   8.824   4.341
38637W        W 2405  42.994  12.633  11.924
38638W        W 2406  18.279  13.190   2.800
38639W        W 2407  16.782  19.680  11.608
38640W        W 2408  15.670  13.343  10.445
38641W        W 2409   5.758   4.788  12.934
38642W        W 2410   1.947  25.659  13.424
38643W        W 2411   7.250  24.605  12.962
38644W        W 2412  10.634  25.528   4.658
38645W        W 2413   6.408  29.063  10.551
38646W        W 2414  23.175  11.158   3.783
38647W        W 2415  25.987   7.684   0.830
38648W        W 2416  18.176   7.400   4.627
38649W        W 2417  13.134  33.595   3.687
38650W        W 2418   0.987  13.652  12.452
38651W        W 2419  16.110   6.714  12.933
38652W        W 2420  18.650  18.296   0.274
38653W        W 2421   8.405   6.298  14.887
38654W        W 2422  13.715   9.743  10.013
38655W        W 2423   6.804   1.439  13.481
38656W        W 2424  38.059   0.352  13.523
38657W        W 2425  29.929  31.969  13.897
38658W        W 2426   8.681  41.423   3.808
38659W        W 2427   3.224   1.455  11.603
38660W        W 2428  26.527  19.576   2.296
38661W        W 2429  40.411  33.570  10.133
38662W        W 2430  11.302  18.212   1.223
38663W        W 2431  43.861   0.924  13.902
38664W        W 2432   2.788  23.010  13.877
38665W        W 2433  21.243  18.088   3.266
38666W        W 2434   4.869  20.657  10.405
38667W        W 2435   9.834  17.083  10.498
38668W        W 2436   8.281  29.641  14.991
38669W        W 2437  22.745  21.685   1.726
38670W        W 2438  22.024  43.856   0.477
38671W        W 2439  42.361   2.847  14.810
38672W        W 2440  20.202  15.196  10.643
38673W        W 2441  19.095  22.525  12.041
38674W        W 2442  29.662   3.428   4.797
38675W        W 2443  18.618  10.699  12.553
38676W        W 2444  29.098  29.481   0.777
38677W        W 2445  10.647  21.210   1.389
38678W        W 2446  21.243  28.119   9.935
38679W        W 2447  21.624   0.471  11.444
38680W        W 2448   2.779  33.426  11.064
38681W        W 2449  14.129  42.940   1.787
38682W        W 2450  41.459  10.316   2.685
38683W        W 2451  32.013  12.812  14.008
38684W        W 2452  18.653  33.535   1.832
38685W        W 2453  35.016  44.921   3.346
38686W        W 2454  19.048  35.919   1.230
38687W        W 2455   6.333  10.300   0.761
38688W        W 2456  28.610  26.161  10.526
38689W        W 2457  18.185  31.072   3.767
38690W        W 2458   7.236  13.697   1.770
38691W        W 2459  44.979   0.864  12.379
38692W        W 2460  19.624  19.691   4.723
38693W        W 2461  34.395  34.093   0.791
38694W        W 2462  10.778  25.109   2.239
38695W        W 2463  10.316   8.380  11.921
38696W        W 2464  21.244  34.497  11.535
38697W        W 2465  22.034  17.643   1.862
38698W        W 2466  13.330  27.084  11.123
38699W        W 2467  15.772  27.449   0.729
38700W        W 2468  32.957  44.768  11.393
38701W        W 2469  24.149  36.370  14.282
38702W        W 2470  43.288   8.377  13.992
38703W        W 2471   2.263   4.719  10.892
38704W        W 2472  43.801  33.918  12.067
38705W        W 2473  30.119   1.951   1.423
38706W        W 2474  11.673  15.239  14.488
38707W        W 2475   8.882  37.968  14.994
38708W        W 2476  20.679  34.467  11.120
38709W        W 2477  33.933  37.964  11.065
38710W        W 2478  41.380  44.860  13.432
38711W        W 2479  21.584  37.900  11.102
38712W        W 2480   8.673  32.111   4.291
38713W        W 2481  23.698  44.419   0.438
38714W        W 2482  26.505   2.953  12.036
38715W        W 2483  28.954  23.575   0.407
38716W        W 2484  16.111   5.851   0.756
38717W        W 2485  25.599  22.099  11.513
38718W        W 2486  25.538  37.856   9.525
38719W        W 2487  40.037  36.981  13.453
38720W        W 2488  40.360  21.150  14.293
38721W        W 2489  14.774   1.384   2.819
38722W        W 2490  10.254  23.549   0.910
38723W        W 2491  42.518  40.400  12.416
38724W        W 2492  13.160  36.027  11.049
38725W        W 2493  33.427  23.696   2.201
38726W        W 2494  19.540   7.299  14.775
38727W        W 2495  23.645   6.731   4.198
38728W        W 2496  18.607  39.486   4.226
38729W        W 2497   6.195  21.718   0.314
38730W        W 2498  35.446  27.600   2.677
38731W        W 2499   4.248   2.277   0.375
38732W        W 2500  24.231   6.208   3.678
38733W        W 2501  31.956  13.129  12.962
38734W        W 2502  28.443  29.453   3.246
38735W        W 2503  25.177   8.668   3.857
38736W        W 2504  40.952  19.109  13.492
38737W        W 2505  13.787   0.749  12.902
38738W        W 2506  31.124   4.355  12.450
38739W        W 2507  15.622  42.302  11.871
38740W        W 2508   4.384   3.892   4.660
38741W        W 2509  28.664  41.810  14.012
38742W        W 2510  13.789  38.982   3.227
38743W        W 2511  25.692  12.732   3.816
38744W        W 2512  39.842   7.760   2.881
38745W        W 2513  41.819  29.151   3.150
38746W        W 2514  16.739  40.055   4.179
38747W        W 2515  27.094  11.749   5.620
38748W        W 2516  15.250   3.321   1.812
38749W        W 2517   9.857   7.366  11.097
38750W        W 2518   7.213  17.767  12.910
38751W        W 2519  28.993  19.202   4.343
38752W        W 2520   0.451  25.639   3.233
38753W        W 2521  23.706  31.897   1.337
38754W        W 2522  29.535   1.733  13.808
38755W        W 2523  20.567  31.568  10.469
38756W        W 2524  36.996  37.451   1.767
38757W        W 2525  20.130   5.313  10.524
38758W        W 2526  44.770  22.711  14.029
38759W        W 2527  34.951  29.489   3.828
38760W        W 2528  18.267  13.605   3.198
38761W        W 2529   5.710   6.829  13.809
38762W        W 2530  44.389  12.176   3.197
38763W        W 2531  44.264   5.255   3.179
38764W        W 2532   7.171   8.278  14.299
38765W        W 2533   9.165  33.969  11.013
38766W        W 2534  25.481  39.387   3.786
38767W        W 2535  26.132  31.497   4.275
38768W        W 2536  43.990   5.295  13.852
38769W        W 2537  36.372  21.026  12.091
38770W        W 2538   9.328  33.482  12.910
38771W        W 2539  14.173  41.503  13.358
38772W        W 2540  39.808  41.912   2.417
38773W        W 2541  30.989  40.868  11.520
38774W        W 2542  21.170  42.461   1.254
38775W        W 2543  18.186  12.164  10.946
38776W        W 2544  19.597   7.171   0.325
38777W        W 2545  12.806  28.514   1.330
38778W        W 2546  11.373  38.982  12.838
38779W        W 2547  20.754  44.983  11.535
38780W        W 2548   7.859  20.684  13.361
38781W        W 2549  10.207  27.173  14.292
38782W        W 2550  16.801  16.703   2.376
38783W        W 2551  40.545  21.210  13.045
38784W        W 2552  40.852  22.171   3.691
38785W        W 2553  16.723  42.938   1.326
38786W        W 2554   2.379  16.598   2.833
38787W        W 2555  33.476  44.469  11.377
38788W        W 2556   1.753  30.938  14.457
38789W        W 2557  31.611   9.211   4.831
38790W        W 2558   4.409   6.384   1.341
38791W        W 2559  36.457  40.806   4.713
38792W        W 2560  10.661   7.247  12.904
38793W        W 2561  38.505  26.149  10.412
38794W        W 2562  21.742  41.372   3.669
38795W        W 2563   9.224   5.931   1.754
38796W        W 2564  41.421   6.810   4.124
38797W        W 2565  29.544   2.818   4.650
38798W        W 2566  32.004  36.069   1.294
38799W        W 2567  22.703   1.911  10.051
38800W        W 2568  25.054  23.687   1.371
38801W        W 2569  28.674  12.276  10.565
38802W        W 2570   8.697   7.723  14.820
38803W        W 2571   1.291   3.814   1.241
38804W        W 2572  42.886  24.091   4.607
38805W        W 2573  34.570  27.162  13.542
38806W        W 2574  29.029  15.767  13.421
38807W        W 2575  22.672  38.903   3.192
38808W        W 2576   6.345  37.903   2.758
38809W        W 2577  17.260  16.621   5.607
38810W        W 2578  13.840  33.470   4.803
38811W        W 2579  27.954   7.869   4.295
38812W        W 2580  27.136   5.308  11.128
38813W        W 2581  25.970  15.641  10.946
38814W        W 2582  25.532  11.293  14.935
38815W        W 2583  28.075  37.066  12.438
38816W        W 2584  30.990  15.759   1.853
38817W        W 2585  28.958  27.591  11.995
38818W        W 2586  25.132  44.780   0.249
38819W        W 2587  30.945  29.555  14.408
38820W        W 2588  20.234   0.365  11.124
38821W        W 2589  40.889   8.344  10.511
38822W        W 2590  14.201  38.438   4.791
38823W        W 2591  35.424  35.932  14.383
38824W        W 2592  42.428   3.313   3.706
38825W        W 2593  31.516  43.901  13.342
38826W        W 2594  38.499   7.263   1.769
38827W        W 2595  25.710  12.218   3.854
38828W        W 2596   0.288  38.041  12.436
38829W        W 2597  31.621  31.527  14.887
38830W        W 2598  31.418  20.132  13.466
38831W        W 2599  43.343  26.184   0.769
38832W        W 2600  26.052   8.788   4.816
38833W        W 2601  44.870  38.876  13.450
38834W        W 2602   1.920   5.275  14.028
38835W        W 2603  23.610  32.494   3.164
38836W        W 2604   8.848   3.939   1.779
38837W        W 2605  28.015  11.718  12.442
38838W        W 2606  19.770   1.970   2.668
38839W        W 2607  22.711  40.332  10.488
38840W        W 2608  18.239  22.098   4.722
38841W        W 2609  13.619  33.944  13.479
38842W        W 2610  19.074  43.504  13.910
38843W        W 2611  13.269   1.276  11.565
38844W        W 2612   5.765  33.888   3.298
38845W        W 2613  23.507  39.933  13.379
38846W        W 2614  26.516  14.751   1.874
38847W        W 2615  41.403   8.806   1.267
38848W        W 2616  33.438  16.078   4.194
38849W        W 2617   9.777  32.086   2.381
38850W        W 2618  30.479  17.621  10.942
38851W        W 2619  40.423  21.617  14.997
38852W        W 2620  37.974  21.609  10.535
38853W        W 2621   0.936  24.129   2.843
38854W        W 2622  43.812  26.990   1.381
38855W        W 2623  28.558  18.238  10.497
38856W        W 2624  17.598  12.316   1.247
38857W        W 2625  18.207   2.440   2.275
38858W        W 2626  30.631   9.152  13.046
38859W        W 2627  29.147  11.225  14.797
38860W        W 2628   6.864  44.933   0.883
38861W        W 2629  37.053  33.439  10.157
38862W        W 2630   0.262  11.802  13.872
38863W        W 2631  11.164  42.932   0.463
38864W        W 2632  29.619  21.047   0.763
38865W        W 2633  31.052  40.051  13.944
38866W        W 2634  26.037  35.482  11.433
38867W        W 2635  30.131  18.277  12.082
38868W        W 2636   3.395  28.081   0.943
38869W        W 2637  23.710  40.489   4.208
38870W        W 2638   1.258  38.069  13.356
38871W        W 2639  24.712  26.183   0.775
38872W        W 2640  40.011  14.612  11.125
38873W        W 2641  26.013  38.558   4.805
38874W        W 2642   1.427   5.427  12.009
38875W        W 2643  32.402  27.533  14.516
38876W        W 2644   2.428  26.596  14.448
38877W        W 2645  28.111  21.081   9.939
38878W        W 2646   7.235   5.812   1.423
38879W        W 2647  41.986   8.332   3.675
38880W        W 2648  22.593  43.963   1.785
38881W        W 2649  25.997  30.043  11.070
38882W        W 2650   9.373  22.237   0.454
38883W        W 2651  20.248  14.709  12.020
38884W        W 2652  41.365  14.336   0.257
38885W        W 2653   6.385  36.376   1.800
38886W        W 2654  33.068  41.030   1.824
38887W        W 2655   0.294  41.913  13.377
38888W        W 2656  39.507   3.797  14.499
38889W        W 2657  36.857  16.167   0.806
38890W        W 2658   0.474  16.290   0.930
38891W        W 2659   0.975  20.736   0.277
38892W        W 2660  20.543   3.932   0.822
38893W        W 2661  27.669  28.102   2.797
38894W        W 2662   8.840  24.507  13.384
38895W        W 2663  26.486   2.815   0.322
38896W        W 2664  37.878  12.225  13.836
38897W        W 2665   8.316  10.310  11.049
38898W        W 2666  37.888   2.800   0.826
38899W        W 2667   4.790  44.929  14.908
38900W        W 2668  28.631  25.553   3.323
38901W        W 2669  37.854  34.577  13.925
38902W        W 2670  12.195  24.995   0.965
38903W        W 2671  38.841  17.559   1.852
38904W        W 2672  10.679  29.144   2.211
38905W        W 2673   4.929   3.772  14.998
38906W        W 2674  25.003  17.250  13.055
38907W        W 2675  13.691  23.687   4.722
38908W        W 2676   3.816   3.712   2.824
38909W        W 2677  30.608  43.313   3.332
38910W        W 2678   4.364  23.613  10.901
38911W        W 2679  37.932  18.117  10.598
38912W        W 2680  42.468   3.954   2.808
38913W        W 2681  22.210  23.527   0.809
38914W        W 2682  34.494  30.918  11.965
38915W        W 2683   1.855  33.009  12.021
38916W        W 2684   2.296   4.803  12.066
38917W        W 2685   5.392  29.947   3.699
38918W        W 2686  44.950   1.440  14.512
38919W        W 2687   6.308  10.364  13.867
38920W        W 2688  13.180   7.340   2.293
38921W        W 2689  29.426   5.246   2.673
38922W        W 2690  20.550  17.643   1.246
38923W        W 2691  43.938  17.683   4.745
38924W        W 2692  29.117  16.608   4.604
38925W        W 2693   2.750  20.556  11.402
38926W        W 2694  19.229  40.956   1.308
38927W        W 2695  20.250  17.154   1.898
38928W        W 2696   3.723  44.347  12.837
38929W        W 2697  18.207  42.014   2.795
38930W        W 2698  25.201  10.170  10.600
38931W        W 2699  24.030  43.765  14.491
38932W        W 2700  38.043  37.514  11.064
38933W        W 2701  43.377  42.810   3.777
38934W        W 2702   8.736  37.003   3.217
38935W        W 2703  12.812   0.878   3.720
38936W        W 2704  21.052  39.399  14.343
38937W        W 2705   3.459  22.559   1.732
38938W        W 2706  43.934   6.291  10.512
38939W        W 2707  28.508  37.443  14.334
38940W        W 2708  16.261  14.189   3.284
38941W        W 2709  38.463  19.266   3.794
38942W        W 2710  33.495   9.241  10.567
38943W        W 2711   5.205  15.317   2.783
38944W        W 2712  22.229   8.721  10.963
38945W        W 2713  28.127  32.067  14.873
38946W        W 2714  21.101  17.560   1.798
38947W        W 2715  24.174  15.647   4.193
38948W        W 2716  16.746  38.530  13.518
38949W        W 2717  16.140  40.026  13.405
38950W        W 2718  19.062  12.357  13.890
38951W        W 2719  24.607  41.314   3.642
38952W        W 2720  22.161  34.599   0.299
38953W        W 2721  30.506  41.407  10.538
38954W        W 2722  13.720  25.708   9.573
38955W        W 2723  14.094  28.562  12.080
38956W        W 2724  17.717  34.943  14.317
38957W        W 2725  33.048   2.330   0.804
38958W        W 2726   5.835  11.211  14.360
38959W        W 2727  33.005   5.823  11.374
38960W        W 2728  29.919   1.777   2.296
38961W        W 2729  22.202  21.218   3.722
38962W        W 2730  13.229  22.057  12.340
38963W        W 2731  15.141  34.548  10.987
38964W        W 2732  42.935  27.176   2.797
38965W        W 2733  33.932  14.688  13.034
38966W        W 2734  44.841  44.853   0.955
38967W        W 2735   7.708  41.428  10.596
38968W        W 2736   8.222   6.792  13.477
38969W        W 2737   4.446  12.648   0.929
38970W        W 2738   7.235  23.557  13.515
38971W        W 2739  36.400  23.019  12.418
38972W        W 2740  22.136  22.996  12.364
38973W        W 2741  22.740  23.195   4.275
38974W        W 2742  39.832  35.071   3.228
38975W        W 2743  20.090  19.615   2.321
38976W        W 2744  11.701  29.997  11.915
38977W        W 2745  38.988  43.455   0.903
38978W        W 2746   4.771  16.763  14.829
38979W        W 2747  32.994   5.764   0.914
38980W        W 2748   1.320  26.097   0.405
38981W        W 2749  12.778  37.550  12.991
38982W        W 2750  31.976   7.409   9.995
38983W        W 2751  34.490   1.395   1.451
38984W        W 2752  22.590  35.577  10.941
38985W        W 2753  21.524  24.153   0.298
38986W        W 2754  24.069   4.342   3.373
38987W        W 2755  10.753   0.305  13.343
38988W        W 2756  19.773  35.515  13.487
38989W        W 2757  43.973  38.936  12.439
38990W        W 2758  37.882  30.640   2.844
38991W        W 2759  23.532   2.811  12.385
38992W        W 2760  33.003  31.434   3.277
38993W        W 2761  43.814  40.021  13.059
38994W        W 2762  10.791  28.451  13.955
38995W        W 2763  18.683  20.042  12.881
38996W        W 2764  14.674  27.061  12.888
38997W        W 2765  18.279  26.637  11.916
38998W        W 2766  41.484  29.952  14.434
38999W        W 2767   5.193  27.454   0.391
39000W        W 2768   5.379  27.550  11.942
39001W        W 2769  36.380  23.188  13.361
39002W        W 2770  31.502  37.919  12.999
39003W        W 2771  25.965  14.336  10.066
39004W        W 2772  25.109  17.623  10.971
39005W        W 2773  13.650  13.343  12.489
39006W        W 2774  12.350   4.822  10.080
39007W        W 2775  15.245  16.122  13.376
39008W        W 2776  27.970  31.982  11.485
39009W        W 2777  21.152  27.193   2.226
39010W        W 2778   7.737  23.619   3.371
39011W        W 2779   7.733  12.837  12.397
39012W        W 2780   4.935  11.837   1.832
39013W        W 2781  15.246  25.642  13.997
39014W        W 2782  39.039   0.846   4.732
39015W        W 2783  37.839  26.968  14.492
39016W        W 2784  33.566  24.974  13.795
39017W        W 2785  25.531  13.787   3.867
39018W        W 2786   5.821  19.139   1.408
39019W        W 2787  44.875   1.282  14.775
39020W        W 2788   4.832  36.046  13.891
39021W        W 2789  31.454  44.280  11.467
39022W        W 2790  14.819   8.793  10.437
39023W        W 2791  26.170  38.502   4.237
39024W        W 2792  44.361  32.537   4.138
39025W        W 2793  24.205   0.249   0.474
39026W        W 2794  44.337  21.111   1.245
39027W        W 2795  18.704  30.977  10.047
39028W        W 2796  17.153   4.447  14.792
39029W        W 2797  27.486   8.274   1.762
39030W        W 2798  15.151  37.947  12.350
39031W        W 2799  22.511  40.458   2.756
39032W        W 2800  27.539   9.682  14.952
39033W        W 2801  21.204  29.555   0.798
39034W        W 2802   6.364   3.414   4.692
39035W        W 2803  42.780  16.103   0.727
39036W        W 2804  22.062  14.280   2.259
39037W        W 2805  10.331  26.691   4.317
39038W        W 2806  26.201  32.497  12.931
39039W        W 2807   8.879  13.181  11.381
39040W        W 2808  19.067  14.781  14.444
39041W        W 2809  41.522  35.562   1.245
39042W        W 2810  33.430   7.739  11.577
39043W        W 2811  26.185  32.076  10.510
39044W        W 2812  30.640  23.170  11.957
39045W        W 2813   3.743  14.311  10.048
39046W        W 2814  34.104  34.508   2.848
39047W        W 2815  38.403  16.792   1.254
39048W        W 2816  40.426  27.674  14.010
39049W        W 2817  32.084  42.383  11.416
39050W        W 2818  23.232   5.928   4.697
39051W        W 2819  43.319  43.878  13.363
39052W        W 2820  28.639  43.021   5.180
39053W        W 2821  30.051  12.271  14.468
39054W        W 2822  29.082  17.610   2.192
39055W        W 2823  39.414  24.718  13.837
39056W        W 2824  28.132  34.893   5.156
39057W        W 2825  23.709  25.478  11.461
39058W        W 2826  27.189  37.510  14.476
39059W        W 2827  28.059  39.891  13.313
39060W        W 2828  15.328  10.809   1.895
39061W        W 2829  26.061   4.936  11.091
39062W        W 2830  24.634  43.378   3.699
39063W        W 2831  35.056  40.473  13.481
39064W        W 2832  39.846   7.751  13.835
39065W        W 2833  44.985   1.797   0.855
39066W        W 2834  13.153  24.100  13.480
39067W        W 2835  37.525  38.551  10.058
39068W        W 2836  12.640  36.977  10.482
39069W        W 2837  39.047  12.132  11.478
39070W        W 2838   8.236  39.499   1.854
39071W        W 2839  42.902   1.376   2.809
39072W        W 2840   6.919  16.136   3.237
39073W        W 2841  10.677   7.333  13.985
39074W        W 2842  43.387  20.714   2.399
39075W        W 2843  33.927  25.068   0.772
39076W        W 2844  17.637  41.804   0.740
39077W        W 2845  13.255  27.947   2.791
39078W        W 2846  30.543  27.571   0.307
39079W        W 2847   1.859  26.051  11.577
39080W        W 2848  24.013  39.047   3.779
39081W        W 2849   3.298  17.727  12.846
39082W        W 2850  41.390  31.568   4.616
39083W        W 2851   4.862  19.568  10.470
39084W        W 2852  41.323  41.947   2.690
39085W        W 2853  31.030  41.855   1.395
39086W        W 2854  10.320   4.261  13.522
39087W        W 2855  30.036  33.514   1.346
39088W        W 2856  15.666   6.817   2.739
39089W        W 2857   6.297  21.568  12.549
39090W        W 2858   7.744  25.594   4.246
39091W        W 2859  32.998  19.610   4.834
39092W        W 2860  31.615  32.543  11.583
39093W        W 2861  16.742   5.892   3.384
39094W        W 2862  42.909  28.018   0.347
39095W        W 2863  36.897   3.796  13.042
39096W        W 2864  16.203  10.335  10.989
39097W        W 2865  14.592  19.573   0.328
39098W        W 2866  33.499  41.519  12.476
39099W        W 2867  35.026  22.039  10.495
39100W        W 2868  33.424   0.786  11.560
39101W        W 2869  33.072   8.773   0.381
39102W        W 2870  32.500  17.801   3.801
39103W        W 2871  16.264   0.318  13.377
39104W        W 2872  42.411  37.448   0.274
39105W        W 2873  29.148  37.025   3.837
39106W        W 2874  44.850  13.701  13.017
39107W        W 2875   7.280  27.177   3.830
39108W        W 2876  15.087   9.244  10.903
39109W        W 2877  33.091  25.003   4.252
39110W        W 2878  26.479  14.191   0.813
39111W        W 2879  17.079  37.490   4.209
39112W        W 2880  20.625  17.757  10.996
39113W        W 2881  23.581  36.396  10.636
39114W        W 2882  41.825  37.439   0.326
39115W        W 2883  28.600   7.177  12.527
39116W        W 2884  26.680  38.038  13.954
39117W        W 2885   6.209  21.553   2.301
39118W        W 2886  44.329   3.749  11.913
39119W        W 2887   3.945  40.324  11.500
39120W        W 2888   4.272   4.777  14.369
39121W        W 2889  35.972   5.929   4.270
39122W        W 2890  12.781   2.933   4.136
39123W        W 2891   0.414  15.730  11.498
39124W        W 2892  14.729  13.767  11.566
39125W        W 2893  13.208  10.680  11.548
39126W        W 2894  33.492  43.907   1.766
39127W        W 2895   4.257  36.916   2.322
39128W        W 2896  12.305  44.440   2.689
39129W        W 2897  30.473  42.980   4.707
39130W        W 2898  16.126   8.779   4.317
39131W        W 2899  18.055  40.887   1.849
39132W        W 2900  24.717  38.505  13.392
39133W        W 2901  10.288   3.250  11.507
39134W        W 2902  11.329  42.005  10.413
39135W        W 2903  44.979  20.255  10.922
39136W        W 2904  31.635   2.386  13.824
39137W        W 2905  39.508   5.202   4.828
39138W        W 2906   0.920  24.219  10.574
39139W        W 2907   2.414  10.147  12.505
39140W        W 2908  39.376  16.144   1.833
39141W        W 2909  40.821  24.184   3.239
39142W        W 2910  27.019  38.917   0.344
39143W        W 2911  42.991  20.573  11.092
39144W        W 2912  18.776  36.957  13.905
39145W        W 2913  17.100  14.276  10.016
39146W        W 2914  38.928  42.481  13.373
39147W        W 2915  29.118  12.331   0.826
39148W        W 2916  18.725  12.213  11.923
39149W        W 2917  19.209  20.684  14.369
39150W        W 2918  19.692  43.475   2.300
39151W        W 2919   3.901  41.383  12.041
39152W        W 2920  10.234  38.072  12.059
39153W        W 2921  39.937  18.147   2.208
39154W        W 2922   6.239  21.209  14.975
39155W        W 2923  19.281  17.198   1.381
39156W        W 2924  25.569  27.454  13.866
39157W        W 2925   9.390  34.094   1.721
39158W        W 2926   4.293  42.969   4.731
39159W        W 2927  24.495  27.955  12.415
39160W        W 2928  23.150  14.243   0.306
39161W        W 2929  12.186  40.034   4.278
39162W        W 2930  31.551  15.306   3.147
39163W        W 2931  17.736  28.185   0.338
39164W        W 2932  21.613  17.630  11.078
39165W        W 2933  29.003  16.697   5.265
39166W        W 2934  34.048   4.325   1.898
39167W        W 2935  15.303  28.681  13.350
39168W        W 2936  25.977  22.564  11.122
39169W        W 2937  37.038  28.086  10.965
39170W        W 2938  32.974  20.616   1.431
39171W        W 2939  15.213   4.706  12.515
39172W        W 2940  25.098  28.585   4.597
39173W        W 2941  24.690  19.087   3.735
39174W        W 2942  17.801  22.031  13.862
39175W        W 2943  44.809  27.639  14.810
39176W        W 2944   0.969  32.409   0.340
39177W        W 2945  25.036  24.715   2.305
39178W        W 2946   2.765   8.661  13.405
39179W        W 2947  28.679  30.065   2.896
39180W        W 2948  41.956  43.977  12.451
39181W        W 2949   0.299  12.228   3.244
39182W        W 2950  19.623  16.140   2.204
39183W        W 2951   2.468  14.594  14.968
39184W        W 2952  36.923  18.177   0.745
39185W        W 2953   3.368  24.229  14.839
39186W        W 2954  33.586  25.115   5.189
39187W        W 2955  14.750  36.021  11.553
39188W        W 2956  23.642  11.156  11.410
39189W        W 2957  32.418   6.824  10.959
39190W        W 2958   8.162   8.274   0.366
39191W        W 2959  28.509  44.345   3.670
39192W        W 2960  13.689  44.756   3.791
39193W        W 2961  36.948  25.555  12.355
39194W        W 2962  31.914  37.010  11.908
39195W        W 2963   7.881  44.813   3.329
39196W        W 2964  29.988  18.697  10.975
39197W        W 2965   6.277   1.242   4.744
39198W        W 2966   3.869  35.411   2.362
39199W        W 2967   8.888  34.910   4.354
39200W        W 2968  38.549  18.223   3.850
39201W        W 2969  17.779  34.601   3.809
39202W        W 2970   7.671   1.942   1.311
39203W        W 2971   4.282  32.962   2.832
39204W        W 2972  29.969  19.238   4.297
39205W        W 2973  16.104   3.859  10.441
39206W        W 2974   2.461  14.281   2.663
39207W        W 2975  16.308   8.291  11.124
39208W        W 2976  30.069  10.259  14.017
39209W        W 2977  35.546  24.214   3.317
39210W        W 2978  31.056   5.396   0.740
39211W        W 2979  10.178  40.506  10.546
39212W        W 2980   1.329  31.485   3.784
39213W        W 2981  26.543  24.187   2.184
39214W        W 2982   5.303  35.885   3.785
39215W        W 2983  28.645  32.917   1.255
39216W        W 2984  26.045   5.200   2.676
39217W        W 2985  42.786  34.423   1.433
39218W        W 2986  11.680  35.528  12.000
39219W        W 2987  11.627  28.100   5.219
39220W        W 2988   0.932  17.667  10.544
39221W        W 2989  32.906  39.411  12.998
39222W        W 2990   8.885  32.997  12.070
39223W        W 2991  10.182  43.312   2.874
39224W        W 2992  20.131   5.228  11.550
39225W        W 2993  36.394  24.716   4.348
39226W        W 2994  39.353  34.938   2.380
39227W        W 2995  22.064   9.313  11.521
39228W        W 2996  38.837  18.095  11.926
39229W        W 2997  30.507  33.907  13.992
39230W        W 2998  23.174  36.057   3.200
39231W        W 2999  31.007  14.747   1.812
39232W        W 3000   0.356  26.208   3.197
39233W        W 3001  24.012  22.009   0.933
39234W        W 3002  30.435  38.392  13.527
39235W        W 3003  40.012  31.130  14.804
39236W        W 3004  39.013  16.742  14.386
39237W        W 3005   4.313  40.324  12.567
39238W        W 3006  14.669  22.667  10.048
39239W        W 3007   8.828  22.048  10.929
39240W        W 3008   4.225  35.533  14.513
39241W        W 3009  32.516  28.164   3.191
39242W        W 3010  13.725  32.461  14.508
39243W        W 3011  31.122  25.565   2.414
39244W        W 3012  33.121  37.027  10.532
39245W        W 3013  35.359  15.105  11.119
39246W        W 3014  20.552   9.296   4.231
39247W        W 3015  21.721  27.990  12.570
39248W        W 3016  20.105  13.661  13.414
39249W        W 3017  14.274  35.415   4.203
39250W        W 3018  38.897   1.740  14.464
39251W        W 3019  19.565   0.253  13.987
39252W        W 3020  23.686  32.981  14.928
39253W        W 3021  34.432   1.311  13.047
39254W        W 3022   2.424  25.502  14.763
39255W        W 3023  19.694  36.996   1.333
39256W        W 3024  11.710  12.296   4.165
39257W        W 3025  30.088  21.600  10.421
39258W        W 3026   3.223  21.069  10.972
39259W        W 3027  35.488   2.902   3.708
39260W        W 3028  27.139  22.516  11.476
39261W        W 3029  28.942  44.430  11.120
39262W        W 3030   4.210  42.504  13.050
39263W        W 3031  36.474  22.743  11.863
39264W        W 3032  32.025  29.918   3.862
39265W        W 3033  16.258  37.396  13.441
39266W        W 3034  32.094  36.092  11.401
39267W        W 3035   5.314  28.533  14.422
39268W        W 3036  10.179  22.054  10.438
39269W        W 3037   2.870  34.486  14.797
39270W        W 3038  29.110  12.740  10.593
39271W        W 3039  18.712  33.041   2.365
39272W        W 3040  26.171  25.089   3.840
39273W        W 3041   9.250  42.913  13.522
39274W        W 3042  42.420  26.139  11.461
39275W        W 3043  16.804  23.686   3.682
39276W        W 3044   4.904  32.988  13.878
39277W        W 3045  17.302  29.563  11.967
39278W        W 3046  27.990   8.298   2.684
39279W        W 3047  13.242  23.103   3.701
39280W        W 3048  18.134   9.156  12.861
39281W        W 3049  10.871  15.208   1.805
39282W        W 3050  20.248  43.010   4.289
39283W        W 3051  27.618  41.910  10.895
39284W        W 3052  36.900  28.527   0.880
39285W        W 3053  28.566  15.712  10.149
39286W        W 3054  20.625  30.493  13.823
39287W        W 3055  34.026  34.614   1.271
39288W        W 3056  40.397   5.370   0.392
39289W        W 3057  29.591  34.595  11.422
39290W        W 3058  31.558   4.824  12.018
39291W        W 3059  12.258  10.231   5.171
39292W        W 3060  18.646   9.239   4.732
39293W        W 3061  14.138  12.135   5.647
39294W        W 3062  28.049  31.027   4.775
39295W        W 3063  27.168   2.894  12.468
39296W        W 3064  40.884   5.337  12.376
39297W        W 3065   7.204  37.910  10.444
39298W        W 3066   1.968  44.341   0.476
39299W        W 3067   3.826   5.776  11.858
39300W        W 3068  17.675  34.080   3.341
39301W        W 3069  15.318  17.119   1.701
39302W        W 3070  30.058   6.743   4.805
39303W        W 3071  18.569  13.120  13.547
39304W        W 3072  17.241   4.796  13.337
39305W        W 3073  23.088  43.333  13.921
39306W        W 3074  35.985   7.758  12.018
39307W        W 3075  12.774  34.516  11.407
39308W        W 3076  35.466  26.156   1.414
39309W        W 3077  32.452   7.372   1.368
39310W        W 3078  17.586  29.936  11.938
39311W        W 3079  21.133  44.944   1.440
39312W        W 3080  10.259  34.927   0.845
39313W        W 3081  34.994  22.604  12.003
39314W        W 3082  14.651  10.823   2.854
39315W        W 3083  19.127  39.387  11.945
39316W        W 3084   0.289  23.081   3.386
39317W        W 3085   5.693  38.948  14.783
39318W        W 3086  21.213   9.663  11.564
39319W        W 3087  42.385  17.185   2.735
39320W        W 3088  34.539   8.335  14.308
39321W        W 3089   4.440  33.081  12.397
39322W        W 3090  17.176  25.564   2.372
39323W        W 3091  18.139  16.785  10.506
39324W        W 3092  31.509  28.568  10.528
39325W        W 3093  39.538  36.844   1.320
39326W        W 3094  14.662  21.574  12.961
39327W        W 3095  30.531   4.236  13.416
39328W        W 3096  11.812  15.259   1.272
39329W        W 3097  41.835  19.665   9.953
39330W        W 3098  23.197  38.820   1.324
39331W        W 3099  14.095  16.100   3.754
39332W        W 3100   4.712   4.383   4.650
39333W        W 3101  36.899   6.280   4.319
39334W        W 3102   3.899  20.126  13.831
39335W        W 3103  20.212  44.415   2.366
39336W        W 3104  28.541   3.791  10.610
39337W        W 3105   1.458  23.096   1.260
39338W        W 3106   4.717  41.476  12.451
39339W        W 3107  30.025  24.195  11.866
39340W        W 3108   5.331  13.821  12.903
39341W        W 3109  26.588  42.846  13.807
39342W        W 3110   9.191  34.937   2.196
39343W        W 3111  10.301  14.210  14.294
39344W        W 3112   0.761  33.534  12.505
39345W        W 3113  38.862  14.176  14.515
39346W        W 3114  20.109  30.583  10.486
39347W        W 3115  26.970  18.250  11.489
39348W        W 3116  12.240  42.991   1.405
39349W        W 3117  14.199  27.974  10.988
39350W        W 3118  30.648  20.088   1.233
39351W        W 3119  36.876   8.825  12.047
39352W        W 3120  22.183  29.440  14.316
39353W        W 3121  15.164  25.202  10.043
39354W        W 3122   1.367   9.793  14.908
39355W        W 3123  40.929  23.613  14.003
39356W        W 3124   0.429  30.979  14.980
39357W        W 3125  42.505  14.669   0.726
39358W        W 3126  22.717  34.968   3.297
39359W        W 3127  14.165  38.062   1.395
39360W        W 3128  39.530  33.095   4.247
39361W        W 3129   9.681  15.151  14.458
39362W        W 3130   1.752  16.581  13.504
39363W        W 3131   5.821  26.099  14.405
39364W        W 3132   2.917  26.981  13.921
39365W        W 3133  13.701  16.787   1.818
39366W        W 3134  32.092  26.199   0.876
39367W        W 3135  17.246  19.146   9.515
39368W        W 3136  31.645  20.142   3.727
39369W        W 3137  23.122  16.283   1.887
39370W        W 3138  10.336  25.604  12.566
39371W        W 3139  19.166   5.878   3.807
39372W        W 3140   1.899  26.956   0.396
39373W        W 3141  21.711  38.024  13.412
39374W        W 3142   9.244  29.003   1.743
39375W        W 3143  36.993   2.421   2.205
39376W        W 3144  23.200  24.052   4.293
39377W        W 3145  30.004   3.901  10.906
39378W        W 3146  16.710   6.379  13.043
39379W        W 3147  34.480   7.236   1.248
39380W        W 3148  42.379  15.618   2.686
39381W        W 3149  39.821  14.270  13.041
39382W        W 3150  36.428  19.537  12.083
39383W        W 3151  25.484   3.296   9.982
39384W        W 3152   7.417   0.475   4.336
39385W        W 3153  43.392   3.310  10.053
39386W        W 3154  13.218  34.038  12.522
39387W        W 3155  17.694  26.155  10.979
39388W        W 3156   3.887  33.900   3.801
39389W        W 3157  33.486  15.641  10.581
39390W        W 3158  14.773   0.813  11.384
39391W        W 3159  37.083  35.951   2.736
39392W        W 3160   5.366  19.124  12.003
39393W        W 3161  15.720  15.232   4.250
39394W        W 3162  39.377  42.996   0.243
39395W        W 3163  13.289  27.648   1.911
39396W        W 3164  26.603  13.224  13.006
39397W        W 3165   5.823  12.741   1.378
39398W        W 3166  17.672  26.466  11.481
39399W        W 3167  13.684  42.426   4.629
39400W        W 3168  18.173  13.320   3.853
39401W        W 3169  12.628   2.235   4.321
39402W        W 3170  21.703   5.219   2.391
39403W        W 3171  35.868  16.189  14.790
39404W        W 3172  35.951  26.643  11.875
39405W        W 3173   2.382  15.203   3.371
39406W        W 3174  29.966   7.849   2.226
39407W        W 3175  22.100   1.821   2.312
39408W        W 3176  41.893   8.166  11.586
39409W        W 3177  39.333  44.308  11.901
39410W        W 3178  43.765  19.160  12.013
39411W        W 3179  20.677  34.613   3.753
39412W        W 3180   1.834  12.811   2.365
39413W        W 3181  38.405  16.602  12.470
39414W        W 3182  27.656  32.585  10.088
39415W        W 3183  10.222   5.768  12.867
39416W        W 3184  17.644  27.486  11.546
39417W        W 3185  44.501  23.519   3.378
39418W        W 3186  15.627  29.450  11.099
39419W        W 3187  18.655   4.252   2.197
39420W        W 3188   9.863   5.916  12.966
39421W        W 3189  17.249  12.157  11.115
39422W        W 3190  25.007  25.103   4.753
39423W        W 3191  18.082  40.942  10.892
39424W        W 3192  30.108  24.626  12.542
39425W        W 3193  40.914  26.139  12.922
39426W        W 3194  21.681   2.920  14.829
39427W        W 3195  12.258   6.356  12.096
39428W        W 3196  24.185  36.903   0.789
39429W        W 3197  26.058   3.859  10.641
39430W        W 3198  35.431   2.270   2.232
39431W        W 3199  33.486  19.217  13.938
39432W        W 3200  26.036  13.112   1.417
39433W        W 3201  42.944  28.571  11.599
39434W        W 3202  29.656  28.435   4.672
39435W        W 3203  10.214  23.073  12.449
39436W        W 3204  41.418  26.586   2.798
39437W        W 3205  12.304  21.530   3.815
39438W        W 3206   5.339   1.743   0.476
39439W        W 3207  42.835   6.363  11.998
39440W        W 3208  22.683  18.734   3.345
39441W        W 3209  35.948  29.095   0.772
39442W        W 3210   7.367  42.401  12.536
39443W        W 3211  41.814  26.043   1.694
39444W        W 3212   8.299  19.177   0.392
39445W        W 3213   6.317  21.223   2.757
39446W        W 3214   0.930  13.723  14.312
39447W        W 3215  22.504   7.314   3.358
39448W        W 3216  35.528  32.118  12.960
39449W        W 3217  37.548  38.416   3.207
39450W        W 3218  41.344  33.112  13.837
39451W        W 3219  33.986  16.117   3.223
39452W        W 3220   3.898  12.710  13.802
39453W        W 3221  30.488  43.398   4.822
39454W        W 3222  40.478  16.748   0.453
39455W        W 3223  17.132   0.917  11.490
39456W        W 3224  16.722  16.113  13.850
39457W        W 3225   6.421  23.073  10.543
39458W        W 3226   1.964  37.040   2.327
39459W        W 3227   1.967  12.182   2.189
39460W        W 3228  38.497   8.313  11.583
39461W        W 3229  31.060  42.426   2.886
39462W        W 3230   6.319  15.128  11.995
39463W        W 3231  40.970   3.377   4.331
39464W        W 3232  39.937  22.614   4.623
39465W        W 3233   6.917  13.650  11.543
39466W        W 3234  13.835  42.356   0.870
39467W        W 3235  17.087   5.435   4.149
39468W        W 3236  39.927  14.125   1.375
39469W        W 3237  21.032   1.808   0.303
39470W        W 3238  43.784  35.370  14.010
39471W        W 3239  18.550  11.843   0.391
39472W        W 3240  18.682  22.510   4.637
39473W        W 3241  38.404  22.084  10.598
39474W        W 3242  40.911  39.985  10.408
39475W        W 3243  17.636  20.206  13.539
39476W        W 3244  41.413  34.041   0.317
39477W        W 3245  37.340  14.626   4.638
39478W        W 3246  20.672  39.063  13.492
39479W        W 3247  13.131   3.270   1.778
39480W        W 3248  41.468  11.188   0.452
39481W        W 3249  36.554  19.545   3.285
39482W        W 3250  32.567  40.415   0.366
39483W        W 3251  26.526  37.355  12.037
39484W        W 3252  40.467   4.299  13.851
39485W        W 3253   7.770  26.467  12.043
39486W        W 3254  39.415  28.014  10.639
39487W        W 3255  25.098  33.492   3.303
39488W        W 3256  41.831  34.518  13.462
39489W        W 3257  38.464  28.539   4.628
39490W        W 3258  36.904  42.865  12.432
39491W        W 3259  12.768  42.426   4.330
39492W        W 3260  27.483   1.337  10.912
39493W        W 3261   3.357  14.738   0.776
39494W        W 3262  43.993  31.916  11.127
39495W        W 3263  40.448   6.417   3.265
39496W        W 3264   7.829  30.608  12.388
39497W        W 3265   1.739  38.424   3.176
39498W        W 3266  27.528   7.767  13.369
39499W        W 3267  29.497   4.923   0.415
39500W        W 3268   9.379  12.766  12.401
39501W        W 3269  40.442  21.203  11.473
39502W        W 3270  24.151   0.336  13.517
39503W        W 3271  41.393   0.355   1.279
39504W        W 3272  31.610  38.830   2.206
39505W        W 3273   7.282   9.730  13.435
39506W        W 3274  24.140  25.995  14.862
39507W        W 3275  40.984  17.239   1.785
39508W        W 3276   9.833  27.088   1.843
39509W        W 3277  34.408   6.783   2.358
39510W        W 3278  12.296  36.969  13.497
39511W        W 3279  35.007   5.853  14.372
39512W        W 3280  17.590  34.474   3.359
39513W        W 3281   9.816  37.418   2.822
39514W        W 3282  14.644  18.620   1.219
39515W        W 3283  16.660  13.691   1.352
39516W        W 3284   9.811  44.903   4.209
39517W        W 3285  40.909  23.170   3.714
39518W        W 3286   7.838  40.530   3.834
39519W        W 3287  22.735  10.867  14.370
39520W        W 3288   2.786   2.832   1.804
39521W        W 3289   7.392  32.956  12.884
39522W        W 3290   2.274  25.499   2.290
39523W        W 3291  42.487  44.914  11.460
39524W        W 3292  10.636  37.048  10.997
39525W        W 3293   2.725  34.030   4.608
39526W        W 3294  35.448   9.758   0.254
39527W        W 3295  41.974  20.707   3.187
39528W        W 3296   6.729  27.961   0.331
39529W        W 3297  43.276  30.656  14.010
39530W        W 3298   7.695  22.728   0.403
39531W        W 3299  23.138  26.050   3.147
39532W        W 3300  11.759  41.028  14.303
39533W        W 3301  26.663  21.742  11.558
39534W        W 3302  24.673  44.259   3.660
39535W        W 3303  18.197  29.919  14.025
39536W        W 3304  25.574  36.562   3.792
39537W        W 3305  30.636  43.958   3.379
39538W        W 3306  39.062  31.090   5.285
39539W        W 3307   3.833   3.377   4.256
39540W        W 3308  16.653  23.712   4.210
39541W        W 3309  36.515  43.491   3.863
39542W        W 3310  42.938  18.223   3.315
39543W        W 3311  11.653  24.977   4.270
39544W        W 3312  14.233  20.736   2.279
39545W        W 3313  18.088  28.028  13.795
39546W        W 3314  27.517  31.967  11.459
39547W        W 3315  30.009  38.896  12.095
39548W        W 3316  28.456  14.619  14.930
39549W        W 3317  12.806  30.076   4.114
39550W        W 3318  17.156   7.758  10.635
39551W        W 3319   8.366  44.855  13.402
39552W        W 3320  11.161  37.577   3.194
39553W        W 3321   4.914   8.251  11.426
39554W        W 3322  33.489   5.699  10.611
39555W        W 3323  13.293  23.095   0.926
39556W        W 3324  19.106  42.945  14.841
39557W        W 3325  43.771  36.961  11.555
39558W        W 3326   9.782  12.231  14.376
39559W        W 3327  39.539  40.402   4.766
39560W        W 3328  17.733   0.265   2.765
39561W        W 3329  44.399  28.673  10.557
39562W        W 3330   0.902  10.331  12.983
39563W        W 3331   2.457  11.656  10.157
39564W        W 3332  44.876  26.680   9.997
39565W        W 3333  22.058   8.281   0.839
39566W        W 3334  37.074  18.294  11.455
39567W        W 3335  16.668  39.959  14.828
39568W        W 3336  28.014   1.414  12.963
39569W        W 3337   3.952  28.018  13.837
39570W        W 3338  22.597  18.162   1.794
39571W        W 3339  31.007   2.451  13.540
39572W        W 3340  43.368  37.012   4.205
39573W        W 3341  21.630  27.042  11.979
39574W        W 3342  41.382   7.311   2.744
39575W        W 3343  43.795  21.710   3.297
39576W        W 3344   7.347  25.991  13.512
39577W        W 3345  10.281   0.854   3.761
39578W        W 3346  38.035  13.295   3.369
39579W        W 3347  19.195  24.143   4.610
39580W        W 3348   6.752  25.159  10.502
39581W        W 3349  37.858  23.188  11.524
39582W        W 3350  34.587   6.703   0.322
39583W        W 3351  42.838  37.568   4.729
39584W        W 3352  30.516   2.729  14.473
39585W        W 3353   8.355   9.183   4.825
39586W        W 3354  29.056  31.003  11.882
39587W        W 3355  34.583  41.038  14.383
39588W        W 3356  40.532  18.159  11.859
39589W        W 3357  35.957  27.031   1.210
39590W        W 3358  25.523  25.711  10.490
39591W        W 3359  10.870  28.640  14.400
39592W        W 3360   9.859  34.966  11.458
39593W        W 3361  23.514   7.902   2.357
39594W        W 3362   5.194   3.774  14.780
39595W        W 3363  31.409  12.848  10.907
39596W        W 3364  43.511   8.248  11.576
39597W        W 3365  17.290   3.308  11.875
39598W        W 3366  12.208  15.317   5.637
39599W        W 3367  19.280   6.323  14.965
39600W        W 3368  11.136  20.191  13.045
39601W        W 3369  26.958   9.264  10.439
39602W        W 3370  26.023  29.020   1.297
39603W        W 3371  13.613  41.378  14.802
39604W        W 3372   9.823  44.456  11.381
39605W        W 3373  33.062  42.383  12.914
39606W        W 3374  11.132   3.736   4.736
39607W        W 3375  28.576  39.373  11.507
39608W        W 3376  33.384  41.383   3.719
39609W        W 3377  10.252  13.268   2.363
39610W        W 3378  20.581  37.360   1.317
39611W        W 3379  28.533  40.502  13.374
39612W        W 3380  18.207  15.196   2.663
39613W        W 3381  15.162  32.464   2.250
39614W        W 3382  10.752   8.694  11.114
39615W        W 3383  35.576  13.270   4.149
39616W        W 3384  25.190  21.036  12.824
39617W        W 3385  11.318  17.114  10.409
39618W        W 3386  24.000  25.096  13.985
39619W        W 3387  37.833  29.542   0.402
39620W        W 3388   2.803  27.688   2.308
39621W        W 3389  17.174  15.171  11.894
39622W        W 3390  40.859  17.738   3.242
39623W        W 3391  36.096   6.905   2.407
39624W        W 3392  35.110  41.380   0.829
39625W        W 3393   3.284  39.051   2.690
39626W        W 3394  33.912   0.749  13.455
39627W        W 3395  34.910   5.722  12.031
39628W        W 3396  26.626   9.194   3.158
39629W        W 3397  18.081   5.903  14.935
39630W        W 3398  44.846  41.520   4.336
39631W        W 3399  12.286  15.590   4.326
39632W        W 3400  24.055  25.636  13.854
39633W        W 3401   7.225  20.218  11.077
39634W        W 3402  29.083  37.462  13.798
39635W        W 3403  19.151  25.618   2.311
39636W        W 3404  13.826  35.081   3.781
39637W        W 3405  24.600   6.732  11.530
39638W        W 3406  15.765  21.737  13.381
39639W        W 3407   0.880  13.285   0.752
39640W        W 3408  30.907  15.610   4.644
39641W        W 3409  29.084  20.671  11.021
39642W        W 3410  28.006  26.475  11.069
39643W        W 3411   8.748  38.492  14.007
39644W        W 3412  42.394  36.843   3.362
39645W        W 3413   5.921  27.541  14.974
39646W        W 3414   2.323  40.805   0.260
39647W        W 3415  33.897  24.684  14.869
39648W        W 3416  40.433  31.622   4.794
39649W        W 3417  31.944  19.744  11.092
39650W        W 3418  17.754  16.144   3.652
39651W        W 3419  20.175  44.442   3.848
39652W        W 3420  20.585  21.621  14.799
39653W        W 3421  25.663  33.919  10.138
39654W        W 3422  23.590  37.905  12.848
39655W        W 3423  29.074  14.616  11.035
39656W        W 3424   2.748  37.516  12.009
39657W        W 3425  19.697  21.590  14.497
39658W        W 3426  39.511  15.235  12.911
39659W        W 3427  32.120   1.968   4.120
39660W        W 3428   5.274   0.799  10.594
39661W        W 3429  23.661   3.801  13.886
39662W        W 3430   5.896  29.925   1.284
39663W        W 3431  44.259  38.565  12.047
39664W        W 3432  17.578  15.311  14.779
39665W        W 3433   9.715   6.418   3.341
39666W        W 3434   9.289  20.142   2.312
39667W        W 3435   0.938  22.664   5.184
39668W        W 3436  38.963   1.770   0.886
39669W        W 3437  15.271   9.827  12.467
39670W        W 3438  15.273  27.033  13.321
39671W        W 3439  38.972  40.928  11.032
39672W        W 3440  38.348  26.176   2.203
39673W        W 3441  33.598  23.214  11.046
39674W        W 3442  20.756   3.418  14.955
39675W        W 3443   3.256  42.846  11.600
39676W        W 3444  10.682  41.813  12.463
39677W        W 3445  41.438   1.391  12.886
39678W        W 3446  33.877  18.662   4.660
39679W        W 3447  28.098  16.209   3.176
39680W        W 3448  35.862  33.605   1.776
39681W        W 3449  13.338  40.939   1.325
39682W        W 3450  12.158  16.600   1.332
39683W        W 3451   5.303  25.023   4.352
39684W        W 3452   7.733  43.893   4.173
39685W        W 3453  33.894  23.122   2.834
39686W        W 3454  14.331  42.351  13.426
39687W        W 3455  32.142  32.032  11.489
39688W        W 3456   9.193  28.544   3.813
39689W        W 3457  29.636  38.432  12.839
39690W        W 3458  18.612  28.150  11.492
39691W        W 3459  20.119  40.514   4.758
39692W        W 3460   7.390  19.074   1.814
39693W        W 3461  24.557  37.338  14.784
39694W        W 3462  26.004  23.184   1.873
39695W        W 3463  32.517  29.632  14.855
39696W        W 3464  34.061  29.925  13.364
39697W        W 3465  31.493   0.883   0.748
39698W        W 3466  13.608   2.781   3.265
39699W        W 3467  42.505  41.922   1.258
39700W        W 3468  42.840  44.936   2.372
39701W        W 3469  31.462  37.998   3.376
39702W        W 3470   6.243  19.284  14.766
39703W        W 3471   3.889   7.214   3.853
39704W        W 3472   0.803   2.231   2.680
39705W        W 3473   9.799  10.726  13.008
39706W        W 3474  40.038  21.159   2.770
39707W        W 3475  11.346  15.799   9.946
39708W        W 3476  39.837  17.086  12.378
39709W        W 3477  24.109  31.463  13.016
39710W        W 3478  12.349  37.477  14.373
39711W        W 3479  42.816   8.219   4.615
39712W        W 3480  20.245  16.269   4.700
39713W        W 3481  16.707  15.089   3.228
39714W        W 3482  26.595  19.764   1.906
39715W        W 3483  27.604  43.014   4.806
39716W        W 3484  40.511  23.156  13.861
39717W        W 3485  33.038  13.261  14.315
39718W        W 3486  16.079  12.197  14.867
39719W        W 3487   5.703  44.399   2.253
39720W        W 3488  21.181  39.541  13.045
39721W        W 3489  13.300  35.397  11.933
39722W        W 3490  30.443  38.535   4.292
39723W        W 3491  36.894  17.644   3.690
39724W        W 3492  41.855  38.822   1.713
39725W        W 3493  19.041  10.869  12.053
39726W        W 3494  30.465  15.091  12.363
39727W        W 3495  15.773  37.064   3.859
39728W        W 3496  25.483   4.303   1.822
39729W        W 3497   5.303   5.879  12.045
39730W        W 3498  16.584  22.569   5.241
39731W        W 3499  44.311  39.982  13.482
39732W        W 3500   5.218  13.688  14.373
39733W        W 3501  16.579   4.934   3.237
39734W        W 3502  15.259  44.273  14.923
39735W        W 3503  18.551  28.053   4.752
39736W        W 3504  38.427  19.085  10.484
39737W        W 3505  12.246   9.684  11.128
39738W        W 3506  35.869   8.205   9.545
39739W        W 3507   5.302  38.496   1.763
39740W        W 3508  26.499  29.052   1.739
39741W        W 3509  20.526  25.159   4.691
39742W        W 3510  22.611   1.436   1.698
39743W        W 3511  37.405  32.962   2.734
39744W        W 3512   3.314  33.003  13.862
39745W        W 3513  33.409  42.870  13.337
39746W        W 3514  26.556   1.441   3.675
39747W        W 3515  24.700   0.308  12.043
39748W        W 3516  42.364   3.900   3.266
39749W        W 3517   0.802  22.621  14.378
39750W        W 3518   8.680  37.952  11.531
39751W        W 3519  36.067   8.866  13.320
39752W        W 3520  42.395  21.639   1.838
39753W        W 3521  32.028   6.373  10.529
39754W        W 3522   9.811  26.611   4.270
39755W        W 3523  13.204  14.739  11.547
39756W        W 3524   6.733  17.662  12.025
39757W        W 3525  10.284   5.829   2.849
39758W        W 3526  11.186  27.157   1.239
39759W        W 3527  19.160  25.698   4.212
39760W        W 3528  40.373  13.615   2.694
39761W        W 3529  41.469  24.531  13.545
39762W        W 3530  30.541   6.380   3.841
39763W        W 3531  14.321   7.305   4.713
39764W        W 3532  41.510  42.838   0.311
39765W        W 3533  26.465  18.229  14.384
39766W        W 3534  32.004  28.963  11.927
39767W        W 3535   0.377   3.344   1.757
39768W        W 3536  43.899  34.088  14.933
39769W        W 3537  18.701  25.664  10.626
39770W        W 3538   4.919  40.443   5.243
39771W        W 3539  21.665   5.767  14.403
39772W        W 3540  33.941  16.189  13.877
39773W        W 3541  34.111  17.226   2.826
39774W        W 3542  32.472  38.433   4.172
39775W        W 3543  25.709  13.604  13.539
39776W        W 3544   2.434  25.681   4.157
39777W        W 3545   2.866   0.481   4.285
39778W        W 3546   3.922  29.027  13.979
39779W        W 3547  23.118  34.996  11.420
39780W        W 3548   7.761  16.111   1.807
39781W        W 3549  26.198   3.269   1.858
39782W        W 3550  37.374  33.877  11.384
39783W        W 3551  34.382  33.954   2.282
39784W        W 3552  25.509   1.298   0.346
39785W        W 3553   3.951  21.075  10.464
39786W        W 3554  18.785   8.371   4.294
39787W        W 3555  34.536  14.170  13.410
39788W        W 3556  15.238  28.946  13.018
39789W        W 3557   3.845   3.882  13.333
39790W        W 3558  18.599  40.344   2.395
39791W        W 3559  20.582  21.555   3.847
39792W        W 3560   1.851  17.177   1.746
39793W        W 3561  13.332  35.006  12.345
39794W        W 3562  28.446  38.825  14.488
39795W        W 3563  24.629   9.821   1.793
39796W        W 3564   8.260  31.008  10.898
39797W        W 3565  35.469   6.700  12.483
39798W        W 3566   8.712  20.593  11.378
39799W        W 3567  10.874  42.365  13.833
39800W        W 3568  17.181  23.036  13.057
39801W        W 3569  19.068  35.363   1.766
39802W        W 3570   5.788  13.162   4.744
39803W        W 3571  18.751  10.363  12.029
39804W        W 3572  30.554  29.091   3.289
39805W        W 3573  37.459  44.906  12.394
39806W        W 3574  40.364  39.915   4.150
39807W        W 3575  10.807  19.130   0.849
39808W        W 3576  24.575   6.393  14.489
39809W        W 3577  40.447  29.134  14.415
39810W        W 3578   2.732  10.307  14.282
39811W        W 3579  41.841  28.640  14.899
39812W        W 3580   8.806   4.424  11.009
39813W        W 3581  25.708  37.930   1.255
39814W        W 3582  44.759   5.738   3.797
39815W        W 3583  33.952  33.076  10.451
39816W        W 3584  10.785  33.892  11.457
39817W        W 3585  41.445  13.220  11.541
39818W        W 3586  42.298  26.042  10.437
39819W        W 3587   5.752  16.631  14.922
39820W        W 3588  37.455  20.258  13.397
39821W        W 3589  24.493  22.738   0.402
39822W        W 3590  30.953   3.755   1.292
39823W        W 3591  29.581  23.151   3.277
39824W        W 3592   5.417   1.812  13.875
39825W        W 3593   0.979  13.628   3.233
39826W        W 3594  24.518   5.831  12.036
39827W        W 3595  18.559   3.458   2.897
39828W        W 3596   7.721   7.402  12.071
39829W        W 3597   2.952  20.764   2.899
39830W        W 3598  39.377  28.492   1.282
39831W        W 3599  28.969   0.936   1.694
39832W        W 3600  21.599  18.648  13.927
39833W        W 3601  37.862  22.506   1.344
39834W        W 3602  31.017  24.554  11.410
39835W        W 3603  16.113  40.412  12.407
39836W        W 3604   7.678  33.560   2.701
39837W        W 3605  16.789  10.807  14.331
39838W        W 3606  33.035  37.473   3.180
39839W        W 3607  13.223  27.025   3.823
39840W        W 3608  13.283  13.624  13.387
39841W        W 3609  35.538   9.885  14.974
39842W        W 3610  37.014  29.017   2.714
39843W        W 3611  37.027   6.258   1.300
39844W        W 3612  32.137   3.289  13.375
39845W        W 3613  38.482   0.936   0.475
39846W        W 3614  31.594  18.100  13.520
39847W        W 3615   1.896   6.787  10.430
39848W        W 3616   8.325  44.784   3.707
39849W        W 3617  17.689  24.996   2.349
39850W        W 3618  17.256  14.298   4.224
39851W        W 3619  19.775  33.577   3.731
39852W        W 3620  16.584  25.998   3.639
39853W        W 3621  22.718   7.691   4.698
39854W        W 3622  27.685  43.955   1.251
39855W        W 3623  27.177  27.570  14.022
39856W        W 3624  41.035  19.119   2.190
39857W        W 3625   1.899  28.452   4.780
39858W        W 3626  38.376  24.112   0.777
39859W        W 3627  33.620  11.837   4.226
39860W        W 3628  40.859  30.129   3.196
39861W        W 3629  24.549  11.194  10.481
39862W        W 3630  30.654  29.567  14.306
39863W        W 3631  40.430  23.053  13.019
39864W        W 3632  13.735  10.759  10.492
39865W        W 3633  15.593   8.225  11.018
39866W        W 3634  37.413  18.749  12.511
39867W        W 3635  18.289   9.807   3.336
39868W        W 3636  40.318  38.951  12.516
39869W        W 3637   2.319   0.270  12.888
39870W        W 3638  11.855  36.522  11.581
39871W        W 3639  31.643  18.277  12.030
39872W        W 3640  18.242  25.595   1.927
39873W        W 3641   1.841   9.652   3.150
39874W        W 3642  20.744  30.620  12.426
39875W        W 3643  27.665  32.091   4.321
39876W        W 3644   2.437  11.165   2.762
39877W        W 3645   7.769  37.563   0.455
39878W        W 3646  31.081  42.890   4.743
39879W        W 3647  36.047   1.902   1.909
39880W        W 3648  24.093  28.668   4.679
39881W        W 3649  38.914  33.434  10.158
39882W        W 3650  13.109  27.643   0.465
39883W        W 3651  35.915  41.352  14.445
39884W        W 3652  11.367  23.219   1.753
39885W        W 3653  38.982  35.460   0.925
39886W        W 3654  36.558   8.163  12.092
39887W        W 3655  32.111   5.228   4.130
39888W        W 3656  20.172   2.730   1.776
39889W        W 3657  26.142  14.725   3.312
39890W        W 3658  38.526   3.364  10.565
39891W        W 3659  29.448  29.436  14.926
39892W        W 3660  24.198   6.730   4.627
39893W        W 3661   4.701   0.368  13.404
39894W        W 3662  44.854  13.231  13.966
39895W        W 3663  18.639   1.870  11.878
39896W        W 3664  33.544  21.740   4.833
39897W        W 3665  43.008   5.779   2.283
39898W        W 3666  44.456  13.140   2.361
39899W        W 3667  37.429  15.195  13.049
39900W        W 3668   3.951  13.281  13.051
39901W        W 3669  42.406  13.264  10.437
39902W        W 3670  10.381   7.792   1.776
39903W        W 3671  22.627  24.576   3.863
39904W        W 3672  32.484  27.580  13.449
39905W        W 3673  39.347  33.945  11.932
39906W        W 3674  34.575   5.212  13.529
39907W        W 3675   0.782   1.839   4.199
39908W        W 3676  15.794  40.485  10.095
39909W        W 3677  26.510  30.139   2.206
39910W        W 3678  16.767  39.968   3.656
39911W        W 3679  33.102  14.664   3.749
39912W        W 3680   1.871  36.958  10.968
39913W        W 3681  43.995  14.172  10.496
39914W        W 3682  34.932  43.328   4.827
39915W        W 3683  21.086  30.645  12.016
39916W        W 3684  42.802   4.215  14.288
39917W        W 3685  26.967  14.227   4.256
39918W        W 3686   4.321  33.398   2.370
39919W        W 3687  10.300  10.273   0.360
39920W        W 3688  38.024   2.229  10.508
39921W        W 3689  20.260  33.895  14.952
39922W        W 3690  41.499  35.563  11.018
39923W        W 3691  10.843  42.018  11.416
39924W        W 3692  17.139  42.829  12.052
39925W        W 3693   5.852   4.292  14.914
39926W        W 3694  13.328  21.742  12.010
39927W        W 3695  20.567  41.519  11.025
39928W        W 3696   3.839  27.033   0.352
39929W        W 3697  18.773  27.133   2.766
39930W        W 3698  18.150   1.855   2.817
39931W        W 3699  22.078   0.462   0.470
39932W        W 3700  29.597  19.682  10.605
39933W        W 3701  24.629   7.678  12.004
39934W        W 3702  12.624  27.113   3.632
39935W        W 3703  25.506  27.184  13.804
39936W        W 3704  44.274  37.366   1.815
39937W        W 3705  35.935  38.055  13.430
39938W        W 3706  26.467  39.811   1.867
39939W        W 3707  30.912  33.123   1.380
39940W        W 3708  30.145  34.535  12.914
39941W        W 3709   3.374  31.152  13.485
39942W        W 3710  28.067  31.453  14.004
39943W        W 3711  35.892  43.314   0.321
39944W        W 3712  42.479  25.044  13.042
39945W        W 3713  42.970  31.512   4.308
39946W        W 3714  13.290  20.131   4.603
39947W        W 3715  16.763  31.137  10.459
39948W        W 3716  20.578   3.414   1.756
39949W        W 3717  18.159  12.193   1.859
39950W        W 3718  24.561  19.256   0.887
39951W        W 3719  35.995  30.577  15.000
39952W        W 3720   8.338  28.571  14.798
39953W        W 3721  34.865  30.534   4.141
39954W        W 3722  36.380  25.685   3.339
39955W        W 3723  16.684  44.987   2.406
39956W        W 3724  32.587  12.662  11.396
39957W        W 3725  36.054  40.454   3.274
39958W        W 3726  39.493  29.590  14.378
39959W        W 3727  16.297  11.786   2.398
39960W        W 3728   0.776  38.455  12.866
39961W        W 3729  39.975  36.351   4.698
39962W        W 3730  26.057  13.700   3.667
39963W        W 3731  11.660  20.097  12.431
39964W        W 3732  19.573  44.462   2.830
39965W        W 3733   6.804  22.596  11.125
39966W        W 3734   0.865  41.942   3.166
39967W        W 3735  11.809   2.424  12.482
39968W        W 3736  16.713  26.696  12.357
39969W        W 3737  43.978   2.383   1.296
39970W        W 3738   6.846  40.927  11.895
39971W        W 3739   5.399   1.852   0.893
39972W        W 3740  43.790   0.366  14.917
39973W        W 3741  27.480  19.646  11.606
39974W        W 3742  29.958  13.770   1.843
39975W        W 3743   3.308  17.186   4.320
39976W        W 3744  44.307   2.942   1.429
39977W        W 3745  25.091   7.863   2.237
39978W        W 3746  24.043   3.824   2.283
39979W        W 3747  38.405   2.320  13.927
39980W        W 3748  20.683  40.537   0.288
39981W        W 3749  20.029   8.224   4.720
39982W        W 3750   7.825   6.866  12.031
39983W        W 3751   1.259  15.644   0.868
39984W        W 3752  29.553  10.685   3.755
39985W        W 3753   1.281  18.614   3.707
39986W        W 3754  18.614  29.500   4.267
39987W        W 3755  38.494  41.919  14.769
39988W        W 3756  42.780  27.594   3.268
39989W        W 3757  18.235  27.569   2.664
39990W        W 3758  20.527   4.777  13.520
39991W        W 3759   0.780  21.632   4.640
39992W        W 3760   4.772  29.479  11.522
39993W        W 3761  16.260  14.110   0.247
39994W        W 3762   8.793  21.589  11.019
39995W        W 3763  35.475  37.955   1.873
39996W        W 3764  44.294  38.527  11.018
39997W        W 3765   4.904  21.056  12.907
39998W        W 3766   2.253  41.384   2.178
39999W        W 3767   3.456  15.695   1.697
40000W        W 3768  21.631   1.786   2.693
40001W        W 3769  29.570  42.522  14.999
40002W        W 3770  18.572  40.932  11.026
40003W        W 3771  34.905   5.886  12.847
40004W        W 3772  26.163  19.682  13.528
40005W        W 3773  37.943  42.338  13.432
40006W        W 3774  11.346   3.826  11.022
40007W        W 3775  14.696   5.357   1.701
40008W        W 3776  11.840  20.622  14.029
40009W        W 3777  44.899  18.202  13.390
40010W        W 3778  30.137  32.503   0.926
40011W        W 3779  40.953  12.744  11.604
40012W        W 3780  37.459  13.798  13.519
40013W        W 3781   7.683  20.751  11.524
40014W        W 3782  38.939  25.114   4.620
40015W        W 3783  33.093  18.137   1.916
40016W        W 3784  37.507   6.722   4.114
40017W        W 3785  10.372  15.812   3.362
40018W        W 3786  25.483  36.478  10.489
40019W        W 3787  31.634  15.099   1.740
40020W        W 3788   3.237  29.548  14.972
40021W        W 3789   7.870  15.194  12.082
40022W        W 3790   0.981  21.206  13.400
40023W        W 3791  29.079  10.162  12.465
40024W        W 3792   2.280   3.230   3.713
40025W        W 3793  19.085   9.358  14.513
40026W        W 3794   9.174  30.416   3.752
40027W        W 3795  31.090   7.714   0.361
40028W        W 3796   9.306  10.165   3.229
40029W        W 3797  29.037  29.551   4.629
40030W        W 3798  38.373  16.797   2.893
40031W        W 3799  11.657  19.123   3.267
40032W        W 3800  24.623   5.899   0.765
40033W        W 3801  27.184  21.215  10.999
40034W        W 3802   0.407   5.753  12.831
40035W        W 3803  11.372  41.028   0.828
40036W        W 3804  21.040  15.619   1.384
40037W        W 3805  16.759  23.053  13.010
40038W        W 3806  15.089   9.223   0.281
40039W        W 3807  12.204  27.514  12.985
40040W        W 3808  23.685  18.120   1.711
40041W        W 3809  28.434  22.747   4.275
40042W        W 3810  44.347   2.876  11.391
40043W        W 3811  39.880   1.961   0.735
40044W        W 3812   8.165  28.571   1.444
40045W        W 3813  16.734  13.346  14.308
40046W        W 3814  25.030  30.909  13.950
40047W        W 3815   8.880  28.129  12.000
40048W        W 3816  17.646  28.049  10.574
40049W        W 3817  10.875  22.644  14.461
40050W        W 3818  33.068  14.830   4.822
40051W        W 3819  19.580  40.867  12.379
40052W        W 3820  10.827  17.125  12.934
40053W        W 3821  40.390  35.501  11.887
40054W        W 3822  23.050   6.246  14.916
40055W        W 3823  32.940  32.020  11.601
40056W        W 3824  24.633   6.356  13.877
40057W        W 3825  30.910  22.140  10.607
40058W        W 3826   7.844  27.188   0.437
40059W        W 3827   1.364  14.332  14.000
40060W        W 3828  43.297   9.188   4.135
40061W        W 3829  11.735  40.314  12.042
40062W        W 3830  35.904   8.391  10.928
40063W        W 3831   8.172  23.153   3.658
40064W        W 3832   0.789  37.900  14.765
40065W        W 3833   0.313  11.306   0.896
40066W        W 3834  41.024   8.385   5.768
40067W        W 3835   0.330  14.654   0.845
40068W        W 3836  28.036   3.861  13.064
40069W        W 3837   4.449  36.583   1.314
40070W        W 3838  21.154  12.834  11.094
40071W        W 3839  36.448  34.471  10.082
40072W        W 3840  22.665  15.741  10.616
40073W        W 3841  14.233  27.550  11.874
40074W        W 3842  22.120  30.630  13.845
40075W        W 3843  25.560   4.705  13.800
40076W        W 3844  21.546   9.862  11.482
40077W        W 3845  22.177  14.269   2.696
40078W        W 3846  12.315   4.369  10.554
40079W        W 3847  15.264  28.020  11.545
40080W        W 3848  43.768  25.543   4.157
40081W        W 3849  37.445  40.357  14.379
40082W        W 3850  20.274   0.921  11.481
40083W        W 3851   6.832  19.735   2.771
40084W        W 3852  16.794  15.195  10.013
40085W        W 3853  24.228   1.821   3.382
40086W        W 3854   2.904  20.557  14.363
40087W        W 3855  26.044   4.233   1.890
40088W        W 3856  44.919   4.399   1.772
40089W        W 3857  18.716  14.812  13.947
40090W        W 3858   0.977  39.360   1.833
40091W        W 3859  42.948  42.507   0.813
40092W        W 3860  25.046  35.528  14.890
40093W        W 3861  37.842  27.947   9.985
40094W        W 3862  44.399  32.581  14.372
40095W        W 3863  36.533  14.140  11.886
40096W        W 3864   0.492  34.409   5.280
40097W        W 3865  22.718  13.784  14.783
40098W        W 3866  42.800  13.766  12.393
40099W        W 3867   1.269  42.372   0.292
40100W        W 3868   0.938  15.719   5.147
40101W        W 3869  28.012  18.596   4.659
40102W        W 3870  22.116  26.479  12.884
40103W        W 3871  29.027   7.373   0.941
40104W        W 3872  12.805  36.505  14.300
40105W        W 3873  37.387  21.147  12.036
40106W        W 3874   6.736  26.190   3.815
40107W        W 3875  14.132  10.335   1.243
40108W        W 3876  37.395   2.831   1.284
40109W        W 3877  37.560   5.795   2.861
40110W        W 3878   7.761  27.966  10.522
40111W        W 3879  24.120   6.326   4.200
40112W        W 3880  15.726   1.465   2.810
40113W        W 3881  10.140  17.793   4.830
40114W        W 3882  38.839  43.783   3.179
40115W        W 3883   4.353  14.102  12.028
40116W        W 3884   1.949  18.630  14.496
40117W        W 3885  41.474  28.655  13.517
40118W        W 3886  35.410   9.362  14.820
40119W        W 3887  40.908  14.778  13.935
40120W        W 3888  22.699  32.481  10.472
40121W        W 3889  25.692  23.134  11.060
40122W        W 3890  42.927  16.649   1.314
40123W        W 3891  28.165   5.430   1.449
40124W        W 3892  41.445  21.183  12.934
40125W        W 3893  40.544  12.698   0.853
40126W        W 3894  26.480  28.143  11.460
40127W        W 3895  29.545  42.803   0.961
40128W        W 3896  35.018   2.340  12.022
40129W        W 3897   4.741  24.616  14.790
40130W        W 3898  44.457  30.105   3.226
40131W        W 3899   0.790  32.067  10.151
40132W        W 3900  44.368   9.781  12.847
40133W        W 3901  32.118  30.095   3.315
40134W        W 3902  40.330   6.720  14.410
40135W        W 3903  26.466  28.048  12.912
40136W        W 3904  12.166  16.262   1.311
40137W        W 3905  38.929  41.855  12.889
40138W        W 3906  19.580  19.710  14.899
40139W        W 3907  20.106  12.289  13.870
40140W        W 3908  37.065  11.310   2.897
40141W        W 3909  25.190  26.542  13.517
40142W        W 3910  27.971  37.467  12.846
40143W        W 3911  32.590  40.002   3.294
40144W        W 3912   3.307  31.143   4.719
40145W        W 3913  30.923   9.826  11.463
40146W        W 3914  10.831  27.165   0.353
40147W        W 3915  38.877  10.315  11.594
40148W        W 3916   4.290  31.060  12.000
40149W        W 3917  40.459  43.910  14.344
40150W        W 3918  23.193  30.107   4.608
40151W        W 3919  17.189  19.656  12.949
40152W        W 3920  19.113  25.215  14.420
40153W        W 3921  18.102  39.384   3.261
40154W        W 3922   6.877  40.523   3.164
40155W        W 3923   3.287  36.538   2.191
40156W        W 3924  28.978  25.178  13.034
40157W        W 3925  31.558  18.076  12.484
40158W        W 3926  20.042  30.049  14.001
40159W        W 3927  44.376  29.558   3.836
40160W        W 3928  14.797  20.245   3.383
40161W        W 3929  16.148  19.273  14.934
40162W        W 3930  22.152  29.610   4.344
40163W        W 3931  24.621  39.428  13.877
40164W        W 3932  11.358  19.191   0.916
40165W        W 3933  44.926  22.620   1.837
40166W        W 3934  33.881   8.223  13.341
40167W        W 3935   1.848   7.359  13.024
40168W        W 3936   6.767  30.142   2.699
40169W        W 3937  35.478  38.937   4.292
40170W        W 3938  41.445  28.604  14.819
40171W        W 3939   9.363  27.114  14.482
40172W        W 3940  40.882   6.404   1.439
40173W        W 3941   9.290  43.457   0.786
40174W        W 3942   4.353  20.638   0.944
40175W        W 3943  26.099  43.978  11.095
40176W        W 3944  34.963  16.134   2.902
40177W        W 3945  21.156  10.298   0.263
40178W        W 3946  39.995  42.021   1.352
40179W        W 3947  33.000  16.296   2.226
40180W        W 3948   5.416  17.151  10.639
40181W        W 3949  14.181  36.517   2.284
40182W        W 3950  44.416  14.305  10.602
40183W        W 3951  11.262  21.232   2.179
40184W        W 3952  37.400   2.423   3.770
40185W        W 3953  14.727   4.744  14.305
40186W        W 3954  25.543  32.057   1.288
40187W        W 3955  16.302  18.218   2.810
40188W        W 3956  25.120   5.751   1.828
40189W        W 3957  18.248   6.348  13.033
40190W        W 3958  32.524  39.348   3.229
40191W        W 3959  42.937  42.896   4.262
40192W        W 3960  41.928  12.255   1.302
40193W        W 3961  18.687   1.464   4.749
40194W        W 3962   0.411  27.110   0.363
40195W        W 3963  31.540  12.720   3.360
40196W        W 3964  31.124  23.656   2.362
40197W        W 3965  43.451   4.383  10.909
40198W        W 3966   9.764  25.962  13.938
40199W        W 3967  30.963  21.164   3.655
40200W        W 3968  43.399   8.864  10.992
40201W        W 3969  17.616   5.918  13.486
40202W        W 3970  17.207   5.374   1.215
40203W        W 3971  37.967   7.404   3.329
40204W        W 3972  18.119  21.129  13.309
40205W        W 3973  25.709  16.612  14.457
40206W        W 3974  33.397  21.609   0.754
40207W        W 3975  30.929  33.562   2.817
40208W        W 3976  20.257  22.678   0.919
40209W        W 3977  16.250  36.559  11.988
40210W        W 3978  24.680  42.876  11.506
40211W        W 3979  22.557  26.507  12.356
40212W        W 3980   7.184  43.989   3.665
40213W        W 3981  27.087  40.371  13.836
40214W        W 3982  44.988   0.476   2.757
40215W        W 3983   3.931  19.639   1.696
40216W        W 3984  42.920  11.232  11.480
40217W        W 3985  10.817   3.944   1.347
40218W        W 3986  23.664  19.134  11.523
40219W        W 3987  19.548  38.340  13.855
40220W        W 3988   4.940   8.832  10.101
40221W        W 3989  27.582  34.872   5.165
40222W        W 3990  12.204  22.164   2.856
40223W        W 3991  30.503  37.054   3.328
40224W        W 3992  24.676  15.811   5.246
40225W        W 3993  44.004  41.480  13.976
40226W        W 3994  14.615  14.729   5.159
40227W        W 3995  17.587  15.175   3.296
40228W        W 3996  28.080  34.120  11.892
40229W        W 3997   9.779  43.380   2.342
40230W        W 3998   0.351  40.992   1.864
40231W        W 3999  33.888   7.911   2.848
40232W        W 4000  25.590  17.164   3.242
40233W        W 4001   9.177  36.405   4.141
40234W        W 4002  39.993  32.135  10.129
40235W        W 4003  38.470  17.164   2.344
40236W        W 4004  33.077  22.713   2.893
40237W        W 4005  27.480  19.127  12.436
40238W        W 4006  25.188  19.660   2.270
40239W        W 4007  42.422  15.248  12.479
40240W        W 4008  38.331  13.807  11.108
40241W        W 4009   1.775  20.653  14.859
40242W        W 4010  25.505  41.923   1.816
40243W        W 4011  42.017  37.449  12.932
40244W        W 4012  16.164  23.543   0.800
40245W        W 4013  17.252  34.420   2.739
40246W        W 4014  20.144  38.882   3.343
40247W        W 4015   6.754  39.445  13.970
40248W        W 4016  38.406  44.771   4.811
40249W        W 4017   3.321  11.137   1.395
40250W        W 4018   3.361   0.305   4.132
40251W        W 4019  35.043  25.486   1.846
40252W        W 4020  23.154   3.267   1.752
40253W        W 4021  19.042  10.183   1.243
40254W        W 4022  22.600  15.729  12.903
40255W        W 4023  25.488   9.169   2.856
40256W        W 4024  25.106  27.115   3.191
40257W        W 4025  35.424   5.887   3.221
40258W        W 4026  37.017   7.760   2.321
40259W        W 4027  13.765  33.543  13.405
40260W        W 4028  28.480  19.143  11.496
40261W        W 4029  16.576  33.097  13.035
40262W        W 4030  22.523  42.018   3.824
40263W        W 4031   0.256  23.995   3.192
40264W        W 4032  32.958  25.678   4.318
40265W        W 4033  27.557   8.855   4.225
40266W        W 4034  23.160   5.919  13.957
40267W        W 4035   9.649  41.976   2.391
40268W        W 4036  25.026  37.362  10.560
40269W        W 4037  40.882  18.065  11.905
40270W        W 4038  20.173   7.889   1.764
40271W        W 4039   6.248  20.117  10.889
40272W        W 4040  39.974  25.611  11.424
40273W        W 4041  26.073  23.132   2.323
40274W        W 4042  40.025   0.447  12.910
40275W        W 4043   6.785   6.416  12.931
40276W        W 4044  31.132   1.399   3.763
40277W        W 4045  30.647  32.416  10.989
40278W        W 4046   3.317  41.020   2.893
40279W        W 4047  44.811  20.715  10.987
40280W        W 4048  42.393  40.016  14.955
40281W        W 4049  31.006  28.435   2.814
40282W        W 4050  35.979  28.550   4.738
40283W        W 4051   6.226  19.696  13.940
40284W        W 4052   0.478  16.197  12.835
40285W        W 4053  30.922  41.939  14.506
40286W        W 4054  24.211  25.696   2.793
40287W        W 4055  34.072  27.598   0.797
40288W        W 4056  34.933  41.042  10.553
40289W        W 4057   0.273  26.491   2.892
40290W        W 4058  44.796  34.382   2.403
40291W        W 4059  27.502   5.336   3.228
40292W        W 4060  35.373   7.404   0.293
40293W        W 4061  33.413  20.749  12.391
40294W        W 4062  15.595  29.082   2.779
40295W        W 4063  29.031  17.225   3.294
40296W        W 4064  25.680  43.448  11.521
40297W        W 4065  33.007   8.176  13.836
40298W        W 4066   7.854  40.447  11.578
40299W        W 4067  12.617   7.248   1.304
40300W        W 4068  34.462  21.234   1.729
40301W        W 4069   9.250  11.644   9.930
40302W        W 4070   7.721  21.682   2.406
40303W        W 4071   2.864  19.104   0.254
40304W        W 4072  34.409  17.646   2.719
40305W        W 4073  29.096  41.851   0.355
40306W        W 4074   5.435  21.639   3.197
40307W        W 4075  18.745  14.719   1.286
40308W        W 4076  39.863  22.089   0.463
40309W        W 4077  13.813  43.793   3.155
40310W        W 4078  18.183   4.351   0.803
40311W        W 4079  35.396  44.278   3.303
40312W        W 4080   0.838  21.623   1.865
40313W        W 4081  34.965   3.744  14.331
40314W        W 4082  12.171  27.470   2.361
40315W        W 4083  38.499   9.298  12.506
40316W        W 4084  13.824  35.418   1.301
40317W        W 4085  35.531  37.537   3.234
40318W        W 4086   1.807  23.018  14.017
40319W        W 4087  21.250  19.681  12.916
40320W        W 4088  17.280   3.384   4.121
40321W        W 4089  42.471   7.189  11.439
40322W        W 4090  11.287  24.651  12.074
40323W        W 4091  24.601  20.247   2.258
40324W        W 4092   2.960   0.369   3.254
40325W        W 4093  38.361   8.797  13.336
40326W        W 4094  34.433  25.565  12.498
40327W        W 4095  25.181  28.984  13.847
40328W        W 4096  26.542  24.107  14.871
40329W        W 4097  16.169  10.676  12.014
40330W        W 4098  35.943  24.702   0.882
40331W        W 4099  20.272  29.465  13.985
40332W        W 4100  33.474  22.047  10.155
40333W        W 4101  21.568  19.546   0.444
40334W        W 4102  42.375  37.416  10.417
40335W        W 4103  12.678  41.794  12.841
40336W        W 4104   9.855  12.257   0.460
40337W        W 4105  10.368   6.698  13.405
40338W        W 4106  33.059  27.975  11.870
40339W        W 4107  40.833  13.761  14.025
40340W        W 4108  40.804   8.745   2.406
40341W        W 4109  41.998  23.071   0.461
40342W        W 4110  41.963  15.194   1.328
40343W        W 4111  39.358  15.624  11.571
40344W        W 4112  43.927  33.042   4.715
40345W        W 4113  30.992  17.121   0.770
40346W        W 4114   6.355  12.776  10.000
40347W        W 4115   3.763  27.126   1.806
40348W        W 4116  35.528   6.327  12.024
40349W        W 4117  40.890  27.068  12.978
40350W        W 4118   6.711  17.178   1.699
40351W        W 4119  25.077  32.511  10.970
40352W        W 4120  12.296  19.676   2.416
40353W        W 4121  38.365  17.167   0.458
40354W        W 4122  25.079  18.587  11.928
40355W        W 4123  41.992  19.246  10.530
40356W        W 4124  15.271  11.669   1.218
40357W        W 4125  19.144  14.801   0.858
40358W        W 4126  14.120  33.449  10.930
40359W        W 4127  40.446  22.008   0.953
40360W        W 4128  38.460  40.942   3.160
40361W        W 4129  10.193  27.987   1.287
40362W        W 4130  22.525   2.840   3.291
40363W        W 4131  11.806  44.806   2.346
40364W        W 4132  25.533  13.741  11.966
40365W        W 4133  26.688  34.088  14.359
40366W        W 4134   6.251   0.834  12.086
40367W        W 4135  15.687  12.725   2.310
40368W        W 4136  43.020  14.295  12.866
40369W        W 4137  19.274  10.685   1.344
40370W        W 4138  39.466  24.204  12.924
40371W        W 4139  20.184  34.552  13.805
40372W        W 4140  20.598  27.529  10.436
40373W        W 4141  11.627  26.554  13.922
40374W        W 4142   9.372  38.571   4.313
40375W        W 4143  21.252  38.975   4.337
40376W        W 4144  20.558   2.787   4.667
40377W        W 4145  31.599  44.985  10.483
40378W        W 4146  37.002   0.803   2.754
40379W        W 4147  28.660  37.412  10.941
40380W        W 4148  19.620  40.850   1.927
40381W        W 4149  30.490   0.932  14.969
40382W        W 4150  33.526  17.198  11.925
40383W        W 4151  15.135  25.215   4.331
40384W        W 4152  26.105  38.504   0.362
40385W        W 4153  10.788  30.058  11.455
40386W        W 4154  24.596   1.789  11.063
40387W        W 4155  19.541  15.731  10.965
40388W        W 4156  14.149  38.879   3.313
40389W        W 4157  15.240   5.766  13.429
40390W        W 4158  37.366   9.386  14.854
40391W        W 4159  13.327  43.344   2.416
40392W        W 4160  18.215  37.060  14.389
40393W        W 4161  34.558  38.874   1.910
40394W        W 4162  19.626  26.474   1.215
40395W        W 4163   6.757  19.541  13.493
40396W        W 4164  37.852  29.029   2.722
40397W        W 4165  23.035  36.014  13.349
40398W        W 4166  44.411   1.811  10.447
40399W        W 4167  36.974   3.349  11.891
40400W        W 4168  38.029   2.296  13.033
40401W        W 4169  16.576   3.457   4.179
40402W        W 4170  39.037  42.395   4.219
40403W        W 4171  28.461  10.316  12.024
40404W        W 4172  41.789  11.184  12.938
40405W        W 4173  20.527  30.645  13.452
40406W        W 4174  43.830  34.544  12.043
40407W        W 4175   0.907  20.659  12.003
40408W        W 4176  27.068  24.160   1.863
40409W        W 4177  41.329  21.534   2.393
40410W        W 4178  10.293  24.482   4.803
40411W        W 4179  10.195  42.984  13.890
40412W        W 4180  15.264   6.366   1.719
40413W        W 4181  27.605  42.284   2.236
40414W        W 4182  38.904   6.885  13.915
40415W        W 4183  20.606   8.835   3.298
40416W        W 4184  24.125  28.982  11.376
40417W        W 4185  36.972  42.826  10.904
40418W        W 4186  13.152   1.240   4.804
40419W        W 4187  40.035  13.335   2.324
40420W        W 4188  33.423  28.108  11.561
40421W        W 4189  10.791  21.739   1.288
40422W        W 4190  39.508  42.363   1.821
40423W        W 4191  34.507  35.584  10.896
40424W        W 4192   3.430  31.516  14.305
40425W        W 4193  14.156  15.792   0.258
40426W        W 4194  35.957  27.029  13.955
40427W        W 4195  31.134  13.653  14.896
40428W        W 4196  40.345  21.586   2.903
40429W        W 4197  44.425  26.472   2.358
40430W        W 4198  11.298  34.885  12.952
40431W        W 4199  15.122  24.661   4.160
40432W        W 4200  38.569  29.924   1.793
40433W        W 4201  16.120  26.547   0.386
40434W        W 4202  14.614   0.374  12.541
40435W        W 4203  23.678  36.982   0.353
40436W        W 4204  33.069   8.361   4.203
40437W        W 4205   3.950  16.218  10.631
40438W        W 4206  32.020  25.011  10.608
40439W        W 4207  40.826   2.415   1.424
40440W        W 4208  17.074  33.988   4.712
40441W        W 4209  44.974  39.945   0.367
40442W        W 4210  41.440  27.652  11.482
40443W        W 4211  28.630  14.737  10.642
40444W        W 4212  18.761   8.757  12.536
40445W        W 4213  30.425  28.124  13.366
40446W        W 4214  12.704  26.054  11.610
40447W        W 4215  24.650  10.182  13.888
40448W        W 4216  44.756  14.130   0.852
40449W        W 4217  23.543  28.948   3.713
40450W        W 4218  26.072  29.601   4.341
40451W        W 4219  40.345   4.310  12.467
40452W        W 4220  29.427  18.756  13.425
40453W        W 4221  19.705  12.280  13.450
40454W        W 4222  28.662  20.744  12.844
40455W        W 4223  42.848  30.937  10.995
40456W        W 4224   9.799  17.153   0.413
40457W        W 4225  10.188   1.430   0.842
40458W        W 4226  25.983   7.842   0.390
40459W        W 4227  18.155  12.120  12.341
40460W        W 4228  10.842  38.349  13.993
40461W        W 4229  42.935  29.928   3.217
40462W        W 4230  31.643  11.792   1.822
40463W        W 4231  39.412  43.442  14.942
40464W        W 4232  32.053  35.001   3.668
40465W        W 4233   5.729  27.470   3.174
40466W        W 4234  44.343  20.581   1.853
40467W        W 4235   6.307  12.332  11.951
40468W        W 4236  41.811  41.933  11.379
40469W        W 4237  36.903  11.817   2.858
40470W        W 4238   2.934  33.413   2.761
40471W        W 4239  18.154  40.972   0.449
40472W        W 4240  36.448  35.459   1.743
40473W        W 4241  26.197  24.501  11.941
40474W        W 4242  27.138  41.311  14.366
40475W        W 4243   9.866  23.131   1.267
40476W        W 4244  38.463  13.230   3.174
40477W        W 4245   7.358  17.789   2.298
40478W        W 4246  36.007  33.553  11.106
40479W        W 4247  10.352  30.917   0.483
40480W        W 4248  29.114   7.889  13.307
40481W        W 4249  35.588   3.817   0.771
40482W        W 4250  36.367  41.344  11.421
40483W        W 4251   8.293  34.383  11.915
40484W        W 4252  15.170  31.051  14.453
40485W        W 4253  36.066   4.706   2.349
40486W        W 4254   9.203  42.348   4.176
40487W        W 4255  11.645  22.170  12.046
40488W        W 4256  13.661   1.324   3.736
40489W        W 4257  39.960  41.535  11.097
40490W        W 4258  24.537  43.005  14.962
40491W        W 4259  19.586  34.099   2.662
40492W        W 4260  35.436  23.143  10.952
40493W        W 4261  16.724  29.120  10.564
40494W        W 4262  11.218   2.432   0.821
40495W        W 4263  22.689  35.503   1.317
40496W        W 4264  12.275  17.763   0.881
40497W        W 4265  35.029  20.649   3.315
40498W        W 4266  26.561   9.878  13.063
40499W        W 4267  24.030  17.103   4.118
40500W        W 4268   1.849  24.589  11.403
40501W        W 4269  24.625  30.609   1.224
40502W        W 4270  19.534  34.113  12.574
40503W        W 4271  36.882  38.393  13.415
40504W        W 4272  33.021  11.786  11.422
40505W        W 4273  32.991  32.923  11.079
40506W        W 4274  29.521   8.717   3.827
40507W        W 4275  12.310  36.917   2.858
40508W        W 4276  11.819  35.539   1.775
40509W        W 4277  20.097  16.206   0.312
40510W        W 4278   0.249  30.102   1.312
40511W        W 4279  42.819  28.006   2.778
40512W        W 4280  27.079  38.368  10.571
40513W        W 4281  20.728  32.420  11.981
40514W        W 4282  28.121   5.326  12.515
40515W        W 4283  36.588   6.309   3.863
40516W        W 4284   6.414  22.698  10.903
40517W        W 4285  23.017  18.698  14.371
40518W        W 4286  32.127  17.608   2.257
40519W        W 4287  12.209  17.068  11.612
40520W        W 4288  10.231  25.203   3.731
40521W        W 4289  28.166  33.916   4.137
40522W        W 4290  35.921  44.328   4.303
40523W        W 4291   8.735  34.972  11.022
40524W        W 4292  14.731  17.205  13.018
40525W        W 4293  42.347  44.396   1.445
40526W        W 4294   5.728  37.014  14.480
40527W        W 4295  29.442  25.688   1.262
40528W        W 4296  22.621  25.472  12.086
40529W        W 4297  24.135  21.247   3.215
40530W        W 4298  16.787  17.634   3.650
40531W        W 4299  27.568  18.277  10.955
40532W        W 4300   5.871  39.883   2.385
40533W        W 4301   3.898  25.529   1.432
40534W        W 4302  22.043  34.088   2.190
40535W        W 4303   7.392  36.922  11.063
40536W        W 4304   3.338  11.143  14.489
40537W        W 4305  39.846   8.263   2.766
40538W        W 4306  33.429  30.644  13.952
40539W        W 4307   1.340  11.246  12.978
40540W        W 4308  18.202  38.828   4.151
40541W        W 4309  20.699  29.617   2.265
40542W        W 4310  11.689  30.946   1.804
40543W        W 4311   5.294  22.686   0.295
40544W        W 4312  37.956   6.358  13.906
40545W        W 4313  29.157   4.388   0.372
40546W        W 4314   7.296  12.652  11.526
40547W        W 4315   2.365  11.850   0.290
40548W        W 4316  25.981  42.805  11.417
40549W        W 4317   5.344  36.448   4.178
40550W        W 4318   7.808  35.937   4.291
40551W        W 4319   1.809  21.567  11.916
40552W        W 4320   5.409  13.656   0.296
40553W        W 4321  38.058   2.804  10.604
40554W        W 4322  26.044  18.769   1.385
40555W        W 4323   3.798  13.277   4.769
40556W        W 4324  34.960   7.385   9.495
40557W        W 4325  14.834  13.267  10.914
40558W        W 4326  27.504   5.326   3.867
40559W        W 4327  43.940  43.805  13.472
40560W        W 4328  30.649  17.746  12.453
40561W        W 4329   1.450  41.464  11.411
40562W        W 4330  13.284  11.192  13.923
40563W        W 4331  42.306  40.816  11.073
40564W        W 4332  22.682  26.519  12.907
40565W        W 4333  13.658  29.988  10.917
40566W        W 4334  30.083  11.714  10.551
40567W        W 4335  19.141  12.293   4.676
40568W        W 4336  12.730  35.429  14.810
40569W        W 4337  21.680  31.907   4.835
40570W        W 4338   3.459  41.015  11.959
40571W        W 4339  22.735   1.808   1.933
40572W        W 4340  39.040  21.140   4.171
40573W        W 4341  35.879  27.481   4.349
40574W        W 4342  31.609  22.222  12.058
40575W        W 4343  42.965   2.438  14.779
40576W        W 4344   5.308  44.275  12.885
40577W        W 4345  37.977   2.448  11.893
40578W        W 4346   4.318  26.627  13.324
40579W        W 4347  27.639  37.844   0.734
40580W        W 4348  44.334  43.846  13.499
40581W        W 4349  23.234  11.369   1.430
40582W        W 4350  40.384  15.264  14.949
40583W        W 4351  25.144  40.501   0.443
40584W        W 4352  27.665  42.929  11.960
40585W        W 4353   3.744  42.875  13.364
40586W        W 4354  39.330  13.742  12.407
40587W        W 4355  26.970  16.597  11.983
40588W        W 4356  28.153  33.014   0.451
40589W        W 4357  26.462  12.327   3.830
40590W        W 4358   5.279  10.290  11.503
40591W        W 4359   8.740  38.999  14.976
40592W        W 4360  10.350  12.117   4.316
40593W        W 4361  32.482  24.156   1.805
40594W        W 4362  38.444  11.299   0.410
40595W        W 4363  38.991  17.801  13.329
40596W        W 4364  14.677  20.534   2.385
40597W        W 4365   7.744  25.620   2.806
40598W        W 4366  25.698  36.871   2.230
40599W        W 4367  16.718  22.743  12.860
40600W        W 4368  33.509  21.080   0.467
40601W        W 4369  29.584   8.859   2.788
40602W        W 4370  16.700   5.766   0.802
40603W        W 4371  40.350   3.922  14.513
40604W        W 4372  33.940  20.648  11.124
40605W        W 4373  41.327  15.171   3.148
40606W        W 4374  21.680  30.083   4.616
40607W        W 4375   4.326  39.855   3.180
40608W        W 4376  44.767  17.615   0.843
40609W        W 4377  27.050  43.322  11.074
40610W        W 4378  33.591  19.769  14.412
40611W        W 4379  36.530   6.413   1.843
40612W        W 4380  28.129  31.534   3.225
40613W        W 4381  10.840  15.252  12.034
40614W        W 4382  44.278  26.486  11.864
40615W        W 4383  37.881   7.781   2.374
40616W        W 4384  11.287   9.299   5.655
40617W        W 4385  29.649  16.669   5.643
40618W        W 4386  16.215  16.813  13.372
40619W        W 4387   9.189   5.425   0.745
40620W        W 4388  26.599  22.543   4.144
40621W        W 4389  41.355  42.971   5.308
40622W        W 4390  29.623  17.584  14.349
40623W        W 4391  35.879   4.932  10.147
40624W        W 4392  30.162  16.077   2.804
40625W        W 4393  36.477  23.507   4.123
40626W        W 4394  43.499  21.053  11.419
40627W        W 4395  27.519  37.441   3.373
40628W        W 4396   1.418   3.853   2.717
40629W        W 4397   2.790  24.990   1.714
40630W        W 4398  25.105  37.552  13.924
40631W        W 4399  24.497  12.328  14.447
40632W        W 4400   0.346  23.989  10.507
40633W        W 4401   7.217  32.581   2.832
40634W        W 4402  26.989  23.129  14.963
40635W        W 4403  40.380  16.311   3.642
40636W        W 4404  16.294   3.286   0.364
40637W        W 4405  26.534  32.627  14.772
40638W        W 4406  15.103   3.423   0.262
40639W        W 4407  17.766  26.125  14.817
40640W        W 4408  33.949  17.678   3.634
40641W        W 4409   2.260  13.207   3.760
40642W        W 4410  28.150  40.836  10.631
40643W        W 4411  44.498  33.527   1.316
40644W        W 4412  42.328  24.492   2.691
40645W        W 4413  23.545  38.070   1.229
40646W        W 4414  20.536   8.809   0.945
40647W        W 4415  14.693   1.974  13.052
40648W        W 4416   5.376  21.593  10.431
40649W        W 4417  32.630  24.699  12.962
40650W        W 4418  33.518   5.277  11.450
40651W        W 4419  34.542   9.273   4.683
40652W        W 4420  17.732  17.660   0.828
40653W        W 4421  29.972  13.208   1.300
40654W        W 4422  39.007   6.320  11.886
40655W        W 4423  27.191  33.531   9.503
40656W        W 4424  17.307   3.338   3.819
40657W        W 4425  10.168  30.599   0.862
40658W        W 4426  21.235  37.080  10.892
40659W        W 4427   8.208   2.787  12.539
40660W        W 4428  37.930  41.869   1.331
40661W        W 4429  19.110  35.362   3.276
40662W        W 4430   7.756  34.076   1.388
40663W        W 4431  39.955  30.146   3.274
40664W        W 4432  40.387  31.007  10.911
40665W        W 4433  25.551  23.015  11.420
40666W        W 4434   6.386   7.817  14.942
40667W        W 4435  17.688   3.351   2.334
40668W        W 4436  14.799  40.378   0.320
40669W        W 4437  30.518   7.263  12.848
40670W        W 4438  10.727  17.164  10.119
40671W        W 4439  40.463  34.952   2.281
40672W        W 4440  22.735  29.516   4.296
40673W        W 4441   1.912  17.076   4.737
40674W        W 4442   0.362   7.341  14.329
40675W        W 4443  32.094  43.368  12.849
40676W        W 4444  18.224   6.913  12.486
40677W        W 4445   1.749  43.371  12.525
40678W        W 4446   4.818  39.853  12.931
40679W        W 4447  13.676  30.937  12.962
40680W        W 4448  23.192  19.719  11.533
40681W        W 4449  19.076  27.016  13.427
40682W        W 4450   6.348  22.125  11.955
40683W        W 4451  16.685  10.690   2.783
40684W        W 4452  33.895  16.142  14.309
40685W        W 4453  23.707  28.073  13.825
40686W        W 4454   1.755  41.292  12.956
40687W        W 4455  26.667  19.213   3.663
40688W        W 4456   5.244  11.225  13.871
40689W        W 4457  27.619   2.255   2.256
40690W        W 4458  26.692  32.393  14.373
40691W        W 4459  36.350  13.177  12.954
40692W        W 4460   4.302  11.789  14.873
40693W        W 4461  25.161  23.491  10.644
40694W        W 4462  42.852  16.143  14.003
40695W        W 4463  16.726  28.104  13.822
40696W        W 4464  11.640  20.698  14.340
40697W        W 4465  25.616  18.619   3.192
40698W        W 4466  15.774  21.684  11.547
40699W        W 4467  12.305  29.510   1.271
40700W        W 4468   3.721  33.617  14.766
40701W        W 4469   7.356  43.435  11.923
40702W        W 4470   8.319   8.345   3.247
40703W        W 4471   8.812  24.020  12.873
40704W        W 4472  15.293   0.897   2.703
40705W        W 4473  15.179   9.203   1.385
40706W        W 4474  22.522   2.231  10.455
40707W        W 4475  40.054  20.145   2.676
40708W        W 4476   5.328  20.168  14.482
40709W        W 4477   1.476   8.331   1.846
40710W        W 4478  14.254   8.776   1.858
40711W        W 4479  12.357  39.430  11.864
40712W        W 4480  28.559   9.742  11.952
40713W        W 4481   9.310   3.400   4.166
40714W        W 4482  12.616  18.767   1.335
40715W        W 4483  25.673  31.470   1.694
40716W        W 4484  38.871  22.132   2.799
40717W        W 4485  19.718  35.003   3.157
40718W        W 4486  32.092  40.393  11.984
40719W        W 4487   3.272   7.269   0.313
40720W        W 4488  19.133  19.129  12.006
40721W        W 4489  36.072  38.896   3.316
40722W        W 4490  17.074  22.690  13.852
40723W        W 4491   5.831  44.475  10.097
40724W        W 4492  37.389  43.345   1.924
40725W        W 4493  21.720  39.452   2.807
40726W        W 4494  21.069  40.855   2.239
40727W        W 4495   9.272   4.764   2.757
40728W        W 4496  16.163  32.128   4.612
40729W        W 4497  39.491  27.124   1.725
40730W        W 4498  40.441  25.478   0.442
40731W        W 4499  14.599  33.933  11.949
40732W        W 4500  18.141  26.960   3.339
40733W        W 4501  37.078   6.256   0.944
40734W        W 4502  41.328  21.574  13.834
40735W        W 4503  42.858  36.524  14.916
40736W        W 4504  36.021   2.236   3.186
40737W        W 4505   4.943   4.704   1.362
40738W        W 4506  41.816  25.003   1.248
40739W        W 4507  43.400  28.994   4.230
40740W        W 4508   0.486  37.511   1.225
40741W        W 4509  22.030  44.479  11.539
40742W        W 4510  18.253  22.170  11.520
40743W        W 4511  16.593  19.105   3.685
40744W        W 4512  16.722  23.511  13.015
40745W        W 4513  33.989  18.605   1.222
40746W        W 4514  19.045  42.975   3.640
40747W        W 4515  17.189  44.498  13.479
40748W        W 4516  13.221  29.967  14.886
40749W        W 4517  27.678  11.217   3.225
40750W        W 4518  38.449  26.166   2.774
40751W        W 4519  40.020  20.086   3.152
40752W        W 4520  12.124  37.512   0.741
40753W        W 4521  39.931  33.127   1.803
40754W        W 4522   8.378  12.840  10.558
40755W        W 4523  41.893  13.291  13.521
40756W        W 4524   0.771  24.558  10.418
40757W        W 4525  36.432  28.529   3.278
40758W        W 4526  29.065  43.924   3.633
40759W        W 4527   6.721  24.626   0.925
40760W        W 4528  22.103   1.399  13.449
40761W        W 4529  33.131  36.448  11.513
40762W        W 4530   1.975  20.099   4.730
40763W        W 4531  12.617   4.227   0.311
40764W        W 4532  14.267  36.444  14.509
40765W        W 4533  30.593   9.850  13.513
40766W        W 4534  16.170  41.028   4.275
40767W        W 4535   0.940   1.429   2.338
40768W        W 4536   7.824  40.871   0.309
40769W        W 4537   2.247  36.397   4.783
40770W        W 4538  41.818   1.969   0.287
40771W        W 4539  39.436  27.505  11.097
40772W        W 4540   6.868  28.142  12.374
40773W        W 4541  34.029  13.317   4.629
40774W        W 4542   7.344   9.719  10.916
40775W        W 4543  16.309   7.327   4.633
40776W        W 4544  29.506  30.096  11.511
40777W        W 4545  11.257  14.265  10.469
40778W        W 4546  40.379   5.272  13.012
40779W        W 4547   4.416  25.053   4.262
40780W        W 4548  25.540  18.147   4.198
40781W        W 4549  14.184   0.847   0.425
40782W        W 4550  39.835  32.023  11.082
40783W        W 4551  23.536  20.530   4.770
40784W        W 4552  42.009   1.884   1.823
40785W        W 4553  22.671  25.041   1.226
40786W        W 4554  38.843  27.476   4.682
40787W        W 4555   6.743  22.062  12.937
40788W        W 4556  25.541  10.788   1.334
40789W        W 4557  13.252   6.409   1.866
40790W        W 4558  17.735  16.312   2.332
40791W        W 4559  19.775  18.216   3.380
40792W        W 4560   2.262  19.767  14.914
40793W        W 4561  36.473   8.689   2.383
40794W        W 4562  30.425   6.792   4.332
40795W        W 4563  33.473  11.840  12.949
40796W        W 4564  42.963  18.779   3.306
40797W        W 4565  13.195  17.733  14.311
40798W        W 4566  29.482  38.030   1.327
40799W        W 4567  16.308  14.670  12.014
40800W        W 4568   8.655  29.155  14.325
40801W        W 4569   7.894  25.632  13.877
40802W        W 4570  14.257   8.287   1.418
40803W        W 4571  15.158  44.842  12.954
40804W        W 4572  38.474  44.991  12.378
40805W        W 4573  21.246  17.255  11.480
40806W        W 4574   7.736  24.606  13.039
40807W        W 4575  43.412  12.629  13.820
40808W        W 4576   9.767   5.830   2.759
40809W        W 4577  28.020  14.271  12.518
40810W        W 4578  13.620   8.392  12.868
40811W        W 4579   8.322  22.584   4.157
40812W        W 4580   6.690  12.654   3.351
40813W        W 4581  40.399  26.133  12.015
40814W        W 4582  23.701  10.653   0.767
40815W        W 4583  16.202  39.509   3.256
40816W        W 4584  29.550   3.272   3.697
40817W        W 4585  41.292  35.082   1.277
40818W        W 4586  34.602  41.326   0.410
40819W        W 4587  21.528   4.334  12.033
40820W        W 4588  21.620  37.493  12.563
40821W        W 4589  43.794  33.470   3.713
40822W        W 4590  31.544  41.871   4.352
40823W        W 4591  31.912  26.044   4.331
40824W        W 4592  37.866   5.711  11.388
40825W        W 4593  33.481   9.814  12.088
40826W        W 4594  22.729  44.958  11.516
40827W        W 4595   1.468  27.190   3.773
40828W        W 4596   9.217  16.281  11.406
40829W        W 4597  36.899   9.206  13.324
40830W        W 4598  31.107  41.486   3.375
40831W        W 4599  10.859  23.232  14.287
40832W        W 4600  22.216  16.084  10.972
40833W        W 4601  14.309  24.600   0.809
40834W        W 4602   4.249  44.796  12.400
40835W        W 4603  32.115  27.648   4.620
40836W        W 4604  20.718  40.540  13.902
40837W        W 4605  29.610   5.703  12.348
40838W        W 4606   5.907  32.968  11.080
40839W        W 4607  21.102   8.208  11.521
40840W        W 4608  43.775  18.611   1.405
40841W        W 4609  43.892   2.872   0.888
40842W        W 4610  21.029   5.302   1.870
40843W        W 4611  42.507  34.071  13.394
40844W        W 4612  22.180  35.403   4.671
40845W        W 4613  17.168   4.793  14.815
40846W        W 4614   4.904   8.359   0.419
40847W        W 4615   2.424  35.577   1.337
40848W        W 4616   1.320  15.264   4.705
40849W        W 4617  31.966  16.257  12.907
40850W        W 4618  27.065   1.277   1.922
40851W        W 4619  26.123  38.955   1.344
40852W        W 4620  24.214  21.604  11.061
40853W        W 4621  12.241   6.871   2.240
40854W        W 4622  33.954  21.550  13.390
40855W        W 4623   8.264  10.841   0.385
40856W        W 4624  11.711  35.421  10.612
40857W        W 4625  25.136  31.043   4.133
40858W        W 4626  40.944  19.048  11.485
40859W        W 4627  19.079  26.052  10.143
40860W        W 4628  27.459  18.226  11.422
40861W        W 4629  21.125   1.815  14.308
40862W        W 4630  15.595  12.804  14.000
40863W        W 4631   7.675  41.950   1.769
40864W        W 4632  37.432  19.714  13.945
40865W        W 4633  15.733   5.295  13.973
40866W        W 4634  18.214  33.423   2.857
40867W        W 4635  14.827  27.953   4.652
40868W        W 4636  18.550  31.061   2.830
40869W        W 4637  29.103  31.582   4.209
40870W        W 4638  11.226  10.763   2.854
40871W        W 4639  42.776  13.671  14.338
40872W        W 4640  20.731  43.378  12.969
40873W        W 4641  30.955  13.255  14.780
40874W        W 4642   0.391  30.985  13.004
40875W        W 4643   0.288  42.972  10.958
40876W        W 4644  25.984  29.562   4.815
40877W        W 4645  11.829  29.918   4.753
40878W        W 4646   7.682  20.758  11.971
40879W        W 4647  40.378  29.009  12.868
40880W        W 4648  39.931  17.277  13.937
40881W        W 4649  12.122  19.708   1.247
40882W        W 4650  19.720  39.463   4.354
40883W        W 4651  13.697  27.593  11.428
40884W        W 4652  16.571  26.566  10.449
40885W        W 4653   3.291  14.667   4.608
40886W        W 4654   9.214  43.887   0.256
40887W        W 4655   3.419  36.067   2.226
40888W        W 4656   5.429  33.547  14.955
40889W        W 4657  25.107   3.750  14.294
40890W        W 4658  39.417   2.355   1.386
40891W        W 4659  23.556  13.331  11.008
40892W        W 4660  44.471   5.721   2.240
40893W        W 4661  14.753  43.950  14.389
40894W        W 4662  42.464  28.073  13.521
40895W        W 4663  25.603  14.268  10.442
40896W        W 4664   4.362   2.227   4.649
40897W        W 4665  43.914  44.922  11.988
40898W        W 4666  13.815  15.143   1.287
40899W        W 4667  25.683  42.911  14.439
40900W        W 4668  39.993  40.999  14.285
40901W        W 4669  42.504  30.567  14.460
40902W        W 4670  15.603  14.724  13.437
40903W        W 4671  19.739   4.728  11.964
40904W        W 4672  19.762  23.646  11.972
40905W        W 4673  12.710  44.000   2.698
40906W        W 4674  34.896   7.669  13.862
40907W        W 4675   1.879   1.906  11.034
40908W        W 4676   3.849  36.919   4.773
40909W        W 4677  10.715  22.209   0.745
40910W        W 4678   2.782   7.174   4.206
40911W        W 4679  19.111   6.415  13.883
40912W        W 4680  13.776  24.216   0.930
40913W        W 4681  24.070  18.551  11.872
40914W        W 4682   2.421  16.263   4.767
40915W        W 4683  36.544  44.011  11.089
40916W        W 4684  40.336  35.874  13.506
40917W        W 4685  15.259   9.278  10.600
40918W        W 4686  14.201  16.170  10.536
40919W        W 4687  19.637  22.616   3.709
40920W        W 4688   1.376   1.354   3.327
40921W        W 4689  14.738   5.798  12.366
40922W        W 4690  31.970  37.567   0.757
40923W        W 4691  44.936  29.451   3.636
40924W        W 4692  24.567  17.261   4.236
40925W        W 4693  42.975  23.684  13.329
40926W        W 4694  35.426   6.337   0.460
40927W        W 4695  27.942  32.436   3.159
40928W        W 4696  39.818   3.286  12.944
40929W        W 4697  32.611  42.783  13.339
40930W        W 4698   3.843  20.559  10.901
40931W        W 4699  23.668  38.970   1.410
40932W        W 4700   0.272  16.254  11.557
40933W        W 4701   4.802  15.199  14.508
40934W        W 4702  22.124  33.616  13.033
40935W        W 4703  32.011  29.042   1.873
40936W        W 4704   8.893  33.930   2.689
40937W        W 4705  40.039   3.794   2.287
40938W        W 4706  26.561  43.925  14.475
40939W        W 4707  44.861  32.455   1.264
40940W        W 4708  15.656  37.372  13.819
40941W        W 4709  17.580  30.656   5.573
40942W        W 4710   2.748  37.059  12.962
40943W        W 4711   1.241  26.153  14.423
40944W        W 4712  29.609   5.723  11.862
40945W        W 4713   1.311  11.703  10.451
40946W        W 4714  44.941  43.489  11.566
40947W        W 4715  13.154   3.922   2.868
40948W        W 4716  32.903  27.606  12.388
40949W        W 4717   1.334  35.453   2.809
40950W        W 4718  40.934  39.903   3.774
40951W        W 4719  15.101  43.490  12.479
40952W        W 4720  36.488   4.781  13.335
40953W        W 4721  43.901  24.677  10.974
40954W        W 4722  33.590  15.100  14.809
40955W        W 4723  39.314  23.694   3.714
40956W        W 4724  30.993   5.318  12.872
40957W        W 4725  38.898  22.197   3.827
40958W        W 4726  18.143  25.983   1.366
40959W        W 4727  14.663   6.337   0.246
40960W        W 4728   6.881  21.606  13.370
40961W        W 4729  24.605  36.588   1.227
40962W        W 4730  18.205  14.210   1.723
40963W        W 4731   8.741   6.244   4.213
40964W        W 4732   6.212   4.395  13.442
40965W        W 4733  22.209  39.339  10.560
40966W        W 4734  42.466  19.734   2.277
40967W        W 4735   2.880  17.189  14.405
40968W        W 4736  12.691  17.288   5.275
40969W        W 4737   8.340   1.320  11.949
40970W        W 4738  24.651  38.830   4.692
40971W        W 4739  11.741   6.197  10.133
40972W        W 4740  33.423  26.131   3.703
40973W        W 4741  17.092   3.937  13.935
40974W        W 4742   0.492   6.861  10.546
40975W        W 4743  13.298  41.954   3.254
40976W        W 4744  34.058  20.548  11.955
40977W        W 4745  31.147  37.398  12.405
40978W        W 4746  26.002  11.782  11.603
40979W        W 4747  16.198  19.674   3.773
40980W        W 4748  39.499   9.728   2.383
40981W        W 4749  18.580  26.684  14.317
40982W        W 4750  41.336  33.019  14.898
40983W        W 4751  22.018  35.461  13.461
40984W        W 4752  21.565  33.067  11.956
40985W        W 4753   5.341  23.196  11.068
40986W        W 4754   3.713  44.309   0.329
40987W        W 4755  16.301  11.141   2.303
40988W        W 4756  36.516  39.501  14.461
40989W        W 4757  24.584  43.778   4.769
40990W        W 4758  32.591  37.963  13.489
40991W        W 4759   8.778  22.226   0.258
40992W        W 4760  44.829  36.401   4.208
40993W        W 4761  35.395  29.958  13.030
40994W        W 4762  19.151  35.503   3.667
40995W        W 4763   6.182  10.827   1.354
40996W        W 4764  35.368  13.217   2.236
40997W        W 4765   6.260  33.116  12.524
40998W        W 4766   1.397  37.991   3.377
40999W        W 4767   5.280  24.552   2.763
41000W        W 4768  33.031  29.055  13.539
41001W        W 4769  16.265  16.259   3.253
41002W        W 4770   0.469  25.642   3.732
41003W        W 4771  41.988   4.868   1.356
41004W        W 4772  23.518  19.160  13.907
41005W        W 4773  33.064  24.689  13.435
41006W        W 4774  43.407  29.467   9.973
41007W        W 4775  11.801   8.277  12.513
41008W        W 4776   0.451  32.410  13.325
41009W        W 4777   5.314  38.972   4.126
41010W        W 4778  31.452  26.181   1.792
41011W        W 4779  39.418  37.019  14.888
41012W        W 4780  29.963  40.530  12.857
41013W        W 4781  32.073  11.661  10.983
41014W        W 4782  25.537  33.407   0.801
41015W        W 4783  23.597  23.009   2.189
41016W        W 4784  39.016  31.999   9.617
41017W        W 4785  25.624  28.496   4.293
41018W        W 4786  43.312  16.810  12.060
41019W        W 4787  21.172  12.701   0.341
41020W        W 4788  34.369  19.703  12.529
41021W        W 4789  16.261  42.886   2.704
41022W        W 4790   6.426  31.988  10.501
41023W        W 4791  38.519  13.109  10.907
41024W        W 4792  15.154  22.702   4.249
41025W        W 4793  29.955  29.487  12.573
41026W        W 4794  23.733  37.969  14.315
41027W        W 4795  17.144  43.372  12.400
41028W        W 4796  13.267  11.661   4.156
41029W        W 4797  26.467   4.380  10.423
41030W        W 4798   7.175  35.975   0.474
41031W        W 4799   1.915  12.251  12.500
41032W        W 4800  37.575   9.713   0.869
41033W        W 4801   1.310  14.159   4.622
41034W        W 4802  44.305  31.632  11.873
41035W        W 4803  35.103  35.474   4.683
41036W        W 4804  28.017   0.261   1.386
41037W        W 4805  18.728  40.333  14.808
41038W        W 4806  29.000  20.634  10.513
41039W        W 4807  16.294  44.880  11.439
41040W        W 4808  34.025  37.544   3.333
41041W        W 4809  28.501  36.058   0.784
41042W        W 4810  44.402  44.350  13.963
41043W        W 4811  29.506  43.955  14.858
41044W        W 4812  16.236  36.357   3.860
41045W        W 4813  18.597  42.348  14.435
41046W        W 4814  17.148  43.373  10.590
41047W        W 4815   9.226  24.219   4.826
41048W        W 4816  34.542   2.865  11.489
41049W        W 4817  24.494   1.867  10.639
41050W        W 4818   7.246  27.190  11.588
41051W        W 4819  10.822  32.986  13.012
41052W        W 4820  24.009  32.557   0.908
41053W        W 4821  34.593   9.858  13.963
41054W        W 4822   1.397  22.534  13.890
41055W        W 4823  20.615  35.999  10.965
41056W        W 4824  17.666  35.583   2.261
41057W        W 4825  39.408  35.511   1.748
41058W        W 4826   0.369  15.731   0.799
41059W        W 4827  28.129  38.352   2.703
41060W        W 4828  12.343  15.593  13.446
41061W        W 4829  34.468  44.982  13.898
41062W        W 4830  38.968  38.548   4.147
41063W        W 4831  22.037  22.601   2.836
41064W        W 4832  17.140  10.232  12.422
41065W        W 4833   8.677  26.070   2.400
41066W        W 4834  40.516  33.096   3.717
41067W        W 4835  14.101   1.369  10.980
41068W        W 4836   2.446  15.249  12.455
41069W        W 4837  42.291   3.330   3.185
41070W        W 4838  14.715  13.738   4.794
41071W        W 4839  10.347  17.300   0.777
41072W        W 4840  28.571  11.142   1.414
41073W        W 4841  16.789   7.869   0.333
41074W        W 4842  31.460  24.654  11.529
41075W        W 4843  26.463  27.942   4.328
41076W        W 4844  29.117   1.253   2.209
41077W        W 4845  14.657   8.360  11.553
41078W        W 4846  39.812   6.245  11.964
41079W        W 4847  41.044  31.033  14.930
41080W        W 4848  24.714   1.889   3.755
41081W        W 4849  16.131  11.214   0.366
41082W        W 4850  30.053  18.552   4.706
41083W        W 4851  31.531  26.984   2.250
41084W        W 4852  12.127   0.271  12.016
41085W        W 4853  13.690  21.087  14.312
41086W        W 4854   4.907  14.781  12.889
41087W        W 4855  24.973  31.514   3.716
41088W        W 4856  29.169  36.424   2.725
41089W        W 4857  18.208  32.128   4.676
41090W        W 4858  25.192  14.263   0.731
41091W        W 4859   2.365  34.057  11.536
41092W        W 4860  27.036  29.992   4.314
41093W        W 4861  44.489  42.351  12.514
41094W        W 4862  27.067  12.633   0.416
41095W        W 4863  11.352  29.534   4.180
41096W        W 4864  13.731  29.554  12.512
41097W        W 4865   7.756  15.686  13.404
41098W        W 4866   9.881  28.101  10.638
41099W        W 4867  37.374   2.248   1.895
41100W        W 4868  14.122  15.108  12.405
41101W        W 4869  29.624  18.243  13.061
41102W        W 4870  14.662   1.749   3.824
41103W        W 4871  28.020  15.689  12.051
41104W        W 4872  38.016  39.361  10.630
41105W        W 4873  40.002  27.686  14.804
41106W        W 4874  15.240  32.623   3.369
41107W        W 4875  10.178  17.561  11.526
41108W        W 4876  34.030  24.041   2.880
41109W        W 4877  40.935  28.037  12.070
41110W        W 4878   0.338  29.629   2.290
41111W        W 4879   2.920   2.747  12.453
41112W        W 4880  19.726  13.307   3.677
41113W        W 4881  18.158  40.053  12.023
41114W        W 4882  32.626  10.347   0.903
41115W        W 4883  40.406  10.783   4.298
41116W        W 4884  22.529  16.772   3.188
41117W        W 4885   2.259  30.437   2.827
41118W        W 4886  23.539  29.053  14.416
41119W        W 4887  37.490  36.960   0.855
41120W        W 4888  35.442  40.027   0.945
41121W        W 4889  32.073  16.307   0.810
41122W        W 4890  28.456  18.099  12.508
41123W        W 4891  41.832  30.026   1.309
41124W        W 4892   5.742  41.029  14.431
41125W        W 4893  25.131  42.424   2.251
41126W        W 4894  13.608  19.240  11.094
41127W        W 4895  18.172  30.553   3.867
41128W        W 4896  28.110  43.885   2.396
41129W        W 4897  10.311  30.940   9.939
41130W        W 4898  38.330   9.678  12.964
41131W        W 4899   9.378  10.273   4.199
41132W        W 4900  41.435  32.554   1.437
41133W        W 4901  34.390  39.893  13.513
41134W        W 4902  41.437  15.150  11.520
41135W        W 4903  20.675  41.531   2.323
41136W        W 4904  20.183  14.709   0.275
41137W        W 4905   8.349  35.939  14.785
41138W        W 4906  22.092  17.155  12.570
41139W        W 4907  11.825  11.671   0.478
41140W        W 4908  19.237  16.162   0.270
41141W        W 4909  14.295   8.169   0.463
41142W        W 4910  11.314  31.110  14.354
41143W        W 4911  12.807  19.164   1.731
41144W        W 4912  23.124  15.807   4.684
41145W        W 4913  38.438  20.666   1.287
41146W        W 4914  34.427  36.421   4.692
41147W        W 4915  42.323  17.130  11.065
41148W        W 4916  26.080   8.709  11.553
41149W        W 4917  36.389  21.162  14.785
41150W        W 4918  29.559   2.373  14.785
41151W        W 4919   0.456  32.094   1.218
41152W        W 4920   8.803  12.211   2.767
41153W        W 4921   5.391  30.977   0.287
41154W        W 4922   9.679  13.280  13.876
41155W        W 4923  21.703  30.482   0.895
41156W        W 4924  31.071  16.687   0.423
41157W        W 4925   7.856   3.289   4.337
41158W        W 4926  16.156  36.842   3.230
41159W        W 4927   3.828   3.460   3.322
41160W        W 4928  31.102  30.415   0.445
41161W        W 4929  11.234  37.016  11.443
41162W        W 4930  33.582  38.937   3.213
41163W        W 4931   4.939  17.287   4.183
41164W        W 4932   6.282  37.581   2.818
41165W        W 4933  25.044  35.389   2.741
41166W        W 4934   2.805  28.663   3.198
41167W        W 4935  36.079   1.860   3.287
41168W        W 4936  25.975   5.881  13.841
41169W        W 4937  10.867  26.597  11.882
41170W        W 4938  19.062  41.889  11.870
41171W        W 4939  39.018   1.894   4.149
41172W        W 4940   4.425  19.143  14.984
41173W        W 4941  12.246  42.881   0.261
41174W        W 4942  30.525  19.724  12.971
41175W        W 4943  30.133   4.753   0.921
41176W        W 4944   3.859   0.855   4.329
41177W        W 4945  10.381  32.531  11.129
41178W        W 4946  12.694   3.294   1.884
41179W        W 4947  40.325  32.572  14.765
41180W        W 4948  16.131  27.691   0.480
41181W        W 4949  43.904  40.395   1.295
41182W        W 4950   6.207  32.578  11.519
41183W        W 4951  36.023   5.408   4.685
41184W        W 4952  11.695  15.299  11.534
41185W        W 4953  11.224  38.439  12.572
41186W        W 4954  15.743  11.827  14.473
41187W        W 4955  19.600  41.027  14.844
41188W        W 4956   4.756  40.997   1.239
41189W        W 4957   9.769  16.294   3.184
41190W        W 4958   9.285  33.398  14.865
41191W        W 4959  35.958  38.913  13.866
41192W        W 4960  37.021  28.566   3.211
41193W        W 4961  42.441   8.796   2.725
41194W        W 4962  25.526  22.107  13.890
41195W        W 4963   3.304  11.184   4.258
41196W        W 4964  13.794  15.127   2.364
41197W        W 4965  28.984  27.673   3.663
41198W        W 4966   2.866  23.599  10.439
41199W        W 4967   9.672  40.901  12.429
41200W        W 4968  18.565  39.379   4.701
41201W        W 4969  23.202   3.895   4.792
41202W        W 4970   2.242  44.497   2.243
41203W        W 4971  28.516  37.922  11.871
41204W        W 4972  39.427  36.476  14.496
41205W        W 4973  29.495  23.120   0.735
41206W        W 4974  19.182  14.310  10.579
41207W        W 4975   0.438  24.576  13.480
41208W        W 4976  38.988  20.130   3.310
41209W        W 4977  22.231  27.549   3.286
41210W        W 4978  38.468  10.254   0.730
41211W        W 4979  34.937  15.154  11.049
41212W        W 4980  35.561  34.068  14.934
41213W        W 4981  41.361   5.274  13.311
41214W        W 4982  41.796   2.842   1.354
41215W        W 4983  11.672  20.656  14.922
41216W        W 4984  34.032   8.702  11.963
41217W        W 4985   6.391   9.663  11.986
41218W        W 4986   7.897  30.957   1.703
41219W        W 4987  10.226  34.891  13.307
41220W        W 4988  27.456  22.523   2.879
41221W        W 4989   3.401  14.666  14.867
41222W        W 4990  27.533  27.088   3.323
41223W        W 4991  33.392   2.809   3.679
41224W        W 4992   6.261  39.419   0.254
41225W        W 4993   0.805   7.417  11.001
41226W        W 4994  11.361   2.334  14.024
41227W        W 4995   2.750   9.752  12.093
41228W        W 4996  27.674  38.965   2.717
41229W        W 4997  11.308  16.598  10.509
41230W        W 4998   8.690  44.461   2.385
41231W        W 4999  16.209  10.349   9.926
41232W        W 5000  39.860  32.936  11.391
41233W        W 5001  37.873  41.507   4.703
41234W        W 5002   9.694  11.787   1.828
41235W        W 5003  28.053  24.043   9.982
41236W        W 5004  33.074  27.983  11.513
41237W        W 5005  29.098   7.271   2.207
41238W        W 5006  14.731  29.103   0.425
41239W        W 5007   8.223  16.600  13.343
41240W        W 5008   4.754  35.408  10.503
41241W        W 5009  20.750  18.237   1.767
41242W        W 5010  24.605  25.614   3.637
41243W        W 5011  10.748  41.953  12.060
41244W        W 5012  25.974   1.937   2.792
41245W        W 5013  43.891   8.748   3.754
41246W        W 5014  10.139  38.566   4.133
41247W        W 5015  43.435  37.034   2.391
41248W        W 5016  29.456   5.713   3.781
41249W        W 5017  43.435   0.904   1.243
41250W        W 5018  15.172  18.185   3.657
41251W        W 5019  15.260  12.777   2.236
41252W        W 5020   1.287  43.845  10.919
41253W        W 5021  26.515  28.106  12.375
41254W        W 5022  16.306  24.092  12.470
41255W        W 5023  29.611  16.588  11.453
41256W        W 5024  24.595  14.152  10.547
41257W        W 5025  23.004  42.322  10.482
41258W        W 5026  25.180  14.611   0.443
41259W        W 5027  28.608  40.549  14.901
41260W        W 5028  15.157   3.438  12.908
41261W        W 5029  43.451  32.398   3.646
41262W        W 5030   9.727  30.606   3.232
41263W        W 5031  16.602  29.943   2.679
41264W        W 5032  32.103  29.555  13.796
41265W        W 5033   2.764  37.959   2.419
41266W        W 5034   9.885  22.648  11.496
41267W        W 5035  28.096  11.697   4.656
41268W        W 5036  12.656  21.159  12.555
41269W        W 5037   0.952  26.555   3.171
41270W        W 5038   8.388  24.097  11.517
41271W        W 5039  18.790   6.826  14.764
41272W        W 5040  13.753   8.399   0.387
41273W        W 5041  33.069  19.266  10.628
41274W        W 5042  32.435  10.667  12.899
41275W        W 5043  35.361  24.089  10.914
41276W        W 5044  21.754  13.141  12.994
41277W        W 5045  19.244  34.396   3.322
41278W        W 5046  44.843   8.223  11.537
41279W        W 5047  28.578  36.896   1.368
41280W        W 5048  21.239  41.475   3.322
41281W        W 5049  35.981  31.919  12.572
41282W        W 5050  26.969   6.679  13.038
41283W        W 5051  19.149  23.235   0.760
41284W        W 5052  21.221   0.371  13.881
41285W        W 5053  37.927  35.447  14.290
41286W        W 5054  16.103  36.455  11.002
41287W        W 5055  37.522  13.748   1.853
41288W        W 5056  34.598  14.339   1.256
41289W        W 5057  41.306  12.723  11.031
41290W        W 5058  17.178  18.710  12.928
41291W        W 5059   4.446  32.070  10.943
41292W        W 5060  37.392   1.850  12.070
41293W        W 5061  25.150  43.501   2.852
41294W        W 5062   7.705  19.039   4.214
41295W        W 5063  29.584  24.036  11.410
41296W        W 5064  26.533  13.296  11.975
41297W        W 5065  18.717  17.066   0.480
41298W        W 5066   6.733  33.475   1.242
41299W        W 5067  29.158  16.779  13.022
41300W        W 5068  12.211  15.626  12.834
41301W        W 5069   8.660  42.421  13.360
41302W        W 5070  18.294  23.675   5.122
41303W        W 5071  11.136  19.651   3.848
41304W        W 5072  24.114   5.914   2.779
41305W        W 5073  16.741  15.600   4.296
41306W        W 5074  16.647  42.299  14.451
41307W        W 5075  16.259  25.690   0.866
41308W        W 5076  31.087  27.481  13.480
41309W        W 5077  15.262  10.704   0.370
41310W        W 5078  12.232  27.176   4.774
41311W        W 5079  36.560   0.776  12.924
41312W        W 5080  36.349  42.935   1.252
41313W        W 5081  11.856   9.798   3.325
41314W        W 5082  39.411  29.538   1.900
41315W        W 5083  23.618  18.218   0.953
41316W        W 5084  42.825  29.580  12.511
41317W        W 5085  34.107   9.645  11.003
41318W        W 5086  43.458  13.219   4.722
41319W        W 5087  31.909  15.700  10.048
41320W        W 5088  20.112  19.731  11.038
41321W        W 5089  40.944  32.617  12.058
41322W        W 5090  19.144  16.759  13.872
41323W        W 5091  44.811  42.928  11.053
41324W        W 5092  30.114  40.331   1.285
41325W        W 5093  17.249  41.996  10.491
41326W        W 5094  27.494   1.403  13.315
41327W        W 5095   5.292  20.742   3.755
41328W        W 5096   2.275  17.129  12.020
41329W        W 5097   3.723  44.792  12.919
41330W        W 5098  35.462  18.663  10.543
41331W        W 5099  36.090  13.253  13.032
41332W        W 5100  31.951   9.262  13.438
41333W        W 5101   9.189  29.019  13.450
41334W        W 5102  10.855  14.795  10.606
41335W        W 5103  32.109  34.442  10.016
41336W        W 5104  36.957  15.808  13.414
41337W        W 5105   4.441   4.930  14.919
41338W        W 5106  33.421  41.469   5.222
41339W        W 5107  20.716  23.032   1.760
41340W        W 5108  40.529  31.123  13.025
41341W        W 5109  40.443  18.609   4.667
41342W        W 5110   6.877  22.176   2.345
41343W        W 5111   4.840  31.591  13.060
41344W        W 5112  32.007  43.485   0.437
41345W        W 5113  27.449  43.354   1.746
41346W        W 5114  32.431  41.314   1.777
41347W        W 5115  44.999   2.867   4.686
41348W        W 5116  31.564  26.039  13.395
41349W        W 5117  36.961   4.710   3.719
41350W        W 5118  37.343  15.753   1.241
41351W        W 5119  20.649  22.746  10.950
41352W        W 5120  18.681  17.642   2.240
41353W        W 5121   7.839   4.819   4.205
41354W        W 5122  25.690  31.648   3.654
41355W        W 5123  20.766  31.563  14.515
41356W        W 5124   2.336  40.515   3.863
41357W        W 5125  25.703   6.255   2.845
41358W        W 5126  20.752   5.702   1.713
41359W        W 5127  41.387  32.456  13.905
41360W        W 5128  29.160  23.048   1.744
41361W        W 5129  37.948  27.986   1.267
41362W        W 5130  34.035  19.647   4.823
41363W        W 5131  26.965   0.986  14.312
41364W        W 5132  12.334   6.415  11.400
41365W        W 5133  38.029  14.686   2.868
41366W        W 5134  35.934  23.074  12.421
41367W        W 5135   1.477  26.082   1.252
41368W        W 5136  44.413  30.033  13.515
41369W        W 5137  32.091  21.116  14.286
41370W        W 5138  24.612  32.935  11.931
41371W        W 5139  27.509  36.867   2.350
41372W        W 5140  26.005  24.043   3.224
41373W        W 5141  27.969   0.354   0.277
41374W        W 5142  40.460  39.004  11.415
41375W        W 5143  18.107   2.455   4.696
41376W        W 5144  22.635   7.387   2.393
41377W        W 5145  11.141  44.494   3.839
41378W        W 5146  24.602  33.602  12.084
41379W        W 5147   7.870  12.310   3.224
41380W        W 5148   6.288  44.414   1.895
41381W        W 5149  10.333  41.463   3.840
41382W        W 5150  32.038  19.100   0.807
41383W        W 5151  24.052  12.818  14.485
41384W        W 5152   6.850   9.649  12.035
41385W        W 5153  16.694  38.849  10.952
41386W        W 5154  16.238  31.411  12.344
41387W        W 5155  41.356  35.106  13.921
41388W        W 5156  11.681   6.197  10.485
41389W        W 5157  40.007  40.883   0.428
41390W        W 5158  25.568  28.040  12.903
41391W        W 5159  26.636  41.889  12.896
41392W        W 5160   2.824   0.415   1.879
41393W        W 5161  11.136  10.824  13.518
41394W        W 5162  36.542  36.873   3.153
41395W        W 5163  29.945  35.878  12.504
41396W        W 5164   3.233  18.251  14.982
41397W        W 5165   0.892   6.811   3.644
41398W        W 5166  25.191   9.834   2.883
41399W        W 5167   1.931  32.130   4.206
41400W        W 5168  29.551  17.307   0.812
41401W        W 5169  37.489  27.513  12.068
41402W        W 5170  41.308  31.441  10.105
41403W        W 5171  44.907   8.253   2.731
41404W        W 5172  10.869  13.202   2.262
41405W        W 5173  34.420  39.808  11.025
41406W        W 5174  39.037  13.245   4.831
41407W        W 5175  27.188   7.701   4.663
41408W        W 5176  26.474  34.376  14.893
41409W        W 5177  44.442  37.003  11.947
41410W        W 5178  24.024  30.634   2.322
41411W        W 5179  22.101  13.611  13.440
41412W        W 5180  36.426   1.791   9.969
41413W        W 5181  39.468   3.266  10.952
41414W        W 5182  26.625   3.804   3.748
41415W        W 5183   4.330  31.959  12.831
41416W        W 5184  26.170  22.625   4.776
41417W        W 5185   4.892  40.548   3.851
41418W        W 5186   1.740   9.268   4.827
41419W        W 5187  27.090  26.070   3.737
41420W        W 5188  17.759  20.533  14.801
41421W        W 5189  29.155  29.020   1.391
41422W        W 5190  34.403  44.259   4.706
41423W        W 5191   2.426  15.768   3.813
41424W        W 5192  23.020  24.134  10.584
41425W        W 5193  40.053  37.472   5.132
41426W        W 5194  35.873  24.062   2.784
41427W        W 5195   2.767  10.674  10.929
41428W        W 5196  38.906  22.598   3.782
41429W        W 5197  41.327  16.170   0.345
41430W        W 5198  30.556  13.643  13.349
41431W        W 5199  32.617  27.667   1.835
41432W        W 5200  27.019  15.202  10.552
41433W        W 5201  33.130  36.986   4.651
41434W        W 5202  22.647  28.964   1.326
41435W        W 5203  32.417  30.021   0.367
41436W        W 5204  35.479  18.176   0.838
41437W        W 5205  25.967   2.459  11.996
41438W        W 5206  21.059  36.878  12.986
41439W        W 5207  21.249  32.428  11.480
41440W        W 5208  14.170  31.497   1.828
41441W        W 5209  11.229  34.456  11.107
41442W        W 5210  18.140   7.270  10.588
41443W        W 5211  20.175  43.777  10.473
41444W        W 5212  43.779  30.444  10.908
41445W        W 5213  12.189  20.585   1.316
41446W        W 5214  11.719  13.846   2.897
41447W        W 5215  11.256  36.002   1.776
41448W        W 5216  21.158  43.940  14.773
41449W        W 5217  17.613  14.171   1.342
41450W        W 5218   0.912  15.595   9.922
41451W        W 5219  22.636   8.366  11.039
41452W        W 5220  26.101  38.969  13.947
41453W        W 5221  12.622  42.885  13.504
41454W        W 5222  12.332  15.281   2.819
41455W        W 5223  29.982   8.312  13.923
41456W        W 5224  31.427  19.670  11.109
41457W        W 5225  42.289  25.991   3.648
41458W        W 5226  25.979   0.832   2.228
41459W        W 5227  12.355  22.148  11.862
41460W        W 5228  22.560  20.218   3.331
41461W        W 5229   6.800  16.131   2.369
41462W        W 5230  43.772   8.234   2.284
41463W        W 5231   9.722  20.274   2.273
41464W        W 5232  32.599  14.625   5.148
41465W        W 5233  23.542  25.619   0.748
41466W        W 5234  21.162  41.361   4.280
41467W        W 5235   4.786  10.735  13.418
41468W        W 5236  32.594  40.416  12.947
41469W        W 5237  32.474   4.427  10.620
41470W        W 5238  29.997  11.139  12.074
41471W        W 5239  10.345   2.448   2.314
41472W        W 5240  38.533  27.019   1.728
41473W        W 5241   5.251  16.274  10.483
41474W        W 5242  34.933  24.225  12.378
41475W        W 5243  42.381  40.857   4.676
41476W        W 5244  36.066  41.383  13.865
41477W        W 5245   4.722   4.326  10.022
41478W        W 5246  29.457   4.332  12.876
41479W        W 5247  44.856  44.009   3.848
41480W        W 5248  35.600  16.703   1.393
41481W        W 5249  30.470  12.776   3.744
41482W        W 5250  11.833  30.626   2.244
41483W        W 5251   4.268  44.987  10.557
41484W        W 5252   2.882  24.016  12.020
41485W        W 5253  27.951  34.451  10.537
41486W        W 5254  41.812  14.701   3.777
41487W        W 5255  23.172   9.305   0.825
41488W        W 5256  42.991  39.536  14.441
41489W        W 5257  13.341  28.095  11.536
41490W        W 5258  41.847  28.502   0.901
41491W        W 5259  13.621  36.965   3.204
41492W        W 5260   0.454  28.071   2.724
41493W        W 5261  22.536  30.438  14.968
41494W        W 5262  43.474  10.667  11.433
41495W        W 5263  19.685  17.558  12.986
41496W        W 5264  41.312  25.517  10.523
41497W        W 5265   4.789   5.300  12.953
41498W        W 5266  42.780   6.326  13.370
41499W        W 5267  35.521  11.234  12.415
41500W        W 5268  26.474   7.732  13.315
41501W        W 5269   5.379  40.442  11.418
41502W        W 5270  11.712  16.659  10.517
41503W        W 5271  43.362  22.179   0.459
41504W        W 5272  20.096  27.645   0.867
41505W        W 5273  39.914   9.193  11.016
41506W        W 5274  33.579  18.629  14.494
41507W        W 5275   1.355  33.910  12.954
41508W        W 5276  18.656  20.100   1.910
41509W        W 5277  35.081  22.998  12.367
41510W        W 5278  20.263   2.795  11.889
41511W        W 5279   3.798  30.142   2.880
41512W        W 5280  22.248  18.259  12.464
41513W        W 5281  29.651   3.253  14.410
41514W        W 5282  15.138  31.448  12.997
41515W        W 5283   7.778  31.114  14.819
41516W        W 5284  16.223  35.031  12.944
41517W        W 5285  13.701  25.090   5.089
41518W        W 5286  29.559   5.908   4.663
41519W        W 5287  30.957  15.212   0.874
41520W        W 5288   0.761   2.758  12.979
41521W        W 5289  42.833  18.270  13.855
41522W        W 5290  16.146  30.087  10.468
41523W        W 5291  40.960   0.452   1.935
41524W        W 5292  39.983   6.303   2.855
41525W        W 5293  16.734  41.042  11.438
41526W        W 5294   7.308  44.449   3.216
41527W        W 5295   1.778  41.398  10.642
41528W        W 5296   3.353  41.967  14.869
41529W        W 5297  34.461   6.727   2.773
41530W        W 5298  21.087  18.711   0.296
41531W        W 5299  23.493  30.602  11.009
41532W        W 5300  36.940  43.481   1.422
41533W        W 5301  18.576  34.000  11.518
41534W        W 5302  10.831  26.003   0.408
41535W        W 5303  30.603  16.160  10.069
41536W        W 5304   3.826  15.646  10.944
41537W        W 5305   8.685  14.103   0.891
41538W        W 5306  44.989  27.613  12.923
41539W        W 5307  24.665  37.062   4.245
41540W        W 5308  27.525  30.640  10.584
41541W        W 5309  34.502  25.998  12.462
41542W        W 5310  42.842   8.186   4.268
41543W        W 5311  31.959  18.780   2.688
41544W        W 5312  31.132  43.802  11.979
41545W        W 5313  31.566  16.083  12.064
41546W        W 5314  25.506  31.959  14.904
41547W        W 5315  19.225  14.641  13.892
41548W        W 5316  37.420  18.757   2.724
41549W        W 5317   4.311   1.449   1.279
41550W        W 5318  11.853  10.231  11.999
41551W        W 5319  25.047  32.560  11.880
41552W        W 5320  27.011  22.661  13.499
41553W        W 5321  32.049  34.483   0.415
41554W        W 5322  34.476  23.147   3.709
41555W        W 5323  34.025  40.865   3.792
41556W        W 5324  37.949  35.880   3.831
41557W        W 5325  38.043  41.825  12.971
41558W        W 5326  27.096  19.115   0.432
41559W        W 5327  42.298  21.566  13.803
41560W        W 5328  36.503  41.531  13.016
41561W        W 5329   3.877  38.925  13.870
41562W        W 5330   6.280  42.390   1.225
41563W        W 5331  43.310   3.425   1.315
41564W        W 5332  19.058  21.543  13.896
41565W        W 5333   3.740   0.848  13.364
41566W        W 5334  37.981  25.991   2.253
41567W        W 5335  15.157  30.528  12.934
41568W        W 5336  30.649  25.096  13.919
41569W        W 5337   5.906  20.630   0.249
41570W        W 5338  44.875  19.207   3.642
41571W        W 5339   9.371  35.948   5.274
41572W        W 5340  29.482  23.072   0.425
41573W        W 5341  42.817  33.418  14.971
41574W        W 5342  40.877  20.154   2.710
41575W        W 5343  37.506  12.832   2.671
41576W        W 5344   3.231  19.574   3.253
41577W        W 5345   8.406  10.188   2.884
41578W        W 5346  38.892   2.823   3.774
41579W        W 5347   7.736  29.122   4.680
41580W        W 5348  30.134  31.041  12.830
41581W        W 5349   9.890  24.158   4.670
41582W        W 5350  29.122  30.026  10.510
41583W        W 5351  26.996   2.334  13.819
41584W        W 5352   0.320   8.349   1.262
41585W        W 5353   6.266  18.589  12.867
41586W        W 5354  12.717   7.697   0.302
41587W        W 5355  14.706  30.469   5.232
41588W        W 5356  22.211   3.256  10.578
41589W        W 5357  34.055  37.444  12.385
41590W        W 5358  22.016  21.160  12.067
41591W        W 5359   0.294  24.529   1.268
41592W        W 5360  42.012  21.199   3.360
41593W        W 5361  26.013   4.277  11.995
41594W        W 5362  30.497  29.095   1.830
41595W        W 5363   1.870  43.833  14.851
41596W        W 5364  18.293  33.406   0.893
41597W        W 5365  14.109  42.438  10.612
41598W        W 5366  28.591  14.698  12.348
41599W        W 5367  24.065  17.624  13.470
41600W        W 5368  35.049  13.661   0.809
41601W        W 5369   5.228  43.006  13.420
41602W        W 5370  41.861  36.360  14.295
41603W        W 5371  21.197   4.432  11.893
41604W        W 5372  21.164  31.929  12.879
41605W        W 5373  40.446  39.391   3.865
41606W        W 5374  23.011  14.292  10.044
41607W        W 5375  33.971  40.433  11.035
41608W        W 5376   9.800  25.098   4.232
41609W        W 5377   1.443  20.056  12.390
41610W        W 5378  39.879  29.038  13.325
41611W        W 5379  30.913  24.721  11.918
41612W        W 5380  29.132  11.849   0.809
41613W        W 5381  22.188   3.869   3.786
41614W        W 5382  32.087  32.914  11.858
41615W        W 5383  33.568  38.979   0.732
41616W        W 5384  23.733  28.436  14.490
41617W        W 5385   3.453  32.635  12.012
41618W        W 5386  32.533  31.614   3.838
41619W        W 5387  43.311   3.947   0.458
41620W        W 5388   6.271  39.553  12.422
41621W        W 5389  16.250   9.258   1.803
41622W        W 5390   6.799  25.635   2.271
41623W        W 5391  35.973  23.990   4.676
41624W        W 5392   1.958   3.250  14.415
41625W        W 5393  29.145  23.588  12.448
41626W        W 5394  20.540  32.912  11.054
41627W        W 5395  19.193  35.073   9.441
41628W        W 5396   9.222  16.277   0.939
41629W        W 5397  16.578  28.562   2.735
41630W        W 5398   9.828  34.869   3.177
41631W        W 5399  28.644  13.613   0.790
41632W        W 5400  11.166  36.031   1.381
41633W        W 5401  33.006  34.569   3.711
41634W        W 5402  30.967  16.717   2.375
41635W        W 5403  19.141   1.292  13.931
41636W        W 5404   1.953  42.778  13.520
41637W        W 5405  27.534   8.898   0.446
41638W        W 5406  29.042  15.324   1.731
41639W        W 5407  23.686  41.365  12.965
41640W        W 5408  41.492  40.030   2.684
41641W        W 5409   6.752  18.771  13.885
41642W        W 5410  10.248  11.718  13.482
41643W        W 5411  42.866  28.516   4.734
41644W        W 5412  44.871   8.730   1.369
41645W        W 5413  23.558  36.041   0.933
41646W        W 5414  16.249  30.080   4.178
41647W        W 5415  23.218  34.905   2.321
41648W        W 5416   8.242  44.958   0.303
41649W        W 5417  30.969  13.213   0.830
41650W        W 5418  36.525  25.148  13.308
41651W        W 5419  42.783  31.985  11.491
41652W        W 5420  43.000  13.134  12.869
41653W        W 5421  26.036  25.634  13.006
41654W        W 5422  27.459  24.585  12.841
41655W        W 5423  19.745  34.467   1.697
41656W        W 5424  38.871  14.196  12.579
41657W        W 5425  31.573  36.866  12.500
41658W        W 5426  26.057  44.898  14.768
41659W        W 5427  22.736  10.843   3.778
41660W        W 5428  36.950  13.701   0.296
41661W        W 5429  35.395  42.880   4.722
41662W        W 5430  31.636  18.179   2.311
41663W        W 5431  21.154  18.637   2.899
41664W        W 5432  13.166  15.606   0.284
41665W        W 5433  17.127  36.932  10.001
41666W        W 5434  20.036   5.730   1.300
41667W        W 5435   1.876  35.568   3.174
41668W        W 5436  29.107   5.347  12.872
41669W        W 5437  22.716  27.597  13.372
41670W        W 5438  17.295  37.376   3.147
41671W        W 5439  42.879  38.543   4.803
41672W        W 5440  42.410  17.092   1.818
41673W        W 5441   2.731  30.507   0.966
41674W        W 5442  42.455  36.915  12.873
41675W        W 5443  19.740  30.911  14.398
41676W        W 5444  25.182  15.685   1.764
41677W        W 5445  18.118  31.054  12.830
41678W        W 5446  22.028  18.175  13.397
41679W        W 5447  14.668  10.220  14.843
41680W        W 5448  18.232  30.161  10.578
41681W        W 5449  11.837  24.189   1.915
41682W        W 5450  29.657  36.973  11.995
41683W        W 5451  28.106  31.456  11.469
41684W        W 5452  29.517   1.278  14.865
41685W        W 5453  10.170  28.441   3.291
41686W        W 5454  40.406  37.545   0.475
41687W        W 5455  11.863  23.722   3.811
41688W        W 5456  38.909  39.328  11.455
41689W        W 5457  11.844  42.480   0.910
41690W        W 5458   1.752  16.192   0.911
41691W        W 5459   2.369   3.907  10.514
41692W        W 5460  21.730  36.434  13.803
41693W        W 5461  20.583  35.006  10.891
41694W        W 5462  19.573   1.939  12.065
41695W        W 5463  38.353   8.344   2.690
41696W        W 5464  22.011   9.768  11.095
41697W        W 5465  21.133  21.702  12.431
41698W        W 5466  16.705  35.058  11.498
41699W        W 5467  21.168  23.673   3.178
41700W        W 5468  38.537   5.820   2.773
41701W        W 5469  30.537  20.182  11.877
41702W        W 5470  27.520  11.664   2.327
41703W        W 5471  35.005  22.735  10.113
41704W        W 5472   4.812  17.752   0.942
41705W        W 5473  43.471   7.825   2.728
41706W        W 5474  23.640  11.338   2.335
41707W        W 5475  23.571  14.700  11.934
41708W        W 5476  23.520   1.887  13.432
41709W        W 5477  11.316   6.710  14.505
41710W        W 5478  27.081   1.275   4.349
41711W        W 5479  42.877  32.094  10.035
41712W        W 5480   4.276   9.846  10.964
41713W        W 5481  21.651   6.829   2.738
41714W        W 5482  34.544  26.080   3.339
41715W        W 5483  20.767  11.787   1.853
41716W        W 5484  14.197  26.207  10.944
41717W        W 5485   6.277  29.113   2.701
41718W        W 5486  10.220  41.418   1.798
41719W        W 5487   0.385  36.903  12.990
41720W        W 5488  36.477  43.444  13.831
41721W        W 5489  25.031  18.742   4.239
41722W        W 5490  13.147   5.880  11.583
41723W        W 5491  37.008  36.371  11.560
41724W        W 5492  35.421  43.773   2.734
41725W        W 5493  36.417  32.071   4.611
41726W        W 5494  14.097  44.362  10.963
41727W        W 5495  19.118   1.426   3.256
41728W        W 5496  29.007  33.125  13.872
41729W        W 5497  38.052  13.639  10.574
41730W        W 5498  16.767   4.895  13.821
41731W        W 5499  17.701  27.057   9.446
41732W        W 5500   6.190  10.287   1.872
41733W        W 5501  19.090  33.875   0.339
41734W        W 5502  16.774  11.237   1.821
41735W        W 5503   3.775   3.281  11.939
41736W        W 5504  41.348  15.732   0.947
41737W        W 5505  21.043  38.437  12.893
41738W        W 5506  15.626  18.776  11.563
41739W        W 5507  10.243  20.267  14.925
41740W        W 5508   2.852  15.178   2.848
41741W        W 5509   8.731  29.657   0.365
41742W        W 5510   6.853  11.128   1.930
41743W        W 5511  43.514  27.557  14.878
41744W        W 5512  32.945  23.164   4.797
41745W        W 5513   9.837  30.498   4.636
41746W        W 5514   5.258  32.395  12.005
41747W        W 5515  32.617  32.968  14.785
41748W        W 5516  43.890  18.595   2.873
41749W        W 5517  16.619   7.771  11.032
41750W        W 5518  19.604  37.458   4.222
41751W        W 5519  19.768  27.616  14.446
41752W        W 5520  40.890  27.558  13.970
41753W        W 5521  27.678   5.271   1.449
41754W        W 5522  39.509  38.049   0.374
41755W        W 5523  17.274   2.840  13.835
41756W        W 5524  17.639  15.707   0.887
41757W        W 5525  35.920   6.897  11.543
41758W        W 5526  40.342  36.908   0.414
41759W        W 5527   3.434  27.605  11.499
41760W        W 5528  20.702  41.319   3.756
41761W        W 5529  14.167  27.138   1.417
41762W        W 5530   5.353  13.796  14.767
41763W        W 5531  18.174  18.072  13.867
41764W        W 5532  22.180  16.750  13.485
41765W        W 5533   0.897   4.759   0.878
41766W        W 5534  33.072  15.105  11.070
41767W        W 5535  42.824  25.028   4.821
41768W        W 5536  37.063  24.591  10.958
41769W        W 5537  19.169  10.662   1.839
41770W        W 5538   4.718  20.762  14.323
41771W        W 5539  34.391  42.360  13.348
41772W        W 5540  10.177  18.291   3.723
41773W        W 5541  35.470  36.354   2.674
41774W        W 5542  30.117   2.964   2.282
41775W        W 5543   4.807  21.525   1.416
41776W        W 5544  15.608  34.951  11.977
41777W        W 5545  12.824   7.301   0.836
41778W        W 5546  41.386  33.963  11.106
41779W        W 5547  33.449  15.161   3.279
41780W        W 5548  15.671   3.391  13.057
41781W        W 5549  18.216   9.777  10.512
41782W        W 5550   8.243  35.104  10.964
41783W        W 5551  20.160  29.609  12.433
41784W        W 5552  22.690  21.513  14.807
41785W        W 5553   2.723  30.949  13.535
41786W        W 5554   2.315  23.689   0.386
41787W        W 5555  43.414  33.536   4.325
41788W        W 5556  20.137  21.634   0.401
41789W        W 5557   7.680   8.663  14.368
41790W        W 5558   3.237  13.342   0.864
41791W        W 5559   7.691   1.312   3.156
41792W        W 5560  14.766   8.264  12.550
41793W        W 5561  31.018  35.884   3.253
41794W        W 5562   8.196   7.242  14.846
41795W        W 5563   6.270  17.261   3.749
41796W        W 5564   6.249  41.847  14.894
41797W        W 5565   0.336  39.895  12.353
41798W        W 5566   1.772   1.943  14.979
41799W        W 5567  30.940   5.218  11.024
41800W        W 5568  13.632   3.290  14.846
41801W        W 5569  24.725  17.243  11.555
41802W        W 5570  11.658  28.561  14.300
41803W        W 5571  26.160  17.619  10.423
41804W        W 5572  30.478  16.174  11.886
41805W        W 5573  22.608  31.017  11.381
41806W        W 5574  42.409  24.141  10.639
41807W        W 5575   0.772   4.812  12.540
41808W        W 5576  33.452  42.297  13.950
41809W        W 5577  34.949   1.837  11.508
41810W        W 5578  20.644  24.549  10.975
41811W        W 5579  39.012  31.057   0.272
41812W        W 5580  23.623  27.028   2.687
41813W        W 5581   4.417   3.826  10.526
41814W        W 5582  39.501  36.423  10.610
41815W        W 5583  23.663  31.126   4.294
41816W        W 5584  14.112  25.977   2.260
41817W        W 5585  44.837  28.944   3.371
41818W        W 5586  37.347   8.310   1.815
41819W        W 5587  17.791  15.723   2.191
41820W        W 5588  37.421  16.789  13.471
41821W        W 5589  26.577   2.310  14.902
41822W        W 5590  26.168   4.941   1.358
41823W        W 5591   0.298  32.579   1.884
41824W        W 5592  26.594  24.184   5.251
41825W        W 5593  43.923  26.551   0.822
41826W        W 5594  10.200   3.945  12.944
41827W        W 5595  28.597   8.742   1.846
41828W        W 5596  30.118  33.941   3.675
41829W        W 5597  26.024  35.046   3.360
41830W        W 5598  11.812  33.537   1.694
41831W        W 5599   3.759  27.963   3.152
41832W        W 5600   6.318   3.396  11.041
41833W        W 5601  29.487  31.434   4.218
41834W        W 5602   6.309  32.142   1.244
41835W        W 5603  41.931   9.241  13.936
41836W        W 5604  42.388  27.466  13.852
41837W        W 5605  23.003   6.207   0.455
41838W        W 5606  29.507  27.502  14.324
41839W        W 5607  44.467   2.247   4.318
41840W        W 5608  39.996  24.618   4.748
41841W        W 5609  26.050  13.631  11.039
41842W        W 5610  30.463  25.127   3.351
41843W        W 5611  27.135   7.399  11.460
41844W        W 5612  27.145  43.465  14.846
41845W        W 5613  19.590  34.494  11.081
41846W        W 5614   8.748  33.528   3.771
41847W        W 5615   9.763   6.302  11.903
41848W        W 5616   7.329  18.204   1.398
41849W        W 5617  34.442  19.114   1.440
41850W        W 5618   3.839  35.519   4.325
41851W        W 5619   7.317   3.419   1.745
41852W        W 5620  38.939  37.531  13.539
41853W        W 5621  20.566  41.002   4.628
41854W        W 5622   0.778  42.324  13.974
41855W        W 5623  37.938  10.831  11.536
41856W        W 5624  10.350  25.045  12.506
41857W        W 5625  18.707  19.692   5.744
41858W        W 5626  22.006   5.237   4.222
41859W        W 5627   4.264  15.623   1.277
41860W        W 5628  36.885  33.610   4.622
41861W        W 5629   8.269  28.440   0.779
41862W        W 5630   4.366  24.641  11.872
41863W        W 5631  20.583  40.390  13.040
41864W        W 5632   9.804  14.314   1.783
41865W        W 5633   2.911  44.262  12.938
41866W        W 5634  11.764   8.862  10.980
41867W        W 5635  43.982  21.608   0.856
41868W        W 5636  35.992  11.221   3.185
41869W        W 5637  18.205  35.060   2.871
41870W        W 5638  13.704  37.048   2.341
41871W        W 5639  22.501  13.734   1.773
41872W        W 5640   9.794  38.945   0.744
41873W        W 5641  20.086  12.617  14.976
41874W        W 5642  11.234  12.189  13.966
41875W        W 5643  18.720  35.084  11.427
41876W        W 5644   9.651  12.337   3.821
41877W        W 5645  17.646  32.421   2.724
41878W        W 5646  16.307  15.731  10.582
41879W        W 5647  18.169  17.567   0.426
41880W        W 5648  29.163  12.151  12.916
41881W        W 5649  25.562  11.841  14.803
41882W        W 5650  39.879  43.791   3.793
41883W        W 5651  25.596  27.680   4.166
41884W        W 5652  40.488  16.118   1.430
41885W        W 5653   9.243  10.806   3.825
41886W        W 5654  19.580  29.480   5.241
41887W        W 5655  28.148  16.077  14.356
41888W        W 5656  11.270  29.669  14.759
41889W        W 5657  29.940  29.640   3.678
41890W        W 5658  39.833  18.212  13.812
41891W        W 5659   5.308   2.413   3.660
41892W        W 5660  18.672   8.397   3.303
41893W        W 5661   2.367  42.310   2.195
41894W        W 5662  23.671  20.165   0.883
41895W        W 5663   5.845   2.444   1.341
41896W        W 5664  24.033  26.050   1.419
41897W        W 5665  27.653  18.734  14.516
41898W        W 5666  35.035  29.601  10.630
41899W        W 5667  35.996  13.239  12.495
41900W        W 5668  33.039  44.478   3.280
41901W        W 5669   2.227  31.997   0.264
41902W        W 5670   1.901  18.227   4.609
41903W        W 5671  41.881  27.576  13.417
41904W        W 5672  20.681  38.067  13.884
41905W        W 5673  15.696  27.022  13.504
41906W        W 5674  10.715  43.808  13.899
41907W        W 5675  19.189  18.667   3.285
41908W        W 5676  22.220  41.325   2.347
41909W        W 5677   5.770   8.318  12.015
41910W        W 5678   1.781  14.754  11.607
41911W        W 5679  29.003  35.573   1.788
41912W        W 5680  43.802  36.996   3.293
41913W        W 5681   7.865  11.688  14.913
41914W        W 5682  18.280  28.575  14.954
41915W        W 5683  34.909   0.466  12.537
41916W        W 5684  18.234  41.802   2.322
41917W        W 5685  44.764  39.959  10.482
41918W        W 5686  31.416  29.543  11.898
41919W        W 5687  42.314  22.597   3.829
41920W        W 5688  12.312   7.853  10.572
41921W        W 5689   4.261  33.992  13.532
41922W        W 5690  17.625   7.231  10.926
41923W        W 5691  34.868   0.765   1.264
41924W        W 5692  12.219  19.723  13.521
41925W        W 5693  40.511  17.274  11.432
41926W        W 5694  16.150  31.914  13.444
41927W        W 5695  38.468  41.350  11.859
41928W        W 5696  30.946  43.981   3.862
41929W        W 5697  17.559  22.054   4.201
41930W        W 5698  32.099  40.334   1.442
41931W        W 5699  20.249  25.006   3.740
41932W        W 5700  13.160  33.491  12.072
41933W        W 5701  21.686   7.336   1.732
41934W        W 5702  42.978  30.476  14.439
41935W        W 5703  13.217  11.706  13.865
41936W        W 5704  16.695  34.864   3.722
41937W        W 5705  40.426  39.055   3.338
41938W        W 5706  25.006  33.015   1.858
41939W        W 5707  22.575  11.141  12.443
41940W        W 5708  26.570  31.487  14.315
41941W        W 5709   9.798  33.599   2.822
41942W        W 5710  20.659  19.574  14.881
41943W        W 5711  22.169  28.492  13.841
41944W        W 5712  31.073  11.621  10.935
41945W        W 5713  16.575  20.238  11.858
41946W        W 5714  22.554  39.828  11.920
41947W        W 5715  10.864  17.740  12.922
41948W        W 5716  27.032   8.667   1.275
41949W        W 5717   5.351  31.562   1.794
41950W        W 5718  28.485  13.688   4.339
41951W        W 5719  12.769  25.493  14.781
41952W        W 5720  33.540  32.498  10.579
41953W        W 5721   6.405  30.992  10.640
41954W        W 5722   7.374   4.374   4.117
41955W        W 5723  38.466  40.961   4.222
41956W        W 5724  27.119  19.132  12.056
41957W        W 5725  21.190  41.429   1.858
41958W        W 5726  11.231   5.913   0.386
41959W        W 5727  38.923  17.293   3.850
41960W        W 5728  20.638  22.653  12.372
41961W        W 5729   6.387  29.952  11.378
41962W        W 5730  17.308  21.073   2.245
41963W        W 5731  43.339  37.950  13.801
41964W        W 5732  44.973  11.820   4.271
41965W        W 5733  21.067   9.212   3.794
41966W        W 5734  20.748  19.597  13.966
41967W        W 5735  16.214   9.324   2.313
41968W        W 5736  11.796  31.098  10.437
41969W        W 5737   1.291  41.306   1.815
41970W        W 5738   1.940  22.598  14.788
41971W        W 5739  26.515   7.843  10.595
41972W        W 5740  30.528   4.940   3.779
41973W        W 5741  28.571  29.016   0.393
41974W        W 5742   3.335   8.862   3.365
41975W        W 5743  23.220  34.477   1.909
41976W        W 5744  25.076  15.105  12.926
41977W        W 5745  26.586  34.042   0.243
41978W        W 5746   5.406  11.678  13.507
41979W        W 5747  43.455  10.640   1.381
41980W        W 5748  10.841  23.643   3.852
41981W        W 5749  23.104  38.464   2.872
41982W        W 5750   8.385  34.572   0.333
41983W        W 5751  11.837   9.845   2.724
41984W        W 5752  29.598  26.985  10.403
41985W        W 5753  33.992   4.837   2.811
41986W        W 5754   2.471  16.257  12.026
41987W        W 5755  26.013  21.233  11.578
41988W        W 5756  28.515   8.186   2.253
41989W        W 5757  30.429  27.138  11.023
41990W        W 5758  14.684  15.129   4.153
41991W        W 5759  38.982  36.453  14.490
41992W        W 5760  14.597  17.162   2.284
41993W        W 5761  25.483  37.378   2.246
41994W        W 5762  40.512   4.343   1.403
41995W        W 5763  20.081  23.577   2.369
41996W        W 5764  19.626  39.031  13.868
41997W        W 5765  33.421   8.361   0.301
41998W        W 5766  31.626  41.453  14.441
41999W        W 5767  26.524  14.725   9.518
42000W        W 5768   9.705  10.695  11.494
42001W        W 5769  19.658  39.445   1.834
42002W        W 5770   2.857  27.043   1.410
42003W        W 5771  17.617  13.603   3.278
42004W        W 5772  21.536  17.228  14.838
42005W        W 5773  28.530  17.203  13.375
42006W        W 5774  11.202   5.348  12.087
42007W        W 5775  19.257  41.888  13.017
42008W        W 5776  33.062  44.777   4.724
42009W        W 5777  38.063  35.972  11.897
42010W        W 5778  21.236   3.261  10.598
42011W        W 5779  24.718  28.019  14.766
42012W        W 5780  13.317  10.334  13.851
42013W        W 5781  15.779  44.911   4.241
42014W        W 5782  35.601  21.133   4.759
42015W        W 5783  32.501  30.598   2.388
42016W        W 5784  15.654  31.951   2.394
42017W        W 5785  26.171  42.001   1.323
42018W        W 5786  44.856  40.873  11.962
42019W        W 5787  11.282  10.334  14.452
42020W        W 5788  28.096  26.522  14.764
42021W        W 5789   6.406  14.233   4.222
42022W        W 5790  41.296  16.092   3.353
42023W        W 5791  11.627  40.512  13.808
42024W        W 5792  19.230  37.354   1.383
42025W        W 5793  24.512  21.577  14.853
42026W        W 5794  27.041   1.896  14.847
42027W        W 5795   2.404  34.423   4.214
42028W        W 5796  40.959  11.794  11.052
42029W        W 5797  22.592  15.752   2.374
42030W        W 5798  41.508  15.218   3.723
42031W        W 5799  43.885  31.558  10.600
42032W        W 5800  10.385  13.110   4.683
42033W        W 5801   8.305  18.739  11.404
42034W        W 5802   0.359  33.049  11.981
42035W        W 5803  31.547  44.868  12.479
42036W        W 5804  21.726  44.976   3.725
42037W        W 5805  22.543   1.462  14.767
42038W        W 5806  23.539  12.797   0.324
42039W        W 5807  32.414   0.826   3.839
42040W        W 5808   8.691  10.190   4.117
42041W        W 5809   9.180  20.588   4.328
42042W        W 5810   5.344  15.800  13.417
42043W        W 5811  25.530  33.397  13.401
42044W        W 5812  18.274   4.730   0.432
42045W        W 5813  29.589   0.857  14.943
42046W        W 5814   3.231  16.603   4.815
42047W        W 5815  23.730   3.403  10.578
42048W        W 5816  35.091  28.599   4.712
42049W        W 5817  18.623  12.169   1.337
42050W        W 5818  13.686  43.788  13.353
42051W        W 5819  42.460  33.984  14.873
42052W        W 5820  12.850  32.548  11.049
42053W        W 5821  28.152  20.651  14.987
42054W        W 5822  26.556  38.527  13.308
42055W        W 5823   7.740  35.987   2.755
42056W        W 5824  41.924  31.431   3.809
42057W        W 5825  31.549   4.856   4.754
42058W        W 5826   4.415  26.624  14.928
42059W        W 5827  34.381   9.370   1.400
42060W        W 5828  23.057   5.298   3.342
42061W        W 5829   5.933  17.157   1.773
42062W        W 5830  37.010  35.060   4.251
42063W        W 5831  11.679   3.224   2.831
42064W        W 5832  25.548  17.737   1.375
42065W        W 5833  29.599  23.205  14.783
42066W        W 5834  14.797  34.032  14.326
42067W        W 5835   3.916  32.105  14.905
42068W        W 5836  21.216  18.623  13.418
42069W        W 5837  36.956  38.339  11.054
42070W        W 5838  18.224  31.975  14.290
42071W        W 5839   1.967  29.571  14.335
42072W        W 5840  13.270  31.116  11.010
42073W        W 5841  29.004  21.122   1.314
42074W        W 5842  43.922  30.543   1.342
42075W        W 5843   2.847  20.174   4.783
42076W        W 5844  27.053  36.453  13.368
42077W        W 5845  25.642  37.510   1.435
42078W        W 5846  10.744   4.878  13.316
42079W        W 5847  41.850  40.924   1.441
42080W        W 5848  39.060  10.765  11.376
42081W        W 5849  12.242   8.237  10.487
42082W        W 5850  17.592  38.443   3.244
42083W        W 5851  35.393  21.562  12.851
42084W        W 5852  18.573  15.703  11.408
42085W        W 5853  26.175   6.766  13.870
42086W        W 5854  34.604  29.584   1.288
42087W        W 5855   7.402  36.449  13.490
42088W        W 5856  39.341  34.513   2.236
42089W        W 5857   7.318  17.730   3.828
42090W        W 5858  31.517  35.927   1.899
42091W        W 5859  32.020  35.879   3.151
42092W        W 5860   3.267  15.296  14.946
42093W        W 5861  25.133  43.800   1.428
42094W        W 5862  16.086  27.617  10.919
42095W        W 5863  23.586   5.884  11.592
42096W        W 5864  25.084  27.993   2.747
42097W        W 5865   7.242  34.520  10.985
42098W        W 5866  18.063  41.416  11.417
42099W        W 5867  25.105  18.119   2.394
42100W        W 5868  42.407   4.288  12.411
42101W        W 5869  21.742  36.561  12.992
42102W        W 5870   8.761   4.372  14.476
42103W        W 5871   8.673  39.030   5.149
42104W        W 5872   5.760  34.953  11.082
42105W        W 5873  40.977  35.989   4.694
42106W        W 5874  14.760  29.067  14.009
42107W        W 5875  22.531   6.890  10.424
42108W        W 5876  26.548  39.455  12.451
42109W        W 5877  30.427  26.106   4.663
42110W        W 5878  41.043  21.602  14.836
42111W        W 5879   3.762   6.722  13.839
42112W        W 5880  36.503   1.287  12.981
42113W        W 5881  14.201   3.455  12.929
42114W        W 5882  32.540  25.024   1.825
42115W        W 5883  28.601   0.824   1.853
42116W        W 5884  11.813  40.544  14.284
42117W        W 5885   7.232  18.743   0.426
42118W        W 5886  11.840  44.305  14.017
42119W        W 5887   7.743  37.339  14.022
42120W        W 5888   5.772  24.199  10.899
42121W        W 5889  34.929  19.207  12.058
42122W        W 5890  33.383  32.586   2.898
42123W        W 5891  17.777  11.268   2.726
42124W        W 5892  43.953   6.303  13.406
42125W        W 5893   0.985  44.354   1.857
42126W        W 5894  12.669  44.849  14.437
42127W        W 5895   9.302   0.314  10.908
42128W        W 5896  14.228  38.920   3.680
42129W        W 5897  25.516   7.799   4.703
42130W        W 5898  19.655  31.995  14.466
42131W        W 5899  23.707   2.426   1.263
42132W        W 5900   5.351  36.934   2.188
42133W        W 5901  14.713  33.015   0.432
42134W        W 5902  23.648  25.068   0.358
42135W        W 5903  14.699   7.753   0.363
42136W        W 5904  38.555   8.317   1.444
42137W        W 5905  30.505  44.446   4.165
42138W        W 5906  32.928  36.886   1.820
42139W        W 5907  15.774  15.786   2.267
42140W        W 5908  21.562  17.712   3.183
42141W        W 5909  30.629  37.928   0.904
42142W        W 5910  14.194  12.644   3.230
42143W        W 5911  30.938  26.959   3.674
42144W        W 5912   0.470   9.709   4.626
42145W        W 5913  33.490  42.964  11.914
42146W        W 5914  19.571  21.071   0.798
42147W        W 5915  29.951  29.104   1.867
42148W        W 5916  26.991  33.918  14.462
42149W        W 5917  15.720  34.510   0.894
42150W        W 5918  11.629  37.030  14.760
42151W        W 5919   1.747  20.182   4.237
42152W        W 5920  15.087  36.955  12.852
42153W        W 5921   9.239  37.075  11.436
42154W        W 5922   8.862  24.995   2.678
42155W        W 5923  32.948  32.504  11.513
42156W        W 5924  24.061  30.429   2.682
42157W        W 5925   8.286   7.783  12.087
42158W        W 5926   8.893  20.601  14.481
42159W        W 5927  13.130   0.893  13.319
42160W        W 5928  24.719   8.867  11.957
42161W        W 5929  22.115  16.641   0.403
42162W        W 5930  36.878  42.808   1.309
42163W        W 5931  41.914   2.245   0.420
42164W        W 5932  41.920  34.927   1.339
42165W        W 5933  25.565  20.272  10.551
42166W        W 5934  21.032  29.647  12.368
42167W        W 5935   0.418  43.403  11.578
42168W        W 5936  31.555   1.786   4.792
42169W        W 5937  30.571  25.124   3.673
42170W        W 5938  19.606  17.588   2.822
42171W        W 5939  13.293  23.020  12.442
42172W        W 5940  12.310  31.036   4.342
42173W        W 5941  24.699  21.078   0.368
42174W        W 5942  35.099  11.264  13.472
42175W        W 5943   2.898  14.224  12.395
42176W        W 5944  15.587  39.005  11.438
42177W        W 5945  16.787  29.507   3.798
42178W        W 5946  12.853  35.870  13.059
42179W        W 5947  41.314  36.570   2.202
42180W        W 5948  44.855  24.481   0.891
42181W        W 5949  38.024  44.387   2.343
42182W        W 5950  12.666  15.712   0.862
42183W        W 5951  39.483  16.184   3.814
42184W        W 5952  28.170  39.369   0.845
42185W        W 5953  29.932   0.367   4.627
42186W        W 5954   3.752  38.873   1.776
42187W        W 5955  44.388  39.869   3.295
42188W        W 5956  24.149  29.052   4.256
42189W        W 5957  11.838   2.897   1.783
42190W        W 5958  31.905  10.366   3.713
42191W        W 5959  32.563  42.898  11.398
42192W        W 5960  23.708   4.310   2.842
42193W        W 5961  37.473   2.937  11.084
42194W        W 5962  10.855  14.141  11.387
42195W        W 5963  41.967  22.217  13.349
42196W        W 5964  37.030  25.611  13.889
42197W        W 5965  14.730  39.556   4.690
42198W        W 5966  42.888   9.701   2.875
42199W        W 5967  11.232  32.520   3.239
42200W        W 5968   9.812  19.651   3.276
42201W        W 5969   3.216  27.519  12.528
42202W        W 5970  13.143  14.198   1.429
42203W        W 5971  25.063  18.197  10.470
42204W        W 5972  33.472  23.671   4.331
42205W        W 5973  17.264  22.053   2.349
42206W        W 5974   2.948  27.182   4.345
42207W        W 5975  39.398   0.802   9.977
42208W        W 5976  31.960   6.821   3.150
42209W        W 5977   3.360  41.459   9.973
42210W        W 5978   6.231  14.187   5.241
42211W        W 5979  35.548  16.665   9.969
42212W        W 5980  11.161  25.596  10.529
42213W        W 5981  10.693  23.668  14.019
42214W        W 5982  13.753  34.611   2.827
42215W        W 5983   0.377  40.848  11.398
42216W        W 5984  35.939  10.296  10.480
42217W        W 5985  30.132  35.883  13.393
42218W        W 5986  15.797  26.020   0.387
42219W        W 5987  33.507   8.230   3.177
42220W        W 5988  26.510  44.453   2.796
42221W        W 5989  37.002   5.372   5.099
42222W        W 5990   8.674  21.126  14.335
42223W        W 5991   4.340  42.898  10.423
42224W        W 5992  17.201  43.966   0.886
42225W        W 5993  27.162  10.756  12.499
42226W        W 5994  10.665  37.061  10.644
42227W        W 5995  37.874  40.328  14.888
42228W        W 5996  18.563  24.559  14.500
42229W        W 5997  36.535  19.542   2.401
42230W        W 5998  12.274  13.641   2.843
42231W        W 5999  19.690   8.824  12.846
42232W        W 6000  20.553  22.115   3.728
42233W        W 6001  27.546  32.630  13.918
42234W        W 6002  26.594  37.057   1.851
42235W        W 6003   8.363  35.016   1.314
42236W        W 6004  33.026  22.582   2.376
42237W        W 6005  20.523  21.143  14.429
42238W        W 6006   9.220  40.894  12.976
42239W        W 6007  29.037  40.534  14.977
42240W        W 6008  11.679   9.815   0.271
42241W        W 6009  33.073  30.035   4.636
42242W        W 6010   0.877  24.189   3.242
42243W        W 6011  30.637  16.599   2.877
42244W        W 6012  37.346  19.066   1.919
42245W        W 6013   9.291  23.193   3.867
42246W        W 6014  33.595   0.382   3.242
42247W        W 6015  15.767  24.677  11.878
42248W        W 6016  21.524  16.624   3.163
42249W        W 6017   2.291  37.471  12.439
42250W        W 6018   8.382   7.286  13.353
42251W        W 6019   1.416  32.927   5.250
42252W        W 6020  30.434  14.207   4.330
42253W        W 6021  23.171  33.398   2.329
42254W        W 6022  18.775  40.385  13.822
42255W        W 6023  35.094  24.091   3.644
42256W        W 6024   8.882   2.772   2.332
42257W        W 6025  16.781  13.664  14.316
42258W        W 6026  17.198   4.387   0.803
42259W        W 6027  43.275   7.221  13.436
42260W        W 6028  13.111   7.889   4.686
42261W        W 6029  18.631  29.619   2.412
42262W        W 6030  37.382   1.905  14.848
42263W        W 6031  26.061  44.780   0.741
42264W        W 6032  30.072  33.079  11.002
42265W        W 6033  36.943  29.667  12.538
42266W        W 6034  36.518   0.383   3.360
42267W        W 6035   3.297  28.056   0.318
42268W        W 6036  39.857  35.993   4.765
42269W        W 6037   6.839  23.562  11.877
42270W        W 6038   0.328  36.936  14.774
42271W        W 6039  22.013  33.586  12.546
42272W        W 6040   5.872  32.072  14.020
42273W        W 6041   6.343  27.085  11.070
42274W        W 6042  41.531  13.689   4.146
42275W        W 6043  23.073  38.400  11.872
42276W        W 6044  30.989  27.976  13.907
42277W        W 6045  15.311  29.498  14.828
42278W        W 6046  22.221   1.277  11.967
42279W        W 6047  40.984  15.253   1.412
42280W        W 6048   7.883  23.083   3.660
42281W        W 6049  24.974  19.223   1.383
42282W        W 6050   3.247  39.484  12.062
42283W        W 6051  34.608  44.327  11.461
42284W        W 6052   4.774  16.761  10.996
42285W        W 6053   1.926  39.506  13.536
42286W        W 6054  35.021  42.485   2.198
42287W        W 6055  39.385  12.642  10.887
42288W        W 6056  33.962   1.374   0.452
42289W        W 6057  16.174  32.577  13.532
42290W        W 6058  22.737  40.524   0.745
42291W        W 6059  37.416  20.699   4.209
42292W        W 6060   0.929  42.285   3.822
42293W        W 6061  35.905  18.205   3.218
42294W        W 6062  27.102  21.207  12.357
42295W        W 6063  12.350   4.355   3.797
42296W        W 6064  26.652  41.460   0.392
42297W        W 6065  15.772  21.588  12.038
42298W        W 6066  16.239  39.962   3.841
42299W        W 6067  29.648  41.955   1.365
42300W        W 6068  10.635  36.913  11.534
42301W        W 6069  10.359  12.183   3.811
42302W        W 6070   8.209  40.507   3.658
42303W        W 6071  32.055   8.693   2.344
42304W        W 6072  16.074  19.232  13.826
42305W        W 6073   9.328  38.961  10.908
42306W        W 6074  19.751  12.280   0.481
42307W        W 6075  13.210  35.479  13.829
42308W        W 6076   3.411  23.004   0.329
42309W        W 6077  42.400  39.335  12.499
42310W        W 6078  31.936   9.742   1.935
42311W        W 6079  24.528  37.935  14.877
42312W        W 6080  24.208  17.649   4.240
42313W        W 6081  32.967  19.106  11.097
42314W        W 6082  30.633  28.158   4.655
42315W        W 6083  37.839   1.414  12.458
42316W        W 6084  15.304  39.450  13.933
42317W        W 6085  31.607  19.123   0.342
42318W        W 6086  33.389  39.980  13.914
42319W        W 6087  43.789  24.141   3.347
42320W        W 6088   8.169  12.230   2.222
42321W        W 6089  24.615  19.260  11.523
42322W        W 6090  43.388  15.668   2.711
42323W        W 6091  30.933  18.229  11.961
42324W        W 6092  18.675  37.989  14.970
42325W        W 6093  25.506  31.988  14.340
42326W        W 6094   6.863  42.902  13.008
42327W        W 6095  16.748  13.717  11.522
42328W        W 6096  13.798  13.130  14.771
42329W        W 6097  38.330  21.594   3.377
42330W        W 6098  21.179  10.184   0.900
42331W        W 6099  14.158  40.536   2.368
42332W        W 6100  20.658   9.314   0.296
42333W        W 6101   0.392   3.433   4.795
42334W        W 6102  25.119  18.170   1.766
42335W        W 6103   1.848  38.997   0.453
42336W        W 6104  23.502   9.719   0.431
42337W        W 6105  11.714   8.250   0.833
42338W        W 6106   9.725  27.644  10.449
42339W        W 6107   2.249   3.943  12.002
42340W        W 6108  40.469  23.218   3.335
42341W        W 6109   8.379  12.642   1.863
42342W        W 6110  15.820  12.336  14.805
42343W        W 6111  34.045  29.435  14.907
42344W        W 6112  28.599  20.705   3.253
42345W        W 6113   7.228   2.891  11.565
42346W        W 6114  38.988   7.312  11.035
42347W        W 6115  12.637  23.671   0.894
42348W        W 6116  15.327  32.992  12.435
42349W        W 6117  27.181  23.491   2.832
42350W        W 6118  42.000  44.965   4.141
42351W        W 6119   3.367  17.732   2.359
42352W        W 6120  17.672   5.353  11.087
42353W        W 6121  43.429  32.545   1.841
42354W        W 6122   9.377   6.704   3.259
42355W        W 6123   9.814  35.397  10.982
42356W        W 6124  24.519  44.413   2.693
42357W        W 6125  18.281   6.771   0.776
42358W        W 6126  11.725   2.931  12.570
42359W        W 6127  21.616  17.778  10.498
42360W        W 6128  10.660  28.585  10.592
42361W        W 6129  29.117  44.426  12.021
42362W        W 6130  28.021  15.097   1.821
42363W        W 6131  17.166   9.809  13.854
42364W        W 6132  14.179  42.497   0.851
42365W        W 6133   4.845  20.212   3.808
42366W        W 6134  44.385  22.637  13.000
42367W        W 6135  33.891  17.091  12.506
42368W        W 6136  43.994  39.469   1.757
42369W        W 6137  20.573  19.224   0.464
42370W        W 6138   6.284  19.083   1.336
42371W        W 6139  37.981  16.279   0.436
42372W        W 6140  33.001  20.755  11.856
42373W        W 6141  12.285  24.980   1.391
42374W        W 6142   9.309  30.484   1.385
42375W        W 6143  31.431   3.438  11.964
42376W        W 6144  10.861  42.417   3.199
42377W        W 6145  35.002  39.329  14.943
42378W        W 6146  10.250  36.942   1.876
42379W        W 6147  14.712  33.895  10.527
42380W        W 6148  37.087  13.170  12.570
42381W        W 6149  23.653   2.231  11.034
42382W        W 6150  33.022  33.912  13.819
42383W        W 6151  26.011  31.973  13.968
42384W        W 6152  35.961  39.527   4.804
42385W        W 6153  35.024  38.458  12.520
42386W        W 6154  17.723  38.436  12.421
42387W        W 6155  42.288   4.882   0.775
42388W        W 6156  36.347  29.041   3.670
42389W        W 6157  21.095  30.647   2.344
42390W        W 6158   8.898  29.130  11.997
42391W        W 6159  36.414  13.290   2.210
42392W        W 6160  35.451  17.802  10.949
42393W        W 6161  12.752  35.005  11.448
42394W        W 6162  31.955  13.830   2.795
42395W        W 6163  43.981  19.611   2.418
42396W        W 6164  34.587  22.093  13.906
42397W        W 6165  40.519  35.895   1.351
42398W        W 6166  34.039   2.782   0.948
42399W        W 6167  22.618   2.730  14.812
42400W        W 6168   8.216   9.672   0.778
42401W        W 6169  23.711  32.570   5.298
42402W        W 6170  26.133  18.215   3.722
42403W        W 6171  44.788  15.714  11.947
42404W        W 6172  22.562  31.938   4.285
42405W        W 6173  37.388  17.112   3.690
42406W        W 6174  14.305  35.998  10.434
42407W        W 6175   4.247  18.682  13.492
42408W        W 6176  17.252   1.335  12.075
42409W        W 6177  39.001  30.006   4.651
42410W        W 6178  10.232  35.974  10.567
42411W        W 6179  25.989  19.743   1.317
42412W        W 6180  25.970  22.563  13.547
42413W        W 6181  38.846  11.834  12.569
42414W        W 6182   3.329  42.381   1.320
42415W        W 6183  26.482   8.186  13.823
42416W        W 6184  41.891  24.567  12.965
42417W        W 6185  34.592   7.358  11.036
42418W        W 6186   8.234  29.077   1.856
42419W        W 6187  16.630  38.961  13.513
42420W        W 6188  39.992  28.610  12.472
42421W        W 6189  40.976  13.349   1.895
42422W        W 6190  15.790  40.046   4.122
42423W        W 6191  28.635  16.651  13.823
42424W        W 6192  16.251  39.342  14.999
42425W        W 6193   3.277  30.434   1.728
42426W        W 6194  10.693  27.513  11.375
42427W        W 6195  33.557  23.597  14.359
42428W        W 6196  30.592   6.847   0.873
42429W        W 6197  31.077   7.831   4.655
42430W        W 6198  24.503  31.567  13.952
42431W        W 6199  22.137  30.151   2.396
42432W        W 6200   7.295  13.207  11.884
42433W        W 6201  29.056  13.773  11.419
42434W        W 6202   7.414   2.442   2.303
42435W        W 6203  22.565  36.397  11.559
42436W        W 6204   4.309  16.182  14.412
42437W        W 6205   6.276  34.087  10.571
42438W        W 6206  17.734  22.671   1.216
42439W        W 6207  31.634   6.897  12.018
42440W        W 6208   4.809  39.519   4.836
42441W        W 6209  42.890  20.743   4.340
42442W        W 6210  32.954  30.529  14.382
42443W        W 6211  25.652   7.899   1.867
42444W        W 6212   4.248  27.095   3.820
42445W        W 6213   5.839   8.216   4.281
42446W        W 6214  25.689  24.208   2.346
42447W        W 6215  19.278   7.823   2.747
42448W        W 6216  19.167   2.364  13.018
42449W        W 6217  43.366  12.246  10.912
42450W        W 6218  23.220   1.416  13.999
42451W        W 6219  14.781  11.279   4.635
42452W        W 6220  32.518  13.137   3.684
42453W        W 6221  35.497  23.225   0.284
42454W        W 6222  13.279   6.800   2.344
42455W        W 6223   4.804  41.484  11.553
42456W        W 6224  36.526   4.835  14.922
42457W        W 6225  29.942   1.330  11.032
42458W        W 6226  41.385  33.445  14.344
42459W        W 6227  44.832  20.568   0.791
42460W        W 6228  32.115  21.110  12.494
42461W        W 6229  23.590  10.261  11.547
42462W        W 6230   3.821  39.539   3.268
42463W        W 6231  15.321  10.266   2.857
42464W        W 6232   4.248  12.626  12.081
42465W        W 6233   3.715  41.793  11.562
42466W        W 6234  15.195  24.616  11.440
42467W        W 6235  10.854  42.386  10.464
42468W        W 6236  37.374  37.444   4.680
42469W        W 6237  27.618   4.837   0.931
42470W        W 6238  27.445  32.521  14.815
42471W        W 6239  30.480  19.108   2.845
42472W        W 6240   8.856   3.244   4.705
42473W        W 6241   4.938  36.484   4.154
42474W        W 6242  32.972   0.943   4.132
42475W        W 6243  10.829  41.522   3.815
42476W        W 6244  14.597   5.896  12.944
42477W        W 6245   4.302  37.964  12.858
42478W        W 6246   4.705   2.310  13.981
42479W        W 6247  18.730  15.672  11.889
42480W        W 6248  10.200  40.848  14.496
42481W        W 6249  12.727  26.495  13.865
42482W        W 6250  16.220   7.706  11.077
42483W        W 6251   8.383   6.398  11.406
42484W        W 6252  13.632  23.059   0.370
42485W        W 6253  42.376  18.096  14.871
42486W        W 6254   7.335   9.770   0.478
42487W        W 6255  27.627   9.273   1.289
42488W        W 6256   5.219  34.603  13.865
42489W        W 6257   6.779  11.263   0.914
42490W        W 6258  36.020  22.042  10.512
42491W        W 6259  13.678  44.411  12.433
42492W        W 6260  31.038  12.755   4.799
42493W        W 6261  28.118  17.564   3.229
42494W        W 6262  21.557  43.312  12.084
42495W        W 6263  21.074  20.543   0.363
42496W        W 6264   7.346   7.837  12.050
42497W        W 6265  35.007  14.245   2.295
42498W        W 6266  29.035   8.754   4.200
42499W        W 6267  10.356  36.482  10.955
42500W        W 6268  19.208  37.962   2.726
42501W        W 6269  28.512  10.148   3.755
42502W        W 6270   7.798  40.041   0.458
42503W        W 6271  23.578  25.644   4.296
42504W        W 6272  20.735  17.801  14.773
42505W        W 6273  37.842  40.487  13.443
42506W        W 6274  34.419  41.896   3.712
42507W        W 6275  35.460   0.786  14.828
42508W        W 6276  25.657  34.501   4.788
42509W        W 6277  42.325   2.346  11.890
42510W        W 6278  42.838   5.744  11.990
42511W        W 6279  29.929   8.328   3.199
42512W        W 6280  16.179  17.104   0.455
42513W        W 6281  36.026  22.996   3.332
42514W        W 6282  41.515  31.125   4.298
42515W        W 6283  28.441  25.135  13.307
42516W        W 6284  35.993   1.776  12.381
42517W        W 6285  14.170  30.942  11.496
42518W        W 6286   4.230  27.978  12.902
42519W        W 6287  28.468  28.562  14.862
42520W        W 6288  30.526  43.774  14.921
42521W        W 6289  42.331  39.826  11.905
42522W        W 6290   6.809  32.507  10.914
42523W        W 6291  40.042  40.042  11.066
42524W        W 6292  35.902  11.354   4.666
42525W        W 6293   2.322  12.613  12.356
42526W        W 6294   7.812  14.789   2.762
42527W        W 6295   1.754  31.143   3.296
42528W        W 6296  11.280   5.294  14.883
42529W        W 6297   9.275  10.857  12.904
42530W        W 6298  34.054  33.518  10.943
42531W        W 6299   0.896  34.973   2.406
42532W        W 6300   4.254   8.875  14.807
42533W        W 6301   6.225  39.831   4.167
42534W        W 6302  16.272   3.747   3.667
42535W        W 6303   0.458   4.817   1.818
42536W        W 6304  36.410  25.111   0.926
42537W        W 6305   8.284  34.947   3.766
42538W        W 6306  29.175  43.446  13.843
42539W        W 6307  38.061   0.281   1.855
42540W        W 6308  34.922  10.708   0.415
42541W        W 6309  42.449  18.751   4.133
42542W        W 6310  16.696  37.947   1.713
42543W        W 6311  35.516  34.495  11.042
42544W        W 6312   6.896  43.801  11.423
42545W        W 6313  43.955  38.985  13.855
42546W        W 6314   7.302  24.663   3.866
42547W        W 6315  11.674  42.492   3.690
42548W        W 6316  26.971  28.990  13.412
42549W        W 6317  19.075   1.460   4.267
42550W        W 6318  36.934  20.145   1.875
42551W        W 6319  44.969  19.759  11.123
42552W        W 6320  27.538  42.429  11.592
42553W        W 6321   6.851  34.596  11.048
42554W        W 6322  31.989  28.544  14.777
42555W        W 6323  10.690  44.463  10.121
42556W        W 6324  28.051  36.484   1.450
42557W        W 6325  10.856  38.448   0.367
42558W        W 6326  13.225  15.294  14.923
42559W        W 6327  25.560  33.562   9.485
42560W        W 6328  43.380  37.944  10.465
42561W        W 6329  33.956  43.881  14.900
42562W        W 6330   1.744  27.571  10.521
42563W        W 6331  12.696  32.531  14.380
42564W        W 6332   3.249  15.323   1.236
42565W        W 6333  27.548  27.602   0.901
42566W        W 6334  32.554   2.861   0.430
42567W        W 6335   7.262   7.744  10.528
42568W        W 6336  30.147  22.095  13.464
42569W        W 6337  24.624   9.726   4.211
42570W        W 6338  36.908  36.947  14.828
42571W        W 6339   1.810  16.250   1.742
42572W        W 6340   3.248   9.243   4.339
42573W        W 6341  20.167  13.323   1.290
42574W        W 6342  21.224   6.764   0.470
42575W        W 6343  31.457  11.745  14.311
42576W        W 6344  13.172  13.324   3.240
42577W        W 6345  10.330  30.615   5.112
42578W        W 6346  27.189  34.601   3.147
42579W        W 6347  11.757  22.230   2.303
42580W        W 6348  11.814  14.830   2.217
42581W        W 6349  43.929  35.044   4.652
42582W        W 6350  26.600  10.309  11.447
42583W        W 6351  23.655  10.224   3.706
42584W        W 6352   0.938  10.230  14.435
42585W        W 6353  22.524  14.276  14.491
42586W        W 6354  42.391  31.418   2.309
42587W        W 6355  38.077  41.343  14.780
42588W        W 6356   6.864  23.522  12.912
42589W        W 6357  23.237  25.128  11.484
42590W        W 6358  15.602   8.343  14.807
42591W        W 6359   0.355  12.658   4.694
42592W        W 6360  39.318  44.341  10.634
42593W        W 6361  22.008  16.656   1.841
42594W        W 6362  23.123   4.800  13.973
42595W        W 6363  41.453  37.403  10.531
42596W        W 6364  37.413  42.938  10.563
42597W        W 6365  21.198  22.068  11.096
42598W        W 6366  17.270  37.044   4.242
42599W        W 6367  43.021  25.118  12.399
42600W        W 6368   0.384  26.528  14.415
42601W        W 6369  39.481  17.282   1.749
42602W        W 6370  40.418   2.379   2.312
42603W        W 6371   8.722   5.812  13.525
42604W        W 6372  36.051  22.733   0.408
42605W        W 6373  41.013   8.681  11.054
42606W        W 6374  37.928   5.781   2.188
42607W        W 6375  17.256  11.845   3.677
42608W        W 6376  42.334  18.613   3.688
42609W        W 6377  39.322  23.045  13.021
42610W        W 6378  19.660  39.473   2.810
42611W        W 6379  33.611  34.602  12.410
42612W        W 6380  11.738  15.292   1.788
42613W        W 6381  16.621   7.866   3.826
42614W        W 6382   3.812  23.649  12.946
42615W        W 6383  25.591  35.038  10.499
42616W        W 6384  37.024  20.162  11.446
42617W        W 6385  26.618  17.659   0.806
42618W        W 6386  23.490  33.960   0.260
42619W        W 6387   1.971  39.879   2.765
42620W        W 6388  37.399  32.135   1.408
42621W        W 6389   4.930  34.078  11.051
42622W        W 6390  10.651   2.465  12.879
42623W        W 6391  27.604   1.838   4.829
42624W        W 6392  17.711  30.970   0.434
42625W        W 6393  29.643  44.905   1.825
42626W        W 6394  16.650   7.340  10.510
42627W        W 6395  23.013  36.037  11.904
42628W        W 6396  38.042  11.307   4.298
42629W        W 6397  15.748  29.456   5.240
42630W        W 6398   4.804  22.629  13.921
42631W        W 6399  22.701  14.711  13.492
42632W        W 6400  11.789  19.083  14.773
42633W        W 6401  11.855  37.397   2.863
42634W        W 6402   7.236  13.621   3.304
42635W        W 6403  29.527  19.106  12.564
42636W        W 6404  18.567  19.073   2.386
42637W        W 6405  42.488  39.525  13.448
42638W        W 6406  34.467  22.725  13.791
42639W        W 6407  29.584  43.476  12.557
42640W        W 6408   5.280  24.491   2.379
42641W        W 6409  44.813   0.305   3.168
42642W        W 6410  37.514  28.974  12.580
42643W        W 6411  42.918  23.536   3.155
42644W        W 6412  14.171  11.718   3.642
42645W        W 6413  33.615   7.378   1.391
42646W        W 6414  18.729  37.986   4.695
42647W        W 6415   9.266  23.560   1.713
42648W        W 6416   2.830   8.228  10.521
42649W        W 6417  41.337  31.134   2.247
42650W        W 6418   1.386  37.456   4.229
42651W        W 6419  15.088  18.618   1.698
42652W        W 6420   6.298  28.052  12.934
42653W        W 6421   7.909  34.070  14.986
42654W        W 6422  27.633  34.499  14.797
42655W        W 6423  29.978   5.739   2.274
42656W        W 6424  29.010  23.148  12.828
42657W        W 6425  35.903  16.644  12.526
42658W        W 6426   0.871  16.171  13.453
42659W        W 6427  44.477  35.922  12.468
42660W        W 6428  42.451  21.077  14.871
42661W        W 6429  33.596  13.332  11.522
42662W        W 6430  21.656  32.446   1.327
42663W        W 6431   3.458  31.630  14.999
42664W        W 6432  26.967  15.715   0.471
42665W        W 6433  42.826  33.112  12.350
42666W        W 6434  31.926   1.960   1.726
42667W        W 6435  23.235  40.439  10.425
42668W        W 6436   5.911  12.294   1.896
42669W        W 6437  29.505   6.711  13.996
42670W        W 6438  34.489   5.777   2.336
42671W        W 6439  16.663   0.854   3.225
42672W        W 6440  20.228  15.685  14.988
42673W        W 6441  43.338  33.458  10.519
42674W        W 6442  11.298  29.919  14.015
42675W        W 6443  10.171  33.609   2.892
42676W        W 6444  26.963  44.502   3.158
42677W        W 6445  43.993  12.839   2.374
42678W        W 6446  21.737  38.043  12.047
42679W        W 6447  31.514  29.028  10.623
42680W        W 6448  35.447  38.557  14.340
42681W        W 6449   8.677   5.800  12.538
42682W        W 6450  31.526  24.055   3.773
42683W        W 6451   0.880  34.076   4.749
42684W        W 6452  22.503  41.847  10.597
42685W        W 6453  22.539   3.459  12.991
42686W        W 6454   2.429  27.589   1.420
42687W        W 6455  27.075  15.783   1.860
42688W        W 6456  20.271  25.123  10.602
42689W        W 6457  13.268  39.433  12.000
42690W        W 6458  13.791  26.498  13.438
42691W        W 6459  26.136  33.592  13.869
42692W        W 6460  18.176  30.548  10.915
42693W        W 6461  16.597  21.516  10.123
42694W        W 6462  21.097  30.964   0.956
42695W        W 6463   2.796  43.001   0.737
42696W        W 6464  42.343   8.177   3.863
42697W        W 6465  40.937  15.769   1.822
42698W        W 6466  13.218  34.072  14.449
42699W        W 6467  11.279   4.812  14.413
42700W        W 6468  15.677  38.039  13.448
42701W        W 6469  40.336  18.782   0.294
42702W        W 6470  42.949  21.709  12.494
42703W        W 6471  11.747  14.713   1.811
42704W        W 6472  17.632   5.298   1.338
42705W        W 6473   5.354  30.011  10.951
42706W        W 6474  16.260  23.067   3.333
42707W        W 6475   9.764  38.043   0.917
42708W        W 6476  33.499  27.085   3.347
42709W        W 6477  23.128  12.628  10.404
42710W        W 6478  35.399  27.508  10.950
42711W        W 6479  28.009  17.233  14.511
42712W        W 6480  17.647  32.895   0.755
42713W        W 6481  18.727  36.531   1.921
42714W        W 6482  38.977  21.254  14.396
42715W        W 6483   8.303  17.266   3.744
42716W        W 6484  15.249  31.930  12.012
42717W        W 6485  13.794  22.019   4.769
42718W        W 6486  24.704  12.191   2.255
42719W        W 6487   2.762  42.845  11.424
42720W        W 6488  29.589  44.339   3.785
42721W        W 6489  27.008  35.538  14.998
42722W        W 6490   8.280  17.625   3.312
42723W        W 6491  17.661  22.026  11.449
42724W        W 6492  39.049  37.457  11.492
42725W        W 6493  11.812  41.935   2.882
42726W        W 6494   1.399  42.491  10.520
42727W        W 6495  19.250  36.965  10.973
42728W        W 6496  32.522  27.490  14.971
42729W        W 6497  33.009  29.003  14.981
42730W        W 6498   6.897  41.443   4.255
42731W        W 6499  39.364  16.771  14.997
42732W        W 6500  11.136  35.457  10.634
42733W        W 6501  38.823  14.659  12.950
42734W        W 6502  39.509  19.173   3.358
42735W        W 6503  12.674   3.733  11.998
42736W        W 6504  11.175  30.530  13.931
42737W        W 6505  35.928  29.936  11.877
42738W        W 6506   0.923  38.440  12.351
42739W        W 6507   1.933  11.188  13.979
42740W        W 6508  23.670  44.338  13.410
42741W        W 6509  43.865   0.763   0.365
42742W        W 6510  26.003  27.533   2.186
42743W        W 6511  26.457  14.658   0.826
42744W        W 6512  40.478  27.177   0.281
42745W        W 6513   4.726  29.129   2.290
42746W        W 6514  21.683  34.994  13.408
42747W        W 6515   0.440   1.945   1.876
42748W        W 6516   9.786  38.565  12.927
42749W        W 6517   9.153  30.141   4.600
42750W        W 6518   6.813   4.410   4.612
42751W        W 6519  27.019  33.047  14.770
42752W        W 6520  43.839  42.364  14.770
42753W        W 6521  17.721  34.418   2.804
42754W        W 6522  10.689  40.431  10.963
42755W        W 6523   4.928  25.621  11.450
42756W        W 6524   9.879  11.303   1.240
42757W        W 6525   5.371  44.937  12.394
42758W        W 6526  31.926  31.059  10.472
42759W        W 6527  40.980  41.930   2.220
42760W        W 6528   3.242  10.695  13.055
42761W        W 6529  10.791  30.061  12.472
42762W        W 6530   7.709  36.396  13.855
42763W        W 6531  22.015  16.622  11.449
42764W        W 6532  30.449  12.343   4.825
42765W        W 6533  21.255  10.784   0.932
42766W        W 6534  18.769  17.740  12.463
42767W        W 6535  28.032  37.046  14.304
42768W        W 6536  16.604  30.988   4.620
42769W        W 6537  32.422  28.174  10.549
42770W        W 6538  14.278  36.479   1.770
42771W        W 6539  24.166  41.871   2.819
42772W        W 6540  17.642   3.337  11.900
42773W        W 6541  43.415  42.284  11.096
42774W        W 6542  12.673  40.980   0.442
42775W        W 6543  26.984  33.573  11.565
42776W        W 6544  37.084  19.089   1.803
42777W        W 6545  16.210  19.244   2.866
42778W        W 6546  32.072  35.875  14.897
42779W        W 6547  10.721   1.331   0.940
42780W        W 6548  12.282   7.671   0.837
42781W        W 6549  40.451  42.474   2.187
42782W        W 6550  30.996  38.406   1.738
42783W        W 6551  15.753  40.976  10.408
42784W        W 6552  26.692  25.989  14.480
42785W        W 6553  18.582  21.153  10.050
42786W        W 6554  39.962  13.320   1.226
42787W        W 6555  44.776  28.163  12.928
42788W        W 6556  17.135  16.201  14.957
42789W        W 6557   9.880   2.948  11.474
42790W        W 6558   4.320  15.626   0.832
42791W        W 6559  27.512  16.776  13.325
42792W        W 6560  30.158  13.640  11.858
42793W        W 6561   5.841  33.030   3.318
42794W        W 6562   3.729  28.509   2.794
42795W        W 6563  23.732   5.396  12.397
42796W        W 6564  16.193  44.807   0.727
42797W        W 6565  15.305  30.462   1.694
42798W        W 6566  40.451  38.558  12.539
42799W        W 6567  30.608   3.820   2.674
42800W        W 6568  41.995   4.317   1.407
42801W        W 6569  44.854  41.327  13.478
42802W        W 6570   5.333  43.336   3.373
42803W        W 6571  14.663   9.157  12.402
42804W        W 6572   1.291  18.674  10.498
42805W        W 6573  23.652   4.269   3.637
42806W        W 6574  13.126   3.746  11.003
42807W        W 6575  13.659   4.205   3.184
42808W        W 6576  44.960  38.023  10.594
42809W        W 6577  11.159  12.840   0.807
42810W        W 6578  20.525   5.255  12.457
42811W        W 6579  43.820  12.195   3.236
42812W        W 6580  19.149  15.819  13.040
42813W        W 6581  40.309  39.525   0.782
42814W        W 6582  23.195  21.568  14.448
42815W        W 6583  14.173  18.625  13.931
42816W        W 6584   0.791  32.096   4.816
42817W        W 6585  35.063   3.256   1.785
42818W        W 6586  33.903  44.943   1.272
42819W        W 6587  19.554  26.544   2.411
42820W        W 6588  19.630  30.126   1.762
42821W        W 6589  30.069  14.226  13.797
42822W        W 6590  13.108  35.951  10.532
42823W        W 6591  30.525  27.543  11.057
42824W        W 6592  11.135   0.889  12.990
42825W        W 6593  30.105  11.290  13.971
42826W        W 6594  43.328  40.891   4.718
42827W        W 6595  12.709  13.835   0.411
42828W        W 6596  14.206  41.406  10.409
42829W        W 6597  11.161   5.341  11.514
42830W        W 6598  25.105  29.923   2.678
42831W        W 6599  22.006   8.302   3.169
42832W        W 6600  14.769   1.934  10.043
42833W        W 6601  37.887  28.099  11.991
42834W        W 6602   6.364   4.805  11.555
42835W        W 6603  22.204  18.147  14.001
42836W        W 6604  10.277  42.351  14.416
42837W        W 6605  41.981  28.950   1.729
42838W        W 6606   5.379  15.258   2.191
42839W        W 6607  35.035  17.194   2.778
42840W        W 6608  25.554  38.012   1.882
42841W        W 6609  25.978  25.118   0.803
42842W        W 6610  25.703  40.813  11.445
42843W        W 6611  32.138  13.224  14.833
42844W        W 6612  27.058  29.059  12.572
42845W        W 6613   5.790  13.716  13.955
42846W        W 6614  38.882  41.513  14.025
42847W        W 6615  21.562  23.145  13.354
42848W        W 6616  18.265  21.633  14.475
42849W        W 6617  40.013  25.003   0.860
42850W        W 6618  35.038  22.138  12.905
42851W        W 6619  19.123  10.727   0.852
42852W        W 6620  30.615   4.789  10.507
42853W        W 6621  11.182  13.259  13.849
42854W        W 6622  14.195  40.028   0.859
42855W        W 6623  44.499  37.962   0.842
42856W        W 6624  25.586   6.332   4.189
42857W        W 6625  42.958   3.300  13.444
42858W        W 6626  12.139  18.691  13.876
42859W        W 6627   0.368  34.523  12.981
42860W        W 6628  38.992  11.224   3.323
42861W        W 6629  35.571  20.619   0.419
42862W        W 6630  18.736  28.623   4.689
42863W        W 6631  34.535  18.761   3.253
42864W        W 6632  12.238  35.582  14.841
42865W        W 6633   8.205  16.203  12.574
42866W        W 6634  12.248  21.023  11.123
42867W        W 6635  33.536  28.013   2.290
42868W        W 6636  41.911  34.448   3.263
42869W        W 6637  41.496  28.951  12.346
42870W        W 6638  33.515  41.945  10.466
42871W        W 6639  27.554  30.449   3.243
42872W        W 6640  33.504  24.123   4.313
42873W        W 6641  44.415  19.174  10.582
42874W        W 6642  23.598  42.391  13.948
42875W        W 6643  30.421  35.022   5.188
42876W        W 6644  38.942  26.004   4.790
42877W        W 6645   4.341  42.995   3.281
42878W        W 6646  20.086  20.614  12.380
42879W        W 6647  21.130  37.411   2.256
42880W        W 6648  27.685   7.706   4.297
42881W        W 6649  31.908  24.656  10.466
42882W        W 6650  23.492   2.767   0.375
42883W        W 6651  44.801  18.660  14.411
42884W        W 6652  18.642  44.331  10.411
42885W        W 6653  12.751  23.598   3.869
42886W        W 6654  29.018  34.426  13.517
42887W        W 6655  41.436  41.424   1.270
42888W        W 6656   1.350  23.057   3.306
42889W        W 6657  15.247   8.679   2.263
42890W        W 6658  44.887   4.345  13.452
42891W        W 6659  30.098  25.470  10.454
42892W        W 6660   4.751  13.767   4.166
42893W        W 6661  14.711  41.011   1.798
42894W        W 6662  31.528   2.229   2.353
42895W        W 6663  31.478  21.665   2.202
42896W        W 6664  24.014   5.275  12.057
42897W        W 6665  23.630  38.071  11.591
42898W        W 6666  10.200  13.164   1.388
42899W        W 6667  14.119  20.070   3.334
42900W        W 6668   1.916   0.407  13.046
42901W        W 6669  33.942  10.659   4.725
42902W        W 6670   6.224   9.385   1.369
42903W        W 6671   1.369   3.359   3.726
42904W        W 6672  36.988  30.056   4.135
42905W        W 6673  42.897   6.419  14.502
42906W        W 6674  32.017   8.864   0.869
42907W        W 6675  40.329   8.334   1.307
42908W        W 6676   4.880  11.865   3.168
42909W        W 6677  37.927  34.049   1.912
42910W        W 6678   6.895  10.362  10.890
42911W        W 6679   4.206  13.626  14.414
42912W        W 6680  16.260  10.218  12.921
42913W        W 6681  38.498  24.617   4.224
42914W        W 6682  28.642  10.358  14.318
42915W        W 6683  26.995   6.703   1.772
42916W        W 6684   8.181  16.578  12.415
42917W        W 6685  19.174  23.668  12.031
42918W        W 6686  29.938   2.383   2.862
42919W        W 6687  29.636  42.943  13.929
42920W        W 6688   9.165   8.800  14.899
42921W        W 6689  13.775  21.740   4.781
42922W        W 6690   9.298   1.839   4.340
42923W        W 6691  18.765  26.028  14.988
42924W        W 6692   6.258  35.885  10.044
42925W        W 6693  18.196   4.810  11.943
42926W        W 6694   0.360  19.599  11.987
42927W        W 6695  33.572  35.924  14.472
42928W        W 6696   0.493   1.319   0.463
42929W        W 6697  34.888   5.768  14.020
42930W        W 6698  20.612  38.409  13.034
42931W        W 6699  10.311  43.870  12.042
42932W        W 6700  11.704   4.733   4.781
42933W        W 6701  39.558  28.516   4.696
42934W        W 6702  44.757  19.117   4.605
42935W        W 6703  35.097  22.068   0.758
42936W        W 6704  40.992  40.040   4.833
42937W        W 6705   2.834  20.189  13.866
42938W        W 6706  37.054  33.573   2.785
42939W        W 6707  36.032  31.016   1.235
42940W        W 6708  13.841  44.957  11.956
42941W        W 6709  26.075  16.703   0.918
42942W        W 6710   1.796   9.259  14.966
42943W        W 6711   6.321  29.073  11.864
42944W        W 6712  10.257   4.216  12.085
42945W        W 6713  40.006  14.152  13.960
42946W        W 6714  15.272  43.016  12.991
42947W        W 6715  20.189  40.470   2.797
42948W        W 6716  13.756  15.248   4.838
42949W        W 6717  34.879  30.508   5.098
42950W        W 6718  30.070   3.912   2.782
42951W        W 6719  41.020  29.582  13.379
42952W        W 6720  25.193   0.820   0.956
42953W        W 6721  33.056  20.207   4.290
42954W        W 6722  24.663  38.891   3.345
42955W        W 6723  44.777  13.660  12.539
42956W        W 6724  11.829  42.302  11.383
42957W        W 6725  17.115  32.553   0.405
42958W        W 6726  41.813   1.376   1.694
42959W        W 6727   7.264  38.360  10.983
42960W        W 6728  29.034  32.094  12.942
42961W        W 6729   2.743  28.932  14.020
42962W        W 6730  24.113  30.961  12.919
42963W        W 6731  22.094  34.586  11.511
42964W        W 6732  23.535  37.066   5.228
42965W        W 6733  41.336  31.551   1.419
42966W        W 6734  29.432  15.133   1.919
42967W        W 6735  23.616  16.270   4.821
42968W        W 6736  28.079  44.971   1.347
42969W        W 6737  27.485  18.743   4.634
42970W        W 6738   6.258  36.507  14.854
42971W        W 6739  32.112  10.840   4.759
42972W        W 6740  40.350  11.253   3.377
42973W        W 6741  30.922  26.119  12.376
42974W        W 6742  23.653  23.190  12.914
42975W        W 6743  11.356  32.976   2.715
42976W        W 6744   9.252  22.705   4.611
42977W        W 6745  20.088  21.549   3.855
42978W        W 6746  27.674  12.264  14.847
42979W        W 6747  10.371  14.307   3.272
42980W        W 6748  30.097  26.593   0.279
42981W        W 6749  14.822  20.731  13.486
42982W        W 6750  14.782   2.776   1.306
42983W        W 6751   3.816  28.575  14.364
42984W        W 6752  23.722  17.153  12.930
42985W        W 6753  15.291  39.975   4.838
42986W        W 6754  18.548  20.247   2.872
42987W        W 6755  29.121   2.769   1.221
42988W        W 6756  29.928  30.074  13.337
42989W        W 6757  17.211  13.758   0.353
42990W        W 6758  34.925  27.691   3.697
42991W        W 6759  24.050   1.929  14.862
42992W        W 6760  39.414  25.166   2.224
42993W        W 6761   7.241   9.242  12.550
42994W        W 6762  16.729  19.121  14.390
42995W        W 6763  32.941  24.184  12.497
42996W        W 6764  40.325  19.572  12.962
42997W        W 6765  42.494  29.453  14.444
42998W        W 6766  36.892  13.772  12.468
42999W        W 6767  14.684  16.701   3.365
43000W        W 6768  35.560  34.944  13.032
43001W        W 6769  34.372  17.067  13.526
43002W        W 6770  41.903  22.669  12.361
43003W        W 6771  29.531  43.928  13.017
43004W        W 6772  35.093  38.344   0.902
43005W        W 6773  18.183  17.123  13.394
43006W        W 6774  20.749  29.038   3.838
43007W        W 6775   8.207  41.798   1.815
43008W        W 6776   3.403  23.559   1.817
43009W        W 6777  44.364  23.145  11.925
43010W        W 6778  32.940  38.501   3.155
43011W        W 6779  18.624  31.128  13.813
43012W        W 6780   2.455  18.053  11.116
43013W        W 6781  15.670  34.110   4.130
43014W        W 6782   0.970   6.742  12.058
43015W        W 6783  31.498  34.497   4.317
43016W        W 6784  27.531  27.528  14.433
43017W        W 6785   2.806  26.629  12.880
43018W        W 6786  23.203  19.088  14.804
43019W        W 6787   1.307  38.480  11.100
43020W        W 6788  42.296  16.131  10.943
43021W        W 6789  36.936  36.848   2.221
43022W        W 6790   2.335  38.493  14.485
43023W        W 6791  37.578  25.559   0.951
43024W        W 6792  27.621   3.781  11.378
43025W        W 6793  39.064  19.229   3.256
43026W        W 6794  38.015   9.883  13.040
43027W        W 6795  18.560  16.679  10.998
43028W        W 6796  24.205   2.769   1.430
43029W        W 6797  24.725  17.290  11.081
43030W        W 6798   9.647  25.030  14.417
43031W        W 6799   8.732   0.356   3.722
43032W        W 6800  42.925  15.761  10.431
43033W        W 6801  19.606  10.364   2.229
43034W        W 6802  27.541  27.652  11.020
43035W        W 6803   9.296   0.355  14.335
43036W        W 6804  32.417  15.582  10.029
43037W        W 6805  34.603  26.598   1.358
43038W        W 6806  33.454  34.924   1.299
43039W        W 6807  13.308  36.387  14.841
43040W        W 6808   7.382  17.184   3.201
43041W        W 6809  21.514   0.334   0.911
43042W        W 6810  18.774   5.749  10.982
43043W        W 6811  40.933  39.439   1.385
43044W        W 6812  16.190  22.743   1.375
43045W        W 6813  37.462   1.314   2.241
43046W        W 6814  44.960  21.511   0.474
43047W        W 6815  11.332  22.508   0.480
43048W        W 6816  15.251  22.166   3.354
43049W        W 6817  19.768  13.271  11.078
43050W        W 6818  16.243   1.303   3.663
43051W        W 6819  42.356  14.100   4.787
43052W        W 6820   7.247  37.391  10.628
43053W        W 6821   2.265  34.589   3.169
43054W        W 6822  36.843  15.128   0.745
43055W        W 6823  36.360  42.831   3.304
43056W        W 6824  39.870  25.675   0.754
43057W        W 6825   4.217  36.463   2.183
43058W        W 6826  40.800  17.182   2.814
43059W        W 6827   8.398  24.671   2.768
43060W        W 6828  23.996  44.805  11.090
43061W        W 6829  14.145  18.111   5.136
43062W        W 6830  40.884  27.472  13.031
43063W        W 6831  36.942   3.339   1.347
43064W        W 6832  38.053  27.067   1.355
43065W        W 6833  31.006  22.530   4.817
43066W        W 6834  33.560  14.131  11.448
43067W        W 6835  33.438  35.945   0.248
43068W        W 6836  21.645  39.381   4.232
43069W        W 6837  25.151  24.002  11.095
43070W        W 6838  19.772   8.804   3.267
43071W        W 6839  14.756  13.788   1.835
43072W        W 6840   6.836  32.458   0.452
43073W        W 6841  41.987  22.129  11.562
43074W        W 6842  29.562   5.813   0.791
43075W        W 6843  41.883  25.208   4.794
43076W        W 6844  24.157  38.864   1.227
43077W        W 6845  15.685  13.203   1.301
43078W        W 6846  28.114  33.413   4.617
43079W        W 6847  27.015   6.191  11.006
43080W        W 6848   6.258   4.327   1.408
43081W        W 6849  40.451  25.477  10.984
43082W        W 6850  33.024  35.490   1.793
43083W        W 6851  44.919  42.987  12.059
43084W        W 6852   6.377   0.337  13.337
43085W        W 6853   2.929  20.029  10.891
43086W        W 6854  41.383  27.454  11.939
43087W        W 6855  21.602  17.570   4.644
43088W        W 6856  20.744  16.757   4.672
43089W        W 6857   7.324  10.146  14.827
43090W        W 6858  27.598   0.493  14.782
43091W        W 6859  23.732  21.571   1.306
43092W        W 6860  40.360   5.411   1.836
43093W        W 6861   9.202  16.205   4.145
43094W        W 6862  19.207   9.169   3.843
43095W        W 6863  24.479  29.965   1.886
43096W        W 6864  16.763  17.231  10.601
43097W        W 6865  10.264   0.910   3.268
43098W        W 6866  28.129  22.170   3.830
43099W        W 6867  21.204   8.754   0.823
43100W        W 6868   9.366  23.214  11.942
43101W        W 6869  25.577  33.529  11.917
43102W        W 6870   3.387  33.923   3.280
43103W        W 6871  35.597   8.898  12.406
43104W        W 6872  20.179  30.023   0.884
43105W        W 6873  11.142  41.312  13.397
43106W        W 6874  26.497  43.382   1.921
43107W        W 6875  13.841  19.612   1.743
43108W        W 6876  26.632  33.401   0.785
43109W        W 6877   1.441  12.296   4.693
43110W        W 6878  38.335   8.803   0.462
43111W        W 6879  25.124   1.462  12.901
43112W        W 6880  24.993  20.765   3.658
43113W        W 6881   6.193  13.757   2.788
43114W        W 6882  12.166  27.118  12.884
43115W        W 6883  21.235  27.943  11.896
43116W        W 6884   6.719  27.447   4.161
43117W        W 6885  17.636  39.824  13.348
43118W        W 6886  19.057  24.670  14.434
43119W        W 6887   6.238  30.483  13.812
43120W        W 6888  29.632   1.846  14.991
43121W        W 6889  17.191  30.546  12.564
43122W        W 6890  43.378  24.708  11.973
43123W        W 6891  30.996  19.732   2.229
43124W        W 6892   8.226  21.182  10.496
43125W        W 6893   9.238  25.095  12.914
43126W        W 6894   5.833  13.674   1.362
43127W        W 6895   3.316  24.610  11.423
43128W        W 6896  23.166   5.324  10.941
43129W        W 6897  44.882   4.345   3.383
43130W        W 6898   1.446  28.995  14.940
43131W        W 6899  32.902  18.110   3.675
43132W        W 6900  18.582  18.281  14.511
43133W        W 6901  25.547  36.522  10.990
43134W        W 6902   2.334  12.813   3.646
43135W        W 6903   3.797  13.844  12.374
43136W        W 6904  35.433  42.818  11.124
43137W        W 6905  16.212  18.063   3.718
43138W        W 6906   8.743  36.843   1.244
43139W        W 6907  33.127  11.312   1.224
43140W        W 6908   1.972  33.947  11.486
43141W        W 6909  23.075  35.410   3.302
43142W        W 6910  38.072  37.517   4.644
43143W        W 6911  10.646  15.206  10.556
43144W        W 6912  36.044  18.261  14.327
43145W        W 6913  31.017   6.910  10.569
43146W        W 6914  26.160  10.668  11.123
43147W        W 6915  30.094  37.456   1.701
43148W        W 6916   1.958   1.859   3.823
43149W        W 6917  36.947  43.858  13.830
43150W        W 6918  19.713  18.700  14.516
43151W        W 6919   3.724  31.473   3.738
43152W        W 6920  28.140   3.411  14.458
43153W        W 6921  31.068   1.754   0.929
43154W        W 6922   5.830   5.214   3.836
43155W        W 6923  32.394  39.506  11.911
43156W        W 6924  37.579  41.423  13.794
43157W        W 6925  37.924  42.826  13.018
43158W        W 6926  35.912  28.966   1.850
43159W        W 6927  12.245  20.568   3.868
43160W        W 6928  17.672  41.335   4.270
43161W        W 6929   2.315  36.045   4.694
43162W        W 6930  24.192   9.173   0.439
43163W        W 6931  35.381  26.988  12.404
43164W        W 6932   8.794  20.087  11.487
43165W        W 6933  43.480  25.473  10.493
43166W        W 6934  31.439  12.183  13.952
43167W        W 6935  34.605   3.904  10.410
43168W        W 6936  17.793   4.317   4.229
43169W        W 6937  44.936  28.673   2.860
43170W        W 6938  10.802  26.072   4.651
43171W        W 6939  27.487   4.827  11.372
43172W        W 6940  39.352  34.932   0.318
43173W        W 6941  12.636  19.261   4.756
43174W        W 6942   8.279  22.035   0.427
43175W        W 6943  18.683  31.992  12.025
43176W        W 6944  40.472   2.266  10.544
43177W        W 6945  39.903  41.460   4.138
43178W        W 6946  35.442  19.637   1.722
43179W        W 6947   1.297  27.518   2.845
43180W        W 6948  24.582   3.954   3.225
43181W        W 6949  39.446  25.118  10.907
43182W        W 6950  10.373  19.600   4.780
43183W        W 6951  27.953  21.526   1.799
43184W        W 6952  36.347  14.652   1.709
43185W        W 6953  16.097  17.801  14.440
43186W        W 6954   6.791  22.507   3.282
43187W        W 6955  25.606  37.991   5.758
43188W        W 6956  39.949  36.013   0.408
43189W        W 6957  15.108  19.230   3.797
43190W        W 6958  17.067  16.765  14.481
43191W        W 6959  32.064  43.434  14.420
43192W        W 6960  27.673   4.311   0.408
43193W        W 6961  32.600  18.218  10.908
43194W        W 6962  13.323  14.627  12.384
43195W        W 6963  25.568  20.140  13.920
43196W        W 6964  27.973   5.396  10.628
43197W        W 6965  27.578  39.480  14.406
43198W        W 6966  32.423  31.600  10.514
43199W        W 6967   0.343  22.506  12.564
43200W        W 6968  32.434  25.116  13.846
43201W        W 6969  10.791  21.642  14.760
43202W        W 6970   0.930  35.868  13.459
43203W        W 6971  24.500  39.056  12.423
43204W        W 6972  30.634  15.687  13.053
43205W        W 6973  30.614  21.594  13.519
43206W        W 6974  14.763   6.832  12.897
43207W        W 6975   5.303  38.562   2.850
43208W        W 6976  43.877   9.158   2.229
43209W        W 6977  11.247   4.724   3.385
43210W        W 6978  39.984   1.367   2.324
43211W        W 6979  15.091  29.575   4.829
43212W        W 6980  28.145   6.903   1.384
43213W        W 6981   9.875  39.340  10.912
43214W        W 6982   5.334  21.169  10.523
43215W        W 6983  34.876   3.851  10.937
43216W        W 6984  37.413  44.962   0.391
43217W        W 6985  30.518   9.778  12.368
43218W        W 6986  28.519   1.353  14.428
43219W        W 6987  25.031  11.290  14.828
43220W        W 6988  10.727  12.655  10.621
43221W        W 6989  13.642  13.164   4.779
43222W        W 6990   8.672   2.917   1.719
43223W        W 6991  18.712  16.669   1.844
43224W        W 6992  27.487  23.029  12.039
43225W        W 6993   9.836  22.506  14.446
43226W        W 6994  41.314  39.914   4.600
43227W        W 6995  21.052   9.714   0.949
43228W        W 6996  22.650  25.039  10.026
43229W        W 6997  33.964  35.054  14.511
43230W        W 6998  38.988  37.983  10.955
43231W        W 6999  18.203  14.240   4.666
43232W        W 7000   8.273   6.704   2.734
43233W        W 7001   3.771  14.625  11.904
43234W        W 7002  15.685  34.094   3.150
43235W        W 7003  37.566  43.446  14.908
43236W        W 7004  34.059  35.488   2.193
43237W        W 7005   0.397   1.296  13.531
43238W        W 7006   4.760  18.578   0.830
43239W        W 7007   9.256  14.324  12.015
43240W        W 7008  18.228   4.418   1.698
43241W        W 7009  36.586  15.288  10.433
43242W        W 7010  23.118  20.105   0.875
43243W        W 7011   4.389   3.911   0.910
43244W        W 7012  42.510   7.338   4.597
43245W        W 7013  29.553  16.101  10.973
43246W        W 7014  18.698  18.690  11.504
43247W        W 7015  16.188  27.121   0.835
43248W        W 7016   4.742  18.196  12.031
43249W        W 7017  31.018  27.963   3.786
43250W        W 7018  28.186   8.734  12.071
43251W        W 7019  31.088   9.866   1.230
43252W        W 7020  18.182   8.783   3.371
43253W        W 7021  31.460   9.673   1.299
43254W        W 7022   2.736  23.576   1.865
43255W        W 7023  31.897   4.920  14.845
43256W        W 7024   5.406  25.672   2.668
43257W        W 7025  34.409  16.107  11.518
43258W        W 7026  35.468  42.382  13.405
43259W        W 7027  33.030  29.441  14.430
43260W        W 7028  37.902  12.362   0.402
43261W        W 7029  24.634  32.935   1.791
43262W        W 7030   7.280  21.083   4.670
43263W        W 7031  20.245   6.887   4.821
43264W        W 7032  14.808  18.675  10.928
43265W        W 7033  12.329  39.338   0.837
43266W        W 7034  17.207  36.861  12.492
43267W        W 7035  36.998  15.682  11.046
43268W        W 7036   2.301   9.728  10.888
43269W        W 7037  38.371   3.904  12.432
43270W        W 7038  16.713  38.904   2.790
43271W        W 7039  28.672   5.886  10.465
43272W        W 7040   7.799  29.983   0.260
43273W        W 7041  21.205   1.450   9.960
43274W        W 7042  21.607   9.249  11.544
43275W        W 7043  41.937   1.341  10.601
43276W        W 7044  13.280  16.797   1.773
43277W        W 7045  11.832  18.634  14.803
43278W        W 7046  20.097   1.297  10.498
43279W        W 7047  43.396  13.252  10.930
43280W        W 7048  20.748  31.983  11.914
43281W        W 7049  20.149  20.141  11.923
43282W        W 7050   4.431  15.729  10.580
43283W        W 7051  43.338  13.189  14.017
43284W        W 7052  18.240  23.521  12.391
43285W        W 7053  42.842  14.125  14.937
43286W        W 7054  17.114  33.969   1.799
43287W        W 7055   6.347   3.399   2.255
43288W        W 7056  42.968   0.912   3.839
43289W        W 7057  23.581  10.230  10.948
43290W        W 7058  16.098   8.299   2.219
43291W        W 7059   7.827  19.624  12.459
43292W        W 7060  32.020  39.048   0.422
43293W        W 7061   2.963  33.486  13.874
43294W        W 7062  22.033  28.041   1.836
43295W        W 7063  15.114  16.699   0.886
43296W        W 7064  35.048  31.492   4.743
43297W        W 7065  31.453  38.880  11.004
43298W        W 7066  41.943  18.166   3.842
43299W        W 7067  14.258  34.991  13.419
43300W        W 7068  31.979  40.803  13.812
43301W        W 7069  19.166  20.204  11.857
43302W        W 7070   1.317  13.311   3.803
43303W        W 7071  30.023   3.412  14.374
43304W        W 7072   6.414  32.955  14.961
43305W        W 7073  39.896  34.943  11.933
43306W        W 7074  41.896   1.412  14.410
43307W        W 7075   3.716  24.653   1.291
43308W        W 7076  19.653  41.417   1.772
43309W        W 7077  39.048  15.780   2.777
43310W        W 7078  20.194  29.153  11.591
43311W        W 7079  38.878  29.944   2.342
43312W        W 7080  19.767  32.020   0.317
43313W        W 7081  11.365  37.952  13.384
43314W        W 7082  43.973  24.481   3.772
43315W        W 7083  27.965  31.010   4.208
43316W        W 7084   4.404  23.623   3.807
43317W        W 7085   9.760  16.569  14.439
43318W        W 7086  24.165   7.898   1.371
43319W        W 7087  39.542   6.412   1.722
43320W        W 7088  12.296  18.696   0.270
43321W        W 7089  16.180  19.570  12.885
43322W        W 7090  34.609  31.542  14.325
43323W        W 7091  43.413  28.666  11.434
43324W        W 7092  17.085  34.438  14.491
43325W        W 7093  31.583  37.950   2.845
43326W        W 7094  35.083  39.527   2.297
43327W        W 7095  25.117  27.033   0.743
43328W        W 7096   5.242  12.250  11.571
43329W        W 7097   6.328  11.748  13.540
43330W        W 7098   2.943  16.665   0.312
43331W        W 7099  30.000   1.355   3.341
43332W        W 7100  43.824   3.235  13.369
43333W        W 7101  28.557   3.724   2.763
43334W        W 7102   6.349  40.888  13.973
43335W        W 7103  36.931  33.593   1.897
43336W        W 7104  37.347  38.851   0.920
43337W        W 7105   1.404  34.438  12.526
43338W        W 7106  22.019  17.687  13.354
43339W        W 7107  43.836   4.346  12.480
43340W        W 7108  40.874   9.318  13.003
43341W        W 7109  22.576  10.665   2.282
43342W        W 7110  33.008  28.018   3.766
43343W        W 7111  18.257   7.716  11.381
43344W        W 7112  12.198  14.680  14.911
43345W        W 7113   3.939   9.739  13.333
43346W        W 7114  35.490  30.611  12.403
43347W        W 7115  24.699   9.871   0.260
43348W        W 7116   3.215  22.705   2.300
43349W        W 7117  34.886   3.449  13.054
43350W        W 7118  24.212  42.023  12.360
43351W        W 7119  25.559  23.223   0.826
43352W        W 7120  10.261   1.786   1.873
43353W        W 7121  38.564  17.200   3.642
43354W        W 7122  24.148  29.124  12.345
43355W        W 7123  25.074   2.428   4.787
43356W        W 7124  42.799  40.925  13.962
43357W        W 7125   1.241   5.842   4.612
43358W        W 7126  21.049   4.328  11.103
43359W        W 7127  41.420   5.250   0.260
43360W        W 7128   9.182  28.597   2.768
43361W        W 7129   0.398  41.821  11.511
43362W        W 7130  27.043  13.191  14.424
43363W        W 7131  29.920  41.834   4.729
43364W        W 7132  15.191  39.029   2.185
43365W        W 7133   6.894  41.327  11.871
43366W        W 7134   7.708  31.047  11.082
43367W        W 7135  23.491  36.994   4.226
43368W        W 7136  13.233  34.879  11.551
43369W        W 7137  27.633   2.292   0.388
43370W        W 7138   9.749  40.486   1.776
43371W        W 7139  18.614  42.449  11.550
43372W        W 7140  27.473  29.962   0.791
43373W        W 7141  10.286   7.682   9.929
43374W        W 7142  13.714  16.072   2.250
43375W        W 7143  38.352   5.703  13.353
43376W        W 7144   2.227  39.375   2.419
43377W        W 7145  44.789  34.060   0.853
43378W        W 7146  19.238  33.974  12.078
43379W        W 7147   9.341  38.545   2.381
43380W        W 7148   4.434  13.180   3.297
43381W        W 7149   3.873   9.839   2.188
43382W        W 7150   8.833  28.473   3.258
43383W        W 7151   1.857  31.465  13.380
43384W        W 7152  32.968   2.929  10.580
43385W        W 7153  28.551   7.823   4.697
43386W        W 7154   4.208  23.006   3.640
43387W        W 7155  12.630  22.162   1.221
43388W        W 7156  23.596   8.821  10.471
43389W        W 7157   7.765  32.069  11.419
43390W        W 7158   6.717   6.911   1.417
43391W        W 7159  33.980   1.862  10.515
43392W        W 7160   1.811  34.108   9.558
43393W        W 7161   2.770  30.543   1.423
43394W        W 7162   0.762  19.182   3.781
43395W        W 7163  21.259  27.582   3.148
43396W        W 7164   1.405  38.841   2.882
43397W        W 7165  22.561  24.500  14.840
43398W        W 7166  13.679  11.192   1.794
43399W        W 7167   7.283  36.409   4.298
43400W        W 7168   9.792  16.591  13.438
43401W        W 7169   6.198  26.135  14.808
43402W        W 7170  35.952  21.259  10.999
43403W        W 7171  20.700  41.808   4.187
43404W        W 7172  11.368  19.233  11.070
43405W        W 7173  44.980  11.627   2.190
43406W        W 7174  37.975  38.551  11.961
43407W        W 7175  14.714  28.565   0.866
43408W        W 7176  39.545  28.568  12.921
43409W        W 7177   3.846   9.843   4.783
43410W        W 7178  34.500  38.872  11.074
43411W        W 7179  31.097  13.335  13.955
43412W        W 7180  33.953  42.996  14.343
43413W        W 7181  24.487   1.297  13.357
43414W        W 7182  35.992  21.179   1.802
43415W        W 7183  26.586  39.832  13.451
43416W        W 7184  40.406  40.036  11.374
43417W        W 7185  15.769   1.277   3.353
43418W        W 7186  14.259   4.898   3.822
43419W        W 7187  11.259   2.847  11.992
43420W        W 7188  35.957  11.739   2.835
43421W        W 7189  12.802   5.906   2.243
43422W        W 7190  34.980  18.239   1.319
43423W        W 7191  21.755  27.467   3.653
43424W        W 7192  27.168  26.074   0.825
43425W        W 7193  30.414   7.819   4.324
43426W        W 7194  35.408   8.194   3.864
43427W        W 7195  32.605  27.029  13.425
43428W        W 7196  19.081  42.795  11.504
43429W        W 7197  10.817  25.623  11.938
43430W        W 7198  11.183  16.151   4.306
43431W        W 7199  20.574  24.030  13.483
43432W        W 7200  10.167  15.259   2.203
43433W        W 7201  25.689  13.777  10.543
43434W        W 7202  25.571  22.073   4.621
43435W        W 7203  21.604  37.336  13.426
43436W        W 7204  30.110  22.227   0.437
43437W        W 7205   3.318  31.100   5.199
43438W        W 7206   0.356  21.541   4.775
43439W        W 7207   3.760   7.674   4.795
43440W        W 7208  18.263  14.687  14.986
43441W        W 7209  24.007  40.405   0.740
43442W        W 7210  20.084  36.533   2.892
43443W        W 7211  39.812  35.106  12.378
43444W        W 7212  10.634   9.274  12.522
43445W        W 7213   3.765  22.731  12.546
43446W        W 7214   3.292  30.544  11.992
43447W        W 7215  28.119  16.616  10.995
43448W        W 7216  12.359  15.093  10.457
43449W        W 7217  37.973   9.286   9.475
43450W        W 7218  19.569  42.809   1.782
43451W        W 7219  30.943  32.501  11.572
43452W        W 7220  15.103  36.095   2.688
43453W        W 7221   5.909  31.499   3.796
43454W        W 7222   1.746  39.866  13.546
43455W        W 7223  37.950   4.339   4.803
43456W        W 7224   9.755  21.574  11.467
43457W        W 7225   6.893  21.076   9.974
43458W        W 7226  24.563  34.081   1.407
43459W        W 7227  19.235  24.627   4.328
43460W        W 7228  37.480  18.690  13.329
43461W        W 7229  14.766  32.102   1.240
43462W        W 7230  26.080  20.096  12.453
43463W        W 7231  24.719  14.619  11.931
43464W        W 7232   1.821   9.244   3.791
43465W        W 7233  13.143   9.246   4.156
43466W        W 7234  42.469  24.721  14.821
43467W        W 7235   1.768  10.193  11.121
43468W        W 7236  26.531  31.073  12.986
43469W        W 7237  23.590  39.824   0.272
43470W        W 7238  31.899  26.563   3.383
43471W        W 7239   9.672   3.721   1.807
43472W        W 7240  14.334  20.617   4.730
43473W        W 7241  23.236  37.530  13.831
43474W        W 7242  43.968   5.706  14.345
43475W        W 7243   1.759  26.056  12.051
43476W        W 7244  11.354   8.800   3.268
43477W        W 7245   9.781   3.403   0.288
43478W        W 7246   9.218  40.959  12.083
43479W        W 7247   4.742  31.435   2.391
43480W        W 7248   8.839  35.558   3.342
43481W        W 7249   4.928  11.281  13.814
43482W        W 7250   9.791  42.025  13.346
43483W        W 7251  39.465  43.776   1.911
43484W        W 7252  33.468  38.947  12.524
43485W        W 7253  10.742  17.801  14.310
43486W        W 7254   8.403  11.152  14.987
43487W        W 7255  36.562   0.251  14.000
43488W        W 7256  14.226  32.980  11.934
43489W        W 7257  29.072   6.388  11.890
43490W        W 7258  24.127  25.117   1.752
43491W        W 7259  11.368  31.492  14.854
43492W        W 7260  12.336  38.019   4.251
43493W        W 7261   8.896   1.356   3.321
43494W        W 7262  25.159   3.357   1.806
43495W        W 7263   9.267  24.173  12.469
43496W        W 7264  34.548  30.496   0.309
43497W        W 7265  24.487   6.843  11.906
43498W        W 7266  24.116  19.152  13.030
43499W        W 7267  33.603  37.077  13.350
43500W        W 7268  13.118  15.114  10.422
43501W        W 7269   0.454  22.143  11.504
43502W        W 7270  30.944  44.469   5.280
43503W        W 7271   0.790   1.870   5.134
43504W        W 7272  20.597  34.975  14.500
43505W        W 7273  13.253  30.112   3.209
43506W        W 7274  33.423  12.177   4.604
43507W        W 7275  34.989   7.343   0.368
43508W        W 7276   9.750   1.790  12.462
43509W        W 7277  21.025  11.845  11.513
43510W        W 7278  39.535   0.386  12.547
43511W        W 7279  16.590  32.025  11.386
43512W        W 7280  41.936  32.574   3.656
43513W        W 7281  40.886  29.960  12.539
43514W        W 7282   1.482  39.903   2.793
43515W        W 7283  33.614  22.056   0.474
43516W        W 7284   8.248   5.734  12.507
43517W        W 7285  38.996  38.428   0.423
43518W        W 7286   4.245  26.147   4.648
43519W        W 7287   5.416  26.956  14.503
43520W        W 7288   0.772  44.798  14.964
43521W        W 7289  36.050  14.203  11.003
43522W        W 7290  11.801  19.688   2.206
43523W        W 7291   1.288  16.210   1.901
43524W        W 7292   2.247  34.090  11.089
43525W        W 7293   6.683  28.129   2.729
43526W        W 7294   0.832  15.163  13.063
43527W        W 7295  25.694  16.236  10.909
43528W        W 7296  10.683  28.185   0.911
43529W        W 7297  41.788  25.675  14.984
43530W        W 7298  40.916  25.116  13.849
43531W        W 7299   9.327  18.209   4.278
43532W        W 7300   6.872   7.268   1.366
43533W        W 7301  35.073  18.153   1.852
43534W        W 7302  25.032  11.768  11.030
43535W        W 7303  44.789  44.437  12.892
43536W        W 7304   2.433   7.692  14.949
43537W        W 7305  16.679   3.332  11.887
43538W        W 7306  11.216  41.475   3.174
43539W        W 7307  10.718  35.377   3.375
43540W        W 7308  12.218  14.193   3.195
43541W        W 7309  23.067   8.769   4.253
43542W        W 7310   0.490   8.342   2.731
43543W        W 7311  18.586  23.108   5.235
43544W        W 7312   8.232  34.457  12.509
43545W        W 7313  37.459  44.330  11.577
43546W        W 7314  22.142  17.585  11.123
43547W        W 7315  33.048  33.619  14.938
43548W        W 7316   8.846   4.892  14.797
43549W        W 7317  22.638  13.300  13.466
43550W        W 7318  12.180  33.482  11.994
43551W        W 7319  13.344  33.567  14.913
43552W        W 7320  25.212  39.033  10.613
43553W        W 7321  17.752  17.095   1.848
43554W        W 7322  39.980  41.849   1.841
43555W        W 7323  28.505  29.026  13.328
43556W        W 7324  18.605  32.576  13.409
43557W        W 7325   8.296  20.527  11.046
43558W        W 7326  26.007  43.981  14.891
43559W        W 7327   6.389  17.190  13.880
43560W        W 7328  28.573  26.625  11.992
43561W        W 7329  23.703  40.515   1.833
43562W        W 7330   0.832  12.356  13.891
43563W        W 7331   8.839  15.645  12.540
43564W        W 7332  11.143   9.808   2.242
43565W        W 7333  41.031  13.730  13.329
43566W        W 7334  31.529  40.356  13.054
43567W        W 7335  31.988  21.134   9.979
43568W        W 7336  29.989  38.956  13.477
43569W        W 7337  15.294  25.552  10.079
43570W        W 7338  29.651  42.927   4.662
43571W        W 7339  23.698  34.553  11.107
43572W        W 7340  31.564  18.715   4.794
43573W        W 7341  15.321  35.048  12.970
43574W        W 7342  25.638  10.358  14.007
43575W        W 7343  14.221  39.049   4.667
43576W        W 7344  43.449  25.618  11.996
43577W        W 7345  41.531  29.572   0.351
43578W        W 7346  17.590  19.044  11.083
43579W        W 7347  36.973   5.391   4.664
43580W        W 7348  30.115  25.583   2.417
43581W        W 7349   6.725  10.287   3.313
43582W        W 7350  23.210  31.548   3.336
43583W        W 7351  30.521  10.139  12.488
43584W        W 7352  16.074   4.896   3.302
43585W        W 7353  26.987  30.458  13.317
43586W        W 7354   0.786  16.667   9.978
43587W        W 7355  14.323  34.993   1.324
43588W        W 7356  36.484  39.979  13.369
43589W        W 7357  21.556   5.919   2.342
43590W        W 7358   5.287  38.412  13.536
43591W        W 7359  41.356  37.993   3.184
43592W        W 7360  14.739  28.580  12.958
43593W        W 7361  34.468  39.932   2.759
43594W        W 7362  43.871  26.103  12.441
43595W        W 7363  25.491  29.034  11.862
43596W        W 7364  44.800  32.097  10.095
43597W        W 7365  31.641  31.575   2.776
43598W        W 7366  19.689  30.122   1.432
43599W        W 7367  16.713  37.046  10.631
43600W        W 7368  13.175   6.692  14.935
43601W        W 7369   5.313  25.594  13.453
43602W        W 7370  37.571  39.869  13.814
43603W        W 7371  14.146  31.906   0.302
43604W        W 7372  38.062  18.655  13.853
43605W        W 7373   3.333   0.392   4.779
43606W        W 7374  30.464  37.564   2.736
43607W        W 7375  32.448  20.697   3.697
43608W        W 7376  27.690  19.767  14.333
43609W        W 7377   0.789  31.498   1.257
43610W        W 7378  39.984   8.236   3.784
43611W        W 7379  31.949  28.117  11.566
43612W        W 7380  44.943  26.683  14.934
43613W        W 7381  16.575   9.748  14.837
43614W        W 7382  20.642  27.513  12.548
43615W        W 7383  10.782   9.844  11.975
43616W        W 7384   9.686  26.997  11.504
43617W        W 7385  31.011  18.706   4.833
43618W        W 7386  35.856  36.452   0.332
43619W        W 7387  42.414  29.552  11.529
43620W        W 7388   1.456  43.902  13.527
43621W        W 7389  15.302  11.182   0.925
43622W        W 7390  22.206  12.227  12.417
43623W        W 7391   4.761   1.913   4.830
43624W        W 7392   0.899  19.591   1.297
43625W        W 7393   5.792  24.555  12.970
43626W        W 7394  27.618  36.021  10.413
43627W        W 7395  24.683   4.720  13.016
43628W        W 7396  15.288  26.128   1.723
43629W        W 7397  26.640  13.701  11.865
43630W        W 7398   2.438  28.559   4.149
43631W        W 7399  12.283  19.684   3.790
43632W        W 7400  41.499  35.070   0.388
43633W        W 7401  37.389  35.579   3.185
43634W        W 7402   5.876  42.321  12.851
43635W        W 7403   4.889  35.873   3.313
43636W        W 7404  28.124  42.849   0.953
43637W        W 7405  18.283  13.170  10.484
43638W        W 7406  32.589  19.119   3.353
43639W        W 7407  28.511  12.663   3.633
43640W        W 7408  22.709  22.128  10.937
43641W        W 7409  21.577  39.445  13.455
43642W        W 7410  30.559  25.090   0.912
43643W        W 7411  17.741  14.278  10.900
43644W        W 7412  29.070  36.560  10.937
43645W        W 7413  12.690  11.346  13.998
43646W        W 7414  32.109  17.111  13.371
43647W        W 7415   3.304  23.004  14.888
43648W        W 7416  10.217   7.894   2.408
43649W        W 7417  28.478  44.474   4.308
43650W        W 7418   2.868  33.992  11.458
43651W        W 7419  15.255  37.850   1.290
43652W        W 7420  35.412  28.059   2.715
43653W        W 7421  18.148  22.153  14.861
43654W        W 7422  33.057   5.818  14.508
43655W        W 7423  29.036  29.978   2.727
43656W        W 7424  12.821  32.096  14.913
43657W        W 7425  30.084  17.562   3.803
43658W        W 7426   2.918  39.476  14.315
43659W        W 7427  17.718  35.515  11.978
43660W        W 7428  35.394  29.468  11.468
43661W        W 7429  35.390  16.638  13.839
43662W        W 7430   2.891   0.363  12.009
43663W        W 7431  21.135  15.130  13.444
43664W        W 7432  28.487  29.607  12.426
43665W        W 7433   0.293   3.287   3.732
43666W        W 7434  23.644  29.534   0.314
43667W        W 7435   0.426  13.153   0.962
43668W        W 7436  34.528   0.931  10.434
43669W        W 7437  21.068   9.724   2.219
43670W        W 7438   3.719  43.342  12.449
43671W        W 7439  42.456  17.597   4.661
43672W        W 7440  16.712  22.019  13.962
43673W        W 7441  20.105  34.110   3.339
43674W        W 7442   1.389  12.116  10.897
43675W        W 7443   8.402  32.590   0.767
43676W        W 7444  41.833  24.227   3.666
43677W        W 7445  10.856  39.930  12.913
43678W        W 7446  23.995   6.794  12.421
43679W        W 7447  32.481  40.931   0.383
43680W        W 7448  36.475   5.283  12.859
43681W        W 7449  42.429   6.868   1.865
43682W        W 7450  37.572  19.158  11.970
43683W        W 7451  40.974   5.892   4.748
43684W        W 7452  42.317  37.028  12.481
43685W        W 7453  22.155   4.279   3.839
43686W        W 7454  24.163   9.747   1.884
43687W        W 7455  28.979  15.656  13.009
43688W        W 7456  38.541  21.719   4.808
43689W        W 7457  36.358  12.333   4.330
43690W        W 7458  11.784  18.140  13.320
43691W        W 7459  23.734  35.859   4.272
43692W        W 7460  21.648  34.396   1.334
43693W        W 7461  44.945  11.359  13.327
43694W        W 7462  30.124  35.086  13.855
43695W        W 7463  44.871  12.239   2.691
43696W        W 7464  22.157  17.767  11.581
43697W        W 7465  13.616  32.472  11.397
43698W        W 7466  16.715  42.452   1.347
43699W        W 7467  10.808  41.338  14.339
43700W        W 7468  38.025  32.542   4.720
43701W        W 7469  18.585   8.681   5.306
43702W        W 7470  23.028  20.205  11.538
43703W        W 7471  14.658   2.945  11.394
43704W        W 7472  42.948  40.889  14.764
43705W        W 7473   6.241   9.879  13.527
43706W        W 7474  23.209   0.365  12.508
43707W        W 7475  19.642  22.681   0.825
43708W        W 7476  43.378  12.781   1.357
43709W        W 7477   0.332  14.788   3.700
43710W        W 7478  23.042   8.169  12.064
43711W        W 7479  32.945   6.801   4.182
43712W        W 7480  17.736   6.755   4.787
43713W        W 7481  34.597   5.415  10.987
43714W        W 7482  25.985  24.497   4.644
43715W        W 7483  20.619   8.740  10.435
43716W        W 7484  37.986  12.173  12.552
43717W        W 7485  14.754  42.999  12.487
43718W        W 7486  17.243  39.002  14.930
43719W        W 7487   0.907  41.942   1.731
43720W        W 7488  24.997  40.341   3.635
43721W        W 7489  15.745   9.361  12.868
43722W        W 7490   0.354  39.000  10.943
43723W        W 7491  28.043   6.296  13.386
43724W        W 7492  40.506  29.141   0.358
43725W        W 7493  21.739  34.592   9.989
43726W        W 7494   2.954  41.025   3.849
43727W        W 7495  30.644  24.116   1.426
43728W        W 7496  33.425  12.345  13.807
43729W        W 7497  26.065  33.390   4.295
43730W        W 7498  17.610  29.926   5.698
43731W        W 7499  40.835  11.214   3.167
43732W        W 7500  14.270   1.409  13.022
43733W        W 7501  30.135  21.691   2.747
43734W        W 7502  10.171  26.663   2.846
43735W        W 7503  30.456  32.628  13.345
43736W        W 7504   2.851  27.963   2.217
43737W        W 7505  42.310  11.764   1.754
43738W        W 7506  22.660  33.450   0.280
43739W        W 7507   9.159  42.445   0.453
43740W        W 7508  38.836  18.063  10.577
43741W        W 7509  43.930  33.951  10.476
43742W        W 7510  36.088  42.394  11.418
43743W        W 7511  35.406   4.936  11.972
43744W        W 7512  25.664  40.359  12.437
43745W        W 7513  39.505  36.035   1.831
43746W        W 7514   1.480  31.070  11.603
43747W        W 7515  28.992  42.372   1.319
43748W        W 7516  35.423  24.091   0.421
43749W        W 7517  41.816  23.693  14.863
43750W        W 7518  27.019  22.032  12.404
43751W        W 7519  30.135   7.285   3.231
43752W        W 7520  24.069  39.946   2.888
43753W        W 7521   5.332  27.948   0.388
43754W        W 7522  27.144   4.824  11.856
43755W        W 7523  22.572  22.248   1.450
43756W        W 7524  26.492   7.805  11.990
43757W        W 7525   2.893  24.025   1.736
43758W        W 7526  43.490  25.473  12.939
43759W        W 7527  20.221   3.257  13.521
43760W        W 7528  16.168  34.041   4.795
43761W        W 7529   7.769  24.688  14.837
43762W        W 7530  39.541  16.255  14.774
43763W        W 7531  21.669  22.021  12.933
43764W        W 7532  18.083  38.013  13.972
43765W        W 7533   1.853  27.646   4.724
43766W        W 7534  31.989  27.022  13.401
43767W        W 7535  16.740   4.932   2.783
43768W        W 7536   9.851  25.184   2.328
43769W        W 7537  26.067  14.652  12.001
43770W        W 7538  33.576   0.846   1.341
43771W        W 7539   5.325  27.598   2.364
43772W        W 7540  16.700  10.157   3.246
43773W        W 7541  33.535  42.867  10.027
43774W        W 7542  18.077  16.796  14.794
43775W        W 7543  22.205   1.273  14.864
43776W        W 7544   1.931  44.783  12.499
43777W        W 7545  15.247   3.866  14.795
43778W        W 7546  26.011  22.548   0.291
43779W        W 7547  16.623  11.130  11.999
43780W        W 7548  31.462   1.945   4.330
43781W        W 7549   7.786  31.073   4.811
43782W        W 7550  21.184   0.293  12.441
43783W        W 7551   0.446   3.956   4.761
43784W        W 7552  33.959  18.696   2.394
43785W        W 7553  12.762  41.509   1.286
43786W        W 7554   3.729  12.242   2.380
43787W        W 7555  29.164  42.375   4.613
43788W        W 7556  34.552  27.998  10.569
43789W        W 7557   4.218   5.203   2.761
43790W        W 7558   7.887  13.843   1.860
43791W        W 7559   3.938  19.275  13.526
43792W        W 7560  25.487   6.710   3.761
43793W        W 7561  19.760   9.327   2.824
43794W        W 7562  20.599  29.021  13.035
43795W        W 7563  29.078  25.989   2.206
43796W        W 7564  37.830  29.107  10.001
43797W        W 7565  30.648   5.429   1.401
43798W        W 7566   2.289  31.065  14.819
43799W        W 7567  24.101  36.928  13.449
43800W        W 7568  26.564   8.179   0.330
43801W        W 7569  26.970  38.943  10.930
43802W        W 7570  44.470  28.456  14.851
43803W        W 7571  42.479  29.936  10.960
43804W        W 7572   2.954   2.936   0.766
43805W        W 7573  17.230  10.330  13.889
43806W        W 7574  42.994  27.063  10.574
43807W        W 7575   7.764  44.817  12.425
43808W        W 7576  33.970  39.898   1.254
43809W        W 7577  31.996   8.279   2.833
43810W        W 7578  36.451   9.242  10.602
43811W        W 7579  31.403  44.766   4.193
43812W        W 7580  17.163  38.431   4.310
43813W        W 7581  17.111  36.385   0.785
43814W        W 7582  24.658   1.301   1.328
43815W        W 7583  15.727  44.872  10.461
43816W        W 7584   6.247  25.176   5.231
43817W        W 7585  22.186   7.246   0.433
43818W        W 7586  14.260  30.443   1.732
43819W        W 7587  29.969   5.715   4.625
43820W        W 7588  14.636  32.478  11.512
43821W        W 7589  11.785   8.323  12.055
43822W        W 7590  25.180  18.282  10.895
43823W        W 7591  32.001  26.065   4.661
43824W        W 7592  38.023  22.565  14.399
43825W        W 7593  23.208  20.744  13.956
43826W        W 7594  27.052  23.525  14.484
43827W        W 7595  13.261   9.808  12.886
43828W        W 7596   2.814   6.701  10.574
43829W        W 7597  21.589  36.865   4.203
43830W        W 7598   5.286  18.219   1.718
43831W        W 7599  27.102  35.521  10.893
43832W        W 7600  37.498  43.283   0.466
43833W        W 7601  12.248   9.740   1.923
43834W        W 7602  27.001  19.754   1.822
43835W        W 7603  14.154  27.166  14.306
43836W        W 7604   6.205  27.144   2.702
43837W        W 7605  37.942  43.995  10.502
43838W        W 7606  29.931  24.627   3.338
43839W        W 7607  25.547  18.698  13.017
43840W        W 7608  30.452  27.516  12.904
43841W        W 7609   9.737  33.523  12.551
43842W        W 7610  18.124  27.579  11.465
43843W        W 7611  28.935  22.019   2.812
43844W        W 7612  31.987  25.197   0.775
43845W        W 7613  43.403  10.876  10.514
43846W        W 7614  41.359  43.355  14.771
43847W        W 7615  19.114   5.309   0.372
43848W        W 7616  43.994  10.225   2.804
43849W        W 7617  21.625  10.805  14.851
43850W        W 7618  35.383  32.602  10.911
43851W        W 7619   6.739  15.147  11.030
43852W        W 7620  11.217   3.832  11.418
43853W        W 7621   6.854   8.198   0.739
43854W        W 7622  13.697  42.946  12.869
43855W        W 7623   1.417  41.522   0.343
43856W        W 7624  36.413  14.688   1.386
43857W        W 7625   2.899  40.002  12.451
43858W        W 7626  40.977   3.247  11.562
43859W        W 7627  14.614  35.423  11.568
43860W        W 7628   6.739  15.751   4.656
43861W        W 7629  30.544  15.267   3.383
43862W        W 7630  27.499   8.706  13.054
43863W        W 7631  42.440  17.780   3.355
43864W        W 7632  33.947  21.662   4.163
43865W        W 7633  31.118  25.065   0.837
43866W        W 7634  20.073  17.158  13.042
43867W        W 7635   8.698  10.744   2.261
43868W        W 7636  37.352  23.714   3.634
43869W        W 7637   6.844  12.711  14.294
43870W        W 7638  33.086  40.835   4.783
43871W        W 7639  25.077   8.725   2.671
43872W        W 7640  19.195  11.640  13.460
43873W        W 7641  38.986  33.033  13.358
43874W        W 7642  20.753  24.039  10.597
43875W        W 7643   2.255  33.520   1.263
43876W        W 7644  22.163   5.901  10.496
43877W        W 7645  41.948  41.377  13.974
43878W        W 7646  15.264  27.012   2.281
43879W        W 7647  14.131   2.945  12.825
43880W        W 7648  30.654  44.376  14.298
43881W        W 7649  24.200  24.202   3.767
43882W        W 7650  42.371  35.109   3.165
43883W        W 7651  30.598  10.251  14.441
43884W        W 7652  41.975  18.615  12.392
43885W        W 7653   0.824  33.970   0.942
43886W        W 7654  39.524  13.325  11.494
43887W        W 7655  34.537  25.497   2.679
43888W        W 7656  10.794   5.207  13.517
43889W        W 7657  22.638  31.410   2.368
43890W        W 7658  37.957  42.401  11.017
43891W        W 7659  19.700  43.784   2.802
43892W        W 7660  39.427  14.198  14.489
43893W        W 7661  12.758   2.335  12.386
43894W        W 7662  11.305  11.338   1.268
43895W        W 7663  21.220   4.211   2.695
43896W        W 7664  31.605  26.479  11.578
43897W        W 7665  18.679  33.457  13.411
43898W        W 7666  42.358   3.281  10.557
43899W        W 7667  28.039  33.554   4.235
43900W        W 7668  21.043  17.715  11.039
43901W        W 7669  18.183  34.600   2.403
43902W        W 7670  44.961  23.688  12.367
43903W        W 7671  42.326  16.704   4.265
43904W        W 7672  11.310  18.156   4.653
43905W        W 7673  12.145   4.924   1.323
43906W        W 7674  25.688  44.886   2.683
43907W        W 7675  41.993  24.522   2.224
43908W        W 7676   2.731   1.932   1.831
43909W        W 7677  24.482  29.120  14.023
43910W        W 7678   3.801  13.793   1.814
43911W        W 7679   9.767   1.829   4.274
43912W        W 7680  11.816  31.475  14.973
43913W        W 7681  37.427   0.407  14.470
43914W        W 7682  34.613  34.907   0.902
43915W        W 7683   1.838  26.176   3.647
43916W        W 7684  34.984   9.733   0.809
43917W        W 7685  24.188  23.193   3.204
43918W        W 7686  32.133  42.785  11.006
43919W        W 7687  34.470  22.556  12.541
43920W        W 7688  32.446   2.259   2.230
43921W        W 7689  41.792  40.863   4.318
43922W        W 7690  34.990   7.903   3.163
43923W        W 7691  32.101  16.138  14.914
43924W        W 7692  35.595  17.061   4.821
43925W        W 7693  27.527  21.607   3.844
43926W        W 7694   1.955  39.926  14.346
43927W        W 7695   5.824   6.189   3.857
43928W        W 7696  15.757  16.170  10.431
43929W        W 7697   2.746   0.880   3.826
43930W        W 7698  23.089  38.955   0.319
43931W        W 7699  28.439  23.534   2.351
43932W        W 7700  32.572  25.049   4.758
43933W        W 7701  35.992  22.724  14.017
43934W        W 7702   7.379  25.517  10.582
43935W        W 7703  28.929   9.860  14.325
43936W        W 7704  39.355  40.530   1.763
43937W        W 7705  44.936   2.740  11.480
43938W        W 7706  22.188   8.347   2.268
43939W        W 7707  24.050  25.623  14.894
43940W        W 7708  12.613  44.366  12.387
43941W        W 7709  37.467  29.515   2.871
43942W        W 7710  44.455  23.019  13.341
43943W        W 7711   9.257  19.152  12.561
43944W        W 7712  20.032   3.316   5.176
43945W        W 7713   5.760  32.126  11.081
43946W        W 7714  19.124  26.141  10.407
43947W        W 7715  23.512   8.299   3.811
43948W        W 7716  39.383   4.771   4.737
43949W        W 7717  37.955   8.367   2.316
43950W        W 7718  31.463  38.556   1.302
43951W        W 7719  13.655  24.045  11.865
43952W        W 7720   1.805  22.100   3.696
43953W        W 7721   3.290  11.358   2.266
43954W        W 7722  37.412  19.707  13.477
43955W        W 7723  44.501  10.186  10.424
43956W        W 7724  16.708   3.426   2.311
43957W        W 7725   6.853   4.765   1.830
43958W        W 7726   0.359  43.808   3.160
43959W        W 7727  10.643  30.990  14.017
43960W        W 7728  39.411  13.646  11.442
43961W        W 7729  17.275  18.092  12.961
43962W        W 7730  12.620  20.269   1.719
43963W        W 7731  19.066  41.517   4.757
43964W        W 7732   4.778  31.140   1.239
43965W        W 7733  16.170  19.128   1.229
43966W        W 7734   7.412  13.722  13.903
43967W        W 7735  31.954  23.080  13.416
43968W        W 7736  30.143  40.914  13.818
43969W        W 7737  24.653  30.495   3.158
43970W        W 7738  19.103  23.218  14.020
43971W        W 7739  39.539  42.303   4.679
43972W        W 7740  28.640   3.848  14.871
43973W        W 7741  15.104  18.750   1.340
43974W        W 7742  25.656  40.949   4.745
43975W        W 7743  23.652   3.382   0.370
43976W        W 7744  20.183  13.225  10.486
43977W        W 7745  25.018  34.952   3.244
43978W        W 7746  36.475  15.657  13.422
43979W        W 7747  32.508  40.324   1.398
43980W        W 7748   8.174   4.320   2.829
43981W        W 7749  44.429  36.446   4.166
43982W        W 7750  10.175  12.299   2.377
43983W        W 7751  34.032  28.002  10.103
43984W        W 7752  40.469  15.595   1.728
43985W        W 7753  39.428   0.796   1.764
43986W        W 7754  14.316   5.901  11.105
43987W        W 7755  37.908  34.083   0.273
43988W        W 7756  10.248   9.734   0.459
43989W        W 7757   5.795   0.762   4.640
43990W        W 7758  25.622  35.875   9.560
43991W        W 7759   0.870   1.903  14.828
43992W        W 7760  22.181   6.904   2.413
43993W        W 7761   0.472  40.454  10.564
43994W        W 7762  15.666   2.377  12.843
43995W        W 7763   4.902   3.374   3.179
43996W        W 7764  21.094  29.597  12.064
43997W        W 7765  39.902  15.602   1.789
43998W        W 7766   5.752  39.912   0.872
43999W        W 7767  24.504  22.128  13.424
44000W        W 7768  12.773  23.086   3.631
44001W        W 7769  39.319   5.697  13.867
44002W        W 7770  25.612  28.986  13.531
44003W        W 7771  23.581  16.241   0.457
44004W        W 7772  35.491   9.764   0.841
44005W        W 7773  27.549   5.238  13.061
44006W        W 7774   6.394  44.419   0.813
44007W        W 7775  25.016  23.661  13.803
44008W        W 7776  22.659  13.222  13.908
44009W        W 7777  23.164   9.154  14.795
44010W        W 7778   1.425  11.225  14.371
44011W        W 7779  32.485   3.884  10.936
44012W        W 7780  41.336   7.311   1.805
44013W        W 7781   5.702  17.559  14.364
44014W        W 7782  32.566  10.232  11.907
44015W        W 7783  39.497  33.120   2.795
44016W        W 7784  25.088  28.471   4.196
44017W        W 7785  18.587  39.963  14.951
44018W        W 7786  32.415  22.222   2.811
44019W        W 7787  35.525  22.040  10.606
44020W        W 7788  17.218  18.699  13.891
44021W        W 7789  29.957   0.909  13.430
44022W        W 7790  17.096   7.257  14.513
44023W        W 7791  17.242  14.643   3.206
44024W        W 7792   6.753   0.786   3.651
44025W        W 7793  41.904  42.810   4.736
44026W        W 7794  43.834  44.259   1.841
44027W        W 7795  28.440   8.284  14.852
44028W        W 7796   5.221  43.848   1.393
44029W        W 7797  28.437  37.027  11.874
44030W        W 7798  12.797  22.074  10.446
44031W        W 7799  19.262  25.482  10.982
44032W        W 7800  36.450  37.414   2.362
44033W        W 7801   2.813  24.227   4.701
44034W        W 7802  25.004  35.450  11.465
44035W        W 7803  44.794  36.482  11.108
44036W        W 7804  39.543  24.117  14.951
44037W        W 7805  17.153  44.300  11.399
44038W        W 7806  25.187  21.243  10.424
44039W        W 7807  21.643  17.765   0.752
44040W        W 7808  11.648  21.162   0.399
44041W        W 7809  13.137  13.667  12.938
44042W        W 7810  37.040  14.707   2.689
44043W        W 7811   9.727  39.502   3.363
44044W        W 7812  23.997   4.264  14.329
44045W        W 7813  33.420   6.886  14.945
44046W        W 7814  24.053  42.387  12.975
44047W        W 7815  16.799  10.712  10.951
44048W        W 7816   1.446  31.506   4.263
44049W        W 7817  39.989  10.854   3.148
44050W        W 7818  39.515   9.753  10.586
44051W        W 7819  31.139  21.640   2.392
44052W        W 7820  10.717  27.087  12.443
44053W        W 7821  24.096  27.533   4.611
44054W        W 7822  14.336  38.058   4.797
44055W        W 7823   3.904  17.751  14.800
44056W        W 7824  40.394   8.173   4.626
44057W        W 7825  34.459   2.349  12.837
44058W        W 7826  25.676  13.837  12.562
44059W        W 7827  42.397  14.762  11.928
44060W        W 7828   9.301  33.551  10.037
44061W        W 7829  41.375  20.201  13.832
44062W        W 7830  44.882  15.111  12.835
44063W        W 7831  12.717  15.251   2.305
44064W        W 7832  34.908  24.638  12.410
44065W        W 7833   1.366   2.796  12.460
44066W        W 7834  14.741  17.764  13.521
44067W        W 7835  36.445   2.244   4.611
44068W        W 7836  35.387  17.611   2.382
44069W        W 7837  32.982  20.549  10.917
44070W        W 7838  33.541   2.259   1.275
44071W        W 7839  20.689   5.237  11.541
44072W        W 7840  13.122  40.538   2.787
44073W        W 7841  10.877   2.954  12.370
44074W        W 7842  24.637  40.835  13.432
44075W        W 7843   2.778  29.433  11.012
44076W        W 7844  44.837  32.052   0.358
44077W        W 7845   0.302  18.166   1.238
44078W        W 7846  16.207   9.227  14.300
44079W        W 7847  28.664  43.412   3.293
44080W        W 7848  22.249  38.338   3.714
44081W        W 7849  15.302  23.190  12.474
44082W        W 7850  19.714   6.805  14.333
44083W        W 7851   5.314  14.790   0.941
44084W        W 7852  12.141  34.529  14.791
44085W        W 7853  32.086  14.706  10.496
44086W        W 7854   5.812  42.440   1.443
44087W        W 7855  13.266  16.712  14.801
44088W        W 7856  27.001  41.460   4.720
44089W        W 7857  18.053  38.414  14.828
44090W        W 7858  39.517   5.373  10.621
44091W        W 7859  34.091  28.587  11.023
44092W        W 7860  23.498  17.556  14.993
44093W        W 7861  11.216  11.148  11.471
44094W        W 7862  32.919  16.788   2.277
44095W        W 7863  25.005  29.937  14.962
44096W        W 7864  37.030   7.759  13.357
44097W        W 7865  26.972  22.214   1.425
44098W        W 7866  17.188  22.195   1.375
44099W        W 7867  40.886   6.842  10.433
44100W        W 7868  29.603  30.479   3.819
44101W        W 7869  30.583  24.489   2.708
44102W        W 7870  11.651  15.767  11.564
44103W        W 7871   3.417   9.831  14.022
44104W        W 7872   9.698  11.694   0.845
44105W        W 7873  13.175  17.730   0.458
44106W        W 7874  13.129  33.905  14.825
44107W        W 7875  13.739   7.780   0.739
44108W        W 7876  33.431   6.276   0.813
44109W        W 7877   0.385  38.408   9.461
44110W        W 7878  31.435  38.016   4.671
44111W        W 7879   9.363  34.427   4.118
44112W        W 7880  21.200  16.775   4.205
44113W        W 7881  20.629  11.195   2.295
44114W        W 7882  20.062  30.985   2.866
44115W        W 7883  26.039  17.729   2.343
44116W        W 7884  39.486  16.804   4.695
44117W        W 7885  42.383  17.790  12.843
44118W        W 7886  28.630  22.626  12.947
44119W        W 7887  28.462  21.166   2.378
44120W        W 7888  35.877   5.709  14.768
44121W        W 7889  36.019  31.920  14.766
44122W        W 7890  41.865  32.134  14.382
44123W        W 7891   9.371  27.971   4.240
44124W        W 7892   6.810  27.581   4.673
44125W        W 7893  22.679  33.394   1.738
44126W        W 7894   1.856   2.244  11.122
44127W        W 7895  22.720  25.194   3.275
44128W        W 7896  35.550  13.660   0.773
44129W        W 7897  19.581  15.597  12.995
44130W        W 7898   7.333  24.049   1.229
44131W        W 7899  41.438  43.454   4.347
44132W        W 7900  11.360  10.801  14.924
44133W        W 7901   0.781   2.780  10.558
44134W        W 7902  41.923  25.104  13.326
44135W        W 7903   7.413  29.947   4.818
44136W        W 7904  35.854   6.730   5.113
44137W        W 7905  38.427  21.612   0.950
44138W        W 7906  35.557   2.774  14.296
44139W        W 7907  16.770  21.569  12.941
44140W        W 7908  30.946  19.154   0.459
44141W        W 7909   1.953  18.672   1.828
44142W        W 7910  42.437  44.289  10.892
44143W        W 7911   7.854  16.255  12.966
44144W        W 7912  26.683  41.893   2.887
44145W        W 7913  14.180  18.054   4.263
44146W        W 7914  21.597   4.729  13.399
44147W        W 7915   3.863  37.876  12.439
44148W        W 7916  42.411  43.359   1.781
44149W        W 7917   0.955  32.465   4.740
44150W        W 7918  27.026  30.539   5.082
44151W        W 7919  41.807  17.072  12.364
44152W        W 7920   8.190  20.655  14.995
44153W        W 7921  21.709   1.954  14.449
44154W        W 7922  43.013  14.771  11.539
44155W        W 7923  16.729  36.448   3.652
44156W        W 7924  20.106  22.241   2.418
44157W        W 7925  27.076  20.570   4.128
44158W        W 7926  30.984  13.742   4.233
44159W        W 7927  28.975  24.499   4.169
44160W        W 7928  33.108  10.348  12.522
44161W        W 7929  32.909  18.116  12.491
44162W        W 7930  30.969  21.681   3.784
44163W        W 7931  25.605   8.806   5.285
44164W        W 7932  36.464  18.662   4.136
44165W        W 7933   3.438  22.031   3.856
44166W        W 7934  32.504  36.919  10.637
44167W        W 7935  41.317  35.514   4.267
44168W        W 7936  37.895  20.747   4.699
44169W        W 7937  13.782  21.151  11.400
44170W        W 7938  17.304  38.452  12.082
44171W        W 7939   5.238  26.044   3.865
44172W        W 7940  27.502  32.495   5.610
44173W        W 7941  14.781   6.867   1.297
44174W        W 7942  28.509  42.848   3.786
44175W        W 7943  15.611   9.388   0.407
44176W        W 7944  31.563  31.070   0.773
44177W        W 7945   0.320  38.350  11.588
44178W        W 7946  20.192   4.446   4.169
44179W        W 7947  34.517  20.100  10.623
44180W        W 7948  18.111  36.359  14.760
44181W        W 7949  35.973  40.310   0.284
44182W        W 7950  11.714  16.274   0.849
44183W        W 7951  30.537  39.992   4.643
44184W        W 7952  21.232  18.225   0.731
44185W        W 7953  24.628  28.624   4.624
44186W        W 7954  30.641  13.257  10.557
44187W        W 7955  31.959  12.266   4.835
44188W        W 7956  26.567  20.069   3.225
44189W        W 7957  37.424   6.233  11.004
44190W        W 7958  23.713  16.732   2.751
44191W        W 7959   6.901  33.107   1.730
44192W        W 7960  19.153  19.760  14.953
44193W        W 7961  39.868  13.312  11.429
44194W        W 7962  10.659   4.840   3.660
44195W        W 7963  38.865  26.515  12.039
44196W        W 7964  44.995   7.868   3.846
44197W        W 7965  23.732  36.494  13.899
44198W        W 7966  14.118  36.449  13.462
44199W        W 7967   1.757  27.030  13.928
44200W        W 7968  30.523  30.046  11.856
44201W        W 7969  19.577  42.788  11.891
44202W        W 7970  44.970   4.443   4.271
44203W        W 7971  31.573  23.043  10.478
44204W        W 7972  35.519  18.215  14.276
44205W        W 7973  28.499  35.423   5.194
44206W        W 7974  12.719  20.045   2.744
44207W        W 7975  35.394  33.586  13.434
44208W        W 7976  31.431  37.407   1.767
44209W        W 7977  14.742  20.565  12.427
44210W        W 7978  36.547  38.518   4.777
44211W        W 7979   5.338  21.179  11.565
44212W        W 7980  11.809  19.273  11.553
44213W        W 7981  31.610   9.346  11.902
44214W        W 7982   8.685  28.485  11.877
44215W        W 7983  33.023   1.829  12.063
44216W        W 7984  38.979  37.029   3.321
44217W        W 7985   6.238  13.614   3.857
44218W        W 7986   9.879  21.053  13.059
44219W        W 7987  11.127   9.806   5.303
44220W        W 7988  32.597  28.479   1.841
44221W        W 7989   9.667  38.519   4.165
44222W        W 7990  33.066   4.766  13.844
44223W        W 7991  33.510  22.614  10.908
44224W        W 7992  26.057  32.566  11.574
44225W        W 7993  44.983  33.559  11.864
44226W        W 7994   6.411  36.047  10.458
44227W        W 7995  29.978  26.457   2.763
44228W        W 7996   4.811  31.908   5.278
44229W        W 7997  41.436   4.376  10.922
44230W        W 7998   1.314  31.033  14.285
44231W        W 7999  14.264  29.610  11.912
44232W        W 8000  16.130  33.112   4.141
44233W        W 8001  25.483  37.419   5.277
44234W        W 8002   1.263  20.706  12.069
44235W        W 8003  38.953  21.028  10.551
44236W        W 8004  31.455   7.343  12.021
44237W        W 8005  15.615   5.694  10.072
44238W        W 8006  19.776  19.638   5.306
44239W        W 8007   0.770  40.366   3.257
44240W        W 8008  35.925  20.092   1.712
44241W        W 8009   0.830  33.564   1.392
44242W        W 8010  20.580   9.658   2.393
44243W        W 8011   5.359  28.053   3.634
44244W        W 8012  35.485  28.017  14.515
44245W        W 8013   7.276  38.344  11.428
44246W        W 8014   8.706  21.578   4.288
44247W        W 8015  22.049  37.437  11.558
44248W        W 8016  21.242  12.281  13.445
44249W        W 8017  39.502  18.234   1.849
44250W        W 8018  20.032  43.306   4.728
44251W        W 8019  10.723  39.916  12.447
44252W        W 8020  34.435  28.943  13.452
44253W        W 8021  40.914  30.428  13.423
44254W        W 8022  38.900  16.567   0.289
44255W        W 8023  21.090  31.898   1.767
44256W        W 8024  20.535  31.421   1.420
44257W        W 8025  16.114   5.383   1.904
44258W        W 8026  44.883  21.103   0.419
44259W        W 8027   1.905   2.783   2.783
44260W        W 8028  28.126  23.703   4.218
44261W        W 8029   3.260   3.723  12.933
44262W        W 8030  10.875   0.813  13.448
44263W        W 8031  16.591   4.420  12.878
44264W        W 8032  20.170  26.158   2.739
44265W        W 8033  43.850   0.486   4.287
44266W        W 8034  38.905   6.398  14.777
44267W        W 8035   1.332  42.994  12.348
44268W        W 8036   5.358   8.842   3.745
44269W        W 8037  29.523  14.621  13.414
44270W        W 8038  20.559  34.610  14.275
44271W        W 8039  13.124  14.782   3.781
44272W        W 8040  16.690  37.986   4.647
44273W        W 8041  29.504  10.769   1.740
44274W        W 8042  20.119  30.030  14.806
44275W        W 8043  18.146   0.256   4.760
44276W        W 8044  14.613  23.564  10.051
44277W        W 8045  30.969  39.386  14.512
44278W        W 8046  27.961  37.853   4.238
44279W        W 8047  28.071  23.726   3.693
44280W        W 8048  22.504  28.574   3.369
44281W        W 8049   4.733   6.347  11.410
44282W        W 8050  28.581  31.541   4.701
44283W        W 8051  11.359   1.413   4.123
44284W        W 8052  43.359  33.407  12.345
44285W        W 8053  32.467  26.608   0.802
44286W        W 8054  25.033   2.458   1.310
44287W        W 8055  35.974   8.828   0.346
44288W        W 8056   3.437  33.521   3.167
44289W        W 8057  20.542  44.829   2.232
44290W        W 8058  26.559  24.170  10.578
44291W        W 8059  38.959   1.315  14.385
44292W        W 8060  23.578  21.655  11.954
44293W        W 8061  39.944  27.128  14.500
44294W        W 8062  27.638  24.652   2.264
44295W        W 8063  16.226  23.568   0.278
44296W        W 8064  25.074  16.619  13.994
44297W        W 8065  42.380  37.964  14.301
44298W        W 8066   4.790  34.552   9.966
44299W        W 8067   3.380  34.984   4.133
44300W        W 8068  20.704   6.385  11.991
44301W        W 8069  19.598  23.082  11.386
44302W        W 8070  41.858  25.983  14.477
44303W        W 8071  14.724  11.749   3.757
44304W        W 8072  11.184  39.394   4.772
44305W        W 8073   7.767  23.090  11.121
44306W        W 8074  42.777  14.185  11.609
44307W        W 8075  21.624  23.090   2.286
44308W        W 8076   7.899  29.101  14.915
44309W        W 8077  43.458  38.484  11.874
44310W        W 8078  16.117  16.651  14.828
44311W        W 8079  44.803  11.362   4.622
44312W        W 8080   8.693  12.356   1.804
44313W        W 8081  36.399   7.757   1.225
44314W        W 8082  15.799  27.011   1.370
44315W        W 8083  15.168  29.616   1.292
44316W        W 8084  34.580  10.834   2.295
44317W        W 8085  28.087  25.477   5.243
44318W        W 8086  39.007  27.507   2.396
44319W        W 8087   3.334  22.516   3.765
44320W        W 8088  38.055  26.698  11.898
44321W        W 8089  19.168   7.698   4.292
44322W        W 8090  36.407  43.945  12.896
44323W        W 8091  41.404  17.802  11.379
44324W        W 8092  20.660  25.597  12.855
44325W        W 8093   9.847   3.718  14.895
44326W        W 8094   9.682  33.418  14.506
44327W        W 8095  37.526  13.718   1.437
44328W        W 8096  34.485  11.834   1.888
44329W        W 8097  44.831  31.107   0.478
44330W        W 8098  39.976  37.456  10.413
44331W        W 8099  37.001  44.784  10.907
44332W        W 8100   3.722  39.401  11.090
44333W        W 8101  34.048  13.205  12.420
44334W        W 8102  20.264  25.209  13.510
44335W        W 8103  32.898   4.344  10.898
44336W        W 8104  44.429  14.113   3.358
44337W        W 8105  16.241  27.617  14.962
44338W        W 8106  14.240  33.566   0.821
44339W        W 8107  38.325  41.858   2.734
44340W        W 8108  31.106  28.080  11.394
44341W        W 8109  34.373   6.386  13.966
44342W        W 8110   3.429  20.740  13.454
44343W        W 8111  30.585   7.834  11.584
44344W        W 8112  38.488  39.459  14.470
44345W        W 8113  21.253   0.426   3.190
44346W        W 8114  19.734  22.612  14.004
44347W        W 8115  12.195   2.315   4.823
44348W        W 8116  36.367  42.338  12.401
44349W        W 8117  21.600  42.342  11.480
44350W        W 8118  44.966  32.113  12.065
44351W        W 8119  22.557   9.340  11.029
44352W        W 8120  27.995  44.424  12.474
44353W        W 8121  37.883   5.793  12.865
44354W        W 8122  23.067   6.734   4.188
44355W        W 8123  37.061  19.725  12.551
44356W        W 8124  33.042   7.683   2.416
44357W        W 8125  35.994  35.036  13.480
44358W        W 8126  36.448  17.677   4.759
44359W        W 8127  42.469  34.939   4.283
44360W        W 8128  25.708  34.531  10.449
44361W        W 8129  32.973   5.341   3.754
44362W        W 8130  44.289  12.736   9.933
44363W        W 8131  10.287   4.430  14.971
44364W        W 8132   2.398  40.477   2.236
44365W        W 8133  40.534  15.647  12.435
44366W        W 8134   1.314  14.104  10.969
44367W        W 8135  27.187  13.158  12.996
44368W        W 8136  35.883  32.914  13.815
44369W        W 8137  34.612  10.324   1.714
44370W        W 8138  40.448   2.906   2.833
44371W        W 8139  34.438   8.298   0.408
44372W        W 8140  35.597   3.840   4.746
44373W        W 8141  32.622  29.618  11.988
44374W        W 8142  31.530  21.235  11.855
44375W        W 8143  23.149   0.453   3.647
44376W        W 8144  42.851   2.926  14.486
44377W        W 8145  13.315  42.406   2.802
44378W        W 8146  12.746  36.031   0.277
44379W        W 8147  26.167  43.018   0.861
44380W        W 8148   6.239  16.135  12.456
44381W        W 8149  35.564  21.087  14.002
44382W        W 8150   3.246  35.033   4.694
44383W        W 8151   8.405  38.028  14.302
44384W        W 8152  22.538  24.138  13.377
44385W        W 8153  20.226  29.078   3.816
44386W        W 8154  31.563  13.681   1.229
44387W        W 8155  34.531  43.350   1.258
44388W        W 8156  40.348  40.537  13.863
44389W        W 8157   6.208  42.291  10.481
44390W        W 8158  10.151  23.699  12.499
44391W        W 8159  23.108  27.087   4.688
44392W        W 8160  12.281  41.041  14.881
44393W        W 8161  22.616  18.190  13.838
44394W        W 8162  19.581  16.601  10.546
44395W        W 8163  15.759  28.626  14.888
44396W        W 8164  35.408  41.388  12.472
44397W        W 8165  19.104  38.076  10.417
44398W        W 8166  11.201   5.818   2.822
44399W        W 8167  16.162  21.097   2.328
44400W        W 8168  23.094   7.900   1.424
44401W        W 8169  16.775  28.184  11.024
44402W        W 8170   8.373  42.354  10.524
44403W        W 8171  21.233  32.568   1.758
44404W        W 8172  36.577  37.838   4.129
44405W        W 8173  17.646   9.377  14.848
44406W        W 8174  41.534  40.471  14.921
44407W        W 8175   4.838  26.667   0.360
44408W        W 8176  38.075  21.026   2.340
44409W        W 8177  35.585  15.578   4.166
44410W        W 8178   3.930  37.019  12.508
44411W        W 8179  37.025  29.525  10.899
44412W        W 8180   3.444  32.517   4.235
44413W        W 8181  38.040  41.296  14.300
44414W        W 8182  39.936  15.171   4.756
44415W        W 8183  12.728  23.654   1.260
44416W        W 8184  10.872  18.198  12.839
44417W        W 8185  37.936  30.610   0.447
44418W        W 8186   6.205  26.966   3.295
44419W        W 8187  43.503  32.512   4.688
44420W        W 8188  41.438  26.010  12.395
44421W        W 8189  14.663  38.819  14.447
44422W        W 8190  43.788   1.314  11.899
44423W        W 8191  11.680  34.887   5.320
44424W        W 8192   2.431   3.955   0.794
44425W        W 8193  25.641  25.075  10.024
44426W        W 8194  43.954   7.339  12.931
44427W        W 8195  25.093  16.603   1.845
44428W        W 8196   4.447  33.529  12.841
44429W        W 8197   1.953  38.461  14.514
44430W        W 8198  43.496  22.021  12.415
44431W        W 8199  38.911   4.765   2.720
44432W        W 8200  39.985  38.412  12.536
44433W        W 8201  16.222  43.345  11.393
44434W        W 8202  14.595  30.057   0.382
44435W        W 8203   8.357  34.519   1.743
44436W        W 8204  41.007   6.332  14.030
44437W        W 8205   0.371  25.550  10.509
44438W        W 8206   2.734  18.597  11.431
44439W        W 8207  31.909  21.194   4.762
44440W        W 8208  23.492   8.289   0.727
44441W        W 8209  30.991  44.285  13.061
44442W        W 8210  22.114   6.417  11.427
44443W        W 8211  36.006  39.375  14.765
44444W        W 8212  42.908   3.404   4.303
44445W        W 8213  23.177  17.603   0.944
44446W        W 8214  40.363  44.877  11.986
44447W        W 8215   0.261  41.484   0.940
44448W        W 8216  30.580  26.487  11.527
44449W        W 8217  41.828  24.094   1.440
44450W        W 8218  38.416   7.316  12.966
44451W        W 8219  41.006  39.918   2.323
44452W        W 8220   1.453   2.284   4.262
44453W        W 8221  33.537  11.133   3.317
44454W        W 8222  31.900  14.266  13.951
44455W        W 8223  41.320  22.121   0.294
44456W        W 8224  17.207  41.372  10.086
44457W        W 8225  25.512  42.795   4.340
44458W        W 8226   8.695  34.570   2.354
44459W        W 8227  33.068  33.538   1.239
44460W        W 8228  13.819  34.525  11.904
44461W        W 8229   5.268  35.006   3.268
44462W        W 8230  34.007  10.166  10.508
44463W        W 8231  11.697   8.266   3.263
44464W        W 8232  10.711  16.315   1.848
44465W        W 8233  41.415  37.924  13.990
44466W        W 8234   6.709   6.904   2.810
44467W        W 8235  10.335  22.251  12.358
44468W        W 8236  20.758  44.357   3.306
44469W        W 8237  15.158   3.778   3.633
44470W        W 8238  31.996  38.436  13.524
44471W        W 8239  18.170   8.756  10.917
44472W        W 8240  12.660  28.439  12.353
44473W        W 8241  27.160  21.082   1.818
44474W        W 8242  17.133  26.528  11.548
44475W        W 8243  18.674   1.238   2.404
44476W        W 8244  31.529  18.259  14.908
44477W        W 8245  16.807  36.975  14.991
44478W        W 8246   1.459  36.518   3.711
44479W        W 8247   3.281  38.360   2.178
44480W        W 8248  30.029  28.553  14.763
44481W        W 8249  14.257  11.806  14.761
44482W        W 8250   2.770  15.328  11.951
44483W        W 8251   0.876  14.710   2.285
44484W        W 8252  17.754  39.860   3.278
44485W        W 8253  26.168  38.505  12.535
44486W        W 8254  18.081  25.665  11.980
44487W        W 8255  39.970  34.601   3.679
44488W        W 8256  16.763  18.591   3.204
44489W        W 8257  38.463  26.194   0.927
44490W        W 8258  43.934   1.443  10.568
44491W        W 8259  14.591  40.441   9.983
44492W        W 8260   7.357  33.485   0.875
44493W        W 8261  44.921  32.466  13.950
44494W        W 8262   8.165   1.780   0.903
44495W        W 8263  11.142   7.279   3.319
44496W        W 8264  27.683  11.182   2.744
44497W        W 8265  34.590  16.697  14.502
44498W        W 8266  18.112  25.500   2.854
44499W        W 8267  38.825  27.647  11.007
44500W        W 8268   8.184  36.379   3.248
44501W        W 8269  13.710  22.678   2.303
44502W        W 8270   9.753  37.518  14.975
44503W        W 8271  42.385  32.432  10.890
44504W        W 8272  37.555  15.100   0.438
44505W        W 8273   0.931   7.399   3.632
44506W        W 8274  22.053  24.496  13.492
44507W        W 8275  39.833   9.744   4.697
44508W        W 8276  14.749  44.767   3.194
44509W        W 8277  14.774  20.049  11.073
44510W        W 8278  16.233  40.443   2.180
44511W        W 8279   4.308  31.003  11.064
44512W        W 8280  17.187  13.803   1.369
44513W        W 8281  27.640   5.237  11.008
44514W        W 8282  32.097   6.752  12.824
44515W        W 8283  37.475  28.978  13.538
44516W        W 8284  13.183  18.639  10.961
44517W        W 8285  17.207  41.423  12.446
44518W        W 8286  37.944  22.193   1.929
44519W        W 8287  34.915   1.859   3.326
44520W        W 8288  21.535  34.541   4.199
44521W        W 8289  13.759   0.301  14.480
44522W        W 8290  38.071   8.272  11.871
44523W        W 8291  33.621  33.053  11.583
44524W        W 8292  30.624  20.272   0.861
44525W        W 8293  40.822  44.858  14.862
44526W        W 8294  27.962  37.502  11.401
44527W        W 8295  34.502  21.520  13.914
44528W        W 8296   2.302  43.902   0.777
44529W        W 8297  20.037  43.809  14.018
44530W        W 8298  10.824  13.779  10.476
44531W        W 8299  20.075   1.797  13.533
44532W        W 8300  37.075  15.816   1.716
44533W        W 8301  26.613   1.350  12.564
44534W        W 8302  22.566  14.607  12.547
44535W        W 8303   1.895   5.793   2.847
44536W        W 8304  34.016  20.690   4.314
44537W        W 8305  21.243  14.631  11.056
44538W        W 8306   6.240  39.984  12.013
44539W        W 8307   3.359  36.935  10.042
44540W        W 8308  19.569   3.410   3.163
44541W        W 8309  19.086  12.186  10.554
44542W        W 8310  40.488  41.956  10.480
44543W        W 8311   3.236  12.764   1.440
44544W        W 8312   1.950   7.411  14.290
44545W        W 8313  16.093  41.828  13.005
44546W        W 8314  13.824  43.349   1.748
44547W        W 8315  22.157  35.478  12.933
44548W        W 8316  30.544   0.315   4.749
44549W        W 8317   9.373  11.357   9.542
44550W        W 8318   5.420  32.571   0.845
44551W        W 8319  28.977  22.168   2.284
44552W        W 8320  24.167  41.440   3.843
44553W        W 8321  27.482  16.767   2.826
44554W        W 8322  34.615   8.665  10.623
44555W        W 8323   0.979  18.153  12.023
44556W        W 8324  10.138  42.406  14.876
44557W        W 8325  34.865  37.978  11.081
44558W        W 8326   7.283   9.315   1.815
44559W        W 8327  42.386   0.851   2.684
44560W        W 8328  13.258   7.253  10.089
44561W        W 8329  33.605  12.807  12.981
44562W        W 8330  39.392   9.786  13.532
44563W        W 8331   5.427  11.841  10.493
44564W        W 8332  36.567  27.049  14.279
44565W        W 8333  16.614  33.456   0.473
44566W        W 8334  21.079  44.822   1.861
44567W        W 8335  29.452  33.038  13.348
44568W        W 8336  29.591  16.241  12.451
44569W        W 8337   9.321  10.864  10.519
44570W        W 8338   5.279  13.829   1.348
44571W        W 8339  27.616  36.066  10.939
44572W        W 8340   9.675  10.313   4.179
44573W        W 8341  23.617  28.956  10.603
44574W        W 8342  23.685  28.474  12.449
44575W        W 8343  27.114   7.681  13.341
44576W        W 8344  40.030   8.267   9.543
44577W        W 8345  33.910   5.699   3.159
44578W        W 8346   4.824  13.704  12.542
44579W        W 8347  17.286  18.175   3.182
44580W        W 8348  15.103   8.252   4.180
44581W        W 8349  39.850  21.689   3.381
44582W        W 8350   5.297   8.172  14.868
44583W        W 8351  14.719  13.255  10.554
44584W        W 8352   3.946   7.716  14.946
44585W        W 8353  18.584  14.269   4.702
44586W        W 8354  40.518  39.965   3.243
44587W        W 8355   5.345  25.642  12.506
44588W        W 8356  13.184   4.446  13.328
44589W        W 8357  12.834   1.933   0.366
44590W        W 8358   5.699  18.632   3.630
44591W        W 8359  40.947  24.529  14.028
44592W        W 8360  30.137  26.511  12.951
44593W        W 8361  33.943  25.212   1.807
44594W        W 8362  32.470  30.911  13.398
44595W        W 8363  39.815  36.551   1.405
44596W        W 8364  17.114  20.708  11.431
44597W        W 8365  23.136  19.708   4.301
44598W        W 8366  19.734  15.776   1.895
44599W        W 8367  30.603  13.793  10.503
44600W        W 8368  36.356   8.760   1.871
44601W        W 8369   2.735  35.532   1.312
44602W        W 8370  41.369  29.523  12.062
44603W        W 8371  10.767  18.220  12.440
44604W        W 8372  16.126  27.965   0.741
44605W        W 8373  10.286  29.600  11.895
44606W        W 8374  37.426  13.758  11.123
44607W        W 8375   0.369  21.197   4.806
44608W        W 8376   1.822  26.124  13.013
44609W        W 8377  10.271  10.727   3.320
44610W        W 8378  17.777  18.138  13.437
44611W        W 8379  20.245   2.445  12.085
44612W        W 8380  26.030  43.872  10.436
44613W        W 8381   4.878  15.208  10.921
44614W        W 8382   9.827  14.737  13.484
44615W        W 8383   8.821  13.144   2.788
44616W        W 8384  44.262  14.216  13.791
44617W        W 8385   2.835  26.161  14.785
44618W        W 8386  21.697  25.214  12.524
44619W        W 8387   5.813  27.084  14.404
44620W        W 8388  26.610  25.215   2.304
44621W        W 8389  42.916  10.186   2.702
44622W        W 8390  29.655  35.879   2.359
44623W        W 8391  43.838  16.664   4.184
44624W        W 8392  12.665   8.863   2.342
44625W        W 8393  38.406  41.323  11.067
44626W        W 8394  26.040  26.572   2.761
44627W        W 8395   2.363  26.065  12.072
44628W        W 8396   3.902  30.958  10.426
44629W        W 8397   4.866  19.573   3.763
44630W        W 8398  28.614  44.977  10.923
44631W        W 8399   2.456   3.415  14.979
44632W        W 8400  36.046   5.864   0.326
44633W        W 8401  41.846  19.747   1.381
44634W        W 8402  43.278  30.969   1.823
44635W        W 8403   2.822   3.842  12.971
44636W        W 8404   1.957  42.884  11.964
44637W        W 8405  30.447  15.612  10.597
44638W        W 8406  32.519  43.475  14.507
44639W        W 8407  33.905  16.221  11.569
44640W        W 8408   7.853  15.106   3.812
44641W        W 8409  42.444  29.016  12.874
44642W        W 8410  44.362  42.808  12.017
44643W        W 8411   9.784  42.816   3.263
44644W        W 8412  20.753  17.065   1.934
44645W        W 8413  13.688  24.527  11.975
44646W        W 8414  14.135  37.415  11.472
44647W        W 8415  24.094  22.195  10.969
44648W        W 8416   1.465   0.368   2.243
44649W        W 8417   7.852  16.664   0.293
44650W        W 8418   6.411  44.302  11.549
44651W        W 8419  39.948  10.137  11.059
44652W        W 8420  22.025  20.246   1.694
44653W        W 8421  42.426   6.318  14.887
44654W        W 8422  24.676   2.246  12.496
44655W        W 8423  12.635  28.505  13.498
44656W        W 8424  33.922  33.622   4.150
44657W        W 8425  35.902  42.787   0.408
44658W        W 8426  26.677   6.363  13.343
44659W        W 8427  18.110   5.894  13.859
44660W        W 8428  15.784  17.750   4.315
44661W        W 8429   4.855  37.050  13.960
44662W        W 8430  41.970  19.081  13.937
44663W        W 8431  15.763  43.948  13.900
44664W        W 8432  27.991  26.635  13.388
44665W        W 8433  11.277  32.560   4.265
44666W        W 8434  21.120  20.210  11.530
44667W        W 8435  35.361  27.173  11.867
44668W        W 8436   9.212   5.901  13.954
44669W        W 8437   1.280  11.278   0.819
44670W        W 8438  14.178  31.124   0.305
44671W        W 8439  37.842  15.269  11.608
44672W        W 8440  20.744  16.660   1.274
44673W        W 8441  15.807   7.880  14.394
44674W        W 8442   7.894   5.272  14.441
44675W        W 8443   0.390   2.792  13.020
44676W        W 8444  33.988  28.629   2.850
44677W        W 8445  19.703  11.861   1.442
44678W        W 8446  42.779  36.545   4.680
44679W        W 8447  26.598  18.126   0.340
44680W        W 8448  10.687   7.713   4.666
44681W        W 8449  40.837  31.946   2.304
44682W        W 8450   9.826  32.468  15.000
44683W        W 8451  26.081  22.178   1.899
44684W        W 8452   5.739  30.921   2.260
44685W        W 8453  19.558   4.756  11.083
44686W        W 8454  22.631  14.275  10.411
44687W        W 8455  21.023  23.232  14.489
44688W        W 8456  44.890   8.884   0.796
44689W        W 8457  44.418   2.875   0.959
44690W        W 8458   6.344  34.593  11.990
44691W        W 8459  34.462  18.767   0.411
44692W        W 8460   4.773  21.078  13.332
44693W        W 8461  33.602  10.820  14.409
44694W        W 8462   6.796  23.076  13.379
44695W        W 8463  31.586  10.182   1.875
44696W        W 8464  14.201  18.085  10.404
44697W        W 8465  24.622  35.445   2.687
44698W        W 8466  20.527  20.240   1.777
44699W        W 8467  32.015  25.618  13.028
44700W        W 8468  14.254  21.548   3.629
44701W        W 8469  40.018   9.149   4.811
44702W        W 8470  26.989  25.540   0.837
44703W        W 8471  29.551  13.804   4.781
44704W        W 8472  16.691  40.814   0.841
44705W        W 8473   3.286  18.773   2.668
44706W        W 8474  17.286  10.270   0.777
44707W        W 8475  28.517  10.665  12.394
44708W        W 8476  26.102  24.665  10.483
44709W        W 8477  24.510  43.870   0.351
44710W        W 8478  10.240  23.071   0.834
44711W        W 8479  15.159  36.590   0.252
44712W        W 8480  33.530   0.901  12.080
44713W        W 8481   1.953  44.398  14.330
44714W        W 8482  24.195  24.123  11.992
44715W        W 8483  24.685  26.669  13.024
44716W        W 8484  42.945  35.434   3.778
44717W        W 8485  42.795   8.358   2.266
44718W        W 8486  27.197  27.081   1.309
44719W        W 8487  33.407  33.592   1.433
44720W        W 8488  44.779  19.593   0.472
44721W        W 8489  28.524  38.884  11.433
44722W        W 8490  14.111  11.652  13.460
44723W        W 8491   9.307  16.279  12.893
44724W        W 8492  31.438  42.847  11.019
44725W        W 8493  42.928  12.702  12.891
44726W        W 8494  42.850  11.370   3.225
44727W        W 8495   7.681  38.965   3.752
44728W        W 8496  21.037   2.763  13.321
44729W        W 8497   9.343  33.487  11.393
44730W        W 8498  13.343   5.208  10.625
44731W        W 8499  30.965  39.849   4.168
44732W        W 8500  20.631  42.288   1.858
44733W        W 8501  38.486  40.858  12.526
44734W        W 8502  44.410  10.235   3.219
44735W        W 8503  11.274   6.227  14.354
44736W        W 8504  15.610  34.615  12.407
44737W        W 8505   5.298   9.793  12.057
44738W        W 8506  36.507  19.041  11.598
44739W        W 8507  44.918   3.414  13.547
44740W        W 8508  11.865   3.399  13.425
44741W        W 8509   9.865  11.218  12.366
44742W        W 8510  42.921  16.290  13.370
44743W        W 8511  25.536  24.692  11.581
44744W        W 8512  24.612  33.389  10.126
44745W        W 8513   5.906  32.931  12.919
44746W        W 8514  15.754  39.856  13.057
44747W        W 8515  24.198  29.084  10.904
44748W        W 8516   0.909  32.545   3.779
44749W        W 8517  15.808  39.024  14.760
44750W        W 8518  21.643  23.988  14.865
44751W        W 8519   0.439  24.067  13.059
44752W        W 8520  12.776   4.256   2.872
44753W        W 8521  35.903  31.410   1.289
44754W        W 8522   6.321  29.451   1.304
44755W        W 8523  44.423   3.311   2.694
44756W        W 8524  18.216  19.260  11.058
44757W        W 8525  42.857   2.370  10.410
44758W        W 8526  29.970  40.410  10.512
44759W        W 8527  39.325   9.824   4.622
44760W        W 8528  24.626  35.597   3.206
44761W        W 8529   2.471  18.685   1.698
44762W        W 8530   4.891  32.483  11.056
44763W        W 8531  13.751  20.210   4.248
44764W        W 8532   9.878  31.569   3.221
44765W        W 8533   2.963   0.753  11.987
44766W        W 8534  32.062  11.253   0.264
44767W        W 8535  14.280  31.142   4.830
44768W        W 8536  39.424   9.347  12.827
44769W        W 8537  32.396  11.639   4.155
44770W        W 8538  43.480  20.528  10.903
44771W        W 8539  37.017  41.494   4.306
44772W        W 8540  10.225  37.450   4.117
44773W        W 8541  26.000  22.582  12.525
44774W        W 8542  21.161  29.054   4.762
44775W        W 8543  25.658   5.428   2.862
44776W        W 8544  21.734  38.340   4.747
44777W        W 8545  32.422  35.898   3.198
44778W        W 8546  39.548  41.415   2.781
44779W        W 8547  17.727  32.407   2.235
44780W        W 8548   2.948  27.669   3.348
44781W        W 8549   6.827   7.394   2.380
44782W        W 8550   0.744  43.899  13.030
44783W        W 8551  17.712  26.540   5.209
44784W        W 8552  19.265  35.086   2.728
44785W        W 8553   2.815  38.053  10.439
44786W        W 8554   2.389   6.904  11.482
44787W        W 8555   6.276  41.511   1.835
44788W        W 8556  13.179  23.715   2.225
44789W        W 8557  27.686   0.959   4.210
44790W        W 8558   9.217  19.247   0.374
44791W        W 8559  17.593  20.534  11.549
44792W        W 8560  35.500  34.905  11.484
44793W        W 8561   1.473  27.571  11.983
44794W        W 8562  39.964  20.708  14.368
44795W        W 8563  21.030  39.953  10.633
44796W        W 8564  15.126   5.270  13.371
44797W        W 8565  17.136   1.395  11.519
44798W        W 8566   7.864   2.904   1.429
44799W        W 8567   5.837  12.205  11.582
44800W        W 8568   6.700  44.456  13.929
44801W        W 8569  39.506  15.202   2.878
44802W        W 8570   5.251  30.155  14.314
44803W        W 8571  18.576  11.367  13.361
44804W        W 8572  15.745  36.404  13.036
44805W        W 8573  18.653  34.492  13.831
44806W        W 8574  36.424  34.995  12.352
44807W        W 8575   9.719  35.516   4.294
44808W        W 8576  24.694  15.147   1.436
44809W        W 8577   0.361  41.357  14.781
44810W        W 8578  23.530   2.314  12.476
44811W        W 8579   8.380  44.342  14.009
44812W        W 8580  11.842   8.316  14.932
44813W        W 8581  29.454   9.781   4.133
44814W        W 8582  37.888   1.401   2.711
44815W        W 8583  40.021  43.857  14.477
44816W        W 8584  30.606   1.325  11.589
44817W        W 8585  11.858  30.064  12.495
44818W        W 8586  25.189  39.460   2.258
44819W        W 8587   1.264  13.336   4.731
44820W        W 8588  43.427  26.063   0.383
44821W        W 8589  29.466  35.876   5.185
44822W        W 8590   5.924  15.197   2.300
44823W        W 8591  17.295  30.623  10.637
44824W        W 8592  21.023  24.694  14.390
44825W        W 8593   8.317   7.884   2.332
44826W        W 8594  18.204  35.934  12.458
44827W        W 8595  39.321  28.647  10.623
44828W        W 8596  20.080  37.525   9.925
44829W        W 8597  42.976  32.990   3.704
44830W        W 8598  13.832  28.090   4.783
44831W        W 8599  38.380  44.426  11.933
44832W        W 8600   7.785  41.530  12.978
44833W        W 8601   5.861  18.208  14.973
44834W        W 8602  27.161  10.216  13.338
44835W        W 8603  28.949  35.935  11.975
44836W        W 8604  21.050   5.749  11.420
44837W        W 8605  10.144  30.131  14.360
44838W        W 8606  24.479  37.435  12.463
44839W        W 8607  44.863  33.907  10.511
44840W        W 8608  18.762  40.894   2.255
44841W        W 8609  11.720   6.824   3.663
44842W        W 8610  28.115  43.966  14.416
44843W        W 8611  19.753   8.679   4.661
44844W        W 8612  28.539   5.301   2.809
44845W        W 8613  22.730   5.373   0.296
44846W        W 8614  15.165   2.738  12.053
44847W        W 8615  32.903  19.577  14.979
44848W        W 8616  19.117  32.074  12.941
44849W        W 8617   2.378  29.423   4.333
44850W        W 8618  31.628  18.199   0.859
44851W        W 8619  32.918  43.435  11.423
44852W        W 8620  43.896   8.749   3.147
44853W        W 8621  28.517  39.428  14.995
44854W        W 8622  28.037  18.132  10.475
44855W        W 8623  42.916  34.377  11.440
44856W        W 8624  23.041  32.983   2.688
44857W        W 8625  40.888  44.486   2.744
44858W        W 8626  36.523   1.808  12.995
44859W        W 8627  20.273  37.539   0.786
44860W        W 8628  36.050  25.187  11.103
44861W        W 8629  16.213  40.362   2.816
44862W        W 8630  12.196  24.723   2.341
44863W        W 8631  27.552  19.627  11.906
44864W        W 8632  30.436  18.760  14.769
44865W        W 8633  19.618  39.812  12.422
44866W        W 8634  19.259  16.798   1.275
44867W        W 8635  41.532  34.943   4.792
44868W        W 8636  13.198  22.726   3.366
44869W        W 8637   0.412  25.141   2.302
44870W        W 8638   4.447  30.021  13.980
44871W        W 8639  29.148   6.879   1.252
44872W        W 8640  36.945  21.080   2.194
44873W        W 8641   4.773  38.891   2.216
44874W        W 8642  31.963  15.595   0.398
44875W        W 8643  30.956   8.196   4.758
44876W        W 8644  35.028  18.671   1.302
44877W        W 8645  41.294  24.987   4.761
44878W        W 8646  36.533  29.000   4.260
44879W        W 8647   2.302   2.728   0.825
44880W        W 8648   5.268  28.003   0.900
44881W        W 8649  35.921   8.277   0.788
44882W        W 8650  24.673  13.687  13.327
44883W        W 8651  27.593  29.663   3.813
44884W        W 8652  11.640  35.993  12.018
44885W        W 8653  26.961  21.172  14.000
44886W        W 8654   9.796  21.739   1.728
44887W        W 8655  35.954  36.477   1.217
44888W        W 8656  16.748  36.997  13.342
44889W        W 8657  17.103  28.578   0.280
44890W        W 8658  22.227  13.686   2.195
44891W        W 8659  38.005  30.534   4.258
44892W        W 8660  13.272  34.496   3.160
44893W        W 8661   3.892  15.628  13.839
44894W        W 8662  32.064  16.782   0.267
44895W        W 8663  32.476  41.443   5.087
44896W        W 8664  39.409   3.418  14.948
44897W        W 8665  24.724  32.563  13.950
44898W        W 8666  22.067  29.652   0.381
44899W        W 8667  25.211   1.305   4.117
44900W        W 8668  27.982  36.964   3.804
44901W        W 8669   5.738  13.642  11.960
44902W        W 8670  24.575   9.335  12.046
44903W        W 8671  15.215  40.858   3.849
44904W        W 8672  37.052  37.547  13.499
44905W        W 8673  37.086   9.230   4.717
44906W        W 8674   1.961  40.384   0.314
44907W        W 8675  41.314  15.715  12.064
44908W        W 8676  18.248   7.678   0.955
44909W        W 8677  14.637  23.495  10.417
44910W        W 8678  36.509  42.984  14.937
44911W        W 8679  33.612   1.363  13.039
44912W        W 8680  13.668   6.232  11.562
44913W        W 8681  32.581  20.733  13.413
44914W        W 8682  24.529  29.533   0.727
44915W        W 8683  31.440   9.661   0.823
44916W        W 8684  13.288  21.070   1.288
44917W        W 8685  11.271  27.178   2.838
44918W        W 8686  16.607  28.076   3.788
44919W        W 8687  34.369  16.270   1.425
44920W        W 8688  28.949  43.274  11.984
44921W        W 8689  26.513  34.588  13.415
44922W        W 8690  37.859  21.023  12.987
44923W        W 8691  13.123   9.861  14.882
44924W        W 8692  24.632  40.997   4.614
44925W        W 8693  21.046  15.103   2.365
44926W        W 8694  37.519  10.855   2.198
44927W        W 8695   9.192  34.883  10.891
44928W        W 8696  27.167  11.259   3.631
44929W        W 8697  32.041  18.066  14.437
44930W        W 8698   1.918  23.197   1.226
44931W        W 8699  37.987  41.003  10.624
44932W        W 8700   1.916  12.794   0.846
44933W        W 8701  37.834   0.773   2.362
44934W        W 8702  22.619   2.262   0.326
44935W        W 8703  27.189   3.923  12.947
44936W        W 8704  33.381   3.910  10.431
44937W        W 8705  14.267   5.225  13.334
44938W        W 8706  41.808   2.939  14.788
44939W        W 8707   3.235  38.870   4.740
44940W        W 8708  18.568   8.856   4.353
44941W        W 8709  38.071  27.679  12.094
44942W        W 8710  31.543  16.172  14.976
44943W        W 8711  21.529  31.929   0.314
44944W        W 8712   4.288  35.873  14.986
44945W        W 8713   4.400   4.800   1.861
44946W        W 8714  10.827   0.363  14.805
44947W        W 8715  34.441  38.514  10.419
44948W        W 8716  31.134  21.145  14.313
44949W        W 8717  11.360  20.119   1.790
44950W        W 8718   5.400  16.624   2.296
44951W        W 8719  15.610   0.315  11.957
44952W        W 8720  22.207  35.413   1.392
44953W        W 8721  13.607  14.120   3.264
44954W        W 8722   3.316  30.428   3.725
44955W        W 8723  41.469  34.955   3.216
44956W        W 8724   0.329  31.439   1.383
44957W        W 8725  39.388  35.592   1.226
44958W        W 8726  12.164  30.014  12.011
44959W        W 8727  32.511   6.191  14.000
44960W        W 8728  31.949  27.530   3.854
44961W        W 8729   6.322   4.927  13.510
44962W        W 8730   2.855  36.507   0.857
44963W        W 8731  42.933  23.624   2.372
44964W        W 8732  22.605  33.959  12.478
44965W        W 8733  42.906  22.120   4.828
44966W        W 8734  40.402   7.231   3.229
44967W        W 8735  29.991  25.626  14.353
44968W        W 8736   0.270  10.791  12.431
44969W        W 8737   8.854   1.915   2.731
44970W        W 8738  21.749  11.707  10.946
44971W        W 8739  37.951  41.532   1.792
44972W        W 8740   6.919  37.403  10.414
44973W        W 8741   4.818   2.930  10.499
44974W        W 8742  10.273   2.382   3.267
44975W        W 8743   8.282   7.416   3.257
44976W        W 8744  40.984   0.276   0.470
44977W        W 8745  27.653  24.988   2.891
44978W        W 8746  14.107  16.779  13.921
44979W        W 8747  25.592   6.829  14.279
44980W        W 8748  24.644  43.981   2.188
44981W        W 8749  26.551  42.968  12.033
44982W        W 8750  31.007  17.251  12.034
44983W        W 8751  11.257  43.865   2.394
44984W        W 8752  41.843   6.721  13.866
44985W        W 8753   6.388   0.477   3.836
44986W        W 8754   8.219   5.312  12.497
44987W        W 8755  12.669  10.370  12.400
44988W        W 8756  26.205   6.775  12.538
44989W        W 8757  26.184   0.404   2.819
44990W        W 8758  25.522  43.947   4.661
44991W        W 8759  26.593   6.257  14.469
44992W        W 8760  14.190  14.127   5.243
44993W        W 8761  34.951   7.685  12.352
44994W        W 8762   6.739  41.964   0.778
44995W        W 8763  17.134  18.658   0.804
44996W        W 8764  35.852  19.261  14.887
44997W        W 8765  15.744   5.729   4.767
44998W        W 8766   2.276  32.067   3.218
44999W        W 8767  19.114  20.099   4.240
45000W        W 8768  40.500   7.290   0.771
45001W        W 8769   4.874  19.588  11.416
45002W        W 8770  24.194  10.705  14.002
45003W        W 8771  17.089  25.534   1.754
45004W        W 8772  39.539  27.571  12.368
45005W        W 8773  23.524  32.092   2.684
45006W        W 8774  39.936  17.100  12.988
45007W        W 8775  20.190  42.354  13.546
45008W        W 8776  33.999  34.569   2.419
45009W        W 8777   4.728   3.914   2.180
45010W        W 8778  16.225  42.893  11.405
45011W        W 8779  27.087   8.822  11.057
45012W        W 8780  43.999  10.331   4.778
45013W        W 8781  39.054  27.096   4.244
45014W        W 8782  29.556  31.450   1.373
45015W        W 8783  21.244  36.591  14.833
45016W        W 8784  36.380  41.954  11.416
45017W        W 8785   2.760  30.583   3.151
45018W        W 8786  32.583  14.113  12.994
45019W        W 8787  30.570  26.124  10.936
45020W        W 8788  38.505  11.760   3.869
45021W        W 8789   9.275  42.417   1.330
45022W        W 8790  25.634  38.936   0.400
45023W        W 8791   1.754  36.865  11.886
45024W        W 8792  40.524  11.626   3.720
45025W        W 8793  12.824   7.178  12.512
45026W        W 8794   5.195  19.730  14.795
45027W        W 8795  39.905   2.413  14.343
45028W        W 8796   9.181  40.858  12.394
45029W        W 8797   4.736  16.256  13.996
45030W        W 8798   7.882  23.216  12.831
45031W        W 8799  23.987  35.096  14.810
45032W        W 8800  23.632  27.663   1.796
45033W        W 8801  33.966  27.521   1.440
45034W        W 8802  20.166   0.308   0.855
45035W        W 8803  19.748  27.453   1.872
45036W        W 8804  32.905  34.070  14.485
45037W        W 8805  43.916  24.687   2.873
45038W        W 8806  22.249  15.668   1.305
45039W        W 8807  14.201  37.489   2.887
45040W        W 8808   7.871   7.276  10.050
45041W        W 8809  13.333  26.055  14.361
45042W        W 8810  27.053  15.819  12.919
45043W        W 8811  39.451  27.017  12.398
45044W        W 8812  43.331  11.811  14.925
45045W        W 8813  31.078  23.109  12.508
45046W        W 8814  44.451  32.927  14.023
45047W        W 8815  30.033  38.058   1.861
45048W        W 8816  39.912  37.472  14.796
45049W        W 8817  30.537  10.167   3.658
45050W        W 8818  23.624  24.089  12.047
45051W        W 8819  34.982  15.088   0.876
45052W        W 8820  44.868  42.412  13.438
45053W        W 8821  44.857   6.898  13.004
45054W        W 8822  37.372  28.476  12.420
45055W        W 8823  12.739  43.886   1.801
45056W        W 8824  13.156  43.512   1.704
45057W        W 8825  31.528   9.828  10.443
45058W        W 8826  18.676  24.700   1.790
45059W        W 8827  13.351  23.578   0.376
45060W        W 8828  42.527  20.713  13.799
45061W        W 8829  24.074  13.171   1.421
45062W        W 8830  14.266  31.508   0.298
45063W        W 8831  28.610  39.006  12.911
45064W        W 8832  34.513   2.422   4.833
45065W        W 8833  23.572  10.149  13.393
45066W        W 8834  20.764  25.036   2.316
45067W        W 8835  35.543  17.649  10.521
45068W        W 8836  17.188  40.416   0.466
45069W        W 8837  21.515  21.662  10.892
45070W        W 8838  36.460   2.760   3.792
45071W        W 8839   9.346   5.236   1.346
45072W        W 8840  43.008  13.637  12.843
45073W        W 8841  25.177  24.057  11.557
45074W        W 8842  18.642   6.202   0.790
45075W        W 8843  35.002   9.165   0.831
45076W        W 8844   6.721  18.263   0.393
45077W        W 8845  38.421   3.749   2.293
45078W        W 8846   3.773   5.293   0.319
45079W        W 8847  10.680   4.362   2.716
45080W        W 8848  35.447  32.076   3.200
45081W        W 8849  32.479  15.648   1.816
45082W        W 8850  10.175   4.921   3.171
45083W        W 8851  15.666  19.710   4.796
45084W        W 8852   3.924  25.503  13.859
45085W        W 8853  10.653  24.973   1.810
45086W        W 8854   6.891  22.007  10.410
45087W        W 8855  14.608  14.208  12.973
45088W        W 8856  11.813  11.848  13.829
45089W        W 8857   3.444  29.939   2.347
45090W        W 8858  12.261  37.412  11.508
45091W        W 8859  15.149  40.834   4.238
45092W        W 8860  19.082  11.146  13.430
45093W        W 8861  19.263  17.199  10.900
45094W        W 8862   2.239  17.122  13.959
45095W        W 8863   0.786  17.103   3.312
45096W        W 8864  31.632  42.980   2.709
45097W        W 8865   5.341  21.110   3.681
45098W        W 8866  25.631  41.459   4.293
45099W        W 8867  23.689  18.664  11.544
45100W        W 8868  29.045  39.890  11.408
45101W        W 8869  29.154  27.061  11.024
45102W        W 8870   7.274  32.620  11.541
45103W        W 8871  32.939   2.935  11.562
45104W        W 8872   4.317  21.688   4.749
45105W        W 8873  37.472  25.178   0.464
45106W        W 8874  21.167  17.567  13.981
45107W        W 8875  31.460  10.337  10.913
45108W        W 8876  42.913  20.715   2.750
45109W        W 8877   2.468  20.720  14.350
45110W        W 8878  27.165  38.933  11.437
45111W        W 8879  40.424   7.200   4.780
45112W        W 8880  11.842  10.742  11.930
45113W        W 8881   1.971  25.201  10.973
45114W        W 8882   9.313   5.707  13.387
45115W        W 8883  12.698  17.289   3.328
45116W        W 8884   6.889  24.508  10.899
45117W        W 8885  38.866  10.864   3.330
45118W        W 8886   1.819   9.678   2.227
45119W        W 8887  10.772  21.611  11.045
45120W        W 8888  15.089   2.303  13.439
45121W        W 8889   9.784  20.041  12.386
45122W        W 8890  34.481  43.385  14.499
45123W        W 8891  16.277   9.343   3.660
45124W        W 8892   4.333  28.150   1.880
45125W        W 8893  22.107  31.564   4.187
45126W        W 8894  34.556  17.777   5.267
45127W        W 8895  38.453   5.898  11.583
45128W        W 8896  31.914  43.426  14.869
45129W        W 8897  11.668   0.292   1.795
45130W        W 8898  22.727  34.064   4.615
45131W        W 8899  18.273   1.457  10.626
45132W        W 8900  16.119  24.169  13.991
45133W        W 8901  24.589  42.911  11.004
45134W        W 8902  27.587  18.549  14.004
45135W        W 8903  36.890  15.155   4.224
45136W        W 8904  28.538  15.593  13.396
45137W        W 8905  15.686  28.037   2.744
45138W        W 8906  12.719  26.467  12.495
45139W        W 8907  42.826  20.658  12.550
45140W        W 8908  34.903  14.335   1.861
45141W        W 8909  37.571   9.717  14.466
45142W        W 8910  44.961  43.475  12.834
45143W        W 8911   6.218  44.319   2.322
45144W        W 8912   8.170  43.796   2.366
45145W        W 8913  35.506  29.095   4.342
45146W        W 8914  16.650   0.369  14.286
45147W        W 8915  43.329  29.457   3.184
45148W        W 8916   9.882  21.558  13.852
45149W        W 8917  39.454  21.201   0.797
45150W        W 8918   1.422   8.231  11.019
45151W        W 8919  20.595  17.183  11.917
45152W        W 8920  21.168  25.573  13.917
45153W        W 8921  20.175  19.727   4.345
45154W        W 8922  23.615  39.370   3.294
45155W        W 8923   6.254  42.524   2.834
45156W        W 8924  19.202  27.036   0.901
45157W        W 8925  13.793  22.671  10.985
45158W        W 8926  32.120  26.577  12.387
45159W        W 8927  33.089   1.852   1.875
45160W        W 8928  36.422   7.184  13.920
45161W        W 8929  18.603  20.137  14.986
45162W        W 8930  30.645  42.483   2.209
45163W        W 8931  38.490  35.096  11.867
45164W        W 8932   6.205  37.386   4.182
45165W        W 8933  19.283  24.179  14.511
45166W        W 8934   4.355   7.267  14.457
45167W        W 8935  15.233  13.197  12.093
45168W        W 8936  28.948  11.801  12.947
45169W        W 8937  44.860  37.557   4.260
45170W        W 8938  44.880  14.732   4.178
45171W        W 8939  37.416  28.503   3.654
45172W        W 8940  18.277  23.240  12.060
45173W        W 8941  34.066  43.353  10.632
45174W        W 8942  27.104   8.691  11.391
45175W        W 8943  38.496   3.806  10.412
45176W        W 8944   4.280  33.904   3.193
45177W        W 8945  35.942  32.414   2.219
45178W        W 8946   3.317  22.080   3.364
45179W        W 8947  12.780  14.652   9.933
45180W        W 8948  18.634  33.070   2.718
45181W        W 8949  31.625  39.037   4.626
45182W        W 8950   7.835  22.111   1.803
45183W        W 8951  26.178  18.690   4.772
45184W        W 8952  20.730  14.594   3.758
45185W        W 8953   6.305  29.591  11.872
45186W        W 8954  17.306  25.130   2.241
45187W        W 8955   5.868  30.016   4.771
45188W        W 8956  28.667   7.196   3.145
45189W        W 8957  41.010  39.529   3.656
45190W        W 8958  38.934  18.575  13.905
45191W        W 8959  40.948  30.033   2.872
45192W        W 8960  40.929  43.400   3.161
45193W        W 8961  41.027  36.496   1.231
45194W        W 8962  16.695  40.884   2.770
45195W        W 8963  26.177   7.672  14.892
45196W        W 8964  20.055  36.586  13.823
45197W        W 8965  21.740   6.316  12.928
45198W        W 8966  23.032   1.399  14.346
45199W        W 8967   6.687   8.190  14.812
45200W        W 8968  17.775  22.052   2.791
45201W        W 8969  20.684   8.278  11.021
45202W        W 8970  43.308  37.951   4.312
45203W        W 8971  14.734  15.268   0.284
45204W        W 8972  14.204  24.637   3.344
45205W        W 8973  13.109   0.383  12.909
45206W        W 8974  21.566  10.228   9.951
45207W        W 8975  25.182  37.368   0.261
45208W        W 8976   4.224  18.066  11.088
45209W        W 8977  37.538  42.817  14.351
45210W        W 8978  34.867  42.297  14.835
45211W        W 8979  39.916  15.141  13.825
45212W        W 8980  43.459  24.139   4.820
45213W        W 8981  26.004   7.339   3.854
45214W        W 8982   1.794  39.360   4.639
45215W        W 8983   4.395  37.542  13.917
45216W        W 8984  34.053  29.154   1.357
45217W        W 8985  28.674  24.485   1.818
45218W        W 8986  30.450  33.054  10.995
45219W        W 8987  14.811  42.344   0.740
45220W        W 8988  43.483  42.966  13.308
45221W        W 8989  33.080  12.166   3.152
45222W        W 8990  19.170   8.326  14.790
45223W        W 8991  41.879   0.797  12.461
45224W        W 8992   8.813  25.992   0.811
45225W        W 8993   7.892  29.659  13.852
45226W        W 8994  34.916   7.316  12.455
45227W        W 8995  12.722  27.034  12.397
45228W        W 8996   4.934  17.618  14.955
45229W        W 8997  26.028   7.828   1.861
45230W        W 8998  29.046   8.728  13.402
45231W        W 8999  21.655  42.963   2.394
45232W        W 9000  32.111  16.804  11.923
45233W        W 9001  27.983  31.058  11.009
45234W        W 9002  14.114  44.307  12.907
45235W        W 9003  39.878  36.953  14.349
45236W        W 9004  12.361  12.805   4.185
45237W        W 9005  26.078  42.875  14.511
45238W        W 9006  22.050   7.753  13.474
45239W        W 9007   3.244  25.475   3.210
45240W        W 9008  12.846  16.581  14.878
45241W        W 9009  25.153  22.222   4.162
45242W        W 9010  21.170  27.457  14.961
45243W        W 9011  15.243  33.054   4.269
45244W        W 9012  40.799   8.820   0.756
45245W        W 9013  33.906  36.453   0.333
45246W        W 9014   8.278   3.341  13.939
45247W        W 9015  19.644  25.612  14.450
45248W        W 9016   7.289  27.460   4.147
45249W        W 9017  37.353   7.754   2.830
45250W        W 9018  23.218  44.482   3.315
45251W        W 9019  14.661   1.975  13.933
45252W        W 9020  20.158  41.024  14.498
45253W        W 9021  19.563   2.383  13.938
45254W        W 9022  37.878  26.194  14.807
45255W        W 9023  44.485  23.200   1.821
45256W        W 9024   9.313   7.267   0.286
45257W        W 9025   2.929   7.302   0.336
45258W        W 9026  33.547  16.095  12.943
45259W        W 9027  13.779  44.917   2.211
45260W        W 9028  37.908  32.577   2.840
45261W        W 9029  41.849  21.019  11.409
45262W        W 9030  19.735  21.173  12.578
45263W        W 9031  38.484  39.931  14.784
45264W        W 9032  26.669  26.202  10.504
45265W        W 9033  24.131  39.475  12.481
45266W        W 9034  15.166  27.161  11.057
45267W        W 9035  43.917  12.829  13.866
45268W        W 9036  34.596  20.624  12.010
45269W        W 9037  32.425  39.815  10.998
45270W        W 9038  24.610  37.006   0.362
45271W        W 9039  43.283  17.788  13.027
45272W        W 9040  23.227  33.496  12.461
45273W        W 9041  42.896  35.478  12.041
45274W        W 9042   2.918   6.805   0.303
45275W        W 9043   8.672  27.978   5.107
45276W        W 9044  28.025  38.848   2.183
45277W        W 9045   3.750   4.763   9.992
45278W        W 9046  23.138  37.020   3.267
45279W        W 9047  27.620   2.869  12.874
45280W        W 9048  29.518  34.519   4.338
45281W        W 9049  12.735  26.169   2.855
45282W        W 9050  34.115  25.078  11.540
45283W        W 9051  38.339   6.714   0.352
45284W        W 9052  39.046   7.322  12.001
45285W        W 9053  37.884  44.813  12.400
45286W        W 9054   5.767  30.581   3.756
45287W        W 9055  25.591  29.041   1.901
45288W        W 9056  41.435  34.910  11.417
45289W        W 9057  31.004  41.392   0.821
45290W        W 9058   8.205  22.065   0.811
45291W        W 9059  19.184  25.096  12.075
45292W        W 9060  44.923  42.451   1.832
45293W        W 9061   8.708  38.502   1.833
45294W        W 9062   1.300  11.293  10.638
45295W        W 9063  19.658   0.829  11.891
45296W        W 9064   6.322  31.602   1.339
45297W        W 9065   0.260   5.199   4.308
45298W        W 9066   5.257  41.794  12.386
45299W        W 9067  13.690  13.183   1.882
45300W        W 9068  34.973  21.033   2.287
45301W        W 9069  12.183  32.472   1.383
45302W        W 9070  31.119   2.782   0.386
45303W        W 9071  17.622  26.162   4.324
45304W        W 9072  36.910  19.080   3.175
45305W        W 9073   9.206  32.081   4.657
45306W        W 9074   2.781  15.181  14.877
45307W        W 9075   4.307   0.894   1.840
45308W        W 9076  19.169  24.068  10.430
45309W        W 9077  32.527  20.578   4.831
45310W        W 9078  26.466  30.141  12.958
45311W        W 9079   0.325   2.861  11.021
45312W        W 9080  27.005  42.446  11.515
45313W        W 9081   1.805  33.012  12.910
45314W        W 9082  19.550  32.044  13.426
45315W        W 9083   0.819  17.109   0.782
45316W        W 9084  22.594  12.799  12.928
45317W        W 9085  34.502  29.171   1.755
45318W        W 9086  41.358   4.340  14.345
45319W        W 9087  38.984  23.046   3.739
45320W        W 9088  43.409  43.454  13.998
45321W        W 9089  29.550  38.048   0.346
45322W        W 9090  16.600   4.242  13.479
45323W        W 9091  12.671  30.985  12.495
45324W        W 9092  26.056  25.656   4.186
45325W        W 9093  40.834   6.772  12.366
45326W        W 9094  44.426   4.828  11.495
45327W        W 9095  12.361  10.679   5.745
45328W        W 9096   6.316   6.732  10.937
45329W        W 9097  25.119  23.525  14.951
45330W        W 9098   7.393  23.537   1.252
45331W        W 9099  44.991  18.599   4.608
45332W        W 9100   0.988  37.060   2.728
45333W        W 9101   2.960  26.570   3.372
45334W        W 9102  15.735  24.700  10.921
45335W        W 9103  41.925  32.472  12.509
45336W        W 9104  31.645  42.322   0.245
45337W        W 9105  36.457  21.566  11.482
45338W        W 9106   0.890  36.972  14.445
45339W        W 9107  28.474   9.851  14.769
45340W        W 9108  44.286  19.750   5.133
45341W        W 9109  10.695  33.059   2.817
45342W        W 9110  22.205  14.742  12.072
45343W        W 9111  20.579  28.540   4.722
45344W        W 9112  35.565  22.723   3.224
45345W        W 9113   8.813  40.826  11.582
45346W        W 9114  16.711   8.202  11.482
45347W        W 9115  18.174   3.371   3.768
45348W        W 9116  18.152  41.928   4.789
45349W        W 9117  43.500  35.576  12.016
45350W        W 9118  15.264  21.079  14.335
45351W        W 9119  11.830   9.676  14.849
45352W        W 9120  25.467  31.622  14.332
45353W        W 9121  24.212  17.170   2.889
45354W        W 9122  31.946  36.943   1.268
45355W        W 9123  43.769  15.321   2.700
45356W        W 9124   9.229   1.290   3.307
45357W        W 9125  13.829  10.747  11.855
45358W        W 9126  43.270  42.345   3.167
45359W        W 9127  16.588  29.657   2.225
45360W        W 9128  37.916  33.960  13.453
45361W        W 9129  22.025  20.623  12.841
45362W        W 9130   7.238  13.197  12.938
45363W        W 9131  37.523  22.118   0.433
45364W        W 9132  34.481  35.527   4.181
45365W        W 9133  10.874  33.960  11.896
45366W        W 9134  25.066  13.735  12.864
45367W        W 9135  29.631  40.327  10.947
45368W        W 9136   1.379  38.059   3.793
45369W        W 9137  33.586  15.592  13.873
45370W        W 9138  14.122   9.380   0.941
45371W        W 9139   8.344  10.157  14.921
45372W        W 9140  41.834  34.954   3.152
45373W        W 9141  42.839  37.990  14.941
45374W        W 9142  29.921  15.319  10.888
45375W        W 9143   4.232  26.505   3.165
45376W        W 9144   6.192  12.217  14.304
45377W        W 9145   5.329  16.573   1.856
45378W        W 9146  41.034   2.785  11.101
45379W        W 9147   5.920   6.893  10.494
45380W        W 9148  32.119  44.867   0.395
45381W        W 9149  29.984  20.168   0.285
45382W        W 9150  38.400  26.461  13.363
45383W        W 9151  17.198   7.796  14.490
45384W        W 9152  29.987  30.057  12.059
45385W        W 9153  20.618  40.969  12.990
45386W        W 9154  22.241  17.204  13.902
45387W        W 9155  15.742  29.663   0.284
45388W        W 9156   0.312  38.334   5.301
45389W        W 9157  14.297  31.004  13.997
45390W        W 9158  31.101   8.667   4.173
45391W        W 9159  32.502  39.496   0.273
45392W        W 9160  40.835  17.675  12.918
45393W        W 9161  17.093   8.343  13.492
45394W        W 9162  33.531  22.127  12.577
45395W        W 9163  12.150  17.180  10.596
45396W        W 9164  10.289  19.606   2.705
45397W        W 9165  37.379  13.289   4.306
45398W        W 9166   0.477   3.850  12.880
45399W        W 9167  31.958  41.293   4.213
45400W        W 9168  42.780  29.442   2.855
45401W        W 9169  27.969  17.768   1.898
45402W        W 9170  36.486  17.687   1.846
45403W        W 9171  38.947  15.260   3.284
45404W        W 9172   9.876  37.569  14.404
45405W        W 9173  17.077  27.086  13.007
45406W        W 9174  38.965   9.643  12.875
45407W        W 9175   8.681  26.526   0.370
45408W        W 9176  17.666  10.683   3.723
45409W        W 9177  16.576  11.844  11.933
45410W        W 9178  42.456  12.710   3.371
45411W        W 9179  29.131  40.885   3.339
45412W        W 9180   6.281  22.683   4.199
45413W        W 9181  30.998   4.376   3.205
45414W        W 9182  14.701  44.418   3.161
45415W        W 9183  19.200  31.541  14.348
45416W        W 9184  35.453  19.613  13.038
45417W        W 9185  10.703   6.221  14.312
45418W        W 9186   1.844   4.257  14.920
45419W        W 9187  30.584  12.624  10.592
45420W        W 9188  26.049  27.041   4.682
45421W        W 9189  28.530  18.572   0.378
45422W        W 9190  30.653  11.868  12.057
45423W        W 9191   3.413  27.510   4.315
45424W        W 9192  25.709  13.142   5.163
45425W        W 9193   6.743  37.424   2.214
45426W        W 9194  29.084   6.743  12.842
45427W        W 9195  30.131   3.430   0.435
45428W        W 9196   9.649  36.913  13.937
45429W        W 9197   2.741  22.241  12.536
45430W        W 9198   7.267  36.370   0.866
45431W        W 9199  21.687  25.190  13.344
45432W        W 9200  40.007  44.455   3.293
45433W        W 9201  21.748   1.909  13.792
45434W        W 9202  38.541  43.844   2.898
45435W        W 9203  22.619  34.566   3.364
45436W        W 9204  19.665  17.759   3.795
45437W        W 9205  28.956  42.822  12.574
45438W        W 9206  43.888  41.421   3.375
45439W        W 9207   8.375  35.954   3.736
45440W        W 9208  41.456   4.427   2.670
45441W        W 9209  25.984  40.952  14.999
45442W        W 9210  14.590  15.261  11.875
45443W        W 9211  30.154  40.501   1.694
45444W        W 9212  39.444  35.563  11.866
45445W        W 9213   0.482   7.245   4.783
45446W        W 9214  28.586   4.855  11.562
45447W        W 9215  38.994  28.565   9.990
45448W        W 9216   2.860  31.546   1.271
45449W        W 9217  22.241  41.932   0.438
45450W        W 9218   9.831  33.951  13.006
45451W        W 9219  26.486  39.808   2.853
45452W        W 9220  35.055  12.244   4.247
45453W        W 9221  29.494  32.018   3.310
45454W        W 9222  31.016   2.461  12.882
45455W        W 9223  15.242  18.263  13.456
45456W        W 9224  23.654   8.402   1.732
45457W        W 9225  34.451  14.615  10.545
45458W        W 9226  27.987  28.513  10.903
45459W        W 9227  30.584   9.665   3.203
45460W        W 9228  25.068  44.263   9.975
45461W        W 9229  38.423  15.256   2.336
45462W        W 9230  34.507  38.917  14.827
45463W        W 9231  34.481  21.019  11.066
45464W        W 9232  34.980  35.936   4.803
45465W        W 9233  38.392  24.536  13.532
45466W        W 9234  42.026  43.935   1.271
45467W        W 9235  13.246  28.593   0.905
45468W        W 9236  35.042  24.710   3.693
45469W        W 9237   7.308  39.341   0.370
45470W        W 9238   4.432  35.087   0.776
45471W        W 9239  25.065  20.116  14.484
45472W        W 9240  25.996  32.582  14.925
45473W        W 9241   8.265   4.915  11.492
45474W        W 9242   2.824  40.989   0.927
45475W        W 9243  43.333  26.522  12.410
45476W        W 9244  25.057  11.698   3.289
45477W        W 9245  24.102   7.701   1.746
45478W        W 9246  21.646  15.678  11.408
45479W        W 9247  21.097  31.954  12.415
45480W        W 9248  36.526  16.736  13.476
45481W        W 9249  10.283  10.305   3.338
45482W        W 9250  15.277  35.896  10.533
45483W        W 9251  21.715  27.138  13.404
45484W        W 9252  24.721  37.502  13.934
45485W        W 9253  10.668   1.439  10.429
45486W        W 9254  15.108  37.363   3.710
45487W        W 9255   0.858  32.479  14.427
45488W        W 9256   8.697  11.306   3.338
45489W        W 9257  44.863   5.226   4.812
45490W        W 9258   8.795  40.517   0.340
45491W        W 9259  21.521   1.369   1.761
45492W        W 9260  41.960   4.736   0.804
45493W        W 9261  27.137   3.742  10.957
45494W        W 9262   2.905  42.286   1.387
45495W        W 9263  31.500  38.366  12.040
45496W        W 9264  40.492   4.892   0.433
45497W        W 9265  10.725  43.305  11.534
45498W        W 9266   6.248  35.981  12.838
45499W        W 9267  22.077  28.086  11.512
45500W        W 9268  16.691  18.066  13.519
45501W        W 9269  20.128   8.888   1.763
45502W        W 9270  28.487  20.644  12.023
45503W        W 9271  19.721  16.706  14.475
45504W        W 9272  36.557  21.257  11.371
45505W        W 9273  23.707  42.361  12.048
45506W        W 9274   1.865  37.929  12.445
45507W        W 9275   8.397  39.047   9.926
45508W        W 9276  34.063   0.788   2.827
45509W        W 9277  40.522  12.327  13.338
45510W        W 9278  12.219  30.165  14.859
45511W        W 9279  25.161  29.449  10.961
45512W        W 9280  25.698  18.766   4.321
45513W        W 9281  23.092   9.258  14.420
45514W        W 9282  28.150  26.467   0.303
45515W        W 9283  30.546  23.128  13.511
45516W        W 9284  18.676  19.761   2.236
45517W        W 9285   8.355  23.208  14.969
45518W        W 9286  39.392  21.159  12.823
45519W        W 9287  31.069  17.701  11.927
45520W        W 9288  43.918  32.916   0.359
45521W        W 9289  43.478  28.007   4.275
45522W        W 9290   0.857  24.540   3.753
45523W        W 9291  38.487  22.689   2.370
45524W        W 9292  39.016   0.488  10.557
45525W        W 9293  11.363  38.960   4.147
45526W        W 9294  24.180  42.308   1.315
45527W        W 9295   8.275   8.180   4.752
45528W        W 9296  19.193  24.529  12.845
45529W        W 9297   2.784  17.072   3.204
45530W        W 9298   9.316  14.228   2.395
45531W        W 9299  25.971  26.959   3.648
45532W        W 9300  29.127  43.281  12.925
45533W        W 9301  35.588  34.930   4.647
45534W        W 9302  20.745  43.814  13.894
45535W        W 9303  36.448  20.728   0.853
45536W        W 9304   6.424   8.192   1.699
45537W        W 9305  24.039  20.721   2.266
45538W        W 9306  44.330   3.284   3.305
45539W        W 9307  44.467  43.804   2.743
45540W        W 9308  32.925  14.262   3.152
45541W        W 9309  35.392  43.331   1.736
45542W        W 9310   9.192  24.547  14.480
45543W        W 9311  44.895  40.377  13.345
45544W        W 9312  40.002  26.664  14.861
45545W        W 9313  35.972   7.805   2.416
45546W        W 9314  40.846  31.990   5.166
45547W        W 9315   9.698  24.549  13.833
45548W        W 9316  39.509   1.467   2.373
45549W        W 9317  21.249  43.021  13.492
45550W        W 9318  14.710   7.306  14.991
45551W        W 9319  24.129  19.047   1.755
45552W        W 9320  27.096   1.266  14.490
45553W        W 9321  17.192  26.520  14.815
45554W        W 9322  30.085  33.945   1.837
45555W        W 9323   7.371  34.883  11.537
45556W        W 9324   6.297  18.597  14.980
45557W        W 9325   5.870  37.947  12.571
45558W        W 9326  25.568  36.505  14.479
45559W        W 9327   1.325  35.497   3.214
45560W        W 9328  25.520  32.601   4.115
45561W        W 9329  38.845  18.205   3.774
45562W        W 9330  31.061  13.188   3.256
45563W        W 9331  20.248   5.910  12.495
45564W        W 9332  10.381  43.899   1.260
45565W        W 9333  25.713  27.177  12.385
45566W        W 9334   4.886  34.926  13.322
45567W        W 9335   8.694  35.915  11.407
45568W        W 9336  33.901  39.462   0.799
45569W        W 9337  23.666   8.184   0.391
45570W        W 9338  22.228  10.810   4.269
45571W        W 9339  23.507  44.808   3.255
45572W        W 9340   0.918  26.123  11.452
45573W        W 9341  14.190  37.843  13.816
45574W        W 9342  12.172  27.979  13.475
45575W        W 9343  40.813  35.550  10.638
45576W        W 9344  32.059   8.850  14.321
45577W        W 9345  27.069   0.398  12.917
45578W        W 9346   9.757  32.393   1.211
45579W        W 9347   0.256  36.950   3.806
45580W        W 9348  28.575  13.291   2.303
45581W        W 9349  40.493  15.221   0.741
45582W        W 9350  40.858   0.429  12.092
45583W        W 9351   8.827  38.540  10.984
45584W        W 9352   5.767   9.820  13.907
45585W        W 9353  36.970  32.112  12.539
45586W        W 9354  36.360   6.227   2.826
45587W        W 9355  36.969  36.351   2.303
45588W        W 9356  16.177  18.651  14.424
45589W        W 9357  36.880  41.900  12.086
45590W        W 9358  16.288  41.791   0.328
45591W        W 9359  40.491   0.362  13.940
45592W        W 9360   5.420  28.594  13.339
45593W        W 9361   6.899  21.021   2.747
45594W        W 9362  14.790  24.168  14.411
45595W        W 9363  44.886  42.363   3.253
45596W        W 9364  29.509  34.963  14.842
45597W        W 9365  19.619  19.251  11.385
45598W        W 9366  41.449  12.143   0.421
45599W        W 9367  21.620  39.890   4.338
45600W        W 9368  34.960  41.965  11.928
45601W        W 9369  12.315   8.872   3.683
45602W        W 9370  33.059  31.612  10.427
45603W        W 9371  20.594  21.220   2.262
45604W        W 9372  20.245   2.281  13.974
45605W        W 9373  17.282  26.581   3.819
45606W        W 9374  29.635  16.764   5.262
45607W        W 9375   5.905  18.645  14.947
45608W        W 9376   3.808  29.583  10.904
45609W        W 9377  27.537   5.806  13.548
45610W        W 9378   4.213  34.539   2.871
45611W        W 9379  43.768  33.548   2.364
45612W        W 9380  10.727  44.491  13.835
45613W        W 9381  21.053   4.724   1.373
45614W        W 9382   7.702  37.570   9.983
45615W        W 9383   2.349  39.433  11.064
45616W        W 9384  41.421  10.769  10.946
45617W        W 9385  39.809  28.543   0.304
45618W        W 9386  44.842   3.730   4.168
45619W        W 9387  33.027  44.338   4.739
45620W        W 9388  15.702   4.377   2.706
45621W        W 9389   4.211  18.558  10.630
45622W        W 9390  11.136  28.138   4.648
45623W        W 9391  27.583  38.988   1.933
45624W        W 9392  16.076   1.824   3.350
45625W        W 9393  31.997  34.462   1.895
45626W        W 9394  41.998  34.512   0.817
45627W        W 9395  12.855  11.849   4.322
45628W        W 9396  19.117  17.139   3.336
45629W        W 9397  26.642  23.189  12.460
45630W        W 9398  34.515  31.906  14.023
45631W        W 9399   0.915  30.443  11.891
45632W        W 9400  16.249   4.707   0.340
45633W        W 9401  42.296  23.555   0.391
45634W        W 9402   6.186  16.649  13.887
45635W        W 9403  14.614  41.039   2.336
45636W        W 9404  40.401  43.020   1.215
45637W        W 9405  19.626  41.794   0.729
45638W        W 9406   9.844   3.820  10.942
45639W        W 9407  23.067  16.651  12.543
45640W        W 9408  28.671  24.480  10.895
45641W        W 9409  14.181  11.189  13.004
45642W        W 9410  33.054  19.284   0.799
45643W        W 9411  44.501  14.289   3.767
45644W        W 9412  30.112  41.786  11.005
45645W        W 9413  10.283   7.828  13.548
45646W        W 9414  20.100   8.211   3.832
45647W        W 9415  11.267  41.448  12.856
45648W        W 9416  27.596  23.655  12.488
45649W        W 9417  39.424  33.896   2.700
45650W        W 9418   6.893  34.991   1.264
45651W        W 9419  11.857  18.193  12.488
45652W        W 9420  34.011  31.988  11.857
45653W        W 9421  26.124  16.643   3.331
45654W        W 9422  38.007   0.907   1.400
45655W        W 9423  32.925  17.699   1.447
45656W        W 9424  26.081  40.463   3.372
45657W        W 9425  20.249  11.643   3.162
45658W        W 9426  34.028  35.499   4.837
45659W        W 9427  27.564  44.955  14.419
45660W        W 9428  42.361  17.721   1.248
45661W        W 9429  36.928  36.457   4.745
45662W        W 9430  38.900  28.063   5.208
45663W        W 9431  27.985   2.293   1.793
45664W        W 9432   7.820   4.373   1.855
45665W        W 9433  22.250  29.535   2.243
45666W        W 9434  40.318  18.120   0.440
45667W        W 9435  10.292  11.298   5.160
45668W        W 9436  15.597  11.156  12.443
45669W        W 9437  23.108  31.085  14.931
45670W        W 9438  12.649  15.725  13.340
45671W        W 9439  33.434  21.673  12.905
45672W        W 9440   6.341  19.226  13.426
45673W        W 9441  16.725  16.586  12.505
45674W        W 9442   4.780   4.267  14.280
45675W        W 9443  34.981   1.908  12.407
45676W        W 9444   7.352  24.707   3.202
45677W        W 9445   7.334  26.102   2.797
45678W        W 9446  26.095  25.982  10.508
45679W        W 9447   2.437  35.069  13.464
45680W        W 9448   7.687  17.729   3.807
45681W        W 9449  18.288  40.515   0.873
45682W        W 9450  30.623  30.549  13.419
45683W        W 9451   7.274  11.259   2.683
45684W        W 9452   4.910   4.872  10.537
45685W        W 9453  18.288  43.388   2.369
45686W        W 9454  25.000  11.751  11.895
45687W        W 9455  38.880  29.537   9.924
45688W        W 9456  15.733  23.684   3.152
45689W        W 9457  27.076  37.442   1.232
45690W        W 9458  36.953   1.756   3.311
45691W        W 9459  24.541  25.112   1.863
45692W        W 9460  22.718   4.913  13.018
45693W        W 9461  22.522   4.894   3.334
45694W        W 9462  28.019  24.610  14.285
45695W        W 9463  34.457  14.814   3.242
45696W        W 9464   1.414  27.648   3.250
45697W        W 9465  23.686  42.864  12.895
45698W        W 9466  31.991  32.014   0.800
45699W        W 9467  41.811  42.948  11.537
45700W        W 9468  30.976  44.318  14.008
45701W        W 9469  42.007  21.717  13.968
45702W        W 9470  15.142  12.760   4.297
45703W        W 9471  41.041  19.615   3.171
45704W        W 9472  34.543  27.586   1.321
45705W        W 9473  39.879  16.619   0.731
45706W        W 9474  37.051  43.503  12.048
45707W        W 9475   5.314  42.480  11.555
45708W        W 9476  14.742  28.157   2.330
45709W        W 9477  19.593  15.239   3.701
45710W        W 9478  10.217  44.756  10.598
45711W        W 9479  14.142  19.706  14.333
45712W        W 9480  12.331  28.660   4.611
45713W        W 9481  39.821  42.016   4.316
45714W        W 9482  27.167  13.638   4.764
45715W        W 9483  11.813  36.907   3.216
45716W        W 9484  31.512  22.127   2.677
45717W        W 9485  31.554  26.527   1.301
45718W        W 9486   8.348  27.621  14.869
45719W        W 9487   5.765  44.363   1.706
45720W        W 9488  34.420  30.144  11.894
45721W        W 9489  38.010  12.841  13.469
45722W        W 9490   3.886  28.450   2.303
45723W        W 9491   8.249  41.795   3.268
45724W        W 9492  19.089  11.819  14.900
45725W        W 9493  32.555  11.331   2.821
45726W        W 9494  32.512  43.303   0.818
45727W        W 9495  41.894   3.905   2.859
45728W        W 9496  16.782  44.346   4.779
45729W        W 9497  17.568  31.516  11.871
45730W        W 9498   5.320  28.013  12.912
45731W        W 9499  22.613   6.682   2.847
45732W        W 9500  29.151   4.275  10.930
45733W        W 9501   0.359  13.679  12.553
45734W        W 9502   6.212  32.501   1.912
45735W        W 9503  22.218  35.428  14.030
45736W        W 9504   0.743  33.599  14.368
45737W        W 9505  19.751  10.757   3.643
45738W        W 9506  42.874  24.013  14.761
45739W        W 9507   7.265   7.403  11.547
45740W        W 9508  42.952  13.755   4.276
45741W        W 9509  42.855  33.023  11.099
45742W        W 9510  28.083  22.545   0.756
45743W        W 9511  17.663  27.551   1.226
45744W        W 9512  43.990  44.995   1.361
45745W        W 9513  42.283  15.703   0.449
45746W        W 9514  43.903  27.676  14.772
45747W        W 9515  26.643  27.528  12.866
45748W        W 9516  17.724  14.142  11.934
45749W        W 9517  12.636  39.441  10.637
45750W        W 9518  16.609  39.998  11.537
45751W        W 9519  44.339  19.096   1.403
45752W        W 9520  17.129   5.195  13.515
45753W        W 9521   4.408  25.183  12.862
45754W        W 9522   3.356  14.817  11.504
45755W        W 9523  22.190   6.243  12.427
45756W        W 9524  27.521  15.182   0.417
45757W        W 9525  22.533  28.512   0.261
45758W        W 9526  29.955  36.022   0.301
45759W        W 9527  38.417  10.341  12.511
45760W        W 9528  44.953  23.183  13.849
45761W        W 9529  44.871  37.989  13.009
45762W        W 9530   0.277  21.216   0.450
45763W        W 9531  24.134   4.905   1.854
45764W        W 9532  21.158  24.165  10.524
45765W        W 9533   6.880  32.923  11.087
45766W        W 9534  23.220  18.146  14.969
45767W        W 9535  22.517  28.651   1.289
45768W        W 9536  11.776  37.385  14.979
45769W        W 9537  40.991   3.302  12.419
45770W        W 9538  20.713  26.175  10.890
45771W        W 9539   0.788  35.982   2.851
45772W        W 9540  12.657   0.849   2.748
45773W        W 9541  18.108  12.705   2.819
45774W        W 9542  25.051   9.783   4.828
45775W        W 9543   9.303  16.289  10.956
45776W        W 9544  25.969   9.180   4.121
45777W        W 9545   6.880  25.555  11.478
45778W        W 9546  44.827  37.863  10.908
45779W        W 9547  16.680  20.092   2.320
45780W        W 9548  23.199  17.175  11.916
45781W        W 9549  27.640  30.523  12.365
45782W        W 9550  43.480  15.623  13.898
45783W        W 9551  25.628  21.062   1.721
45784W        W 9552  20.040  12.147  12.466
45785W        W 9553  14.791   6.246   4.282
45786W        W 9554  32.543  28.555  12.551
45787W        W 9555  35.375  31.091   2.374
45788W        W 9556  34.535   7.173  12.362
45789W        W 9557  16.211   9.259   1.317
45790W        W 9558  11.319  31.536  11.030
45791W        W 9559  14.817  23.110  14.486
45792W        W 9560  32.067  17.789  11.955
45793W        W 9561  32.563   9.251   4.315
45794W        W 9562   9.296   1.408   4.832
45795W        W 9563   8.164   8.208   2.393
45796W        W 9564  35.389  25.102  13.822
45797W        W 9565  38.355  38.517  13.504
45798W        W 9566   3.343   8.862  14.347
45799W        W 9567  10.291  32.600   2.798
45800W        W 9568  43.437  25.026  14.509
45801W        W 9569   0.960  43.432   3.172
45802W        W 9570  20.657  41.892   3.779
45803W        W 9571  35.893  43.010  14.830
45804W        W 9572  21.679   5.420   3.813
45805W        W 9573  22.610  34.523  14.297
45806W        W 9574  37.004   1.866  14.410
45807W        W 9575  32.467  42.375  13.511
45808W        W 9576   3.339  10.710  14.486
45809W        W 9577  37.912   2.455  14.353
45810W        W 9578  30.553  25.526   3.685
45811W        W 9579  20.578  20.692   3.744
45812W        W 9580  34.480   2.426  11.072
45813W        W 9581  13.659  32.035  13.803
45814W        W 9582  43.373  18.138  10.453
45815W        W 9583  11.735  22.153   3.278
45816W        W 9584   7.897  25.033   5.295
45817W        W 9585  26.479   4.795   3.341
45818W        W 9586  23.060   1.328   2.752
45819W        W 9587  28.477   2.773   3.686
45820W        W 9588  34.573   2.417  11.966
45821W        W 9589   5.316  18.271  11.045
45822W        W 9590  16.287  29.506  11.073
45823W        W 9591  36.068  14.743   1.241
45824W        W 9592  24.715  23.567   4.796
45825W        W 9593  32.046  17.267  14.784
45826W        W 9594  26.960  21.605  11.437
45827W        W 9595  26.179  44.857   0.283
45828W        W 9596  32.058  32.964   3.816
45829W        W 9597   7.348  40.807  11.599
45830W        W 9598   4.940  36.056   0.952
45831W        W 9599  20.127   8.397  10.902
45832W        W 9600  33.607   6.389  11.594
45833W        W 9601  26.585   6.268   5.120
45834W        W 9602  23.140  30.633  14.402
45835W        W 9603   6.191  29.621   5.133
45836W        W 9604   4.294  32.018   4.174
45837W        W 9605   2.861   4.242  11.988
45838W        W 9606  10.224  31.423   9.938
45839W        W 9607  13.817   6.310  12.037
45840W        W 9608  43.470  37.984   2.330
45841W        W 9609  14.589  43.340   0.315
45842W        W 9610   2.822  44.967  13.921
45843W        W 9611  24.008  39.455   1.286
45844W        W 9612  29.171  10.792   4.818
45845W        W 9613  24.554  11.222  13.959
45846W        W 9614  23.551  33.933  11.861
45847W        W 9615   3.381  41.909  14.483
45848W        W 9616   4.728  13.632   1.728
45849W        W 9617  42.464  20.584   4.765
45850W        W 9618  43.313  36.868  11.560
45851W        W 9619   6.298  13.109   0.897
45852W        W 9620  18.778  40.849   4.708
45853W        W 9621  26.464  28.551  12.985
45854W        W 9622  22.602  40.399  13.933
45855W        W 9623   8.219  24.160  11.009
45856W        W 9624  16.746  33.001   0.402
45857W        W 9625  13.668  15.215  10.933
45858W        W 9626  41.860  19.278   2.394
45859W        W 9627   3.824   2.282   4.127
45860W        W 9628   0.352  15.821  12.949
45861W        W 9629  30.956  15.214  12.850
45862W        W 9630  33.973   8.723   4.760
45863W        W 9631  26.186  30.591  12.512
45864W        W 9632  18.223  34.863  11.381
45865W        W 9633  20.599   0.759  14.951
45866W        W 9634  25.568   1.341   2.386
45867W        W 9635  16.625  44.494   0.344
45868W        W 9636  10.253  16.758  13.839
45869W        W 9637  24.697  36.583  13.410
45870W        W 9638  27.531  18.141   1.323
45871W        W 9639  27.102  20.681   1.908
45872W        W 9640  28.014  15.114   2.882
45873W        W 9641   7.272   8.808   0.918
45874W        W 9642   6.816   3.272   0.242
45875W        W 9643   0.917   8.403  13.325
45876W        W 9644  24.148  25.593   0.410
45877W        W 9645  28.096  28.017   0.850
45878W        W 9646   2.838   6.224  12.983
45879W        W 9647  15.733  33.073   2.867
45880W        W 9648  20.247   8.746   1.390
45881W        W 9649  41.327  24.662   1.742
45882W        W 9650   9.865  33.092   2.804
45883W        W 9651  37.509  39.951  10.965
45884W        W 9652   9.687  30.588  11.547
45885W        W 9653  44.425  27.602   3.652
45886W        W 9654  13.199  11.319   3.348
45887W        W 9655  38.854  37.423  10.931
45888W        W 9656  16.272  43.475  13.468
45889W        W 9657  10.735  32.954  14.794
45890W        W 9658  40.309   6.832   4.346
45891W        W 9659   1.921  37.388  14.926
45892W        W 9660  34.907  20.080   1.423
45893W        W 9661  19.198  24.015  13.977
45894W        W 9662   6.425   6.223  14.001
45895W        W 9663  43.950  18.743  13.954
45896W        W 9664  20.056  12.680   2.239
45897W        W 9665  41.020  43.987   4.267
45898W        W 9666  18.111  34.051   0.389
45899W        W 9667   2.250   7.385  12.826
45900W        W 9668  36.060  30.654   3.830
45901W        W 9669  16.788  30.563   1.277
45902W        W 9670  24.665   7.830   3.867
45903W        W 9671  22.504  17.763  14.400
45904W        W 9672   0.310  24.590  11.042
45905W        W 9673  12.706  13.639  13.439
45906W        W 9674  16.708   4.279  13.867
45907W        W 9675   4.827   2.819  10.966
45908W        W 9676   7.883  42.471  13.359
45909W        W 9677  35.576  33.479  11.595
45910W        W 9678  30.456  11.813   4.158
45911W        W 9679  22.181   1.801  11.913
45912W        W 9680  32.104  16.102   3.225
45913W        W 9681  44.307  30.641   2.277
45914W        W 9682   2.809   7.773   2.876
45915W        W 9683  40.496  41.994  14.509
45916W        W 9684  14.699  31.954   1.728
45917W        W 9685  22.162  22.508  13.460
45918W        W 9686  24.672  11.196   0.794
45919W        W 9687  15.786  12.313  12.024
45920W        W 9688  37.911  39.935  10.898
45921W        W 9689  11.723  27.528  13.466
45922W        W 9690  27.040  36.088  12.360
45923W        W 9691  26.206  30.555  11.484
45924W        W 9692  34.555  22.631  10.415
45925W        W 9693  34.432  16.723  10.555
45926W        W 9694  23.018   3.321  11.519
45927W        W 9695  31.937  30.128  13.441
45928W        W 9696  28.567  44.299   0.378
45929W        W 9697  21.112  30.059  14.987
45930W        W 9698   6.824  39.525   2.805
45931W        W 9699  17.099  10.873  12.993
45932W        W 9700  18.147  18.248   4.158
45933W        W 9701  12.841  41.973   1.450
45934W        W 9702  26.498  28.624   2.712
45935W        W 9703   4.731  21.533   3.281
45936W        W 9704  28.056  38.389   3.217
45937W        W 9705  11.648  31.929   9.947
45938W        W 9706  33.986  34.602  12.567
45939W        W 9707  28.054   3.303  10.072
45940W        W 9708  25.030   4.793  12.003
45941W        W 9709   5.870  11.321  11.913
45942W        W 9710  18.255  30.491   1.767
45943W        W 9711  32.014  41.990  14.464
45944W        W 9712  20.716  13.177   4.264
45945W        W 9713  21.527   3.448  12.469
45946W        W 9714  33.384  32.947   3.227
45947W        W 9715  10.841  33.626  13.896
45948W        W 9716  24.531   8.333   4.807
45949W        W 9717  15.322  15.144   3.688
45950W        W 9718  41.872  10.219   2.324
45951W        W 9719   1.765  38.531   4.718
45952W        W 9720  16.139  16.136  12.088
45953W        W 9721  14.293  39.845  13.500
45954W        W 9722  12.235  26.146  12.837
45955W        W 9723   6.365  14.323   2.838
45956W        W 9724  35.023  12.346   3.297
45957W        W 9725  10.760   9.219  10.641
45958W        W 9726  32.066  39.846   1.903
45959W        W 9727   0.768  13.248  10.644
45960W        W 9728  19.710   4.231  13.335
45961W        W 9729  24.102   7.252   0.269
45962W        W 9730   6.218  28.068   3.336
45963W        W 9731  16.210  29.600   1.283
45964W        W 9732  10.817  28.652  12.088
45965W        W 9733   9.165  42.346   3.643
45966W        W 9734  17.715  35.461   2.846
45967W        W 9735  30.586  20.582  11.908
45968W        W 9736  41.878  26.692  13.476
45969W        W 9737  13.699  43.358   0.329
45970W        W 9738  35.597  31.061  11.993
45971W        W 9739  22.601  38.346   4.129
45972W        W 9740  23.657  32.938  14.315
45973W        W 9741  37.969   6.328   2.337
45974W        W 9742  20.178  29.608  14.314
45975W        W 9743  32.610  40.357  10.997
45976W        W 9744  22.014  39.497  14.372
45977W        W 9745  44.367  28.186  13.415
45978W        W 9746  12.354  33.976   4.643
45979W        W 9747  10.259  32.988   2.865
45980W        W 9748  11.854   2.468   2.703
45981W        W 9749   0.447  40.511  12.470
45982W        W 9750  22.614  36.587  14.338
45983W        W 9751   5.796  36.945   4.194
45984W        W 9752  34.558  36.014   0.778
45985W        W 9753  29.943  22.023   1.291
45986W        W 9754   0.795  25.561   2.325
45987W        W 9755  10.744  17.107   4.830
45988W        W 9756  41.441   9.183  11.560
45989W        W 9757  10.238  26.087  13.366
45990W        W 9758  23.119  30.020  14.947
45991W        W 9759   2.787  11.314   0.295
45992W        W 9760  34.902  39.016  12.424
45993W        W 9761  38.451  34.030  12.999
45994W        W 9762  35.579   2.363   4.716
45995W        W 9763  12.691  41.490   2.667
45996W        W 9764   1.872  42.518   0.270
45997W        W 9765  42.834   7.366   4.790
45998W        W 9766  21.609  29.544   4.139
45999W        W 9767  19.143  13.751  12.969
46000W        W 9768   3.430  44.850  11.966
46001W        W 9769  15.089   4.369   1.399
46002W        W 9770  29.933   5.694  13.522
46003W        W 9771  41.900  19.607   4.652
46004W        W 9772  25.181  31.988  10.618
46005W        W 9773  39.909  13.323   4.732
46006W        W 9774  34.472  24.114  13.414
46007W        W 9775  19.746   0.455   3.840
46008W        W 9776  10.148   3.385   2.301
46009W        W 9777  30.552  23.064   3.657
46010W        W 9778  14.248  43.860   1.791
46011W        W 9779  28.488  20.648   1.334
46012W        W 9780  30.989  16.085  10.033
46013W        W 9781  23.495  31.102   0.909
46014W        W 9782  29.563  20.077  11.423
46015W        W 9783  44.502   5.694  10.635
46016W        W 9784   6.870  30.474   3.740
46017W        W 9785  26.978  24.497  12.876
46018W        W 9786  17.127  21.677  10.637
46019W        W 9787  37.515   4.905   2.900
46020W        W 9788  15.771  28.933   4.226
46021W        W 9789  31.578   4.803  14.922
46022W        W 9790  30.549  44.406   0.751
46023W        W 9791   3.217  40.369   1.443
46024W        W 9792   4.332  25.095   1.870
46025W        W 9793  14.182   5.375  13.959
46026W        W 9794   6.310  28.652  10.063
46027W        W 9795  38.006   4.386  13.505
46028W        W 9796   1.909  36.556   0.292
46029W        W 9797   9.714  23.548   2.364
46030W        W 9798  19.211  13.305  12.373
46031W        W 9799  38.956  14.808   2.696
46032W        W 9800  37.470  42.438  13.502
46033W        W 9801  42.511  32.632  10.623
46034W        W 9802  16.578  26.001   1.742
46035W        W 9803  25.474  43.010  13.853
46036W        W 9804  40.355  14.107  12.418
46037W        W 9805   0.438   0.824  14.819
46038W        W 9806  38.331  32.423  10.516
46039W        W 9807  41.902  29.527   2.341
46040W        W 9808  40.433  35.935  12.376
46041W        W 9809  10.862  20.664  11.448
46042W        W 9810  13.139  28.975  12.504
46043W        W 9811  34.438  19.583   2.280
46044W        W 9812  13.122  14.329  13.960
46045W        W 9813  16.750  14.665  11.099
46046W        W 9814  20.140  26.578  14.294
46047W        W 9815  40.004   3.887  13.060
46048W        W 9816  21.244  16.245  11.497
46049W        W 9817  11.753  18.066  13.810
46050W        W 9818   6.725  18.782   1.854
46051W        W 9819  13.658   5.858   4.711
46052W        W 9820  35.884  44.479   1.298
46053W        W 9821  26.991  41.876  13.525
46054W        W 9822   2.471  13.230  14.488
46055W        W 9823  35.086   4.318  11.441
46056W        W 9824  16.764  25.054  11.464
46057W        W 9825  40.444  26.651  11.474
46058W        W 9826  30.113  25.192   4.276
46059W        W 9827  31.026  10.205   2.778
46060W        W 9828  27.132  27.098   4.682
46061W        W 9829  14.812  15.600   3.716
46062W        W 9830  12.337  40.023  12.387
46063W        W 9831  17.170  28.004  13.466
46064W        W 9832  22.643  33.599  12.927
46065W        W 9833  15.800  30.145  14.393
46066W        W 9834  33.502  41.515  11.076
46067W        W 9835  23.735  34.916  13.868
46068W        W 9836  32.591  26.594  14.854
46069W        W 9837  41.987  11.632  14.959
46070W        W 9838  25.013   5.417  12.512
46071W        W 9839   5.895  43.910  12.012
46072W        W 9840  25.983  31.129  13.489
46073W        W 9841  11.761  11.726   3.344
46074W        W 9842  39.971  44.857  14.794
46075W        W 9843  40.497  43.374   1.858
46076W        W 9844  39.456   9.707  11.921
46077W        W 9845   3.785   7.230   9.958
46078W        W 9846   5.415  28.947   0.899
46079W        W 9847  36.954  42.015  12.432
46080W        W 9848  35.862  40.388  10.472
46081W        W 9849  30.065  10.744  12.458
46082W        W 9850  44.421  41.040   4.658
46083W        W 9851  17.683  43.326  14.878
46084W        W 9852  32.584  22.527   3.654
46085W        W 9853  34.373  20.202   0.303
46086W        W 9854  25.063  32.471   0.335
46087W        W 9855  26.173  29.025  11.416
46088W        W 9856  15.820  19.235   2.791
46089W        W 9857   6.895  43.957  13.321
46090W        W 9858  28.003  12.637   5.294
46091W        W 9859  33.908  37.580  13.901
46092W        W 9860  42.920  14.628   2.886
46093W        W 9861  41.009   3.821  12.934
46094W        W 9862  28.669  16.111   1.384
46095W        W 9863  23.538  36.896  13.409
46096W        W 9864  29.581   2.301  10.966
46097W        W 9865  33.406  11.738   0.945
46098W        W 9866   6.694  40.954  10.556
46099W        W 9867   0.268  15.752   1.431
46100W        W 9868  23.086  39.428   1.373
46101W        W 9869  14.257  38.942   2.179
46102W        W 9870  20.086  12.198   0.451
46103W        W 9871  37.039  41.487   2.860
46104W        W 9872  24.520  21.118  12.008
46105W        W 9873   1.952  20.548   2.868
46106W        W 9874  44.909  17.170   0.248
46107W        W 9875   7.777  10.151   3.342
46108W        W 9876  30.950  30.466  13.502
46109W        W 9877  34.898  14.680  11.961
46110W        W 9878  33.496   3.945   4.302
46111W        W 9879   0.923   1.933   3.856
46112W        W 9880  20.199  35.591   4.698
46113W        W 9881  25.999  10.145   0.800
46114W        W 9882  20.068  26.204   0.872
46115W        W 9883   0.457  23.727   0.389
46116W        W 9884  36.383  35.976   5.190
46117W        W 9885  20.031  10.820  14.391
46118W        W 9886  18.272  34.078   2.671
46119W        W 9887  27.053  11.842  14.465
46120W        W 9888  19.088   7.232   2.396
46121W        W 9889  27.508  11.171  13.829
46122W        W 9890   3.833   5.312   1.414
46123W        W 9891   9.868  17.674  12.980
46124W        W 9892  15.089  39.339   0.836
46125W        W 9893  34.551  24.988  10.544
46126W        W 9894  15.752   7.395  11.539
46127W        W 9895  30.646   7.395   2.858
46128W        W 9896  42.922  22.673   1.387
46129W        W 9897  18.557   7.668   4.756
46130W        W 9898  38.396  11.784  13.863
46131W        W 9899  39.485  18.132   3.737
46132W        W 9900  18.262  29.053   4.715
46133W        W 9901  33.953  37.966  13.390
46134W        W 9902  21.017  17.189   0.795
46135W        W 9903  14.772   3.942   4.198
46136W        W 9904  17.780  41.857   3.149
46137W        W 9905  34.421  34.910  11.581
46138W        W 9906  21.259  24.203   0.331
46139W        W 9907  32.885  38.535   4.322
46140W        W 9908  11.867  38.062  11.065
46141W        W 9909  21.594  23.575   1.231
46142W        W 9910  10.348  42.435   1.812
46143W        W 9911  38.460   5.364  14.305
46144W        W 9912  14.733  11.144  11.469
46145W        W 9913  40.876  35.075  10.917
46146W        W 9914   0.935  30.513   3.828
46147W        W 9915   6.193  39.829  11.483
46148W        W 9916  18.194  42.391  10.975
46149W        W 9917  19.275  34.078   5.241
46150W        W 9918   6.815  27.026  11.470
46151W        W 9919  18.079   8.871  13.471
46152W        W 9920  22.234  44.948  12.009
46153W        W 9921   6.387  27.046   0.390
46154W        W 9922   0.971   2.888  12.522
46155W        W 9923  31.069  20.209   0.429
46156W        W 9924  44.003   8.308  12.883
46157W        W 9925  36.063  44.907   0.454
46158W        W 9926  23.239  22.241   3.779
46159W        W 9927  12.140  43.512  12.936
46160W        W 9928  11.144   4.414  14.312
46161W        W 9929  25.205  35.101  14.945
46162W        W 9930  40.982  37.961   2.687
46163W        W 9931  15.602  17.650  14.790
46164W        W 9932   8.898   3.332  12.457
46165W        W 9933  23.120  34.489   0.406
46166W        W 9934  30.019   3.243   3.259
46167W        W 9935  35.519  36.888  11.462
46168W        W 9936  30.962  11.728  11.607
46169W        W 9937  17.665  15.740   2.754
46170W        W 9938  16.249   5.331   4.650
46171W        W 9939  28.486  12.645   1.761
46172W        W 9940  22.090  33.942  12.518
46173W        W 9941  34.578  18.751  11.995
46174W        W 9942  39.004  13.672  10.460
46175W        W 9943   2.415  16.746  11.966
46176W        W 9944   1.778  25.002   2.184
46177W        W 9945  37.504  22.115   1.897
46178W        W 9946  38.444  10.792   4.302
46179W        W 9947  22.560   6.402  11.395
46180W        W 9948  21.061  40.000   2.216
46181W        W 9949  39.951  41.038   3.156
46182W        W 9950  43.288  12.855  12.561
46183W        W 9951   5.433  40.912   1.747
46184W        W 9952  40.527  38.076   3.631
46185W        W 9953  30.017  19.762  14.481
46186W        W 9954  30.030  15.582   4.791
46187W        W 9955  21.733  16.274   3.287
46188W        W 9956  41.975   1.356  14.931
46189W        W 9957   0.790  43.477  12.937
46190W        W 9958  41.974   5.854   4.271
46191W        W 9959  30.509  25.666   0.252
46192W        W 9960  44.919  30.947   2.418
46193W        W 9961   7.717  19.282   0.312
46194W        W 9962   3.795  20.273  11.909
46195W        W 9963  19.602   6.201   5.136
46196W        W 9964   3.385  35.466   4.320
46197W        W 9965  12.144  30.560  11.488
46198W        W 9966  15.150  38.331   4.188
46199W        W 9967  27.037  27.560   2.711
46200W        W 9968  23.121  38.883  14.963
46201W        W 9969   5.828  16.075   2.783
46202W        W 9970  41.403  27.503  13.381
46203W        W 9971  14.165   9.329  13.459
46204W        W 9972  36.481  44.354  11.459
46205W        W 9973  15.745   3.754   1.926
46206W        W 9974  42.904  11.801   5.101
46207W        W 9975  13.302  38.846   0.795
46208W        W 9976  17.203   8.185  14.877
46209W        W 9977  29.631  15.093  11.403
46210W        W 9978   3.898  31.057   0.326
46211W        W 9979  13.253  15.791   0.727
46212W        W 9980   2.955  37.462   4.766
46213W        W 9981  29.555   8.314  12.030
46214W        W 9982  34.869  32.476   2.221
46215W        W 9983  37.565  28.068  13.824
46216W        W 9984  43.781  36.009   0.933
46217W        W 9985   2.737  36.872   5.169
46218W        W 9986  20.209  33.560   4.191
46219W        W 9987  11.266   6.821   1.417
46220W        W 9988  32.587  43.980   0.930
46221W        W 9989   7.371  21.029  11.112
46222W        W 9990  43.793  43.960  14.298
46223W        W 9991  43.891  31.623  13.926
46224W        W 9992  44.450  11.212   0.779
46225W        W 9993  35.965  37.925   1.400
46226W        W 9994  15.189  25.092   1.808
46227W        W 9995  17.664  42.997   2.887
46228W        W 9996  37.454  44.324  13.485
46229W        W 9997  43.861  31.420  12.567
46230W        W 9998  11.727  36.860   2.290
46231W        W 9999  19.609   2.781   1.849
46232W        W10000  11.327   0.269   3.240
46233W        W10001  21.623  40.847  10.590
46234W        W10002  11.757  40.501  11.446
46235W        W10003  42.003  25.126  11.026
46236W        W10004  22.537  19.772   0.784
46237W        W10005  21.756  42.794  12.029
46238W        W10006  42.964  14.593   0.858
46239W        W10007  24.623  27.470   4.323
46240W        W10008  20.746   0.943   1.764
46241W        W10009  16.300  12.643   2.673
46242W        W10010  15.620  42.298   1.394
46243W        W10011  33.506  34.885   3.718
46244W        W10012   1.747  39.917   3.640
46245W        W10013  32.102  16.241  11.374
46246W        W10014   4.358  20.639  12.958
46247W        W10015  34.494  27.006   0.939
46248W        W10016  42.507  23.547  13.860
46249W        W10017  26.514   9.380   1.780
46250W        W10018  27.116  36.082  14.769
46251W        W10019  40.035  13.743   3.237
46252W        W10020  18.249  36.474   2.291
46253W        W10021  37.904  42.784  14.290
46254W        W10022  21.201  24.094  14.878
46255W        W10023  17.579  44.901   4.667
46256W        W10024  24.611   7.779  14.441
46257W        W10025  11.279  35.991   0.438
46258W        W10026  39.479   4.358   1.449
46259W        W10027  44.995  13.224   2.793
46260W        W10028  35.894  38.939  13.315
46261W        W10029   8.749  28.064  12.884
46262W        W10030  28.121  36.970   2.699
46263W        W10031  43.990  11.168  11.569
46264W        W10032  31.979  41.791   2.228
46265W        W10033  27.602  24.645   1.888
46266W        W10034   8.331  22.637  13.465
46267W        W10035  30.156  28.123  14.442
46268W        W10036  17.618  19.684   2.283
46269W        W10037  31.970  31.140  14.952
46270W        W10038  16.771  38.433  12.566
46271W        W10039  22.143  27.669   0.476
46272W        W10040   9.784  14.649   2.799
46273W        W10041  14.707   0.460  13.961
46274W        W10042  43.851  11.682   1.816
46275W        W10043  23.072  17.751   2.280
46276W        W10044  24.113  10.291  11.050
46277W        W10045  40.335   8.811  13.362
46278W        W10046  20.181  37.382  14.315
46279W        W10047  11.244   7.370   4.738
46280W        W10048  22.703  34.595   4.774
46281W        W10049  13.701  32.496  11.088
46282W        W10050  41.429  27.489   4.664
46283W        W10051   9.370   1.319  13.429
46284W        W10052  36.435  38.038   3.240
46285W        W10053  10.819   1.759  12.027
46286W        W10054  10.876  34.120  10.541
46287W        W10055  25.515  41.974   4.751
46288W        W10056  25.183  44.280   0.250
46289W        W10057  35.062  29.116   0.812
46290W        W10058   0.452  32.120  12.502
46291W        W10059  18.742  33.501  12.465
46292W        W10060   3.931   7.908  13.983
46293W        W10061  17.108  40.432   1.901
46294W        W10062  25.176  11.711  11.539
46295W        W10063   4.854  28.952   4.281
46296W        W10064  16.140  35.578   0.296
46297W        W10065   7.267  41.027   4.723
46298W        W10066  23.053  43.280  11.078
46299W        W10067  28.134  21.518  12.832
46300W        W10068  12.622  44.492  14.940
46301W        W10069  13.772  16.215   0.754
46302W        W10070   9.768   7.785   1.221
46303W        W10071  28.630  38.975   0.420
46304W        W10072  38.975  24.146   4.611
46305W        W10073  35.547  37.041  12.390
46306W        W10074  30.021  40.920  12.866
46307W        W10075  37.580  16.737   1.864
46308W        W10076  31.086  20.753   3.652
46309W        W10077  43.480  32.403  13.428
46310W        W10078   3.808  28.176  14.452
46311W        W10079  22.714  33.914   0.441
46312W        W10080  16.604  26.695   4.603
46313W        W10081   9.305   3.416  14.979
46314W        W10082  17.595  40.957  12.074
46315W        W10083   9.882  10.739   1.283
46316W        W10084  30.645   7.879   1.399
46317W        W10085  26.677   0.782   4.757
46318W        W10086  38.997  33.530  14.473
46319W        W10087  28.152  41.438  12.564
46320W        W10088  14.268   2.723  13.830
46321W        W10089   2.440  42.282   3.294
46322W        W10090  16.200   0.831  12.425
46323W        W10091  41.954  33.602   2.759
46324W        W10092  27.985   3.750  10.556
46325W        W10093  26.511  23.601   0.263
46326W        W10094  41.910   5.366  12.345
46327W        W10095  30.516   4.768  11.420
46328W        W10096  40.965  31.523  14.424
46329W        W10097  33.584  20.143   4.269
46330W        W10098   9.289  37.938   2.278
46331W        W10099   1.295   1.373  12.986
46332W        W10100  37.452   5.711  10.031
46333W        W10101  14.309  21.114   0.308
46334W        W10102   4.407  35.486   2.818
46335W        W10103  38.997   7.365   2.682
46336W        W10104  41.530   9.775   0.408
46337W        W10105  25.069  39.998  13.847
46338W        W10106  26.664  16.707  11.411
46339W        W10107   4.878  10.228   0.952
46340W        W10108   9.190  33.031   0.814
46341W        W10109  10.852  35.873   4.150
46342W        W10110   4.320   8.711  13.514
46343W        W10111  43.510  29.945  13.528
46344W        W10112  30.644  40.868   1.749
46345W        W10113  18.555   0.833  13.309
46346W        W10114  39.907  23.188   3.385
46347W        W10115  16.592  38.466  11.871
46348W        W10116  12.337  34.054  12.344
46349W        W10117   7.815  44.798  11.117
46350W        W10118  35.545   1.320   1.805
46351W        W10119  24.659   5.231  10.433
46352W        W10120  37.436  33.580  13.347
46353W        W10121  22.611  44.422   2.203
46354W        W10122  40.982   8.277  13.866
46355W        W10123  11.321  35.363  13.456
46356W        W10124  24.677  24.165  11.034
46357W        W10125  38.568  23.733  11.020
46358W        W10126   5.206   4.427   4.662
46359W        W10127  16.648  13.794  14.026
46360W        W10128   3.820  10.252   0.263
46361W        W10129   2.749  38.968   4.782
46362W        W10130  26.628  23.039   1.400
46363W        W10131  25.627  32.394   4.779
46364W        W10132  38.536   5.326  11.375
46365W        W10133  44.902  25.564  11.016
46366W        W10134  24.001  27.021   1.793
46367W        W10135   5.702  43.005   3.843
46368W        W10136   8.814   0.837  14.321
46369W        W10137  41.838  20.079   1.439
46370W        W10138  19.051  27.553   0.759
46371W        W10139   2.376  29.608   0.475
46372W        W10140  39.843  18.627   2.190
46373W        W10141  38.494  34.047  12.468
46374W        W10142  15.801  25.177  14.871
46375W        W10143  26.541  39.454  10.421
46376W        W10144  12.200  11.843   0.757
46377W        W10145  25.616  17.592   3.715
46378W        W10146  16.171  34.927  13.806
46379W        W10147  19.158  43.459   2.338
46380W        W10148  30.014  41.017   1.701
46381W        W10149  39.019  39.436  10.541
46382W        W10150  44.421   0.346   2.363
46383W        W10151  21.589  36.576  13.372
46384W        W10152  36.893   8.841  13.055
46385W        W10153  40.018  38.075  14.387
46386W        W10154   4.883  14.640  11.980
46387W        W10155  19.733   3.871   2.288
46388W        W10156   5.717  25.566  11.000
46389W        W10157  36.352  18.582  14.917
46390W        W10158  18.681   3.333  14.030
46391W        W10159   3.286   9.302  12.908
46392W        W10160   2.262   8.778  11.602
46393W        W10161  21.591   0.950  13.913
46394W        W10162  42.345  37.559   1.265
46395W        W10163   0.467  25.486   2.336
46396W        W10164  13.290  10.221   0.307
46397W        W10165  33.927  37.492   4.130
46398W        W10166  15.141  17.082   2.225
46399W        W10167  22.169   4.839  13.996
46400W        W10168  20.600  41.924   3.364
46401W        W10169  31.592  25.054  10.517
46402W        W10170  14.321   2.803   1.904
46403W        W10171   4.323  35.006   4.277
46404W        W10172  22.607  43.800   2.752
46405W        W10173  24.131   7.818   2.835
46406W        W10174  29.451  27.086   1.386
46407W        W10175  16.715  26.703   0.300
46408W        W10176  26.701  16.278  11.494
46409W        W10177  19.772  24.160   4.616
46410W        W10178   6.811  18.602   3.817
46411W        W10179  41.981  13.796   1.850
46412W        W10180  23.152  26.487  12.497
46413W        W10181  31.108   3.845   1.854
46414W        W10182   7.863  14.272  14.515
46415W        W10183  36.066  32.022  14.332
46416W        W10184  29.121  37.548  14.451
46417W        W10185   2.236  34.868  11.572
46418W        W10186   2.884   6.697   3.806
46419W        W10187  43.432  32.969   4.674
46420W        W10188  11.268  21.709   4.768
46421W        W10189  30.489   1.744  13.463
46422W        W10190  19.153   6.825  12.940
46423W        W10191  26.961  27.170   3.827
46424W        W10192   4.398   3.284   0.842
46425W        W10193  43.342   3.454   0.278
46426W        W10194  15.290   8.404   1.418
46427W        W10195  37.522  39.851   4.619
46428W        W10196  39.811   3.348  14.481
46429W        W10197   6.362   8.276  10.152
46430W        W10198  34.982   9.277   9.970
46431W        W10199  29.428   4.784  11.441
46432W        W10200  17.783  36.534  13.984
46433W        W10201  23.019  17.584  14.294
46434W        W10202  40.811  11.744   2.190
46435W        W10203   5.221   5.347  13.058
46436W        W10204  10.807  15.686  14.488
46437W        W10205  41.998   0.298  13.025
46438W        W10206  37.953  23.226   3.846
46439W        W10207  35.056  32.897  13.851
46440W        W10208  37.578  22.045  12.562
46441W        W10209   4.787  15.704   4.773
46442W        W10210  18.198  20.186   1.381
46443W        W10211   3.753  36.947   5.302
46444W        W10212  14.798  26.153   2.862
46445W        W10213  15.786   0.305  13.342
46446W        W10214  23.519  38.828   0.315
46447W        W10215  27.657  39.470  13.962
46448W        W10216  44.479  20.114   4.761
46449W        W10217   7.207  34.454   2.265
46450W        W10218  25.983   2.304  12.537
46451W        W10219   2.235  31.634  14.445
46452W        W10220  34.455  37.058  12.873
46453W        W10221  26.083  10.840  10.506
46454W        W10222  40.461  21.192   1.333
46455W        W10223  29.618  18.685  14.286
46456W        W10224   6.754  43.837  14.516
46457W        W10225   8.769  44.936   0.863
46458W        W10226  18.068  34.022  13.942
46459W        W10227  40.995  24.574  10.554
46460W        W10228  12.809  26.498   3.199
46461W        W10229  27.006  29.651   2.875
46462W        W10230  17.163  43.004  13.361
46463W        W10231   6.397  10.661   0.254
46464W        W10232  11.140  10.275  13.962
46465W        W10233  30.478   2.416   3.860
46466W        W10234   9.780  17.688  13.864
46467W        W10235   6.769   1.358   4.133
46468W        W10236  13.780  18.087   3.798
46469W        W10237  21.062  23.539  11.059
46470W        W10238  14.796  22.676  12.489
46471W        W10239  21.029  28.626  14.898
46472W        W10240  24.217  10.877  10.962
46473W        W10241  44.893   5.391  13.844
46474W        W10242  37.831  23.623   3.638
46475W        W10243   7.217  29.064  13.974
46476W        W10244  35.420  44.398  13.470
46477W        W10245  12.178  14.627   0.325
46478W        W10246  24.171   5.283  10.427
46479W        W10247   2.348  21.185   1.331
46480W        W10248   7.384  35.909  11.517
46481W        W10249  30.969   6.411  10.422
46482W        W10250  33.599  28.488   5.083
46483W        W10251  24.660  13.206   2.190
46484W        W10252   1.388  36.090  12.474
46485W        W10253  41.294   3.887  11.906
46486W        W10254  29.451  21.587  13.442
46487W        W10255  18.075  26.522  10.582
46488W        W10256  21.537  21.143   0.248
46489W        W10257  24.089  17.112  12.074
46490W        W10258  24.980  37.390   4.611
46491W        W10259  19.125  31.437  12.544
46492W        W10260  11.622  39.377  13.530
46493W        W10261  18.731  43.374   2.819
46494W        W10262  18.594   9.262   1.846
46495W        W10263   6.752  38.469  10.954
46496W        W10264   0.766  26.186   3.264
46497W        W10265  11.152   7.201   3.744
46498W        W10266  27.532  21.688  14.958
46499W        W10267   9.693  35.890   4.147
46500W        W10268   6.334  39.408  10.583
46501W        W10269  31.072  18.587   2.747
46502W        W10270  41.316  17.210  10.963
46503W        W10271  27.626  40.411   4.171
46504W        W10272  17.735  19.146  13.914
46505W        W10273  29.586  12.185  11.021
46506W        W10274  33.073  43.955  12.880
46507W        W10275   9.721  33.563   1.388
46508W        W10276  10.679  29.543  11.989
46509W        W10277  20.646   6.194   0.820
46510W        W10278  30.578   1.829  14.387
46511W        W10279  39.915  25.515   3.759
46512W        W10280   3.717  33.008  12.522
46513W        W10281  15.221  27.054   3.216
46514W        W10282  19.614  25.214  11.967
46515W        W10283  40.373  24.174   1.748
46516W        W10284   9.817  23.506  10.970
46517W        W10285   7.319  44.475   1.708
46518W        W10286   4.903   1.273   3.323
46519W        W10287   0.831  28.042   3.303
46520W        W10288  38.555  34.005   0.464
46521W        W10289  27.152   1.755   2.242
46522W        W10290  25.210  40.533  10.938
46523W        W10291  12.124  41.460  14.869
46524W        W10292  44.459   4.788   2.371
46525W        W10293  15.685  39.021  12.360
46526W        W10294   7.672   0.799   1.781
46527W        W10295  39.040  42.350   2.740
46528W        W10296  17.695  39.027   4.616
46529W        W10297   8.790   7.182  12.829
46530W        W10298   6.906   7.771   1.860
46531W        W10299  10.825  28.099   4.835
46532W        W10300  16.161  16.160  13.958
46533W        W10301  34.920  27.614  14.980
46534W        W10302  31.963  42.792  14.030
46535W        W10303  35.536  27.075   1.386
46536W        W10304  17.301  28.595   0.871
46537W        W10305  10.696  40.488  13.921
46538W        W10306  35.449  16.191  12.011
46539W        W10307  42.295  16.109  13.025
46540W        W10308  16.231   0.313   4.671
46541W        W10309  22.030   8.715  11.466
46542W        W10310   8.347  38.435   1.822
46543W        W10311  11.263  22.165  14.912
46544W        W10312  42.364   1.798   2.813
46545W        W10313   9.249   9.796  13.436
46546W        W10314  42.308  27.157  12.833
46547W        W10315  15.805   0.432   2.328
46548W        W10316  20.714   1.263  13.063
46549W        W10317  24.489  43.887  12.551
46550W        W10318  26.975  40.852  14.470
46551W        W10319   9.157   6.790  11.076
46552W        W10320  16.166  28.540  11.561
46553W        W10321   6.352  21.672   4.231
46554W        W10322  24.978  33.519   2.664
46555W        W10323  28.629   4.222  13.915
46556W        W10324   3.420  41.494  10.974
46557W        W10325  34.380  22.602   4.613
46558W        W10326   4.411  26.682  11.070
46559W        W10327  30.603   3.229  13.500
46560W        W10328  31.616  10.854  11.396
46561W        W10329  13.736  14.327  14.973
46562W        W10330  20.183  22.995   3.726
46563W        W10331  26.138  41.333  12.857
46564W        W10332  16.176   9.810  14.849
46565W        W10333  38.411   0.957  13.453
46566W        W10334  33.965  14.806  12.417
46567W        W10335  35.555  21.532  14.957
46568W        W10336  13.139  12.719   0.913
46569W        W10337  18.616  43.415  11.420
46570W        W10338   2.728  43.949  13.389
46571W        W10339  29.649   5.863  14.004
46572W        W10340  13.754  19.176  13.912
46573W        W10341  37.831   0.388  14.927
46574W        W10342  20.624  44.938  14.308
46575W        W10343  28.639  22.529  11.861
46576W        W10344  26.197  38.505  14.278
46577W        W10345  27.525  34.937  10.460
46578W        W10346   6.703  33.981   1.356
46579W        W10347   8.756  37.408  14.445
46580W        W10348  34.582  26.149   1.402
46581W        W10349  10.728  41.295   4.719
46582W        W10350  34.382  30.414  14.279
46583W        W10351  32.076  14.207   1.271
46584W        W10352   9.739  27.504   1.742
46585W        W10353  17.179  24.222   1.747
46586W        W10354  44.769   3.215   1.335
46587W        W10355  34.119  24.553  10.618
46588W        W10356   2.895  19.714   0.906
46589W        W10357  11.127  29.510   2.258
46590W        W10358  16.638   3.726   2.196
46591W        W10359  28.491  12.830  12.875
46592W        W10360  19.734  16.267   0.246
46593W        W10361  40.944   0.909   0.863
46594W        W10362   7.333  36.865  10.615
46595W        W10363  17.616   3.775   4.686
46596W        W10364  12.816  18.745  13.866
46597W        W10365  12.164  43.980  10.953
46598W        W10366  35.531  27.448  14.435
46599W        W10367  33.513   8.845   2.323
46600W        W10368  24.644  37.043   2.889
46601W        W10369  24.649  39.980  11.388
46602W        W10370   1.912  22.598  10.605
46603W        W10371  19.156  23.594  14.822
46604W        W10372  17.754  27.021  12.900
46605W        W10373  44.813  21.738  10.453
46606W        W10374  31.621   8.267  12.444
46607W        W10375  35.968   6.252  14.466
46608W        W10376   1.865  10.217  13.962
46609W        W10377  18.266  40.830  13.997
46610W        W10378  20.245  10.264   3.230
46611W        W10379  14.121  12.222  11.607
46612W        W10380  41.471   8.715  13.423
46613W        W10381  20.220  19.062  13.054
46614W        W10382  23.098  31.076  12.870
46615W        W10383   1.845  35.024   2.289
46616W        W10384  23.100   3.826  11.574
46617W        W10385  13.600  27.652   1.217
46618W        W10386  37.519  33.626  12.063
46619W        W10387  43.935  23.996   4.687
46620W        W10388  40.011  29.102   1.727
46621W        W10389   4.323  37.567  12.365
46622W        W10390  13.111  34.461  14.026
46623W        W10391   4.793   4.364  11.382
46624W        W10392   2.882  26.106   1.879
46625W        W10393  17.249   5.851  13.376
46626W        W10394  29.059  41.313  12.410
46627W        W10395  34.561  38.558   4.653
46628W        W10396  40.357  35.499  11.033
46629W        W10397  22.244  20.755  12.376
46630W        W10398   7.768  28.455   2.293
46631W        W10399  25.623  22.681   0.831
46632W        W10400  11.363  26.035   1.429
46633W        W10401  33.619  22.715   3.303
46634W        W10402  20.670  24.189   4.745
46635W        W10403  34.900  14.154  13.913
46636W        W10404  26.161  11.242   3.740
46637W        W10405  42.385  40.993   2.183
46638W        W10406  44.833  17.115   4.325
46639W        W10407  12.321  11.848   4.124
46640W        W10408   3.884  29.514   3.258
46641W        W10409  14.650   2.244   4.202
46642W        W10410  21.188  16.732   3.688
46643W        W10411  42.487  14.603  13.398
46644W        W10412   3.756   9.269  13.050
46645W        W10413  10.803   2.837  10.436
46646W        W10414  13.224  37.441  10.129
46647W        W10415  43.315  29.439   1.366
46648W        W10416   3.830   1.792   0.788
46649W        W10417  37.013  39.860  10.420
46650W        W10418  24.685  17.682   3.206
46651W        W10419  35.024   0.931   3.225
46652W        W10420  38.886   8.754   1.231
46653W        W10421   8.866   8.719   3.853
46654W        W10422  18.560  14.735   0.827
46655W        W10423  35.502  43.476  11.042
46656W        W10424  28.126  41.454   9.971
46657W        W10425   5.257  42.027   4.143
46658W        W10426  37.904  42.894   3.832
46659W        W10427  21.550  35.090   0.385
46660W        W10428  13.223  16.123   2.301
46661W        W10429  24.481  11.239  11.598
46662W        W10430   0.461  41.790   3.642
46663W        W10431  21.650  30.454   2.297
46664W        W10432  21.747  22.163  14.012
46665W        W10433  27.465   8.789   3.870
46666W        W10434   0.771  20.634   3.764
46667W        W10435  21.231  20.653  10.976
46668W        W10436  23.044   3.223   4.193
46669W        W10437   3.253  13.666   0.325
46670W        W10438   2.759  40.335   3.161
46671W        W10439  39.406   2.923   1.253
46672W        W10440  11.727  17.766  11.564
46673W        W10441  42.857  41.859  14.317
46674W        W10442  17.114  41.429  14.961
46675W        W10443  21.074  34.118   0.478
46676W        W10444  23.705   0.864  14.347
46677W        W10445  35.077  26.520  12.518
46678W        W10446   4.303  20.215  12.894
46679W        W10447  38.520  22.528   4.762
46680W        W10448   9.660  30.981   4.753
46681W        W10449  29.011  42.368  14.930
46682W        W10450  38.486  32.601   1.325
46683W        W10451  24.993  11.342  10.562
46684W        W10452  16.276   3.461   3.757
46685W        W10453  27.988   4.710  14.933
46686W        W10454  21.629  36.414   4.698
46687W        W10455  36.519  34.498   2.306
46688W        W10456  15.115  23.712  13.384
46689W        W10457  35.102   9.774  10.911
46690W        W10458  26.573  15.183   3.302
46691W        W10459  19.608  20.137   1.403
46692W        W10460  18.544  19.170   3.759
46693W        W10461  15.672  27.990   3.305
46694W        W10462  19.160  36.465   4.240
46695W        W10463  12.626   1.889  14.810
46696W        W10464   9.333  34.014  14.369
46697W        W10465  24.649  36.883   3.676
46698W        W10466  36.954  23.081  10.910
46699W        W10467  27.004  39.031  13.026
46700W        W10468  30.594  26.579   0.437
46701W        W10469   2.823  18.639  12.566
46702W        W10470   4.940  30.100   4.346
46703W        W10471  27.448  19.536   3.383
46704W        W10472  17.275  42.859  10.100
46705W        W10473  38.359  29.078  11.914
46706W        W10474  42.299  41.985  14.914
46707W        W10475  40.470   7.392  10.053
46708W        W10476   3.771  34.515  12.032
46709W        W10477   0.455  16.139   0.374
46710W        W10478   6.409  36.396   4.246
46711W        W10479  35.395  24.486   2.702
46712W        W10480  30.123   3.855  14.440
46713W        W10481  38.520  42.841   2.206
46714W        W10482   6.189  44.824  11.600
46715W        W10483   4.924  37.557  13.857
46716W        W10484  26.990  36.493   3.659
46717W        W10485  36.462   2.372   3.795
46718W        W10486   0.812  24.050   4.207
46719W        W10487  25.550  23.157   2.866
46720W        W10488  26.483   3.272   1.808
46721W        W10489  23.566  10.856  14.806
46722W        W10490  23.639   0.939  12.509
46723W        W10491   2.747  13.759   0.848
46724W        W10492   9.296  15.317   2.749
46725W        W10493  32.626  10.274   4.194
46726W        W10494   0.979   7.200   5.289
46727W        W10495  24.108  24.669  12.849
46728W        W10496  39.521  32.961  11.611
46729W        W10497   6.396  40.032  13.872
46730W        W10498   7.179   8.687   4.212
46731W        W10499  40.520  39.370  11.973
46732W        W10500  22.685   0.977  12.538
46733W        W10501   1.958  14.282   4.123
46734W        W10502  17.640  38.385   0.931
46735W        W10503  37.025  10.812  13.006
46736W        W10504   7.674   0.383  11.108
46737W        W10505   1.280  12.827  12.068
46738W        W10506  14.203  41.329   3.718
46739W        W10507  27.530  22.246  11.052
46740W        W10508  18.614  30.588  13.442
46741W        W10509   2.385   9.256  14.469
46742W        W10510  33.880  16.158   1.258
46743W        W10511  24.685   9.806   9.604
46744W        W10512  32.465  24.193  11.545
46745W        W10513   6.383  25.705  12.451
46746W        W10514  23.133  19.178   1.792
46747W        W10515   9.817  41.923  12.982
46748W        W10516   2.816  41.010   4.704
46749W        W10517  18.085  39.881   1.224
46750W        W10518  43.991  17.061   2.211
46751W        W10519   3.783  19.749   1.256
46752W        W10520  29.630   8.757   0.756
46753W        W10521   4.912   2.336  10.894
46754W        W10522  10.171   5.804   1.737
46755W        W10523  14.302  17.700  14.364
46756W        W10524   0.315  22.597   3.752
46757W        W10525  22.511  35.883  13.893
46758W        W10526  14.813   5.768   3.213
46759W        W10527   1.409  21.689  12.388
46760W        W10528  16.797  26.963  14.925
46761W        W10529  17.140   0.274   1.362
46762W        W10530   9.202  36.400  14.837
46763W        W10531  15.655  44.336  13.863
46764W        W10532  27.077  38.547  14.327
46765W        W10533  29.017  17.117  11.470
46766W        W10534  26.176  16.263   1.216
46767W        W10535  23.030  22.527   3.770
46768W        W10536  38.976  39.467   1.804
46769W        W10537  42.960  32.125   1.851
46770W        W10538  28.630  15.743   3.744
46771W        W10539  32.507  26.623  11.486
46772W        W10540  41.395  21.740  13.356
46773W        W10541   2.805  41.958  10.559
46774W        W10542  28.499  27.107   1.356
46775W        W10543  13.214   2.269  13.842
46776W        W10544  23.237  31.572  10.940
46777W        W10545  24.544   5.433  14.898
46778W        W10546  21.698  25.649  13.488
46779W        W10547   0.907  37.395   0.894
46780W        W10548  21.072  29.430   5.287
46781W        W10549  25.607  28.605   3.765
46782W        W10550  21.683   1.807   4.678
46783W        W10551  25.090  24.662  13.460
46784W        W10552  33.565  16.283   9.932
46785W        W10553  14.154   4.400   3.273
46786W        W10554  14.634  20.629  14.003
46787W        W10555   4.272   7.707   1.759
46788W        W10556  42.412   2.411   0.282
46789W        W10557  18.784   1.266   0.837
46790W        W10558   4.725   0.742  14.844
46791W        W10559  28.670   9.252   2.861
46792W        W10560  37.365   2.886  13.520
46793W        W10561  40.325  15.322  13.980
46794W        W10562  20.724  17.662  11.532
46795W        W10563  35.444  28.669  10.426
46796W        W10564  12.219   5.327  11.049
46797W        W10565   3.375  38.379   4.192
46798W        W10566  42.905  44.350   5.138
46799W        W10567  21.164  24.034   4.711
46800W        W10568  14.306  42.864   3.245
46801W        W10569  24.205  23.228   0.452
46802W        W10570  29.470  21.090   1.793
46803W        W10571  40.309  37.849  10.562
46804W        W10572  17.774  31.458   2.769
46805W        W10573  19.118   8.291   1.800
46806W        W10574  37.346  19.666   1.258
46807W        W10575   5.296  24.067  11.597
46808W        W10576  13.821  18.181  11.914
46809W        W10577  36.499  21.248   2.839
46810W        W10578  44.296  41.800   3.815
46811W        W10579  28.972  32.453  14.309
46812W        W10580  33.944   8.181   3.296
46813W        W10581  26.063  15.703   2.716
46814W        W10582  24.085   6.892   2.804
46815W        W10583  24.724  40.018  13.321
46816W        W10584   6.206   0.878   1.368
46817W        W10585  39.981   7.821  14.975
46818W        W10586  37.915  36.068   3.159
46819W        W10587  35.868   8.353   0.265
46820W        W10588  27.038  19.702   0.274
46821W        W10589  41.040   1.295  13.546
46822W        W10590  37.913  36.414  14.379
46823W        W10591  39.438  13.214   3.356
46824W        W10592  25.557  18.593   2.718
46825W        W10593  16.207   2.263  11.977
46826W        W10594   5.830   0.473   1.383
46827W        W10595   7.884  22.635  11.886
46828W        W10596  17.644  22.618   3.244
46829W        W10597  34.522  16.698  13.847
46830W        W10598  43.481   0.413  14.908
46831W        W10599  41.538   6.411  11.996
46832W        W10600   5.752  40.845   4.715
46833W        W10601  41.786  32.587  13.955
46834W        W10602  33.383  44.277  13.854
46835W        W10603  23.626  18.114  13.060
46836W        W10604  28.073  24.713  12.567
46837W        W10605   5.434  17.648  14.876
46838W        W10606  39.822  38.359  13.477
46839W        W10607  40.822  40.370   1.749
46840W        W10608  19.696   6.341  11.075
46841W        W10609   0.368  22.595  14.800
46842W        W10610  35.544  26.035   4.285
46843W        W10611  28.586  35.058  10.967
46844W        W10612  44.456  29.171  14.296
46845W        W10613  16.666  12.163  14.823
46846W        W10614   1.246  18.735   3.351
46847W        W10615   2.299  37.061  13.513
46848W        W10616  24.583  35.470  14.485
46849W        W10617  17.565  18.550  11.048
46850W        W10618  18.694  27.168   0.259
46851W        W10619  28.627  22.229   0.808
46852W        W10620  33.540  41.419  13.454
46853W        W10621   8.248  18.700  13.005
46854W        W10622  32.929   7.840   4.769
46855W        W10623  32.982  16.796  14.945
46856W        W10624   2.275  18.734  10.926
46857W        W10625   2.804  12.217   0.953
46858W        W10626  10.302  44.367  12.551
46859W        W10627  17.773  26.107  12.864
46860W        W10628  20.048   6.333   3.679
46861W        W10629   5.239  33.060  10.472
46862W        W10630  24.492  21.631  11.981
46863W        W10631   1.423  15.098   1.312
46864W        W10632  40.495  10.181   5.232
46865W        W10633   7.204  16.251  14.834
46866W        W10634  28.131   7.229   3.656
46867W        W10635   6.781  26.484   2.873
46868W        W10636   6.255   1.349  11.094
46869W        W10637  42.810  35.937  14.395
46870W        W10638  14.192  32.598  12.020
46871W        W10639  17.673  42.325  14.281
46872W        W10640  30.946  44.959  12.997
46873W        W10641  30.559  20.731   0.760
46874W        W10642  36.875  15.278   4.815
46875W        W10643  41.948   6.423   3.742
46876W        W10644  39.943  24.156   2.775
46877W        W10645  17.112  28.102   2.726
46878W        W10646  22.695  19.050  14.437
46879W        W10647  34.896  10.182  12.836
46880W        W10648  25.051  37.990   2.715
46881W        W10649  34.951  12.788   3.642
46882W        W10650  38.051  42.488  10.605
46883W        W10651   7.698   0.977   2.410
46884W        W10652  20.685   9.714   3.200
46885W        W10653  34.084   0.975  10.913
46886W        W10654  17.139  34.552   0.879
46887W        W10655  39.930   1.873   4.192
46888W        W10656   4.718  23.513   5.255
46889W        W10657  42.019  12.837   4.646
46890W        W10658  39.329  12.634   1.714
46891W        W10659  30.010  27.182   0.467
46892W        W10660  14.127  43.768  14.804
46893W        W10661  17.729  12.233  10.571
46894W        W10662  44.321  26.205  12.368
46895W        W10663  40.839  41.961  14.318
46896W        W10664   1.823  15.783   1.430
46897W        W10665  39.003  26.054   2.209
46898W        W10666  23.217  35.092   4.767
46899W        W10667   8.387  17.699   4.705
46900W        W10668  17.125  38.965  12.448
46901W        W10669   2.408   8.895   1.844
46902W        W10670  35.066  22.101   2.695
46903W        W10671  21.107  30.524  11.127
46904W        W10672  19.250   6.901   4.789
46905W        W10673   8.747  30.121  11.040
46906W        W10674  31.938  20.768  14.821
46907W        W10675  18.203   9.343  10.466
46908W        W10676  23.499  15.205   0.424
46909W        W10677  44.805   9.708   1.899
46910W        W10678   8.269  15.742   2.387
46911W        W10679  15.123  36.005   3.862
46912W        W10680  39.977  43.844   4.624
46913W        W10681  39.473  13.138   0.896
46914W        W10682  18.115   3.291  14.369
46915W        W10683  24.568   0.407   3.298
46916W        W10684   8.740  38.025   1.888
46917W        W10685  23.035  18.291  12.560
46918W        W10686  15.602  42.819  11.456
46919W        W10687  12.745  37.016  13.437
46920W        W10688  25.101  19.205  12.955
46921W        W10689  43.920   0.307  12.921
46922W        W10690  32.439   3.776   2.253
46923W        W10691   6.773  41.330   2.727
46924W        W10692  39.034  36.492  13.893
46925W        W10693  17.105  36.552   2.413
46926W        W10694  36.505  19.620   1.387
46927W        W10695   8.759  30.599  11.955
46928W        W10696   8.285  17.154   1.769
46929W        W10697  43.916   8.690  11.442
46930W        W10698  23.511  20.676  10.599
46931W        W10699   3.401  11.787  12.406
46932W        W10700  18.287  21.739   2.685
46933W        W10701  40.991  40.351   2.695
46934W        W10702  42.952   3.267  14.989
46935W        W10703  17.572  39.861   3.677
46936W        W10704  36.530  30.586  12.436
46937W        W10705  15.810  37.983   4.661
46938W        W10706  40.498   3.409   1.257
46939W        W10707   5.837  22.058   2.718
46940W        W10708  43.833  10.370  14.834
46941W        W10709   4.371  15.662  14.786
46942W        W10710  43.473  13.655   0.375
46943W        W10711  26.140  14.613   3.649
46944W        W10712  34.036  35.030   4.660
46945W        W10713   3.719  33.960  12.473
46946W        W10714   7.888   1.301  11.501
46947W        W10715   5.404  37.071  12.877
46948W        W10716   0.889  23.561  11.120
46949W        W10717  17.735  19.733   4.131
46950W        W10718  23.014  18.721  10.473
46951W        W10719  13.318  42.831   1.771
46952W        W10720   1.353  27.162   3.201
46953W        W10721  15.221  21.541  11.594
46954W        W10722  19.640  11.178   1.226
46955W        W10723  25.181  16.217   1.364
46956W        W10724   0.405  16.762   0.734
46957W        W10725   2.442  18.669   4.765
46958W        W10726  21.737  18.654   3.685
46959W        W10727   0.831  23.613  14.873
46960W        W10728   1.284  34.069   4.812
46961W        W10729   4.751  20.200   5.185
46962W        W10730   8.872   2.934  11.610
46963W        W10731  33.537  33.418   2.887
46964W        W10732  33.018  11.298  13.487
46965W        W10733  43.505  18.065  14.297
46966W        W10734  20.661   6.818  12.557
46967W        W10735  42.978  43.940   0.306
46968W        W10736  44.461  17.135  14.821
46969W        W10737  34.863  18.545  13.366
46970W        W10738  25.066  33.106  13.349
46971W        W10739  31.494  20.224  14.281
46972W        W10740  27.113  16.761   2.312
46973W        W10741   8.271  31.615  14.293
46974W        W10742  15.742  31.994  12.844
46975W        W10743   5.423  44.472  10.420
46976W        W10744  41.890  35.053   1.780
46977W        W10745  17.306  42.411  10.522
46978W        W10746  26.082  41.028  11.540
46979W        W10747   7.709  43.802  14.011
46980W        W10748  23.648  18.203   3.808
46981W        W10749  40.931  37.413   4.187
46982W        W10750  31.995  12.614  11.067
46983W        W10751  12.171  35.914   2.207
46984W        W10752  43.422   6.377   1.816
46985W        W10753  44.406   8.328   3.197
46986W        W10754  36.456  40.498   2.734
46987W        W10755  38.935  12.662   1.895
46988W        W10756  20.129  29.633  12.870
46989W        W10757  23.564   7.380   0.252
46990W        W10758  35.942   4.292   0.923
46991W        W10759  21.038  11.723   2.768
46992W        W10760  12.306  40.900  12.936
46993W        W10761  23.697   0.474   2.870
46994W        W10762  35.090  17.640  12.540
46995W        W10763  29.068  10.378   3.191
46996W        W10764   6.304  15.697   0.945
46997W        W10765  18.062  27.643   4.172
46998W        W10766   1.782   9.318  13.428
46999W        W10767   1.910  14.679  14.322
47000W        W10768  31.549  14.117  14.438
47001W        W10769  39.350   3.917  10.982
47002W        W10770  38.853  19.056   0.393
47003W        W10771  39.828  33.417   1.217
47004W        W10772   7.749  26.987  10.940
47005W        W10773   6.727  30.516  10.600
47006W        W10774  30.461  41.369   1.719
47007W        W10775   2.390  22.235   0.851
47008W        W10776   2.795  28.580  12.570
47009W        W10777  25.607  17.757   2.348
47010W        W10778  39.882  22.559  10.935
47011W        W10779  17.585  41.308  11.923
47012W        W10780   7.213  41.463   3.870
47013W        W10781  29.535  12.161  13.329
47014W        W10782   6.899   0.755  11.521
47015W        W10783  12.643  11.803   0.835
47016W        W10784   4.891  39.842   5.110
47017W        W10785   8.814  29.569   1.299
47018W        W10786  36.998   2.852   2.238
47019W        W10787  25.126  25.496   3.177
47020W        W10788  29.985  23.015  10.568
47021W        W10789  21.524   6.854   1.263
47022W        W10790  27.181  11.269   2.828
47023W        W10791  37.040  20.695  12.076
47024W        W10792  26.015  25.019  14.511
47025W        W10793  38.027  30.643   2.352
47026W        W10794  33.430   6.413  13.004
47027W        W10795  19.081   5.853  10.634
47028W        W10796  13.117  38.935   3.360
47029W        W10797   9.208   7.279   1.763
47030W        W10798  14.140  36.492   0.916
47031W        W10799  36.909  42.912   3.824
47032W        W10800  20.757  29.473   4.835
47033W        W10801  17.212   7.222   3.381
47034W        W10802   5.925  19.063   4.220
47035W        W10803   6.386  31.081  12.393
47036W        W10804  16.247  22.573   0.729
47037W        W10805  32.473  37.069  14.438
47038W        W10806  29.663  19.212  11.994
47039W        W10807  42.313   8.350  12.449
47040W        W10808  26.593  12.725   1.709
47041W        W10809  38.444  30.163  11.925
47042W        W10810  33.996   7.409  11.440
47043W        W10811  10.869   3.920   4.765
47044W        W10812  32.099  11.644  14.808
47045W        W10813  41.486  23.064  14.280
47046W        W10814   2.461  34.865  14.894
47047W        W10815  18.129  23.504  10.083
47048W        W10816   9.269  39.920  13.808
47049W        W10817  16.630   0.962  12.932
47050W        W10818   8.332  29.599  11.967
47051W        W10819  16.787  22.631  10.108
47052W        W10820  20.619  10.335  12.435
47053W        W10821  29.626   7.235  10.433
47054W        W10822  21.050  44.777  11.406
47055W        W10823  44.458  25.963   4.742
47056W        W10824  36.022  20.551  12.986
47057W        W10825   2.801  32.938  12.574
47058W        W10826   3.724  35.364  10.963
47059W        W10827   3.941   0.373  11.478
47060W        W10828  35.528  27.676  12.457
47061W        W10829  35.572  18.081   4.351
47062W        W10830  22.196  19.710  12.539
47063W        W10831  38.939  22.571  13.022
47064W        W10832  44.821   1.818   1.333
47065W        W10833   1.378  35.547  14.485
47066W        W10834   3.833  33.921  12.859
47067W        W10835  38.065  32.603  14.803
47068W        W10836  30.604  30.909   2.886
47069W        W10837   5.235  24.670   4.172
47070W        W10838  16.791   5.907  10.454
47071W        W10839  27.063   5.345   3.359
47072W        W10840   6.746  12.696  11.586
47073W        W10841   9.717   7.274   4.299
47074W        W10842  19.695  22.218   9.966
47075W        W10843  22.064  16.123  10.598
47076W        W10844  25.997  12.202  13.019
47077W        W10845   7.696  36.371  11.063
47078W        W10846  33.052  26.638   1.909
47079W        W10847  39.819  19.561  14.310
47080W        W10848  44.936  19.766  11.525
47081W        W10849  28.615   0.984   4.170
47082W        W10850  32.598  33.987  11.998
47083W        W10851   3.433  34.386   1.700
47084W        W10852  23.649  16.302  12.890
47085W        W10853  14.702  20.548  14.415
47086W        W10854   9.338  37.511   4.281
47087W        W10855  39.380  37.027  14.366
47088W        W10856   1.907   4.820   3.811
47089W        W10857   4.380   7.722  11.946
47090W        W10858  12.153  26.953   3.310
47091W        W10859  32.018  41.506  14.765
47092W        W10860  10.204   9.697  13.475
47093W        W10861   0.930  44.845   3.711
47094W        W10862   3.741  33.513  11.013
47095W        W10863  43.274  28.971   4.672
47096W        W10864  20.552  42.862   1.259
47097W        W10865  20.542  37.346   4.239
47098W        W10866  26.515   7.186   2.740
47099W        W10867   5.300  43.824   1.896
47100W        W10868  10.732  42.837   9.977
47101W        W10869  19.235  43.342   0.259
47102W        W10870  41.469  22.507   2.859
47103W        W10871  19.172  44.901   2.242
47104W        W10872  32.018  28.160   0.869
47105W        W10873  12.742  26.689   2.819
47106W        W10874  43.956  27.002  11.108
47107W        W10875  36.370  20.246   3.677
47108W        W10876  31.046   4.754  13.877
47109W        W10877  39.543  31.988  13.856
47110W        W10878  30.940  17.638  14.300
47111W        W10879  30.621  38.531   0.320
47112W        W10880   3.380  27.460  11.024
47113W        W10881  15.309   1.841  11.896
47114W        W10882  30.467  39.054   2.785
47115W        W10883  38.350  25.628  12.358
47116W        W10884   5.803  27.468  11.455
47117W        W10885  42.527   5.922   0.886
47118W        W10886   0.757   7.229   3.159
47119W        W10887  37.397  36.069   2.326
47120W        W10888  14.677  15.707   2.310
47121W        W10889  30.468   1.306  10.479
47122W        W10890  34.416  32.133   3.164
47123W        W10891  44.898  14.641  13.438
47124W        W10892  37.899  16.636  10.459
47125W        W10893  18.615   5.226  11.044
47126W        W10894  16.256  36.570   1.242
47127W        W10895  38.914  25.684   4.354
47128W        W10896  27.532  26.028   3.261
47129W        W10897  33.427  16.167   2.835
47130W        W10898  42.032  13.142   4.341
47131W        W10899  43.855  15.308   4.659
47132W        W10900  27.630  44.417  10.431
47133W        W10901  35.551  20.199  10.968
47134W        W10902  43.885  15.114  13.307
47135W        W10903  12.149  39.394   4.774
47136W        W10904  36.896   4.793  12.525
47137W        W10905  25.660  11.196   9.450
47138W        W10906  41.454  43.325  11.006
47139W        W10907  31.485  30.145   2.284
47140W        W10908  24.536  15.222  11.993
47141W        W10909  37.039  39.038   2.304
47142W        W10910  27.552   3.786   4.696
47143W        W10911  31.035  14.716   3.723
47144W        W10912   1.825  25.576   3.361
47145W        W10913  26.554  43.897   1.877
47146W        W10914   4.788  38.056   2.307
47147W        W10915  40.397  32.556  12.496
47148W        W10916  42.380   1.754   4.719
47149W        W10917   6.840  32.591   3.192
47150W        W10918  24.991   9.218   2.318
47151W        W10919   8.336   7.319  14.434
47152W        W10920  25.202   0.867  12.070
47153W        W10921  13.708   2.359   3.380
47154W        W10922  20.764  39.937  10.514
47155W        W10923  38.487  39.064   3.743
47156W        W10924   6.247  22.570  14.406
47157W        W10925  20.206  22.233  13.847
47158W        W10926  24.036  16.089   3.214
47159W        W10927  13.125  37.910   2.796
47160W        W10928  36.985  20.615   3.693
47161W        W10929  27.167  39.957   0.803
47162W        W10930   7.203   2.452   4.680
47163W        W10931   9.315  33.035  11.054
47164W        W10932  12.626  11.361   2.901
47165W        W10933  19.728   4.422  11.547
47166W        W10934  33.932  27.588   3.228
47167W        W10935  27.055  27.148  13.539
47168W        W10936  18.768  23.706   3.306
47169W        W10937  39.509  42.906   3.799
47170W        W10938  14.108  40.908  13.838
47171W        W10939  27.173  33.076  10.553
47172W        W10940  41.494  38.891   5.114
47173W        W10941  34.583  34.888  14.820
47174W        W10942  37.085  25.203  11.556
47175W        W10943  13.752   0.395   2.232
47176W        W10944  25.676  30.460  10.052
47177W        W10945  44.373  40.983  14.797
47178W        W10946   0.923  26.061  12.437
47179W        W10947  11.621  11.188   2.235
47180W        W10948  41.355  25.540   4.162
47181W        W10949  30.074   2.388   1.363
47182W        W10950  24.056  10.191  14.883
47183W        W10951  36.380   9.392   1.211
47184W        W10952  25.554  29.559   3.683
47185W        W10953  25.136  43.951   1.903
47186W        W10954  15.296  22.662  11.934
47187W        W10955  27.603  36.009  11.928
47188W        W10956  31.419  10.741  13.951
47189W        W10957  37.831  26.072   0.482
47190W        W10958  24.558   9.782  10.154
47191W        W10959  21.079  23.100  13.868
47192W        W10960  32.078  36.563  12.045
47193W        W10961  42.405  44.803   0.885
47194W        W10962  11.780  22.737  12.904
47195W        W10963  28.551  33.030   0.407
47196W        W10964  38.397  15.628   4.147
47197W        W10965  24.179  39.359   4.258
47198W        W10966  33.426  14.614   2.833
47199W        W10967   2.456  29.175   4.267
47200W        W10968  16.786  25.218  13.826
47201W        W10969  27.108  26.514  11.119
47202W        W10970  12.244  11.297   1.248
47203W        W10971  27.040  24.551  14.911
47204W        W10972   0.937  29.642  13.313
47205W        W10973  15.783  37.455   0.959
47206W        W10974  11.233  11.820   0.409
47207W        W10975  43.415   4.940   4.711
47208W        W10976  41.898  31.574   3.289
47209W        W10977   0.787  37.556   1.931
47210W        W10978  31.913  13.622   0.466
47211W        W10979  43.877  42.959   2.786
47212W        W10980  30.604  37.551  11.096
47213W        W10981   0.943  10.679  14.382
47214W        W10982  34.055  37.934   4.283
47215W        W10983   9.363  12.854  10.404
47216W        W10984  37.932   2.379  13.896
47217W        W10985  20.624  39.024  13.002
47218W        W10986  38.356  21.595   2.833
47219W        W10987   6.711   0.460  11.082
47220W        W10988  31.045  29.022  12.343
47221W        W10989  43.967  36.857  10.427
47222W        W10990  41.890  26.185   2.264
47223W        W10991  30.580  42.930   2.333
47224W        W10992  33.113  10.299  13.368
47225W        W10993  20.669  22.045  11.465
47226W        W10994   2.845  25.029   2.664
47227W        W10995  23.699   5.334  11.115
47228W        W10996  11.262  13.270   1.346
47229W        W10997  12.276  42.849  11.914
47230W        W10998  37.835   8.190   1.792
47231W        W10999  39.375  34.615   2.825
47232W        W11000  30.506  15.630   1.423
47233W        W11001  36.847  43.915  12.543
47234W        W11002   3.231  33.490  13.308
47235W        W11003  29.437   1.786  11.876
47236W        W11004  36.920  30.639  12.569
47237W        W11005  13.628  41.875  10.993
47238W        W11006  20.733  35.434   2.384
47239W        W11007   1.331   5.867  11.041
47240W        W11008  12.318  11.837   2.292
47241W        W11009  35.565   8.766   1.337
47242W        W11010   0.830  38.917   0.352
47243W        W11011  20.039  21.701  12.967
47244W        W11012   8.873  28.453  13.401
47245W        W11013   8.397   3.234   1.761
47246W        W11014  11.795  44.913   3.706
47247W        W11015  12.271  19.576  12.362
47248W        W11016  27.164   7.311   4.207
47249W        W11017   5.241  28.495   0.810
47250W        W11018   8.861   7.322   2.844
47251W        W11019  35.471  17.302   3.707
47252W        W11020  24.182  40.457  11.589
47253W        W11021   6.691  42.404  10.983
47254W        W11022  32.893  32.592   2.195
47255W        W11023  36.497  27.062  12.556
47256W        W11024  44.384  20.210   1.847
47257W        W11025  15.750  32.924   3.669
47258W        W11026  24.148  41.008  13.503
47259W        W11027  19.167  18.092   2.766
47260W        W11028  40.329  39.940   0.328
47261W        W11029   3.742   2.933  12.564
47262W        W11030  21.522  21.641  12.354
47263W        W11031  29.561  36.965   4.197
47264W        W11032  11.226   0.768  12.407
47265W        W11033  43.933  40.865  13.046
47266W        W11034   6.882   5.310  14.877
47267W        W11035  32.463  33.385  10.011
47268W        W11036  38.551   0.286   2.695
47269W        W11037  33.441   1.275   4.196
47270W        W11038   0.282  38.057  11.994
47271W        W11039  36.353  13.655  12.386
47272W        W11040  17.620  24.534   2.891
47273W        W11041  12.290  13.644   4.242
47274W        W11042  10.345  28.184   1.849
47275W        W11043  12.737   8.864   3.374
47276W        W11044  33.386  26.490  14.493
47277W        W11045  11.736  23.689  13.480
47278W        W11046  14.809  29.577  13.477
47279W        W11047   3.312  16.694   0.449
47280W        W11048   6.356   0.978  12.908
47281W        W11049  10.643  31.536   0.381
47282W        W11050  26.972   0.742   4.821
47283W        W11051  16.732  15.659  10.980
47284W        W11052   6.700  28.147   0.863
47285W        W11053  44.985  35.397   3.372
47286W        W11054  36.844  38.864   0.396
47287W        W11055  28.130  37.043   3.354
47288W        W11056  39.413  23.157   4.791
47289W        W11057  22.528  19.079  12.942
47290W        W11058  20.168  15.761  13.879
47291W        W11059  18.223   1.457  11.555
47292W        W11060  15.168  15.107   0.912
47293W        W11061  42.356  11.667  10.538
47294W        W11062  39.438  20.130  10.960
47295W        W11063   6.720  15.760  12.833
47296W        W11064  37.048  23.550  11.496
47297W        W11065  10.775  21.029   0.859
47298W        W11066   7.713  38.995  11.955
47299W        W11067  27.010  44.458  14.506
47300W        W11068  29.929   2.866   3.313
47301W        W11069  22.707  26.087   3.196
47302W        W11070  19.124  16.705   3.778
47303W        W11071   8.312  27.045  11.931
47304W        W11072  33.528  27.501   0.831
47305W        W11073   4.798  21.142  14.436
47306W        W11074  16.659  27.171   0.446
47307W        W11075  32.419   7.751  13.852
47308W        W11076  37.461  38.495  12.580
47309W        W11077  15.782  23.629  14.464
47310W        W11078  14.759  36.486   0.948
47311W        W11079   5.391  25.086  10.962
47312W        W11080  43.865  28.497   4.353
47313W        W11081  37.432  33.046  14.312
47314W        W11082  27.635  21.213   0.791
47315W        W11083  35.367   2.725   4.645
47316W        W11084  28.499  11.331  11.863
47317W        W11085  17.693  27.065   5.567
47318W        W11086   7.790  31.580   2.245
47319W        W11087  14.708   5.408   4.270
47320W        W11088  20.200  10.817   1.343
47321W        W11089  32.997  40.337   2.758
47322W        W11090  42.846   3.311   3.179
47323W        W11091  40.958  24.090  13.475
47324W        W11092  37.450  35.598   0.286
47325W        W11093  31.908  25.506   3.695
47326W        W11094  10.861  39.942  13.335
47327W        W11095  37.997  18.563   0.354
47328W        W11096  27.447  36.959  12.090
47329W        W11097  17.079   7.187   1.389
47330W        W11098  37.047  14.823  10.495
47331W        W11099  20.618  44.317   2.812
47332W        W11100  24.225  32.451   0.342
47333W        W11101  14.187  35.414  14.837
47334W        W11102  17.664  40.483   0.297
47335W        W11103  30.607   7.219  14.786
47336W        W11104   0.377  15.691   1.893
47337W        W11105  15.757  14.686  14.469
47338W        W11106  30.938  36.426   3.832
47339W        W11107  28.103   6.909  14.384
47340W        W11108  11.232   7.285  13.335
47341W        W11109  26.467  17.755  10.984
47342W        W11110  29.040  21.696   1.703
47343W        W11111  29.655  17.303  11.901
47344W        W11112  35.383   7.784  11.433
47345W        W11113   6.778  38.339  10.489
47346W        W11114  40.053  13.312  14.294
47347W        W11115   4.717  44.460  14.404
47348W        W11116   6.382  17.641   0.420
47349W        W11117  43.299   2.854  12.441
47350W        W11118  29.018  14.122   3.775
47351W        W11119  43.909  22.720  14.362
47352W        W11120  16.234   8.271  12.837
47353W        W11121  24.196   7.320   3.648
47354W        W11122  20.575  27.029  13.818
47355W        W11123  27.002   5.753   2.300
47356W        W11124   0.382  14.321  10.972
47357W        W11125  18.659  14.726  12.884
47358W        W11126  38.359  23.650  14.380
47359W        W11127   5.288   6.872  13.844
47360W        W11128  39.834  29.592   3.783
47361W        W11129   9.369   8.730  10.448
47362W        W11130   2.240   4.785   0.810
47363W        W11131  11.261  35.088   4.118
47364W        W11132  10.348  10.850   0.258
47365W        W11133  25.597  31.016  12.050
47366W        W11134  27.576   2.726  13.325
47367W        W11135   0.833   9.328  12.401
47368W        W11136   0.748   7.701  14.823
47369W        W11137  32.970  22.733  14.988
47370W        W11138   4.777  14.334   4.814
47371W        W11139  32.054  12.821   4.832
47372W        W11140  18.106  43.833   1.292
47373W        W11141   0.870  35.502  13.030
47374W        W11142  33.081  14.320   0.912
47375W        W11143  15.313   9.818   3.654
47376W        W11144  24.041  22.576   5.222
47377W        W11145  28.680  24.600  11.502
47378W        W11146   5.923  29.022   2.366
47379W        W11147  28.004  34.522  14.463
47380W        W11148  37.849  14.725  14.336
47381W        W11149  44.280  14.807   0.772
47382W        W11150   9.353  26.503   3.306
47383W        W11151   6.317  11.189  11.430
47384W        W11152  17.695  44.004   2.684
47385W        W11153  43.394  26.194   1.231
47386W        W11154  24.646  18.220   4.790
47387W        W11155  31.487  43.960  14.386
47388W        W11156   9.213  17.084  14.882
47389W        W11157  37.476  24.978  10.551
47390W        W11158  19.658   5.738  14.835
47391W        W11159  28.517  12.841  14.319
47392W        W11160  38.907  24.196   1.897
47393W        W11161  19.768   3.909   4.648
47394W        W11162  26.669   9.235  14.781
47395W        W11163   2.328   1.741   0.361
47396W        W11164  14.122   1.304  11.514
47397W        W11165  40.937  39.895  12.563
47398W        W11166  28.149   1.958   9.978
47399W        W11167   2.910  10.845  14.998
47400W        W11168  25.660  13.829   2.687
47401W        W11169   2.458   0.281  10.957
47402W        W11170  18.259  12.835   4.687
47403W        W11171  15.221  27.551   2.230
47404W        W11172  34.373  25.082   3.299
47405W        W11173  14.700  38.553   1.422
47406W        W11174  20.190  11.749  11.008
47407W        W11175  24.089  19.081   0.319
47408W        W11176  14.286   4.840   1.233
47409W        W11177   2.950  23.503   0.812
47410W        W11178   0.353  19.085   1.814
47411W        W11179  17.292  13.740  13.546
47412W        W11180  19.728  14.189   0.386
47413W        W11181  36.061  14.770  11.055
47414W        W11182  30.976  19.777   4.314
47415W        W11183   6.700  42.891  13.436
47416W        W11184   5.732  25.709   3.818
47417W        W11185  30.042   5.762  14.796
47418W        W11186  29.544  12.836   5.141
47419W        W11187  10.851  31.070  10.487
47420W        W11188  33.014  14.337  11.940
47421W        W11189   5.798  13.177   3.325
47422W        W11190  32.028  33.522  10.583
47423W        W11191  43.845  34.479   3.312
47424W        W11192  41.016  14.124   2.387
47425W        W11193  43.787  32.567   4.153
47426W        W11194  11.675  43.829  13.062
47427W        W11195  39.037  37.465   2.781
47428W        W11196  42.797   0.306   3.688
47429W        W11197   2.939  12.686  10.469
47430W        W11198  42.013  29.431   3.161
47431W        W11199  11.371  37.955   0.822
47432W        W11200  11.192  23.211   2.340
47433W        W11201  36.451  38.371   1.889
47434W        W11202   9.181  42.436   0.747
47435W        W11203  24.561  11.304  12.983
47436W        W11204  29.983   7.778   3.831
47437W        W11205   8.383  21.711   2.328
47438W        W11206   1.293  14.599  10.960
47439W        W11207  38.067  28.111   2.331
47440W        W11208  44.823   7.829   4.210
47441W        W11209   8.336   9.229  13.851
47442W        W11210   4.810  24.655  13.449
47443W        W11211   9.264  39.347   1.337
47444W        W11212  10.321  39.066   2.736
47445W        W11213  26.505   0.906   5.227
47446W        W11214  13.109   2.844   0.832
47447W        W11215   9.656   1.335  13.414
47448W        W11216  30.628  33.608   1.933
47449W        W11217  32.942  11.355  10.918
47450W        W11218   3.340  41.315  14.456
47451W        W11219  12.673  38.445   3.299
47452W        W11220   8.886   2.385   3.303
47453W        W11221  42.410   0.278  14.945
47454W        W11222  16.079  16.135  10.115
47455W        W11223  21.597  13.271  11.901
47456W        W11224  39.541  22.220  13.832
47457W        W11225  12.350  15.640  10.897
47458W        W11226  17.302  36.516  10.479
47459W        W11227  25.029  20.157   2.188
47460W        W11228  13.810   4.942  12.551
47461W        W11229  19.700   7.833   0.929
47462W        W11230  44.405  10.286  10.148
47463W        W11231  10.196  22.552  13.377
47464W        W11232  36.013  28.659   0.937
47465W        W11233  36.009   6.403   4.651
47466W        W11234  10.746   2.866  14.290
47467W        W11235  15.240  41.503  12.004
47468W        W11236  13.802   1.327  14.443
47469W        W11237  15.258  15.644  12.826
47470W        W11238  37.025  29.130  13.983
47471W        W11239   4.251  38.058  13.430
47472W        W11240   7.279  40.938   2.693
47473W        W11241   9.656   0.964   3.654
47474W        W11242   8.188  44.862  10.942
47475W        W11243   6.771  31.046   4.353
47476W        W11244  17.636   7.791   4.694
47477W        W11245  34.982  29.934  14.494
47478W        W11246  10.263  22.059   3.700
47479W        W11247  43.894  28.097  12.899
47480W        W11248  21.667  41.489  11.400
47481W        W11249  27.132   9.315   2.864
47482W        W11250   3.255  13.170   2.894
47483W        W11251  13.831  16.113  12.459
47484W        W11252  14.245  44.931   3.746
47485W        W11253  33.453  39.380   0.817
47486W        W11254  44.867  42.999   2.247
47487W        W11255  24.057  34.039  13.796
47488W        W11256   6.205  19.724  14.383
47489W        W11257  17.757  42.521   0.360
47490W        W11258   7.768  39.031  13.439
47491W        W11259   6.694   3.241  14.947
47492W        W11260  25.106  41.419   2.308
47493W        W11261  29.670   3.713  11.387
47494W        W11262  26.053  14.712  12.389
47495W        W11263  24.210  22.242  10.615
47496W        W11264  21.582  17.167   4.796
47497W        W11265  35.984  31.606  13.990
47498W        W11266  19.771   1.375   3.833
47499W        W11267  25.010   1.800  13.800
47500W        W11268  33.605  16.688   3.288
47501W        W11269  33.497  12.737  14.420
47502W        W11270  30.998  23.639  14.978
47503W        W11271  29.067   5.872  11.940
47504W        W11272  40.415   3.296  11.021
47505W        W11273  34.952  26.652   0.832
47506W        W11274   9.350  44.306   3.225
47507W        W11275  26.112  27.956  10.533
47508W        W11276  17.111  44.947   1.339
47509W        W11277   9.234  33.382  13.333
47510W        W11278   5.318  12.637   4.341
47511W        W11279  35.903  20.126   2.769
47512W        W11280  17.586   0.802   1.813
47513W        W11281  37.514  27.503   2.893
47514W        W11282   6.311  19.670  14.801
47515W        W11283  27.586  44.757  10.501
47516W        W11284   7.878  13.198  10.563
47517W        W11285  14.227  24.602  14.811
47518W        W11286  24.036  36.009   2.210
47519W        W11287  42.434  20.703   0.272
47520W        W11288  15.176  16.279  13.006
47521W        W11289   9.154   8.713   1.847
47522W        W11290  25.138  42.500   2.883
47523W        W11291  15.590  15.618  10.553
47524W        W11292  40.528  14.205  13.511
47525W        W11293  19.707  26.957  12.923
47526W        W11294  25.681  15.119  12.014
47527W        W11295  14.807  43.895  14.810
47528W        W11296  18.779  17.669   1.796
47529W        W11297  29.471  10.668   4.812
47530W        W11298  26.584   5.437  10.417
47531W        W11299  40.826  31.475  12.402
47532W        W11300  25.555   4.232  12.068
47533W        W11301  21.683  44.430   4.650
47534W        W11302   6.291   4.851   4.261
47535W        W11303   3.864  38.917   1.289
47536W        W11304  18.063  31.079   4.716
47537W        W11305  20.547   4.329  14.791
47538W        W11306  30.442  17.768   4.117
47539W        W11307   6.381  26.997   3.870
47540W        W11308   9.762  43.328   3.848
47541W        W11309  15.579   7.384   4.736
47542W        W11310  30.430   0.481  14.914
47543W        W11311  40.321   5.803   3.801
47544W        W11312  28.480  24.112   0.458
47545W        W11313  32.529  44.978  14.965
47546W        W11314  11.854  39.035   1.422
47547W        W11315  25.153   1.927   4.662
47548W        W11316   2.897  27.524   0.342
47549W        W11317  34.537  25.475   4.758
47550W        W11318  39.874  36.536  11.374
47551W        W11319   2.365  31.146   3.223
47552W        W11320  17.620  19.595  14.366
47553W        W11321  11.855   6.311   1.415
47554W        W11322  22.177  25.540  13.818
47555W        W11323  20.584   2.784   3.735
47556W        W11324  18.641  33.570  11.898
47557W        W11325  15.641   4.820  12.484
47558W        W11326   9.856   9.667  14.383
47559W        W11327  43.918   8.844  12.523
47560W        W11328  38.974  38.888   0.836
47561W        W11329  32.112  27.674   4.175
47562W        W11330  14.798   5.701   4.156
47563W        W11331  32.406  36.575   1.756
47564W        W11332  10.787  23.029   0.873
47565W        W11333  20.694   9.683   3.681
47566W        W11334  23.198  13.236   2.324
47567W        W11335  27.658  41.374  13.880
47568W        W11336   0.398   8.281   0.739
47569W        W11337  27.684  43.890   1.920
47570W        W11338  21.513  40.437  10.520
47571W        W11339  11.662  43.465  11.952
47572W        W11340  30.910   1.265  14.283
47573W        W11341  10.221   4.747  14.352
47574W        W11342  40.339  13.188  11.455
47575W        W11343  28.549   1.878  13.834
47576W        W11344  25.493   3.316   0.736
47577W        W11345  16.800  13.199   0.429
47578W        W11346  35.915  44.302   2.664
47579W        W11347   9.384  22.061   0.905
47580W        W11348   7.251  17.105   5.255
47581W        W11349  12.219   2.772  14.805
47582W        W11350  41.954  23.572   1.935
47583W        W11351   4.242   6.827  12.928
47584W        W11352   2.916  42.001  13.008
47585W        W11353  14.588  32.026   5.314
47586W        W11354  22.221  37.066  14.368
47587W        W11355  26.981  36.877  14.436
47588W        W11356  23.509  20.148  10.527
47589W        W11357  18.550  32.086   5.577
47590W        W11358   1.338  26.021   3.775
47591W        W11359  16.310  22.057  14.893
47592W        W11360  14.746  44.886  14.956
47593W        W11361  34.484   8.666   0.379
47594W        W11362  23.993   5.897  14.822
47595W        W11363  38.821   5.434  12.418
47596W        W11364  25.533  21.669  11.993
47597W        W11365  11.839  37.567   1.290
47598W        W11366  19.648   4.394   2.208
47599W        W11367   8.795   8.210  12.509
47600W        W11368   4.891  44.889  13.472
47601W        W11369  16.587   0.468   4.163
47602W        W11370  38.546  14.194   1.698
47603W        W11371   2.780   4.281   4.724
47604W        W11372  24.525   1.837   2.839
47605W        W11373  35.448  28.987   3.186
47606W        W11374   5.365   9.708   3.718
47607W        W11375  31.044  41.930   4.173
47608W        W11376  36.447  42.489   2.730
47609W        W11377  14.203  25.179  14.485
47610W        W11378  40.869  41.505  14.873
47611W        W11379  34.002  34.403   0.939
47612W        W11380  30.101  12.710   0.289
47613W        W11381   9.330   4.900   4.732
47614W        W11382  21.603  32.400   0.907
47615W        W11383   7.887  17.729  13.901
47616W        W11384   3.843  29.525  12.510
47617W        W11385  36.590  43.357   2.185
47618W        W11386   4.221  39.422   0.728
47619W        W11387   7.823  28.068  14.510
47620W        W11388  28.098   3.936   2.732
47621W        W11389  44.849  16.804  14.977
47622W        W11390  34.872  12.341   0.281
47623W        W11391  21.711  14.623  13.045
47624W        W11392  11.663  30.916   0.323
47625W        W11393   2.806  42.007   0.274
47626W        W11394   5.396   2.379  13.350
47627W        W11395  17.171  25.088  11.436
47628W        W11396  11.152   7.384  10.940
47629W        W11397   6.687  31.125   3.268
47630W        W11398  15.767  28.677   3.700
47631W        W11399   9.348  18.595  13.307
47632W        W11400  42.923  43.395   0.870
47633W        W11401   1.447  44.984  13.988
47634W        W11402  10.755  37.573   3.165
47635W        W11403  33.599  26.524  13.541
47636W        W11404  33.421  15.601   4.312
47637W        W11405  31.985  30.470   2.360
47638W        W11406  14.253  36.859  13.510
47639W        W11407   9.809  15.641   1.776
47640W        W11408  26.120  35.103  13.006
47641W        W11409   5.869  24.525   1.281
47642W        W11410   7.260  14.680   1.934
47643W        W11411  37.337  12.614   3.671
47644W        W11412  43.886  29.461  13.797
47645W        W11413  42.493  28.117   0.446
47646W        W11414  25.120  10.376   4.219
47647W        W11415   9.643  43.901   2.325
47648W        W11416  32.951  10.206   2.699
47649W        W11417  24.216   2.301  14.306
47650W        W11418  20.094  26.112   3.756
47651W        W11419  32.104  19.650   1.725
47652W        W11420  42.980  31.113  11.503
47653W        W11421  33.885  16.682  14.999
47654W        W11422  42.907  35.985   3.671
47655W        W11423  27.684  32.418   9.493
47656W        W11424   0.806  33.035  13.998
47657W        W11425  41.386  42.298  12.078
47658W        W11426  31.115  13.344  13.381
47659W        W11427  31.416   4.426   2.240
47660W        W11428  23.525   2.831  10.626
47661W        W11429  17.269  11.784  13.816
47662W        W11430  44.973  39.894  11.584
47663W        W11431  20.138   4.340   0.470
47664W        W11432  31.951  39.978  13.947
47665W        W11433  29.032  23.599  14.947
47666W        W11434  11.343  24.031   2.844
47667W        W11435  13.189  27.493   2.687
47668W        W11436  44.776  38.454   3.737
47669W        W11437  41.520   0.454  10.992
47670W        W11438  10.334  17.691   1.254
47671W        W11439  35.589  26.048   4.788
47672W        W11440  28.511  32.918  14.862
47673W        W11441  14.786  13.776  12.089
47674W        W11442   7.799  12.816  12.891
47675W        W11443  42.987  13.622   1.842
47676W        W11444  28.074  27.514   3.795
47677W        W11445   4.291  44.425   0.397
47678W        W11446  16.271  26.505  11.038
47679W        W11447  40.924   0.474  12.444
47680W        W11448   0.915  20.702  14.840
47681W        W11449  33.006  42.470  14.434
47682W        W11450  21.538  28.169  12.960
47683W        W11451  29.487  15.775  12.567
47684W        W11452  38.367  23.132  13.932
47685W        W11453  32.487  42.819   9.967
47686W        W11454  18.578  20.619   3.219
47687W        W11455  38.419  24.626   1.723
47688W        W11456  31.020  29.007   2.229
47689W        W11457  24.658   4.712  14.934
47690W        W11458  32.076  33.027  13.047
47691W        W11459   5.797  27.171  13.841
47692W        W11460  18.177  44.757   4.778
47693W        W11461  29.653  29.978   2.285
47694W        W11462  24.080  44.789  12.497
47695W        W11463  36.087   0.877   4.232
47696W        W11464   6.698  35.602  14.865
47697W        W11465   2.849  26.690   2.738
47698W        W11466  14.657  14.708   4.137
47699W        W11467  23.085  10.820   4.323
47700W        W11468   7.404  31.576   2.888
47701W        W11469   9.299  19.551   4.235
47702W        W11470  42.437  41.897   4.199
47703W        W11471   6.789   3.849  14.832
47704W        W11472   4.387   0.948   3.224
47705W        W11473   4.278   3.404   2.266
47706W        W11474  13.268  24.046   2.387
47707W        W11475  12.828  36.922   3.323
47708W        W11476  36.891  30.468  11.528
47709W        W11477  28.016  17.602   3.806
47710W        W11478   1.452   3.392  10.135
47711W        W11479   4.855  27.608  13.847
47712W        W11480  19.702  21.263  13.806
47713W        W11481  12.316   5.824  10.452
47714W        W11482  10.870  23.636  12.891
47715W        W11483  30.012  39.488   0.336
47716W        W11484  10.175  26.604  14.466
47717W        W11485   6.872   5.243   3.307
47718W        W11486  29.171  24.129   2.333
47719W        W11487  20.094  26.069   1.748
47720W        W11488  32.522  39.376  13.310
47721W        W11489  28.132  30.559   2.773
47722W        W11490  13.314  33.461   5.242
47723W        W11491  34.493  43.389   3.785
47724W        W11492   4.763  41.801   0.863
47725W        W11493  38.831  27.104  11.112
47726W        W11494  27.631  30.614   3.631
47727W        W11495   0.869  12.850  14.025
47728W        W11496   2.775   3.284   3.808
47729W        W11497  14.640   2.406   4.696
47730W        W11498  39.896  27.604  12.491
47731W        W11499  35.574  25.085  14.379
47732W        W11500   2.469  13.605  11.386
47733W        W11501  26.159  30.052   2.701
47734W        W11502  27.574  10.831  13.353
47735W        W11503  26.042  16.737  13.426
47736W        W11504  25.556  18.211  11.580
47737W        W11505  42.897   4.276  11.053
47738W        W11506   7.230   5.357  12.503
47739W        W11507  30.126   8.744  12.418
47740W        W11508   2.757  15.673  10.643
47741W        W11509  16.200  22.506   5.603
47742W        W11510  22.636  41.988  12.022
47743W        W11511  20.052   3.398  10.410
47744W        W11512  27.943  15.609  11.527
47745W        W11513  13.726  24.986   1.807
47746W        W11514  15.682  42.389  11.422
47747W        W11515  15.166   7.229  12.482
47748W        W11516   9.865  40.829  10.919
47749W        W11517  19.734  18.192  14.789
47750W        W11518  25.986  14.738   0.806
47751W        W11519  26.192  36.962   4.247
47752W        W11520   2.822  27.519   4.656
47753W        W11521  29.529  44.332  12.976
47754W        W11522   7.318  44.396  10.458
47755W        W11523  22.702  18.607   5.102
47756W        W11524   6.207  24.150  10.467
47757W        W11525  22.581  11.244  10.522
47758W        W11526  31.602  42.902   5.176
47759W        W11527  24.165   2.819  13.003
47760W        W11528  13.674  43.905   4.643
47761W        W11529   9.376   5.745   0.453
47762W        W11530  23.052  40.998  12.563
47763W        W11531  18.790  26.086  12.846
47764W        W11532  15.785  26.025   4.345
47765W        W11533  36.026  26.018  10.471
47766W        W11534  14.303  29.593   1.274
47767W        W11535  25.135   2.891   1.748
47768W        W11536   8.197  28.943   0.912
47769W        W11537  34.046  41.002  13.492
47770W        W11538  19.224  38.352   2.181
47771W        W11539   3.316  20.266  11.982
47772W        W11540  17.157  29.475  14.017
47773W        W11541  17.658   9.201  13.354
47774W        W11542   1.302   9.154   0.472
47775W        W11543  28.092   9.758   3.768
47776W        W11544   8.764  44.295  12.995
47777W        W11545   9.871  10.236  11.075
47778W        W11546   9.703  26.634   1.346
47779W        W11547  29.430  10.165   4.225
47780W        W11548  18.763  17.279   3.289
47781W        W11549  21.072  27.152   5.293
47782W        W11550  17.572  18.091   0.913
47783W        W11551   2.441   0.313   0.754
47784W        W11552  27.163  41.011   2.291
47785W        W11553  21.641  43.977   1.745
47786W        W11554  30.545  39.464   1.816
47787W        W11555   5.301  17.607   1.263
47788W        W11556   9.317  14.701  10.507
47789W        W11557  30.960  38.821  10.906
47790W        W11558   2.818  13.265   0.952
47791W        W11559  35.516  37.003  14.514
47792W        W11560  40.327  35.939  12.837
47793W        W11561   0.459  22.540   1.398
47794W        W11562  23.620  38.405   0.802
47795W        W11563  28.571   1.903   1.217
47796W        W11564  26.981  22.506  11.074
47797W        W11565  27.140  22.028   3.650
47798W        W11566  30.421   0.820  12.048
47799W        W11567  23.620   0.969  10.585
47800W        W11568  37.508  24.723  11.964
47801W        W11569  35.092  10.263   2.284
47802W        W11570  39.366   0.308   2.854
47803W        W11571  41.034  33.535   0.355
47804W        W11572  25.011  31.990  10.142
47805W        W11573  26.502  17.684   0.447
47806W        W11574   0.450  33.048   2.669
47807W        W11575  13.768   2.760   0.933
47808W        W11576  19.654  21.038  11.909
47809W        W11577   3.460  11.754   4.232
47810W        W11578   1.760   3.847   0.447
47811W        W11579   7.312  27.635  14.470
47812W        W11580  36.892  25.625   0.417
47813W        W11581  42.486   1.301  10.540
47814W        W11582  14.812  10.780  14.446
47815W        W11583  12.314  40.462  13.848
47816W        W11584  25.002  34.566   2.759
47817W        W11585  25.482  28.972   4.706
47818W        W11586  33.076  13.784   0.898
47819W        W11587  27.673  15.583  14.499
47820W        W11588  38.986  14.780  12.515
47821W        W11589  21.678  42.293   1.231
47822W        W11590  44.929   4.716   0.452
47823W        W11591  16.179  29.009   4.230
47824W        W11592   9.202   5.733   2.328
47825W        W11593  16.115  42.904   5.308
47826W        W11594  24.984  40.548   3.276
47827W        W11595   5.755  37.448  11.896
47828W        W11596  43.300  17.121  10.096
47829W        W11597   2.465  13.191   1.421
47830W        W11598  12.325  42.928  11.513
47831W        W11599  40.011  29.030   2.410
47832W        W11600  35.491  14.320   4.240
47833W        W11601  21.252  34.908  11.461
47834W        W11602  28.537  12.139   4.719
47835W        W11603  27.602  28.144   0.776
47836W        W11604  23.589   5.922   1.237
47837W        W11605  20.692  42.996  10.620
47838W        W11606   5.255  20.050  13.519
47839W        W11607  19.559   5.768   3.283
47840W        W11608  21.672   5.418  12.932
47841W        W11609  19.082  10.646  10.578
47842W        W11610   5.893   5.305  14.406
47843W        W11611  19.070  37.442   0.821
47844W        W11612  20.061  18.764   2.400
47845W        W11613  23.062  28.018  14.411
47846W        W11614  28.603   7.247   4.682
47847W        W11615  43.292   2.227   3.209
47848W        W11616  10.277  34.491   1.826
47849W        W11617  29.434   4.929   2.691
47850W        W11618  14.249   3.761  11.083
47851W        W11619   9.889  29.478  11.564
47852W        W11620  10.265   9.372   5.260
47853W        W11621   7.877   1.780  13.376
47854W        W11622  28.538   6.328   0.250
47855W        W11623  23.107  28.153  12.444
47856W        W11624  31.962  44.821   3.223
47857W        W11625  33.446  16.718  12.952
47858W        W11626   0.904   4.924   3.247
47859W        W11627  37.968  33.557  12.079
47860W        W11628   5.340  26.530   4.180
47861W        W11629  13.670  25.087  13.795
47862W        W11630  17.733   4.799   3.280
47863W        W11631  20.117  34.495  11.089
47864W        W11632  21.165  23.204  12.997
47865W        W11633  36.943  10.645  13.473
47866W        W11634   9.664  15.808  14.485
47867W        W11635  40.303  31.503   5.284
47868W        W11636  33.503  39.822   1.363
47869W        W11637  41.346   4.806  10.951
47870W        W11638   6.794  32.907   3.368
47871W        W11639  26.647  39.341  13.496
47872W        W11640  39.560  37.966  12.948
47873W        W11641   9.378  32.910  13.886
47874W        W11642  16.697  43.482   3.310
47875W        W11643   0.856  28.535  12.506
47876W        W11644  35.914   5.873  12.068
47877W        W11645  39.949  14.822  13.948
47878W        W11646  31.403  22.215  11.382
47879W        W11647  44.371  25.640  10.958
47880W        W11648  38.854  32.564   3.739
47881W        W11649   7.230  15.145   1.930
47882W        W11650  36.892  28.613  13.858
47883W        W11651  10.660  42.958  12.991
47884W        W11652  26.042   9.715  11.526
47885W        W11653  19.598  40.868   3.335
47886W        W11654  44.492   5.308  14.763
47887W        W11655  17.583  18.647   4.341
47888W        W11656  30.091  14.191  11.930
47889W        W11657   1.342   9.744   4.757
47890W        W11658  26.206  43.467   4.265
47891W        W11659  30.501  36.983  10.488
47892W        W11660  23.171  20.523   3.657
47893W        W11661  44.379  36.049  11.908
47894W        W11662   2.321   5.253   3.311
47895W        W11663  40.417  19.071  12.975
47896W        W11664  12.815  33.879   3.804
47897W        W11665  31.107  17.668  14.900
47898W        W11666  34.438  42.929  11.079
47899W        W11667  33.494  36.573   2.221
47900W        W11668  44.786  43.878   4.181
47901W        W11669  22.727  23.161  10.607
47902W        W11670  29.539  37.530  11.565
47903W        W11671  36.480  16.145  13.048
47904W        W11672  23.211   5.414   0.736
47905W        W11673  35.079  14.821  10.414
47906W        W11674   2.397  21.114  11.895
47907W        W11675   4.214  38.475  14.978
47908W        W11676  28.553  26.682   2.213
47909W        W11677  42.465  43.272  11.874
47910W        W11678   0.483  29.545  10.920
47911W        W11679  41.845  36.420   2.412
47912W        W11680   7.720  11.359  14.422
47913W        W11681  21.617   9.287  12.895
47914W        W11682   6.216  26.670  12.911
47915W        W11683  12.713  14.249  14.299
47916W        W11684   2.738  30.482  10.616
47917W        W11685  17.192   1.345  14.780
47918W        W11686  30.147  25.200  14.763
47919W        W11687  21.023   5.341  14.383
47920W        W11688  44.995  34.541  14.765
47921W        W11689  10.153   7.238   4.657
47922W        W11690  12.774  22.195   0.968
47923W        W11691  40.517   1.762  14.335
47924W        W11692  14.815  32.436  12.538
47925W        W11693  33.094  38.455  14.953
47926W        W11694  27.599   9.185  14.370
47927W        W11695  32.994   1.777   0.929
47928W        W11696  39.453  34.527  13.947
47929W        W11697   1.393  42.376   1.917
47930W        W11698  17.258  34.923  13.348
47931W        W11699  36.882   2.415   3.162
47932W        W11700  30.067  32.981  10.639
47933W        W11701   5.692   1.399   0.851
47934W        W11702  26.009   0.756  13.478
47935W        W11703  41.451  34.016  13.049
47936W        W11704  27.065  38.485  13.407
47937W        W11705   5.909  12.702   1.707
47938W        W11706   5.778   3.948   2.400
47939W        W11707  14.798  15.305  11.444
47940W        W11708  35.420  22.223   1.435
47941W        W11709  12.201  30.982   2.766
47942W        W11710   9.695  27.191  11.937
47943W        W11711  41.378  32.419  10.607
47944W        W11712  11.145  36.082  11.914
47945W        W11713  37.918  11.177  11.430
47946W        W11714  11.254  11.859  13.384
47947W        W11715  23.175   1.922   0.266
47948W        W11716  14.325  29.665  13.409
47949W        W11717   9.298  42.885   4.806
47950W        W11718  32.559   8.798  11.895
47951W        W11719  26.168  36.382  12.530
47952W        W11720  24.046  16.257   4.300
47953W        W11721  39.872   9.862   2.411
47954W        W11722  43.318   2.276  12.986
47955W        W11723  29.955  20.046   1.212
47956W        W11724  17.741  32.040  14.913
47957W        W11725  39.986  24.501  13.360
47958W        W11726  19.117   3.228   2.871
47959W        W11727  38.935  13.254  12.517
47960W        W11728  33.939  31.053   3.755
47961W        W11729  12.791  23.988  12.011
47962W        W11730  10.795   4.876  11.937
47963W        W11731  15.285  32.597   2.873
47964W        W11732  21.228   6.813   2.708
47965W        W11733  12.278   9.208   1.286
47966W        W11734  35.962  25.064  10.425
47967W        W11735  17.561   2.385  12.473
47968W        W11736   2.402  27.640  10.499
47969W        W11737   2.774   9.390   2.182
47970W        W11738  23.504  42.450   2.774
47971W        W11739  41.492  42.795   1.270
47972W        W11740   8.746  17.066   2.188
47973W        W11741  33.932   2.902  11.526
47974W        W11742  44.432  40.044   4.285
47975W        W11743  35.905  14.218   2.213
47976W        W11744  17.772  15.641   3.731
47977W        W11745  12.820  43.381  12.937
47978W        W11746   0.368  30.451   3.171
47979W        W11747  26.070  40.885   2.400
47980W        W11748  43.019  17.285   4.226
47981W        W11749  36.979  26.184   2.847
47982W        W11750  26.555  21.019  14.926
47983W        W11751   2.749  14.708  10.595
47984W        W11752  25.083  17.231   0.826
47985W        W11753  24.571  15.698   4.628
47986W        W11754  15.720  34.977  10.600
47987W        W11755  22.643  37.971  12.545
47988W        W11756  37.869   9.731  10.076
47989W        W11757   1.880   4.397   4.212
47990W        W11758  40.849   2.273  11.039
47991W        W11759  32.062  37.838   2.692
47992W        W11760  18.089  14.307  12.876
47993W        W11761  31.473   3.278  14.919
47994W        W11762  21.038   6.255   4.201
47995W        W11763  20.579   8.799   2.774
47996W        W11764  36.977  24.135  11.504
47997W        W11765  13.336  36.018   5.185
47998W        W11766  33.091  20.078  13.866
47999W        W11767  37.983   0.305   3.241
48000W        W11768  13.718  44.476   4.796
48001W        W11769  28.477   0.409  12.058
48002W        W11770  32.116  24.099  13.808
48003W        W11771  20.058  17.121   4.243
48004W        W11772  40.319  20.051   2.359
48005W        W11773  21.529  13.658   0.436
48006W        W11774  32.453  18.662   5.108
48007W        W11775   6.790  27.083   0.789
48008W        W11776  42.496  32.629   1.882
48009W        W11777  36.881  19.750   2.715
48010W        W11778   3.334  16.637  14.306
48011W        W11779  19.246   7.672  11.487
48012W        W11780   2.439  22.518   0.849
48013W        W11781  40.438  33.386  14.322
48014W        W11782   0.813  20.066  13.944
48015W        W11783  31.970  31.031  10.916
48016W        W11784  23.529  20.190   4.650
48017W        W11785   8.287  41.911  10.589
48018W        W11786  25.576  25.622   4.311
48019W        W11787  18.670  27.054   1.901
48020W        W11788  24.228  10.275  13.363
48021W        W11789   0.977   1.855  13.421
48022W        W11790  26.995  36.022   0.292
48023W        W11791   4.429  37.389   1.722
48024W        W11792   8.292  41.336   4.218
48025W        W11793  34.111  28.613   0.313
48026W        W11794  32.973   2.721  12.878
48027W        W11795  23.146  43.316   2.337
48028W        W11796  38.522   8.856   0.913
48029W        W11797  29.515  33.112  12.844
48030W        W11798  40.305  38.916  14.920
48031W        W11799  11.703  30.650  13.336
48032W        W11800   3.709  25.137   2.250
48033W        W11801   1.864  18.741   0.355
48034W        W11802  40.042   9.700   3.843
48035W        W11803  35.968   7.282  13.422
48036W        W11804   5.197  23.056  14.862
48037W        W11805  16.618  35.600   9.981
48038W        W11806   8.787  43.311  10.424
48039W        W11807  18.143  31.132   1.415
48040W        W11808   0.308  23.608  14.906
48041W        W11809  37.388  36.064   4.597
48042W        W11810  29.510  37.538   5.229
48043W        W11811  15.174   0.913  14.460
48044W        W11812  37.490  44.413  10.153
48045W        W11813  23.648  40.873  11.087
48046W        W11814   7.685  43.786   2.803
48047W        W11815   3.323  40.406   0.859
48048W        W11816  16.187  36.049  13.969
48049W        W11817  31.976  44.899   2.698
48050W        W11818   7.209  27.613   1.696
48051W        W11819  22.534  29.536  10.925
48052W        W11820  33.068  33.499  11.052
48053W        W11821   6.788  30.517  13.540
48054W        W11822  40.489  29.007   4.644
48055W        W11823  25.191  28.087  13.795
48056W        W11824  24.099  16.666  12.999
48057W        W11825   3.286  10.723  13.534
48058W        W11826  44.413  32.098   3.321
48059W        W11827   6.710  33.944  12.873
48060W        W11828  19.080  22.040   3.362
48061W        W11829  36.347   3.235   4.691
48062W        W11830   8.224  22.183  12.092
48063W        W11831  27.496  28.487  12.362
48064W        W11832  31.119  33.049   2.178
48065W        W11833  22.743  40.803   1.423
48066W        W11834  18.207  42.028  14.382
48067W        W11835   9.654  15.724   0.372
48068W        W11836  36.591  36.028  11.505
48069W        W11837  36.939   0.275  12.572
48070W        W11838  11.277  30.574   3.827
48071W        W11839  40.963   4.336   3.842
48072W        W11840   4.760  21.649   2.295
48073W        W11841  41.306  43.493   1.724
48074W        W11842  27.978  44.409  11.124
48075W        W11843  23.042   3.835   2.411
48076W        W11844  12.688   7.396  12.934
48077W        W11845   5.325  12.131  12.548
48078W        W11846   7.215  13.674  10.611
48079W        W11847  21.539  26.665  13.350
48080W        W11848  41.837  14.141  11.908
48081W        W11849   6.742  32.398   2.886
48082W        W11850   6.873  22.019  14.983
48083W        W11851  13.682  13.839   2.291
48084W        W11852   6.782  14.814  12.502
48085W        W11853   1.322   9.328  14.796
48086W        W11854  31.404  40.381   1.345
48087W        W11855  36.880   2.806  11.385
48088W        W11856   6.367  35.929   4.791
48089W        W11857  35.593  20.129   0.389
48090W        W11858  36.502  28.173   0.923
48091W        W11859   8.178  26.028   4.641
48092W        W11860  43.495  11.142  14.328
48093W        W11861  13.699  19.662  12.374
48094W        W11862   1.881  21.241  10.983
48095W        W11863  31.934   0.779  13.862
48096W        W11864  11.632  19.108  12.960
48097W        W11865   7.720   0.971   0.788
48098W        W11866  19.672   4.828   0.421
48099W        W11867  22.643  38.011  11.508
48100W        W11868  13.693   0.349  13.426
48101W        W11869  17.660  36.423  12.047
48102W        W11870  22.619  30.570  11.862
48103W        W11871  18.186  23.623   0.257
48104W        W11872  24.113  25.642   2.294
48105W        W11873  25.208  14.188  14.351
48106W        W11874   1.333  35.562   0.478
48107W        W11875  42.988  15.616   1.318
48108W        W11876  16.717  17.725  11.540
48109W        W11877  27.143  40.495   3.769
48110W        W11878   6.737  11.755  10.901
48111W        W11879  39.390  32.582  10.150
48112W        W11880  24.077  13.828   0.772
48113W        W11881  35.016  21.242   9.970
48114W        W11882  34.913   5.725  11.398
48115W        W11883  26.968  18.749  14.965
48116W        W11884  20.209  17.302   5.303
48117W        W11885   8.368  25.188  13.318
48118W        W11886  21.127  21.559  12.973
48119W        W11887  17.788  35.588   3.372
48120W        W11888   9.163  41.312  11.035
48121W        W11889  12.659  24.035   2.298
48122W        W11890   7.348  30.079   4.133
48123W        W11891   2.418  13.782  10.575
48124W        W11892  27.078  19.272  14.831
48125W        W11893   4.800   2.334   4.234
48126W        W11894  13.638  43.426  13.532
48127W        W11895  44.848  30.539  13.448
48128W        W11896  34.485   2.367   1.761
48129W        W11897  43.944  11.791  12.457
48130W        W11898   0.875  32.554  13.943
48131W        W11899   2.306  26.564  11.547
48132W        W11900  26.537  37.901   2.367
48133W        W11901  38.438  20.760  13.971
48134W        W11902  21.233  18.648  14.877
48135W        W11903  36.387  16.176   1.411
48136W        W11904  41.967  33.574  14.829
48137W        W11905   2.888   9.279  10.570
48138W        W11906  16.160  33.944  14.974
48139W        W11907  43.399  34.038   3.816
48140W        W11908   0.845  35.864  12.074
48141W        W11909  30.427   8.332  10.525
48142W        W11910  13.280  21.614  13.504
48143W        W11911  34.463  28.671  11.586
48144W        W11912  15.301  32.063  13.452
48145W        W11913  31.134   4.342   2.260
48146W        W11914   2.461  19.666   4.166
48147W        W11915  10.751  40.430   0.916
48148W        W11916  40.353  32.398  11.413
48149W        W11917  32.111  30.429  12.373
48150W        W11918  16.283  35.458  10.428
48151W        W11919  44.306  37.924  13.500
48152W        W11920  20.077  43.766   2.822
48153W        W11921  39.423  34.882   2.856
48154W        W11922  17.198  32.400  13.945
48155W        W11923  10.763   8.792  13.391
48156W        W11924  43.823  34.409  12.980
48157W        W11925  10.638  23.986  14.918
48158W        W11926  27.197  39.379  13.030
48159W        W11927  43.015  23.059   3.768
48160W        W11928  36.513  37.467   4.309
48161W        W11929  10.786   8.711  12.083
48162W        W11930  17.290  12.136   9.942
48163W        W11931   8.673  12.193   3.197
48164W        W11932  11.771  44.810  13.936
48165W        W11933  43.784  30.133  10.924
48166W        W11934  12.610  27.639  12.422
48167W        W11935  34.056  16.574  13.398
48168W        W11936   3.452  12.361  11.597
48169W        W11937  10.875  19.602  11.474
48170W        W11938  14.103   6.684   1.221
48171W        W11939  41.478  10.872  10.471
48172W        W11940  41.464   9.343   2.720
48173W        W11941  27.619  17.069   3.832
48174W        W11942   6.728   9.790   1.728
48175W        W11943  43.007   5.893   3.291
48176W        W11944  39.863  35.547  14.505
48177W        W11945  43.794  41.969  13.378
48178W        W11946   4.930   4.924   0.271
48179W        W11947  42.292   5.365  13.955
48180W        W11948  32.419   6.718  10.630
48181W        W11949  28.159  21.238  12.543
48182W        W11950  37.875  26.580  13.038
48183W        W11951  40.324  32.539  10.485
48184W        W11952  15.190  17.569  12.399
48185W        W11953  15.743  30.913   4.213
48186W        W11954  10.325  27.193   3.286
48187W        W11955  39.967  15.123   0.376
48188W        W11956  16.608  38.456   1.399
48189W        W11957  29.591  31.078   0.930
48190W        W11958  34.600  36.854   1.698
48191W        W11959  18.699  11.327  10.938
48192W        W11960  40.425   1.739  13.799
48193W        W11961  13.839  37.451  14.929
48194W        W11962  18.267  23.047   1.389
48195W        W11963  39.905   3.306  11.398
48196W        W11964  26.201  31.457  11.084
48197W        W11965   9.246   8.230  14.825
48198W        W11966  14.826  14.267   5.301
48199W        W11967   4.832  18.087  12.398
48200W        W11968   5.797   5.277  13.494
48201W        W11969  19.209  22.221   0.952
48202W        W11970  26.042  27.542   1.893
48203W        W11971  24.562   1.961  11.409
48204W        W11972   6.811  14.742  14.852
48205W        W11973   2.806  12.138  13.528
48206W        W11974  13.614  18.748   4.220
48207W        W11975  14.679   9.767  14.775
48208W        W11976   7.670  11.301   1.423
48209W        W11977  18.183  17.601   4.334
48210W        W11978  22.059   5.263   1.921
48211W        W11979  36.568  23.042   3.329
48212W        W11980  33.116   9.671  11.019
48213W        W11981  24.667  18.271  14.380
48214W        W11982   3.251   4.267  12.530
48215W        W11983  10.696  30.583  13.368
48216W        W11984  26.026  13.744   5.126
48217W        W11985   7.844  10.835  11.440
48218W        W11986  19.279  16.106  14.872
48219W        W11987  27.121  30.479  10.462
48220W        W11988  10.304  26.180   3.695
48221W        W11989   4.422  42.815   0.434
48222W        W11990  42.992  36.399  10.413
48223W        W11991   8.182  38.875  11.979
48224W        W11992  36.978   2.379   0.789
48225W        W11993  34.501  44.945   3.376
48226W        W11994  29.121  34.507   2.665
48227W        W11995   0.333  10.157   1.446
48228W        W11996  14.653  42.912  11.005
48229W        W11997  14.212  34.595   0.853
48230W        W11998  21.734  10.316   4.344
48231W        W11999  31.011   4.889  10.430
48232W        W12000  25.977  41.799  14.962
48233W        W12001  13.124  28.607   4.679
48234W        W12002  17.236  33.596   2.701
48235W        W12003  15.717  29.079   3.190
48236W        W12004   4.377  41.043   2.256
48237W        W12005   5.429  41.864   3.779
48238W        W12006  33.959  12.346   0.760
48239W        W12007  31.509  31.420   3.800
48240W        W12008  10.285   3.297  13.060
48241W        W12009  11.671  43.894   3.732
48242W        W12010  40.824  38.527  11.385
48243W        W12011   6.184  18.261   3.851
48244W        W12012  18.776  32.509   2.289
48245W        W12013   1.771   9.375   1.855
48246W        W12014  18.084  10.339   2.267
48247W        W12015  13.626  31.950  12.458
48248W        W12016  38.887  40.050   3.241
48249W        W12017  15.192  21.623   4.210
48250W        W12018  28.105  18.103   3.664
48251W        W12019   3.260   5.344   1.280
48252W        W12020  15.272   0.426   3.255
48253W        W12021  28.460  30.651  14.880
48254W        W12022  31.006  12.652   4.210
48255W        W12023   8.844  36.433  12.556
48256W        W12024  40.424  28.620   0.931
48257W        W12025  11.186   5.809  13.462
48258W        W12026  22.167  34.547   1.380
48259W        W12027  43.422   8.247  10.909
48260W        W12028  25.143  13.687   0.797
48261W        W12029  11.280  31.003  12.043
48262W        W12030  26.023   9.321   4.599
48263W        W12031  18.634  43.912  13.473
48264W        W12032  28.158  31.498   2.205
48265W        W12033  22.629  42.313  11.395
48266W        W12034  29.974  14.200   3.678
48267W        W12035  40.051  12.801  13.367
48268W        W12036   3.255   9.202  14.779
48269W        W12037  34.549  42.816   2.365
48270W        W12038  41.845  39.927  13.978
48271W        W12039  43.305  31.994   3.683
48272W        W12040  36.851  24.156   4.709
48273W        W12041  21.611  42.349  12.456
48274W        W12042  38.904  26.028  10.525
48275W        W12043   4.397  41.961   2.894
48276W        W12044   7.284  17.306  12.972
48277W        W12045   7.349  44.003  12.006
48278W        W12046  28.077  18.291  12.399
48279W        W12047  34.386  30.951  11.414
48280W        W12048  16.183  22.698  12.030
48281W        W12049  36.388  32.059   5.111
48282W        W12050  44.321  42.879   0.417
48283W        W12051  27.549  30.923   4.711
48284W        W12052  10.799  40.494   2.820
48285W        W12053  27.026  17.703  12.067
48286W        W12054   3.235  15.280   4.222
48287W        W12055  16.741   7.845   4.830
48288W        W12056  27.449  10.847   0.805
48289W        W12057  15.778  36.472  10.439
48290W        W12058  42.809  42.309   0.324
48291W        W12059  24.100  31.070   4.696
48292W        W12060  10.375   8.292   4.190
48293W        W12061   7.806  30.644  13.856
48294W        W12062  39.925  32.590  14.994
48295W        W12063  37.908  41.985  11.080
48296W        W12064  24.210  20.612   0.929
48297W        W12065  15.239  43.901   4.637
48298W        W12066  32.399  33.048   4.618
48299W        W12067  40.926  39.463  12.476
48300W        W12068  17.289   6.422   4.785
48301W        W12069  34.962  36.407   2.266
48302W        W12070  41.816  37.548  10.942
48303W        W12071  36.973  31.488   1.449
48304W        W12072  35.504  28.490  14.767
48305W        W12073  42.014  42.822  10.478
48306W        W12074  23.109  42.797  12.347
48307W        W12075  42.796  41.341   1.696
48308W        W12076   5.306  43.009  14.985
48309W        W12077   1.765  24.537   0.830
48310W        W12078   8.798  14.677  12.019
48311W        W12079  22.173  27.190   2.858
48312W        W12080   7.325  21.681   2.405
48313W        W12081  14.191  39.508  11.522
48314W        W12082  16.315  44.313  13.517
48315W        W12083  39.556  22.249   0.842
48316W        W12084  27.478  28.083   4.223
48317W        W12085   8.708   7.383   0.919
48318W        W12086  19.206   3.935   0.463
48319W        W12087  40.035  28.163   1.448
48320W        W12088  18.207  31.147   9.667
48321W        W12089  21.037  44.992   2.841
48322W        W12090  23.057   5.758   2.263
48323W        W12091   7.900  23.728   0.752
48324W        W12092  43.766  39.519   4.185
48325W        W12093   6.694  35.971  11.568
48326W        W12094  42.947  22.088  13.974
48327W        W12095  14.167  20.188  14.955
48328W        W12096  44.002   0.253  12.032
48329W        W12097  16.627  43.317   3.857
48330W        W12098  42.403  39.900  14.354
48331W        W12099   2.808  37.419   0.867
48332W        W12100  34.909  16.684  13.387
48333W        W12101  33.583  27.683  11.987
48334W        W12102  24.174  30.033   2.768
48335W        W12103  40.359  34.493   3.167
48336W        W12104  40.379  18.557  13.373
48337W        W12105   6.852   3.442   0.786
48338W        W12106  23.017  35.052  10.913
48339W        W12107  30.921   5.749   4.650
48340W        W12108   5.847  14.821   1.292
48341W        W12109  33.458  35.939  13.911
48342W        W12110  14.169  34.944  13.795
48343W        W12111  18.096  14.166   3.276
48344W        W12112  28.996  14.222  12.903
48345W        W12113  10.788  30.492   0.806
48346W        W12114  20.225  13.240   4.617
48347W        W12115  42.975  34.587  14.900
48348W        W12116  22.539  19.092   1.286
48349W        W12117  17.223  21.021  10.466
48350W        W12118  41.969   0.785   1.334
48351W        W12119  13.813   3.423  14.350
48352W        W12120  10.186  27.024   4.130
48353W        W12121   6.798  10.289  10.490
48354W        W12122  26.642  13.771   4.171
48355W        W12123  39.395   7.183  13.333
48356W        W12124  38.524  22.599  14.936
48357W        W12125  43.848   1.944   1.380
48358W        W12126  31.441  42.389   3.176
48359W        W12127  16.173  30.077   4.655
48360W        W12128  34.386  23.241  14.903
48361W        W12129  13.110  24.595  11.612
48362W        W12130   1.916  35.922   0.458
48363W        W12131  28.569  29.499   4.198
48364W        W12132  38.969  33.938   9.568
48365W        W12133  33.931  20.735  14.927
48366W        W12134   3.232  24.090  14.450
48367W        W12135  33.487   8.347  13.967
48368W        W12136  19.674  34.938  14.443
48369W        W12137   9.291  19.709  13.814
48370W        W12138  15.260  25.212   0.477
48371W        W12139  34.086  41.840  12.904
48372W        W12140  32.937  27.614   4.136
48373W        W12141  35.375  35.379  10.628
48374W        W12142  23.032  36.854   1.902
48375W        W12143  23.662  13.186  13.338
48376W        W12144  42.386   1.782   1.730
48377W        W12145  25.529  12.220  10.997
48378W        W12146  20.186   0.406   4.349
48379W        W12147  33.393  34.919   0.947
48380W        W12148  42.462  44.498   0.451
48381W        W12149   0.920  18.697   3.218
48382W        W12150   1.933  37.417   1.350
48383W        W12151  27.172  34.066   3.664
48384W        W12152  14.136  23.587  11.949
48385W        W12153   7.386  31.629   1.918
48386W        W12154  17.565   4.292   1.746
48387W        W12155  32.913  23.160   1.880
48388W        W12156  12.847  11.670  12.515
48389W        W12157  18.764  32.047   9.597
48390W        W12158  12.198  17.636   2.879
48391W        W12159  34.990  23.500   0.315
48392W        W12160  12.293  12.179  10.928
48393W        W12161  30.973  16.182  12.868
48394W        W12162  32.434   1.477   1.404
48395W        W12163  25.017  40.383   4.220
48396W        W12164  32.614  18.159  13.962
48397W        W12165   3.301  14.195  12.424
48398W        W12166   2.387  42.472  12.578
48399W        W12167   1.750   7.259  11.986
48400W        W12168  37.556  41.030   3.862
48401W        W12169  44.478  18.705   1.312
48402W        W12170  27.107  28.508   0.920
48403W        W12171  34.422  39.417  14.498
48404W        W12172  24.099   1.898   2.340
48405W        W12173  17.647  21.215   1.779
48406W        W12174   2.958  27.161  13.534
48407W        W12175  37.965  10.776   1.401
48408W        W12176  27.170   8.380  14.006
48409W        W12177  38.329   7.374  12.448
48410W        W12178   2.430  14.661   2.706
48411W        W12179  42.929  16.754  14.494
48412W        W12180  38.012  15.153   2.793
48413W        W12181  27.979  34.427  11.881
48414W        W12182   9.762  18.281   0.378
48415W        W12183   4.726  21.058   0.907
48416W        W12184   3.748  34.090  13.813
48417W        W12185   9.317  32.601  13.370
48418W        W12186  31.517   4.915  11.523
48419W        W12187  17.252  14.328  13.820
48420W        W12188   2.453  27.195  14.771
48421W        W12189  37.854  24.193  11.112
48422W        W12190  19.721  29.493  12.517
48423W        W12191  17.715   3.379  14.363
48424W        W12192  15.779  14.307   0.242
48425W        W12193  30.104  41.383  13.014
48426W        W12194  35.578  31.981  13.796
48427W        W12195  37.879  11.789   4.320
48428W        W12196   8.708   8.347  10.559
48429W        W12197   8.329  23.728   2.685
48430W        W12198  36.972  10.765   0.419
48431W        W12199  23.038  10.267  14.024
48432W        W12200  10.232  21.642  11.028
48433W        W12201  43.925   0.804   1.272
48434W        W12202  22.731  20.171  10.981
48435W        W12203  21.574  33.448  13.470
48436W        W12204   4.897   0.269  14.356
48437W        W12205  36.944  29.175   2.408
48438W        W12206  24.666   2.363   4.741
48439W        W12207  34.481  37.977  10.959
48440W        W12208  12.221  23.165  13.883
48441W        W12209  33.461   2.723  12.444
48442W        W12210  28.529  12.135  14.475
48443W        W12211  32.528  24.524  13.813
48444W        W12212   6.348  13.116   4.750
48445W        W12213   0.977   0.332   4.226
48446W        W12214  21.564  24.496  14.919
48447W        W12215  26.584  10.705  12.885
48448W        W12216  34.921   6.368   1.212
48449W        W12217  25.473  38.933   1.869
48450W        W12218  11.198  35.578   4.738
48451W        W12219  37.474  40.944  12.031
48452W        W12220  33.878  15.085   2.793
48453W        W12221   5.231  26.689  12.993
48454W        W12222  41.894  43.294  12.032
48455W        W12223  25.112  25.025  12.455
48456W        W12224   2.827  37.890  10.118
48457W        W12225  40.984  16.180   0.364
48458W        W12226  14.628   9.324   0.269
48459W        W12227  20.679  33.006   9.446
48460W        W12228  36.477  29.146  11.940
48461W        W12229  40.889   2.896  14.310
48462W        W12230   6.378   0.408   4.196
48463W        W12231  42.973   6.204   3.344
48464W        W12232  44.261  31.496  14.875
48465W        W12233  20.110  21.200  10.905
48466W        W12234  15.658   6.196  13.041
48467W        W12235  28.525  33.453  10.523
48468W        W12236   3.928  30.936   0.950
48469W        W12237   2.267  34.994   0.842
48470W        W12238  10.317  42.818   2.882
48471W        W12239  14.152  17.662   2.412
48472W        W12240  38.989   0.757  13.544
48473W        W12241  19.164  20.556   3.740
48474W        W12242   1.474  43.374  11.448
48475W        W12243  29.034  30.994   0.362
48476W        W12244   4.831  20.222  11.549
48477W        W12245  10.138  27.960  13.885
48478W        W12246   3.775  28.540  11.919
48479W        W12247  42.375  30.954   1.870
48480W        W12248  26.508  40.029  14.468
48481W        W12249  17.226  10.777   4.244
48482W        W12250  11.177   5.219   3.848
48483W        W12251  31.096   8.856  13.861
48484W        W12252   4.433  43.840  14.359
48485W        W12253  35.006  38.965   3.170
48486W        W12254  17.582  36.432  10.960
48487W        W12255  11.800   5.414  11.382
48488W        W12256  44.976  21.641   0.949
48489W        W12257  13.732   6.409  13.548
48490W        W12258  11.775  17.303   1.787
48491W        W12259  32.907  12.702  13.868
48492W        W12260   2.747  37.358  14.787
48493W        W12261  19.595  35.945  12.022
48494W        W12262  32.603  11.745  11.417
48495W        W12263   0.404  40.399   1.786
48496W        W12264  41.878   8.727  12.381
48497W        W12265   9.304  28.566  14.958
48498W        W12266  28.971  21.570   3.255
48499W        W12267   8.273  23.063  13.471
48500W        W12268   3.719  15.600  10.124
48501W        W12269  14.120  25.602  13.447
48502W        W12270  14.313  33.475  11.417
48503W        W12271  15.822   8.692   0.294
48504W        W12272  35.107  31.538   4.154
48505W        W12273  24.162  18.647  12.849
48506W        W12274  28.086  21.117  10.567
48507W        W12275  10.877  17.259   1.787
48508W        W12276  26.990   2.917   1.431
48509W        W12277   1.398  26.503  10.965
48510W        W12278   3.955   9.850  10.541
48511W        W12279  21.663  24.229  11.101
48512W        W12280  42.478  14.132   0.263
48513W        W12281  39.430  42.389  11.098
48514W        W12282  34.096  11.648   3.631
48515W        W12283  36.442  26.526  14.760
48516W        W12284   9.389  14.123   1.866
48517W        W12285  17.604  34.609  14.329
48518W        W12286  11.849  14.710  13.930
48519W        W12287  26.607   1.975   2.389
48520W        W12288  31.491  36.975   2.799
48521W        W12289  24.089  24.549   4.812
48522W        W12290  32.984  14.791  14.315
48523W        W12291  11.841  44.301  14.406
48524W        W12292  18.594  21.086  14.284
48525W        W12293  31.422  21.056   1.322
48526W        W12294   2.795  38.498   5.799
48527W        W12295  20.241  42.452   2.352
48528W        W12296  28.570  43.453  12.086
48529W        W12297  33.113  43.274  12.854
48530W        W12298   9.789   7.727   2.257
48531W        W12299   9.324  25.993  14.471
48532W        W12300   7.693  33.388  12.914
48533W        W12301  31.585  25.966   0.962
48534W        W12302  20.707   2.396  14.017
48535W        W12303  14.774  17.796   2.730
48536W        W12304  29.923  22.739  10.580
48537W        W12305  28.051  30.998  12.028
48538W        W12306  13.652   6.188   4.635
48539W        W12307  30.133  37.878  12.555
48540W        W12308   2.245  39.323  14.856
48541W        W12309  11.658   6.798  11.534
48542W        W12310   9.176  39.448  10.592
48543W        W12311  10.843  35.901   1.214
48544W        W12312  23.676  11.217   4.169
48545W        W12313   0.774  35.360   0.259
48546W        W12314  26.587  31.449   4.705
48547W        W12315  30.573  42.880   1.428
48548W        W12316  41.914  30.163   9.943
48549W        W12317  12.622  32.399   1.739
48550W        W12318  31.505  10.175  14.322
48551W        W12319   8.308  31.963  11.012
48552W        W12320  22.008  27.616   4.674
48553W        W12321  33.387  22.224   2.845
48554W        W12322  37.495  17.567  13.037
48555W        W12323  14.801  39.833  14.820
48556W        W12324  34.425  18.105  11.433
48557W        W12325  25.207  12.829   2.188
48558W        W12326  31.436   9.820  14.023
48559W        W12327  12.624  36.487  10.612
48560W        W12328  32.078  11.294  13.423
48561W        W12329  15.142  41.389   4.265
48562W        W12330  11.357  14.098  12.578
48563W        W12331  33.526  44.450  11.936
48564W        W12332  35.865  32.408   4.641
48565W        W12333  12.343  27.038   1.327
48566W        W12334  25.583  43.965   2.348
48567W        W12335  38.458  11.243  12.348
48568W        W12336   5.923   4.388   4.260
48569W        W12337  18.626  21.672   3.345
48570W        W12338  28.666  18.202  12.860
48571W        W12339  43.398  28.091  14.337
48572W        W12340  39.043  33.589  10.567
48573W        W12341  28.608   2.847  12.358
48574W        W12342  10.144  33.453   3.228
48575W        W12343  11.346   7.786  12.890
48576W        W12344   3.385  18.733  10.506
48577W        W12345  11.261  38.950  11.474
48578W        W12346  15.201  23.111   4.817
48579W        W12347  10.783  10.199   1.382
48580W        W12348   7.770  21.053   4.258
48581W        W12349   7.237  25.638  14.417
48582W        W12350  34.599  28.680   4.707
48583W        W12351   8.171  21.604  11.915
48584W        W12352  44.960  36.909  14.982
48585W        W12353  41.332  33.030   3.242
48586W        W12354   6.810   1.247  14.021
48587W        W12355  44.439  43.988   1.245
48588W        W12356  19.080  40.930   4.251
48589W        W12357  44.774   8.358  10.442
48590W        W12358   9.712  17.675  10.551
48591W        W12359   5.327   9.740  11.412
48592W        W12360  33.978  17.689   1.882
48593W        W12361  39.429  22.662   4.205
48594W        W12362  33.410  23.988  11.476
48595W        W12363  23.010   6.336   4.772
48596W        W12364  22.078  29.577   4.655
48597W        W12365  38.977  22.227  10.616
48598W        W12366  31.049  41.370  13.051
48599W        W12367  15.646  37.381  11.576
48600W        W12368  35.959  17.119  11.496
48601W        W12369   5.312  31.415   3.641
48602W        W12370  25.177  13.145   0.966
48603W        W12371  28.603  11.302   4.632
48604W        W12372  35.562  23.996   1.263
48605W        W12373  18.231   8.376   4.250
48606W        W12374   7.226  27.637   1.381
48607W        W12375  32.451  29.946  14.401
48608W        W12376   2.932  25.477   4.273
48609W        W12377  31.947   0.402  11.372
48610W        W12378  22.711  20.578   0.439
48611W        W12379  43.882   9.889   0.808
48612W        W12380  28.633  14.689   2.415
48613W        W12381  21.582  12.308  10.573
48614W        W12382  13.118  29.453   0.325
48615W        W12383  21.116  16.270  13.870
48616W        W12384  11.156   4.713   2.790
48617W        W12385  15.210  15.213   4.272
48618W        W12386  37.949  43.357  14.489
48619W        W12387  25.002  17.234   3.785
48620W        W12388  38.903  42.984  11.098
48621W        W12389  37.029  20.165   2.692
48622W        W12390   6.423  31.428   4.208
48623W        W12391   8.822  14.646  11.567
48624W        W12392  28.441  15.823  13.952
48625W        W12393  16.288  26.600   3.864
48626W        W12394   5.691  12.667   3.671
48627W        W12395  37.086  30.119  14.443
48628W        W12396   1.355   2.299   4.738
48629W        W12397  37.456  24.098   2.738
48630W        W12398  31.453   2.246   0.955
48631W        W12399  31.544  34.521  12.428
48632W        W12400   9.809  33.432  11.444
48633W        W12401  35.436  37.971  11.419
48634W        W12402  42.884  43.897   2.213
48635W        W12403  15.668  19.778   2.242
48636W        W12404   6.891  21.079  13.007
48637W        W12405  27.962  16.578   1.332
48638W        W12406  38.914  18.715  11.900
48639W        W12407  14.335  39.432   2.341
48640W        W12408   8.728  14.219  13.009
48641W        W12409   5.910  15.263  11.599
48642W        W12410  38.555  40.342  12.395
48643W        W12411  13.254   5.691  10.418
48644W        W12412   3.791  39.996   3.334
48645W        W12413  10.708  30.603  10.458
48646W        W12414  43.948  15.267  14.420
48647W        W12415  15.590   3.897   4.740
48648W        W12416  10.664  29.984   1.808
48649W        W12417  35.463  35.555  14.905
48650W        W12418   7.908   2.361  11.401
48651W        W12419  40.848  39.554   0.348
48652W        W12420  29.505   0.925   5.125
48653W        W12421  24.077  30.907   1.335
48654W        W12422   2.258  22.168   2.713
48655W        W12423  13.793  10.357  11.490
48656W        W12424   9.208  11.635   2.878
48657W        W12425  41.985   6.696  13.359
48658W        W12426  27.632  26.025  12.076
48659W        W12427  26.692  40.962  13.005
48660W        W12428  33.554   4.227   4.176
48661W        W12429  10.728   7.778  13.961
48662W        W12430  10.139  23.028  12.060
48663W        W12431  35.359   0.368   3.175
48664W        W12432   6.827  15.097  11.874
48665W        W12433  37.935  14.225  11.451
48666W        W12434  30.942   4.359  11.941
48667W        W12435  23.009  26.162   2.874
48668W        W12436  32.931   4.944  12.566
48669W        W12437  31.059  44.270  12.561
48670W        W12438  35.891  27.127  11.462
48671W        W12439  19.144  37.873  13.919
48672W        W12440  29.452  21.643  14.516
48673W        W12441  30.113  31.559  13.911
48674W        W12442  15.319   3.810   1.226
48675W        W12443  11.718  35.500  11.383
48676W        W12444  24.674  11.163  12.570
48677W        W12445  33.504  30.955  11.488
48678W        W12446   6.205  15.309   2.751
48679W        W12447   4.269  17.653  10.952
48680W        W12448  35.094  26.153   4.340
48681W        W12449  24.981  39.914   2.701
48682W        W12450  14.793  35.961  12.566
48683W        W12451  30.451  31.899   5.239
48684W        W12452   9.328  26.469   4.219
48685W        W12453  25.516  12.767  11.570
48686W        W12454  42.409  40.976   0.449
48687W        W12455  43.982  21.152   3.683
48688W        W12456   9.369  29.523  10.921
48689W        W12457  21.682   5.764  11.490
48690W        W12458  21.058  37.017  14.360
48691W        W12459  42.997  11.168  14.775
48692W        W12460  39.379   0.943  14.287
48693W        W12461  17.071  22.150  13.348
48694W        W12462   4.710   4.251   0.891
48695W        W12463  17.574  28.083  12.959
48696W        W12464  22.524  15.101  14.000
48697W        W12465  32.582  15.810  14.470
48698W        W12466  21.158   2.428   4.717
48699W        W12467  16.168  19.727  11.912
48700W        W12468  38.552   2.425   2.311
48701W        W12469  43.819   1.933  12.453
48702W        W12470  36.507   4.392   3.235
48703W        W12471  17.069  11.346  10.148
48704W        W12472  36.387  29.537   2.316
48705W        W12473  24.481  22.167   0.892
48706W        W12474  22.033  19.069  12.439
48707W        W12475   1.901  40.489  11.382
48708W        W12476   1.466  31.926  13.348
48709W        W12477  22.715  36.975   0.956
48710W        W12478  42.862  13.233  11.912
48711W        W12479   9.391  20.125  12.432
48712W        W12480  41.021  34.504  13.946
48713W        W12481   2.755  40.406   1.757
48714W        W12482  11.255   0.434   0.735
48715W        W12483   1.304  35.979   0.818
48716W        W12484  40.971  30.444   3.678
48717W        W12485   6.301  35.564   1.889
48718W        W12486   4.861  27.083   4.698
48719W        W12487  29.089  25.471  14.796
48720W        W12488   4.842   2.768   0.890
48721W        W12489  35.884  30.988  12.567
48722W        W12490  33.502   6.268  12.450
48723W        W12491  14.713  11.302  12.402
48724W        W12492   4.317  37.512   5.218
48725W        W12493   6.701  42.827  14.398
48726W        W12494  25.206  15.719   4.205
48727W        W12495  16.218  21.695  13.396
48728W        W12496   5.890  31.522   0.449
48729W        W12497  31.907   4.321   0.965
48730W        W12498  32.429  31.055  14.869
48731W        W12499   0.745  31.557  14.835
48732W        W12500  26.144  40.478   4.815
48733W        W12501  13.166  33.529   2.862
48734W        W12502  29.515  15.684   2.759
48735W        W12503   5.710  43.494  13.357
48736W        W12504   9.671   3.278  11.115
48737W        W12505  11.664  16.806  11.505
48738W        W12506  27.145  12.219  13.915
48739W        W12507  23.120   5.810  11.998
48740W        W12508  15.198  38.487   1.782
48741W        W12509  36.903  12.771   1.898
48742W        W12510  35.399  15.301   3.298
48743W        W12511  30.920   5.731  13.000
48744W        W12512  42.495  43.380  12.391
48745W        W12513  33.881   7.745   2.336
48746W        W12514  30.640  25.589   1.439
48747W        W12515  30.072  36.096  11.515
48748W        W12516  33.942  19.239  14.873
48749W        W12517  25.594  21.232   4.163
48750W        W12518  43.314   2.794  14.398
48751W        W12519  26.171  27.994   2.343
48752W        W12520  23.060  31.425   2.335
48753W        W12521   4.708   1.935   2.902
48754W        W12522  35.078  17.137  10.892
48755W        W12523  36.382   1.888   4.205
48756W        W12524   8.204  34.394   4.284
48757W        W12525  41.387  22.064   4.600
48758W        W12526  23.046   7.810   4.299
48759W        W12527  34.106  29.589  10.464
48760W        W12528  14.795  12.308   0.398
48761W        W12529  20.261  16.805   1.855
48762W        W12530  23.186  18.748  13.803
48763W        W12531  20.263   0.835  14.994
48764W        W12532  26.049  41.895   2.730
48765W        W12533   6.706   7.785   2.191
48766W        W12534  21.117  34.867   4.676
48767W        W12535  23.230   9.250   1.762
48768W        W12536  20.655  16.618  14.301
48769W        W12537   1.887  25.017   1.867
48770W        W12538  25.476  29.069  13.849
48771W        W12539  16.211   2.751  11.108
48772W        W12540  11.303  12.628   3.823
48773W        W12541  38.468  28.143   4.827
48774W        W12542  18.665  33.954  12.580
48775W        W12543  31.998  13.179  11.128
48776W        W12544  41.814  15.584  14.837
48777W        W12545  14.136  14.292   1.833
48778W        W12546  13.141   0.262   3.304
48779W        W12547  29.436  31.931   2.793
48780W        W12548  37.875  10.363   3.728
48781W        W12549  35.024  39.939  11.578
48782W        W12550  42.445  29.105   2.806
48783W        W12551   5.697  40.982   1.356
48784W        W12552  35.086  10.142  10.981
48785W        W12553  38.982  41.307   2.316
48786W        W12554  37.872  35.513  14.988
48787W        W12555  25.139  14.605   0.729
48788W        W12556  11.681  18.079  10.606
48789W        W12557   0.428  13.106   2.860
48790W        W12558  23.729  18.240   2.390
48791W        W12559  11.807  17.189   5.270
48792W        W12560  15.601  36.877   0.397
48793W        W12561  20.629   9.804  11.893
48794W        W12562  19.614  39.963  11.887
48795W        W12563   6.727   9.853   1.437
48796W        W12564  26.191  29.027  13.470
48797W        W12565  28.072  29.669  13.506
48798W        W12566  16.133  13.606   0.285
48799W        W12567  33.878   5.823   4.604
48800W        W12568  34.933  29.034  10.962
48801W        W12569  11.371   4.747   4.175
48802W        W12570  24.978  21.744  10.554
48803W        W12571  42.428  21.542   4.644
48804W        W12572  11.817  44.808  14.960
48805W        W12573  26.602  39.899  14.803
48806W        W12574   5.875  22.569  11.911
48807W        W12575   5.794  31.031   2.848
48808W        W12576  36.479   0.824   4.703
48809W        W12577  29.050  11.364   4.145
48810W        W12578   6.377  13.151  12.848
48811W        W12579   5.433  20.034  12.978
48812W        W12580  23.234  29.100  12.066
48813W        W12581  17.263   7.328   3.834
48814W        W12582   7.239  27.159  10.620
48815W        W12583  23.518  38.925   3.856
48816W        W12584  31.901   7.832   2.685
48817W        W12585  19.582   1.764   1.385
48818W        W12586   7.817  42.419  11.994
48819W        W12587   4.316  22.584   0.414
48820W        W12588  14.271  40.397  12.420
48821W        W12589  26.064  12.717   1.886
48822W        W12590  18.291  31.004  10.556
48823W        W12591   7.342  12.149  11.099
48824W        W12592   3.279   9.813   3.277
48825W        W12593  20.737  11.220  14.426
48826W        W12594  22.581   1.374   2.293
48827W        W12595  13.828  11.775  11.975
48828W        W12596  10.791   7.304  11.605
48829W        W12597   3.251   6.789  10.592
48830W        W12598  14.652  37.531   4.273
48831W        W12599   0.965  15.766   2.225
48832W        W12600  41.006   1.329  10.571
48833W        W12601   9.665  15.588  12.909
48834W        W12602  21.250   2.234   3.718
48835W        W12603  44.293  15.086   3.204
48836W        W12604  39.537   1.270   0.362
48837W        W12605   8.362   9.885  13.316
48838W        W12606  25.090  17.574  10.608
48839W        W12607  19.713  28.104  12.978
48840W        W12608   2.446  30.634  14.315
48841W        W12609  25.541   8.291   0.284
48842W        W12610  27.165  39.353  12.492
48843W        W12611  15.260   7.912  14.276
48844W        W12612  17.602  33.905  13.000
48845W        W12613  23.508  38.958  13.000
48846W        W12614  14.131  33.951   2.322
48847W        W12615   3.828  41.796  10.924
48848W        W12616  30.565  18.067   2.346
48849W        W12617  28.061  17.696   2.336
48850W        W12618  42.889   5.760   0.466
48851W        W12619   7.871  22.105  14.849
48852W        W12620  38.921  28.166   4.812
48853W        W12621  31.010  13.263   4.771
48854W        W12622  39.520  17.145   3.179
48855W        W12623  30.069  20.677   1.302
48856W        W12624  11.203   6.706  13.523
48857W        W12625  10.860  36.423   2.317
48858W        W12626  14.198  38.938  14.016
48859W        W12627  14.306  12.237  10.969
48860W        W12628  15.313  20.103   2.750
48861W        W12629  23.028  27.179  14.963
48862W        W12630  21.539  19.110   2.771
48863W        W12631  41.961  10.346   5.132
48864W        W12632   0.964   3.238   1.395
48865W        W12633  12.317  38.889   3.192
48866W        W12634  35.011  17.164  11.537
48867W        W12635  18.777  32.433  11.920
48868W        W12636  28.154  40.519  11.906
48869W        W12637  21.538  21.168   1.430
48870W        W12638  42.999  29.052   3.334
48871W        W12639   7.291   0.865  11.429
48872W        W12640   2.417  19.537  10.957
48873W        W12641  29.444  40.977  14.313
48874W        W12642  25.199   7.790  13.804
48875W        W12643  12.271  12.840   2.348
48876W        W12644  14.677  33.945  11.517
48877W        W12645  23.704  23.647  13.441
48878W        W12646  41.349  26.565  12.400
48879W        W12647  43.369  19.247   4.355
48880W        W12648  17.627  21.638  12.340
48881W        W12649  41.519  35.881  13.433
48882W        W12650  22.089  31.053   1.304
48883W        W12651  39.850  40.006   4.353
48884W        W12652  44.816  36.041   3.316
48885W        W12653  23.521   2.838  10.943
48886W        W12654  43.808  25.158  11.598
48887W        W12655  18.592  13.207   1.348
48888W        W12656  31.432  22.156   2.326
48889W        W12657  34.467  19.543   4.123
48890W        W12658   4.720  18.765  13.872
48891W        W12659   4.327  27.652   3.809
48892W        W12660  24.200  28.669  12.998
48893W        W12661  21.251   3.274   5.129
48894W        W12662  36.448  17.236   0.366
48895W        W12663  37.540  33.415   1.364
48896W        W12664  19.613   2.254   1.873
48897W        W12665  15.815  15.112   2.799
48898W        W12666  39.928  17.757  14.934
48899W        W12667  37.431  27.107  11.473
48900W        W12668  28.549  29.922  10.451
48901W        W12669   0.287  42.283   2.684
48902W        W12670  36.023  18.569   0.404
48903W        W12671  38.545  10.842  11.898
48904W        W12672  43.949  14.623   2.741
48905W        W12673  26.019   5.206  14.849
48906W        W12674  14.776  16.686   5.128
48907W        W12675  25.668  23.677  11.089
48908W        W12676   4.449  44.410   1.388
48909W        W12677  44.842   9.877  12.378
48910W        W12678  31.065   0.785  13.797
48911W        W12679   7.689  28.133  13.042
48912W        W12680  27.030  44.345  10.580
48913W        W12681  44.499  29.585  11.467
48914W        W12682  16.793  24.579  14.366
48915W        W12683   6.774  30.639   0.305
48916W        W12684  26.591  18.606  12.093
48917W        W12685  37.919  34.425  14.877
48918W        W12686  31.114  44.825  11.046
48919W        W12687  40.959  36.927   0.763
48920W        W12688   3.827  16.709  14.441
48921W        W12689   3.389  36.486  13.967
48922W        W12690  44.839   4.905  11.058
48923W        W12691  31.923  35.099   0.815
48924W        W12692  12.780   0.343   4.116
48925W        W12693  19.235   3.877  10.512
48926W        W12694  40.000  32.428  11.877
48927W        W12695  20.597   4.898   3.760
48928W        W12696  14.808   9.166  12.044
48929W        W12697  14.302  44.860  13.455
48930W        W12698   3.276  24.600   3.381
48931W        W12699   7.277  33.006   0.284
48932W        W12700  28.094   4.821  10.503
48933W        W12701  35.067  24.626  10.946
48934W        W12702   8.852  10.234  14.760
48935W        W12703  21.741   8.160  14.430
48936W        W12704  20.725  16.090   2.721
48937W        W12705  11.667  20.666   0.312
48938W        W12706  27.153  12.143  14.795
48939W        W12707  31.444  26.535  13.449
48940W        W12708  22.192   4.229   2.320
48941W        W12709   6.742  43.285   3.786
48942W        W12710   9.256   8.690   4.169
48943W        W12711  23.676  17.602   3.294
48944W        W12712  31.622  40.517  10.914
48945W        W12713  25.627   6.282  11.428
48946W        W12714   1.896  40.927  14.879
48947W        W12715  42.489  20.072  14.781
48948W        W12716  33.531  21.659  11.495
48949W        W12717  27.451  35.101   3.766
48950W        W12718  26.608  27.945   5.096
48951W        W12719  39.444  24.600   2.188
48952W        W12720  20.038  35.005   4.114
48953W        W12721  12.800  39.504   1.270
48954W        W12722  20.725  11.203   4.249
48955W        W12723  11.658  29.042   0.279
48956W        W12724  12.126  41.942   1.431
48957W        W12725  31.518   2.756  10.532
48958W        W12726  24.053  31.960   4.297
48959W        W12727  38.536   0.455   4.135
48960W        W12728  14.748  24.161  13.055
48961W        W12729  35.510  33.122  12.855
48962W        W12730  37.058  43.974   0.258
48963W        W12731  29.448  42.446   4.277
48964W        W12732  19.651   4.759   3.347
48965W        W12733  32.032   4.418  12.874
48966W        W12734  22.097  29.089  11.089
48967W        W12735  17.126  39.371   3.175
48968W        W12736   6.813  15.640   9.926
48969W        W12737  37.059  26.681   4.666
48970W        W12738  24.507   2.926  13.896
48971W        W12739   9.391   6.197   3.321
48972W        W12740  28.111   9.871  11.011
48973W        W12741   3.414  33.433  14.322
48974W        W12742  12.807  16.722  12.890
48975W        W12743  26.509  38.962   2.806
48976W        W12744  19.638  21.065  11.057
48977W        W12745  44.803   0.825  11.561
48978W        W12746  33.876  11.756  13.917
48979W        W12747  39.888  23.687   0.909
48980W        W12748   3.456   7.244   2.696
48981W        W12749   3.826  23.690   4.830
48982W        W12750   7.186  43.494  11.450
48983W        W12751  43.484  34.008  10.965
48984W        W12752  38.845   1.759  14.916
48985W        W12753  38.995   5.418  12.095
48986W        W12754  23.158  24.008   3.238
48987W        W12755  24.101  41.350  13.847
48988W        W12756  31.067  19.049   1.739
48989W        W12757   1.859  10.248   2.699
48990W        W12758  37.070  22.531   0.835
48991W        W12759  42.887  43.969  10.937
48992W        W12760  32.610  37.468   2.684
48993W        W12761  39.523  43.856  13.968
48994W        W12762  10.281  24.626   2.236
48995W        W12763   2.359  20.105   4.810
48996W        W12764  30.023   7.902   2.770
48997W        W12765  30.996  14.111   2.696
48998W        W12766   2.321  14.752  12.441
48999W        W12767  18.603  39.945  10.627
49000W        W12768  38.384  29.992  15.000
49001W        W12769   4.921  22.159   2.778
49002W        W12770  37.369  38.491  11.009
49003W        W12771   8.258  28.092  12.982
49004W        W12772  26.179  33.409   1.829
49005W        W12773  16.605  28.179   5.146
49006W        W12774  20.678  10.360  14.904
49007W        W12775  34.904  44.384  10.127
49008W        W12776  24.181  27.984  10.062
49009W        W12777  39.064   5.899   3.319
49010W        W12778  28.986  14.255  14.328
49011W        W12779  31.616  31.564   1.740
49012W        W12780  20.257   2.844   0.873
49013W        W12781   2.471  10.312  11.373
49014W        W12782  38.975  33.979   3.318
49015W        W12783  15.168   8.684  11.865
49016W        W12784   6.752   3.784  11.507
49017W        W12785  39.964  34.914   0.474
49018W        W12786  15.088   0.895  12.862
49019W        W12787  12.718  20.239   0.289
49020W        W12788  41.399  13.619  11.440
49021W        W12789   2.905  43.289   2.901
49022W        W12790  39.451  43.768   4.816
49023W        W12791  18.724  44.762  12.370
49024W        W12792  12.776  44.910   1.218
49025W        W12793  23.701  10.727   1.752
49026W        W12794  23.031   5.255   3.822
49027W        W12795  41.472  31.948   1.421
49028W        W12796  43.458  37.988   2.897
49029W        W12797   0.771  27.666   4.155
49030W        W12798  25.602  31.594   5.153
49031W        W12799  39.528  27.597  11.475
49032W        W12800  12.625  35.560  12.015
49033W        W12801  12.251  19.779  11.026
49034W        W12802  10.739   3.267  13.420
49035W        W12803  35.517  28.070  13.034
49036W        W12804  29.617  14.662  14.782
49037W        W12805  29.560  23.206   4.222
49038W        W12806  33.553  43.395   4.834
49039W        W12807   7.728  26.655   0.333
49040W        W12808   4.358  36.462   3.782
49041W        W12809  31.591   2.267  11.400
49042W        W12810  27.135  26.979  10.457
49043W        W12811   5.271   1.366   4.805
49044W        W12812  21.665   6.325  13.819
49045W        W12813   3.712  32.026   4.319
49046W        W12814  41.952   1.914  12.891
49047W        W12815  14.112   0.491  13.392
49048W        W12816  21.535   4.213   0.817
49049W        W12817  28.178  38.349  13.450
49050W        W12818   0.280  12.141   4.312
49051W        W12819   9.169  29.534   0.296
49052W        W12820  23.599  26.478  13.435
49053W        W12821  44.415   0.484   5.142
49054W        W12822   7.908  42.295   2.767
49055W        W12823   6.815  11.257  12.500
49056W        W12824  26.090   1.465  14.321
49057W        W12825   2.332  40.458   5.144
49058W        W12826   1.812  17.665   1.789
49059W        W12827   1.441  27.078  11.910
49060W        W12828  15.322  26.561  11.409
49061W        W12829  31.012  13.152  14.447
49062W        W12830  18.574  13.831   4.619
49063W        W12831  25.580  20.597   4.340
49064W        W12832   1.749  27.066   1.421
49065W        W12833  19.684  24.606   0.823
49066W        W12834  25.021  26.037  12.579
49067W        W12835  42.828  35.534  11.428
49068W        W12836  17.087  34.017   2.879
49069W        W12837  22.999  21.619   4.665
49070W        W12838  41.474  34.471  14.384
49071W        W12839  17.269  27.467   2.249
49072W        W12840  35.067  13.154  12.020
49073W        W12841  18.198  32.505  11.899
49074W        W12842  42.810  26.674   2.719
49075W        W12843  14.341  35.957   0.870
49076W        W12844  44.794  15.086  14.805
49077W        W12845  38.971  26.125  14.333
49078W        W12846  14.818  25.159  12.846
49079W        W12847  37.948  10.769   0.261
49080W        W12848  12.699  14.205   5.233
49081W        W12849  12.216   8.278  13.419
49082W        W12850  33.099  16.761   1.293
49083W        W12851  22.221  44.987   1.272
49084W        W12852  24.056  37.475  14.781
49085W        W12853   3.286   4.882  14.349
49086W        W12854  34.893   1.846  13.894
49087W        W12855  31.092   9.239  14.382
49088W        W12856  44.768  23.006  10.572
49089W        W12857   9.357  25.123   3.197
49090W        W12858  28.954  35.428   3.864
49091W        W12859  16.110  10.139   2.809
49092W        W12860  43.346  36.466   4.234
49093W        W12861  34.970  18.131   4.243
49094W        W12862   9.201  13.174   3.350
49095W        W12863   8.289  44.825  12.924
49096W        W12864  43.800  22.588   1.451
49097W        W12865   3.910  18.647   1.425
49098W        W12866  36.020   9.732   2.712
49099W        W12867  17.121  39.051   1.219
49100W        W12868  18.268  10.179  13.405
49101W        W12869   0.820  39.320   9.968
49102W        W12870  12.252   4.317   3.223
49103W        W12871  12.263  13.779   2.279
49104W        W12872  33.988  22.535   0.877
49105W        W12873  23.626   1.859   4.237
49106W        W12874  44.003  34.375   0.310
49107W        W12875  42.011  31.066   3.309
49108W        W12876  32.563  30.162  14.998
49109W        W12877  32.418   8.834  10.567
49110W        W12878  39.861  24.481   3.238
49111W        W12879   7.193  15.093  11.877
49112W        W12880  26.482  37.393   0.458
49113W        W12881  14.226   8.308   2.306
49114W        W12882  24.173   9.279  11.868
49115W        W12883   6.777  19.668  11.472
49116W        W12884  26.495  39.446   2.673
49117W        W12885  10.858   3.772  12.419
49118W        W12886   8.198  22.520   2.279
49119W        W12887   2.353  10.676   0.281
49120W        W12888  35.587  19.144  12.474
49121W        W12889  36.899  35.449   3.192
49122W        W12890  26.611  31.123  12.456
49123W        W12891  25.475   5.218   1.865
49124W        W12892  17.281   6.835   4.601
49125W        W12893  15.200  25.118   0.844
49126W        W12894  35.578  19.114   4.288
49127W        W12895  39.430  31.528   5.752
49128W        W12896  37.942   0.261   2.841
49129W        W12897   0.469  25.143  12.383
49130W        W12898  39.383  25.208   4.320
49131W        W12899  33.969  37.068  11.456
49132W        W12900   7.743  23.734  10.485
49133W        W12901  36.363   8.783  13.500
49134W        W12902  28.978  31.961   3.735
49135W        W12903   0.267  35.512   3.821
49136W        W12904  43.995  18.639  11.382
49137W        W12905   5.851  43.418   1.370
49138W        W12906   9.771  42.318   0.481
49139W        W12907  43.971  41.337  10.607
49140W        W12908  37.913  14.332  10.577
49141W        W12909  19.283  19.253  14.885
49142W        W12910  28.941   6.271  13.334
49143W        W12911   1.870   5.732  13.309
49144W        W12912  29.071  22.667   0.288
49145W        W12913  44.423   9.310  11.874
49146W        W12914  22.744   4.850   4.310
49147W        W12915  35.424  29.112   1.327
49148W        W12916  37.495  10.662  13.832
49149W        W12917   1.431  11.363   1.894
49150W        W12918  44.339  25.131   4.159
49151W        W12919  12.208   6.794  12.870
49152W        W12920   0.744  25.611  10.932
49153W        W12921  19.618   6.382   4.306
49154W        W12922   2.783  10.645  11.532
49155W        W12923  12.682  18.690   1.827
49156W        W12924  25.037  40.948  13.313
49157W        W12925  41.829   8.728   1.867
49158W        W12926  40.904   8.803   2.751
49159W        W12927  42.925  26.488  10.561
49160W        W12928  27.988  23.733  11.392
49161W        W12929   5.396  36.853  13.872
49162W        W12930  12.819   9.262   2.867
49163W        W12931  38.919  13.750   1.721
49164W        W12932   9.284  11.320   0.413
49165W        W12933  14.338  42.289   4.275
49166W        W12934  14.211   9.368  10.513
49167W        W12935   6.256  13.758   0.418
49168W        W12936  44.835  39.437   1.335
49169W        W12937  37.995  41.981   3.240
49170W        W12938   9.649   3.436  13.797
49171W        W12939  43.799  39.008  10.584
49172W        W12940  30.633  41.841  13.981
49173W        W12941   4.421  30.532   1.314
49174W        W12942  33.465  22.737  13.530
49175W        W12943  15.330  26.608  14.401
49176W        W12944  20.534  24.609  14.316
49177W        W12945  38.060  40.993   4.783
49178W        W12946  41.938  39.992  14.788
49179W        W12947  22.027  21.175  10.970
49180W        W12948  12.154  35.528   0.335
49181W        W12949  36.993  10.753   5.173
49182W        W12950  27.007  29.543   4.732
49183W        W12951   7.408  16.812  13.927
49184W        W12952  10.714  15.144   0.882
49185W        W12953  36.857  17.086  11.569
49186W        W12954  26.093  37.405  13.894
49187W        W12955  23.151  19.091  11.007
49188W        W12956  38.484   4.856  10.572
49189W        W12957  32.592   7.885   4.732
49190W        W12958  26.152   4.250  11.502
49191W        W12959   0.257   6.191  11.523
49192W        W12960   8.363  44.986  11.958
49193W        W12961  26.518   7.831  12.886
49194W        W12962   6.758  25.047   2.710
49195W        W12963  35.501  42.992   0.366
49196W        W12964  21.748  23.006   0.771
49197W        W12965  44.363  21.724  14.472
49198W        W12966   6.255  34.405   3.385
49199W        W12967  43.281  31.535   1.704
49200W        W12968  12.644  11.743  13.399
49201W        W12969  18.579  43.851   1.869
49202W        W12970  31.408  12.230   0.777
49203W        W12971  24.505  35.367  11.381
49204W        W12972  38.469  40.404  11.053
49205W        W12973  24.666  22.036  11.945
49206W        W12974   4.216  41.955   4.307
49207W        W12975  19.651  36.516  13.547
49208W        W12976  15.798   7.688   2.778
49209W        W12977  16.191  29.488  14.899
49210W        W12978  37.431   6.818   1.704
49211W        W12979  18.243  42.842  11.117
49212W        W12980  25.690  20.095  11.524
49213W        W12981  44.473  44.886  11.945
49214W        W12982   3.327   1.975   3.684
49215W        W12983  28.568  37.832   4.629
49216W        W12984  12.714  29.063   0.484
49217W        W12985  25.073  24.026   0.337
49218W        W12986  20.563  35.539  14.989
49219W        W12987   7.870  42.303   1.339
49220W        W12988  27.069  14.213   4.825
49221W        W12989  30.597  35.032  11.443
49222W        W12990  25.000  33.385   3.664
49223W        W12991  33.044   1.296   1.932
49224W        W12992  15.708   5.897   2.811
49225W        W12993  28.045  37.374   2.392
49226W        W12994  18.076   0.983   4.829
49227W        W12995  15.603  26.600  11.970
49228W        W12996  27.483  24.999  10.486
49229W        W12997  29.424  31.495  14.507
49230W        W12998   3.825  44.320  13.871
49231W        W12999  18.059  20.044   3.319
49232W        W13000  29.004   7.859  12.824
49233W        W13001  34.106   1.250  14.836
49234W        W13002  34.471  24.478  13.821
49235W        W13003  15.815   7.355  14.409
49236W        W13004   4.275  11.757   4.785
49237W        W13005  10.776   7.868   0.395
49238W        W13006  42.418  39.490  11.922
49239W        W13007  33.479  36.388  11.875
49240W        W13008  24.492  16.255  14.332
49241W        W13009   8.693  16.586  13.414
49242W        W13010  29.616  41.788   2.774
49243W        W13011  39.345  44.494   4.273
49244W        W13012  16.735   3.786   1.702
49245W        W13013  35.482  30.625   0.280
49246W        W13014  28.155   7.737  14.790
49247W        W13015  28.629  32.421  14.984
49248W        W13016  43.789  30.980  14.993
49249W        W13017  35.887  21.164   3.776
49250W        W13018   9.159  24.722  11.050
49251W        W13019  24.641  18.109   1.902
49252W        W13020  18.202  41.433  11.066
49253W        W13021  38.978  44.304   0.252
49254W        W13022   2.457  28.079   3.298
49255W        W13023  22.099   4.823  10.996
49256W        W13024  44.463  36.496   0.410
49257W        W13025  15.788  23.207   4.303
49258W        W13026  10.350  21.593  13.942
49259W        W13027  37.054  34.929   0.854
49260W        W13028  40.889  30.513   4.312
49261W        W13029  10.726  34.979   0.821
49262W        W13030  15.264  15.807  13.350
49263W        W13031  41.427  25.485   2.759
49264W        W13032  41.950  15.145   3.364
49265W        W13033  21.606  41.913  13.933
49266W        W13034  36.894  33.459  11.110
49267W        W13035   2.807  41.345   1.862
49268W        W13036  20.527  33.880  11.959
49269W        W13037  36.378  12.703  14.982
49270W        W13038   7.783  37.043  11.610
49271W        W13039  13.108  33.087   1.723
49272W        W13040   9.353  12.123   2.218
49273W        W13041   8.657  21.702  11.394
49274W        W13042  12.290  22.698   4.702
49275W        W13043  41.942  28.563  11.987
49276W        W13044  29.627  18.641  11.003
49277W        W13045  17.106  21.193  14.885
49278W        W13046  39.968  41.440  14.924
49279W        W13047   4.418  17.169   4.232
49280W        W13048  42.290  42.330   3.279
49281W        W13049  26.653  40.548   2.376
49282W        W13050   4.923  16.200  14.466
49283W        W13051  18.756  18.616  14.464
49284W        W13052  26.599  27.176   2.682
49285W        W13053  40.511  44.466   0.454
49286W        W13054   6.336  31.090   4.140
49287W        W13055  40.872  13.729  10.516
49288W        W13056  42.413  38.898  13.061
49289W        W13057  24.557  33.592   1.727
49290W        W13058  32.938  28.469   2.859
49291W        W13059  35.578  40.822  12.982
49292W        W13060  19.059  14.653  11.035
49293W        W13061   1.852  29.048  13.464
49294W        W13062   7.811  33.580   2.325
49295W        W13063  28.450   7.293   1.709
49296W        W13064  32.092  42.361   2.786
49297W        W13065  37.394   6.298   2.179
49298W        W13066  33.439  44.397  13.486
49299W        W13067  43.488  35.054  10.614
49300W        W13068  19.714  12.333   3.279
49301W        W13069   6.311  44.502  14.013
49302W        W13070  22.101   8.742  10.488
49303W        W13071  43.791  37.980  10.449
49304W        W13072  26.086  30.908  14.762
49305W        W13073  13.203   9.876   3.170
49306W        W13074  18.132  32.018  10.518
49307W        W13075  17.661   8.721   4.792
49308W        W13076   7.406  26.555   3.282
49309W        W13077  38.933  31.901  13.952
49310W        W13078   3.761  14.813   3.779
49311W        W13079  42.515   0.881   1.784
49312W        W13080  32.987   6.773  12.848
49313W        W13081  44.872  17.274   1.371
49314W        W13082  39.353  20.715  11.980
49315W        W13083  30.577  23.514   2.801
49316W        W13084  16.254  34.548   2.695
49317W        W13085  30.109  11.853   4.803
49318W        W13086  15.813  35.477   1.929
49319W        W13087  12.762  44.806   0.954
49320W        W13088  20.710  22.024  13.039
49321W        W13089   4.934  19.175   2.741
49322W        W13090   3.806  44.392   3.162
49323W        W13091  18.607  13.203   1.826
49324W        W13092   1.341   6.780   3.648
49325W        W13093   4.716  15.261  13.958
49326W        W13094  27.165  25.652  10.993
49327W        W13095  41.461   6.867  13.826
49328W        W13096  44.949  44.917  13.913
49329W        W13097   1.389  19.141   2.366
49330W        W13098  14.700  26.082   1.330
49331W        W13099   1.400  12.850   2.419
49332W        W13100  43.394  44.501   3.223
49333W        W13101   2.856  28.545  14.997
49334W        W13102  25.609  12.272   1.756
49335W        W13103  39.515  42.787   1.378
49336W        W13104  41.531  28.647  12.909
49337W        W13105  11.769  13.342  11.102
49338W        W13106  25.510   8.368  10.625
49339W        W13107  22.561  33.476  13.898
49340W        W13108  23.083  38.421  13.366
49341W        W13109   4.325  41.843  14.817
49342W        W13110  19.776   1.371   1.767
49343W        W13111  10.310  16.257   3.786
49344W        W13112  21.651  35.083   3.668
49345W        W13113  39.813  25.644   3.301
49346W        W13114  27.461  35.376  12.851
49347W        W13115  43.413  16.726   2.359
49348W        W13116   4.884  38.018   3.668
49349W        W13117  20.238  16.207   3.749
49350W        W13118  40.494  44.411   5.106
49351W        W13119  35.057  15.250  12.347
49352W        W13120  26.117  31.533   2.189
49353W        W13121  38.520  43.332  13.033
49354W        W13122  17.568   4.754   1.856
49355W        W13123  22.687  43.859   1.273
49356W        W13124  21.088  29.569  14.859
49357W        W13125   6.682  24.573   2.801
49358W        W13126   6.390  16.571   4.229
49359W        W13127  27.489  26.491  10.960
49360W        W13128  16.755  19.753  12.996
49361W        W13129  11.856  11.723  11.606
49362W        W13130  34.994  26.696   1.792
49363W        W13131   8.771  36.052  12.873
49364W        W13132   8.798  17.110   4.226
49365W        W13133  33.923  36.013   2.665
49366W        W13134  32.530  15.581  12.490
49367W        W13135   1.799  12.158  10.979
49368W        W13136  11.710   2.239  14.381
49369W        W13137  30.418  38.006  11.610
49370W        W13138  12.755  11.165  11.090
49371W        W13139   5.433  20.230   0.432
49372W        W13140   7.323  29.665   4.291
49373W        W13141  30.647  29.617  10.575
49374W        W13142  36.037   9.763   1.256
49375W        W13143  10.162   4.887   2.387
49376W        W13144  25.006  19.706  13.548
49377W        W13145  43.940  11.757  11.427
49378W        W13146  15.808  10.789  13.002
49379W        W13147  29.479  38.508  14.458
49380W        W13148  35.055  39.028   4.695
49381W        W13149  24.082  44.906  11.863
49382W        W13150   8.810  19.708  14.441
49383W        W13151   4.219  13.107   2.321
49384W        W13152  29.630  24.225   3.323
49385W        W13153  13.622  31.028   0.289
49386W        W13154  28.017  44.770   1.798
49387W        W13155  32.971   3.395   1.824
49388W        W13156   8.178   2.750  14.985
49389W        W13157  36.529  41.469  14.281
49390W        W13158  24.067   0.281   5.254
49391W        W13159  42.306  24.025   3.286
49392W        W13160  21.564   4.900  14.371
49393W        W13161  11.150   3.288   5.119
49394W        W13162  42.326   8.895   4.667
49395W        W13163  33.420  36.056  12.510
49396W        W13164   8.188  33.945   4.317
49397W        W13165  41.350   6.680  14.882
49398W        W13166   8.836  40.018  14.301
49399W        W13167  20.206   1.298  10.984
49400W        W13168  24.569   0.756  14.783
49401W        W13169  33.387  19.730  12.002
49402W        W13170  37.038  43.443  13.353
49403W        W13171  10.809   5.858  11.580
49404W        W13172   9.832  29.115   2.309
49405W        W13173  14.630  31.924  11.875
49406W        W13174  44.819   6.822  12.572
49407W        W13175  33.079  10.812   0.303
49408W        W13176  40.017   4.330   0.341
49409W        W13177  35.098   0.858   2.761
49410W        W13178   1.292  11.280  13.447
49411W        W13179   0.900  25.121   4.245
49412W        W13180  35.091   9.228  13.858
49413W        W13181   3.947  32.102  10.913
49414W        W13182  13.678  32.606   3.814
49415W        W13183   6.366  24.212   4.339
49416W        W13184  32.099   7.383   2.881
49417W        W13185  31.061   1.957   1.241
49418W        W13186  31.429  35.465   2.372
49419W        W13187  42.370   6.813  12.531
49420W        W13188  32.395  29.103  11.118
49421W        W13189  33.132  17.289   2.724
49422W        W13190  28.508   2.917   0.939
49423W        W13191   2.938  37.922   1.703
49424W        W13192  22.625  12.143  10.450
49425W        W13193  43.456  23.660   2.848
49426W        W13194  30.545   3.892  12.408
49427W        W13195  13.765   1.930   3.151
49428W        W13196  26.011  37.085  14.924
49429W        W13197   1.358  41.978  12.916
49430W        W13198  42.805  34.389   3.693
49431W        W13199  19.121  14.259  14.509
49432W        W13200  43.792  31.605   4.125
49433W        W13201  28.636  24.563  13.995
49434W        W13202  11.858  40.414   3.862
49435W        W13203  12.268  10.154  13.493
49436W        W13204  26.956  19.041  11.469
49437W        W13205  15.653  24.064   3.341
49438W        W13206  26.028  21.129   4.222
49439W        W13207  22.525   8.189   2.235
49440W        W13208  25.153   5.430   0.851
49441W        W13209  25.551  28.120   0.843
49442W        W13210  33.108  32.429   1.348
49443W        W13211   6.731  19.779   0.463
49444W        W13212   4.809  31.964  12.384
49445W        W13213  37.912  11.218   2.829
49446W        W13214   1.332   2.271  13.955
49447W        W13215  22.181   9.328  11.962
49448W        W13216   2.773  24.177  10.626
49449W        W13217  28.505  22.207   4.204
49450W        W13218  11.196  31.926  11.387
49451W        W13219   5.264  12.205   2.790
49452W        W13220   0.777  39.365  13.981
49453W        W13221   9.709  25.540   3.305
49454W        W13222  42.382  13.297   3.185
49455W        W13223  44.493  11.188   3.717
49456W        W13224  25.512  42.518  10.577
49457W        W13225  11.815  28.648  11.052
49458W        W13226  28.183  32.456   4.699
49459W        W13227  25.611  40.513  14.002
49460W        W13228  35.470  39.425   2.205
49461W        W13229  44.454  18.124  11.090
49462W        W13230  42.477  23.067   4.166
49463W        W13231  37.479  35.934  12.429
49464W        W13232   5.314  30.568  13.895
49465W        W13233  24.128  14.734  11.079
49466W        W13234  29.615  40.969  12.394
49467W        W13235  12.178  21.078   2.731
49468W        W13236   6.237  29.532   2.272
49469W        W13237  22.737  10.343  11.405
49470W        W13238  27.063  11.326  13.984
49471W        W13239  43.508  23.155  10.516
49472W        W13240  11.736   9.319  10.920
49473W        W13241  25.047  14.311   4.834
49474W        W13242  23.499  11.799   4.764
49475W        W13243   0.814  43.845   1.932
49476W        W13244   1.863   8.298  11.396
49477W        W13245  29.506   6.407   0.808
49478W        W13246  32.107  14.688   2.362
49479W        W13247  27.488  33.527  13.474
49480W        W13248  15.141  28.541  12.039
49481W        W13249  41.477  18.254   1.839
49482W        W13250  19.243  27.608   0.436
49483W        W13251  37.426  41.943   2.409
49484W        W13252  25.593  21.715  12.829
49485W        W13253   3.307  32.531  13.471
49486W        W13254  10.762  22.056  13.961
49487W        W13255   1.387   3.407   2.796
49488W        W13256   2.830   4.899   0.797
49489W        W13257  41.794   7.702   3.304
49490W        W13258   4.433  30.992  11.525
49491W        W13259  22.570  25.120   3.686
49492W        W13260  44.269  24.141   4.696
49493W        W13261  41.042  42.403  11.007
49494W        W13262  33.019  16.809  11.442
49495W        W13263  30.010   1.930   4.630
49496W        W13264  15.232  44.347  10.907
49497W        W13265   9.794  20.526   2.715
49498W        W13266   5.414  34.384   4.239
49499W        W13267  38.949  28.124   3.858
49500W        W13268  41.429  35.589   3.794
49501W        W13269  38.533  18.749  10.913
49502W        W13270  10.365  39.403   0.793
49503W        W13271  16.292  24.514   2.754
49504W        W13272  42.930  24.481   1.398
49505W        W13273  11.203  23.495   1.380
49506W        W13274   5.437  30.941   3.850
49507W        W13275  30.514  19.182   3.148
49508W        W13276   0.855   3.879  14.460
49509W        W13277  10.869  16.159  14.829
49510W        W13278  39.829  19.102  11.540
49511W        W13279   6.329  25.213  11.933
49512W        W13280  23.195  23.573   3.699
49513W        W13281  24.555  23.634  10.458
49514W        W13282  41.876   7.694  11.927
49515W        W13283  15.730  14.708   4.261
49516W        W13284  21.233  20.753   2.816
49517W        W13285  10.294  20.726   2.225
49518W        W13286  34.489  23.600  11.449
49519W        W13287  33.407  17.087   3.284
49520W        W13288  12.193   5.861  12.825
49521W        W13289   4.876  36.040   3.713
49522W        W13290  33.510  11.626  11.541
49523W        W13291  15.812   5.785   3.806
49524W        W13292  27.152  29.550   1.837
49525W        W13293  34.904   0.323  13.934
49526W        W13294  14.310  15.717  11.031
49527W        W13295   7.886   9.365  14.295
49528W        W13296   1.828  37.543   2.369
49529W        W13297  24.083  24.082   0.783
49530W        W13298  40.972  41.410  13.401
49531W        W13299  34.608   0.806   0.808
49532W        W13300  15.757  44.848  11.000
49533W        W13301  44.999   9.335  13.832
49534W        W13302  39.504  21.230   3.276
49535W        W13303  12.154  20.220   1.854
49536W        W13304  32.636   6.813  11.583
49537W        W13305   8.866  10.793   0.835
49538W        W13306  26.146  20.703   2.277
49539W        W13307   2.838  24.480  11.408
49540W        W13308   7.391  42.386   0.358
49541W        W13309  32.519   9.311   1.927
49542W        W13310   5.849  30.619  14.907
49543W        W13311  19.593  18.583   4.239
49544W        W13312  29.657  32.988   2.357
49545W        W13313  21.652  36.413  11.451
49546W        W13314  20.145   7.355  14.364
49547W        W13315   0.362   1.460  11.087
49548W        W13316   2.814  20.242   4.323
49549W        W13317   3.837  33.533   2.814
49550W        W13318   7.861  22.724  13.394
49551W        W13319  33.520   7.376  14.941
49552W        W13320  29.157  14.621   4.278
49553W        W13321  41.018  27.026  10.517
49554W        W13322  20.748  15.276   0.438
49555W        W13323  37.417  31.139   0.774
49556W        W13324  22.083  20.673   2.850
49557W        W13325  44.334   5.918   1.385
49558W        W13326  22.148  23.042   1.847
49559W        W13327   2.728   2.814   4.342
49560W        W13328  13.707   0.479   3.370
49561W        W13329  32.072   7.902   1.285
49562W        W13330  28.942  11.630   1.374
49563W        W13331  39.002  20.199   3.838
49564W        W13332   5.792  40.370   2.219
49565W        W13333  33.576   0.862   2.207
49566W        W13334   6.789   2.927  14.472
49567W        W13335  12.197  37.916  14.016
49568W        W13336  32.123  33.991  14.770
49569W        W13337  24.146  17.086  12.983
49570W        W13338  16.240   0.824   2.792
49571W        W13339  25.597  40.431   2.800
49572W        W13340  33.525  11.276   0.806
49573W        W13341  10.786  19.630  13.366
49574W        W13342   4.885  24.095  12.004
49575W        W13343   2.403  30.936   2.770
49576W        W13344  12.130  35.010  11.480
49577W        W13345  22.633  18.091  12.889
49578W        W13346  10.167  29.670   4.352
49579W        W13347  13.288  40.438  14.940
49580W        W13348  27.002  34.103   1.810
49581W        W13349  10.731  44.450  10.995
49582W        W13350  30.416  20.194   4.293
49583W        W13351  16.292   3.878  12.910
49584W        W13352  39.333  26.173   3.690
49585W        W13353  34.923  19.084   9.973
49586W        W13354   9.722  13.238   0.395
49587W        W13355  26.189  15.747  14.453
49588W        W13356  30.069  18.262  13.971
49589W        W13357   2.914  33.076  13.343
49590W        W13358   0.864   6.686   4.659
49591W        W13359  25.003  29.430  12.384
49592W        W13360  10.371   9.845  12.861
49593W        W13361  39.002  39.369  14.832
49594W        W13362  38.063  37.971   1.334
49595W        W13363   5.879  21.018   1.395
49596W        W13364  40.496  29.545   3.835
49597W        W13365  31.993  27.107   0.412
49598W        W13366  12.773  19.539   0.337
49599W        W13367  34.521  36.527  10.982
49600W        W13368  11.247  42.449   4.716
49601W        W13369  31.556  31.508  12.006
49602W        W13370  41.528  20.152  10.415
49603W        W13371  12.685  25.964  12.999
49604W        W13372  13.259  32.072   1.911
49605W        W13373  13.159   1.310  12.549
49606W        W13374  28.597   4.277  13.528
49607W        W13375  31.082  15.261   4.658
49608W        W13376  37.358  16.764  11.910
49609W        W13377  30.417  10.184  10.573
49610W        W13378  10.176   2.327  12.394
49611W        W13379   0.949   0.815   3.759
49612W        W13380  32.524  16.745  13.421
49613W        W13381  32.991  28.171   0.312
49614W        W13382  18.628  13.696  12.959
49615W        W13383  42.947  21.516   0.785
49616W        W13384  12.116  13.825  14.952
49617W        W13385  21.578  36.564   1.405
49618W        W13386   9.742  33.882   0.366
49619W        W13387  13.662  35.399   1.747
49620W        W13388  25.965   6.317  14.293
49621W        W13389  16.708  23.034   4.630
49622W        W13390  11.361  25.550   2.344
49623W        W13391  16.113  44.915   2.252
49624W        W13392  40.529  26.113   3.859
49625W        W13393  40.540  32.946   0.351
49626W        W13394  10.280  32.620   1.437
49627W        W13395  32.903  39.855   2.182
49628W        W13396  32.517  18.177   0.388
49629W        W13397  11.254  36.537  12.971
49630W        W13398  29.446   1.358   3.261
49631W        W13399  14.322  31.938   3.835
49632W        W13400  15.103  20.739  14.346
49633W        W13401   2.937  27.675  14.030
49634W        W13402  27.062  30.154   1.818
49635W        W13403  39.471  13.251   0.364
49636W        W13404  26.110  16.246  12.426
49637W        W13405  32.981   0.477   3.229
49638W        W13406  37.484   3.834   3.673
49639W        W13407  24.124  21.087  12.577
49640W        W13408  27.676   3.804  10.504
49641W        W13409  14.316  17.734   3.766
49642W        W13410  25.026   7.231   4.136
49643W        W13411  24.102   1.822  13.919
49644W        W13412  24.169  27.581  12.991
49645W        W13413  28.945  43.317   4.649
49646W        W13414   2.833  37.917   0.755
49647W        W13415  13.112  34.418   2.700
49648W        W13416  39.922  24.553  13.826
49649W        W13417  39.356  11.283  11.864
49650W        W13418   5.244  17.170  13.369
49651W        W13419  20.630  37.845  12.445
49652W        W13420  26.109  20.609   1.359
49653W        W13421  44.388  34.035   3.824
49654W        W13422   9.769  18.075   4.756
49655W        W13423   8.807  27.445  14.853
49656W        W13424  33.567  20.264  11.414
49657W        W13425  17.160   5.815  11.100
49658W        W13426   3.930  18.238   1.267
49659W        W13427  45.000  31.927  11.102
49660W        W13428   5.308  35.557   9.589
49661W        W13429  24.711  11.197   2.293
49662W        W13430  43.911  27.139  13.969
49663W        W13431  30.092  15.637   0.925
49664W        W13432   4.296  24.497  12.944
49665W        W13433  29.164  11.743   2.871
49666W        W13434  16.763  12.703  11.377
49667W        W13435  21.100  21.172  12.064
49668W        W13436  23.553  44.433  10.998
49669W        W13437   2.836  38.894   3.319
49670W        W13438   5.883  17.130  12.043
49671W        W13439  38.437   9.345  13.347
49672W        W13440   9.852  30.424   2.666
49673W        W13441  35.546   1.739  14.927
49674W        W13442  36.965   1.971  10.631
49675W        W13443   5.856   4.218   4.739
49676W        W13444  21.204  33.114   3.871
49677W        W13445  41.839  35.992   4.289
49678W        W13446  34.537  34.588  11.546
49679W        W13447  31.513  41.318  10.890
49680W        W13448   0.917  36.470  13.516
49681W        W13449  11.681  28.607  13.845
49682W        W13450  40.351  41.318   0.395
49683W        W13451  27.592  39.910   4.344
49684W        W13452   5.242  39.815   0.357
49685W        W13453  10.280  14.794  12.038
49686W        W13454  21.212  22.608  11.446
49687W        W13455  19.266  28.076  14.453
49688W        W13456  27.121  14.114  14.893
49689W        W13457  28.065  12.810  13.031
49690W        W13458  35.028   6.690   0.480
49691W        W13459   8.390  14.672  14.781
49692W        W13460  13.277  10.783   2.265
49693W        W13461  42.833  28.535  12.852
49694W        W13462  10.867  16.599   4.187
49695W        W13463  44.865   1.823   1.916
49696W        W13464  16.193  40.993   2.360
49697W        W13465  43.463  12.703  13.492
49698W        W13466  28.482  26.092   0.329
49699W        W13467  44.463  17.088   4.732
49700W        W13468  14.220   7.696   2.836
49701W        W13469   4.782  15.090  13.457
49702W        W13470  16.698   4.389   4.693
49703W        W13471  30.948  32.988  11.095
49704W        W13472   1.936  33.407   3.737
49705W        W13473  20.199  22.213  13.441
49706W        W13474   7.175  13.720  14.403
49707W        W13475   9.379   6.720   2.874
49708W        W13476  19.068   8.800   2.799
49709W        W13477  23.094  32.463   2.380
49710W        W13478  27.149  42.835  11.980
49711W        W13479  12.123   8.713   1.760
49712W        W13480  31.043  20.768  12.955
49713W        W13481  32.541  44.765   4.177
49714W        W13482   0.826  36.980  13.917
49715W        W13483   2.733  27.050   1.827
49716W        W13484  36.926  38.478   3.704
49717W        W13485   4.318   2.741  12.409
49718W        W13486  18.655  19.603  14.394
49719W        W13487  37.447  44.893   3.373
49720W        W13488  17.768  16.611   1.905
49721W        W13489  30.116  11.679  11.059
49722W        W13490  19.175   1.964  10.456
49723W        W13491  17.141  15.761  12.375
49724W        W13492  26.109   5.850  14.473
49725W        W13493  14.832  18.050   2.187
49726W        W13494  29.086   9.767   2.350
49727W        W13495  37.486  24.120  11.429
49728W        W13496  10.685   1.264  13.404
49729W        W13497  28.154   4.720   1.274
49730W        W13498  25.687  44.334   0.297
49731W        W13499  18.559  10.865   4.639
49732W        W13500   5.774  29.118   3.641
49733W        W13501  15.108  11.297  10.520
49734W        W13502  13.117  44.877   4.650
49735W        W13503  27.169  32.949  13.364
49736W        W13504  15.711   0.818   1.443
49737W        W13505  32.595   0.361  14.795
49738W        W13506  24.721  25.547   2.672
49739W        W13507  10.709  17.561   1.310
49740W        W13508   3.710   1.276  14.774
49741W        W13509   2.827  14.327   2.343
49742W        W13510  34.871   6.846   1.808
49743W        W13511   4.342  22.060  12.917
49744W        W13512   7.839  17.115  14.460
49745W        W13513  18.292  15.112   4.766
49746W        W13514   9.758  41.860   0.830
49747W        W13515   2.331  34.985  14.434
49748W        W13516  11.290   9.228  13.484
49749W        W13517  21.109  20.761  11.922
49750W        W13518  14.286  38.052  14.394
49751W        W13519  28.553  40.543   0.954
49752W        W13520  21.685  29.141   0.291
49753W        W13521   9.852  38.918   3.356
49754W        W13522  10.646  11.343  14.004
49755W        W13523   0.382  38.385   4.649
49756W        W13524  22.068  27.144  14.795
49757W        W13525  44.910  44.823  10.968
49758W        W13526  13.694  24.004   3.168
49759W        W13527  25.121   4.355  13.338
49760W        W13528  35.109   8.655   0.247
49761W        W13529   6.740  34.522   1.243
49762W        W13530   7.307  17.782  10.914
49763W        W13531   4.240  22.178  11.128
49764W        W13532  25.585   7.890   0.327
49765W        W13533   9.182  21.203   2.371
49766W        W13534   8.877   1.374   2.839
49767W        W13535  29.095  14.626   2.840
49768W        W13536  37.400  30.027   1.416
49769W        W13537  20.051  16.771  11.556
49770W        W13538  24.572  21.171  11.610
49771W        W13539  19.638  14.118  12.366
49772W        W13540   5.229  41.959   1.449
49773W        W13541  13.120   4.819   5.295
49774W        W13542   8.878  13.658   3.241
49775W        W13543  16.192  32.575   0.742
49776W        W13544  23.650  12.761   2.665
49777W        W13545  44.967  36.971   4.631
49778W        W13546  18.215  33.960  14.849
49779W        W13547  37.071  19.174   4.817
49780W        W13548  12.703   1.901   2.246
49781W        W13549  40.919  25.042  13.414
49782W        W13550  28.157  12.361   3.378
49783W        W13551  12.132  39.415  10.915
49784W        W13552  12.615  16.759  11.043
49785W        W13553  42.437  30.997  14.323
49786W        W13554   5.432  33.562   3.299
49787W        W13555  10.792  35.901  12.095
49788W        W13556  39.523  40.988   3.670
49789W        W13557  30.113  33.562   2.739
49790W        W13558  34.040  27.641   0.283
49791W        W13559  18.619  19.587   3.806
49792W        W13560   3.389  38.449  11.421
49793W        W13561  21.124   1.912   0.937
49794W        W13562  23.642  42.497   4.222
49795W        W13563  16.785   2.300  11.901
49796W        W13564  26.652   0.429  10.607
49797W        W13565  19.283   7.687  11.914
49798W        W13566  19.233  28.935   1.765
49799W        W13567  41.889   6.351   3.318
49800W        W13568   7.817   0.837  11.532
49801W        W13569  28.472   9.809   3.649
49802W        W13570   8.807  32.461   2.211
49803W        W13571  11.749  26.992   2.336
49804W        W13572  12.766  37.039   4.316
49805W        W13573  13.252  13.124   4.147
49806W        W13574  17.183  18.656   1.415
49807W        W13575  39.918  43.455   3.684
49808W        W13576  21.108  13.784  10.888
49809W        W13577  15.793   4.340  12.379
49810W        W13578   2.820  41.808   2.400
49811W        W13579   9.238  11.803   0.419
49812W        W13580  33.451  32.012   2.672
49813W        W13581  18.200  35.447  13.376
49814W        W13582  27.154  24.002  14.347
49815W        W13583  16.241  19.088   4.706
49816W        W13584  13.656  16.128  10.510
49817W        W13585  31.918  23.137  12.013
49818W        W13586  13.681   4.791  13.915
49819W        W13587  28.444  20.692  14.948
49820W        W13588   1.970  44.955  11.027
49821W        W13589  13.237  24.995   3.351
49822W        W13590   1.847  17.625  11.066
49823W        W13591   0.437   6.355   1.373
49824W        W13592   9.723  12.293   4.302
49825W        W13593  40.541  16.253  14.327
49826W        W13594  10.690  16.269   0.950
49827W        W13595  30.496  40.909  10.585
49828W        W13596  39.446  30.019  13.927
49829W        W13597  39.491  40.431  12.840
49830W        W13598  12.734  13.222   2.695
49831W        W13599  15.810  24.980   4.170
49832W        W13600  43.780   1.973  11.874
49833W        W13601  43.500  20.163  11.081
49834W        W13602  19.664  25.515   5.260
49835W        W13603   6.314   8.405  13.990
49836W        W13604  44.775  34.967  13.861
49837W        W13605  30.932  18.641  11.376
49838W        W13606   1.770  29.504   1.835
49839W        W13607   0.400  16.589  11.054
49840W        W13608  33.948  19.762  14.857
49841W        W13609  18.614  33.091  12.864
49842W        W13610   8.788   1.462   1.817
49843W        W13611  15.589  33.420   1.430
49844W        W13612  35.950  19.725  13.826
49845W        W13613  40.529   4.699  12.086
49846W        W13614  33.100  16.760  13.912
49847W        W13615  43.791  14.314   2.226
49848W        W13616  27.132   6.861  12.052
49849W        W13617  27.513  24.187   3.295
49850W        W13618  19.178  19.609   1.385
49851W        W13619  25.080  36.475   2.821
49852W        W13620  37.864   2.400  14.879
49853W        W13621   6.377  43.013  12.374
49854W        W13622  44.936  26.208  13.015
49855W        W13623   4.239   9.856  13.900
49856W        W13624   6.830   0.792  10.461
49857W        W13625  33.086   6.855   3.337
49858W        W13626  43.786  44.282   2.252
49859W        W13627  17.195  39.828   4.309
49860W        W13628  16.810  30.628  10.979
49861W        W13629  25.566  44.773  14.768
49862W        W13630   7.281  17.568  14.432
49863W        W13631   1.941  12.851   4.348
49864W        W13632   5.910  17.251  12.847
49865W        W13633  17.678  17.294   2.357
49866W        W13634  14.127  10.284  12.439
49867W        W13635  32.633  34.459  14.814
49868W        W13636  10.840  36.928   4.176
49869W        W13637  28.026  15.323  11.942
49870W        W13638  24.714  10.811   4.276
49871W        W13639  11.364   4.771  13.832
49872W        W13640  25.533  10.786  12.455
49873W        W13641   8.757  19.285  13.866
49874W        W13642  27.572  40.851  14.512
49875W        W13643  37.992   4.739  12.491
49876W        W13644   6.255  42.857   2.233
49877W        W13645  38.960   4.301  14.776
49878W        W13646  11.658  41.523   3.292
49879W        W13647  35.583  42.966  13.328
49880W        W13648   8.330   3.713  13.823
49881W        W13649  37.982  17.198   4.280
49882W        W13650   8.887  35.874  10.072
49883W        W13651  13.343  20.686  13.934
49884W        W13652  40.332   0.358  11.498
49885W        W13653  35.586  13.797  11.562
49886W        W13654  24.680  38.338  13.959
49887W        W13655  23.992  26.542  10.112
49888W        W13656  32.138  28.099   1.241
49889W        W13657  37.359  40.319  11.913
49890W        W13658   1.355  20.182   1.825
49891W        W13659  27.454  23.533  11.881
49892W        W13660  28.101  15.768   2.418
49893W        W13661  18.144   6.865   4.182
49894W        W13662   7.301  31.050  11.495
49895W        W13663   8.870   9.699   3.210
49896W        W13664  30.925  43.907   0.383
49897W        W13665  25.492  26.056  10.460
49898W        W13666   5.885  38.868   3.324
49899W        W13667  38.937   4.794   4.215
49900W        W13668  23.165   4.926   3.844
49901W        W13669  19.053  18.639   2.677
49902W        W13670  28.136  44.991  10.048
49903W        W13671   4.231  11.749  10.887
49904W        W13672  43.979  30.566  13.404
49905W        W13673  25.566  33.039  14.808
49906W        W13674   5.759  39.830   2.830
49907W        W13675  16.589   7.725  11.508
49908W        W13676   5.222  17.218   3.668
49909W        W13677  32.952  44.418  11.879
49910W        W13678  19.158  25.476   5.157
49911W        W13679   0.899  27.595  12.526
49912W        W13680  42.445  27.581  11.380
49913W        W13681   1.765  32.143   1.781
49914W        W13682  22.138  13.610   0.726
49915W        W13683  38.996  32.989   1.888
49916W        W13684  21.205  20.210   1.897
49917W        W13685  21.129  31.422  11.016
49918W        W13686  11.208  27.677  13.411
49919W        W13687  26.166  24.229  13.984
49920W        W13688  19.110   5.761  13.027
49921W        W13689  36.392  34.540   0.268
49922W        W13690   6.227  25.132   1.914
49923W        W13691   4.803  13.130  11.891
49924W        W13692  38.860  14.269   0.760
49925W        W13693  41.968  38.836  12.834
49926W        W13694  42.395  16.608  14.840
49927W        W13695  15.180   7.229  12.049
49928W        W13696   1.311  44.759   3.194
49929W        W13697  10.713  32.130   5.284
49930W        W13698  20.712  42.853  12.398
49931W        W13699  14.220  22.084  10.963
49932W        W13700  44.452  30.421   0.789
49933W        W13701  40.423  24.012  13.544
49934W        W13702   0.817  39.842   2.337
49935W        W13703  43.510  42.391   2.191
49936W        W13704   9.332  33.595   1.793
49937W        W13705  22.644  33.610   2.225
49938W        W13706  28.504  31.472   3.631
49939W        W13707   8.713   0.360   0.888
49940W        W13708  21.635  35.053   2.387
49941W        W13709   8.383  35.478  13.359
49942W        W13710   3.911  34.934  10.907
49943W        W13711  32.076  29.001   4.693
49944W        W13712  15.137  21.203   2.770
49945W        W13713  14.119   2.918   3.738
49946W        W13714  36.445  23.571  11.869
49947W        W13715  28.111   1.966   1.386
49948W        W13716   9.775  42.499  14.941
49949W        W13717  43.391  28.020  14.031
49950W        W13718  14.236  20.084  13.915
49951W        W13719  22.630   4.239   0.785
49952W        W13720  33.007  10.236  14.436
49953W        W13721  11.292  24.702   3.266
49954W        W13722  33.457  25.625   4.651
49955W        W13723  27.141  34.875   3.697
49956W        W13724  26.086  27.681   1.233
49957W        W13725  29.644  44.318  13.845
49958W        W13726  16.240  23.530  14.944
49959W        W13727   8.862   6.321   3.643
49960W        W13728  11.284  13.297  14.817
49961W        W13729  25.664  15.733  10.903
49962W        W13730   6.916  34.539   2.271
49963W        W13731   4.936  31.048   2.864
49964W        W13732  21.732  40.806  10.892
49965W        W13733  30.071   2.736  11.109
49966W        W13734  35.906  10.364   4.791
49967W        W13735   2.782  14.318  10.459
49968W        W13736   9.680  28.047   3.728
49969W        W13737  43.399  34.484   4.253
49970W        W13738  41.524  26.108   3.767
49971W        W13739   1.877   0.984   2.880
49972W        W13740   4.870  41.991   4.212
49973W        W13741  33.587   4.769   2.256
49974W        W13742  33.445  19.687   1.388
49975W        W13743  30.535  42.866   3.704
49976W        W13744   6.426   9.771   4.349
49977W        W13745   8.868  31.423  11.557
49978W        W13746  16.702   6.686   0.244
49979W        W13747  18.777   6.828   2.711
49980W        W13748  33.555  38.452   2.726
49981W        W13749  13.836  19.159   2.269
49982W        W13750  18.614  26.641  12.497
49983W        W13751  27.497   0.845   0.824
49984W        W13752  42.778   4.868   1.848
49985W        W13753  26.097  42.775   1.282
49986W        W13754  39.855  23.200   2.844
49987W        W13755   1.363  18.138   3.720
49988W        W13756  35.029  36.080   3.330
49989W        W13757  28.637  36.944  13.892
49990W        W13758  27.560  14.195  10.545
49991W        W13759  43.273   4.919  13.546
49992W        W13760  29.538  28.096   0.259
49993W        W13761  28.001  40.489  13.813
49994W        W13762  19.722   2.804   0.849
49995W        W13763  17.727  42.807  12.876
49996W        W13764  31.404  12.272   3.215
49997W        W13765  39.314   5.868   9.643
49998W        W13766  41.034  11.231   2.196
49999W        W13767  22.647  39.985  10.426
50000W        W13768  27.037  43.988  11.913
50001W        W13769   0.915  44.888   4.812
50002W        W13770  14.095  11.226  14.403
50003W        W13771  28.555  16.665  11.024
50004W        W13772  40.026  42.962   4.241
50005W        W13773  37.039  33.067  14.452
50006W        W13774  36.574  23.580  10.459
50007W        W13775  20.709  13.713   4.198
50008W        W13776  26.159  42.868  10.553
50009W        W13777  15.314  20.192  14.862
50010W        W13778   8.215   5.703   2.295
50011W        W13779  18.245  24.552  12.406
50012W        W13780  29.648   0.958   0.951
50013W        W13781   8.864  28.163  12.449
50014W        W13782  35.930  15.647  13.971
50015W        W13783  36.547  31.500  11.026
50016W        W13784  25.037  14.772   4.725
50017W        W13785  21.085  24.221  11.913
50018W        W13786  29.501  27.945   1.793
50019W        W13787  24.070   3.275   3.752
50020W        W13788  12.198  32.410   4.801
50021W        W13789  30.546  21.740  14.882
50022W        W13790  36.916  28.506  13.009
50023W        W13791  34.064  36.978   4.710
50024W        W13792  18.641  19.607  10.151
50025W        W13793   7.399  37.472   0.393
50026W        W13794  22.022   5.785  11.962
50027W        W13795  11.625   4.266  11.946
50028W        W13796   2.818   1.396   3.178
50029W        W13797  14.669  31.064  11.040
50030W        W13798  44.294   3.840  13.329
50031W        W13799   6.918  27.059   4.703
50032W        W13800   3.879  12.811   4.631
50033W        W13801  44.402  30.508  13.496
50034W        W13802  43.866  10.246   1.275
50035W        W13803   9.853  19.668   1.358
50036W        W13804   5.770  33.943  12.866
50037W        W13805  31.042  36.014  10.123
50038W        W13806   2.800  10.723   3.652
50039W        W13807  23.154  22.561  11.061
50040W        W13808  28.150  21.231   3.693
50041W        W13809  20.753  43.897  13.534
50042W        W13810  42.437   7.358  14.495
50043W        W13811  43.771  11.841  14.909
50044W        W13812   5.415  39.852   1.416
50045W        W13813  14.675   9.735  12.001
50046W        W13814  13.226  30.592   1.752
50047W        W13815  10.207   2.885   2.744
50048W        W13816   9.203  41.879  10.530
50049W        W13817  33.951  12.836  11.894
50050W        W13818  10.774  30.969   0.775
50051W        W13819  24.130  26.697  14.902
50052W        W13820   6.269   4.798   3.264
50053W        W13821  24.675  16.572  11.495
50054W        W13822  37.438  29.656   9.993
50055W        W13823  20.659   0.927   4.739
50056W        W13824   5.866  42.938   4.271
50057W        W13825   8.777  26.015   1.732
50058W        W13826  12.767   0.842  12.004
50059W        W13827  21.663  33.969  14.890
50060W        W13828   4.926  12.804   2.799
50061W        W13829  15.787   9.230  14.366
50062W        W13830   9.207  30.494  10.539
50063W        W13831  41.387  14.709  14.500
50064W        W13832   2.445  27.616  11.984
50065W        W13833  26.620  37.928   0.941
50066W        W13834  27.020  28.534   3.201
50067W        W13835   4.334   8.836   1.348
50068W        W13836  25.651  30.048   3.789
50069W        W13837  14.207  39.942   1.911
50070W        W13838  15.187  10.270  12.023
50071W        W13839  40.344  44.498   4.823
50072W        W13840  41.534   5.223  14.972
50073W        W13841   8.192   1.797   0.318
50074W        W13842  13.818   1.903  10.574
50075W        W13843  21.642  42.021   1.347
50076W        W13844  15.109  42.852  11.867
50077W        W13845   5.223  31.507   2.685
50078W        W13846  11.247  23.509  11.537
50079W        W13847  41.006  37.986  11.915
50080W        W13848  10.353  36.408  12.433
50081W        W13849  16.623  37.011   0.328
50082W        W13850  30.609  42.445  13.427
50083W        W13851  23.712   2.439  13.440
50084W        W13852  38.960  40.918  10.425
50085W        W13853  11.644   2.254  13.481
50086W        W13854   5.265  37.468  12.967
50087W        W13855  10.721  28.633   4.817
50088W        W13856  26.684  39.834  10.080
50089W        W13857  43.377  37.488  11.028
50090W        W13858   6.259  35.894  12.412
50091W        W13859   7.804   8.308   4.647
50092W        W13860   4.377  36.378   5.690
50093W        W13861  43.764  18.064  10.595
50094W        W13862  28.949  34.493   2.417
50095W        W13863   4.866  19.577   2.314
50096W        W13864  23.016  32.612   4.251
50097W        W13865  24.026  16.569   4.302
50098W        W13866  36.847  30.102   2.309
50099W        W13867  39.882   2.294   0.286
50100W        W13868  34.990  11.190   1.372
50101W        W13869  32.484   8.162  14.503
50102W        W13870  39.865   3.932  11.100
50103W        W13871  19.084  28.587  11.869
50104W        W13872  35.374  43.862   4.295
50105W        W13873  44.414  40.527  12.493
50106W        W13874  44.438  17.634  13.952
50107W        W13875  15.172  38.060  13.888
50108W        W13876  31.585  35.906   3.671
50109W        W13877  39.981  28.030   1.917
50110W        W13878   2.404   8.308   1.226
50111W        W13879  21.731  11.163  11.029
50112W        W13880  22.102  11.192  12.506
50113W        W13881   5.708  25.190  10.588
50114W        W13882   7.874   5.830  13.809
50115W        W13883  19.277  25.130  10.089
50116W        W13884  21.741  10.708   4.165
50117W        W13885  32.958  27.135   2.828
50118W        W13886  16.724   3.264  11.466
50119W        W13887  29.530  25.034  10.634
50120W        W13888  41.335  35.423  14.988
50121W        W13889  28.153  11.347  14.306
50122W        W13890  16.735  36.845   2.256
50123W        W13891  20.641  22.589  13.059
50124W        W13892  20.763  14.821  14.857
50125W        W13893  31.063  39.837   2.236
50126W        W13894  26.125  39.046  14.995
50127W        W13895  15.763  30.917   0.800
50128W        W13896  33.409   9.287  12.380
50129W        W13897   3.330   9.667   2.216
50130W        W13898  28.158  16.640  11.873
50131W        W13899  37.953   9.695  13.835
50132W        W13900  40.797  44.373   1.721
50133W        W13901  37.401  31.580  11.401
50134W        W13902  33.024  27.032   3.800
50135W        W13903  10.760  11.188   3.729
50136W        W13904  18.632  12.171   4.271
50137W        W13905  23.114  43.511  14.397
50138W        W13906   3.767  43.918   4.289
50139W        W13907   8.883   6.182   1.867
50140W        W13908  44.431  15.742   4.184
50141W        W13909  23.534  35.435   3.381
50142W        W13910  34.033   9.159   2.274
50143W        W13911  19.252   1.300   4.671
50144W        W13912   4.233  41.459   2.829
50145W        W13913  21.544  20.184  10.435
50146W        W13914  10.145  28.570   1.735
50147W        W13915  42.932  34.578   4.142
50148W        W13916  11.338  35.855   3.652
50149W        W13917   1.452  38.429   0.938
50150W        W13918  42.964  35.394   4.239
50151W        W13919  36.983  12.333  10.617
50152W        W13920  32.445  42.001   3.366
50153W        W13921   5.374  42.907   3.289
50154W        W13922   8.385  10.686  10.919
50155W        W13923  10.747  16.194  11.048
50156W        W13924   4.717  44.819   2.380
50157W        W13925  22.723  21.192   0.750
50158W        W13926  14.768  38.013  11.556
50159W        W13927  31.061  19.211   1.341
50160W        W13928  44.952  22.045   4.604
50161W        W13929  32.055  43.491   4.823
50162W        W13930   4.325  33.388  10.899
50163W        W13931   4.847   3.421   2.889
50164W        W13932  40.468  24.064  10.425
50165W        W13933  12.293  42.980  13.401
50166W        W13934  41.972   6.805   0.303
50167W        W13935  32.104  35.099   5.245
50168W        W13936  37.386  23.627  14.515
50169W        W13937  36.376  32.598   1.695
50170W        W13938  28.990   3.895  13.008
50171W        W13939  25.192  37.880   1.785
50172W        W13940  44.333   7.773  11.051
50173W        W13941  24.599  36.591  11.452
50174W        W13942  19.208   6.912   3.229
50175W        W13943  31.495  32.546   1.758
50176W        W13944   8.395  21.140   3.303
50177W        W13945  32.429   7.667   3.724
50178W        W13946  41.862   2.852   2.667
50179W        W13947  31.108  10.838   2.336
50180W        W13948  40.038  21.708  13.796
50181W        W13949  14.593  40.035   2.799
50182W        W13950  13.167   0.440   4.603
50183W        W13951  42.010  32.916  13.797
50184W        W13952  13.110   4.811   1.815
50185W        W13953  24.599  14.325   0.306
50186W        W13954   7.767   3.448  13.546
50187W        W13955  16.701  11.307   4.739
50188W        W13956  28.063   3.355   2.760
50189W        W13957  11.127   0.361   3.645
50190W        W13958  24.711  24.994   4.246
50191W        W13959  12.310  26.466   1.235
50192W        W13960  33.384  26.156   1.900
50193W        W13961   9.168  36.008   2.844
50194W        W13962  10.216  35.581   2.364
50195W        W13963  26.654  24.525   4.803
50196W        W13964  35.522  10.802  14.467
50197W        W13965  20.588  33.572   1.734
50198W        W13966   8.900  29.095  11.463
50199W        W13967   9.309   8.381  12.416
50200W        W13968   4.236  37.425  11.103
50201W        W13969  21.263  34.898  13.855
50202W        W13970  24.002  11.231   3.689
50203W        W13971  38.041  44.004   1.285
50204W        W13972  31.910  12.674   1.442
50205W        W13973  14.276  15.182   3.230
50206W        W13974  33.116  14.759   1.891
50207W        W13975  26.523  24.538  13.532
50208W        W13976  36.088  10.809  13.509
50209W        W13977  31.477  26.667   0.821
50210W        W13978  30.991  39.525   0.903
50211W        W13979  32.529  19.208  10.121
50212W        W13980   9.313  40.469   4.630
50213W        W13981  19.069  31.102  14.484
50214W        W13982  20.052  14.633   2.771
50215W        W13983  22.545   9.780   4.294
50216W        W13984  19.715  28.501  12.018
50217W        W13985   1.745  37.879  11.128
50218W        W13986  36.853  21.253   3.829
50219W        W13987   3.922  41.976   0.357
50220W        W13988  37.948   3.810   4.154
50221W        W13989  40.339  21.037  12.568
50222W        W13990   5.256  39.023  12.456
50223W        W13991  23.629  18.655  10.926
50224W        W13992   4.932  15.781  14.960
50225W        W13993   1.353  37.461   4.697
50226W        W13994  38.024  14.696  13.444
50227W        W13995  23.100  28.962   2.851
50228W        W13996  34.107  18.141  13.525
50229W        W13997   9.333  12.723  10.024
50230W        W13998  40.325  12.746  13.976
50231W        W13999  41.896  40.321  10.929
50232W        W14000  18.716  36.055   0.330
50233W        W14001  26.628  32.979  10.937
50234W        W14002  11.832  39.428  12.080
50235W        W14003   0.946  42.414   0.860
50236W        W14004   4.409  38.364  11.514
50237W        W14005  30.054  16.684  12.848
50238W        W14006  22.122  18.677   0.946
50239W        W14007  26.964  13.147  10.054
50240W        W14008  19.768   3.741  11.415
50241W        W14009  26.599   2.722  12.485
50242W        W14010  21.079   2.859  12.889
50243W        W14011  12.161  10.676   5.193
50244W        W14012   4.770   5.300  10.546
50245W        W14013  34.894   6.294  11.077
50246W        W14014  10.160   3.232   3.318
50247W        W14015  27.192  10.182  14.290
50248W        W14016  23.527   2.439  11.404
50249W        W14017  20.563   3.847   2.248
50250W        W14018   3.866  35.016  12.531
50251W        W14019  20.524  18.215   2.759
50252W        W14020   4.938  39.939   2.403
50253W        W14021  20.738  21.546   4.143
50254W        W14022   5.381   7.812  14.905
50255W        W14023   1.907  37.432   5.611
50256W        W14024   2.410  16.180   3.770
50257W        W14025  19.203   2.240   2.773
50258W        W14026  17.260  22.037  13.853
50259W        W14027  19.202  17.226   3.745
50260W        W14028   6.757  33.491   4.684
50261W        W14029  24.005   5.412   4.603
50262W        W14030   2.282   6.838   1.860
50263W        W14031  43.804  23.530   3.695
50264W        W14032  22.196  37.065   1.222
50265W        W14033  30.090  24.110   1.255
50266W        W14034  21.751  40.877   1.698
50267W        W14035  22.172   6.858   4.312
50268W        W14036  27.605  29.436   0.359
50269W        W14037   4.917  36.548  11.385
50270W        W14038  24.599  17.294   0.889
50271W        W14039  14.685  41.832  13.383
50272W        W14040  34.890  27.543   0.316
50273W        W14041  33.582  28.472   4.142
50274W        W14042  37.538   5.729  12.031
50275W        W14043  17.669  37.926  10.466
50276W        W14044  32.995  14.682   3.187
50277W        W14045  33.996   3.859  12.506
50278W        W14046  32.446  15.250  11.580
50279W        W14047  32.426  39.412  11.585
50280W        W14048  27.130   9.327   3.694
50281W        W14049   3.417  42.924  10.503
50282W        W14050   4.860   4.888  11.943
50283W        W14051  16.728  29.435  12.416
50284W        W14052  29.008   6.376  10.565
50285W        W14053  44.390  25.573  14.775
50286W        W14054  31.152  31.406   1.243
50287W        W14055   4.248  39.839   1.762
50288W        W14056   6.905   0.974   1.227
50289W        W14057  15.804  44.757   3.799
50290W        W14058  33.058  35.495  12.392
50291W        W14059  33.073  10.724   3.748
50292W        W14060  25.472  37.526  10.407
50293W        W14061   4.724  41.016   0.761
50294W        W14062  32.518   2.430  12.912
50295W        W14063  30.491   0.325   3.713
50296W        W14064  35.555  37.054   4.182
50297W        W14065  32.917   0.463   0.909
50298W        W14066  19.567  34.985   1.441
50299W        W14067   7.364   8.235   4.319
50300W        W14068  14.287   7.844   1.716
50301W        W14069  38.371   6.214  12.450
50302W        W14070   9.766  44.803  11.060
50303W        W14071  44.846  36.354   3.834
50304W        W14072  32.139  15.757  13.428
50305W        W14073  14.588   8.238   4.244
50306W        W14074  31.467   0.403  11.507
50307W        W14075  38.365  25.490  13.934
50308W        W14076   2.837  17.673   3.710
50309W        W14077  24.712  21.679  10.503
50310W        W14078  15.676  34.407  14.322
50311W        W14079  32.455   0.835   2.706
50312W        W14080  19.210  21.137  13.532
50313W        W14081  23.016  43.909   2.229
50314W        W14082  20.549  33.599  13.355
50315W        W14083  16.642  32.021  10.967
50316W        W14084  27.110  30.441  11.555
50317W        W14085  18.616  20.212   1.307
50318W        W14086   9.816  30.144  12.988
50319W        W14087  25.024   8.208   2.761
50320W        W14088  38.382   9.736  11.902
50321W        W14089   5.403  18.233  14.917
50322W        W14090  34.906  43.502  12.580
50323W        W14091  30.573  18.209  11.982
50324W        W14092  29.489  30.159   1.871
50325W        W14093  26.605  23.117   0.777
50326W        W14094  37.551  22.195  10.532
50327W        W14095   1.815  16.132  14.369
50328W        W14096  17.113  12.846  11.991
50329W        W14097  20.583  16.751  13.405
50330W        W14098  36.371  12.779  10.113
50331W        W14099   4.374  43.919  11.559
50332W        W14100  13.616   7.725  12.489
50333W        W14101  38.443  37.457   0.463
50334W        W14102  28.150   7.195  10.486
50335W        W14103  22.038   9.718   4.243
50336W        W14104  12.737  29.083   1.260
50337W        W14105  10.140  24.521  11.000
50338W        W14106  43.407  15.677   4.683
50339W        W14107  15.670  15.299   0.772
50340W        W14108  11.626  19.660   1.344
50341W        W14109  40.390  44.864   1.922
50342W        W14110  33.553   0.809  13.803
50343W        W14111  37.063  41.461  14.028
50344W        W14112  14.206  10.205   2.335
50345W        W14113  16.152  38.995   0.394
50346W        W14114  26.988  29.451  10.421
50347W        W14115  33.052   1.334   3.866
50348W        W14116  19.615  25.705  12.491
50349W        W14117  32.408  21.244   1.886
50350W        W14118  18.064  17.574  11.529
50351W        W14119  38.066  20.035  11.403
50352W        W14120   3.272  26.162  13.484
50353W        W14121  34.605   1.365   0.349
50354W        W14122  32.474  34.070   2.828
50355W        W14123  44.831   5.885  10.411
50356W        W14124  24.496  13.841  10.611
50357W        W14125  14.683  37.443  12.999
50358W        W14126   8.328  12.691   4.732
50359W        W14127  19.116  39.809   4.250
50360W        W14128  35.380  18.662   3.819
50361W        W14129   6.795  44.777  11.966
50362W        W14130  14.129  26.640  13.311
50363W        W14131  25.107  22.592  11.419
50364W        W14132  13.811  42.339  11.608
50365W        W14133  43.386   7.859   1.888
50366W        W14134  15.223  13.822  12.891
50367W        W14135   0.803  40.884  14.837
50368W        W14136  42.889   5.213  13.541
50369W        W14137  14.201  24.607   4.332
50370W        W14138  32.487   3.777  12.958
50371W        W14139  40.476  12.285   4.806
50372W        W14140  40.326   4.280  13.007
50373W        W14141  31.025   3.795  12.550
50374W        W14142  23.122  44.791  13.851
50375W        W14143  36.351  32.914   2.760
50376W        W14144  40.314   4.294   3.282
50377W        W14145   7.715  35.567  10.913
50378W        W14146  23.710  22.173  13.816
50379W        W14147  36.395  35.874   4.738
50380W        W14148  18.596  18.117   2.776
50381W        W14149  14.610   6.231  12.372
50382W        W14150  39.498  12.650   4.630
50383W        W14151  43.328   0.341  10.995
50384W        W14152   8.291  44.429  14.341
50385W        W14153  22.553  29.638  12.882
50386W        W14154  22.675   5.354  11.570
50387W        W14155   0.885   1.299   3.295
50388W        W14156  31.956   5.832  11.403
50389W        W14157  38.395  42.418  10.440
50390W        W14158   2.792  16.229   3.665
50391W        W14159   8.191  33.128   4.177
50392W        W14160   2.350  35.922   0.294
50393W        W14161  23.100  13.721   4.351
50394W        W14162  19.086  22.550   0.735
50395W        W14163   6.866  12.769  12.579
50396W        W14164  10.868  21.730  13.536
50397W        W14165  16.256  37.840  11.957
50398W        W14166  37.853   7.848  14.504
50399W        W14167   6.282  14.640   1.319
50400W        W14168  21.157  29.635   4.289
50401W        W14169  31.990  41.483  13.547
50402W        W14170  19.068  23.680  11.447
50403W        W14171  23.040  16.755  10.955
50404W        W14172  22.560  13.176  11.482
50405W        W14173   8.836  19.677  12.544
50406W        W14174   7.359  28.536  13.505
50407W        W14175  32.497  37.954   0.339
50408W        W14176   7.329  11.728   0.321
50409W        W14177  15.085  19.144  13.537
50410W        W14178   1.428  27.647   0.955
50411W        W14179  32.412  14.141  11.594
50412W        W14180  17.238  44.868  12.886
50413W        W14181   9.678   9.662  11.448
50414W        W14182  32.408  33.404   1.720
50415W        W14183   7.820  33.551  14.400
50416W        W14184  23.678  33.494  12.414
50417W        W14185  43.285  37.976  14.452
50418W        W14186  25.629  19.768  12.849
50419W        W14187  38.434   7.306  14.404
50420W        W14188  34.602  23.708   3.296
50421W        W14189   3.895  14.614  13.449
50422W        W14190   0.269  22.736  13.874
50423W        W14191  19.645   8.798  13.984
50424W        W14192  11.127   2.278  11.880
50425W        W14193  39.039  23.608  14.923
50426W        W14194   9.670  43.482   4.628
50427W        W14195  32.005  29.963  12.353
50428W        W14196  33.112   5.254  11.113
50429W        W14197  25.548  15.589   4.349
50430W        W14198  18.093   1.382   0.375
50431W        W14199  21.522  17.300   3.217
50432W        W14200  28.541  14.272   4.789
50433W        W14201  41.357   1.283   2.252
50434W        W14202  28.047   7.362  12.027
50435W        W14203   2.766  44.309  10.506
50436W        W14204  38.468  28.166  10.952
50437W        W14205   9.866   6.323   2.790
50438W        W14206  32.075  21.601  13.366
50439W        W14207  11.858  19.184   2.315
50440W        W14208  10.253   1.392   4.198
50441W        W14209   4.264   3.932  11.426
50442W        W14210  39.818  28.584   3.267
50443W        W14211  24.224  40.513   1.322
50444W        W14212  28.652  12.708   5.297
50445W        W14213  32.923  38.906   4.183
50446W        W14214  17.181  26.134   9.506
50447W        W14215   6.736  10.791   3.216
50448W        W14216  17.275  10.317  10.493
50449W        W14217  37.438   6.288   0.380
50450W        W14218  37.549  25.608   0.341
50451W        W14219  22.631  38.049   4.226
50452W        W14220   2.472  38.348   4.150
50453W        W14221  36.486  24.198  11.516
50454W        W14222  35.583  18.132   1.826
50455W        W14223   9.244   2.834  11.858
50456W        W14224   3.369   5.745  11.922
50457W        W14225  21.577  26.997   0.958
50458W        W14226   1.474  11.640   3.816
50459W        W14227  42.437  17.556   0.319
50460W        W14228  39.025  41.472   1.382
50461W        W14229  14.807  43.793  13.511
50462W        W14230  13.171  40.382  14.436
50463W        W14231  27.453  21.748  13.499
50464W        W14232  38.360   4.878   4.353
50465W        W14233  19.093  33.062  14.780
50466W        W14234  22.709  42.983   3.171
50467W        W14235  12.657   0.907   1.856
50468W        W14236  11.809  23.163  14.807
50469W        W14237  33.481  24.520  11.434
50470W        W14238   1.850  27.981   0.831
50471W        W14239   6.784   6.849  14.818
50472W        W14240  32.056  27.044  12.395
50473W        W14241   1.904  31.917   3.320
50474W        W14242  26.007  28.980   4.253
50475W        W14243  37.901  34.055   0.891
50476W        W14244  36.582  24.188   3.734
50477W        W14245  28.015  16.754   0.964
50478W        W14246  11.778  26.660   1.264
50479W        W14247  16.122  39.945   2.286
50480W        W14248   0.307  33.923  12.055
50481W        W14249   5.750  41.800   4.769
50482W        W14250  29.520   3.861  13.020
50483W        W14251  29.933   1.832  10.442
50484W        W14252  23.009  28.003   0.780
50485W        W14253  21.753   6.715   0.780
50486W        W14254  37.437  37.463  13.005
50487W        W14255  12.685   3.725  12.563
50488W        W14256  39.920  39.431   3.232
50489W        W14257  32.533  10.752  12.574
50490W        W14258   9.643  43.482   1.824
50491W        W14259  10.816  24.180   4.240
50492W        W14260  19.054  34.950   5.147
50493W        W14261  10.742  25.514  12.534
50494W        W14262  19.218   9.749  14.346
50495W        W14263  34.402  38.005   4.804
50496W        W14264  14.592  17.081   0.883
50497W        W14265  20.114  30.571  12.566
50498W        W14266  32.449  44.310  10.983
50499W        W14267  10.662  29.529  14.934
50500W        W14268  27.528  35.910   0.789
50501W        W14269   0.986  33.554   3.146
50502W        W14270  19.182  15.250   1.932
50503W        W14271  11.277   7.368   1.891
50504W        W14272  41.879  27.092  13.917
50505W        W14273   7.678   4.889  13.922
50506W        W14274  19.149  14.128  10.991
50507W        W14275  11.794   5.871   0.757
50508W        W14276   0.258  26.661   4.230
50509W        W14277  24.718  22.699   0.960
50510W        W14278   7.201  25.600   2.374
50511W        W14279  11.139  10.357   0.887
50512W        W14280  39.443   5.802  11.540
50513W        W14281  35.585  21.094  11.061
50514W        W14282  22.745  24.507  13.059
50515W        W14283  14.598  42.344  10.442
50516W        W14284  27.101   4.394  14.802
50517W        W14285  40.322   8.703  10.514
50518W        W14286  38.862  12.621  10.954
50519W        W14287  44.855  34.459   3.745
50520W        W14288  38.069  18.210   3.161
50521W        W14289   3.352  42.965  13.063
50522W        W14290  24.225  44.334  11.550
50523W        W14291   8.869   4.414  10.421
50524W        W14292  12.709  18.238   2.317
50525W        W14293  35.091  18.752  11.535
50526W        W14294   6.370  22.191  12.376
50527W        W14295  27.565  37.023  13.444
50528W        W14296   6.787   5.390   1.347
50529W        W14297  12.767  19.541   4.307
50530W        W14298  38.005  31.429   2.189
50531W        W14299   7.252  33.117  12.059
50532W        W14300  39.344   7.889   2.823
50533W        W14301   6.707  33.954   4.120
50534W        W14302  42.333  23.551  12.407
50535W        W14303   3.282   4.229  11.051
50536W        W14304  28.651   9.868  13.423
50537W        W14305  14.673  18.288   3.228
50538W        W14306  26.526  16.763   2.287
50539W        W14307  37.890  42.295   2.300
50540W        W14308   6.221  44.986  14.464
50541W        W14309   7.209  39.483  12.878
50542W        W14310  23.533   4.861   3.766
50543W        W14311  31.479   7.287   3.352
50544W        W14312  28.594  29.059   3.863
50545W        W14313  27.058  44.344   0.437
50546W        W14314   3.362  18.711  14.869
50547W        W14315  23.986  19.713  12.464
50548W        W14316   1.816  25.147  14.393
50549W        W14317   7.265  25.219  13.481
50550W        W14318  43.926  22.222   4.343
50551W        W14319  12.311  28.158   3.360
50552W        W14320   0.839  26.115   2.759
50553W        W14321   7.723  30.964   4.157
50554W        W14322  39.342  44.381   1.915
50555W        W14323  32.626  19.547  14.974
50556W        W14324  37.573  42.004   5.269
50557W        W14325   8.328  39.896   1.270
50558W        W14326  19.542  39.551  14.443
50559W        W14327  43.781  15.820   4.279
50560W        W14328  10.724  19.165   4.687
50561W        W14329   2.881  32.571  10.430
50562W        W14330  22.511  11.333  12.008
50563W        W14331  14.125  26.149   1.322
50564W        W14332  43.999  11.257  10.956
50565W        W14333  22.546   1.466  13.462
50566W        W14334  12.206  30.133  12.918
50567W        W14335   2.842  15.175  11.046
50568W        W14336  44.941  23.678   0.359
50569W        W14337  37.372   1.276  13.416
50570W        W14338  19.710  13.839  11.520
50571W        W14339   0.912  21.581  14.506
50572W        W14340  34.565  34.370  13.020
50573W        W14341   2.400  38.324   3.170
50574W        W14342  39.023   5.286  12.899
50575W        W14343  35.898  28.019   1.871
50576W        W14344   3.347   4.816   1.931
50577W        W14345   4.359  34.949   4.654
50578W        W14346  13.145   5.217  13.470
50579W        W14347   4.813  24.060   4.789
50580W        W14348   9.689  31.581  12.094
50581W        W14349  12.795  12.848  14.881
50582W        W14350  30.514  35.485  13.042
50583W        W14351  42.497  35.962  14.363
50584W        W14352  29.665  17.276  14.925
50585W        W14353   3.876  36.496   3.228
50586W        W14354  30.017   1.415   4.714
50587W        W14355  36.921   4.745  13.505
50588W        W14356  37.486   2.306  11.980
50589W        W14357   0.971  20.122   1.768
50590W        W14358  40.317  40.883   1.317
50591W        W14359   5.728  39.420   1.748
50592W        W14360  18.617  32.434  11.439
50593W        W14361  35.422  32.552  13.838
50594W        W14362  33.473  13.162  12.068
50595W        W14363  40.547  25.978   0.304
50596W        W14364  30.636  33.129  12.864
50597W        W14365  17.178  32.955  14.344
50598W        W14366  11.136  19.661  14.510
50599W        W14367  40.033  40.910  13.896
50600W        W14368  15.266  43.456  10.615
50601W        W14369   2.862  36.842  14.352
50602W        W14370  12.766   0.407  12.533
50603W        W14371  13.214  41.461  12.448
50604W        W14372  14.241   8.369  13.313
50605W        W14373   8.701  15.184   4.745
50606W        W14374  36.518  10.708  11.485
50607W        W14375  35.882  32.467  13.908
50608W        W14376   1.436  34.418  12.991
50609W        W14377  42.349  41.384  14.850
50610W        W14378  41.026  41.018  12.900
50611W        W14379  35.554   5.785  14.924
50612W        W14380  41.866  25.041   4.278
50613W        W14381  20.540  17.084   4.325
50614W        W14382   7.405   2.844   4.224
50615W        W14383   5.792  34.556  13.491
50616W        W14384  23.669  27.679   0.483
50617W        W14385   6.209  39.530  11.012
50618W        W14386  23.061  10.178   1.398
50619W        W14387  18.593  25.484   2.772
50620W        W14388  21.607  39.839   2.238
50621W        W14389   5.787  44.277   1.400
50622W        W14390  10.846  12.756  11.008
50623W        W14391   5.241  16.603  12.489
50624W        W14392  22.115  41.840  12.457
50625W        W14393  35.902   4.443   1.891
50626W        W14394  39.020  26.958  14.949
50627W        W14395  26.518   8.753  11.519
50628W        W14396   9.701   4.783  11.939
50629W        W14397  39.893  39.501  10.503
50630W        W14398  21.572  25.160  10.994
50631W        W14399  22.024  30.486  12.907
50632W        W14400  31.085  18.270  11.589
50633W        W14401  21.085  42.018   1.791
50634W        W14402  42.946  34.075   1.345
50635W        W14403  17.652  26.043   0.332
50636W        W14404  10.639  37.031  13.849
50637W        W14405  42.860  36.959  11.536
50638W        W14406   2.260   8.749  12.892
50639W        W14407  13.322  35.539   1.920
50640W        W14408  22.049  18.134   4.241
50641W        W14409  31.133  22.183   3.155
50642W        W14410  22.543   0.812   2.664
50643W        W14411  13.677  41.496  11.513
50644W        W14412  19.777   9.750  14.993
50645W        W14413  37.897  18.646  13.524
50646W        W14414  28.612   6.902   4.269
50647W        W14415  17.791  41.994  13.338
50648W        W14416  34.964   3.766  14.876
50649W        W14417   0.288  39.411   3.804
50650W        W14418  40.991   9.752   4.653
50651W        W14419  10.297   2.855   0.728
50652W        W14420  26.488  12.193   0.731
50653W        W14421  11.647  11.759   1.865
50654W        W14422   7.806  42.308  13.971
50655W        W14423  27.634  40.019   1.336
50656W        W14424   8.749  36.892  10.569
50657W        W14425  22.093  40.842   1.297
50658W        W14426  11.652  15.694  13.993
50659W        W14427   3.220  41.498   2.828
50660W        W14428  44.370  14.332   1.227
50661W        W14429  10.842  14.309  14.765
50662W        W14430   3.440  41.381   0.749
50663W        W14431  19.639   1.474  13.830
50664W        W14432  14.657  26.956  13.471
50665W        W14433  25.003  14.288  12.925
50666W        W14434  28.494   9.738   3.155
50667W        W14435  16.169  17.284   2.894
50668W        W14436  34.977  35.970   0.291
50669W        W14437  25.987  27.167  10.937
50670W        W14438  17.742  35.497   3.826
50671W        W14439   4.419   7.383   2.319
50672W        W14440  10.343  36.009  13.018
50673W        W14441   8.277  32.049  10.431
50674W        W14442  12.712  32.109   4.636
50675W        W14443  43.352  17.649  11.463
50676W        W14444  33.450  29.954  14.287
50677W        W14445  25.058  38.500   0.273
50678W        W14446   6.883  19.558  14.916
50679W        W14447  41.980  36.361   4.292
50680W        W14448  22.187  16.312   1.391
50681W        W14449  37.502   4.371   4.804
50682W        W14450  11.281  23.001   1.430
50683W        W14451  18.256  26.685   0.768
50684W        W14452  26.609  19.285  10.410
50685W        W14453  30.934  17.594   3.214
50686W        W14454  26.999   5.298  11.480
50687W        W14455  22.200  26.481   3.178
50688W        W14456  31.998  21.739   0.420
50689W        W14457  22.116   4.314  12.044
50690W        W14458  24.194  34.526  12.007
50691W        W14459  35.932  31.117   1.832
50692W        W14460  42.836  21.249   4.659
50693W        W14461   2.868  37.026   3.819
50694W        W14462   0.429  27.157   4.752
50695W        W14463   1.331  36.096   1.787
50696W        W14464   2.387   5.337   1.311
50697W        W14465  24.501  17.264  14.811
50698W        W14466  22.545  41.513  13.461
50699W        W14467  10.819  14.595   3.171
50700W        W14468  18.633  30.443  10.442
50701W        W14469   1.901  10.738   3.850
50702W        W14470  34.029  40.831  11.978
50703W        W14471  41.032  11.827   3.215
50704W        W14472   2.959  14.658   3.751
50705W        W14473   5.221  30.091   1.402
50706W        W14474   9.884   2.445  13.391
50707W        W14475  42.912  40.869   2.779
50708W        W14476  32.426  34.907   3.837
50709W        W14477  18.555  13.349   5.196
50710W        W14478  12.638   1.435  12.437
50711W        W14479  27.971  15.230  13.006
50712W        W14480  30.542  34.467   3.684
50713W        W14481  16.640   1.906   4.695
50714W        W14482  29.135  14.262   5.270
50715W        W14483  19.672  20.762   3.858
50716W        W14484  20.610  10.658   0.253
50717W        W14485  29.544  10.205  11.571
50718W        W14486  30.104  14.249  10.522
50719W        W14487   3.841   0.948  12.510
50720W        W14488  41.374  35.580  11.870
50721W        W14489  38.925  27.157  12.530
50722W        W14490  10.332  43.998  12.360
50723W        W14491   2.263  10.267  11.918
50724W        W14492  10.203   4.433   1.721
50725W        W14493  15.174  42.474  10.969
50726W        W14494  32.518  24.156   2.777
50727W        W14495  13.336  29.428   5.157
50728W        W14496  11.652  32.972   2.312
50729W        W14497  20.600  29.935   4.232
50730W        W14498  37.371   5.717   9.491
50731W        W14499  32.956  42.463  13.511
50732W        W14500  10.729   3.448   4.668
50733W        W14501  25.699  34.510   3.689
50734W        W14502  10.730  35.527   2.187
50735W        W14503   8.402   8.368   1.250
50736W        W14504  19.169  44.906  14.797
50737W        W14505  24.706   8.724   3.748
50738W        W14506  34.026   5.371   0.781
50739W        W14507  13.327   9.268   0.443
50740W        W14508  15.147  36.096  11.493
50741W        W14509  20.177  35.990   2.226
50742W        W14510  28.962  12.647   2.721
50743W        W14511  33.622  38.367   1.227
50744W        W14512  18.620  20.213   4.642
50745W        W14513   4.908  39.011  13.500
50746W        W14514  22.139  37.064  12.494
50747W        W14515  38.042  31.485  11.374
50748W        W14516   8.659  40.331  10.995
50749W        W14517  36.995  33.429   3.312
50750W        W14518  20.168  22.618   3.236
50751W        W14519  15.722  10.309  11.588
50752W        W14520  44.861  39.921   3.227
50753W        W14521  27.484  22.096   4.824
50754W        W14522  24.720  36.591   1.724
50755W        W14523  43.346  19.671  10.550
50756W        W14524   9.691  10.765   0.280
50757W        W14525  31.543  23.546  10.564
50758W        W14526   6.798  42.296  13.445
50759W        W14527   9.202  31.927  11.866
50760W        W14528   2.232  19.178   2.213
50761W        W14529   9.769   0.757  12.476
50762W        W14530   2.276  28.934  11.860
50763W        W14531  27.562  39.845  12.994
50764W        W14532   9.300  22.707  11.415
50765W        W14533  12.127  38.884  11.897
50766W        W14534  27.682  33.599   3.269
50767W        W14535  41.447  33.956  10.490
50768W        W14536  22.586  19.175   3.246
50769W        W14537  33.579  11.291  14.402
50770W        W14538  25.993  26.014  12.086
50771W        W14539  18.636  24.703   0.815
50772W        W14540   0.780  21.730  11.397
50773W        W14541  27.634  33.592   9.984
50774W        W14542  27.984  36.360   3.364
50775W        W14543  18.670  30.630   3.732
50776W        W14544   2.427  34.012   0.794
50777W        W14545  22.559   4.207  11.052
50778W        W14546  19.126  39.323  14.464
50779W        W14547   9.387  14.604  10.933
50780W        W14548  33.398  33.016   0.373
50781W        W14549  41.020   8.860  12.506
50782W        W14550  21.149  42.525  11.371
50783W        W14551  42.450  25.591   1.714
50784W        W14552   2.436  42.435  14.440
50785W        W14553  31.480  17.171   0.868
50786W        W14554  11.647   6.282   4.239
50787W        W14555  38.358  23.556  12.536
50788W        W14556   1.427  38.346  13.955
50789W        W14557  12.742   3.839   0.962
50790W        W14558   7.233   4.924  11.599
50791W        W14559  10.648  28.037  14.894
50792W        W14560  23.719  24.627  14.450
50793W        W14561  32.902  41.816   4.262
50794W        W14562  21.168  28.177  14.795
50795W        W14563  33.571  11.367  13.373
50796W        W14564  41.834  34.038  10.434
50797W        W14565  21.037  41.833  13.448
50798W        W14566  29.480  40.837  11.561
50799W        W14567   5.812  34.420   0.279
50800W        W14568  14.293  12.836   2.810
50801W        W14569  31.904  10.308   2.252
50802W        W14570  27.680  13.612   5.182
50803W        W14571  13.336   6.184  10.488
50804W        W14572   9.749  34.906  13.817
50805W        W14573  17.297  43.402  11.941
50806W        W14574  35.868  28.006  14.800
50807W        W14575  37.556   1.338   3.793
50808W        W14576   4.769  27.138   3.278
50809W        W14577  18.782  35.443  10.161
50810W        W14578  42.472   3.885   4.214
50811W        W14579  32.110  36.545  11.399
50812W        W14580  23.588  25.048   2.310
50813W        W14581  17.071  39.344   2.287
50814W        W14582  21.178  38.063  10.598
50815W        W14583  29.452   7.323   4.129
50816W        W14584   2.358  39.460   0.904
50817W        W14585  14.716  43.425  11.445
50818W        W14586   4.886  19.736   2.752
50819W        W14587  15.669  37.380   5.196
50820W        W14588  14.179   9.680  13.507
50821W        W14589  37.832  37.421   3.277
50822W        W14590  29.000  10.270   0.347
50823W        W14591   5.858  37.957  14.291
50824W        W14592  20.670  16.691  14.793
50825W        W14593  31.630   2.455   0.332
50826W        W14594  23.621  40.339   2.696
50827W        W14595  27.467   7.864  10.437
50828W        W14596   6.866  34.019  11.915
50829W        W14597  30.916  22.673   3.157
50830W        W14598   1.762  18.716   1.421
50831W        W14599  10.641   9.810  10.629
50832W        W14600   6.420  22.116  10.436
50833W        W14601  42.996  13.262   4.682
50834W        W14602  38.478  25.963  12.455
50835W        W14603  41.797  30.079   5.164
50836W        W14604  42.395   9.716  11.476
50837W        W14605  18.786  21.136  11.007
50838W        W14606  16.238  17.635   0.859
50839W        W14607  22.086  34.890  14.860
50840W        W14608   5.844  17.568   0.899
50841W        W14609  44.894  26.480  13.472
50842W        W14610  42.791  25.517  14.990
50843W        W14611  25.627  34.549   1.428
50844W        W14612  18.272  41.536  10.517
50845W        W14613  23.706  38.827   4.817
50846W        W14614  30.939   0.430  11.922
50847W        W14615  11.308   0.422  12.435
50848W        W14616  35.860   7.236   3.842
50849W        W14617   8.841   6.695  11.999
50850W        W14618  11.774  26.601   5.305
50851W        W14619  39.389  18.290   0.919
50852W        W14620  27.974   5.321  14.475
50853W        W14621   4.929  12.669  14.800
50854W        W14622   9.807  42.959  12.388
50855W        W14623  14.208  32.432   4.701
50856W        W14624   4.323   9.762   1.811
50857W        W14625  23.003  15.729   1.421
50858W        W14626  21.083  11.331   4.231
50859W        W14627  36.970  21.690  14.888
50860W        W14628  36.488   3.336  11.976
50861W        W14629  16.116  23.001   0.760
50862W        W14630  16.649  27.183   1.291
50863W        W14631  36.557  33.007   3.833
50864W        W14632  11.651   6.285   3.341
50865W        W14633  29.631  28.933   2.331
50866W        W14634  32.525  24.037  14.310
50867W        W14635  35.461  21.086   1.433
50868W        W14636   5.749  10.156   3.714
50869W        W14637  13.164   5.925  13.498
50870W        W14638   9.791  32.974   3.215
50871W        W14639  21.513  42.853  13.934
50872W        W14640   2.753  40.965   4.247
50873W        W14641  13.289  43.870  14.488
50874W        W14642   4.411  23.170   4.731
50875W        W14643  34.437   5.329  13.925
50876W        W14644   9.367   8.740  11.581
50877W        W14645  20.259  21.516  14.984
50878W        W14646  10.772  25.078   0.294
50879W        W14647   1.752  41.971  14.858
50880W        W14648   9.380  19.678   1.734
50881W        W14649  39.937  10.139  13.353
50882W        W14650  28.670  16.700   2.298
50883W        W14651  22.675  27.017  14.927
50884W        W14652  15.790  19.581   2.785
50885W        W14653  44.894  12.143   1.335
50886W        W14654  17.211  12.324  13.330
50887W        W14655  26.984  31.474  11.970
50888W        W14656   2.253  19.735  14.444
50889W        W14657  38.460  39.018  14.467
50890W        W14658  10.741   1.779  11.492
50891W        W14659   4.447  41.896   3.814
50892W        W14660  34.421   1.769   1.861
50893W        W14661  27.459  20.758  12.011
50894W        W14662  17.617   1.282  12.518
50895W        W14663  34.541  26.524  12.519
50896W        W14664  25.156   7.393  13.820
50897W        W14665  24.194   6.756   3.769
50898W        W14666   5.325   5.813   2.826
50899W        W14667   2.881  31.422  13.883
50900W        W14668  40.305  17.253   1.380
50901W        W14669  14.143  35.957  12.360
50902W        W14670   8.682  22.593   0.343
50903W        W14671  11.132  25.188  10.594
50904W        W14672  38.963  34.000  12.867
50905W        W14673  10.828  27.560  12.936
50906W        W14674  13.249  40.894  13.016
50907W        W14675   3.358   9.210  13.881
50908W        W14676  37.915   4.307  12.951
50909W        W14677  32.592  12.650   3.781
50910W        W14678  38.905  26.109   1.345
50911W        W14679  35.518   3.918  13.424
50912W        W14680  33.555  27.946   3.246
50913W        W14681  44.461  33.003   1.850
50914W        W14682  21.726  17.688   1.908
50915W        W14683  36.350  30.995  11.397
50916W        W14684  27.184   2.236   1.368
50917W        W14685  22.699  41.480   0.412
50918W        W14686  30.414  20.605  14.310
50919W        W14687  15.603  24.064  12.980
50920W        W14688  19.629   1.877  12.553
50921W        W14689  32.047  16.199   9.486
50922W        W14690  24.096  27.527   2.287
50923W        W14691   9.180   9.762  14.901
50924W        W14692  21.520  31.116  12.477
50925W        W14693  15.798  21.255   1.303
50926W        W14694  11.731  12.629   0.304
50927W        W14695  40.477  15.120  13.405
50928W        W14696   8.341  36.492  14.830
50929W        W14697  40.883   2.343  13.937
50930W        W14698   7.264  27.980  10.535
50931W        W14699  44.951  16.762  10.529
50932W        W14700   4.759  39.521  11.952
50933W        W14701   2.840  41.839   0.753
50934W        W14702  13.283  17.651  13.329
50935W        W14703  18.233  27.601  11.010
50936W        W14704  40.043  19.098  10.414
50937W        W14705   0.956  24.688  10.921
50938W        W14706  36.528   3.956  12.954
50939W        W14707  38.329  42.991  13.395
50940W        W14708  35.579  19.743   3.709
50941W        W14709  29.467  24.603  14.779
50942W        W14710  35.988  34.888  14.876
50943W        W14711  14.186   3.779   1.740
50944W        W14712  35.372  42.013  13.508
50945W        W14713  25.659   5.220   0.261
50946W        W14714  41.885  10.351   1.320
50947W        W14715  19.767  18.753  12.940
50948W        W14716  37.883   7.721  11.088
50949W        W14717  13.687  35.457  13.807
50950W        W14718  39.975  24.990   4.242
50951W        W14719  41.852   4.226  14.489
50952W        W14720  19.565  44.995   4.165
50953W        W14721   6.427   3.933   4.733
50954W        W14722  31.535  33.564   2.741
50955W        W14723  24.566  44.443  13.973
50956W        W14724  10.754  12.317   0.329
50957W        W14725  40.339  43.019  11.529
50958W        W14726  39.963  31.994  13.531
50959W        W14727  44.482  36.456   4.692
50960W        W14728  25.998   5.690   2.698
50961W        W14729  28.009  31.530   4.235
50962W        W14730  22.163   9.378   3.171
50963W        W14731   2.720  14.261   3.709
50964W        W14732  14.709  15.318  13.335
50965W        W14733  33.004  42.948  11.923
50966W        W14734   8.360  32.961  12.903
50967W        W14735  10.220   6.722   4.114
50968W        W14736  41.843   8.324   4.647
50969W        W14737  40.815  35.884   4.175
50970W        W14738  21.755  26.028   1.231
50971W        W14739  20.203  18.549   4.688
50972W        W14740  23.204  30.574   3.227
50973W        W14741  17.162  40.322   2.720
50974W        W14742  12.150  24.167   4.609
50975W        W14743   9.707  29.017   1.935
50976W        W14744  16.802   2.250   2.342
50977W        W14745  40.333  38.899  14.507
50978W        W14746  34.023  16.656   0.355
50979W        W14747   8.816  12.165  12.427
50980W        W14748   6.706  42.995   1.440
50981W        W14749  21.242  21.625  14.871
50982W        W14750  12.165  44.433   3.156
50983W        W14751  34.095  42.952  10.447
50984W        W14752  35.434  12.696   4.709
50985W        W14753   1.481   6.283  14.834
50986W        W14754  43.801  32.135  14.288
50987W        W14755  11.822  32.046   3.280
50988W        W14756  44.884  42.023   0.879
50989W        W14757  14.763  14.641  13.879
50990W        W14758  12.141  41.982  13.329
50991W        W14759  31.103  29.978   4.191
50992W        W14760  13.767   7.696   3.337
50993W        W14761  30.470  44.949   4.292
50994W        W14762   4.446  18.667   3.172
50995W        W14763   0.266  17.585  13.500
50996W        W14764  18.102  25.022   4.343
50997W        W14765  19.055  25.025   0.899
50998W        W14766  24.147  17.165  14.448
50999W        W14767  19.564   1.925  14.311
51000W        W14768   4.773  23.171   1.728
51001W        W14769  30.103  25.998   3.237
51002W        W14770  35.880  39.483  10.907
51003W        W14771   9.671   3.275   4.244
51004W        W14772  11.821  27.013  11.429
51005W        W14773  13.140   7.228  13.968
51006W        W14774  20.187  42.978   3.314
51007W        W14775  26.590   1.788   1.885
51008W        W14776  23.725  38.399   1.706
51009W        W14777   9.165  34.458  10.465
51010W        W14778  41.791  10.214   1.912
51011W        W14779  35.387  41.391  11.917
51012W        W14780  36.977  38.924  12.349
51013W        W14781  14.312   9.267   2.383
51014W        W14782   7.800   3.717   2.849
51015W        W14783  13.611  30.527   4.274
51016W        W14784  29.002  22.597   1.444
51017W        W14785  13.674  12.287   3.290
51018W        W14786  23.493  37.078   1.932
51019W        W14787  17.742  11.216   2.215
51020W        W14788  41.933  33.034   3.829
51021W        W14789  11.165  30.556  10.903
51022W        W14790   7.408   2.895  14.806
51023W        W14791  33.542  37.398   4.648
51024W        W14792   7.807  35.964  10.589
51025W        W14793  30.556   5.809  12.367
51026W        W14794  40.383   5.750  14.861
51027W        W14795   8.688   3.259  12.989
51028W        W14796  13.813  15.584  11.543
51029W        W14797   3.261  38.031  12.848
51030W        W14798  40.997  37.406   0.472
51031W        W14799  32.596   5.826  12.901
51032W        W14800  13.188   0.313   1.216
51033W        W14801   9.259  36.534  13.959
51034W        W14802  23.039  14.222  13.883
51035W        W14803  34.864  33.505  14.359
51036W        W14804  43.393   0.801  14.335
51037W        W14805   8.179   4.405   0.909
51038W        W14806  38.536  43.337   3.233
51039W        W14807  16.634  37.844  14.963
51040W        W14808  36.911  36.935   2.806
51041W        W14809  24.483   4.729  14.313
51042W        W14810  11.291  38.859   1.450
51043W        W14811  44.298  12.638   3.379
51044W        W14812  44.337   0.494  13.063
51045W        W14813  29.080  39.982   3.787
51046W        W14814  24.696  19.069  13.370
51047W        W14815  13.680  44.924  10.546
51048W        W14816  16.739  11.625   0.324
51049W        W14817  31.519  26.979  11.531
51050W        W14818   2.248  25.484  11.068
51051W        W14819  43.271  15.660   3.834
51052W        W14820  30.524  36.900  14.852
51053W        W14821  35.360   4.820   3.198
51054W        W14822  24.193  23.090  12.058
51055W        W14823   4.226  20.580   0.454
51056W        W14824   2.394  18.705   0.467
51057W        W14825  35.425  31.520  11.487
51058W        W14826   3.264   8.655   2.278
51059W        W14827  12.170  13.693  12.052
51060W        W14828  43.340  30.043   3.213
51061W        W14829  19.244  29.122   3.156
51062W        W14830   0.845  43.309   0.940
51063W        W14831  37.837  13.714  10.959
51064W        W14832  12.688  29.160  13.536
51065W        W14833  11.680  41.524   0.310
51066W        W14834  18.685  38.975   2.186
51067W        W14835   8.729  26.492  11.923
51068W        W14836  32.494  10.190  13.035
51069W        W14837  21.034  35.494  10.548
51070W        W14838  24.027  17.746  14.370
51071W        W14839  28.017  35.463   5.184
51072W        W14840  11.295   5.764   3.772
51073W        W14841  19.682   2.415  11.104
51074W        W14842  22.022  24.710   0.753
51075W        W14843   7.758  27.144  12.403
51076W        W14844  33.905  32.487   1.427
51077W        W14845  41.899  35.982   1.918
51078W        W14846  10.854  32.476  14.991
51079W        W14847  33.013   3.790   0.782
51080W        W14848  41.924   0.287   2.329
51081W        W14849  20.178  27.669   1.924
51082W        W14850  42.817  30.922  14.840
51083W        W14851   6.263   2.821   0.375
51084W        W14852  41.515  18.250  12.398
51085W        W14853   7.412   0.432  14.363
51086W        W14854   0.398   1.927  12.378
51087W        W14855  15.126  42.298   3.860
51088W        W14856  22.071  23.641   2.334
51089W        W14857  38.386  27.672   2.820
51090W        W14858  20.663   9.252  11.097
51091W        W14859   8.265  29.958  10.441
51092W        W14860  13.205  44.450   2.414
51093W        W14861  16.123   0.899  14.303
51094W        W14862  38.547  28.626   4.315
51095W        W14863  20.033  13.346   3.280
51096W        W14864  44.289  37.894   2.849
51097W        W14865  31.096  36.584   1.222
51098W        W14866  40.391  18.164   0.883
51099W        W14867  44.319  26.991   3.835
51100W        W14868  14.229  21.667  13.820
51101W        W14869  31.520  24.221   4.166
51102W        W14870  22.682  36.971  14.438
51103W        W14871  20.702  15.155  14.843
51104W        W14872  42.309  24.632   3.198
51105W        W14873  39.028   2.271  11.400
51106W        W14874  14.198  31.639  12.507
51107W        W14875  11.226  15.109  12.933
51108W        W14876  26.483  29.961  10.496
51109W        W14877  31.610  35.107   2.872
51110W        W14878  43.486  44.823  14.774
51111W        W14879   8.366  27.549   0.835
51112W        W14880  33.576  32.512   3.640
51113W        W14881  22.140  14.187  11.506
51114W        W14882  13.612  22.731   3.334
51115W        W14883  15.234  39.529   4.229
51116W        W14884  39.473  24.980   3.218
51117W        W14885  29.985  18.082   4.350
51118W        W14886   2.921  42.410   2.236
51119W        W14887   8.375  39.968   4.831
51120W        W14888  42.447   5.725   2.851
51121W        W14889  22.227  25.971   1.241
51122W        W14890  34.395   6.900  11.504
51123W        W14891   9.875   5.828   0.457
51124W        W14892  43.378  39.474   0.350
51125W        W14893  25.093  20.082   0.850
51126W        W14894  29.128  30.527   0.381
51127W        W14895  29.613   5.859   4.237
51128W        W14896   2.863  40.523  11.097
51129W        W14897  43.893  18.066   2.266
51130W        W14898   5.856  43.868  14.366
51131W        W14899  21.620   1.356   0.277
51132W        W14900   2.263   5.761   4.722
51133W        W14901  41.451  38.381   4.290
51134W        W14902  29.129   7.338   1.357
51135W        W14903  19.218  41.005  11.001
51136W        W14904  16.252   5.215   3.175
51137W        W14905  11.764   5.344   0.305
51138W        W14906  14.098  35.432  13.539
51139W        W14907  14.104  16.214   9.940
51140W        W14908  40.411  42.872   2.715
51141W        W14909  13.625  37.856   4.318
51142W        W14910  13.698   4.748  11.475
51143W        W14911  18.713   0.318   3.834
51144W        W14912   8.204  35.993   4.282
51145W        W14913  32.554   4.773   0.280
51146W        W14914  26.013  27.517   0.839
51147W        W14915  26.505  21.222   4.653
51148W        W14916  43.797   0.782   2.266
51149W        W14917   5.270  36.094   5.282
51150W        W14918  27.123  33.994  11.520
51151W        W14919  11.627  10.875   5.583
51152W        W14920   4.435  31.543  13.001
51153W        W14921   0.871  19.662   0.482
51154W        W14922  10.718  35.409  11.094
51155W        W14923  11.152  20.685  14.401
51156W        W14924  42.888   0.917  11.908
51157W        W14925  14.728  41.811  14.404
51158W        W14926  20.275  20.759   0.814
51159W        W14927  16.799  44.291  13.881
51160W        W14928  11.254   4.235  11.043
51161W        W14929   8.244  27.573  13.352
51162W        W14930  40.406  36.098   4.189
51163W        W14931   7.331   5.909  11.581
51164W        W14932  41.831  33.399   3.786
51165W        W14933  13.602  30.980   3.729
51166W        W14934  37.495  21.048  14.394
51167W        W14935  42.507  37.028  14.008
51168W        W14936  16.688  33.390   3.303
51169W        W14937  30.606  36.905   4.815
51170W        W14938   1.327  38.491   4.803
51171W        W14939   3.751  31.123  12.872
51172W        W14940  24.609  26.970   0.813
51173W        W14941  25.582  31.961   3.304
51174W        W14942  31.550  41.362   3.816
51175W        W14943  37.967  20.586  14.891
51176W        W14944  29.584  41.895  10.536
51177W        W14945   1.935  16.091  10.925
51178W        W14946  33.045   8.816   0.754
51179W        W14947  38.072  28.463  11.458
51180W        W14948  38.943  29.656  11.902
51181W        W14949  19.754  37.463   0.828
51182W        W14950   2.271  16.106   0.268
51183W        W14951  32.505  24.708   2.800
51184W        W14952  29.084  13.109  11.480
51185W        W14953  26.532  36.967  12.553
51186W        W14954   0.414  43.391   2.770
51187W        W14955  42.314  31.647   3.636
51188W        W14956  40.815   5.367  13.343
51189W        W14957  43.016  38.910   0.848
51190W        W14958  26.073   2.872  14.876
51191W        W14959  44.762  40.957  12.579
51192W        W14960  19.583  24.211  10.493
51193W        W14961   5.415  21.559  14.375
51194W        W14962  10.721  44.901  12.444
51195W        W14963  33.051   5.303   4.707
51196W        W14964  23.192  41.517   3.153
51197W        W14965  25.079  28.989  11.605
51198W        W14966  21.716  18.562  14.456
51199W        W14967  39.032  37.474  12.870
51200W        W14968  39.424   4.278  10.570
51201W        W14969  33.458  26.983   2.810
51202W        W14970  40.878  15.741  13.459
51203W        W14971  17.659  39.948   0.408
51204W        W14972  11.658   8.745   1.790
51205W        W14973   8.852  40.055  13.379
51206W        W14974  11.856   9.669   2.306
51207W        W14975  38.354  36.438  13.528
51208W        W14976  22.226  36.892  11.858
51209W        W14977  22.509   7.396  11.919
51210W        W14978  37.563   1.874   1.707
51211W        W14979  36.378  37.524  13.438
51212W        W14980  14.126   2.288   4.189
51213W        W14981  24.000  44.824   4.207
51214W        W14982   7.830  44.849   2.343
51215W        W14983  13.215  26.990   1.909
51216W        W14984  34.926  11.777  11.950
51217W        W14985  14.722  38.485  10.576
51218W        W14986  27.951  32.955  14.287
51219W        W14987  42.382  40.866  14.352
51220W        W14988  32.582   5.361  10.909
51221W        W14989   1.818   5.389  12.421
51222W        W14990  28.093   6.380  14.885
51223W        W14991   9.346  23.606   0.253
51224W        W14992  34.416  28.644   3.250
51225W        W14993  33.525   1.470   2.824
51226W        W14994  41.815  35.392  12.031
51227W        W14995  37.452  23.237   2.419
51228W        W14996  37.567  34.050  14.833
51229W        W14997  38.566  20.050  13.967
51230W        W14998   9.157  39.906  10.138
51231W        W14999   9.384  29.151   3.197
51232W        W15000  11.138  13.668   0.393
51233W        W15001  36.093  22.705  11.387
51234W        W15002   0.772   0.805  12.889
51235W        W15003  38.341   5.380  13.061
51236W        W15004   6.184  18.101  12.066
51237W        W15005  14.646  23.544  12.877
51238W        W15006  26.579   9.193   1.368
51239W        W15007  24.124  26.027   4.254
51240W        W15008  34.872   9.217   4.807
51241W        W15009  13.222  13.618   4.323
51242W        W15010   5.204   2.955   4.252
51243W        W15011  23.673   7.247   4.725
51244W        W15012  44.363  17.186  10.934
51245W        W15013  36.480  12.162  14.389
51246W        W15014   9.336   0.813   2.266
51247W        W15015  17.629  26.513   5.705
51248W        W15016  13.325  20.640  10.523
51249W        W15017  33.918  10.224  14.931
51250W        W15018   0.379  17.092   0.413
51251W        W15019  32.581   6.821  12.055
51252W        W15020  18.200  37.993  10.564
51253W        W15021  36.042  15.782  13.337
51254W        W15022  19.623  28.452  14.432
51255W        W15023   3.259  15.698   3.327
51256W        W15024   3.215  37.540   1.930
51257W        W15025  22.228  15.770  10.927
51258W        W15026  37.446  22.070  12.943
51259W        W15027   0.432  32.892   4.149
51260W        W15028  35.854  26.030   2.304
51261W        W15029  32.477  38.968  12.948
51262W        W15030  27.661  41.025   3.818
51263W        W15031  36.988  12.222   0.322
51264W        W15032   8.375   5.346  13.997
51265W        W15033  16.727  29.081   2.666
51266W        W15034  14.104  44.401   4.201
51267W        W15035   4.784   2.814  12.374
51268W        W15036  38.435  21.589  11.461
51269W        W15037  42.006  42.908  14.022
51270W        W15038  26.672  19.716  10.457
51271W        W15039  27.578   1.408   1.904
51272W        W15040  42.919  29.435  13.856
51273W        W15041  25.112   4.229   4.747
51274W        W15042   8.675  14.722  13.328
51275W        W15043  41.457  26.000  13.987
51276W        W15044  36.539  28.138   4.791
51277W        W15045  28.097  34.449   3.741
51278W        W15046   8.833  43.994  12.915
51279W        W15047  36.879  20.196   4.166
51280W        W15048  27.028  43.355   1.876
51281W        W15049  44.866  14.139   2.411
51282W        W15050  26.139  35.430  11.966
51283W        W15051  21.173  43.908  11.953
51284W        W15052  23.108  10.768   1.274
51285W        W15053  36.405  27.022  12.861
51286W        W15054  16.238   9.798   3.710
51287W        W15055  22.652  13.787   2.184
51288W        W15056   7.203  43.500  13.792
51289W        W15057  39.943   8.185   4.301
51290W        W15058  37.906  29.923   1.830
51291W        W15059  42.995  25.029   0.461
51292W        W15060  42.874  33.116  11.422
51293W        W15061  17.638  11.791   0.464
51294W        W15062  28.454  16.777   4.651
51295W        W15063  38.044  40.402   2.355
51296W        W15064  23.536  16.613   4.827
51297W        W15065  19.214  35.473   2.197
51298W        W15066  32.896   6.218   4.250
51299W        W15067  13.702  26.153   4.122
51300W        W15068  13.334  35.491  11.067
51301W        W15069  10.371   3.328   1.278
51302W        W15070  19.729   9.206  14.501
51303W        W15071  28.145  20.763   3.310
51304W        W15072  24.100  34.551  11.101
51305W        W15073  38.338  19.636  10.449
51306W        W15074  33.548  28.172  14.837
51307W        W15075  19.543  12.136  11.908
51308W        W15076   7.670   0.365   4.251
51309W        W15077  42.400  42.361  11.092
51310W        W15078  26.617  23.073  11.058
51311W        W15079  39.346   8.692   1.269
51312W        W15080  39.902  39.345   2.202
51313W        W15081  23.086  15.142   1.238
51314W        W15082  36.974   5.395  11.038
51315W        W15083  43.772  14.263   1.756
51316W        W15084  22.232  20.557  14.953
51317W        W15085  26.466  22.567   1.351
51318W        W15086  41.317  36.845   2.874
51319W        W15087   2.873   0.854   3.276
51320W        W15088  39.442   7.174   4.347
51321W        W15089  22.573  39.011   1.705
51322W        W15090  41.025  36.544  10.536
51323W        W15091  15.670   2.736  11.038
51324W        W15092  12.196  11.255  14.374
51325W        W15093  33.582  37.900  13.409
51326W        W15094  17.597  24.027  13.415
51327W        W15095   3.869   3.398   2.782
51328W        W15096   6.784  35.958  13.364
51329W        W15097  17.605  12.219  10.939
51330W        W15098  12.262  39.486   2.726
51331W        W15099  28.944  41.841  11.467
51332W        W15100  28.528  43.384  13.511
51333W        W15101  43.860   3.742  14.006
51334W        W15102  36.559  38.535  12.051
51335W        W15103  29.173  44.296  10.433
51336W        W15104  44.797  36.021   0.895
51337W        W15105  31.036  24.659   0.278
51338W        W15106  28.172  39.356  11.455
51339W        W15107  12.830  39.952  12.935
51340W        W15108  22.150  16.187   0.349
51341W        W15109   7.179  22.703  10.629
51342W        W15110  19.100   3.409   4.250
51343W        W15111   4.425   1.447  11.539
51344W        W15112  26.591  39.042  11.886
51345W        W15113  22.643   7.387   9.957
51346W        W15114  34.497  27.459  11.457
51347W        W15115   7.360  33.534  14.366
51348W        W15116  42.842  36.002   0.479
51349W        W15117  32.428  32.120   1.444
51350W        W15118  33.433  14.730   4.677
51351W        W15119  20.233  31.594   2.771
51352W        W15120  23.187  27.625  12.079
51353W        W15121  23.145  12.153   0.476
51354W        W15122  14.657  40.389  11.613
51355W        W15123  14.182   4.916  11.515
51356W        W15124  32.546  19.709  10.612
51357W        W15125   2.826  26.004   3.777
51358W        W15126   0.462  25.498   1.312
51359W        W15127  18.683  14.590   4.240
51360W        W15128  24.008  19.664  13.934
51361W        W15129   6.375   1.467   2.215
51362W        W15130  42.465  28.657   2.703
51363W        W15131   3.422   8.180  10.453
51364W        W15132  23.190  38.367  11.572
51365W        W15133   9.258  35.861   0.316
51366W        W15134  41.461  20.664  10.958
51367W        W15135  14.268  41.303   1.281
51368W        W15136  36.458  19.063  10.593
51369W        W15137  44.867  40.933   3.198
51370W        W15138  18.195  34.498  14.881
51371W        W15139  10.716  18.276   1.712
51372W        W15140  14.132  21.595   2.306
51373W        W15141  12.770  11.283   2.389
51374W        W15142  32.531  41.342   2.207
51375W        W15143   4.403  14.160   0.834
51376W        W15144  42.509  12.199  13.385
51377W        W15145  23.083   8.375   4.127
51378W        W15146  32.942  38.545   2.825
51379W        W15147  43.957   5.239   3.778
51380W        W15148  43.791  28.973  12.542
51381W        W15149  42.788   5.216  11.459
51382W        W15150  13.681  38.562  11.533
51383W        W15151  38.066  23.693   3.178
51384W        W15152  40.494  38.976  13.532
51385W        W15153  30.587   1.480   1.778
51386W        W15154   6.876  31.559   0.785
51387W        W15155  21.526   2.262  14.864
51388W        W15156   3.313  26.060  12.938
51389W        W15157  12.700   4.368   3.745
51390W        W15158  24.549   5.806  10.997
51391W        W15159  31.606   6.882  14.984
51392W        W15160  20.664  38.924  14.380
51393W        W15161  37.046  30.652   0.844
51394W        W15162  40.404  42.438  13.363
51395W        W15163   3.948   0.385  10.979
51396W        W15164  11.802  30.086  11.093
51397W        W15165  12.706   6.734  14.499
51398W        W15166   4.382   3.876  14.476
51399W        W15167  24.630   7.893  12.520
51400W        W15168   8.748  20.187   0.410
51401W        W15169  10.702   0.378   4.119
51402W        W15170  44.337   4.360   3.754
51403W        W15171  31.445  21.732  10.443
51404W        W15172   5.270  21.753   1.388
51405W        W15173  15.631  42.481  14.765
51406W        W15174   9.174  14.751   1.887
51407W        W15175  12.760  32.476  14.908
51408W        W15176  29.090  25.090   1.842
51409W        W15177  10.675  15.144  11.412
51410W        W15178  11.231  22.509   4.245
51411W        W15179  19.055   3.358   2.183
51412W        W15180   4.852  35.418   2.238
51413W        W15181  44.940  38.462  13.813
51414W        W15182  39.937  10.737  12.421
51415W        W15183   4.848  18.200   2.768
51416W        W15184  27.192  39.919  11.074
51417W        W15185  44.407  21.634   3.714
51418W        W15186  12.212  35.454   3.244
51419W        W15187   6.330  17.627   4.729
51420W        W15188  40.004  44.306   3.863
51421W        W15189   1.363  15.720   1.340
51422W        W15190  34.580  15.641   3.676
51423W        W15191   1.437  12.198   3.158
51424W        W15192   8.838  30.957  12.943
51425W        W15193  20.078  43.981  11.493
51426W        W15194  30.543  27.945  11.457
51427W        W15195  29.939   2.381  14.280
51428W        W15196  31.153  42.919  12.890
51429W        W15197  30.909  40.857  10.421
51430W        W15198  29.133  13.735   1.306
51431W        W15199  41.487  15.795   1.303
51432W        W15200  29.978   7.869   3.206
51433W        W15201  26.475   6.318  14.859
51434W        W15202  39.476   2.352  13.021
51435W        W15203   4.739   9.738  14.345
51436W        W15204  27.514  44.805   4.260
51437W        W15205  12.237  15.663   0.273
51438W        W15206  40.021  14.702   2.767
51439W        W15207  13.192   8.187  14.343
51440W        W15208   7.880  21.168  11.999
51441W        W15209  24.167  18.287  14.486
51442W        W15210  24.149  23.568   0.397
51443W        W15211  42.852  38.338   2.334
51444W        W15212  36.941   1.385   2.397
51445W        W15213  38.066  43.298  13.028
51446W        W15214   5.781  26.968   3.208
51447W        W15215  15.706   8.807  14.947
51448W        W15216  11.316  34.883   1.848
51449W        W15217  31.434  34.962   0.903
51450W        W15218  32.017   6.792  10.429
51451W        W15219   7.316  21.123   4.135
51452W        W15220  25.549  36.914  11.940
51453W        W15221   5.911   7.847   0.403
51454W        W15222  33.434  11.715  12.475
51455W        W15223  37.536   6.894  11.890
51456W        W15224  25.195  35.601  12.004
51457W        W15225  14.190  24.061   4.602
51458W        W15226   2.347  39.343   1.765
51459W        W15227  35.442  10.732   1.906
51460W        W15228  37.553  15.640   0.928
51461W        W15229   7.348   9.818  13.013
51462W        W15230   7.360   3.354  11.008
51463W        W15231  44.933   7.312   1.726
51464W        W15232  21.058  15.669  13.485
51465W        W15233  19.625   6.746   2.714
51466W        W15234  12.798   5.269   1.715
51467W        W15235  40.421  42.779   0.905
51468W        W15236   5.420   0.913   2.302
51469W        W15237   3.347   7.872   4.631
51470W        W15238   1.256   1.875   0.476
51471W        W15239  24.479  13.645   2.852
51472W        W15240  14.813   9.323   2.898
51473W        W15241   8.346  32.566  14.966
51474W        W15242   6.338   6.797  14.335
51475W        W15243  22.159  22.517   0.758
51476W        W15244  24.229  10.382   0.361
51477W        W15245  22.729   1.913  14.894
51478W        W15246   2.270   7.872  12.062
51479W        W15247  14.750   9.389   4.740
51480W        W15248  13.664  24.061   3.794
51481W        W15249  27.957  28.561  12.988
51482W        W15250  40.366  17.566  13.997
51483W        W15251  10.673   8.220  12.004
51484W        W15252  10.283  32.394  13.538
51485W        W15253  21.072  39.049   4.607
51486W        W15254  24.558   1.304   2.190
51487W        W15255  42.371  33.412  10.923
51488W        W15256   4.206  15.165  14.947
51489W        W15257  40.839  26.976   0.844
51490W        W15258   8.800   2.380   1.860
51491W        W15259  21.041  19.264  11.570
51492W        W15260  14.337   2.870  12.448
51493W        W15261  42.507  16.239   4.351
51494W        W15262  27.534  14.180  11.475
51495W        W15263  44.838  36.918   1.312
51496W        W15264  28.017  19.552  14.283
51497W        W15265  44.805  18.677   2.671
51498W        W15266  14.294  24.057  14.847
51499W        W15267  24.217  39.536   3.384
51500W        W15268  29.990  29.030  14.442
51501W        W15269  14.651  41.791   1.287
51502W        W15270   6.703  41.835   2.685
51503W        W15271  28.577  42.983  14.008
51504W        W15272  34.371   9.374  12.001
51505W        W15273   5.806  13.129   2.270
51506W        W15274  24.161   7.296  10.013
51507W        W15275  30.508  24.529  10.511
51508W        W15276  39.515  20.634  13.917
51509W        W15277  20.737   7.295   2.690
51510W        W15278  27.095  29.007   1.425
51511W        W15279  29.098  10.711  13.015
51512W        W15280  27.958  35.912   2.685
51513W        W15281  19.682  25.657   2.379
51514W        W15282  30.037  10.782  11.110
51515W        W15283  43.501  10.765   3.219
51516W        W15284   0.466   3.833   3.716
51517W        W15285  29.574  39.907  13.421
51518W        W15286  16.306  16.276   9.476
51519W        W15287  11.366   9.352   2.357
51520W        W15288  32.066  32.465   4.128
51521W        W15289  14.231  22.162   1.390
51522W        W15290  10.731  11.282  12.091
51523W        W15291  41.945  37.993   2.899
51524W        W15292  25.530   4.390   4.729
51525W        W15293  14.235  11.802   1.851
51526W        W15294  37.523   9.206  11.100
51527W        W15295  15.139   7.728   2.338
51528W        W15296  38.955  39.863   2.708
51529W        W15297  25.042  43.885   0.323
51530W        W15298  30.631  20.216  14.982
51531W        W15299  33.886  19.722  13.976
51532W        W15300  14.669   8.784  14.357
51533W        W15301   2.385   2.755  13.868
51534W        W15302   9.329   1.779  11.055
51535W        W15303  19.229  29.147  11.383
51536W        W15304  10.371   9.882  13.859
51537W        W15305  29.449   9.361  14.509
51538W        W15306  30.982  27.050   2.194
51539W        W15307   3.390  18.282   0.254
51540W        W15308  12.142   9.876  14.364
51541W        W15309  32.096  11.649   5.205
51542W        W15310   1.759  43.772   1.269
51543W        W15311   6.331  43.882  12.436
51544W        W15312  34.066  36.470   2.273
51545W        W15313  36.045  20.735  10.485
51546W        W15314  14.144   9.378  13.915
51547W        W15315  37.454   0.262  11.521
51548W        W15316  38.952  38.978   2.393
51549W        W15317   3.880   4.715  10.529
51550W        W15318  15.089  42.288  11.893
51551W        W15319  34.020  12.856  13.882
51552W        W15320   1.247  28.457   0.262
51553W        W15321   0.364  39.314  12.824
51554W        W15322  31.022  13.642  12.864
51555W        W15323  28.056  13.732  13.542
51556W        W15324  25.622  42.524  11.046
51557W        W15325  39.888   7.267  13.472
51558W        W15326  37.366  33.439   0.926
51559W        W15327   7.910  10.319  14.508
51560W        W15328  40.031   4.768   2.768
51561W        W15329   6.806  20.236   4.826
51562W        W15330  15.234  34.105   4.296
51563W        W15331  44.930  29.003  14.865
51564W        W15332  43.367  29.080  14.502
51565W        W15333  32.428  35.384   0.785
51566W        W15334   0.774  44.340   4.141
51567W        W15335   7.356  34.440  14.014
51568W        W15336   0.470   9.209   4.306
51569W        W15337   7.409  30.142  11.117
51570W        W15338  39.055  44.270  14.946
51571W        W15339  35.005  41.314  13.397
51572W        W15340  39.392  13.634  13.515
51573W        W15341  36.477  13.775  11.857
51574W        W15342   2.461   0.828   3.793
51575W        W15343  11.160  44.869  14.395
51576W        W15344   5.289  26.960  10.600
51577W        W15345   4.284  35.385  10.106
51578W        W15346  35.992  28.002   3.666
51579W        W15347  33.532   7.348  12.458
51580W        W15348  16.776   7.175   2.881
51581W        W15349   1.365  15.647  13.035
51582W        W15350  36.483   7.218  13.541
51583W        W15351  23.699  35.577  14.001
51584W        W15352  14.296   9.866   0.378
51585W        W15353  19.580   4.366   0.328
51586W        W15354  28.173   5.403  13.390
51587W        W15355  16.744  26.018  11.606
51588W        W15356   4.423  37.028   2.745
51589W        W15357  32.475  29.424  13.387
51590W        W15358  35.873   1.335   1.911
51591W        W15359   3.847  28.947   3.255
51592W        W15360  42.924  12.715  13.510
51593W        W15361  23.513   6.720  14.787
51594W        W15362   6.771  28.633   0.397
51595W        W15363  22.555  41.441   1.878
51596W        W15364  32.955  41.395   2.304
51597W        W15365  39.987  42.828   0.751
51598W        W15366  40.312   5.222   4.200
51599W        W15367  16.275  14.106   1.247
51600W        W15368  35.958  43.966   0.779
51601W        W15369  30.963  34.408  13.934
51602W        W15370  29.660  33.946   0.845
51603W        W15371  22.694   7.877   0.879
51604W        W15372  39.885  29.665   4.293
51605W        W15373  12.231   0.860  11.465
51606W        W15374   5.850  39.823  12.943
51607W        W15375  35.453  20.116  14.422
51608W        W15376  40.032   0.317  12.047
51609W        W15377  40.858  35.923  13.481
51610W        W15378  38.551  32.008  13.358
51611W        W15379   5.695  33.078   1.763
51612W        W15380   6.367  34.017   2.687
51613W        W15381  36.576  18.628  11.550
51614W        W15382   9.208  34.017   2.398
51615W        W15383  28.639  43.981  10.575
51616W        W15384  12.283   3.231  13.965
51617W        W15385   5.206  11.774   1.917
51618W        W15386   6.907  23.056  11.510
51619W        W15387  11.256  25.043   2.415
51620W        W15388  28.452  34.542   1.296
51621W        W15389   5.344  39.519   2.365
51622W        W15390   2.806   0.491  14.287
51623W        W15391  30.119  30.129  11.492
51624W        W15392  24.601  32.506   2.304
51625W        W15393  24.037  11.295  13.931
51626W        W15394   9.173  26.659  10.490
51627W        W15395  23.017  15.774   0.326
51628W        W15396  26.671  17.253  14.924
51629W        W15397   8.816  30.564   1.713
51630W        W15398  36.381  25.051   3.235
51631W        W15399  42.956  42.942  12.069
51632W        W15400  31.958  31.625   3.175
51633W        W15401  17.116   2.357  14.023
51634W        W15402  43.999  13.662   1.772
51635W        W15403  18.709   1.362  13.972
51636W        W15404   7.792   4.815   0.302
51637W        W15405   0.397  33.543  11.420
51638W        W15406   6.906  31.543  11.592
51639W        W15407  33.072  11.790  10.626
51640W        W15408  32.391  17.643  13.489
51641W        W15409  26.460  42.424   3.369
51642W        W15410   1.952   9.685  14.868
51643W        W15411  40.824  21.581   4.215
51644W        W15412  37.965  37.004  13.407
51645W        W15413  17.710   2.805  11.007
51646W        W15414  15.703  42.909   1.846
51647W        W15415  19.218   4.410   4.721
51648W        W15416  13.743  41.423   2.897
51649W        W15417  15.752  17.161   2.732
51650W        W15418  18.628   9.699  13.858
51651W        W15419  23.506  30.097   3.264
51652W        W15420  13.844   6.863   0.944
51653W        W15421  28.968   0.791  14.958
51654W        W15422  16.665  16.167   4.824
51655W        W15423  30.536  26.588  12.977
51656W        W15424  44.871  18.766   3.247
51657W        W15425  24.066  38.401   3.851
51658W        W15426  30.931  35.954   0.906
51659W        W15427  32.412   2.827  12.447
51660W        W15428  35.060  44.461   0.956
51661W        W15429   7.695  17.640  13.479
51662W        W15430  26.205  13.223  14.507
51663W        W15431   1.299   4.753  14.417
51664W        W15432  32.522  40.406   9.980
51665W        W15433  18.573  22.997   2.249
51666W        W15434  26.659  18.295  11.870
51667W        W15435  34.865  25.606  14.365
51668W        W15436  28.470  17.783   3.796
51669W        W15437  37.445  20.668  10.479
51670W        W15438   3.714   0.770   4.664
51671W        W15439  10.852   7.870  10.590
51672W        W15440  27.175  29.159  14.948
51673W        W15441  11.697  11.679  12.489
51674W        W15442  32.563  40.503  14.478
51675W        W15443  37.358  31.918   1.777
51676W        W15444  42.522  20.751   3.304
51677W        W15445  29.655  25.026  13.433
51678W        W15446  10.218  24.017   2.745
51679W        W15447  21.087   4.942   2.287
51680W        W15448  27.468   7.726  11.110
51681W        W15449   6.855   4.765   2.310
51682W        W15450  20.726  19.280  14.836
51683W        W15451  38.912  33.463   0.398
51684W        W15452  21.080  34.380  13.993
51685W        W15453  13.647  39.968   1.366
51686W        W15454  19.572  27.109  11.935
51687W        W15455   7.792  11.359  12.464
51688W        W15456   6.295  29.044  13.472
51689W        W15457  42.441  18.206   4.641
51690W        W15458  20.205  38.970  13.483
51691W        W15459  44.953  12.839   3.705
51692W        W15460  24.992  32.925   5.699
51693W        W15461  30.923  44.796   1.773
51694W        W15462  14.281  35.581   1.323
51695W        W15463  44.301  40.881  13.907
51696W        W15464  31.919  31.444   3.820
51697W        W15465  30.530  20.768  10.891
51698W        W15466  43.013  41.808  11.867
51699W        W15467  11.827  19.592  13.333
51700W        W15468  38.333  29.532  11.862
51701W        W15469  28.435  25.191   0.412
51702W        W15470  39.825   4.852  13.495
51703W        W15471   2.824   1.773  11.957
51704W        W15472  43.769  42.974  11.521
51705W        W15473  19.577  21.162   4.223
51706W        W15474  33.586  22.540   0.839
51707W        W15475  12.766   6.230   0.284
51708W        W15476   2.910  37.546   4.216
51709W        W15477  31.402  23.194  10.887
51710W        W15478   4.450  36.543  10.555
51711W        W15479  40.377  27.020  11.000
51712W        W15480  28.165   9.231  14.497
51713W        W15481  11.222  40.908   3.212
51714W        W15482  19.597   8.356  12.877
51715W        W15483  24.037  37.466   1.890
51716W        W15484  21.537  35.097   3.273
51717W        W15485  22.538  40.549   4.199
51718W        W15486  21.252  41.491   4.602
51719W        W15487  23.208  27.447   4.794
51720W        W15488   0.328  23.002  14.832
51721W        W15489   0.381   4.752  11.072
51722W        W15490  22.709  35.924   1.223
51723W        W15491   7.899  26.604   3.836
51724W        W15492  30.155  34.507  11.902
51725W        W15493  27.110  18.615   0.901
51726W        W15494  37.427  11.787  12.481
51727W        W15495  12.674   0.460   2.192
51728W        W15496   0.362  27.634  14.871
51729W        W15497  26.004   8.723   3.807
51730W        W15498   7.368  33.031  11.394
51731W        W15499   2.757  18.783   0.781
51732W        W15500  43.764  20.727   2.661
51733W        W15501  41.377   6.238   2.266
51734W        W15502  13.105  30.156   2.348
51735W        W15503  36.442   6.414  11.940
51736W        W15504  27.144  20.717  11.009
51737W        W15505  28.505  20.642  14.278
51738W        W15506  10.320  21.257  12.978
51739W        W15507  21.191  16.612  11.554
51740W        W15508  40.977  35.400  11.414
51741W        W15509   3.709  30.471  10.961
51742W        W15510  35.552   3.756  11.455
51743W        W15511  41.015  38.497  12.535
51744W        W15512  30.131  29.480  11.580
51745W        W15513  36.551  30.450  14.331
51746W        W15514  32.140  26.130  13.439
51747W        W15515  30.413  26.695   2.182
51748W        W15516   7.774   5.252   4.297
51749W        W15517   1.850  16.776   4.355
51750W        W15518  15.779   3.734   4.201
51751W        W15519  30.509   9.289   1.263
51752W        W15520  17.779  13.124   4.685
51753W        W15521   9.789  17.792  14.357
51754W        W15522  16.096  28.669   3.257
51755W        W15523  16.804  11.217   0.400
51756W        W15524   4.328  19.604   1.773
51757W        W15525   5.429   6.396   2.206
51758W        W15526  21.715  26.674   2.317
51759W        W15527  12.284  16.239   0.353
51760W        W15528  16.768  11.369  12.421
51761W        W15529  20.556   8.764  11.485
51762W        W15530  12.659  11.236  11.406
51763W        W15531  22.122  28.483   1.845
51764W        W15532  11.341   6.382  12.532
51765W        W15533  17.769  43.488   0.422
51766W        W15534  40.514  31.613   3.867
51767W        W15535  11.311  32.997  10.548
51768W        W15536  28.940   2.854  11.601
51769W        W15537  12.817   3.888   2.694
51770W        W15538  38.935  38.029   3.713
51771W        W15539  34.520  23.138  13.804
51772W        W15540   8.254  33.383  11.546
51773W        W15541  12.336  26.619   3.706
51774W        W15542  26.139  41.525   2.737
51775W        W15543   0.394  31.129  11.462
51776W        W15544  37.485  40.515   1.261
51777W        W15545  20.582  31.903  11.372
51778W        W15546  21.752   2.255   1.406
51779W        W15547   2.848  44.973   4.273
51780W        W15548   1.815  37.421   0.459
51781W        W15549   2.799  24.581   1.721
51782W        W15550  25.186  29.575  10.484
51783W        W15551  40.454  26.610   1.745
51784W        W15552  44.853   8.405   3.706
51785W        W15553  26.567  21.577   1.928
51786W        W15554   8.843  12.682  13.369
51787W        W15555   3.835  31.554  11.579
51788W        W15556  23.164   0.348   1.361
51789W        W15557  38.373  17.694   1.841
51790W        W15558   6.789  20.114   0.268
51791W        W15559   9.788   6.887  13.426
51792W        W15560   9.662   1.954  11.036
51793W        W15561  39.014  30.580  13.545
51794W        W15562   5.753   5.776   0.762
51795W        W15563  38.031  31.501   1.777
51796W        W15564  39.954  15.229  10.890
51797W        W15565  11.295  24.069  13.059
51798W        W15566  28.059   2.416  12.033
51799W        W15567  37.575  25.077  13.976
51800W        W15568  25.208  17.703   1.379
51801W        W15569  10.854   0.378   3.747
51802W        W15570  24.157  15.721   3.339
51803W        W15571  37.855   0.463   4.771
51804W        W15572  24.619  35.474  11.893
51805W        W15573   3.776  21.223  10.889
51806W        W15574  35.574  16.716  14.965
51807W        W15575  37.954  33.474   1.435
51808W        W15576  12.796  15.685  14.437
51809W        W15577  22.121  19.697   0.952
51810W        W15578  42.880  25.608   2.241
51811W        W15579  25.168  31.959  14.405
51812W        W15580  28.985  36.037   0.938
51813W        W15581   7.220   8.709  11.999
51814W        W15582  44.754  14.635   4.631
51815W        W15583  35.477  26.660   9.926
51816W        W15584  16.175   9.299  12.545
51817W        W15585  40.339  22.689   1.338
51818W        W15586  34.969   9.880   1.848
51819W        W15587  22.995   9.705  10.404
51820W        W15588  22.542  28.500  11.576
51821W        W15589  32.063  44.486  14.808
51822W        W15590  44.779  30.457   1.368
51823W        W15591  33.436  33.449  14.349
51824W        W15592  21.243  17.615  13.497
51825W        W15593  11.265  28.644  10.915
51826W        W15594  10.305   7.370   3.662
51827W        W15595  26.522   7.789  14.351
51828W        W15596  43.474  43.995   2.841
51829W        W15597   3.886  28.973  10.047
51830W        W15598   1.352   3.945   1.846
51831W        W15599  10.822  27.065  10.512
51832W        W15600  39.326  25.685  11.048
51833W        W15601  25.197  35.981  13.416
51834W        W15602  22.106  10.374  14.860
51835W        W15603   7.203  28.526   3.781
51836W        W15604  43.356  41.359  13.492
51837W        W15605   7.301  37.898  14.298
51838W        W15606   2.321  29.595  13.516
51839W        W15607  24.670  24.700   3.662
51840W        W15608  31.623  10.725  10.951
51841W        W15609  25.169  21.236   4.199
51842W        W15610  16.309  17.121  12.461
51843W        W15611   4.905   2.911   2.369
51844W        W15612  21.066   8.805  14.388
51845W        W15613  35.358  21.606  11.566
51846W        W15614  32.009  43.457  11.532
51847W        W15615  29.929  23.055  11.989
51848W        W15616  42.013  31.092  12.869
51849W        W15617  20.236   3.408   3.357
51850W        W15618  29.133  38.016   0.960
51851W        W15619  23.014  24.494  10.609
51852W        W15620   6.228  23.674   0.879
51853W        W15621   0.857  11.839   0.760
51854W        W15622  10.298   2.820  11.384
51855W        W15623  18.196  33.439  12.904
51856W        W15624  17.277  12.836   4.147
51857W        W15625  24.979  44.006   3.762
51858W        W15626   3.734  34.452  13.045
51859W        W15627  33.555  39.030   3.839
51860W        W15628  37.461  35.990   1.240
51861W        W15629  32.522   0.952  14.348
51862W        W15630  14.824   0.773   2.324
51863W        W15631  42.795  29.943   0.293
51864W        W15632  39.052  38.998  14.919
51865W        W15633  19.773   0.273  13.499
51866W        W15634  40.450  34.014   3.223
51867W        W15635  43.310  28.929   0.292
51868W        W15636  41.319  25.174   2.813
51869W        W15637  12.618  29.935  14.484
51870W        W15638  39.518  28.466  13.310
51871W        W15639   1.332  19.670   3.223
51872W        W15640  32.479  31.545  11.111
51873W        W15641  23.652  14.806  14.996
51874W        W15642  23.669  15.624  14.884
51875W        W15643  20.105  22.581  12.029
51876W        W15644  14.159  21.096   2.361
51877W        W15645   1.358  13.785   1.278
51878W        W15646  38.030  13.701  11.937
51879W        W15647   9.698   5.790  11.588
51880W        W15648  43.372  44.871   3.289
51881W        W15649  37.083  12.707  11.924
51882W        W15650   0.776  37.942   0.372
51883W        W15651   8.186  10.815  11.954
51884W        W15652  39.854  12.358  10.642
51885W        W15653   6.901  21.225   0.350
51886W        W15654  35.931  42.784   2.709
51887W        W15655  22.738  29.101   0.415
51888W        W15656  43.828   5.732   4.119
51889W        W15657  23.674  15.685   1.245
51890W        W15658  25.188  30.475   0.446
51891W        W15659  29.168   9.692   2.739
51892W        W15660  25.979  24.485  11.070
51893W        W15661   2.386  10.744  11.463
51894W        W15662  18.228  18.255   0.812
51895W        W15663  39.046  26.544   4.663
51896W        W15664  36.965  17.744   1.264
51897W        W15665   5.847  14.200   1.340
51898W        W15666  31.965  26.590   0.479
51899W        W15667  11.356  43.919  11.475
51900W        W15668  38.034   1.839  14.492
51901W        W15669  18.152  27.121  11.921
51902W        W15670  35.378   5.425   3.661
51903W        W15671  24.061  42.831  11.541
51904W        W15672  23.068  23.111   3.275
51905W        W15673  14.225  14.110   1.381
51906W        W15674  27.571  17.770   1.756
51907W        W15675  33.979  22.618  10.888
51908W        W15676  22.563  18.232  13.533
51909W        W15677  17.782  38.064   2.213
51910W        W15678  29.514  37.918   3.742
51911W        W15679  25.500   7.349   4.659
51912W        W15680  21.082  29.466  13.812
51913W        W15681  20.034  18.085   3.324
51914W        W15682  31.479  44.766   2.331
51915W        W15683  32.087  35.562   3.693
51916W        W15684  44.273  31.142   0.844
51917W        W15685  26.642  27.582   4.303
51918W        W15686  10.380   6.296  10.634
51919W        W15687  24.124   3.413  14.003
51920W        W15688  10.287  23.191   2.250
51921W        W15689   5.210  42.921  12.353
51922W        W15690  28.971  43.320  11.598
51923W        W15691  38.855  44.460  11.101
51924W        W15692  35.454   6.412   1.317
51925W        W15693   4.892  35.463  14.297
51926W        W15694  26.984  26.551  11.990
51927W        W15695  43.801  21.685  14.989
51928W        W15696  21.249  35.515   1.253
51929W        W15697  10.678   0.408   3.274
51930W        W15698   6.748  40.850   4.691
51931W        W15699  44.393  39.351   2.214
51932W        W15700   6.698  33.033   2.882
51933W        W15701  32.962  34.379  11.406
51934W        W15702  34.887   7.722   2.189
51935W        W15703  39.373  40.429  11.066
51936W        W15704  38.021  15.665   4.156
51937W        W15705  16.770  12.263   1.828
51938W        W15706  39.868  24.632  14.412
51939W        W15707  18.266  35.862   1.448
51940W        W15708  38.068  26.518   1.822
51941W        W15709  22.126  27.144   4.762
51942W        W15710  20.216   3.362   2.205
51943W        W15711  12.712  41.805  13.403
51944W        W15712  34.458  36.077  11.044
51945W        W15713  32.983  43.874   1.734
51946W        W15714  43.475   2.244   4.647
51947W        W15715  24.575  28.982   4.219
51948W        W15716  28.992  23.139  10.488
51949W        W15717  15.770  43.780  11.987
51950W        W15718  11.131  37.970  10.555
51951W        W15719   9.816  29.049   0.871
51952W        W15720  25.076  35.438  13.973
51953W        W15721  24.627  26.484  13.927
51954W        W15722  19.102  15.266  13.972
51955W        W15723   6.341  24.566   4.240
51956W        W15724  14.669  36.966  13.818
51957W        W15725   5.894  20.041   0.306
51958W        W15726  41.817  12.226  14.304
51959W        W15727  25.635  19.768   0.741
51960W        W15728  29.978   8.307   2.737
51961W        W15729  10.651  17.569   0.890
51962W        W15730  37.496   2.752   1.712
51963W        W15731   1.931  29.569  12.507
51964W        W15732  11.733  19.625   4.819
51965W        W15733  36.902  19.208   2.249
51966W        W15734   0.412  10.252   4.793
51967W        W15735   3.886  29.032  14.371
51968W        W15736  33.987  30.118  13.811
51969W        W15737  16.622  28.139  10.068
51970W        W15738  31.986   4.744   3.150
51971W        W15739  40.945  31.017  11.470
51972W        W15740  32.411   1.320   2.332
51973W        W15741  26.970  18.759  11.492
51974W        W15742  41.513   5.880   1.251
51975W        W15743  35.398  22.209   3.860
51976W        W15744  16.207   9.390   3.382
51977W        W15745  11.692  26.206  10.428
51978W        W15746  11.328  28.086   0.920
51979W        W15747  27.005  21.517  11.092
51980W        W15748  43.906   0.910  14.826
51981W        W15749  30.613  11.362  10.487
51982W        W15750   4.809  27.688   2.303
51983W        W15751  13.644  43.780   0.286
51984W        W15752  11.768  15.094  12.438
51985W        W15753  27.587  12.811   2.286
51986W        W15754  37.894  25.605   0.337
51987W        W15755  13.203  40.893  14.400
51988W        W15756   6.853  11.357  11.944
51989W        W15757   8.331   2.951   2.287
51990W        W15758   8.734  38.554  11.375
51991W        W15759   5.896  39.378  13.413
51992W        W15760  13.809  34.937  10.465
51993W        W15761  20.141  20.266  10.510
51994W        W15762  33.079  33.999   2.359
51995W        W15763  29.443  25.144  11.602
51996W        W15764  26.068  17.655  13.460
51997W        W15765  24.535  30.436   1.789
51998W        W15766   2.290  18.118   0.273
51999W        W15767  39.007  31.500  13.330
52000W        W15768  42.910   3.367   4.811
52001W        W15769   6.185   5.817   0.873
52002W        W15770  30.978  32.054  13.310
52003W        W15771  12.152   7.736   1.342
52004W        W15772  32.091  28.595  12.367
52005W        W15773  12.797  24.538  11.542
52006W        W15774  28.964  32.099  12.395
52007W        W15775  16.594   6.847   3.854
52008W        W15776  11.752  10.178   4.714
52009W        W15777   6.882  34.970  12.867
52010W        W15778  16.584  29.126  13.505
52011W        W15779  39.464  39.516   4.130
52012W        W15780  32.923  29.971   3.347
52013W        W15781  34.078   9.199  12.341
52014W        W15782   1.760  37.070   0.883
52015W        W15783  14.177  26.636   4.292
52016W        W15784  42.025  42.314   1.761
52017W        W15785   4.937   3.306  11.438
52018W        W15786  11.815  20.262  11.034
52019W        W15787  41.359  29.935   1.875
52020W        W15788  27.502  12.685   0.807
52021W        W15789  44.466  31.558  11.427
52022W        W15790  11.144  40.825  13.425
52023W        W15791   0.414  11.165   3.377
52024W        W15792  30.485  19.071  11.053
52025W        W15793  17.243  25.172   0.874
52026W        W15794  28.987  34.002   1.851
52027W        W15795  42.315  28.034   0.911
52028W        W15796   0.790  20.703   2.218
52029W        W15797  40.487  40.986  11.563
52030W        W15798  33.585  31.028   4.757
52031W        W15799  30.048  43.416   0.314
52032W        W15800  21.226   6.819  11.997
52033W        W15801  15.662  39.868   3.187
52034W        W15802  44.891  44.900  12.439
52035W        W15803  21.530  39.440   3.855
52036W        W15804  30.494  41.925  11.606
52037W        W15805  20.721  23.070  13.464
52038W        W15806  16.653  19.167   5.627
52039W        W15807  28.448  42.300  13.421
52040W        W15808  31.429  28.659   2.683
52041W        W15809  14.183  32.413   3.740
52042W        W15810   9.771   8.859  14.876
52043W        W15811  24.524   2.400  11.911
52044W        W15812  44.321   6.266   0.294
52045W        W15813  37.009   8.191  13.384
52046W        W15814  37.037  27.965  12.921
52047W        W15815  20.201  19.133   0.340
52048W        W15816  36.490  36.581  12.030
52049W        W15817  44.266   1.456  13.433
52050W        W15818  29.043  22.143  12.429
52051W        W15819   8.378   8.291  11.983
52052W        W15820   1.911   1.820  11.383
52053W        W15821   2.285   7.862  10.442
52054W        W15822   4.924  16.210   3.848
52055W        W15823  21.517  13.673  13.395
52056W        W15824   0.344  27.532   4.317
52057W        W15825  24.563   5.305   1.405
52058W        W15826   3.251  14.145   2.384
52059W        W15827   0.383  24.532  10.513
52060W        W15828  18.759  38.343  14.478
52061W        W15829  40.450  25.707  14.454
52062W        W15830  12.773  18.197  10.477
52063W        W15831  38.947  39.894  11.418
52064W        W15832  33.971  26.693  10.937
52065W        W15833  32.923  31.549   0.880
52066W        W15834   7.687  30.918   1.414
52067W        W15835   5.876  39.428  10.967
52068W        W15836  22.728   0.988  11.603
52069W        W15837  41.807  22.731  11.053
52070W        W15838   5.796  37.418  11.512
52071W        W15839  30.157   6.905   1.382
52072W        W15840  38.510  16.152   4.354
52073W        W15841  17.721   8.205  14.481
52074W        W15842  41.979  19.059   3.818
52075W        W15843   7.375  20.269  12.956
52076W        W15844  11.314  26.123   4.780
52077W        W15845   0.360   4.440  13.382
52078W        W15846  12.304  35.529   2.714
52079W        W15847  37.358  42.476  11.943
52080W        W15848  25.600  28.644  12.519
52081W        W15849  43.384  40.409   0.333
52082W        W15850  34.895   4.337  13.459
52083W        W15851  34.450  39.910   4.299
52084W        W15852  38.022   1.467   4.330
52085W        W15853  11.759   6.289  13.003
52086W        W15854  15.100  10.148  14.454
52087W        W15855  11.210   8.224   0.274
52088W        W15856  25.478   7.365  11.105
52089W        W15857  27.477  40.892  12.357
52090W        W15858  11.723  12.849   2.398
52091W        W15859   3.798  43.936   3.372
52092W        W15860  18.158  13.107   1.351
52093W        W15861   3.345   8.335  13.969
52094W        W15862  41.387  19.640   0.781
52095W        W15863   5.787  40.812   2.756
52096W        W15864  21.606  38.368  12.339
52097W        W15865  28.057   8.719  10.066
52098W        W15866  43.837   3.335   2.194
52099W        W15867  40.825  27.528   1.810
52100W        W15868  32.596  38.401   1.804
52101W        W15869  17.103  40.531   4.657
52102W        W15870  38.053  24.707  10.955
52103W        W15871  43.382  25.215   1.750
52104W        W15872  19.144  26.525  13.815
52105W        W15873  13.732   4.799   4.200
52106W        W15874  32.030   9.208   1.699
52107W        W15875  35.383  13.757   4.783
52108W        W15876  13.138  32.512  10.952
52109W        W15877   8.298  30.908  12.565
52110W        W15878  40.336  28.557  13.421
52111W        W15879  13.639  36.464  13.308
52112W        W15880  17.671   8.177   0.345
52113W        W15881  21.528  42.286  13.954
52114W        W15882  17.572  40.046   0.843
52115W        W15883  42.028  24.060   2.209
52116W        W15884  40.998  32.452  12.860
52117W        W15885   8.765   1.944  12.577
52118W        W15886  29.920  15.634  13.345
52119W        W15887  11.174  11.745   1.289
52120W        W15888  22.632  26.606  13.970
52121W        W15889  13.719   3.820   3.193
52122W        W15890  43.850  22.539  12.401
52123W        W15891  15.289  43.466  10.963
52124W        W15892  12.728  24.032   2.710
52125W        W15893  26.090  43.273  13.795
52126W        W15894  39.317  18.589   0.453
52127W        W15895   6.761  36.875  13.839
52128W        W15896  39.338  32.912   1.406
52129W        W15897  27.515  36.477   0.829
52130W        W15898  35.050  12.227  11.883
52131W        W15899  23.008  15.306   3.686
52132W        W15900  36.034  27.046   0.944
52133W        W15901  44.841   2.313   3.654
52134W        W15902  37.854   5.904  10.481
52135W        W15903  31.583   7.909   0.322
52136W        W15904   0.304  43.356  14.899
52137W        W15905  44.424  33.004  10.601
52138W        W15906  13.684  12.711  12.966
52139W        W15907  40.947  28.117  12.463
52140W        W15908  27.141  41.395  11.044
52141W        W15909   7.213  11.682  12.414
52142W        W15910  43.885  23.044   0.371
52143W        W15911   0.959   2.287   0.862
52144W        W15912   0.762  42.838   1.843
52145W        W15913  38.409  40.416   0.929
52146W        W15914   0.325  40.322   2.396
52147W        W15915  37.549  30.979  11.880
52148W        W15916  41.378   7.768  10.545
52149W        W15917  37.484  14.809   1.789
52150W        W15918   2.841  35.025  13.882
52151W        W15919  23.639  23.510  14.439
52152W        W15920  16.264  31.131   2.751
52153W        W15921  35.487  22.109  13.391
52154W        W15922  10.869  18.609  12.356
52155W        W15923  20.566  44.462  10.515
52156W        W15924  41.354  37.348  12.006
52157W        W15925   5.203  20.112   2.415
52158W        W15926  41.981  39.426  12.978
52159W        W15927  30.912  10.845   0.291
52160W        W15928  12.786   8.170  12.950
52161W        W15929   5.296  27.131   1.797
52162W        W15930  27.137  36.843   4.610
52163W        W15931  15.125  33.114  10.931
52164W        W15932  42.940  12.744   9.986
52165W        W15933   6.825  31.932  12.500
52166W        W15934   1.358   9.882   2.687
52167W        W15935  42.989   7.797  11.110
52168W        W15936  17.765  41.315  14.015
52169W        W15937  40.886  18.091  14.966
52170W        W15938  29.957  28.668  14.473
52171W        W15939   6.757   5.240   3.720
52172W        W15940  34.423  35.864  14.371
52173W        W15941   4.849  21.071   1.784
52174W        W15942  32.596  31.982  14.810
52175W        W15943  26.115  14.201   4.116
52176W        W15944  31.408  23.210   0.964
52177W        W15945  32.543   2.811  14.019
52178W        W15946  44.805  44.766   0.362
52179W        W15947   4.764   6.338   1.745
52180W        W15948  22.635   3.305  13.453
52181W        W15949  38.431  35.859   0.953
52182W        W15950  40.810  14.783   2.221
52183W        W15951  19.769  20.710  14.934
52184W        W15952  42.427  31.478   4.270
52185W        W15953  10.739  14.257   4.301
52186W        W15954  15.137  26.990   0.922
52187W        W15955  25.667   5.849  11.025
52188W        W15956  41.903  38.535   3.776
52189W        W15957   7.803  33.129  11.914
52190W        W15958   6.332   1.457   0.945
52191W        W15959  32.438  20.036   1.901
52192W        W15960  43.772  27.097  14.906
52193W        W15961  33.985  38.047   1.922
52194W        W15962   1.380  24.651  14.310
52195W        W15963   8.194  44.260   3.267
52196W        W15964  36.917  27.153   4.216
52197W        W15965   7.749  13.293  13.436
52198W        W15966  14.765  44.962   0.729
52199W        W15967   1.919  33.492   0.807
52200W        W15968   5.923  10.749   3.840
52201W        W15969  23.516  18.570   0.348
52202W        W15970  36.901   0.424  11.030
52203W        W15971  13.658  21.526   4.339
52204W        W15972  19.700  44.313  10.542
52205W        W15973  34.091  11.271   2.265
52206W        W15974  40.931  17.631   4.676
52207W        W15975  41.013  10.792  10.492
52208W        W15976  24.082   2.921   0.353
52209W        W15977  30.474   9.712   4.674
52210W        W15978   1.832  11.697   0.256
52211W        W15979  33.983  27.634  12.033
52212W        W15980  29.547  30.023  13.992
52213W        W15981   3.931  20.563   1.210
52214W        W15982  28.547  24.137   4.305
52215W        W15983   8.729  11.294   3.867
52216W        W15984  36.904  40.850  14.399
52217W        W15985  41.016  42.498   2.667
52218W        W15986  30.557  22.671   2.823
52219W        W15987  12.314  21.689  12.401
52220W        W15988  35.998  32.041   0.728
52221W        W15989  25.035  38.971  13.964
52222W        W15990  38.835  15.126   1.292
52223W        W15991   0.870   2.764  14.897
52224W        W15992  39.896  28.547  14.800
52225W        W15993  15.235  14.229   1.307
52226W        W15994  18.737   1.866   0.328
52227W        W15995  39.519  18.130   1.414
52228W        W15996   6.329  30.587   0.399
52229W        W15997  19.162  33.132  12.938
52230W        W15998  13.170  12.843   0.286
52231W        W15999  29.563  23.241  11.119
52232W        W16000  17.304  20.606  11.073
52233W        W16001   3.903  32.426  10.625
52234W        W16002   5.336  20.222   1.407
52235W        W16003   3.886  27.602   4.285
52236W        W16004  37.490  26.609  11.608
52237W        W16005  38.370  27.145  11.542
52238W        W16006  27.949  10.247  12.460
52239W        W16007   8.865  16.088   0.908
52240W        W16008  42.020   7.745  13.543
52241W        W16009  33.495   4.904   4.231
52242W        W16010  35.476  39.931  12.872
52243W        W16011   3.805  41.977   3.864
52244W        W16012  44.764  14.809   2.219
52245W        W16013   6.231   1.781   3.269
52246W        W16014   3.259   0.858   2.788
52247W        W16015  35.585  32.508  13.003
52248W        W16016   0.775  16.232  14.935
52249W        W16017  14.277  17.249   5.318
52250W        W16018  39.831   9.365  13.051
52251W        W16019  44.867   2.879  10.557
52252W        W16020  44.335  12.186  10.588
52253W        W16021  44.503  33.458  13.869
52254W        W16022  37.539  12.261   2.355
52255W        W16023  41.004  27.089   3.805
52256W        W16024  37.837  16.102   1.924
52257W        W16025  18.607   3.947   4.761
52258W        W16026   0.250   4.390   0.962
52259W        W16027   6.191  30.555  14.764
52260W        W16028   9.807  22.714  13.958
52261W        W16029  33.023  21.117   0.296
52262W        W16030  27.184   5.773   1.285
52263W        W16031  35.948  44.855  11.127
52264W        W16032  33.959  39.522   2.900
52265W        W16033  44.838  38.850   4.791
52266W        W16034   8.849  44.884   0.372
52267W        W16035  31.601  31.126   4.598
52268W        W16036  11.768  22.217  11.552
52269W        W16037  26.111  44.399  10.457
52270W        W16038  34.987  25.095  14.469
52271W        W16039  41.990  43.419  14.428
52272W        W16040  31.630  37.360  13.477
52273W        W16041   2.746  34.115  12.906
52274W        W16042  37.572   3.367   0.266
52275W        W16043   2.284  13.246  12.401
52276W        W16044  29.486   7.351  12.940
52277W        W16045  19.164  36.017   4.747
52278W        W16046  37.853   6.825   0.898
52279W        W16047  33.967  15.278   1.281
52280W        W16048  14.710  36.841  13.361
52281W        W16049  38.342  28.993  10.141
52282W        W16050  23.672  23.143   1.410
52283W        W16051   8.869   6.248   1.297
52284W        W16052   4.275   0.757   0.313
52285W        W16053   7.194  31.446   1.383
52286W        W16054  15.140   6.259   4.723
52287W        W16055  43.462  12.341  12.079
52288W        W16056  24.482  33.466   0.483
52289W        W16057   0.753  24.621  11.973
52290W        W16058   6.413  22.558  13.905
52291W        W16059  18.268   4.935   1.421
52292W        W16060  23.682  23.232   4.637
52293W        W16061  41.942  30.047   4.693
52294W        W16062  23.731  22.599   2.682
52295W        W16063  11.662   9.797  13.056
52296W        W16064  25.497  12.823  14.512
52297W        W16065  15.767  15.680  13.331
52298W        W16066  34.016  14.194  14.833
52299W        W16067  22.706  26.009  13.051
52300W        W16068  19.622  36.573  12.033
52301W        W16069   3.785  39.506  14.814
52302W        W16070  33.514  37.044   1.443
52303W        W16071   8.265  41.846   4.184
52304W        W16072  19.642  42.483  12.054
52305W        W16073  14.140   2.391   1.715
52306W        W16074  44.781  13.291  14.421
52307W        W16075  18.634   2.774  10.558
52308W        W16076   7.859   8.393  12.392
52309W        W16077  35.563  30.519   0.731
52310W        W16078  15.699   1.412  13.900
52311W        W16079  24.112  33.118   1.897
52312W        W16080   6.847   1.360   2.819
52313W        W16081  42.923  11.254  12.869
52314W        W16082  26.550  11.630  11.967
52315W        W16083  32.614  42.489   2.900
52316W        W16084  29.948  34.011   0.888
52317W        W16085   0.792  44.270   4.737
52318W        W16086  11.353   9.715   1.772
52319W        W16087  44.380  26.673  12.359
52320W        W16088  17.295  28.458  11.945
52321W        W16089  16.169  33.060   1.240
52322W        W16090  36.495  20.257  11.090
52323W        W16091  42.429   3.752  14.286
52324W        W16092  17.111  16.080   3.680
52325W        W16093  18.660   0.852  14.368
52326W        W16094  25.506  12.302  10.637
52327W        W16095  25.481   0.948   3.252
52328W        W16096  30.636  34.457   2.789
52329W        W16097   4.788  23.643  14.455
52330W        W16098  24.704  13.616   4.332
52331W        W16099   1.358   5.696   1.918
52332W        W16100  36.941  29.462  14.321
52333W        W16101  32.500  32.486   4.275
52334W        W16102   8.187  37.068   0.778
52335W        W16103   4.785   9.813  13.908
52336W        W16104  37.884  40.507  10.997
52337W        W16105  31.971   4.827   5.162
52338W        W16106  13.334   4.294  12.844
52339W        W16107  44.415   0.429  13.345
52340W        W16108  25.062  13.834   4.287
52341W        W16109  21.591  36.861  13.890
52342W        W16110  41.375  21.526   4.254
52343W        W16111  21.595  13.605   1.790
52344W        W16112  30.979  36.412  14.994
52345W        W16113  29.002  27.963  10.449
52346W        W16114  25.012  21.103   2.186
52347W        W16115  19.218  42.809  10.932
52348W        W16116   7.270  44.776   1.762
52349W        W16117  24.068  41.415  10.504
52350W        W16118  15.118   6.683   4.156
52351W        W16119  19.040  31.600  10.503
52352W        W16120  30.027   1.441  11.456
52353W        W16121  20.253   2.298  13.343
52354W        W16122  26.702  27.587   4.671
52355W        W16123   1.899  32.442  14.288
52356W        W16124  36.434   9.302  11.445
52357W        W16125   2.777  10.350  14.906
52358W        W16126  29.426  24.586   2.728
52359W        W16127  26.496  13.340   0.345
52360W        W16128  18.673  30.470  12.395
52361W        W16129   2.317   2.956  11.086
52362W        W16130  35.877  21.152  14.413
52363W        W16131  17.759  24.028   2.387
52364W        W16132  17.080   5.763   0.905
52365W        W16133  10.228  30.112  10.954
52366W        W16134  36.407  15.807   4.227
52367W        W16135  39.839  39.027  12.359
52368W        W16136   0.457   6.724   3.298
52369W        W16137  27.537  15.656  10.936
52370W        W16138   3.710  41.495  12.348
52371W        W16139  36.373   3.758   1.385
52372W        W16140  29.069   7.270  13.824
52373W        W16141  29.082  33.881  10.475
52374W        W16142  36.375  35.590  12.839
52375W        W16143  40.822   4.306   0.862
52376W        W16144  34.932  43.823   0.776
52377W        W16145  37.875   5.810   1.797
52378W        W16146  44.986  31.430  12.997
52379W        W16147  36.463  29.543   1.760
52380W        W16148  22.704  28.158   4.790
52381W        W16149  36.549  15.112   1.719
52382W        W16150  10.681   2.392   0.399
52383W        W16151  39.460  38.907   2.811
52384W        W16152  20.566  11.367   4.756
52385W        W16153  34.094  31.433   3.699
52386W        W16154   5.901  38.522  10.483
52387W        W16155  27.158   8.165  11.496
52388W        W16156  19.594  28.050  10.562
52389W        W16157  27.560  13.214   3.360
52390W        W16158  28.496  41.870  12.435
52391W        W16159  40.409  18.673  13.827
52392W        W16160   2.327  21.613   4.815
52393W        W16161   7.687  39.981  11.458
52394W        W16162  10.683   8.849  12.530
52395W        W16163  14.330   1.432  14.481
52396W        W16164  15.655  16.683  12.891
52397W        W16165  30.136  39.037   3.799
52398W        W16166  16.169  15.084  12.889
52399W        W16167   1.894  35.399  10.560
52400W        W16168  17.596  37.565   0.860
52401W        W16169  35.377   7.391  11.037
52402W        W16170   9.701  15.815  11.434
52403W        W16171  13.212   4.225   0.365
52404W        W16172  19.554  31.135  10.626
52405W        W16173  22.537  40.341   4.730
52406W        W16174  40.413  12.718   1.714
52407W        W16175  10.874  31.560  13.035
52408W        W16176   8.810  38.347   2.735
52409W        W16177  29.556   1.920  13.473
52410W        W16178  12.837  26.534  11.016
52411W        W16179  27.488  32.948  14.382
52412W        W16180  28.016  44.839  13.064
52413W        W16181  28.986  17.180  12.906
52414W        W16182  38.070  39.444   3.739
52415W        W16183  17.228  10.204  11.114
52416W        W16184  38.985   6.740   2.853
52417W        W16185   6.913  40.543  13.503
52418W        W16186   3.871  24.993   3.288
52419W        W16187  16.810  38.879   3.185
52420W        W16188   4.792  13.156   4.621
52421W        W16189   7.204  38.062   4.156
52422W        W16190  26.078  39.327  12.883
52423W        W16191  40.320  40.452  12.027
52424W        W16192   3.340  41.432  11.557
52425W        W16193  24.546  42.307   4.761
52426W        W16194  18.593   4.274  13.934
52427W        W16195  41.928  26.529   3.858
52428W        W16196  37.901  19.222  12.086
52429W        W16197   7.864   2.237  13.052
52430W        W16198  12.193  28.140   0.276
52431W        W16199  23.653   1.376   3.218
52432W        W16200   6.893  34.445  12.536
52433W        W16201  34.565   5.849  14.364
52434W        W16202  36.868  12.321   0.733
52435W        W16203  11.759  24.692   4.653
52436W        W16204  20.627  31.534   4.154
52437W        W16205  12.347  40.849   1.829
52438W        W16206   0.886  31.644   0.354
52439W        W16207  14.613   9.390  10.517
52440W        W16208  34.961  19.755  10.104
52441W        W16209   9.291  14.637  14.010
52442W        W16210  11.806  43.455  10.594
52443W        W16211  28.035  42.982   4.164
52444W        W16212  33.109  39.820   3.719
52445W        W16213  34.087  36.504  13.376
52446W        W16214  11.867  41.887   0.478
52447W        W16215  17.793  25.201   0.919
52448W        W16216  30.930  31.130   3.660
52449W        W16217  17.566   8.256  13.967
52450W        W16218  37.884  10.289   1.229
52451W        W16219  25.139  32.465   0.950
52452W        W16220   6.235  20.643   2.357
52453W        W16221  15.320  17.261  10.920
52454W        W16222   6.676  17.752   2.325
52455W        W16223  30.579  39.877   1.330
52456W        W16224   7.367  29.081  11.505
52457W        W16225   4.257  28.451  12.091
52458W        W16226  22.692  24.101  10.462
52459W        W16227  21.675   7.322   2.234
52460W        W16228  37.878  10.152  13.977
52461W        W16229  15.226  38.479  14.016
52462W        W16230  26.154  22.046   4.180
52463W        W16231  37.446   3.923  12.039
52464W        W16232  40.957  26.637  13.916
52465W        W16233   4.927  33.886   1.713
52466W        W16234   0.411  31.567  10.502
52467W        W16235  32.082  22.607  11.575
52468W        W16236   7.250  26.031   4.650
52469W        W16237  10.804  12.825   0.298
52470W        W16238  14.692   3.888  13.445
52471W        W16239  41.468   9.719  10.431
52472W        W16240  36.559  37.004  13.933
52473W        W16241  26.991   4.843   3.870
52474W        W16242  33.386   1.390  10.947
52475W        W16243  41.994  17.151  10.408
52476W        W16244  36.941  44.488   0.853
52477W        W16245  38.862  16.305  12.905
52478W        W16246  42.778  19.095   2.765
52479W        W16247  37.428  29.549  12.015
52480W        W16248  14.227  19.761   0.343
52481W        W16249   7.295  35.076   4.215
52482W        W16250  23.714   0.421   2.223
52483W        W16251  21.233  31.090  13.011
52484W        W16252  29.554  43.344   2.737
52485W        W16253  40.999  26.464   0.311
52486W        W16254   3.828   0.337  10.613
52487W        W16255  44.437  34.954  13.507
52488W        W16256  25.595  37.989  11.098
52489W        W16257   6.838  32.091  13.314
52490W        W16258  42.441   7.799  10.906
52491W        W16259  25.108   3.953  13.447
52492W        W16260  16.649   2.467   3.710
52493W        W16261  32.040  23.590  11.381
52494W        W16262  16.704  12.796   4.765
52495W        W16263  14.678   2.774   3.865
52496W        W16264  28.542  42.885   3.301
52497W        W16265   6.852   6.228  10.960
52498W        W16266  33.620  43.470  14.475
52499W        W16267   1.423   5.418   0.740
52500W        W16268   7.777  11.687   2.874
52501W        W16269  42.427  22.104  14.830
52502W        W16270   1.477  30.541  12.426
52503W        W16271  10.185  38.549  13.465
52504W        W16272  33.999  38.435  12.905
52505W        W16273  44.378  40.044  11.927
52506W        W16274  10.821  43.833  11.922
52507W        W16275  43.339  25.492   2.323
52508W        W16276   8.723  17.606   0.453
52509W        W16277  26.069   3.366   0.905
52510W        W16278   3.232  20.201   3.865
52511W        W16279  18.208   3.408   4.239
52512W        W16280   8.284   2.465   1.707
52513W        W16281   1.388  14.686   3.744
52514W        W16282  40.052  38.000   4.817
52515W        W16283   4.920  32.441  13.003
52516W        W16284   0.787  24.575  14.923
52517W        W16285  10.309  18.668   3.322
52518W        W16286  40.545   0.444  12.897
52519W        W16287  26.980  19.601  13.536
52520W        W16288  31.593  41.321   0.811
52521W        W16289   1.275  41.922   1.841
52522W        W16290  37.010  44.361   1.449
52523W        W16291  20.707  33.540  12.421
52524W        W16292  12.189  44.502  12.864
52525W        W16293  13.275  15.118   3.860
52526W        W16294  37.904  35.899   0.253
52527W        W16295  41.936  24.226   3.148
52528W        W16296  10.705  40.355   0.324
52529W        W16297  38.388   5.427   3.792
52530W        W16298  15.608  25.506   1.307
52531W        W16299  15.156   0.753  12.453
52532W        W16300  26.679  16.657  14.794
52533W        W16301  21.259   3.732   4.813
52534W        W16302   8.732  40.883  12.898
52535W        W16303  25.036  20.612  12.386
52536W        W16304   3.432  11.361  13.368
52537W        W16305  33.431  43.887   3.694
52538W        W16306  35.930  35.035   2.766
52539W        W16307   9.841  34.513   0.772
52540W        W16308  41.329  38.838   4.124
52541W        W16309  16.767  22.056   0.734
52542W        W16310  40.518  21.716  12.857
52543W        W16311  23.562  24.494   2.767
52544W        W16312  39.002  14.336   3.666
52545W        W16313  32.530  29.925   2.752
52546W        W16314  34.485   8.289   4.707
52547W        W16315  27.614  15.272  13.057
52548W        W16316   9.797  19.095   4.639
52549W        W16317   9.652   5.786  14.433
52550W        W16318  24.997  25.513   2.335
52551W        W16319   2.924   7.809  13.832
52552W        W16320  13.707   5.361  12.830
52553W        W16321  11.258   9.742   1.304
52554W        W16322  17.185  22.164  12.558
52555W        W16323  30.527  30.516   1.341
52556W        W16324  15.751  35.509  11.588
52557W        W16325  36.069  17.300  11.870
52558W        W16326  13.283   7.328  14.865
52559W        W16327   0.763   3.442  10.109
52560W        W16328   1.442   1.331  14.028
52561W        W16329   2.357  12.703   0.851
52562W        W16330   8.382  28.108  10.607
52563W        W16331   1.307  36.888  14.935
52564W        W16332  40.946  16.253  10.634
52565W        W16333  11.786  20.571   1.387
52566W        W16334  27.186  17.792  12.570
52567W        W16335  29.946  17.067   5.300
52568W        W16336  34.499  19.118  13.041
52569W        W16337   4.418   2.773  10.620
52570W        W16338  10.775  23.513  12.489
52571W        W16339  16.130  41.836   2.345
52572W        W16340  31.993  11.699  13.395
52573W        W16341   1.948  11.279  13.313
52574W        W16342   9.352  29.660  14.855
52575W        W16343  16.231  31.931   5.248
52576W        W16344  22.508   3.349   0.368
52577W        W16345  35.363  14.216  13.014
52578W        W16346  31.502   5.756   0.951
52579W        W16347  25.484  15.665   1.890
52580W        W16348  25.710  16.658   0.447
52581W        W16349  12.190  23.051  14.893
52582W        W16350  41.865  15.720  14.508
52583W        W16351   5.749  29.094  11.977
52584W        W16352  11.850  29.629  11.401
52585W        W16353  43.949  18.092   2.706
52586W        W16354  11.767  39.954  12.536
52587W        W16355  28.137  26.489  12.059
52588W        W16356  41.342  42.496  12.827
52589W        W16357  23.722  26.514  14.407
52590W        W16358  15.294  13.782  14.373
52591W        W16359  22.061  24.049   4.770
52592W        W16360  44.839  13.136   3.211
52593W        W16361  11.659  32.459   2.889
52594W        W16362  41.292  40.925  11.411
52595W        W16363  31.525  21.644   1.812
52596W        W16364  42.882   0.371  12.920
52597W        W16365  23.507  18.657   3.774
52598W        W16366  15.636  19.251  12.870
52599W        W16367  28.565  26.481  14.001
52600W        W16368  38.008  14.192   3.686
52601W        W16369  43.369  31.410   1.223
52602W        W16370   8.832  36.991   2.239
52603W        W16371  34.878  31.906  13.836
52604W        W16372  15.770  27.142   4.642
52605W        W16373  11.812  18.571   1.339
52606W        W16374  43.011  20.747  10.479
52607W        W16375   1.909  35.926   0.833
52608W        W16376   8.812  39.896   4.203
52609W        W16377  34.948  42.527   1.297
52610W        W16378  15.647  22.739   1.335
52611W        W16379  11.351  18.258  14.320
52612W        W16380  30.496  28.536  11.114
52613W        W16381  44.434   6.186  11.535
52614W        W16382   0.334  33.611  14.425
52615W        W16383  24.494   4.385   1.731
52616W        W16384  29.070   2.316  11.936
52617W        W16385  37.054  22.613   0.277
52618W        W16386  23.213  34.011   5.566
52619W        W16387  30.494  33.905   1.334
52620W        W16388  22.724  20.736  13.944
52621W        W16389   8.663  19.673   3.706
52622W        W16390  29.972  31.100   1.240
52623W        W16391  17.302  19.679   5.084
52624W        W16392  34.910   9.747   3.655
52625W        W16393   2.798  21.579   4.162
52626W        W16394  25.563   8.833   3.680
52627W        W16395   4.329  39.020  14.838
52628W        W16396  17.171  21.641   0.409
52629W        W16397  13.645  35.927   2.802
52630W        W16398  13.614  44.357   3.821
52631W        W16399   3.353  19.583   4.733
52632W        W16400   8.325  16.736  11.874
52633W        W16401  14.630  36.371  12.341
52634W        W16402   1.813  20.688  10.915
52635W        W16403  29.485  17.749   1.918
52636W        W16404  14.104  10.248   5.314
52637W        W16405  13.281  19.679   0.855
52638W        W16406  42.985  10.840  11.039
52639W        W16407  44.317  44.759   0.293
52640W        W16408   0.463  14.250   3.645
52641W        W16409  39.475  27.519   3.730
52642W        W16410  10.369  27.613   4.330
52643W        W16411  13.348  22.674   0.965
52644W        W16412  35.924  38.028  11.966
52645W        W16413  18.621  41.875  14.390
52646W        W16414  24.545   2.416   0.269
52647W        W16415  13.652   8.205  14.858
52648W        W16416  24.211  13.331  14.499
52649W        W16417   6.208   8.849   3.765
52650W        W16418  36.363  34.899   1.699
52651W        W16419  36.896  43.015   4.133
52652W        W16420  13.119  11.866  12.505
52653W        W16421  28.511   9.819  12.904
52654W        W16422  35.089  20.601   2.214
52655W        W16423  44.477  17.787   0.835
52656W        W16424  43.320  14.141  12.395
52657W        W16425  24.140  17.235   2.344
52658W        W16426  35.579  37.368  14.310
52659W        W16427   0.951  23.607   9.991
52660W        W16428  34.864  16.758  11.063
52661W        W16429  37.576   8.285  12.010
52662W        W16430  31.925  18.052  12.413
52663W        W16431  19.118   6.690   4.230
52664W        W16432   4.700   4.411   3.809
52665W        W16433  18.261  41.024   0.847
52666W        W16434   9.711  44.419  14.767
52667W        W16435   1.276   8.752   3.182
52668W        W16436  29.566  15.283   0.879
52669W        W16437   3.899  13.682  13.376
52670W        W16438  16.620  13.117   4.602
52671W        W16439   5.864  35.023   1.830
52672W        W16440  25.963   5.696   1.907
52673W        W16441  30.918  18.157   2.193
52674W        W16442  20.631  28.101   3.701
52675W        W16443  43.484  26.993   2.870
52676W        W16444  16.103   4.395   1.211
52677W        W16445   7.904   1.341   4.779
52678W        W16446   9.870  34.073   2.376
52679W        W16447  26.006   8.316  11.502
52680W        W16448   0.343  19.727   4.292
52681W        W16449  17.795  27.513  14.879
52682W        W16450   0.282  10.871   0.344
52683W        W16451   0.462  15.653  12.512
52684W        W16452   5.300  18.675  11.540
52685W        W16453   7.862  42.863   5.311
52686W        W16454  16.185  33.535   1.298
52687W        W16455  31.556   2.378   1.247
52688W        W16456  29.482   3.801   4.295
52689W        W16457  12.668  10.276  10.074
52690W        W16458  15.708   9.766  10.002
52691W        W16459   3.373  16.609   4.164
52692W        W16460  25.640   7.896   1.413
52693W        W16461  44.794  20.177   0.730
52694W        W16462   2.808  15.626   2.276
52695W        W16463  26.575  25.086   1.817
52696W        W16464  31.079  10.272   4.132
52697W        W16465  17.233  13.245  12.947
52698W        W16466   0.911  43.339   4.610
52699W        W16467  16.174  39.955  12.560
52700W        W16468  25.473  41.903   0.880
52701W        W16469   5.860  27.027  10.585
52702W        W16470  31.560  22.173  10.891
52703W        W16471  14.763  42.455  13.902
52704W        W16472  34.384   2.857   2.752
52705W        W16473   2.444   4.229  14.421
52706W        W16474  10.262   9.236   3.763
52707W        W16475  26.189  22.746   3.740
52708W        W16476  26.692  18.765  12.919
52709W        W16477  34.486  18.185   1.215
52710W        W16478  31.004   8.282  11.096
52711W        W16479  22.066  23.148   3.669
52712W        W16480  21.247  30.417  11.377
52713W        W16481  11.355  42.014  14.790
52714W        W16482   8.246  16.736   2.231
52715W        W16483   6.242  20.648  11.572
52716W        W16484  40.315   8.301  14.466
52717W        W16485  22.693  14.256   4.130
52718W        W16486   1.834  14.807   4.319
52719W        W16487  36.029  33.579   4.182
52720W        W16488  39.949  18.615  14.870
52721W        W16489   5.721  30.439   4.119
52722W        W16490   8.328  37.502  11.948
52723W        W16491   5.299  35.050   2.848
52724W        W16492  12.140  35.502   1.914
52725W        W16493  34.904  21.563  14.321
52726W        W16494  31.512   4.408   1.703
52727W        W16495  33.943  34.378  12.995
52728W        W16496  13.800   4.408  13.009
52729W        W16497   0.368  29.634  13.434
52730W        W16498  20.138  43.335   2.754
52731W        W16499  12.241  28.516  12.082
52732W        W16500  15.189  41.990  12.512
52733W        W16501   9.813  12.669  13.916
52734W        W16502   2.842   9.255  11.918
52735W        W16503  35.375  23.016  14.867
52736W        W16504  25.515   4.303   0.807
52737W        W16505  33.006  18.288   2.870
52738W        W16506  12.775  13.232   5.179
52739W        W16507  26.577   9.742   1.217
52740W        W16508  13.338  27.084   4.796
52741W        W16509  25.087   7.893   4.300
52742W        W16510   5.815  12.323  14.960
52743W        W16511  31.046  22.167   1.855
52744W        W16512  13.638  32.936  14.403
52745W        W16513  31.092   5.422   3.728
52746W        W16514  17.662  31.427  10.888
52747W        W16515   3.271  42.982   1.286
52748W        W16516  33.017  19.176   1.270
52749W        W16517  23.546  44.879   0.821
52750W        W16518  30.102  32.488   4.257
52751W        W16519  42.382  24.496  11.545
52752W        W16520   0.975  15.254  12.095
52753W        W16521   9.334   3.378   2.796
52754W        W16522  22.511  29.447  12.060
52755W        W16523  34.898   4.911  13.327
52756W        W16524  38.820  37.838   4.814
52757W        W16525  19.666  24.033   2.336
52758W        W16526   0.946  22.685   2.748
52759W        W16527  37.011  20.735   1.728
52760W        W16528  39.528  44.845  12.902
52761W        W16529  36.443  16.309   0.442
52762W        W16530  20.222  20.183   3.733
52763W        W16531  14.319  37.079  11.035
52764W        W16532   7.695  24.146  13.825
52765W        W16533  10.310   5.859   0.798
52766W        W16534  27.962  14.115   2.317
52767W        W16535  18.174  11.865   1.736
52768W        W16536   7.674  36.449   1.934
52769W        W16537  33.957  16.688  14.509
52770W        W16538  38.442  18.217   1.844
52771W        W16539  20.184   3.410   4.646
52772W        W16540  24.160  24.063  12.543
52773W        W16541  37.456   1.390  12.053
52774W        W16542  14.157  18.233   2.774
52775W        W16543  21.108  37.498  12.577
52776W        W16544  28.100  26.487   0.733
52777W        W16545  10.294  30.481   0.407
52778W        W16546   1.792  19.559  13.335
52779W        W16547  18.738   0.487  11.963
52780W        W16548  11.697  30.521  11.977
52781W        W16549  15.216  39.554   0.459
52782W        W16550  38.056  41.019  13.432
52783W        W16551  28.177  14.621  13.930
52784W        W16552  25.475  11.171   3.213
52785W        W16553  23.176  23.624   0.289
52786W        W16554  31.611  33.023  14.358
52787W        W16555   3.225  42.888  14.411
52788W        W16556   4.446  27.964   3.808
52789W        W16557  29.480  35.411   1.439
52790W        W16558  43.931  20.678  13.904
52791W        W16559  42.828  22.659  11.429
52792W        W16560  40.384  43.803  10.969
52793W        W16561   4.404   3.317  11.051
52794W        W16562  31.536   7.770   3.861
52795W        W16563  36.540   3.946   4.820
52796W        W16564  15.131  34.580  12.084
52797W        W16565  38.823  24.662  10.428
52798W        W16566  43.489  17.681   1.406
52799W        W16567  39.862  19.630   0.391
52800W        W16568  13.334  11.183  13.018
52801W        W16569  31.913  21.053   4.241
52802W        W16570  26.570  17.786  12.897
52803W        W16571  16.792  31.094   9.493
52804W        W16572  38.836  43.848  14.507
52805W        W16573  31.046  34.491  13.475
52806W        W16574  19.758  29.019   3.859
52807W        W16575  23.224   0.410   1.855
52808W        W16576   8.240   1.377   4.724
52809W        W16577   2.310  42.848  11.382
52810W        W16578  44.283  41.793  11.977
52811W        W16579  35.930  41.909   4.332
52812W        W16580  25.511  41.937   1.308
52813W        W16581   4.428  14.111   3.723
52814W        W16582  18.272   5.760  12.579
52815W        W16583  10.154  35.892  14.515
52816W        W16584   5.795   8.871   1.223
52817W        W16585  33.544  12.730   4.236
52818W        W16586   0.373   2.448  11.870
52819W        W16587  44.431  26.641   5.282
52820W        W16588   8.396  39.406  14.975
52821W        W16589  17.279  17.236  12.555
52822W        W16590  43.508   6.226   3.869
52823W        W16591   9.223  40.322  13.909
52824W        W16592  22.223  33.019   1.443
52825W        W16593   7.671  28.550   4.333
52826W        W16594   6.428  24.021  12.503
52827W        W16595  15.190  20.638  13.821
52828W        W16596  43.375  25.058  10.530
52829W        W16597   9.791   9.161  11.399
52830W        W16598  32.588  26.197   3.206
52831W        W16599  42.304  40.822  13.978
52832W        W16600  44.807  12.148  14.378
52833W        W16601  16.659  18.090   0.279
52834W        W16602  31.038   1.886   5.102
52835W        W16603  41.003  32.123  13.450
52836W        W16604  14.260  10.262   1.786
52837W        W16605  25.968  15.083   5.667
52838W        W16606  37.887   6.333  14.839
52839W        W16607  39.369  42.452  14.857
52840W        W16608  26.999  35.521   3.822
52841W        W16609  43.822  26.465   3.255
52842W        W16610   4.857  31.971  10.470
52843W        W16611  12.669  12.615  12.882
52844W        W16612  33.003  37.946   3.761
52845W        W16613  18.735   0.294  13.537
52846W        W16614   5.715   1.250   1.913
52847W        W16615  21.099  18.267  12.577
52848W        W16616  37.469  11.144  13.971
52849W        W16617  11.303  17.226   3.647
52850W        W16618   7.383  13.672   2.324
52851W        W16619  21.540  28.084  11.435
52852W        W16620  16.743  20.676  13.923
52853W        W16621  33.399   4.371   4.598
52854W        W16622  34.052   6.849   4.241
52855W        W16623   3.321   3.294  12.496
52856W        W16624   4.209  16.803   4.335
52857W        W16625  44.306  31.100  10.496
52858W        W16626   2.832  12.265  10.998
52859W        W16627  17.588  11.719   2.675
52860W        W16628  21.191  15.218  10.479
52861W        W16629   9.323  32.598   1.732
52862W        W16630  17.222  22.090  14.297
52863W        W16631  12.615   7.777  13.909
52864W        W16632  33.463   7.724  13.385
52865W        W16633  11.315  21.187   0.896
52866W        W16634  41.395  28.536  10.941
52867W        W16635  10.873  21.161  14.325
52868W        W16636  21.163  13.799  11.901
52869W        W16637  22.743  11.694  11.434
52870W        W16638  41.856  31.007  11.418
52871W        W16639  11.717   8.668   3.735
52872W        W16640  33.527  40.442  11.527
52873W        W16641  12.826   9.368  10.917
52874W        W16642  38.886   0.430   0.855
52875W        W16643  38.058  43.784  11.586
52876W        W16644  21.682  26.076   3.709
52877W        W16645  27.076   1.363   3.180
52878W        W16646  42.992  36.546  14.011
52879W        W16647  29.004   0.855  12.465
52880W        W16648   9.693  29.592   2.363
52881W        W16649  26.994  26.682  14.284
52882W        W16650  27.508  36.064  14.006
52883W        W16651  19.681  14.097   3.201
52884W        W16652  28.962  37.007   0.828
52885W        W16653   1.483  26.966  13.810
52886W        W16654  40.808  27.141   4.175
52887W        W16655  37.041  12.265  13.512
52888W        W16656   0.874  32.490   2.302
52889W        W16657  29.627  28.144   0.893
52890W        W16658   3.322  35.071   0.417
52891W        W16659  28.946  13.123  10.639
52892W        W16660  17.701  27.627  14.373
52893W        W16661  31.011  40.311   2.337
52894W        W16662  34.381   1.744  11.515
52895W        W16663  28.563  30.951   2.822
52896W        W16664  35.564  16.772   3.376
52897W        W16665  28.606   8.785   0.318
52898W        W16666  44.783   5.884   3.238
52899W        W16667  44.409   3.429   2.219
52900W        W16668  43.281  14.642  10.997
52901W        W16669  31.435   6.381  10.931
52902W        W16670  21.752  17.563  11.996
52903W        W16671  15.637  14.233  12.833
52904W        W16672  34.584  30.949  11.073
52905W        W16673   4.852  40.341  13.014
52906W        W16674  10.373  14.832  11.043
52907W        W16675  42.341  43.468  14.827
52908W        W16676   6.750   0.396   2.325
52909W        W16677  41.802   3.306   1.240
52910W        W16678  19.225  31.505  13.031
52911W        W16679  22.209  35.918  13.030
52912W        W16680  10.748  40.981  11.548
52913W        W16681  42.490  16.616   0.379
52914W        W16682   0.337   0.419  14.349
52915W        W16683  32.922   6.762   1.315
52916W        W16684  11.856   6.260   0.473
52917W        W16685   9.330  17.090   3.176
52918W        W16686  32.913   9.392  10.603
52919W        W16687   9.885  28.041  14.369
52920W        W16688  44.496  23.716   4.314
52921W        W16689  27.670  42.463  14.428
52922W        W16690  17.731   7.869  12.493
52923W        W16691  42.953  14.718   3.780
52924W        W16692  20.616  21.646  11.936
52925W        W16693  41.525  43.271  13.916
52926W        W16694  42.812  10.758  13.862
52927W        W16695   2.329  38.837  10.154
52928W        W16696  37.886  28.673   1.822
52929W        W16697  32.477  33.384   0.935
52930W        W16698   1.345  41.918   3.358
52931W        W16699  15.652   2.355   2.178
52932W        W16700  43.773  30.068  12.861
52933W        W16701  19.055   8.199   3.666
52934W        W16702  27.489   2.807  14.962
52935W        W16703  36.488   0.344   1.447
52936W        W16704  23.517  12.151   0.306
52937W        W16705  26.530  33.573   2.320
52938W        W16706  39.810  37.560   0.392
52939W        W16707  23.606  22.654  13.418
52940W        W16708  42.324  44.293  12.924
52941W        W16709  35.929  38.934   0.834
52942W        W16710  18.660  25.576   3.673
52943W        W16711   0.320   1.845   4.354
52944W        W16712  35.874  15.792  10.918
52945W        W16713   5.197  35.053   3.681
52946W        W16714  31.995   6.892   0.958
52947W        W16715  32.123  16.136   0.348
52948W        W16716  14.754  31.903  14.337
52949W        W16717   2.735  15.764   0.822
52950W        W16718  35.413  35.082  13.881
52951W        W16719  32.072  43.983  14.848
52952W        W16720  13.167  37.401   1.222
52953W        W16721   4.363  12.654  12.459
52954W        W16722  28.076  28.106  10.424
52955W        W16723  41.418  39.972  11.488
52956W        W16724  28.496  21.158   1.826
52957W        W16725  23.578  24.518   2.412
52958W        W16726  21.580  22.176  12.022
52959W        W16727   6.843  12.636   0.829
52960W        W16728   2.897  20.710  12.577
52961W        W16729  37.912  16.294  11.565
52962W        W16730  30.555  22.506   1.773
52963W        W16731  21.674  10.188   4.649
52964W        W16732  36.405  38.556   3.299
52965W        W16733  28.585   4.214  12.436
52966W        W16734  12.662  37.913  11.405
52967W        W16735  24.677  35.913  12.841
52968W        W16736  32.433   2.804   1.801
52969W        W16737  24.590  42.281  13.934
52970W        W16738  44.929  25.134   5.286
52971W        W16739  17.716  40.518  14.767
52972W        W16740  15.796  38.505   4.219
52973W        W16741  43.806   4.344   0.879
52974W        W16742  16.786   6.198   2.237
52975W        W16743  31.618  13.662  10.419
52976W        W16744   6.190  19.680   1.910
52977W        W16745  26.038  16.685   1.882
52978W        W16746  13.796   8.824  14.913
52979W        W16747  23.056   6.230   2.380
52980W        W16748  26.655   4.883   4.799
52981W        W16749  14.624  22.546   3.382
52982W        W16750  13.801  40.911   4.275
52983W        W16751  11.339   0.942   1.315
52984W        W16752  16.077  20.637   2.822
52985W        W16753  20.221  30.434   2.254
52986W        W16754  29.553  41.431  12.940
52987W        W16755   9.383  31.955  11.023
52988W        W16756   9.669  13.209  14.316
52989W        W16757  28.497   2.437  12.496
52990W        W16758  11.232  31.464  11.936
52991W        W16759  42.496  35.014   0.961
52992W        W16760  30.116  42.938  12.083
52993W        W16761  25.206  18.578   3.173
52994W        W16762  19.258   1.238  14.985
52995W        W16763  38.876  27.096  10.465
52996W        W16764   1.256  15.107   1.775
52997W        W16765  17.205  17.233   0.336
52998W        W16766   9.833  17.654   4.199
52999W        W16767  16.579  14.672  14.372
53000W        W16768  41.899  28.036  12.479
53001W        W16769   2.784   2.396  11.501
53002W        W16770   1.427  44.786  14.429
53003W        W16771  14.737   0.901   0.260
53004W        W16772  30.037  38.849   4.701
53005W        W16773  33.568   6.835   0.413
53006W        W16774   4.751  14.739  11.502
53007W        W16775  26.990  40.486  11.438
53008W        W16776  29.992   6.368   0.796
53009W        W16777  42.944  23.509   4.720
53010W        W16778  39.857  20.573   1.368
53011W        W16779  43.949   5.263   0.866
53012W        W16780  43.282   7.194   4.839
53013W        W16781  18.738  22.572   9.934
53014W        W16782  25.528   7.305  10.541
53015W        W16783  33.891  38.076  13.850
53016W        W16784   2.386  36.846   2.795
53017W        W16785   1.788  10.210   1.212
53018W        W16786  29.577  19.065   2.816
53019W        W16787   7.210  43.823  12.889
53020W        W16788  17.123  20.111   4.207
53021W        W16789  33.492  15.212   2.767
53022W        W16790  21.071  44.393   4.135
53023W        W16791  26.508  41.883   1.259
53024W        W16792  20.244   0.295  14.898
53025W        W16793   6.318  29.455  12.867
53026W        W16794  25.656   7.710   2.235
53027W        W16795   9.218  12.352  12.976
53028W        W16796  33.018  21.183  11.088
53029W        W16797  19.601  12.723   1.374
53030W        W16798  41.030  15.632   3.243
53031W        W16799  41.986  15.098   3.807
53032W        W16800   4.435  25.127  12.004
53033W        W16801  41.980  26.989  14.433
53034W        W16802   0.976  41.916   0.405
53035W        W16803   7.334  18.210   4.352
53036W        W16804  33.981  12.724  12.546
53037W        W16805  19.235  36.403   5.306
53038W        W16806  30.955  35.930  10.991
53039W        W16807   4.702   7.889   1.254
53040W        W16808  26.996  44.504  10.075
53041W        W16809  30.996  22.105   2.188
53042W        W16810   9.313  43.991   2.317
53043W        W16811  32.971  13.218  10.575
53044W        W16812   4.362  21.221   1.743
53045W        W16813  42.795  17.679  10.437
53046W        W16814   5.382  11.256   1.781
53047W        W16815  32.892  25.703  12.503
53048W        W16816  37.866  35.420  11.538
53049W        W16817  16.574  36.955   3.282
53050W        W16818  23.675  41.463  11.037
53051W        W16819  33.878   3.245   4.305
53052W        W16820   7.871  21.171  10.600
53053W        W16821   5.928   5.779  10.579
53054W        W16822  29.612   4.805   1.903
53055W        W16823   8.777   9.676   3.839
53056W        W16824  19.631  40.361   4.752
53057W        W16825  19.268  15.684  13.534
53058W        W16826   8.359  28.152  14.929
53059W        W16827  29.030  15.107  10.510
53060W        W16828  41.318  17.101  11.891
53061W        W16829   8.219  41.012  13.472
53062W        W16830  26.662  15.608  11.595
53063W        W16831   9.866  33.479   3.278
53064W        W16832  22.697  23.665   4.330
53065W        W16833   6.282   8.822  11.433
53066W        W16834  27.596  29.636   1.393
53067W        W16835  37.415   0.785  12.434
53068W        W16836  44.844  26.125   2.269
53069W        W16837  21.544   4.391   0.314
53070W        W16838  11.150  42.388  11.508
53071W        W16839   8.683   9.324   0.320
53072W        W16840   0.329  33.080  14.776
53073W        W16841  32.628  35.000  10.559
53074W        W16842  14.616   0.817   3.295
53075W        W16843  21.664  24.510  14.325
53076W        W16844   6.246   9.207   0.413
53077W        W16845  31.567   0.302   3.328
53078W        W16846  30.432  17.239   2.181
53079W        W16847  39.442   0.759  11.424
53080W        W16848  22.635  33.124  13.309
53081W        W16849  16.085  41.942   3.179
53082W        W16850  43.500  31.960   4.260
53083W        W16851  35.562  16.764  13.012
53084W        W16852  41.936  37.544  13.469
53085W        W16853  26.070  20.763  12.842
53086W        W16854  16.638   0.939   2.325
53087W        W16855  30.609  36.554   0.276
53088W        W16856   1.302  40.344   2.896
53089W        W16857  30.107  21.650   2.366
53090W        W16858  25.475  16.729   3.321
53091W        W16859   4.303  35.852  11.505
53092W        W16860  12.763  41.410  12.354
53093W        W16861  13.602  41.026   1.906
53094W        W16862   0.421  24.146   0.379
53095W        W16863  20.666  27.447  11.442
53096W        W16864  25.658  28.541  14.029
53097W        W16865  28.086  41.356  13.889
53098W        W16866  15.139  25.478   0.771
53099W        W16867  22.996  40.933   3.858
53100W        W16868  22.552  17.307  14.474
53101W        W16869  21.040  21.688  10.484
53102W        W16870  41.837   9.333  12.381
53103W        W16871   9.644  13.133   3.682
53104W        W16872  32.921  39.399  10.411
53105W        W16873  23.110   0.420   3.244
53106W        W16874  11.843  23.533   0.464
53107W        W16875  39.463  41.372   3.651
53108W        W16876  43.885  12.291  14.841
53109W        W16877  44.385  32.111   4.316
53110W        W16878  33.991  40.822   4.702
53111W        W16879  13.191  19.567   4.325
53112W        W16880  44.866   7.686   2.258
53113W        W16881  32.487   9.656   4.196
53114W        W16882  11.146  14.752   0.434
53115W        W16883  19.660  12.340   4.198
53116W        W16884  24.682   8.185   3.303
53117W        W16885  22.015  19.171   0.917
53118W        W16886  35.864  35.422  14.796
53119W        W16887  16.126   4.937  11.990
53120W        W16888  17.558  10.162  14.375
53121W        W16889   5.351   1.348  10.641
53122W        W16890  10.752  25.677   2.261
53123W        W16891  30.081  28.953  10.617
53124W        W16892   5.919   0.269   4.658
53125W        W16893   8.764  22.059   0.801
53126W        W16894  24.146  36.593   3.172
53127W        W16895  40.039  22.109   1.222
53128W        W16896   1.447  31.626  13.871
53129W        W16897  42.993  32.520   3.375
53130W        W16898  26.205  19.166   0.762
53131W        W16899  33.959  30.488   1.235
53132W        W16900  11.352   7.881   4.747
53133W        W16901  43.493   1.938   3.272
53134W        W16902  37.073  30.039   5.625
53135W        W16903  20.589  31.038   3.636
53136W        W16904  21.076  40.355   1.269
53137W        W16905  43.480  10.260  10.931
53138W        W16906  42.430  24.659  12.545
53139W        W16907  21.260  27.168   1.895
53140W        W16908   2.247  18.732   1.351
53141W        W16909  33.111  21.552  13.011
53142W        W16910  40.797  22.686   1.220
53143W        W16911  32.610  42.402  13.830
53144W        W16912  11.202  37.398  13.019
53145W        W16913   3.332   1.432   0.337
53146W        W16914  40.335  21.232   1.865
53147W        W16915   6.230   9.204  11.971
53148W        W16916   4.228  12.242   2.387
53149W        W16917  44.895  14.785  14.932
53150W        W16918  20.223   4.729   2.200
53151W        W16919   8.391  19.738  10.579
53152W        W16920  14.832  39.885  14.354
53153W        W16921  26.988  42.890   9.972
53154W        W16922  10.701  20.095   1.793
53155W        W16923  40.004  40.918  12.381
53156W        W16924  26.574  21.201   9.972
53157W        W16925   3.897  36.409  10.954
53158W        W16926   5.275  10.777   4.296
53159W        W16927  44.933   5.734  14.489
53160W        W16928  11.170  35.054   2.395
53161W        W16929  29.536  25.508  12.926
53162W        W16930  27.974  15.093  14.864
53163W        W16931   6.736  30.459   0.821
53164W        W16932   9.191  23.075  11.090
53165W        W16933  12.621  35.993  12.378
53166W        W16934  36.540  17.105   2.801
53167W        W16935   7.728  33.051  14.391
53168W        W16936   4.830  28.981  14.479
53169W        W16937  34.958   7.676  13.472
53170W        W16938  31.136  27.078  13.848
53171W        W16939  30.073   8.329   1.297
53172W        W16940  40.539  34.453  14.410
53173W        W16941  40.326  38.051  14.896
53174W        W16942  40.464   1.251  10.999
53175W        W16943  18.722  11.210  10.502
53176W        W16944   3.955   6.733   2.857
53177W        W16945  36.507  36.025  11.054
53178W        W16946  44.754  28.461   0.281
53179W        W16947  33.950  25.535  12.464
53180W        W16948  38.875  42.862   0.945
53181W        W16949  20.198  39.892   2.287
53182W        W16950  39.005  40.448  14.924
53183W        W16951   5.417   2.768  14.354
53184W        W16952   4.791  22.694  11.507
53185W        W16953  12.661  29.112  11.881
53186W        W16954  24.591  36.920  14.805
53187W        W16955  28.094  35.457   4.273
53188W        W16956   8.787  27.636   1.251
53189W        W16957  33.611  30.104  10.476
53190W        W16958  39.991  44.398   1.817
53191W        W16959  39.874  20.038   3.766
53192W        W16960  26.628  22.716  14.014
53193W        W16961   9.679  35.856   0.901
53194W        W16962  31.578  38.505  11.086
53195W        W16963  44.857  21.150  12.371
53196W        W16964  10.241   4.758   0.422
53197W        W16965  41.463  16.568   1.451
53198W        W16966  23.142  39.909  14.893
53199W        W16967  27.611  22.627  10.427
53200W        W16968  16.575  27.593  11.442
53201W        W16969  32.913  33.897  14.838
53202W        W16970  39.059  31.004   4.729
53203W        W16971  30.031   6.900   2.697
53204W        W16972  29.449   7.775  13.364
53205W        W16973  44.797   2.396   2.318
53206W        W16974  27.172  22.698  12.414
53207W        W16975  36.848  21.521   3.192
53208W        W16976   5.768   1.286  11.513
53209W        W16977  27.078  41.514  14.760
53210W        W16978  35.517  40.872  12.478
53211W        W16979   8.699  21.706   0.419
53212W        W16980  19.111  27.987   3.251
53213W        W16981   6.338   0.414   3.197
53214W        W16982   5.418  38.849  13.839
53215W        W16983  40.810  37.072   4.694
53216W        W16984   7.866  28.038   1.773
53217W        W16985  21.665  15.743   3.237
53218W        W16986  17.153   8.716   4.315
53219W        W16987  35.001  39.492   1.867
53220W        W16988  37.985  22.009   4.611
53221W        W16989  18.128  23.676  13.446
53222W        W16990  29.426  29.086  14.348
53223W        W16991   5.771  21.081  11.942
53224W        W16992   0.260   1.305   1.241
53225W        W16993   5.386  19.616  13.912
53226W        W16994   2.283  20.699   4.304
53227W        W16995  34.954  12.763  13.503
53228W        W16996  29.984  41.445  12.363
53229W        W16997  19.177  44.809   3.678
53230W        W16998  14.112  35.055   3.199
53231W        W16999  24.714  17.138  13.496
53232W        W17000  31.489  43.424  14.436
53233W        W17001  22.067   4.246  13.897
53234W        W17002  40.944  38.995  13.017
53235W        W17003  32.500  24.509   0.345
53236W        W17004  37.027  21.124   4.718
53237W        W17005  18.111  37.439  13.870
53238W        W17006  14.114  25.050   3.839
53239W        W17007   4.302  16.149  12.437
53240W        W17008   3.819  26.018   1.805
53241W        W17009   6.324   8.856  10.631
53242W        W17010  41.856  16.207  10.904
53243W        W17011   7.254  42.816   3.750
53244W        W17012   7.759  22.636  10.533
53245W        W17013  30.427  37.498   3.315
53246W        W17014  40.377  34.002  11.081
53247W        W17015  25.012  38.461  12.082
53248W        W17016  10.864  22.182   3.865
53249W        W17017   1.302  24.098  12.840
53250W        W17018  37.833   7.816   1.902
53251W        W17019   6.825  42.823   2.692
53252W        W17020  42.502  19.642  13.317
53253W        W17021  43.780  38.450  11.907
53254W        W17022  12.133  37.493   3.313
53255W        W17023  14.165  24.218  14.370
53256W        W17024   5.383  39.550  13.317
53257W        W17025   0.983   8.787  14.859
53258W        W17026   8.287   0.372   3.250
53259W        W17027  12.730  36.435   3.795
53260W        W17028   3.216  22.136  12.930
53261W        W17029  36.426  28.164  10.051
53262W        W17030  28.990  31.580   1.711
53263W        W17031  26.959  41.497  10.645
53264W        W17032  34.452  42.944  11.407
53265W        W17033  17.090  32.442  12.384
53266W        W17034  37.537   1.301  11.127
53267W        W17035  16.130  21.195   3.766
53268W        W17036  18.700  36.370  10.547
53269W        W17037  19.165  24.006   9.588
53270W        W17038  27.513  30.084  11.459
53271W        W17039  35.990  18.244   4.686
53272W        W17040  17.802  43.800  14.403
53273W        W17041  10.723   0.977  14.322
53274W        W17042  35.076   8.278   4.207
53275W        W17043  44.816  40.357   2.275
53276W        W17044  11.627   9.777  10.469
53277W        W17045  39.866  39.518  14.460
53278W        W17046  11.290  23.730   4.170
53279W        W17047   0.933  33.062   1.365
53280W        W17048  23.147  16.800   2.681
53281W        W17049  13.709  24.189   0.424
53282W        W17050  25.645  19.181  11.079
53283W        W17051  33.053  26.503  14.897
53284W        W17052  10.256  33.109  10.123
53285W        W17053  13.312  18.185   1.771
53286W        W17054  10.637  30.565   1.771
53287W        W17055  28.507  14.204  12.958
53288W        W17056  17.115   1.891   1.769
53289W        W17057  24.205  36.963   5.274
53290W        W17058   7.391  30.039  14.365
53291W        W17059  23.620  16.145   2.364
53292W        W17060  13.202  41.821  13.894
53293W        W17061   6.369  40.848   3.348
53294W        W17062  30.491   4.404  14.453
53295W        W17063   9.798  44.009  12.462
53296W        W17064  18.149  11.150  13.937
53297W        W17065  24.184  23.689   3.152
53298W        W17066   2.855  42.448  14.793
53299W        W17067  11.329  23.997  13.321
53300W        W17068  25.668  38.362  11.038
53301W        W17069  16.152  42.995   4.217
53302W        W17070  16.241  32.075  14.966
53303W        W17071   9.758   0.250  14.303
53304W        W17072  25.169   8.869  12.918
53305W        W17073  26.102  11.743   3.685
53306W        W17074   7.271  12.755  11.050
53307W        W17075  13.731  17.608   1.389
53308W        W17076   8.179  14.215  13.940
53309W        W17077   1.357  30.624  11.925
53310W        W17078  37.986  38.027   3.318
53311W        W17079  21.588  43.316   0.266
53312W        W17080   1.767  43.304   3.800
53313W        W17081  26.184   9.781   3.705
53314W        W17082  32.984   8.763  10.455
53315W        W17083   2.268  42.835   1.743
53316W        W17084  38.397  34.520  11.552
53317W        W17085  13.662  11.340   2.238
53318W        W17086  17.722   2.797  12.893
53319W        W17087  14.145   7.821   3.738
53320W        W17088  29.941  16.678   1.291
53321W        W17089  42.290  38.444   1.332
53322W        W17090   8.373   5.854   3.299
53323W        W17091  18.752  10.851  11.556
53324W        W17092  16.594  25.534   5.212
53325W        W17093  20.697  40.038  11.498
53326W        W17094  37.056  14.800   1.249
53327W        W17095  24.116  44.968  14.435
53328W        W17096  14.327  27.186  13.862
53329W        W17097  26.644   8.306  14.966
53330W        W17098  15.600  41.441  14.470
53331W        W17099  31.463  25.142   4.165
53332W        W17100  30.433  40.386   4.305
53333W        W17101  39.039  30.140   4.275
53334W        W17102  29.142  34.597   4.756
53335W        W17103   3.306   7.198   2.342
53336W        W17104  37.550  17.191   4.148
53337W        W17105  17.633  27.608   1.728
53338W        W17106  40.804   4.912  13.906
53339W        W17107  14.652  14.233  13.520
53340W        W17108  43.949  15.092   0.850
53341W        W17109  37.506  18.254  11.934
53342W        W17110  30.624  44.380  10.470
53343W        W17111   7.405  37.944  12.528
53344W        W17112  30.449  20.525  13.889
53345W        W17113  17.556   6.867  10.574
53346W        W17114   4.423  12.279  13.819
53347W        W17115  10.757  36.348   4.660
53348W        W17116  15.284   6.406   4.246
53349W        W17117  38.894  43.476   3.707
53350W        W17118   0.413   3.762   4.333
53351W        W17119  43.800  43.331  11.463
53352W        W17120  19.734   9.391  12.015
53353W        W17121  20.721  35.085   4.123
53354W        W17122  29.932  15.594   3.387
53355W        W17123  37.909  41.468  13.313
53356W        W17124  37.459  21.754   0.746
53357W        W17125   1.423  15.086  11.048
53358W        W17126  32.577   7.780  12.893
53359W        W17127  36.083  22.569  11.105
53360W        W17128  29.989  25.175   0.253
53361W        W17129  37.423   6.690  14.944
53362W        W17130   1.307  34.446   2.419
53363W        W17131  44.990  24.082  12.914
53364W        W17132  17.200  27.631  12.920
53365W        W17133  35.384  24.564   1.704
53366W        W17134  17.228  19.679  11.999
53367W        W17135  20.169  19.548  14.935
53368W        W17136  19.662  42.379   3.841
53369W        W17137   4.913  28.177  12.357
53370W        W17138  12.660  35.438  11.076
53371W        W17139  44.785  12.674   1.394
53372W        W17140  31.078   3.244   3.368
53373W        W17141  28.154  17.714   1.298
53374W        W17142  41.485   7.758  14.983
53375W        W17143   6.871  11.842  12.860
53376W        W17144  43.974  26.556  13.039
53377W        W17145  10.796  27.064   2.258
53378W        W17146  44.426   0.781   3.158
53379W        W17147   7.767  19.617  14.326
53380W        W17148  35.969  43.907   2.902
53381W        W17149  21.080  10.666   1.842
53382W        W17150  38.377  23.713   0.366
53383W        W17151   6.233   0.939   2.227
53384W        W17152  28.655  11.706  13.859
53385W        W17153  14.596   3.933  12.850
53386W        W17154  23.551  34.562   2.358
53387W        W17155  44.404  11.350  12.081
53388W        W17156  34.398   6.241  14.882
53389W        W17157  25.627   5.803   3.702
53390W        W17158  31.610   0.414  12.476
53391W        W17159  32.551   9.288   0.965
53392W        W17160   8.775   9.222   3.792
53393W        W17161  41.965  31.480  14.433
53394W        W17162  14.139  34.947   0.764
53395W        W17163  42.491   5.737  12.908
53396W        W17164  27.045  32.141  13.875
53397W        W17165  30.564  31.082   4.773
53398W        W17166  35.409   8.719  11.447
53399W        W17167  19.573   7.277   1.313
53400W        W17168  16.253   9.163   4.348
53401W        W17169  35.530   6.345  13.546
53402W        W17170  37.057   6.408   2.792
53403W        W17171  26.584  34.917   0.456
53404W        W17172   7.406   5.866   1.838
53405W        W17173  31.133   7.274  10.501
53406W        W17174   2.742  10.799   0.307
53407W        W17175  41.321  43.857  13.821
53408W        W17176  29.079  18.109   2.870
53409W        W17177  18.671   7.876   3.803
53410W        W17178  31.059  31.934  10.518
53411W        W17179  18.057  14.787  10.637
53412W        W17180  37.904   3.459   0.293
53413W        W17181  20.557   0.358   0.810
53414W        W17182   7.741  37.496  14.429
53415W        W17183  16.244  14.094  11.111
53416W        W17184  35.956  22.686  10.407
53417W        W17185   5.840  25.609   1.334
53418W        W17186  21.219  11.231   1.216
53419W        W17187  41.899  30.584   4.188
53420W        W17188  32.617  31.497   4.764
53421W        W17189  35.446   0.469   0.349
53422W        W17190  17.124   6.820   3.303
53423W        W17191  40.317  31.999  12.948
53424W        W17192  28.047   5.705   2.305
53425W        W17193  20.668   2.872  12.070
53426W        W17194  33.013  28.553  12.465
53427W        W17195  26.580   5.281   5.145
53428W        W17196  34.007   7.896   3.309
53429W        W17197  13.138  18.117   3.799
53430W        W17198  20.590  35.982  12.047
53431W        W17199  18.290   6.370  13.994
53432W        W17200  18.606  28.152   3.775
53433W        W17201  13.642  12.623  13.915
53434W        W17202   1.442  44.262  14.455
53435W        W17203  13.180   9.254  13.312
53436W        W17204  20.731  32.955   2.889
53437W        W17205  37.881   3.722  12.088
53438W        W17206  11.220  13.289   2.835
53439W        W17207  11.731  36.089   3.668
53440W        W17208  37.074  21.150   1.216
53441W        W17209  36.552  33.566  12.419
53442W        W17210  12.187  26.662   2.868
53443W        W17211   5.231  43.445   4.696
53444W        W17212  11.690   7.682   4.783
53445W        W17213  26.703  24.226  13.045
53446W        W17214  37.913  13.299  10.407
53447W        W17215  14.245   6.264   3.784
53448W        W17216  29.598  22.223   2.669
53449W        W17217  16.203  34.372   1.815
53450W        W17218   8.174  23.675  13.874
53451W        W17219  29.589  38.509   1.798
53452W        W17220  12.824   4.765   1.410
53453W        W17221  31.637  13.643   4.658
53454W        W17222  28.103   3.778   3.660
53455W        W17223  28.056  22.100  13.332
53456W        W17224  34.945  36.586   3.745
53457W        W17225  31.414  14.195  10.463
53458W        W17226  36.426  40.974  12.834
53459W        W17227  38.868  13.297  11.990
53460W        W17228  22.559  17.303   1.250
53461W        W17229  18.174   1.889  11.489
53462W        W17230   2.830  43.887   2.200
53463W        W17231  14.325   4.860   0.343
53464W        W17232   5.395   3.935  10.569
53465W        W17233   8.352  23.213   1.847
53466W        W17234  33.922  33.877   1.368
53467W        W17235  36.480   6.879  13.891
53468W        W17236  28.511   7.276  13.354
53469W        W17237  41.370  34.877  14.822
53470W        W17238  27.020   5.783   2.873
53471W        W17239  33.976   5.739  13.424
53472W        W17240   6.361  10.155  14.987
53473W        W17241  42.339   3.371   1.216
53474W        W17242   7.348  25.593  11.583
53475W        W17243   1.324  29.627   2.330
53476W        W17244  44.830   6.261  13.952
53477W        W17245  23.166   2.844  11.898
53478W        W17246  28.565  30.478   3.154
53479W        W17247   7.399  32.523   2.196
53480W        W17248  13.627  21.126  10.475
53481W        W17249  33.982  43.371   3.203
53482W        W17250  25.218   5.738   4.135
53483W        W17251  42.841  30.585  14.844
53484W        W17252  34.570  41.804  12.945
53485W        W17253  35.415  28.582  13.941
53486W        W17254   4.894   6.886   1.780
53487W        W17255  32.468  15.639  14.873
53488W        W17256  25.012  12.173  13.377
53489W        W17257   3.728  41.512   0.839
53490W        W17258  40.893  41.367  14.495
53491W        W17259  37.356  33.600   2.747
53492W        W17260  21.579   1.740  10.975
53493W        W17261   6.329  33.500   3.366
53494W        W17262  13.714  17.200  14.340
53495W        W17263   4.315   8.321   0.810
53496W        W17264  42.391   9.385   3.171
53497W        W17265  26.085  21.594  11.038
53498W        W17266  40.829   0.742  11.513
53499W        W17267  10.282  33.470   0.935
53500W        W17268  30.117  22.010   2.755
53501W        W17269   1.377  33.013   9.581
53502W        W17270   2.863  33.530   1.362
53503W        W17271  33.980  12.688  12.945
53504W        W17272  19.673  39.412   1.434
53505W        W17273  44.273  37.466  10.607
53506W        W17274   9.811  17.131   1.402
53507W        W17275  25.048  42.439   1.301
53508W        W17276  12.740  11.743  11.916
53509W        W17277   4.752   2.786  13.439
53510W        W17278  39.557   7.821  14.292
53511W        W17279  16.218   1.818   2.375
53512W        W17280  23.195  33.437  14.347
53513W        W17281  38.955  35.966   3.253
53514W        W17282  31.577  34.413  12.035
53515W        W17283   8.295  21.182  13.810
53516W        W17284  34.006  32.635   0.303
53517W        W17285  10.650  37.370  14.277
53518W        W17286  43.940   7.289  11.084
53519W        W17287  32.900  29.581   2.326
53520W        W17288  42.003   5.250   3.244
53521W        W17289  15.278  14.634  14.858
53522W        W17290   2.386  22.574  13.430
53523W        W17291  42.415   9.296  10.587
53524W        W17292  33.021   0.962  10.627
53525W        W17293  23.555  44.775  14.817
53526W        W17294   5.932  33.557   3.186
53527W        W17295   3.438  31.958  14.465
53528W        W17296  13.236   6.801   2.705
53529W        W17297  40.982  14.782   4.164
53530W        W17298  12.660  22.108   3.752
53531W        W17299  32.468  22.660  10.889
53532W        W17300  33.907   8.259  10.599
53533W        W17301  34.103  18.119  12.032
53534W        W17302   9.717  38.546  12.481
53535W        W17303  42.803  11.342  10.988
53536W        W17304  24.050  30.462  13.446
53537W        W17305  41.979  28.464  12.548
53538W        W17306  41.418  19.057  14.342
53539W        W17307  16.312   1.374  13.885
53540W        W17308  27.010  21.243   1.410
53541W        W17309  43.395  44.837  11.420
53542W        W17310  22.568  34.942  12.984
53543W        W17311  23.613  41.389   0.840
53544W        W17312  26.041  14.771   9.457
53545W        W17313   3.276  23.547  10.442
53546W        W17314  17.593   1.862  10.974
53547W        W17315   2.795  36.373  11.001
53548W        W17316  16.675  21.141   9.528
53549W        W17317  37.553  26.640   4.601
53550W        W17318  43.319   7.297  12.542
53551W        W17319   1.875   4.869   2.360
53552W        W17320  38.446  44.863   1.934
53553W        W17321  21.547  25.702  11.884
53554W        W17322  11.850  12.660   1.225
53555W        W17323   3.271  42.369   3.788
53556W        W17324   2.379  36.995  10.459
53557W        W17325   0.320  14.730   4.169
53558W        W17326  14.701  26.566  12.462
53559W        W17327  11.662  12.643  14.920
53560W        W17328  32.409  18.199   3.311
53561W        W17329  38.519   3.394   0.780
53562W        W17330   2.376  37.541   4.285
53563W        W17331  16.175  30.935  13.497
53564W        W17332   2.843  31.905  14.013
53565W        W17333  35.976  21.654  11.002
53566W        W17334  33.457  42.356   4.607
53567W        W17335  32.481  28.669   4.294
53568W        W17336  31.143   3.830   4.119
53569W        W17337  24.515  14.810   0.406
53570W        W17338  25.153   2.831   2.283
53571W        W17339  34.460  24.554  12.939
53572W        W17340  24.982  14.589  14.285
53573W        W17341  35.933   1.914   0.332
53574W        W17342  36.565   9.880  13.469
53575W        W17343   1.828   2.255  13.987
53576W        W17344  26.186  35.965   9.456
53577W        W17345  29.539   6.759   0.947
53578W        W17346  37.046  12.856  13.918
53579W        W17347  13.763  10.794   4.168
53580W        W17348  20.740  42.975   4.114
53581W        W17349  20.205  33.880   1.259
53582W        W17350  34.068  14.314  13.032
53583W        W17351  41.969  38.498  11.110
53584W        W17352  41.871  19.567   2.873
53585W        W17353  19.693  20.606   0.956
53586W        W17354  40.322   6.185   1.933
53587W        W17355   0.362  43.899  10.506
53588W        W17356  38.964  14.750  13.444
53589W        W17357  42.848  30.988   2.817
53590W        W17358  28.673   7.878   3.305
53591W        W17359  14.332  26.972   4.640
53592W        W17360  13.272  17.757  12.409
53593W        W17361   1.273  39.443  12.444
53594W        W17362  19.231  19.215  13.414
53595W        W17363  21.691  30.119  12.351
53596W        W17364   2.339  29.044   3.251
53597W        W17365  27.117   4.425   4.214
53598W        W17366  25.683  43.356  11.996
53599W        W17367   4.906   3.334  10.457
53600W        W17368  32.064   2.232  14.414
53601W        W17369  11.143  29.533  12.971
53602W        W17370  20.101  14.128  10.062
53603W        W17371  23.154   7.386   2.716
53604W        W17372  25.065  19.774   3.184
53605W        W17373   5.894  15.312   0.768
53606W        W17374  25.005   3.833  13.947
53607W        W17375  44.272   4.874  14.850
53608W        W17376  14.599  41.985   3.338
53609W        W17377  42.469  26.631  10.998
53610W        W17378  21.649  43.292   1.377
53611W        W17379  35.590  22.198   4.271
53612W        W17380  11.694  15.692   1.707
53613W        W17381  44.823   6.778  11.938
53614W        W17382  17.785  41.316   0.304
53615W        W17383   3.934  36.945  11.881
53616W        W17384  19.610   4.351  11.986
53617W        W17385   5.887  20.258   3.816
53618W        W17386  27.563   3.446  11.874
53619W        W17387  25.672  44.904   0.867
53620W        W17388  11.665  30.922  12.465
53621W        W17389  38.336  17.774   4.174
53622W        W17390  31.410  15.819   1.300
53623W        W17391   0.851  40.915   1.921
53624W        W17392  37.512  42.974   4.329
53625W        W17393  37.003   2.729   1.405
53626W        W17394   5.297   3.856   1.742
53627W        W17395  11.754  23.630  12.405
53628W        W17396  12.692  14.238  12.843
53629W        W17397  17.681  31.402  14.493
53630W        W17398  33.522  26.986  12.387
53631W        W17399  40.050  36.553  10.636
53632W        W17400  15.690   7.337   4.132
53633W        W17401  37.054  16.183   2.358
53634W        W17402  42.813  34.501  10.031
53635W        W17403  22.591  25.130  14.805
53636W        W17404  26.646  29.944   5.200
53637W        W17405  11.628  27.194   3.354
53638W        W17406   7.673   5.312   3.171
53639W        W17407  28.001  41.331   2.405
53640W        W17408  34.405  44.272  12.964
53641W        W17409  34.369  28.566   1.311
53642W        W17410  18.676   8.173  14.400
53643W        W17411  22.560   4.344  14.896
53644W        W17412  39.820  31.979  13.057
53645W        W17413  40.881  37.480   3.659
53646W        W17414  19.631  11.859   3.820
53647W        W17415   1.263  15.168   4.281
53648W        W17416  10.302   1.754  12.829
53649W        W17417  29.172   3.879   2.398
53650W        W17418  19.690  15.815   4.783
53651W        W17419  25.208  22.150   2.736
53652W        W17420  26.207  28.099   0.395
53653W        W17421  30.512  41.339  12.340
53654W        W17422   7.678  44.349  12.472
53655W        W17423  36.024  27.016   2.687
53656W        W17424  43.782  16.619  14.850
53657W        W17425  32.436  34.528   3.301
53658W        W17426  33.090  21.086  14.299
53659W        W17427  26.053   8.857  14.295
53660W        W17428   7.337  24.223   0.873
53661W        W17429  28.962   7.740  10.619
53662W        W17430  31.421  15.302   0.780
53663W        W17431  37.419  44.768   1.820
53664W        W17432   7.259  44.295  12.861
53665W        W17433  16.667  33.919  11.996
53666W        W17434  36.566  40.334   1.233
53667W        W17435  33.407   1.469   4.793
53668W        W17436   4.865  16.124  11.915
53669W        W17437  17.760  43.957   1.308
53670W        W17438  28.998   0.405  14.462
53671W        W17439  36.951  27.131  12.544
53672W        W17440  42.858  24.152   5.192
53673W        W17441   5.219  35.934  13.903
53674W        W17442  33.129  29.026   2.803
53675W        W17443  38.531  15.696   3.634
53676W        W17444   1.945  13.129   2.187
53677W        W17445   8.320  22.195  14.824
53678W        W17446  18.603  30.003  10.416
53679W        W17447   0.278   2.835   0.348
53680W        W17448  36.361   1.812   2.684
53681W        W17449  37.881  12.281   3.200
53682W        W17450  21.261  28.103   4.819
53683W        W17451  38.487  15.585  11.899
53684W        W17452  29.001  10.226   4.615
53685W        W17453  15.615  11.335   3.670
53686W        W17454  38.044  33.415  14.970
53687W        W17455  27.582  17.122  12.396
53688W        W17456  34.478  21.718   0.877
53689W        W17457  34.550  25.162  12.095
53690W        W17458  41.939  31.932  13.962
53691W        W17459   1.782  29.448   1.370
53692W        W17460  27.020  44.895   0.876
53693W        W17461  39.459  25.962  14.901
53694W        W17462  22.679  20.567  14.417
53695W        W17463  11.742   1.968   2.298
53696W        W17464  30.556  37.538   1.262
53697W        W17465  16.236  35.426   2.321
53698W        W17466   3.369  40.430  12.868
53699W        W17467  35.457  31.032   2.862
53700W        W17468  11.821  26.132  12.461
53701W        W17469   5.400  27.641   3.753
53702W        W17470   3.738  38.070   2.311
53703W        W17471  25.640  32.987   2.278
53704W        W17472  44.889  44.401   2.270
53705W        W17473  37.484  24.721  10.984
53706W        W17474  11.191  30.461   2.320
53707W        W17475  26.974   0.254   4.148
53708W        W17476  18.109  43.511  13.865
53709W        W17477  28.037  20.717  10.454
53710W        W17478  31.418  26.506  10.545
53711W        W17479  18.154  44.921  14.457
53712W        W17480  37.401  33.915   4.622
53713W        W17481  40.919  43.483  11.871
53714W        W17482  25.621  21.153   1.322
53715W        W17483  41.994  11.191  12.508
53716W        W17484  43.879  44.272  11.984
53717W        W17485  16.088  11.307   2.878
53718W        W17486  33.391   0.415  10.499
53719W        W17487  37.944  20.178   0.399
53720W        W17488   3.264  22.621   1.440
53721W        W17489  37.477  19.637   0.891
53722W        W17490  41.323   8.342  14.420
53723W        W17491  24.482   4.836   1.278
53724W        W17492  39.065  30.044   1.288
53725W        W17493  25.489   8.240   2.724
53726W        W17494   7.759  30.448   4.784
53727W        W17495  13.706   5.297  13.978
53728W        W17496  40.843  29.102   3.346
53729W        W17497  24.026  44.765   2.381
53730W        W17498   4.448   2.327   3.735
53731W        W17499  36.485  39.556  11.589
53732W        W17500   9.203  40.352   0.350
53733W        W17501  11.697   6.313   3.833
53734W        W17502  16.316  26.606  14.301
53735W        W17503  27.497   1.439   0.870
53736W        W17504  26.104  41.970  11.869
53737W        W17505   6.874  21.727   3.177
53738W        W17506  17.780  42.285  13.847
53739W        W17507  20.580  28.587  14.935
53740W        W17508  26.173  29.619   1.705
53741W        W17509  13.769   1.437  13.994
53742W        W17510  36.573   8.252  14.420
53743W        W17511  27.170  13.753  14.995
53744W        W17512  41.458   5.251   3.748
53745W        W17513  33.876  32.085   2.798
53746W        W17514  26.959  18.661  10.620
53747W        W17515  27.518  16.312   3.744
53748W        W17516  30.583   7.722  10.406
53749W        W17517   2.262  20.075  11.050
53750W        W17518  42.524  19.623   0.386
53751W        W17519  33.057  22.049  11.026
53752W        W17520  20.625  23.215  12.885
53753W        W17521  35.470  18.589  11.434
53754W        W17522  15.292  10.847  12.353
53755W        W17523  41.400  27.086  14.777
53756W        W17524  43.378  22.679  10.102
53757W        W17525  16.222  25.169   2.707
53758W        W17526  17.293  38.394  11.424
53759W        W17527  38.560  32.917   3.348
53760W        W17528  42.784  10.228   1.804
53761W        W17529  10.201  39.060   5.146
53762W        W17530  18.573   9.865   0.456
53763W        W17531   0.792  37.834   3.211
53764W        W17532  14.290  14.803   4.191
53765W        W17533   6.349  20.239   3.263
53766W        W17534  22.532  11.270   3.703
53767W        W17535   1.795  12.255   3.228
53768W        W17536   1.765  24.055  11.612
53769W        W17537   8.380  41.408  11.951
53770W        W17538  23.622  23.596  14.028
53771W        W17539  43.899  23.709  13.931
53772W        W17540   8.759  42.923  11.512
53773W        W17541  17.608  14.762  12.448
53774W        W17542  43.280   0.485  11.412
53775W        W17543   1.450  33.108  12.075
53776W        W17544  35.011  10.694  11.017
53777W        W17545  14.617   3.363  11.021
53778W        W17546  12.652  11.731  14.025
53779W        W17547  20.645  16.810   2.684
53780W        W17548  44.259  43.316   2.896
53781W        W17549  24.567  25.996   2.354
53782W        W17550  40.972  42.477  11.473
53783W        W17551  32.506  32.062  11.012
53784W        W17552  22.613  32.514   3.327
53785W        W17553  17.202  16.298   9.944
53786W        W17554  41.423  29.572   9.508
53787W        W17555  38.918  39.396  14.471
53788W        W17556  39.327  28.144   1.815
53789W        W17557   9.351   2.343   4.162
53790W        W17558  24.710  29.125   4.702
53791W        W17559  34.904   7.381  11.083
53792W        W17560  10.790  11.834  12.510
53793W        W17561  32.054  29.966  14.495
53794W        W17562  38.983   2.829   2.233
53795W        W17563   6.891  25.660   4.300
53796W        W17564   2.747   4.943   2.217
53797W        W17565  31.927  13.167  12.523
53798W        W17566   6.706  18.689   2.762
53799W        W17567  11.270  12.842  13.431
53800W        W17568  44.777  36.400   0.812
53801W        W17569  40.903  19.052   4.193
53802W        W17570  44.422  40.548   4.812
53803W        W17571  43.968  11.203  14.842
53804W        W17572  14.103  11.200   4.318
53805W        W17573   5.772  15.793  13.386
53806W        W17574  22.517   9.760   2.880
53807W        W17575  31.078   7.698   0.736
53808W        W17576  25.137  38.524  14.902
53809W        W17577  38.060   9.160  10.926
53810W        W17578  29.965  10.162   3.781
53811W        W17579  22.636   3.363  10.617
53812W        W17580  12.116   1.830   3.238
53813W        W17581  25.010   7.776  14.839
53814W        W17582  37.453  21.539   0.395
53815W        W17583  41.966  18.554   4.348
53816W        W17584  31.031  11.822  11.929
53817W        W17585  23.052  10.804  13.962
53818W        W17586  38.010  11.793   2.723
53819W        W17587  43.805  41.940   0.841
53820W        W17588  15.815  19.710  12.995
53821W        W17589  15.609  15.307  12.900
53822W        W17590  31.901  20.734  12.577
53823W        W17591  16.083  42.338  12.533
53824W        W17592  23.066  30.498  12.496
53825W        W17593  34.096  26.636  14.925
53826W        W17594  16.308   1.405   1.770
53827W        W17595  36.564  38.068  14.030
53828W        W17596  32.470  28.146  13.414
53829W        W17597  26.456  14.095   2.406
53830W        W17598  29.059   0.263   0.316
53831W        W17599  37.435  10.676  11.553
53832W        W17600   7.395  43.915   4.701
53833W        W17601  44.825  13.188   0.326
53834W        W17602  21.115  23.990  13.470
53835W        W17603  26.514   1.829   2.900
53836W        W17604  28.113  24.194   1.242
53837W        W17605  24.172  31.460  10.550
53838W        W17606  27.616   5.329  10.595
53839W        W17607  38.953  29.536   9.540
53840W        W17608   5.875  44.436  12.093
53841W        W17609  36.533   8.226  12.980
53842W        W17610  21.044  18.096  13.421
53843W        W17611  39.423  38.439   3.150
53844W        W17612  26.525   1.344   1.272
53845W        W17613   6.856  17.063   3.275
53846W        W17614  40.920  16.723   1.231
53847W        W17615  33.967  26.050   4.764
53848W        W17616  14.140  41.959  10.495
53849W        W17617  42.286  29.425   4.712
53850W        W17618   6.737   4.789   3.799
53851W        W17619  29.944   3.385   1.446
53852W        W17620  10.163  29.458  14.884
53853W        W17621   9.877  38.016  13.054
53854W        W17622  39.335  36.853   3.675
53855W        W17623  40.369  28.045   3.350
53856W        W17624  31.646  31.138   0.437
53857W        W17625   5.741  39.923   3.196
53858W        W17626  31.452  40.481  11.530
53859W        W17627   3.936  32.889  14.365
53860W        W17628  38.442   6.678   4.240
53861W        W17629  26.512  29.451  13.867
53862W        W17630  23.613  39.334  11.964
53863W        W17631  38.022  13.769  14.969
53864W        W17632   5.713  34.955  12.939
53865W        W17633  22.066  12.750   3.853
53866W        W17634  43.292   6.289   4.294
53867W        W17635  12.806  19.667  13.455
53868W        W17636  39.344   4.318   0.451
53869W        W17637  11.787  29.562   4.684
53870W        W17638  31.991   8.283   0.759
53871W        W17639  33.921  43.311  11.018
53872W        W17640  39.051  25.509  10.522
53873W        W17641   6.731  23.514   4.154
53874W        W17642  17.645  23.992  12.026
53875W        W17643  21.708   0.388  14.356
53876W        W17644  34.915   8.193   4.813
53877W        W17645  10.281   5.336   0.951
53878W        W17646  34.383  39.515  12.372
53879W        W17647  18.574   9.242  13.492
53880W        W17648   5.379  28.073  14.447
53881W        W17649  13.223  12.232   4.253
53882W        W17650  16.153  26.148   5.180
53883W        W17651  42.799   9.343  12.967
53884W        W17652  34.088  10.637  12.420
53885W        W17653   2.938  30.583   1.867
53886W        W17654  26.503   6.696  12.557
53887W        W17655   4.800  41.846   3.721
53888W        W17656  37.459  44.348  10.642
53889W        W17657  44.458  39.944   0.742
53890W        W17658  27.627   4.329   4.734
53891W        W17659  13.217   6.231   0.945
53892W        W17660  17.763  18.649  13.497
53893W        W17661  26.171   8.810   2.673
53894W        W17662   4.318  24.223  10.562
53895W        W17663   3.811  26.686   3.796
53896W        W17664   6.412  19.173   3.755
53897W        W17665  11.180  17.745   2.292
53898W        W17666  43.987  31.534  13.337
53899W        W17667  28.103  21.261   0.943
53900W        W17668  40.890   3.311  13.853
53901W        W17669  36.520  38.442  13.988
53902W        W17670  29.662  23.207  12.028
53903W        W17671  44.432  11.670   0.260
53904W        W17672  23.686  35.498  11.950
53905W        W17673  19.772  25.998  14.434
53906W        W17674  11.285  22.233   4.792
53907W        W17675  18.180  18.771  11.027
53908W        W17676  44.827  42.886  13.380
53909W        W17677   2.290  34.417  12.950
53910W        W17678  42.355  33.894   0.740
53911W        W17679  22.547   8.669   2.803
53912W        W17680  14.803  12.633   3.771
53913W        W17681  32.432  12.126   0.862
53914W        W17682   7.793  36.472   2.345
53915W        W17683  32.060  23.093  14.781
53916W        W17684   2.833  16.187   2.734
53917W        W17685  41.506  36.395  14.366
53918W        W17686  10.670  20.576   2.762
53919W        W17687  10.875   8.233   3.851
53920W        W17688  19.237  36.995   3.289
53921W        W17689   6.821   5.778   0.293
53922W        W17690  16.258  26.095  12.873
53923W        W17691  39.893   6.231  10.505
53924W        W17692  43.961  38.473  10.425
53925W        W17693  16.601  20.707   5.261
53926W        W17694  36.379  25.975  11.405
53927W        W17695  26.156  36.540  10.143
53928W        W17696  40.808   0.338  14.987
53929W        W17697  10.791  37.953  12.012
53930W        W17698   4.273  41.469   1.881
53931W        W17699  37.383  15.278   2.746
53932W        W17700  11.273  26.677   4.694
53933W        W17701   1.282  28.144  13.496
53934W        W17702   3.898  14.218   5.238
53935W        W17703   7.329  17.126  11.916
53936W        W17704  21.200   1.827   2.818
53937W        W17705  44.927   7.287   2.219
53938W        W17706  21.259  35.920  13.043
53939W        W17707  25.587  37.991  12.578
53940W        W17708   1.913  15.764  12.395
53941W        W17709  29.940  22.647  13.503
53942W        W17710  26.083  28.676   0.955
53943W        W17711  14.186  33.039   1.815
53944W        W17712  18.069  13.696   2.180
53945W        W17713   1.312   1.794   2.367
53946W        W17714   7.871   2.264   3.705
53947W        W17715   7.307  32.586  12.910
53948W        W17716  24.014  16.202  14.373
53949W        W17717  29.126   0.455   4.226
53950W        W17718  31.460   4.778  11.104
53951W        W17719  17.785  25.192   0.359
53952W        W17720  25.547  39.473  12.882
53953W        W17721  28.538  16.582  10.495
53954W        W17722  40.989  30.455  14.470
53955W        W17723  32.530  11.715  14.277
53956W        W17724  16.316  18.112  14.852
53957W        W17725   8.669   3.922  14.850
53958W        W17726  42.826  38.480   1.280
53959W        W17727   7.253  42.318  14.913
53960W        W17728  25.064   2.457  10.636
53961W        W17729  17.685  39.349  13.434
53962W        W17730  23.567  24.081  11.084
53963W        W17731   2.332  33.394  13.944
53964W        W17732   9.719  13.230   1.335
53965W        W17733  23.731  10.654  11.575
53966W        W17734   9.291  34.880  11.503
53967W        W17735  39.526  32.594  13.485
53968W        W17736  34.916  13.194   2.389
53969W        W17737  12.234  31.933   0.887
53970W        W17738   5.294  16.310  14.008
53971W        W17739   1.435  25.131  10.459
53972W        W17740  32.912  31.448  13.970
53973W        W17741  44.483  39.422  11.376
53974W        W17742  12.332  13.208   4.824
53975W        W17743  33.404   8.282  12.878
53976W        W17744  18.177   4.910  11.510
53977W        W17745  27.005  33.985  13.445
53978W        W17746  44.754   2.348   1.797
53979W        W17747  23.000  18.565  12.433
53980W        W17748  19.135  18.743  10.407
53981W        W17749  32.586  29.032   3.780
53982W        W17750   5.858  23.142   4.302
53983W        W17751  30.510   2.346  10.472
53984W        W17752   3.737  41.342  13.913
53985W        W17753  34.508  17.141   5.310
53986W        W17754  18.206  32.038   0.914
53987W        W17755  22.008   5.838   2.235
53988W        W17756  37.897  43.389   1.342
53989W        W17757  15.635  13.333  14.869
53990W        W17758  42.325  27.991  10.561
53991W        W17759  22.607  13.183   0.381
53992W        W17760  16.742   9.263   4.258
53993W        W17761  38.503  27.572   4.324
53994W        W17762  35.873  15.797   1.750
53995W        W17763  28.085  10.350   5.099
53996W        W17764   3.289  32.043   2.259
53997W        W17765  21.525  25.992  10.987
53998W        W17766  17.726  11.725   4.177
53999W        W17767  31.618  27.143   4.789
54000W        W17768  37.431  36.848   2.894
54001W        W17769  34.544  11.189  14.774
54002W        W17770   9.351  33.990   3.202
54003W        W17771  31.619  15.164  14.375
54004W        W17772   3.777  35.861   2.390
54005W        W17773  42.458  22.142   3.310
54006W        W17774  35.525  40.926  11.085
54007W        W17775  28.092  14.624  12.047
54008W        W17776  15.208  31.146  14.919
54009W        W17777  43.340  21.111   9.956
54010W        W17778  21.180  15.669  11.909
54011W        W17779  43.334  15.150   0.365
54012W        W17780  34.889  27.945  10.438
54013W        W17781  12.693   9.742  12.025
54014W        W17782   4.447  31.503  13.530
54015W        W17783  29.605  35.952   3.293
54016W        W17784  14.211  22.607   2.366
54017W        W17785  15.324  27.593  10.533
54018W        W17786  18.744  32.563  14.285
54019W        W17787  14.326  26.643   3.663
54020W        W17788  27.142   8.864  12.948
54021W        W17789  17.138  42.283   0.880
54022W        W17790  10.681  42.942  11.422
54023W        W17791  33.486   2.305  14.781
54024W        W17792   5.237  34.106   2.707
54025W        W17793  25.568   2.428   2.708
54026W        W17794  28.154  40.443   2.774
54027W        W17795  23.135  43.381   4.739
54028W        W17796  34.870  39.376  11.380
54029W        W17797  31.438  41.995  11.996
54030W        W17798   0.392  28.578  11.943
54031W        W17799  19.248  14.682  14.823
54032W        W17800  15.179   9.263   2.786
54033W        W17801  30.618  43.978   1.694
54034W        W17802  20.736  26.603  14.513
54035W        W17803  13.670  37.437  13.470
54036W        W17804  13.321  12.740  13.818
54037W        W17805  36.875  15.702   2.665
54038W        W17806  30.584  21.138   0.396
54039W        W17807  21.127  44.386  10.622
54040W        W17808  16.723  25.559  13.967
54041W        W17809  27.121  40.391   2.731
54042W        W17810  26.590   1.934   0.847
54043W        W17811  15.117  37.379  14.923
54044W        W17812  39.433  12.257   0.404
54045W        W17813   1.864  16.311  12.920
54046W        W17814  27.173  14.164  13.058
54047W        W17815   5.884  14.604  12.436
54048W        W17816  28.529  37.915  11.407
54049W        W17817  34.102  36.355  11.962
54050W        W17818  22.606   0.746   0.907
54051W        W17819   7.367  38.534   3.216
54052W        W17820  41.805  37.024  12.016
54053W        W17821  25.170  44.865   4.631
54054W        W17822  35.959  30.572   2.336
54055W        W17823  41.294   4.342   1.767
54056W        W17824  11.273  24.190   0.316
54057W        W17825   0.861   2.251  12.850
54058W        W17826   0.929  16.748   2.815
54059W        W17827  41.350   7.332   3.853
54060W        W17828  39.557   2.310  12.490
54061W        W17829  35.095   6.688   9.554
54062W        W17830   3.817  35.927   1.284
54063W        W17831  10.260  41.791  14.435
54064W        W17832  17.593  28.519  11.454
54065W        W17833  13.799  17.294   3.648
54066W        W17834  26.196  21.664   0.356
54067W        W17835  39.900  11.150   3.352
54068W        W17836  26.671  16.568  13.509
54069W        W17837  15.766   1.834   2.206
54070W        W17838  44.910  26.134   0.902
54071W        W17839  32.489  36.004  10.593
54072W        W17840   5.888   5.909   1.732
54073W        W17841  21.643  17.656  13.532
54074W        W17842   1.801   7.730   0.255
54075W        W17843  22.660  33.481  12.576
54076W        W17844  17.635  23.217  14.879
54077W        W17845  25.017  39.412   0.271
54078W        W17846   6.252  26.542   4.327
54079W        W17847  14.244  20.655  10.967
54080W        W17848  14.790  30.647  10.643
54081W        W17849   9.178  42.996  11.463
54082W        W17850  18.265  29.967  12.998
54083W        W17851   1.411  17.179  12.364
54084W        W17852  25.001  34.087  10.999
54085W        W17853  27.668  12.134   3.297
54086W        W17854   5.867  41.869   3.704
54087W        W17855  34.083  13.172   3.829
54088W        W17856  16.127  11.268   3.386
54089W        W17857  16.226  39.892  14.013
54090W        W17858  26.043  42.486  13.432
54091W        W17859   2.461  23.168   2.738
54092W        W17860  38.887  33.042   2.215
54093W        W17861  35.912  16.614   4.135
54094W        W17862  11.692  40.036   3.680
54095W        W17863  14.831   8.337  12.018
54096W        W17864  30.054  20.155  10.601
54097W        W17865   6.907   9.659   3.322
54098W        W17866   6.199   9.840  13.059
54099W        W17867  24.659  31.038  13.935
54100W        W17868  34.533  42.393  11.067
54101W        W17869  43.318  38.902  11.927
54102W        W17870  16.809   1.466   2.728
54103W        W17871  11.303  44.776   4.700
54104W        W17872   2.296  10.203  13.824
54105W        W17873  29.459  27.603   3.722
54106W        W17874   3.850  37.459   4.314
54107W        W17875   2.875  29.465  11.539
54108W        W17876  21.115  23.116   1.725
54109W        W17877   7.271  16.740  13.480
54110W        W17878  16.673  37.416   2.234
54111W        W17879  12.745  12.812   3.299
54112W        W17880  21.044  29.034  13.053
54113W        W17881  33.053  22.531  12.863
54114W        W17882  15.152  38.559   2.680
54115W        W17883  27.601  32.558   2.350
54116W        W17884  28.492  43.931   0.733
54117W        W17885  44.387  43.374  11.520
54118W        W17886   8.675  26.637  13.501
54119W        W17887  15.783  22.743  12.002
54120W        W17888  22.507  16.708  14.776
54121W        W17889  26.649  26.518   3.842
54122W        W17890  36.931  17.716   0.895
54123W        W17891  29.648  37.567   2.701
54124W        W17892   5.216  20.175   4.819
54125W        W17893  32.076  10.763   1.399
54126W        W17894  22.535  11.181   2.760
54127W        W17895  39.444  19.220  12.442
54128W        W17896  26.562  32.601  11.023
54129W        W17897  14.143  40.440   3.729
54130W        W17898  36.040  27.682  12.833
54131W        W17899  33.443  18.563  10.901
54132W        W17900  44.818  18.607   3.723
54133W        W17901  25.081  23.051   3.337
54134W        W17902  21.044   3.821   2.831
54135W        W17903  27.671  42.954   0.904
54136W        W17904   6.367  25.704   4.671
54137W        W17905  44.359  40.871   4.286
54138W        W17906  10.208  10.728   4.685
54139W        W17907  34.422  12.300   2.405
54140W        W17908  42.903  39.887   0.922
54141W        W17909  38.996  10.665  13.792
54142W        W17910   5.781  11.648   1.905
54143W        W17911  32.516  13.173  10.976
54144W        W17912  44.952  35.379   0.405
54145W        W17913  12.170  44.357   4.243
54146W        W17914  37.032  34.913   1.230
54147W        W17915  17.679   6.764   1.437
54148W        W17916  43.786  42.873   1.759
54149W        W17917  41.891  32.900  12.059
54150W        W17918  28.009  25.636   4.609
54151W        W17919  10.838  31.047   3.641
54152W        W17920  33.978  28.676  11.593
54153W        W17921  27.959  30.053   1.266
54154W        W17922  28.029  38.862   1.246
54155W        W17923  29.156  26.612  13.511
54156W        W17924  31.022  10.307   5.290
54157W        W17925  32.978   5.212  11.422
54158W        W17926  14.694   9.761  14.360
54159W        W17927  19.186   0.437   4.280
54160W        W17928  30.035  12.775  14.836
54161W        W17929  10.204  36.449  12.914
54162W        W17930   4.914   3.913   4.282
54163W        W17931  36.442  31.632  10.119
54164W        W17932  27.976   5.898   1.694
54165W        W17933  10.274  25.101   1.697
54166W        W17934  27.028  30.940  14.487
54167W        W17935  25.524  22.233   3.226
54168W        W17936  14.116   2.264   5.217
54169W        W17937   7.348  10.745   3.246
54170W        W17938   1.300  34.531  13.488
54171W        W17939  35.040  16.187  12.975
54172W        W17940  20.092  43.506   0.260
54173W        W17941  40.321   3.919   4.317
54174W        W17942  31.447  37.952   2.310
54175W        W17943  13.187  14.295   3.275
54176W        W17944  22.713   8.367   2.871
54177W        W17945  39.054  30.964  14.794
54178W        W17946  35.570  42.410  11.458
54179W        W17947  23.629  17.067   3.836
54180W        W17948  14.330   3.342  10.045
54181W        W17949  22.684  18.557   3.793
54182W        W17950   5.710   8.200  13.018
54183W        W17951   3.281  28.969   1.274
54184W        W17952  36.970  31.966   3.225
54185W        W17953   5.877   3.900   1.290
54186W        W17954  43.375  12.224   2.855
54187W        W17955  15.234  36.551   4.703
54188W        W17956  42.360  40.358  14.869
54189W        W17957  29.478  15.258   3.858
54190W        W17958  23.642  17.215  12.402
54191W        W17959  15.669   6.371   0.803
54192W        W17960  32.087   8.760   5.242
54193W        W17961  37.349  28.165   0.961
54194W        W17962   1.975  38.478   1.839
54195W        W17963  36.859   0.382   4.292
54196W        W17964   8.878   4.402   1.325
54197W        W17965  29.126  33.060  13.032
54198W        W17966   4.839  10.304   4.637
54199W        W17967  40.838   9.717  12.914
54200W        W17968  25.574  16.134   4.616
54201W        W17969  31.913   9.344   0.363
54202W        W17970  10.655  33.014  13.980
54203W        W17971  18.730   5.704   2.870
54204W        W17972  43.426  37.054   3.268
54205W        W17973  18.099  19.059   1.213
54206W        W17974  33.049  31.404  11.932
54207W        W17975  23.560   5.250   1.732
54208W        W17976  29.543  11.189   4.270
54209W        W17977  17.283  23.056   5.654
54210W        W17978   7.172   7.791   1.844
54211W        W17979  14.636  34.999   2.364
54212W        W17980   9.825   6.780  14.896
54213W        W17981  12.154  19.547   4.238
54214W        W17982  41.906  16.165  13.450
54215W        W17983  13.287  35.031  14.482
54216W        W17984   8.892  20.207   1.909
54217W        W17985   8.280  17.205   2.246
54218W        W17986   0.761  44.492  11.544
54219W        W17987  19.091  36.048  13.320
54220W        W17988  30.091  29.448   0.913
54221W        W17989  33.935  27.552  13.427
54222W        W17990  24.056  27.499   3.644
54223W        W17991  44.268   0.436   1.810
54224W        W17992  11.867  10.210   4.154
54225W        W17993   9.830   5.226  11.950
54226W        W17994  25.190   5.382   4.760
54227W        W17995  32.543  38.892  11.519
54228W        W17996  17.294   2.741  10.523
54229W        W17997  27.972  44.331  12.916
54230W        W17998   1.741  23.186  12.836
54231W        W17999  35.861  22.177   2.405
54232W        W18000  31.993  20.705   1.365
54233W        W18001  23.146  17.162   0.939
54234W        W18002  26.630   5.386  14.945
54235W        W18003  17.130   5.800   2.409
54236W        W18004  26.646  27.038   2.255
54237W        W18005  38.009  12.200   4.302
54238W        W18006  15.790   0.856  13.929
54239W        W18007  30.054  13.120  12.563
54240W        W18008  14.655  13.159   4.303
54241W        W18009  18.096  32.559   1.694
54242W        W18010  40.329  36.502   3.777
54243W        W18011  30.558  34.438   3.307
54244W        W18012   6.905  10.171  12.951
54245W        W18013  18.654  38.349  10.960
54246W        W18014  13.719  31.078  12.460
54247W        W18015  32.002  41.316  11.072
54248W        W18016  26.480   3.896  13.958
54249W        W18017  15.308  39.339   2.240
54250W        W18018  29.115  18.209  11.061
54251W        W18019  28.961  35.434   3.281
54252W        W18020   0.766  31.972   0.888
54253W        W18021  13.186  44.970  10.417
54254W        W18022   2.797  12.255  10.632
54255W        W18023  35.947   0.418  14.298
54256W        W18024   0.964  32.449   1.355
54257W        W18025  15.250  13.228  14.825
54258W        W18026  26.621  32.061   3.785
54259W        W18027  27.080   9.736   0.933
54260W        W18028   4.859  13.754  13.800
54261W        W18029  33.974  31.542  14.355
54262W        W18030   5.350  24.146   2.298
54263W        W18031  25.629  31.411   3.376
54264W        W18032  33.526  12.309   4.239
54265W        W18033   9.670  34.408  11.102
54266W        W18034  40.043  31.963  13.827
54267W        W18035  41.437  16.797  14.418
54268W        W18036   1.953   9.720  11.057
54269W        W18037  23.993   9.808   0.854
54270W        W18038  32.010  26.993   0.748
54271W        W18039  21.239  15.608   2.324
54272W        W18040  27.009  24.578  13.432
54273W        W18041  14.175   4.911  14.877
54274W        W18042  31.022   0.449   2.901
54275W        W18043  17.750  37.356  12.971
54276W        W18044  22.506  19.665   0.317
54277W        W18045  38.964   7.897   2.712
54278W        W18046  30.537  30.421  11.860
54279W        W18047  14.329  39.471   0.286
54280W        W18048  27.543  11.867  13.824
54281W        W18049   4.408   5.838   0.851
54282W        W18050  13.745  30.969  11.026
54283W        W18051  14.785   2.387  11.025
54284W        W18052  10.209   1.367  13.061
54285W        W18053  34.071  17.748  11.603
54286W        W18054  25.044  21.693   4.776
54287W        W18055  41.389   8.230  10.412
54288W        W18056   2.769  11.153  13.845
54289W        W18057  16.081  34.516   1.242
54290W        W18058  44.909  13.743   4.253
54291W        W18059   2.357  39.013   2.261
54292W        W18060  39.481  36.087  13.944
54293W        W18061  40.822  20.244   4.827
54294W        W18062  39.899   2.377  11.052
54295W        W18063   7.195  23.549  14.836
54296W        W18064  10.190  15.689   4.692
54297W        W18065  40.387   0.356  14.960
54298W        W18066  25.523  12.793  13.329
54299W        W18067   2.374  28.976   4.614
54300W        W18068  16.268  16.152   1.766
54301W        W18069  29.669   3.837  13.820
54302W        W18070  15.806  26.574  14.877
54303W        W18071  16.300  34.430   4.607
54304W        W18072  27.023  39.905  10.420
54305W        W18073  21.024  19.585  11.030
54306W        W18074  37.951  44.876   0.840
54307W        W18075  27.022  39.355  10.418
54308W        W18076   2.233  41.902   4.162
54309W        W18077  40.948  36.037   3.150
54310W        W18078  41.900  11.715   0.867
54311W        W18079   6.229  12.171   1.367
54312W        W18080  29.983  30.530   3.231
54313W        W18081  32.627  40.870  11.505
54314W        W18082   5.753  19.609   0.842
54315W        W18083   1.440  12.648   4.132
54316W        W18084  19.277  44.982   4.737
54317W        W18085  22.190  20.249   3.231
54318W        W18086  34.934  17.638   2.197
54319W        W18087  15.165   0.951   1.924
54320W        W18088   4.724   7.710   4.211
54321W        W18089  29.507  32.390   2.261
54322W        W18090  22.996  29.540   3.309
54323W        W18091   0.473  11.224   2.745
54324W        W18092  25.033   9.217   3.696
54325W        W18093  26.668  38.507  14.964
54326W        W18094   3.327   7.286   3.700
54327W        W18095  40.447   9.260  13.943
54328W        W18096  42.320  28.458   4.261
54329W        W18097  30.503  11.231   4.206
54330W        W18098  29.921  38.000   3.787
54331W        W18099   4.239  32.139  11.932
54332W        W18100   1.356   1.349   0.792
54333W        W18101  28.041   1.469   3.780
54334W        W18102  13.129  18.775  13.811
54335W        W18103  43.410  40.495  10.506
54336W        W18104  39.356  12.629   3.191
54337W        W18105   7.179  15.162   2.684
54338W        W18106   4.927  12.697   4.646
54339W        W18107  17.300  44.325   3.669
54340W        W18108   2.874  29.578   3.162
54341W        W18109  34.574  41.830   1.808
54342W        W18110  31.402  21.181  12.455
54343W        W18111  39.032  30.947   3.857
54344W        W18112   3.404   7.805   1.739
54345W        W18113  37.551  24.131   1.210
54346W        W18114  15.729  34.084  10.954
54347W        W18115  40.920  30.535   0.377
54348W        W18116   6.727   2.904  12.990
54349W        W18117  21.603  37.425  10.438
54350W        W18118  26.965   6.810   2.683
54351W        W18119  28.669  27.508  11.993
54352W        W18120  22.077  12.768  11.120
54353W        W18121  31.041  11.671  13.015
54354W        W18122  41.511  23.164  11.586
54355W        W18123  22.683  39.429   1.933
54356W        W18124   0.838  29.559  13.053
54357W        W18125  28.469  15.637   2.317
54358W        W18126   0.339  14.748  11.393
54359W        W18127  18.750  16.149   2.769
54360W        W18128   1.911   8.703  14.870
54361W        W18129  15.317  24.661  12.551
54362W        W18130  11.699  32.072   1.261
54363W        W18131  35.526   7.770  14.330
54364W        W18132  29.599   5.277  13.534
54365W        W18133  21.140  12.168   2.282
54366W        W18134  36.568   2.790   4.240
54367W        W18135  22.049  33.494   4.746
54368W        W18136   9.738  23.495  13.024
54369W        W18137  17.082  19.039   5.136
54370W        W18138   3.351  28.598   2.204
54371W        W18139  30.597  38.853  12.451
54372W        W18140   8.212  30.650   2.838
54373W        W18141  19.257  16.193   4.621
54374W        W18142  34.992  22.227  12.073
54375W        W18143  21.532  41.814  10.417
54376W        W18144  12.358  40.516   0.868
54377W        W18145  10.807  37.832   3.297
54378W        W18146  25.069  18.632   1.721
54379W        W18147   2.722   1.870   4.650
54380W        W18148  28.676  15.219   3.864
54381W        W18149  12.625   4.375  11.453
54382W        W18150  23.092  31.065  13.840
54383W        W18151  37.533  25.636   4.793
54384W        W18152  33.003   9.732   0.270
54385W        W18153  37.956   7.749   3.638
54386W        W18154  43.915  39.556  10.460
54387W        W18155  36.484   2.861   0.953
54388W        W18156  23.626   3.338   1.229
54389W        W18157  28.591  24.009  13.969
54390W        W18158  17.225  22.648  11.067
54391W        W18159  24.000  39.554  11.116
54392W        W18160   9.212  14.121   5.293
54393W        W18161  28.526  11.726   2.392
54394W        W18162  11.851  25.055  11.092
54395W        W18163  35.363  29.518  10.532
54396W        W18164  28.539   8.310   1.864
54397W        W18165   6.404  24.198  13.061
54398W        W18166  17.261  26.597   1.265
54399W        W18167  17.712   4.843  10.564
54400W        W18168  31.098  27.551  10.916
54401W        W18169  11.852  15.617  12.917
54402W        W18170   8.255  19.567  13.877
54403W        W18171  18.557  10.815  10.450
54404W        W18172  20.078  32.042   2.371
54405W        W18173   4.315  26.073  12.975
54406W        W18174  26.158  26.609  14.880
54407W        W18175  30.134  37.462  10.956
54408W        W18176   3.755  12.638  14.455
54409W        W18177  33.010  40.515   4.597
54410W        W18178   8.795  15.774  14.021
54411W        W18179  10.740  24.165   2.897
54412W        W18180  28.504  28.018   1.764
54413W        W18181   8.223  26.660   1.227
54414W        W18182   3.256  27.614  14.999
54415W        W18183  12.144  15.291   1.904
54416W        W18184  12.727  24.641   1.753
54417W        W18185  36.547  40.489   3.230
54418W        W18186  24.135  30.605   4.294
54419W        W18187   1.260  21.020  13.028
54420W        W18188  44.427   1.745  11.541
54421W        W18189  20.213  29.027   3.359
54422W        W18190  38.332  13.163   4.729
54423W        W18191  19.699  38.550   4.646
54424W        W18192   4.930   6.381   4.218
54425W        W18193   3.860  14.631   4.243
54426W        W18194  23.170   8.857  12.350
54427W        W18195   8.678  17.217  10.541
54428W        W18196  29.586  42.893  11.552
54429W        W18197  41.482  20.129   0.370
54430W        W18198  30.961  23.024  11.405
54431W        W18199  26.593   3.757   1.872
54432W        W18200  18.176  40.972  12.952
54433W        W18201  18.659   9.805  10.556
54434W        W18202  37.893  37.937  10.437
54435W        W18203  34.407   8.692   1.760
54436W        W18204  43.869  27.090   2.713
54437W        W18205  26.604  33.059  14.362
54438W        W18206  42.429  40.859   1.417
54439W        W18207   2.960  42.981  13.943
54440W        W18208  36.999  27.570  11.586
54441W        W18209  27.086  41.039   1.275
54442W        W18210  24.701   7.259   3.333
54443W        W18211  35.902  38.045   0.913
54444W        W18212  23.031  38.485   4.290
54445W        W18213  44.264  27.474   1.899
54446W        W18214  35.083  13.300   2.734
54447W        W18215  36.994  40.313   4.155
54448W        W18216  23.028  11.794  14.946
54449W        W18217  40.419  22.566  10.424
54450W        W18218  27.649  30.587   1.446
54451W        W18219  23.145  42.432  12.068
54452W        W18220  22.194  20.722   1.912
54453W        W18221   0.459  19.728   3.223
54454W        W18222  18.274   9.394   1.845
54455W        W18223  25.691  19.112   1.407
54456W        W18224  15.603  32.027   0.280
54457W        W18225  10.283  40.963  13.310
54458W        W18226   9.279  11.169   0.871
54459W        W18227  34.977  23.080  14.277
54460W        W18228  41.002  37.900   0.353
54461W        W18229  27.510  23.514  14.813
54462W        W18230  30.141  28.627   4.138
54463W        W18231   5.430  43.510   3.757
54464W        W18232   0.323  11.765  11.991
54465W        W18233  10.151  36.934  14.917
54466W        W18234  28.524  11.244  11.445
54467W        W18235  23.056  40.530  10.077
54468W        W18236  10.286  41.520   4.219
54469W        W18237  29.504  36.402  14.388
54470W        W18238  27.082  19.748  12.854
54471W        W18239  28.626  21.176   0.932
54472W        W18240  22.142  28.470   4.128
54473W        W18241  19.622   3.273  12.522
54474W        W18242   3.286  27.515  11.952
54475W        W18243  28.110  20.639  11.510
54476W        W18244  44.265  11.263  12.853
54477W        W18245  18.704  19.183   4.679
54478W        W18246  30.638  19.602   4.343
54479W        W18247  31.431  22.539  10.891
54480W        W18248  44.907  44.906   3.753
54481W        W18249  25.543  23.559   1.864
54482W        W18250  31.523  20.744   0.271
54483W        W18251   0.864  23.227   1.795
54484W        W18252  28.466  10.871  10.622
54485W        W18253  16.761  30.414   1.772
54486W        W18254  26.158   1.432  13.943
54487W        W18255  15.763  17.691  12.085
54488W        W18256   4.723  30.016  12.952
54489W        W18257  19.041  34.108  14.799
54490W        W18258   9.768  30.523   4.343
54491W        W18259  22.208  39.957  11.891
54492W        W18260  36.395  15.631  10.094
54493W        W18261  30.485  20.172  12.481
54494W        W18262  12.243  44.788  12.024
54495W        W18263  39.323  34.548   3.220
54496W        W18264  44.442  33.977   2.405
54497W        W18265  19.206  21.715  11.095
54498W        W18266  23.634  15.136   3.178
54499W        W18267   3.953  36.072   3.701
54500W        W18268  24.120  27.460   1.296
54501W        W18269   3.788  18.642   4.255
54502W        W18270  33.526  37.409  12.940
54503W        W18271   7.397   2.323  12.967
54504W        W18272  12.212   2.306   1.421
54505W        W18273  19.090  14.171   2.813
54506W        W18274  17.137  24.076   3.803
54507W        W18275  14.811  10.196   4.826
54508W        W18276  34.921  25.115   3.181
54509W        W18277  14.635   1.811  14.473
54510W        W18278   7.328  21.544  11.019
54511W        W18279  15.681   7.862   1.857
54512W        W18280  23.697  20.749  11.512
54513W        W18281  36.419  28.989   3.203
54514W        W18282  10.168  35.588  12.871
54515W        W18283  20.198  34.043   4.628
54516W        W18284  15.117   1.437   3.687
54517W        W18285   8.337  39.890   3.693
54518W        W18286   2.765  32.960  14.312
54519W        W18287  22.190  43.476  13.408
54520W        W18288  41.455   2.905   2.216
54521W        W18289  41.000  32.025   1.278
54522W        W18290  44.947  39.859   4.606
54523W        W18291  20.144  26.690  13.842
54524W        W18292   6.281  35.067  11.606
54525W        W18293  10.769  40.334  10.071
54526W        W18294  30.041  26.086   4.344
54527W        W18295  30.127   8.791   2.725
54528W        W18296  21.560   5.288  12.477
54529W        W18297  35.603  15.599  13.045
54530W        W18298  40.460  26.582   0.350
54531W        W18299   7.687  21.170  13.506
54532W        W18300   1.470  44.937  11.120
54533W        W18301  43.329  33.114   2.351
54534W        W18302  12.331   2.340   0.297
54535W        W18303  17.096   6.348  11.926
54536W        W18304  38.405  44.296  13.962
54537W        W18305  15.115  33.986   0.441
54538W        W18306  31.921  19.617  13.882
54539W        W18307   1.885  36.871  14.371
54540W        W18308  34.082  27.140  12.863
54541W        W18309  10.822  20.097  13.036
54542W        W18310  41.507  28.516   1.380
54543W        W18311  20.091  30.068   1.711
54544W        W18312  19.161  34.424   4.199
54545W        W18313   1.765  27.484  11.061
54546W        W18314  18.622  34.396   0.279
54547W        W18315   3.815  17.075   2.670
54548W        W18316  17.122   4.341   3.357
54549W        W18317  32.972   9.225   0.299
54550W        W18318   8.690  10.784   3.668
54551W        W18319  38.827   8.772  14.766
54552W        W18320  16.610  36.990  11.607
54553W        W18321  29.655   2.422   2.674
54554W        W18322  32.887  11.868   3.376
54555W        W18323  21.225   9.817  12.502
54556W        W18324   0.347  13.179   4.609
54557W        W18325  34.880  16.635  14.284
54558W        W18326  22.038  44.456   2.805
54559W        W18327  12.691  26.997  13.543
54560W        W18328  23.078  30.426   3.663
54561W        W18329  39.364  41.921   2.804
54562W        W18330  20.032   2.442  11.433
54563W        W18331  28.676  25.625  14.005
54564W        W18332  13.132  23.188   4.709
54565W        W18333  24.222  26.995   2.897
54566W        W18334   5.932   6.225   1.432
54567W        W18335   2.388  17.151   1.324
54568W        W18336  18.574   0.323   1.295
54569W        W18337  13.329  18.086   2.782
54570W        W18338  36.055  15.296   4.301
54571W        W18339  26.562  25.511  14.463
54572W        W18340  27.060  26.519  11.542
54573W        W18341  38.819  21.230   3.158
54574W        W18342  18.680  41.010   3.642
54575W        W18343  24.692  30.539   0.361
54576W        W18344   4.902  10.753   1.754
54577W        W18345   2.442  11.314   1.250
54578W        W18346   0.333  10.379  11.385
54579W        W18347   4.281  27.136   2.230
54580W        W18348  15.218  41.910  11.084
54581W        W18349   4.856  41.366  13.398
54582W        W18350  24.100  15.256   3.686
54583W        W18351  24.651   0.352  10.412
54584W        W18352  23.500  23.226  11.480
54585W        W18353  16.130  34.115  10.132
54586W        W18354  10.359  40.486  12.372
54587W        W18355  34.404  17.760  12.517
54588W        W18356  14.720  24.670   3.797
54589W        W18357  16.309  38.033   0.443
54590W        W18358  25.153  41.392  11.612
54591W        W18359  15.577  19.081  13.874
54592W        W18360  25.971  13.193   0.750
54593W        W18361   7.189  30.954  12.457
54594W        W18362  17.629   5.316   2.345
54595W        W18363  40.999  35.012  13.382
54596W        W18364  31.110  21.517   0.299
54597W        W18365  23.674   4.777  11.021
54598W        W18366  23.506   9.197  11.111
54599W        W18367  27.042   1.845   4.243
54600W        W18368  34.934  21.724  10.555
54601W        W18369   1.277  31.405   2.903
54602W        W18370  31.601  36.955  13.876
54603W        W18371  29.499  41.336  11.066
54604W        W18372  27.106   3.287  11.416
54605W        W18373  32.610  37.981   0.912
54606W        W18374  13.330  37.035  13.492
54607W        W18375  24.534   8.255  10.937
54608W        W18376   0.908  40.472  12.998
54609W        W18377   3.289   2.340   2.333
54610W        W18378  23.048  32.999   0.759
54611W        W18379   9.393  42.301  13.472
54612W        W18380  32.103   4.203   2.884
54613W        W18381  36.476  13.717  10.421
54614W        W18382   0.269  39.056   1.318
54615W        W18383  33.965   0.333  13.970
54616W        W18384   4.871  41.352  10.490
54617W        W18385  32.971  25.673  14.855
54618W        W18386   2.821  29.467  13.903
54619W        W18387   7.324  14.638  13.415
54620W        W18388  29.045  38.341  13.020
54621W        W18389  14.800   5.401  14.846
54622W        W18390  41.950   1.868   2.317
54623W        W18391  24.543  16.709  11.125
54624W        W18392  17.576  31.909  12.389
54625W        W18393  34.968   4.301   1.898
54626W        W18394  44.869   6.391   4.605
54627W        W18395   2.432  43.972  13.445
54628W        W18396  26.550  20.095  12.549
54629W        W18397  42.811  29.091  11.528
54630W        W18398   4.785   0.767   4.271
54631W        W18399  10.141   2.774   3.818
54632W        W18400   7.724  36.406   3.249
54633W        W18401  23.212  26.096   1.721
54634W        W18402   4.208  38.876  13.875
54635W        W18403  19.712  41.835   3.813
54636W        W18404  33.621  39.975  11.124
54637W        W18405  37.004  11.748  11.485
54638W        W18406  30.111   8.787   3.728
54639W        W18407  43.372  10.240   2.756
54640W        W18408  31.466  32.910   1.420
54641W        W18409  39.902  17.127   3.695
54642W        W18410  22.666  27.073   2.783
54643W        W18411  34.443  22.200   1.824
54644W        W18412  24.209  30.980   1.732
54645W        W18413   5.807  20.715  10.511
54646W        W18414  26.005  31.949  14.805
54647W        W18415  37.889  32.570   3.785
54648W        W18416  13.813   4.280  10.553
54649W        W18417  15.679  11.860   4.796
54650W        W18418  31.409  41.866   4.673
54651W        W18419  24.980  16.084   4.120
54652W        W18420  28.466  15.155  13.450
54653W        W18421  41.844  14.707   2.897
54654W        W18422  39.005  40.538  13.818
54655W        W18423   5.789  16.801   4.777
54656W        W18424   3.724  35.986   0.773
54657W        W18425  26.068  44.830   1.715
54658W        W18426  40.922  16.318  12.366
54659W        W18427  39.906   0.756  13.349
54660W        W18428  19.123  28.105   2.201
54661W        W18429  38.546   1.863   2.303
54662W        W18430  10.251  11.698  12.467
54663W        W18431   5.768  38.896  12.530
54664W        W18432   5.771  13.237  13.032
54665W        W18433  42.416   2.727   3.383
54666W        W18434  16.276  26.593  11.388
54667W        W18435  39.875   4.940   1.217
54668W        W18436  33.947  18.202   4.178
54669W        W18437  43.505  18.758   4.663
54670W        W18438  12.611  10.305  13.866
54671W        W18439   9.649  22.068  11.058
54672W        W18440  11.248  35.451   1.364
54673W        W18441  35.039  37.450  10.939
54674W        W18442   6.750  43.446  12.417
54675W        W18443  39.030   3.741   1.389
54676W        W18444  26.146  26.461  13.945
54677W        W18445   8.855  40.968  13.409
54678W        W18446  38.060   8.761  13.453
54679W        W18447  19.714  13.272   0.905
54680W        W18448  40.812  42.818  10.581
54681W        W18449  24.703  42.966  13.048
54682W        W18450   9.173  35.454   4.288
54683W        W18451  16.083  37.413   3.152
54684W        W18452  29.433  14.719   0.348
54685W        W18453  31.525   6.341  12.084
54686W        W18454   3.296  15.815  14.896
54687W        W18455  16.629  12.819  13.348
54688W        W18456   6.295  22.720   3.764
54689W        W18457   7.252  28.558  13.057
54690W        W18458  20.256  26.027  14.486
54691W        W18459  37.953  11.718   4.750
54692W        W18460   0.901   6.357  13.920
54693W        W18461   2.371  29.477   3.753
54694W        W18462  27.661   7.873   2.190
54695W        W18463  28.116  42.904  14.845
54696W        W18464  41.844  39.969  10.475
54697W        W18465  34.980  25.183   2.257
54698W        W18466  42.315  17.111   0.829
54699W        W18467  41.488  21.583   2.740
54700W        W18468  30.554   8.858   1.409
54701W        W18469  10.844  42.463  12.854
54702W        W18470   7.847  35.996  14.444
54703W        W18471   3.363  24.653   1.907
54704W        W18472  23.641  44.354   1.789
54705W        W18473  18.628  42.368  14.902
54706W        W18474  33.577  37.378  11.432
54707W        W18475   4.816   2.933   0.338
54708W        W18476  17.294  31.097  13.827
54709W        W18477  14.751  26.479   4.778
54710W        W18478  34.915   8.352   3.316
54711W        W18479  11.319  31.934  10.126
54712W        W18480   1.932  18.240  12.952
54713W        W18481  22.544   5.378   1.797
54714W        W18482   3.331  12.672  12.456
54715W        W18483  39.954  26.008  11.006
54716W        W18484  27.520   1.738   0.330
54717W        W18485   7.786  43.923  12.928
54718W        W18486  12.785  34.009  10.894
54719W        W18487  41.512   6.225  13.487
54720W        W18488   0.882  43.446  13.936
54721W        W18489  38.425   3.918  14.941
54722W        W18490  18.682  30.145  11.935
54723W        W18491  43.934   8.759  14.769
54724W        W18492  16.692  43.333  12.440
54725W        W18493   4.440  21.180   4.146
54726W        W18494  25.680  25.572  13.351
54727W        W18495  24.040  11.330  14.834
54728W        W18496  26.466  42.015  11.414
54729W        W18497  17.793  21.022  10.493
54730W        W18498  32.989  43.372  13.352
54731W        W18499  22.177  33.076  11.577
54732W        W18500  24.579  39.855  13.960
54733W        W18501  21.022   6.881   4.331
54734W        W18502   2.350  15.634  12.469
54735W        W18503  20.684  29.941  13.462
54736W        W18504   2.397  37.929   4.708
54737W        W18505   7.798  33.982  11.566
54738W        W18506  18.718  26.560   3.333
54739W        W18507  35.470  34.043  14.346
54740W        W18508  21.633  28.649   4.702
54741W        W18509   2.771  16.607   2.798
54742W        W18510  38.947  29.086  10.639
54743W        W18511  28.105   4.711  14.458
54744W        W18512  40.893   7.827  14.379
54745W        W18513  23.033  36.919   0.300
54746W        W18514   2.921   3.460   4.795
54747W        W18515  24.586  11.695   4.229
54748W        W18516  12.170   1.370  13.409
54749W        W18517  12.163   2.393  14.797
54750W        W18518  12.787   1.243  14.495
54751W        W18519   2.412   6.420   9.968
54752W        W18520  34.466  16.229  13.478
54753W        W18521  41.357  35.565   3.343
54754W        W18522  15.278  10.806  14.912
54755W        W18523  43.514  36.543   4.701
54756W        W18524   3.867  44.310   1.710
54757W        W18525  20.663  16.619  11.396
54758W        W18526  17.269  38.972   1.873
54759W        W18527  38.947  32.439  13.810
54760W        W18528  29.045  37.935   2.356
54761W        W18529  16.233  21.723  11.099
54762W        W18530  42.830  44.423   4.351
54763W        W18531  12.824  43.863  10.952
54764W        W18532   4.780  25.100   9.959
54765W        W18533  12.211  26.584  10.963
54766W        W18534  19.561   5.818   1.884
54767W        W18535  11.368  14.277   1.233
54768W        W18536  21.535   7.701   1.441
54769W        W18537  13.270  13.297   4.687
54770W        W18538   9.749  13.115  11.120
54771W        W18539  16.103  27.969   1.871
54772W        W18540  13.775  31.611  10.938
54773W        W18541  26.181  40.354  13.465
54774W        W18542  14.713   0.402  14.842
54775W        W18543  18.690  21.726   1.273
54776W        W18544  42.982  44.924   0.869
54777W        W18545  26.561  18.260   1.396
54778W        W18546  20.710  22.090   0.463
54779W        W18547  22.553   7.384   5.225
54780W        W18548   9.155   9.389  13.547
54781W        W18549   7.411  36.004  13.010
54782W        W18550   3.452  22.250  11.889
54783W        W18551  10.354  38.480   0.338
54784W        W18552  12.151  12.827  12.834
54785W        W18553  42.983  17.168  14.914
54786W        W18554  27.498  26.194  14.759
54787W        W18555   4.341  23.023  11.566
54788W        W18556  22.522  21.607   1.433
54789W        W18557  17.779  22.537  10.984
54790W        W18558  41.535   7.279   3.254
54791W        W18559  16.719  19.615   2.766
54792W        W18560   4.216  28.165  12.495
54793W        W18561  21.084  15.288   1.318
54794W        W18562  12.362  18.064  12.939
54795W        W18563  33.955  29.057  13.427
54796W        W18564  27.460  36.053   4.757
54797W        W18565  11.172  32.061  13.343
54798W        W18566  15.109   4.701   0.386
54799W        W18567  27.074   5.728   0.782
54800W        W18568  33.505  23.726  10.996
54801W        W18569   1.303   3.955   0.272
54802W        W18570  32.030  20.154   3.320
54803W        W18571  39.829  41.346  13.459
54804W        W18572  34.002  37.521   1.433
54805W        W18573  20.122  23.101  12.881
54806W        W18574  44.505  16.237  10.573
54807W        W18575  44.941  36.576  11.443
54808W        W18576  13.234   5.280  12.367
54809W        W18577   1.266   7.220  13.054
54810W        W18578  33.604  36.906   0.263
54811W        W18579   7.910   3.838   1.417
54812W        W18580  24.627  26.620   2.186
54813W        W18581  36.548  26.507   1.291
54814W        W18582  19.751  34.983   3.787
54815W        W18583  39.892  39.026   4.699
54816W        W18584  21.154  44.942  12.824
54817W        W18585  12.641  44.467   1.402
54818W        W18586  43.308  18.252  13.953
54819W        W18587  33.043  33.931  11.956
54820W        W18588  36.398  15.739   0.803
54821W        W18589  22.680  31.041   4.264
54822W        W18590  23.198  22.113  14.909
54823W        W18591  16.701   7.832   0.886
54824W        W18592  17.302  12.204   3.200
54825W        W18593  41.957  34.015  11.589
54826W        W18594   1.282  10.715   1.776
54827W        W18595  32.547  42.388  11.430
54828W        W18596  26.004   6.705   1.248
54829W        W18597  11.857  42.803   2.251
54830W        W18598  44.267  36.017   5.204
54831W        W18599  41.993  17.774  12.382
54832W        W18600  26.095  24.621  12.973
54833W        W18601  23.543  42.873  10.887
54834W        W18602  26.991  10.733  10.542
54835W        W18603  25.142  23.545   0.765
54836W        W18604  12.664   4.704  13.419
54837W        W18605   6.837  14.117  12.951
54838W        W18606   1.951  13.800  13.806
54839W        W18607  17.093   5.906  13.879
54840W        W18608  24.530  38.326  14.895
54841W        W18609  40.359  10.798   1.707
54842W        W18610  11.160  27.569  14.801
54843W        W18611  34.089   0.985   3.666
54844W        W18612  24.978   2.833   0.908
54845W        W18613  18.238  43.816  12.088
54846W        W18614   7.295  19.187  11.967
54847W        W18615   0.957   8.695   2.236
54848W        W18616  41.899  39.984   4.658
54849W        W18617  40.036  25.622   4.167
54850W        W18618  43.287  15.269  14.801
54851W        W18619  14.708  36.942   3.743
54852W        W18620  15.756  20.042  11.943
54853W        W18621  17.112  25.108   3.297
54854W        W18622  32.521  27.060   0.474
54855W        W18623   4.801  14.294   4.136
54856W        W18624  32.996  20.741   3.794
54857W        W18625   9.332  15.262   2.191
54858W        W18626   9.783  12.838  14.328
54859W        W18627  16.186  12.161  13.388
54860W        W18628  13.714  22.008   3.261
54861W        W18629  18.118   1.879  12.881
54862W        W18630  41.528  15.134  13.932
54863W        W18631   7.875   7.799  13.896
54864W        W18632   6.265   4.741  11.077
54865W        W18633  36.846  33.105  12.083
54866W        W18634  20.549  11.359  11.582
54867W        W18635  33.612  27.508  11.597
54868W        W18636   3.458  38.033  10.461
54869W        W18637   8.339  17.287   0.291
54870W        W18638   7.817  43.436   0.805
54871W        W18639  26.582  44.362   0.324
54872W        W18640  24.991  14.601  12.869
54873W        W18641   7.819  18.711  12.551
54874W        W18642  11.689  19.234  13.467
54875W        W18643  42.501  38.364  11.594
54876W        W18644  43.807  32.474  12.400
54877W        W18645  44.487  25.485  14.312
54878W        W18646  42.819   9.150   5.313
54879W        W18647  16.634  44.006   1.365
54880W        W18648  37.086  41.824   2.188
54881W        W18649  38.569  34.910  11.045
54882W        W18650  38.412  39.898   4.173
54883W        W18651   0.819  34.403   1.909
54884W        W18652  16.248  32.890  11.054
54885W        W18653   2.349  29.139  13.389
54886W        W18654  36.453  28.444  13.849
54887W        W18655  33.451  21.636   1.351
54888W        W18656  38.875  28.059  11.582
54889W        W18657  40.959  44.374   0.751
54890W        W18658  34.423  43.938   3.151
54891W        W18659  22.697   2.419  12.381
54892W        W18660  16.172  16.583  12.540
54893W        W18661  40.995  17.090  12.879
54894W        W18662  18.752   6.710   3.217
54895W        W18663  12.671   3.775  14.292
54896W        W18664  16.570  44.836  10.452
54897W        W18665   2.467  34.040   5.307
54898W        W18666   0.853  33.475   0.350
54899W        W18667  12.162  11.786  12.088
54900W        W18668   2.260  37.966  14.011
54901W        W18669  16.245   2.737   2.226
54902W        W18670   1.400  40.931  12.926
54903W        W18671  24.569  23.730  12.480
54904W        W18672   8.877  15.751  14.412
54905W        W18673  20.081  22.250  10.640
54906W        W18674  15.674  19.755  14.802
54907W        W18675  39.852  44.417   4.614
54908W        W18676  44.915   7.306  11.511
54909W        W18677  17.562  29.495  11.514
54910W        W18678  44.890  12.649   4.671
54911W        W18679  31.594   8.225   4.704
54912W        W18680   9.327  28.669  13.349
54913W        W18681   8.772  15.816   3.827
54914W        W18682  24.125  13.298   5.320
54915W        W18683   2.415  18.259   3.661
54916W        W18684  44.786  29.664  14.430
54917W        W18685  42.980   7.195   1.299
54918W        W18686  26.535  38.565   9.944
54919W        W18687   0.265   8.240  11.968
54920W        W18688  37.487  10.715   1.260
54921W        W18689  22.709   0.390  11.931
54922W        W18690  21.748   2.406  10.623
54923W        W18691  16.599  21.128  13.900
54924W        W18692  28.494  12.149  11.878
54925W        W18693  11.788  42.935  10.502
54926W        W18694  32.407  36.527  12.908
54927W        W18695   7.826  17.086   3.756
54928W        W18696  41.374  23.502   4.747
54929W        W18697  44.387  35.443   2.791
54930W        W18698  15.786  19.164  12.391
54931W        W18699  22.699  18.594  10.137
54932W        W18700  39.535  22.128   3.241
54933W        W18701  22.194  25.072   2.279
54934W        W18702  23.075  32.430   4.634
54935W        W18703  36.381  26.524   0.388
54936W        W18704  24.624  19.085  12.485
54937W        W18705  34.110  24.230  14.841
54938W        W18706  21.565   0.470   1.354
54939W        W18707   3.272  15.708   4.649
54940W        W18708   6.285  43.789  14.791
54941W        W18709   1.463  43.504   1.874
54942W        W18710  11.180  24.525  11.550
54943W        W18711  32.623   0.321  11.126
54944W        W18712  15.737  29.511   3.637
54945W        W18713  36.965  39.492   3.756
54946W        W18714  14.637  28.543   2.219
54947W        W18715  30.648  41.855   3.304
54948W        W18716  13.618  36.374  10.983
54949W        W18717  14.722   4.940  13.954
54950W        W18718  42.008  32.002   1.862
54951W        W18719  28.517  32.139  13.348
54952W        W18720  19.172  28.971  12.068
54953W        W18721   2.443  26.155   0.938
54954W        W18722   3.446  37.859   4.820
54955W        W18723  12.319  27.624   0.937
54956W        W18724  44.453  17.066   2.327
54957W        W18725  38.398  32.472   9.450
54958W        W18726  35.919  11.840   4.189
54959W        W18727   2.860  33.476   3.800
54960W        W18728   1.872  29.949   1.779
54961W        W18729  39.319  40.874   1.897
54962W        W18730  13.133   0.797   4.307
54963W        W18731   9.184  22.037  11.568
54964W        W18732  32.923  19.090   4.250
54965W        W18733  17.256  27.485  13.997
54966W        W18734   3.231  11.673  13.372
54967W        W18735  16.295   8.363  14.888
54968W        W18736   0.881  13.179   1.825
54969W        W18737   1.306  16.144   3.310
54970W        W18738  42.396  39.024  13.921
54971W        W18739   9.785   6.230  10.911
54972W        W18740  15.157  26.018   1.393
54973W        W18741  39.917  39.913  13.865
54974W        W18742  33.076  10.217   3.773
54975W        W18743  20.044  39.490  11.987
54976W        W18744   2.796  38.483  12.940
54977W        W18745  27.065  17.728   1.694
54978W        W18746   5.236   4.834  14.349
54979W        W18747  43.483  28.474   0.334
54980W        W18748   8.262  32.076  12.384
54981W        W18749  22.736  37.873  10.434
54982W        W18750  23.081   7.390   1.733
54983W        W18751  27.131   9.299   4.162
54984W        W18752   8.867   4.328  12.887
54985W        W18753  34.430  43.936   0.369
54986W        W18754  24.134  44.260  14.972
54987W        W18755  30.969  18.637   3.823
54988W        W18756   0.803  14.138  11.584
54989W        W18757   1.749  36.562  12.892
54990W        W18758  10.143  32.102   0.747
54991W        W18759  35.510  34.054   1.819
54992W        W18760  19.113  32.941   0.800
54993W        W18761  41.344  23.094   1.929
54994W        W18762   3.222  33.087  12.576
54995W        W18763   7.181  23.594   1.846
54996W        W18764  33.529  37.546   2.705
54997W        W18765  43.427   9.168   3.805
54998W        W18766  39.875  24.525  11.457
54999W        W18767   7.841  32.083   3.779
55000W        W18768  43.294   6.869  12.985
55001W        W18769  17.116  38.524  10.908
55002W        W18770  19.752  10.320  10.921
55003W        W18771  30.491  29.505  12.463
55004W        W18772  22.021  20.663  12.072
55005W        W18773   2.326   2.325   1.247
55006W        W18774  14.242  43.014   2.256
55007W        W18775  42.782  20.723  12.009
55008W        W18776  23.550  33.948   5.595
55009W        W18777   1.736  24.168  14.512
55010W        W18778  19.758   1.920   4.812
55011W        W18779  31.589  33.492  13.498
55012W        W18780  17.104  13.626  13.815
55013W        W18781   7.266  27.152   1.716
55014W        W18782   5.838  30.101   3.758
55015W        W18783  44.874  39.502   2.696
55016W        W18784  35.531  43.972  14.903
55017W        W18785  20.178   8.272   1.424
55018W        W18786  44.888  35.406   5.180
55019W        W18787  36.941   8.273  14.993
55020W        W18788  12.134  36.036  11.488
55021W        W18789  22.098   8.756  13.902
55022W        W18790  31.465  18.291   2.753
55023W        W18791   0.839  32.933   2.313
55024W        W18792  32.609  11.224  12.523
55025W        W18793  39.427  28.168  11.930
55026W        W18794   9.304  19.204   3.343
55027W        W18795  27.072  17.300  14.373
55028W        W18796   6.201  28.150   2.287
55029W        W18797  25.583   6.869   1.786
55030W        W18798  39.948  10.275   3.363
55031W        W18799   6.859  17.225  12.488
55032W        W18800  27.659  20.565   1.895
55033W        W18801  25.079  29.144  12.921
55034W        W18802   5.796  41.816   4.227
55035W        W18803  44.350   0.487  14.444
55036W        W18804  12.634  21.557   2.415
55037W        W18805  38.912  37.918   4.287
55038W        W18806  20.136  15.724  13.400
55039W        W18807   8.793  13.744   1.896
55040W        W18808  26.198   2.427   3.244
55041W        W18809  36.544  27.616  14.799
55042W        W18810   4.445   8.350   2.261
55043W        W18811  23.188  33.562  11.435
55044W        W18812  41.318  22.742  13.825
55045W        W18813  19.156  37.399   1.915
55046W        W18814  25.714   3.415   2.356
55047W        W18815  31.626  14.625   0.481
55048W        W18816  21.091  17.751  11.406
55049W        W18817  32.498  14.783  14.818
55050W        W18818   2.330  28.004   3.716
55051W        W18819  11.802  19.129   4.775
55052W        W18820   6.300   3.878  12.069
55053W        W18821  17.061  16.077   0.883
55054W        W18822  27.656  21.637   2.225
55055W        W18823  25.050  31.596   2.850
55056W        W18824  27.023   9.182   4.759
55057W        W18825  37.896  38.533  10.549
55058W        W18826  42.324   8.776   1.814
55059W        W18827  12.671  28.183  10.604
55060W        W18828  13.214  37.853   0.289
55061W        W18829  43.376  34.918   4.721
55062W        W18830  12.652  18.750   2.887
55063W        W18831  24.542  23.666   3.326
55064W        W18832  16.177  17.649   4.691
55065W        W18833  38.977  33.080   2.825
55066W        W18834  43.335  41.993   2.822
55067W        W18835  14.758  38.350   2.842
55068W        W18836  29.974  17.286  14.972
55069W        W18837   6.687  15.619   4.138
55070W        W18838  20.717  23.135  11.975
55071W        W18839   0.766  18.754   1.250
55072W        W18840  22.191  17.786  12.485
55073W        W18841  21.571  22.163   3.714
55074W        W18842  15.619   5.808  14.340
55075W        W18843  20.609  23.732   1.319
55076W        W18844  27.584   4.215  10.621
55077W        W18845  40.541  38.963  10.008
55078W        W18846  15.208  38.070   2.248
55079W        W18847  20.619  19.132   1.285
55080W        W18848   4.904  31.024   3.642
55081W        W18849  10.807  35.423  12.400
55082W        W18850  39.880   3.453  10.454
55083W        W18851  38.018  15.587  13.478
55084W        W18852  20.695  31.527   3.858
55085W        W18853  13.609  29.489   1.799
55086W        W18854  41.374  28.632  12.048
55087W        W18855   4.764  43.945   0.248
55088W        W18856  12.355  36.371   2.251
55089W        W18857  34.983  22.729  10.423
55090W        W18858  15.116  18.271  11.513
55091W        W18859   8.822   9.744   2.285
55092W        W18860  41.492  36.954   0.799
55093W        W18861  17.181  18.777   2.772
55094W        W18862   6.241   5.436   1.821
55095W        W18863  12.148  33.877   2.271
55096W        W18864  13.118  17.210  11.382
55097W        W18865  35.387  26.076   2.181
55098W        W18866  15.639  32.009  14.407
55099W        W18867  18.167  35.565   3.656
55100W        W18868  24.563  36.391   2.222
55101W        W18869  19.070   5.751   4.240
55102W        W18870   7.367  34.569  11.387
55103W        W18871  38.990   0.266   3.759
55104W        W18872  25.552  12.635   2.244
55105W        W18873  19.265  15.813   3.172
55106W        W18874  42.849  10.151  13.883
55107W        W18875  24.722  28.988   0.767
55108W        W18876  16.242  27.123  11.959
55109W        W18877   2.420  13.666  11.026
55110W        W18878  13.194  20.160  14.398
55111W        W18879  18.579   6.316   1.781
55112W        W18880  15.291  29.034  11.915
55113W        W18881  39.411  14.629  13.929
55114W        W18882  16.762   5.871   0.301
55115W        W18883  24.013  20.070   0.833
55116W        W18884  19.727  30.136  10.971
55117W        W18885  15.234  24.135  13.034
55118W        W18886  20.569   6.261  14.833
55119W        W18887  24.061   8.317  11.025
55120W        W18888  39.362  15.181   1.334
55121W        W18889   4.830  38.364   2.854
55122W        W18890  42.281  44.892  13.936
55123W        W18891  17.307   3.413  11.419
55124W        W18892   4.779  29.974   0.825
55125W        W18893  18.642  16.663  13.865
55126W        W18894   5.383  27.156  11.510
55127W        W18895  11.144   8.823  14.472
55128W        W18896  15.779  28.108   5.169
55129W        W18897   3.779   6.734   3.184
55130W        W18898  10.816   9.806   2.868
55131W        W18899  26.164  27.120   2.791
55132W        W18900  38.397  43.502  12.519
55133W        W18901  12.696   2.840  14.292
55134W        W18902  39.942   2.919   1.325
55135W        W18903  35.032  33.943  10.939
55136W        W18904   5.386  36.891   3.229
55137W        W18905   2.944  19.207  14.342
55138W        W18906  28.619  43.963  12.049
55139W        W18907   7.738  38.910   5.091
55140W        W18908  16.694  24.082  11.919
55141W        W18909   7.872  15.226   2.248
55142W        W18910   8.219  37.080   4.791
55143W        W18911   8.372   8.341   2.710
55144W        W18912  22.738  14.273   2.859
55145W        W18913   0.429  27.488   3.732
55146W        W18914  27.466  38.888   3.273
55147W        W18915  16.105  22.555   1.821
55148W        W18916  37.494  35.089   2.845
55149W        W18917  39.044  24.004   2.862
55150W        W18918  11.319  33.875  11.465
55151W        W18919  32.008   0.913  11.924
55152W        W18920  12.231  16.230   2.697
55153W        W18921  24.989  19.541   1.220
55154W        W18922  41.817  19.543  11.098
55155W        W18923  22.181   5.428  13.378
55156W        W18924  42.467  19.246  12.568
55157W        W18925  20.103   4.806   2.684
55158W        W18926  22.670  42.413  13.510
55159W        W18927  42.951  41.974  14.003
55160W        W18928  39.852  20.615  13.063
55161W        W18929  38.986  38.920   0.435
55162W        W18930  25.973  40.014  12.438
55163W        W18931  12.185  22.733   2.204
55164W        W18932  30.133   5.422  12.505
55165W        W18933  17.260   6.872   1.273
55166W        W18934  41.529  17.236  11.549
55167W        W18935  34.976  39.421  10.901
55168W        W18936  30.081  25.081  13.434
55169W        W18937  21.040   8.736  11.953
55170W        W18938   8.693  24.645  14.764
55171W        W18939  13.658   7.307   4.828
55172W        W18940   1.738  23.119   2.262
55173W        W18941   3.393  37.401  14.467
55174W        W18942  18.161  20.045   4.162
55175W        W18943  12.336  18.546  12.473
55176W        W18944  32.029  24.144   1.219
55177W        W18945  32.009  33.066   0.268
55178W        W18946  40.378   9.246   1.372
55179W        W18947  39.974  44.909  11.935
55180W        W18948  40.046  28.954   1.254
55181W        W18949  22.577  27.645   1.923
55182W        W18950  44.387   0.798  13.032
55183W        W18951   5.217  17.612   0.467
55184W        W18952  36.409  31.548  14.998
55185W        W18953   7.703  19.202   0.841
55186W        W18954  20.611  16.732   3.364
55187W        W18955  31.586  15.291   4.726
55188W        W18956  19.249   9.750   0.910
55189W        W18957  35.879   4.353   4.824
55190W        W18958   8.313  35.899   0.737
55191W        W18959  14.236  20.714  10.412
55192W        W18960  42.429   3.381  14.456
55193W        W18961  39.873  42.349  14.879
55194W        W18962  38.382  17.649  12.549
55195W        W18963  29.520  39.895   0.440
55196W        W18964  16.271   9.674  10.478
55197W        W18965   8.782  32.406   4.297
55198W        W18966  21.539  27.627   3.300
55199W        W18967  26.188  19.541   2.671
55200W        W18968  36.883  31.532   3.820
55201W        W18969  42.375   4.747  11.397
55202W        W18970  34.088  34.977   1.778
55203W        W18971  15.741  19.181  11.118
55204W        W18972  27.975  39.345   2.807
55205W        W18973  24.674  41.986  14.367
55206W        W18974  33.439  32.459  13.418
55207W        W18975  40.860  11.293  12.510
55208W        W18976  28.950  42.958   1.697
55209W        W18977  10.226   7.820  11.040
55210W        W18978  44.937  30.529  12.891
55211W        W18979  44.333  22.145  12.365
55212W        W18980   0.487  33.499   4.197
55213W        W18981  33.523  16.302  12.443
55214W        W18982  39.335  31.144  12.413
55215W        W18983  14.182  28.622  11.069
55216W        W18984  22.244  38.875  13.815
55217W        W18985  26.536  22.646  12.477
55218W        W18986   2.371  25.999   0.391
55219W        W18987  11.137   5.862  12.062
55220W        W18988  33.614  15.191  12.849
55221W        W18989   0.253  39.056   0.362
55222W        W18990  17.749  23.711  14.410
55223W        W18991  35.361   3.942   4.138
55224W        W18992   5.789   6.347   2.379
55225W        W18993  29.981  38.344   3.816
55226W        W18994  22.629  23.008   1.331
55227W        W18995  39.851  26.593   0.286
55228W        W18996  31.949  36.927  13.998
55229W        W18997  43.941   7.287   1.269
55230W        W18998  23.199   0.343   4.833
55231W        W18999  22.550   6.907  14.444
55232W        W19000  20.172  34.439   1.729
55233W        W19001  14.762  31.925  14.921
55234W        W19002  22.245  24.022  12.015
55235W        W19003  29.451  42.371  11.430
55236W        W19004  28.539  28.078  12.990
55237W        W19005  11.747  21.589  13.345
55238W        W19006   8.345  41.414  11.431
55239W        W19007  25.113  33.588  11.923
55240W        W19008  35.444  11.186   1.878
55241W        W19009  42.866  34.992  11.874
55242W        W19010  22.159  30.032   3.682
55243W        W19011  32.023  31.078  12.898
55244W        W19012   0.790  21.710  12.471
55245W        W19013  21.094  19.647   0.935
55246W        W19014  15.775  22.045   1.375
55247W        W19015  43.271  23.121  12.415
55248W        W19016  17.091  12.217  12.519
55249W        W19017  18.679  30.534  14.453
55250W        W19018  42.953  15.816  12.531
55251W        W19019  23.501  12.182   2.272
55252W        W19020  44.755  20.620  13.060
55253W        W19021   5.920   0.887   0.267
55254W        W19022  31.137   4.246  11.540
55255W        W19023   0.412  35.937   3.637
55256W        W19024  17.299  29.000   3.156
55257W        W19025  42.369  31.899   0.357
55258W        W19026  36.841  41.365   0.484
55259W        W19027  25.544  33.104   4.835
55260W        W19028  25.623  23.117  14.401
55261W        W19029  24.515   9.300  13.308
55262W        W19030  19.728  31.636   1.842
55263W        W19031   0.794  40.414   5.238
55264W        W19032  14.589   1.249  14.475
55265W        W19033  31.640   0.352   4.243
55266W        W19034  27.036  36.867   2.198
55267W        W19035  13.785  11.141   0.922
55268W        W19036  40.365  44.284   2.268
55269W        W19037  19.106  21.733  12.064
55270W        W19038   0.764  14.224   0.836
55271W        W19039  31.989   1.843   1.417
55272W        W19040  19.238   9.855   4.192
55273W        W19041  13.167  44.424   4.727
55274W        W19042   4.437  41.421  10.496
55275W        W19043  36.382  36.487  13.037
55276W        W19044   7.269  18.783  12.948
55277W        W19045   5.832  28.537  12.499
55278W        W19046  36.047  17.112   3.653
55279W        W19047  36.070  25.517  10.896
55280W        W19048   5.750   6.803  12.431
55281W        W19049  11.225  32.027   4.243
55282W        W19050  25.640  30.478  11.993
55283W        W19051  41.867  44.336  13.877
55284W        W19052  15.290  28.459   0.787
55285W        W19053  32.069  21.255   1.811
55286W        W19054  10.306  35.557   2.858
55287W        W19055  37.034   7.905   3.817
55288W        W19056   7.260  28.160  11.551
55289W        W19057   8.852  35.093   1.394
55290W        W19058  22.031  10.659   2.818
55291W        W19059  20.221  17.616   0.953
55292W        W19060  11.672  15.117  13.385
55293W        W19061  19.758  39.340  10.631
55294W        W19062   7.910   3.841  12.898
55295W        W19063  27.130  32.631  14.876
55296W        W19064  16.747  20.170   2.822
55297W        W19065  19.175  34.939  13.018
55298W        W19066  20.599  36.586   2.360
55299W        W19067  11.821  43.927  11.401
55300W        W19068  34.000  38.559  14.781
55301W        W19069  28.502  23.657  13.499
55302W        W19070   7.195  33.119   3.705
55303W        W19071  30.423  34.971  13.401
55304W        W19072  35.366   9.298   4.809
55305W        W19073  36.353  40.800  12.353
55306W        W19074  33.476  40.862  11.886
55307W        W19075  31.434   8.279  11.930
55308W        W19076  37.395  34.613  12.939
55309W        W19077  11.867  43.486  12.529
55310W        W19078  32.553   2.721   3.748
55311W        W19079   4.753  23.235   2.197
55312W        W19080   2.895  22.130  11.116
55313W        W19081  18.249  43.462   1.224
55314W        W19082  23.205   6.874  14.396
55315W        W19083  32.974   2.341  11.442
55316W        W19084  43.300  25.134  11.927
55317W        W19085  43.784   7.887   2.196
55318W        W19086  27.139  39.867   4.253
55319W        W19087  18.073  13.160   4.796
55320W        W19088  15.687  14.774  13.006
55321W        W19089  22.015  23.006  10.504
55322W        W19090   9.821  20.113  10.449
55323W        W19091   0.957   9.791   0.911
55324W        W19092   1.287   5.837   0.910
55325W        W19093   6.285  26.605  11.920
55326W        W19094   3.801  34.537  11.049
55327W        W19095  18.166  36.515   2.731
55328W        W19096  41.910   3.443  12.556
55329W        W19097  36.517   2.375   1.277
55330W        W19098  13.825  39.965   0.393
55331W        W19099  33.402  16.156  12.096
55332W        W19100  39.389   3.452   5.273
55333W        W19101  21.514  30.449   1.699
55334W        W19102  22.736  37.989   0.832
55335W        W19103  21.234  15.730  11.087
55336W        W19104  34.583  28.075   1.236
55337W        W19105  38.360  16.674   0.922
55338W        W19106  13.256   2.402   2.790
55339W        W19107  31.908  28.489  13.867
55340W        W19108  44.008  29.021  13.005
55341W        W19109   3.730  32.470  13.361
55342W        W19110  34.937   2.793  14.425
55343W        W19111  33.880  25.640  14.848
55344W        W19112   8.305   0.981   2.254
55345W        W19113  33.395   6.682  12.073
55346W        W19114  39.327  11.182  12.943
55347W        W19115  15.299  18.706  10.990
55348W        W19116  36.879  34.966  10.900
55349W        W19117  14.807  17.132   4.304
55350W        W19118  11.803  24.543   0.478
55351W        W19119   3.370  18.262  10.498
55352W        W19120  35.892  35.929   1.256
55353W        W19121  26.522  32.946   4.768
55354W        W19122  21.043  30.415  12.391
55355W        W19123  12.279  40.384  11.086
55356W        W19124   3.931  38.041  13.999
55357W        W19125   3.713  26.510   4.833
55358W        W19126  15.649  42.284  10.978
55359W        W19127   6.726   5.803   1.876
55360W        W19128  35.983  36.396  11.485
55361W        W19129  33.119  38.863  11.025
55362W        W19130  37.077  19.201  13.897
55363W        W19131  22.573   1.751  13.808
55364W        W19132  39.861  37.555  13.540
55365W        W19133  19.055  13.654  14.916
55366W        W19134   0.431  21.594  12.428
55367W        W19135   0.803  35.503  11.860
55368W        W19136  41.479  40.486   0.337
55369W        W19137   7.205  15.152   4.671
55370W        W19138  18.632  24.560   0.369
55371W        W19139  26.593  29.613  11.011
55372W        W19140   6.323  18.190   0.906
55373W        W19141  37.493  32.088   4.609
55374W        W19142  30.001  33.449  10.484
55375W        W19143  20.211  30.508   4.144
55376W        W19144  18.083   3.812  11.992
55377W        W19145  38.889   6.299   0.870
55378W        W19146  40.406  18.642  10.537
55379W        W19147  26.992  22.194   4.177
55380W        W19148  37.354  35.083  14.854
55381W        W19149  32.488  12.646   0.863
55382W        W19150   9.242  16.182  14.801
55383W        W19151   6.849  16.619  12.374
55384W        W19152  22.045   4.891  14.769
55385W        W19153   9.347  14.110  12.455
55386W        W19154   4.801  31.090   1.801
55387W        W19155   6.921  41.978  14.967
55388W        W19156  43.286   3.830  12.877
55389W        W19157  14.677   2.790   1.797
55390W        W19158   0.909  38.901  14.954
55391W        W19159  17.214   9.863   3.203
55392W        W19160  22.565   6.418   1.721
55393W        W19161  13.191  36.355  12.947
55394W        W19162  17.613  39.052  12.839
55395W        W19163   2.916  39.392  11.388
55396W        W19164  41.397  23.631   3.847
55397W        W19165  23.697  34.465  13.308
55398W        W19166  44.375  20.693  12.526
55399W        W19167  38.565  31.634   2.751
55400W        W19168  29.561  26.581   0.737
55401W        W19169  20.624  34.516   1.714
55402W        W19170  11.255  16.663  11.904
55403W        W19171  18.729  25.498   0.410
55404W        W19172  39.554  44.767   0.370
55405W        W19173  13.788  18.620  13.916
55406W        W19174  32.494   5.859  12.023
55407W        W19175   5.225  12.630  12.498
55408W        W19176  16.095  40.871  11.000
55409W        W19177  29.612  33.567   1.709
55410W        W19178   0.820   9.865   3.280
55411W        W19179   5.296  39.058   2.678
55412W        W19180  34.946  40.523   3.683
55413W        W19181  20.083  10.672   3.725
55414W        W19182  16.605   8.395   4.700
55415W        W19183  21.674   9.753   4.779
55416W        W19184  38.446  34.081  13.975
55417W        W19185  36.851  10.188  11.420
55418W        W19186  24.499  33.038   2.744
55419W        W19187  27.497   0.744  14.448
55420W        W19188  26.968  26.018  13.493
55421W        W19189  34.912  28.631   0.728
55422W        W19190  39.901  42.334   0.793
55423W        W19191  31.108  12.763   1.262
55424W        W19192   4.799  41.428   0.318
55425W        W19193  31.612  25.500   3.664
55426W        W19194   9.839  28.101  11.961
55427W        W19195  33.623  35.963   5.274
55428W        W19196   9.725  38.392  11.929
55429W        W19197  35.361  43.448  14.293
55430W        W19198  16.620  35.485   1.748
55431W        W19199  14.730  10.352  11.097
55432W        W19200  37.009  17.111   1.773
55433W        W19201  12.846  40.371  14.348
55434W        W19202  44.317   1.355  11.103
55435W        W19203  22.513   9.193  11.441
55436W        W19204   7.267   0.444  12.832
55437W        W19205   7.242   2.869   3.790
55438W        W19206  26.687  30.954  10.979
55439W        W19207  20.714  17.297   3.651
55440W        W19208  22.056  18.142   3.376
55441W        W19209   4.899  30.485   0.282
55442W        W19210  40.881  34.557  12.942
55443W        W19211   7.398  32.481   3.300
55444W        W19212  19.191  10.316  13.430
55445W        W19213  41.967   8.885  14.444
55446W        W19214  35.941   4.714  11.504
55447W        W19215  39.848  11.656   4.754
55448W        W19216  44.757  35.551  13.833
55449W        W19217  30.102  33.043   0.409
55450W        W19218  17.080  35.965  12.053
55451W        W19219   7.893  11.840   1.696
55452W        W19220  32.996  35.604  13.950
55453W        W19221  44.303  41.874   0.316
55454W        W19222   0.310   9.678  12.551
55455W        W19223  32.135  14.173   5.277
55456W        W19224  10.660  21.148   2.754
55457W        W19225   3.335  35.053   5.791
55458W        W19226  32.029  22.201  14.017
55459W        W19227  15.287  26.114  13.993
55460W        W19228   0.750  44.943  12.392
55461W        W19229  19.268  31.936   3.648
55462W        W19230  22.697   7.217  13.404
55463W        W19231  29.024  26.598  13.934
55464W        W19232   5.799   4.406   1.710
55465W        W19233  33.446  38.963   1.225
55466W        W19234  21.166  44.910   0.383
55467W        W19235  16.755   7.712  12.001
55468W        W19236   2.346   9.378   1.421
55469W        W19237  17.205  13.814  11.573
55470W        W19238  42.859  33.511   4.118
55471W        W19239  25.559  41.975  12.371
55472W        W19240   6.322  40.909   0.966
55473W        W19241  22.174   3.444  13.858
55474W        W19242  28.599  28.514   0.301
55475W        W19243   9.734  25.113  11.498
55476W        W19244  35.600   8.718  13.922
55477W        W19245  14.725  32.042   2.845
55478W        W19246  11.241  28.437  12.060
55479W        W19247  43.017  16.131  10.411
55480W        W19248  43.996  22.142  11.054
55481W        W19249  26.587   5.812   3.798
55482W        W19250  10.851   6.894   4.692
55483W        W19251   1.756  23.489  11.404
55484W        W19252  17.712  31.449   4.278
55485W        W19253  32.488  35.525  10.505
55486W        W19254  43.456   1.299   2.351
55487W        W19255  31.967  37.338   9.969
55488W        W19256   4.807  38.486   4.772
55489W        W19257  23.562  36.063  12.373
55490W        W19258   2.852  29.988  14.866
55491W        W19259   6.718   1.256   4.604
55492W        W19260  43.878   9.369   2.843
55493W        W19261   2.233  13.682   0.267
55494W        W19262   9.756   5.251  12.569
55495W        W19263   5.275  38.529   3.153
55496W        W19264  11.215  22.198  12.467
55497W        W19265  10.172  24.989   3.370
55498W        W19266   8.720  38.843   2.894
55499W        W19267  34.900   7.805  11.950
55500W        W19268  17.635  27.542  13.792
55501W        W19269  15.279  37.905  14.444
55502W        W19270  24.127  13.796  11.585
55503W        W19271  20.041   7.275   1.284
55504W        W19272   3.270  23.175   0.928
55505W        W19273  31.469   7.748  11.879
55506W        W19274   5.828  33.007   1.316
55507W        W19275  15.231  26.693   2.665
55508W        W19276  26.079  10.863   0.842
55509W        W19277  26.702  18.112   2.403
55510W        W19278  15.315  10.340   4.629
55511W        W19279  24.606  40.806  14.840
55512W        W19280  44.808   8.272  14.447
55513W        W19281  35.498  25.471  11.997
55514W        W19282  41.922  20.769   2.282
55515W        W19283  20.525  37.861   1.387
55516W        W19284  13.816   9.745  10.918
55517W        W19285   8.352  26.054  10.531
55518W        W19286  16.303  40.421   3.705
55519W        W19287  35.071   8.855  11.445
55520W        W19288  42.371  27.490  14.508
55521W        W19289   7.260  37.072   3.813
55522W        W19290   6.355  10.746  10.459
55523W        W19291  23.659  26.547  11.544
55524W        W19292  42.985  21.734   1.346
55525W        W19293  36.549  40.518   4.225
55526W        W19294  29.127   3.921  14.382
55527W        W19295  30.431  27.154   3.719
55528W        W19296   1.752  40.441  13.531
55529W        W19297   9.348   0.442  10.581
55530W        W19298  17.080  25.650  13.525
55531W        W19299   5.807  41.830  14.285
55532W        W19300  15.292  30.481   2.712
55533W        W19301  19.731  37.456  11.919
55534W        W19302   7.745  27.522  13.954
55535W        W19303  12.652  10.773   1.777
55536W        W19304  35.998  35.031   4.249
55537W        W19305   0.471   0.270   3.167
55538W        W19306  13.161   1.751   0.873
55539W        W19307  27.030  19.764   2.707
55540W        W19308  35.032   3.381   0.403
55541W        W19309  21.042  39.993   0.329
55542W        W19310  24.060  20.703   4.282
55543W        W19311  43.377  36.417   2.313
55544W        W19312  18.563  33.913  13.964
55545W        W19313  28.588  12.818   1.297
55546W        W19314  40.930  34.457   1.292
55547W        W19315  19.266  12.631  11.564
55548W        W19316  35.404  44.470  13.952
55549W        W19317   5.212  13.633  12.057
55550W        W19318  39.861  28.626  10.988
55551W        W19319  25.007  16.581  11.091
55552W        W19320   2.830  15.102   3.336
55553W        W19321  23.076  10.759  13.542
55554W        W19322  27.973  41.897   3.262
55555W        W19323  20.642  18.777  14.277
55556W        W19324  19.592  44.315   3.329
55557W        W19325  24.576  37.851  12.997
55558W        W19326   7.734  23.148   2.780
55559W        W19327  43.357   3.885  11.406
55560W        W19328  20.625   4.934  13.008
55561W        W19329  22.633  44.968   1.271
55562W        W19330  31.531  43.886  10.906
55563W        W19331  34.582  37.361   4.667
55564W        W19332  17.655  34.511   1.381
55565W        W19333  31.636  44.343  11.995
55566W        W19334  12.713  22.509   0.428
55567W        W19335  10.676  15.718  10.990
55568W        W19336  11.284  31.628  12.368
55569W        W19337  28.605  29.579  11.538
55570W        W19338  17.750   7.188   2.831
55571W        W19339  43.770  44.355  11.406
55572W        W19340  31.070  30.521  10.601
55573W        W19341  11.220  43.995   2.737
55574W        W19342  11.747  40.834   0.945
55575W        W19343  37.931  33.000  13.460
55576W        W19344   4.872  16.695   3.786
55577W        W19345  34.873  26.047   2.277
55578W        W19346  34.418  17.137  10.589
55579W        W19347  25.680  44.400  10.133
55580W        W19348   2.365  32.530  14.780
55581W        W19349   2.391  31.503   2.842
55582W        W19350  17.655  22.722   3.784
55583W        W19351  14.708  18.587   4.632
55584W        W19352  19.149  18.720   9.640
55585W        W19353  41.477  29.152  13.378
55586W        W19354   5.853   2.300  12.081
55587W        W19355   2.934   9.670   2.855
55588W        W19356   4.370  23.137   1.817
55589W        W19357  34.558   2.392   2.744
55590W        W19358  11.187  39.853   4.216
55591W        W19359  36.435  26.603  14.411
55592W        W19360   5.437  44.915  11.026
55593W        W19361  37.356   6.313  13.980
55594W        W19362   9.360   9.664  12.567
55595W        W19363  29.571   5.355   4.779
55596W        W19364  10.206   4.434  11.009
55597W        W19365  39.901   5.732   1.241
55598W        W19366  35.394  20.192   4.740
55599W        W19367  17.268  34.985  14.441
55600W        W19368  23.707  13.261   3.368
55601W        W19369  20.723  41.802  12.892
55602W        W19370  44.300  12.723  14.440
55603W        W19371   0.412  26.067   0.265
55604W        W19372   2.445  40.386   0.342
55605W        W19373   9.654   8.858  10.414
55606W        W19374  26.460  37.348   4.219
55607W        W19375  37.936  17.669   1.877
55608W        W19376   3.416   9.727   1.326
55609W        W19377  39.471  17.087   4.794
55610W        W19378   9.750   5.880  13.312
55611W        W19379  32.965  30.604  11.060
55612W        W19380  22.026   1.827   0.876
55613W        W19381  10.795  42.407   4.820
55614W        W19382   9.843  21.561   1.399
55615W        W19383  36.410  10.680  14.361
55616W        W19384  25.615  22.731  13.369
55617W        W19385   4.292  25.566  12.459
55618W        W19386  23.020  38.032  10.932
55619W        W19387  10.788  10.279   2.798
55620W        W19388   6.307  35.017   2.826
55621W        W19389  15.801   8.239   2.235
55622W        W19390   8.714  43.478   4.769
55623W        W19391  10.338  35.563   1.843
55624W        W19392  39.551   1.323   2.797
55625W        W19393  16.568  42.500  11.116
55626W        W19394   1.876  31.477   0.336
55627W        W19395   4.233  13.779   0.472
55628W        W19396  14.164  38.331  11.539
55629W        W19397  12.727  27.600  14.378
55630W        W19398  11.755  20.536   3.676
55631W        W19399  24.088  35.949  11.880
55632W        W19400  38.548   4.769  13.361
55633W        W19401  14.257  21.638   3.251
55634W        W19402  38.859   6.791  12.474
55635W        W19403   0.284  18.676  11.524
55636W        W19404  32.489  42.846  14.878
55637W        W19405  20.596  32.420   4.217
55638W        W19406  43.471  38.551   0.402
55639W        W19407   3.309  41.946   0.762
55640W        W19408  23.082  41.323   1.769
55641W        W19409  40.907  13.298  14.819
55642W        W19410  17.201  11.161  11.077
55643W        W19411  27.090   0.446   2.271
55644W        W19412  34.961  43.496   0.278
55645W        W19413  28.033  30.600  13.939
55646W        W19414  13.694  26.191  10.990
55647W        W19415  33.591  23.555   2.832
55648W        W19416  26.694   6.417   1.836
55649W        W19417   2.383  31.487   0.773
55650W        W19418  38.373  32.400  11.438
55651W        W19419  23.625  26.480  11.955
55652W        W19420   8.350  37.514   3.331
55653W        W19421  39.892  29.602  11.006
55654W        W19422  36.463  40.009  10.154
55655W        W19423   2.791  41.900  11.885
55656W        W19424   8.856  26.551  12.559
55657W        W19425  30.018  27.136   3.226
55658W        W19426  10.318   5.730  10.929
55659W        W19427  19.551  39.546  12.980
55660W        W19428  16.203  12.249   0.321
55661W        W19429  20.662  36.534   3.311
55662W        W19430  23.542   9.301   0.827
55663W        W19431  37.017  14.752   0.841
55664W        W19432  21.081  24.595   0.851
55665W        W19433  16.708  34.951  12.357
55666W        W19434  20.751  43.503   4.618
55667W        W19435  33.594  19.681   3.858
55668W        W19436   4.407  17.230  10.913
55669W        W19437  10.180   4.819  11.051
55670W        W19438   6.813  14.185   2.879
55671W        W19439   7.832  33.114   4.323
55672W        W19440   2.811   3.342   4.226
55673W        W19441  31.898   6.898  13.523
55674W        W19442   3.331   2.822   3.167
55675W        W19443  31.508  26.204   4.809
55676W        W19444  38.959   4.735  13.534
55677W        W19445  29.582  30.037  11.869
55678W        W19446  18.615  20.554   1.782
55679W        W19447  20.617  39.044   1.763
55680W        W19448  33.035   3.243   2.856
55681W        W19449  16.645  41.429   1.322
55682W        W19450  17.755   8.212  10.456
55683W        W19451  44.894  40.818   2.320
55684W        W19452  41.384  26.180  13.012
55685W        W19453  17.685  33.481   1.385
55686W        W19454  35.540   7.222  12.845
55687W        W19455   9.294  41.465   1.898
55688W        W19456  38.054  11.192   1.871
55689W        W19457  17.268  18.674   0.411
55690W        W19458  33.974  43.349  11.532
55691W        W19459  23.127   0.830   3.168
55692W        W19460   3.811  13.143   1.873
55693W        W19461   4.730  13.624  12.999
55694W        W19462  41.399  22.173  11.862
55695W        W19463  41.506  39.441   0.281
55696W        W19464  19.247  34.400   5.244
55697W        W19465  26.177   8.283  11.111
55698W        W19466  22.746  15.582  14.499
55699W        W19467  28.663  37.060  10.953
55700W        W19468  39.043  39.421  13.344
55701W        W19469  37.962   0.393  12.480
55702W        W19470  14.630  36.370  12.029
55703W        W19471  37.908   9.296  12.513
55704W        W19472  18.197  16.254  14.007
55705W        W19473  36.541  15.257  14.345
55706W        W19474  23.004   7.391  12.455
55707W        W19475  20.530  20.555   2.411
55708W        W19476  18.184  14.637  14.505
55709W        W19477  11.827  21.254  14.910
55710W        W19478  42.497  43.298   2.834
55711W        W19479  39.974   5.249  13.921
55712W        W19480   9.304  11.809   1.865
55713W        W19481  12.235  23.713  13.410
55714W        W19482  39.414  19.259   1.881
55715W        W19483  40.348  27.486   2.800
55716W        W19484  43.344  33.936  14.302
55717W        W19485  38.479   4.853   4.779
55718W        W19486  15.785  12.752  11.014
55719W        W19487  27.622  18.115   2.766
55720W        W19488  23.230   6.420  11.475
55721W        W19489  23.050   5.861   0.823
55722W        W19490   8.194  35.872   2.897
55723W        W19491  18.227  15.733  12.432
55724W        W19492  11.806  25.024   5.266
55725W        W19493   1.372  15.761  14.854
55726W        W19494  20.752  40.042   1.361
55727W        W19495  25.642  25.178   3.801
55728W        W19496  27.495  40.010  13.797
55729W        W19497   6.698  33.388   3.214
55730W        W19498  26.482  31.607  13.792
55731W        W19499  11.811  40.956   2.679
55732W        W19500  21.619  31.106  11.128
55733W        W19501  38.477  12.714   3.254
55734W        W19502   4.239  44.988  12.991
55735W        W19503  36.394  43.432   4.294
55736W        W19504   4.255  28.672   1.790
55737W        W19505  10.379  40.423   0.951
55738W        W19506   1.928  22.058  13.038
55739W        W19507  41.879  19.690   0.946
55740W        W19508   7.199   9.767   3.268
55741W        W19509  28.142  40.965   0.304
55742W        W19510  11.295   3.324  11.481
55743W        W19511  12.709  35.413  12.520
55744W        W19512  32.507  28.038   3.718
55745W        W19513  31.584   0.847  11.471
55746W        W19514  25.616  32.066   2.334
55747W        W19515  15.171  29.054   4.226
55748W        W19516  38.361  12.179   1.779
55749W        W19517  38.372   1.920  14.472
55750W        W19518  43.771  19.212  13.801
55751W        W19519  21.173  39.559   3.811
55752W        W19520   2.452  14.785   1.883
55753W        W19521   9.665  40.814   2.402
55754W        W19522  35.973  10.827   2.214
55755W        W19523  10.223  13.712   4.334
55756W        W19524  15.231  40.054  12.053
55757W        W19525  22.139   6.372   2.748
55758W        W19526  22.614  24.146  12.485
55759W        W19527  22.529   1.238  13.857
55760W        W19528   4.318  37.439  13.427
55761W        W19529  19.629  40.341   2.368
55762W        W19530  12.154  22.607  13.321
55763W        W19531  18.767   7.204   0.930
55764W        W19532  37.935   6.258  12.575
55765W        W19533   7.293   9.695   3.742
55766W        W19534  33.988  23.659   2.396
55767W        W19535   9.851  14.673  12.849
55768W        W19536   8.817  21.060  14.860
55769W        W19537   9.759  42.997  11.436
55770W        W19538   2.251  42.333   1.320
55771W        W19539   5.409   8.341   4.792
55772W        W19540  16.704  36.532   0.339
55773W        W19541  43.953  15.800   0.247
55774W        W19542   6.308  23.088   4.276
55775W        W19543  24.524  28.136   0.267
55776W        W19544  16.607  25.087   0.333
55777W        W19545  13.644  37.491   2.333
55778W        W19546  28.504  42.481   4.796
55779W        W19547  36.493  30.614   1.391
55780W        W19548  38.487  11.274   1.837
55781W        W19549  15.680  40.948  12.918
55782W        W19550  42.900  34.429   0.817
55783W        W19551  40.357  43.926  12.015
55784W        W19552  12.678   1.790   3.805
55785W        W19553  26.141  36.885  11.398
55786W        W19554  24.609  36.449   2.673
55787W        W19555  13.801  20.175   4.653
55788W        W19556  31.566  39.388   1.251
55789W        W19557  26.177  13.669   3.233
55790W        W19558  25.057   0.354   1.358
55791W        W19559  36.370  27.487   2.217
55792W        W19560   9.880  38.837  14.455
55793W        W19561   5.215  35.374   9.982
55794W        W19562  36.539  33.131  14.773
55795W        W19563   8.722  40.876   0.262
55796W        W19564  24.103  34.917  11.512
55797W        W19565  27.593  31.154  11.406
55798W        W19566  41.331   6.760  12.522
55799W        W19567  43.956   2.349   4.789
55800W        W19568  34.960  34.996  13.920
55801W        W19569  39.869  13.823  11.968
55802W        W19570  12.258  32.091  12.861
55803W        W19571  17.250  36.098  10.067
55804W        W19572  43.506  22.176  13.517
55805W        W19573  11.227  15.295  12.445
55806W        W19574  38.477  30.987   2.243
55807W        W19575  32.119  14.654  13.450
55808W        W19576  16.586  22.086  10.899
55809W        W19577  18.221  12.276  11.466
55810W        W19578   4.868  24.671  11.018
55811W        W19579  14.727  36.027   1.367
55812W        W19580  18.580   2.295   0.306
55813W        W19581  30.657  41.415  13.914
55814W        W19582  18.109  25.980   4.782
55815W        W19583  16.106  17.767  10.535
55816W        W19584   0.906  37.439   0.268
55817W        W19585   7.771  27.025  14.899
55818W        W19586  39.965  26.535   1.214
55819W        W19587  36.454  29.669   1.270
55820W        W19588  33.474  22.732  14.873
55821W        W19589  15.119  21.095  12.529
55822W        W19590  34.078  20.711  11.601
55823W        W19591  30.657  12.268   3.791
55824W        W19592  28.102  36.415   0.835
55825W        W19593   3.828  42.012  14.391
55826W        W19594  28.049  42.499   1.297
55827W        W19595  35.433  19.712   0.809
55828W        W19596  32.566  15.116   1.795
55829W        W19597  10.162   1.440  11.605
55830W        W19598   3.913  41.881  12.090
55831W        W19599  30.569  14.826   4.700
55832W        W19600   0.813  33.876  14.785
55833W        W19601  39.446  38.438  13.532
55834W        W19602  32.563   4.215  11.923
55835W        W19603  16.110  19.733   4.736
55836W        W19604   0.273  33.046   0.908
55837W        W19605  18.774  12.353  12.537
55838W        W19606  37.386  12.269  10.984
55839W        W19607  32.487  16.094   2.822
55840W        W19608  42.814  23.685  11.513
55841W        W19609  18.256   2.240  11.537
55842W        W19610  34.920  19.587   4.189
55843W        W19611  19.224  37.025  10.535
55844W        W19612   1.288   3.420  13.449
55845W        W19613  30.606   3.934   4.187
55846W        W19614   0.885   4.397   1.290
55847W        W19615  41.495   4.377   1.277
55848W        W19616  17.579  39.950   2.311
55849W        W19617  27.941  20.598  11.992
55850W        W19618  27.175  43.487  11.873
55851W        W19619  43.992  27.584   4.118
55852W        W19620  28.646   2.317  13.312
55853W        W19621   0.320   1.958   3.735
55854W        W19622  29.006  41.903  11.096
55855W        W19623  25.102  26.632   9.927
55856W        W19624  35.471  30.445  13.022
55857W        W19625   8.732  16.171  13.866
55858W        W19626  20.743  42.410   3.151
55859W        W19627  33.031   1.878   0.454
55860W        W19628  17.190  35.997   0.377
55861W        W19629   0.469  17.750   2.685
55862W        W19630  15.150  44.850  13.906
55863W        W19631  21.178  17.090  13.857
55864W        W19632  44.358  24.122   5.233
55865W        W19633  22.007   5.367   0.482
55866W        W19634  43.955  42.952  14.326
55867W        W19635  42.387   1.976   0.457
55868W        W19636  40.867  40.874  10.979
55869W        W19637  34.984   5.209  11.469
55870W        W19638  26.077   8.674  12.058
55871W        W19639  38.881  38.359  10.516
55872W        W19640  25.597  42.899  10.606
55873W        W19641   0.252  14.600   1.431
55874W        W19642  16.790  29.539   1.292
55875W        W19643  35.919  33.971   4.284
55876W        W19644  37.991  10.226  12.429
55877W        W19645  44.316  30.127   1.837
55878W        W19646  27.482  11.171  14.415
55879W        W19647   3.371  25.162   3.663
55880W        W19648  42.828  23.195   1.807
55881W        W19649   7.284  16.723  12.917
55882W        W19650   4.285  18.599  14.297
55883W        W19651  40.459  43.321   3.230
55884W        W19652  36.385  30.487   1.793
55885W        W19653  31.491   1.932  11.101
55886W        W19654   4.363  35.948  13.850
55887W        W19655  12.202  26.577  14.464
55888W        W19656   3.711  41.512   0.258
55889W        W19657  16.318  41.967   0.807
55890W        W19658  23.228   4.744  11.603
55891W        W19659  22.007   1.471   3.816
55892W        W19660   7.673  23.073   4.287
55893W        W19661  18.099  39.962   2.830
55894W        W19662   5.789  23.098   1.701
55895W        W19663  33.988  30.441   0.890
55896W        W19664  12.671  31.029   1.788
55897W        W19665  21.165   3.329   3.273
55898W        W19666  10.154  41.513   3.362
55899W        W19667  34.981  21.077   1.701
55900W        W19668  40.524  13.694   2.374
55901W        W19669  33.625  21.060  11.894
55902W        W19670  18.051  43.417   0.478
55903W        W19671  27.942   5.438   0.288
55904W        W19672   7.312  41.308   2.380
55905W        W19673  22.006  41.812  14.392
55906W        W19674  15.813  36.850   4.114
55907W        W19675  44.431  42.812   0.887
55908W        W19676  18.612   7.798  10.462
55909W        W19677  38.335  41.395  12.395
55910W        W19678  11.351  20.717   1.829
55911W        W19679  19.067   7.243  12.947
55912W        W19680  44.384  44.459  12.404
55913W        W19681  37.524  33.581  13.945
55914W        W19682  42.519  14.646  10.960
55915W        W19683   1.793  27.064  10.558
55916W        W19684  31.135  40.398  13.865
55917W        W19685  41.524  17.208  13.389
55918W        W19686  15.616  31.028  12.501
55919W        W19687  21.625   7.314  14.283
55920W        W19688  28.451  24.611   2.798
55921W        W19689  32.134  35.524   3.173
55922W        W19690  35.589  32.471  12.520
55923W        W19691  15.782  14.238   1.852
55924W        W19692  10.143   2.248  10.610
55925W        W19693  27.948  30.430   0.289
55926W        W19694  34.535  19.712   3.739
55927W        W19695  11.840  39.373  14.445
55928W        W19696   1.266  30.047  14.445
55929W        W19697  43.999  16.699  12.528
55930W        W19698  18.761  40.496  13.444
55931W        W19699   1.862  30.128   4.230
55932W        W19700  29.958  32.519   0.452
55933W        W19701  42.330  40.851   2.801
55934W        W19702   9.303  25.689  10.958
55935W        W19703  27.066   6.911  12.380
55936W        W19704  17.130  33.410   3.661
55937W        W19705  24.166  36.085   3.221
55938W        W19706  21.141  34.613   3.210
55939W        W19707   2.940   2.352   3.272
55940W        W19708  37.966  17.072   4.671
55941W        W19709  12.731  29.662   1.269
55942W        W19710   1.814  40.887   2.669
55943W        W19711   9.881   4.898  14.760
55944W        W19712  36.398  34.109  14.794
55945W        W19713   4.940  22.742   0.931
55946W        W19714   6.396  16.692   1.284
55947W        W19715  18.160  32.633   0.447
55948W        W19716   1.336  12.211  12.381
55949W        W19717  11.686   4.890  13.790
55950W        W19718   5.362  19.704   0.474
55951W        W19719  12.179  22.093   4.653
55952W        W19720  41.793  22.027   4.196
55953W        W19721  22.544  36.990   4.263
55954W        W19722  40.991  15.709   5.104
55955W        W19723  38.027  36.863  14.008
55956W        W19724   0.469  41.431   2.377
55957W        W19725   3.719   4.943  12.826
55958W        W19726   5.293  29.918   2.330
55959W        W19727   0.347   9.178   1.346
55960W        W19728   7.185  14.708   3.169
55961W        W19729   7.776  43.844   3.295
55962W        W19730  20.666   9.752   1.846
55963W        W19731  27.189  38.919  12.469
55964W        W19732  25.981  37.551  12.945
55965W        W19733  41.899   6.848  14.361
55966W        W19734  28.084   7.895  13.315
55967W        W19735   3.433   7.807   3.652
55968W        W19736  41.829  37.505   1.266
55969W        W19737  35.503  17.598   2.766
55970W        W19738  33.585  25.680  14.783
55971W        W19739  21.576  28.544  10.439
55972W        W19740   2.866  43.491   3.307
55973W        W19741   0.945  11.757   3.661
55974W        W19742  21.545   9.751   3.278
55975W        W19743  25.612  14.739   3.747
55976W        W19744  17.602  18.108   3.868
55977W        W19745  25.042  29.123   2.349
55978W        W19746  12.326  29.019   1.850
55979W        W19747   1.352  32.556  14.396
55980W        W19748  10.317  26.687  10.601
55981W        W19749   7.751  34.535   2.215
55982W        W19750  43.435   1.887   2.862
55983W        W19751   5.881   6.725  11.508
55984W        W19752  11.656  24.021   0.923
55985W        W19753  34.450  27.015   1.862
55986W        W19754  43.486  36.939   4.832
55987W        W19755   5.239  11.320   0.951
55988W        W19756  13.325  18.297  14.332
55989W        W19757   4.717  35.870   1.827
55990W        W19758  13.634  34.536  14.804
55991W        W19759   1.895  33.920   4.289
55992W        W19760   2.454  20.187  14.021
55993W        W19761   7.842   5.258   1.773
55994W        W19762  44.784   9.345   3.860
55995W        W19763  11.156  25.601  11.106
55996W        W19764  34.992  37.497  14.030
55997W        W19765  40.529  41.309  11.591
55998W        W19766  31.940  33.434   2.288
55999W        W19767  15.204  22.585  11.051
56000W        W19768  15.137  44.477  12.967
56001W        W19769  44.339  33.463  11.077
56002W        W19770   0.958  18.082  11.016
56003W        W19771  28.532  15.691   2.785
56004W        W19772  28.139   6.838   4.663
56005W        W19773  33.391  31.066  12.521
56006W        W19774   7.344  41.444  12.942
56007W        W19775   8.794  40.963   2.288
56008W        W19776  34.876  14.639   0.306
56009W        W19777  11.162  15.686   2.742
56010W        W19778  41.428  37.857  14.481
56011W        W19779   8.793  20.162   3.386
56012W        W19780   3.390  17.215  11.085
56013W        W19781  37.346   4.446   0.364
56014W        W19782   4.921  24.491  14.341
56015W        W19783  38.077  22.212   4.140
56016W        W19784  37.906  21.189   4.761
56017W        W19785  10.362  17.219   4.669
56018W        W19786  31.954  17.152   3.772
56019W        W19787  28.993   3.785  10.465
56020W        W19788   9.848  11.196   4.671
56021W        W19789  19.075   4.764  12.007
56022W        W19790  31.602  19.211   2.381
56023W        W19791  10.321  34.560  11.481
56024W        W19792  40.545  22.560  14.893
56025W        W19793  44.355   6.372   4.350
56026W        W19794   7.669  37.009  14.938
56027W        W19795  12.851  39.345  11.087
56028W        W19796   9.887  26.168   4.282
56029W        W19797  10.352   9.682   2.191
56030W        W19798  26.702   3.915   2.234
56031W        W19799  25.965  16.783   2.751
56032W        W19800  41.792  12.738   3.166
56033W        W19801  31.446  15.324   1.281
56034W        W19802  28.655  33.598  10.137
56035W        W19803  43.929   0.782   1.847
56036W        W19804  35.506  30.654  13.383
56037W        W19805  33.951  44.378  12.038
56038W        W19806  14.152   2.756  14.876
56039W        W19807  29.957  41.429  13.899
56040W        W19808  26.056  27.115   1.443
56041W        W19809  41.963  24.019  11.994
56042W        W19810  24.582  42.515  13.383
56043W        W19811  16.221  27.056  11.445
56044W        W19812  39.824   6.686  12.026
56045W        W19813   1.805  43.293  10.946
56046W        W19814  30.094  34.972  13.328
56047W        W19815   8.805  24.032   0.251
56048W        W19816  13.811  40.321  10.633
56049W        W19817  18.585  43.878   3.689
56050W        W19818  31.482  25.470   0.936
56051W        W19819  18.105  42.309   1.800
56052W        W19820   0.938  18.063  14.887
56053W        W19821  14.713  19.635   5.185
56054W        W19822   6.778  37.083   4.670
56055W        W19823  20.273  13.327  13.987
56056W        W19824  41.804  24.620   1.892
56057W        W19825   6.311   1.440  10.573
56058W        W19826  42.961   7.765  13.847
56059W        W19827   5.337  16.575   0.958
56060W        W19828  20.138  36.854  14.893
56061W        W19829   8.216  24.702  11.125
56062W        W19830  33.018  32.946   0.413
56063W        W19831  11.745  33.380  10.928
56064W        W19832  43.496  34.021  11.953
56065W        W19833  20.666  43.997  10.562
56066W        W19834  13.797  11.360  10.137
56067W        W19835  36.981  18.136  12.391
56068W        W19836  29.638   9.333  12.895
56069W        W19837  23.035  26.104   4.284
56070W        W19838  11.148  13.734  13.054
56071W        W19839  12.649   0.310   4.735
56072W        W19840  17.688  43.990  10.608
56073W        W19841  44.008   0.252  13.883
56074W        W19842   5.741  33.003  14.861
56075W        W19843  14.275   4.239   2.326
56076W        W19844  22.159  34.417   0.832
56077W        W19845   9.841  39.448  12.445
56078W        W19846  32.141  28.493   3.212
56079W        W19847  30.154   5.322  14.945
56080W        W19848  33.445  36.940  11.484
56081W        W19849  43.302  16.232   3.847
56082W        W19850  20.275  30.069   3.309
56083W        W19851  43.380  19.209  13.994
56084W        W19852   1.397  10.810  12.390
56085W        W19853  34.555  28.470   3.667
56086W        W19854  29.588  41.369   2.342
56087W        W19855  29.076   3.384  11.863
56088W        W19856  41.806  38.340   4.283
56089W        W19857  31.525   3.758  12.855
56090W        W19858  10.140   2.767   1.398
56091W        W19859  14.827  37.888  10.921
56092W        W19860   2.268  27.573   2.410
56093W        W19861  26.123  34.480   0.879
56094W        W19862   4.828  17.168   3.310
56095W        W19863  35.575  16.301   1.233
56096W        W19864  15.128  31.943  10.137
56097W        W19865  14.165  20.658   1.242
56098W        W19866   7.759  38.890   9.988
56099W        W19867   5.292  44.277   2.740
56100W        W19868   8.179  20.198   0.445
56101W        W19869  34.025  24.633   2.229
56102W        W19870  15.635  19.669  12.349
56103W        W19871  20.717  39.372  11.497
56104W        W19872   0.811  39.546   0.857
56105W        W19873  12.656  42.342  12.523
56106W        W19874   8.330  29.486   1.422
56107W        W19875  39.319  34.507  11.412
56108W        W19876  38.510  18.715   1.852
56109W        W19877  38.981  23.608   4.159
56110W        W19878  13.318   9.672  13.796
56111W        W19879  26.540  38.037  11.510
56112W        W19880  18.180  24.059   0.952
56113W        W19881  26.692  41.968   1.696
56114W        W19882  11.631  43.833  11.057
56115W        W19883  12.698  42.304  11.402
56116W        W19884  27.640  13.119   4.695
56117W        W19885  31.514  44.501   3.222
56118W        W19886  24.133  43.006   0.747
56119W        W19887   6.279   6.376  13.339
56120W        W19888  36.361  27.637  12.050
56121W        W19889   9.268   8.753  10.028
56122W        W19890   4.308  31.554   0.856
56123W        W19891  34.079   3.877   2.419
56124W        W19892   1.933  16.196   3.309
56125W        W19893  41.856  37.936  13.829
56126W        W19894  44.418  24.079   2.842
56127W        W19895  35.507  29.425  13.982
56128W        W19896  10.307  25.186  10.965
56129W        W19897   5.231  26.958  12.459
56130W        W19898  44.282   1.765   4.229
56131W        W19899  13.140  18.717   2.221
56132W        W19900  15.283   7.281   4.247
56133W        W19901  23.071  24.172  14.314
56134W        W19902   7.910  30.914  13.826
56135W        W19903  38.875  28.035  12.384
56136W        W19904  36.425   3.950  14.894
56137W        W19905  38.007  35.057   1.367
56138W        W19906  36.031  11.764  11.520
56139W        W19907   5.692  40.414  13.866
56140W        W19908  31.589  34.863  13.892
56141W        W19909  43.486   1.833  12.569
56142W        W19910   4.752  35.569   0.303
56143W        W19911  22.552  16.297  14.885
56144W        W19912   6.410  15.265  14.030
56145W        W19913  13.696  42.305   2.382
56146W        W19914  43.324  34.960  13.472
56147W        W19915  28.048  41.482   4.687
56148W        W19916  25.488  35.446   0.478
56149W        W19917  12.202  39.439   2.185
56150W        W19918   7.871  30.002  13.034
56151W        W19919  36.575  39.481   4.802
56152W        W19920  41.840  40.474  13.878
56153W        W19921  38.360  39.386   1.927
56154W        W19922   4.276  28.976  11.555
56155W        W19923  14.601   1.765   2.756
56156W        W19924  12.646   8.759  13.974
56157W        W19925   6.293  13.639   4.762
56158W        W19926  17.690   8.696  12.845
56159W        W19927   9.328  25.011  13.345
56160W        W19928  34.886  25.666  12.978
56161W        W19929  29.056  36.501   4.235
56162W        W19930   4.791  14.201  11.412
56163W        W19931   2.313  37.451   3.690
56164W        W19932  27.156  11.128   4.768
56165W        W19933  18.095  41.413  12.548
56166W        W19934  29.066   0.878  11.373
56167W        W19935  19.755  41.856  13.424
56168W        W19936  37.000  14.161  14.313
56169W        W19937  42.968   3.357   1.379
56170W        W19938   6.703  40.801   2.738
56171W        W19939  14.662  13.659   9.958
56172W        W19940   4.726  17.160   0.926
56173W        W19941   7.334  34.911   2.738
56174W        W19942  26.494  36.484   4.788
56175W        W19943  14.326   5.767  14.778
56176W        W19944  26.701  22.050   4.317
56177W        W19945   4.372   1.432   3.290
56178W        W19946  36.920  19.704  11.446
56179W        W19947  23.029  38.522  11.085
56180W        W19948  37.368  13.315  14.783
56181W        W19949  42.973   8.849   1.927
56182W        W19950   9.348  27.136  10.580
56183W        W19951  43.364  33.465   2.255
56184W        W19952  42.524  17.685  13.411
56185W        W19953  16.104  21.612  12.005
56186W        W19954   0.982  28.634  11.978
56187W        W19955  39.883   2.389  12.869
56188W        W19956  10.281  20.526  10.468
56189W        W19957  27.488  14.159   0.916
56190W        W19958  18.596  15.755  13.029
56191W        W19959  30.141  24.659  11.577
56192W        W19960  25.170  39.906   1.402
56193W        W19961  31.511   0.431   2.245
56194W        W19962  16.780  15.586   9.454
56195W        W19963  19.181  20.114   0.729
56196W        W19964  23.128   5.877   2.772
56197W        W19965  29.127  23.712   4.337
56198W        W19966  32.527  42.836  10.527
56199W        W19967   4.434   3.765   4.199
56200W        W19968  37.398   3.379   4.790
56201W        W19969  34.025  25.622   3.373
56202W        W19970  12.155   6.276  10.959
56203W        W19971  38.539   2.836  12.485
56204W        W19972  16.755   9.378   2.336
56205W        W19973  14.630  14.338  12.512
56206W        W19974  43.780  17.742   1.732
56207W        W19975  44.815  41.791   2.363
56208W        W19976   7.869   7.896  14.866
56209W        W19977  41.514  19.715  10.409
56210W        W19978   8.247   8.372  12.520
56211W        W19979  32.050   1.926   3.216
56212W        W19980  27.579  38.882  12.395
56213W        W19981  38.886   4.421  13.945
56214W        W19982  40.938  27.988   1.375
56215W        W19983  31.132  26.490  11.938
56216W        W19984  29.581  29.016   4.693
56217W        W19985   8.243  30.435   1.908
56218W        W19986  22.691  27.647   4.757
56219W        W19987  36.932   1.734  13.836
56220W        W19988   7.281  24.117   0.296
56221W        W19989  14.815  19.245  12.082
56222W        W19990  21.116  10.234  10.979
56223W        W19991  35.001  22.706   5.125
56224W        W19992  35.455  14.659  12.987
56225W        W19993  34.937  35.527  14.441
56226W        W19994  38.893  29.576   2.321
56227W        W19995  21.557  18.702   0.277
56228W        W19996  43.829   2.723  14.475
56229W        W19997  17.776   5.359   2.712
56230W        W19998   1.459   0.854  13.053
56231W        W19999   5.330  24.684  11.064
56232W        W20000   6.249   3.888  13.387
56233W        W20001  34.943  24.572   0.940
56234W        W20002   6.743   1.824  14.446
56235W        W20003  25.699  13.339   5.614
56236W        W20004  25.629  21.027  13.923
56237W        W20005  15.146  35.436  13.039
56238W        W20006  34.955  30.564   0.800
56239W        W20007   5.919  25.535   3.319
56240W        W20008  24.159  36.972   2.270
56241W        W20009   4.754  10.227  11.049
56242W        W20010  39.827  12.249  12.405
56243W        W20011  38.068  34.379  12.535
56244W        W20012  43.842  10.306  10.633
56245W        W20013  24.109  21.656   2.363
56246W        W20014  32.038  32.035  13.515
56247W        W20015  39.558  32.440   3.381
56248W        W20016  27.077  42.383  14.790
56249W        W20017   9.671  17.085   0.861
56250W        W20018   3.816   7.338  11.996
56251W        W20019  17.663  20.531   1.402
56252W        W20020  38.860  41.378   9.939
56253W        W20021  15.812  35.368  14.332
56254W        W20022   9.234  18.109  13.348
56255W        W20023  31.122  21.212  14.867
56256W        W20024  22.247  13.685  12.065
56257W        W20025  30.526  42.032  13.014
56258W        W20026  26.593  33.060   1.870
56259W        W20027  16.664  24.498  11.899
56260W        W20028  19.661  11.363   4.152
56261W        W20029  39.839  14.732   0.749
56262W        W20030  24.985  24.557  11.009
56263W        W20031  19.711  38.909   3.631
56264W        W20032   6.808  30.619  14.028
56265W        W20033   6.231  28.485  13.546
56266W        W20034  12.343  39.518  13.325
56267W        W20035  43.441  35.590   2.404
56268W        W20036  43.366   9.246   3.263
56269W        W20037   3.951   5.229   1.736
56270W        W20038  39.484  42.280  11.540
56271W        W20039  12.771  29.950   2.828
56272W        W20040   8.244  17.583   1.843
56273W        W20041  11.750  14.609   1.310
56274W        W20042  33.577  18.718   1.725
56275W        W20043  38.916   9.685  12.049
56276W        W20044  34.056  13.164   3.349
56277W        W20045  42.365   2.920  13.798
56278W        W20046  35.490  24.602  14.280
56279W        W20047  23.018  30.544   0.884
56280W        W20048  13.691  34.549   0.393
56281W        W20049  27.169   1.240   2.266
56282W        W20050  39.847  36.561   4.263
56283W        W20051  42.391  17.274  14.338
56284W        W20052  13.297  32.422   3.799
56285W        W20053   6.684  22.740   0.249
56286W        W20054  36.048  21.537  13.036
56287W        W20055  25.180  43.395  14.388
56288W        W20056  44.404   8.239   2.218
56289W        W20057  35.475  41.000  11.986
56290W        W20058  33.445  25.676   4.296
56291W        W20059  29.476  28.466  14.915
56292W        W20060  10.860   9.871   5.213
56293W        W20061  41.019  24.615   3.292
56294W        W20062  35.891   4.777  10.530
56295W        W20063   0.845  16.674  12.083
56296W        W20064  16.719  30.046   1.390
56297W        W20065  32.054  16.681   1.893
56298W        W20066  35.393  40.900   4.735
56299W        W20067  13.815   3.460  13.943
56300W        W20068  37.900  41.363  12.876
56301W        W20069  27.121   3.731   1.878
56302W        W20070   2.387  40.489  10.459
56303W        W20071  30.541  44.413   2.722
56304W        W20072  11.672  10.332   0.921
56305W        W20073  11.761  19.616   0.252
56306W        W20074   2.767  27.943  12.825
56307W        W20075  30.929  42.776  14.498
56308W        W20076  30.519  27.684  10.121
56309W        W20077  21.184  24.120   3.774
56310W        W20078  11.764  35.919   2.886
56311W        W20079  19.750  29.476  13.534
56312W        W20080  19.555  11.868  11.087
56313W        W20081  27.078   7.901  10.553
56314W        W20082  22.734  16.578  13.538
56315W        W20083  18.632   8.246   1.743
56316W        W20084   6.808   1.798   4.285
56317W        W20085  37.455  21.748  14.496
56318W        W20086  35.975  13.616   1.823
56319W        W20087  19.190  18.163  11.032
56320W        W20088  24.494  12.267   1.435
56321W        W20089   8.693   0.802   2.677
56322W        W20090  24.185  39.924   4.601
56323W        W20091  33.039  35.014  14.770
56324W        W20092  23.192  31.455   2.680
56325W        W20093  24.098  22.683  12.398
56326W        W20094  36.358  10.680   0.898
56327W        W20095  16.812  37.440  12.937
56328W        W20096  32.398  30.082  13.967
56329W        W20097  44.807  19.155  11.128
56330W        W20098  25.037  32.004   0.341
56331W        W20099   4.853  39.875  11.418
56332W        W20100  31.413  35.096  14.830
56333W        W20101   5.426  10.803  12.496
56334W        W20102  12.663  31.066   0.912
56335W        W20103   4.853  40.886   3.220
56336W        W20104  28.064  16.195  10.917
56337W        W20105  17.637   4.311   2.704
56338W        W20106  28.036  22.582   5.223
56339W        W20107  20.085  11.327  14.935
56340W        W20108  40.353   6.713  11.421
56341W        W20109   2.913  14.689  11.531
56342W        W20110  32.024  40.409  11.434
56343W        W20111  16.159  29.032  11.083
56344W        W20112   1.895  42.015  12.437
56345W        W20113  28.953  11.770  10.413
56346W        W20114  10.144  12.836  10.928
56347W        W20115  13.250  17.093  13.359
56348W        W20116  17.744  19.608  11.000
56349W        W20117   4.899  25.190  14.781
56350W        W20118  33.096  11.805  11.058
56351W        W20119  15.126   1.818  13.889
56352W        W20120  13.789  21.070   3.322
56353W        W20121   3.255  41.328  13.957
56354W        W20122  29.552  39.016  11.067
56355W        W20123  33.076  41.844  14.424
56356W        W20124   6.318  12.786   3.731
56357W        W20125  38.854  13.312  10.105
56358W        W20126  17.761   6.290   1.414
56359W        W20127   4.782  40.851  14.944
56360W        W20128  40.923  38.442  13.887
56361W        W20129   3.869  30.111  14.335
56362W        W20130  34.374  14.253  12.073
56363W        W20131   1.888  43.360   0.368
56364W        W20132  12.804  30.536  11.111
56365W        W20133  24.192  38.365   1.717
56366W        W20134  14.304  43.394  11.424
56367W        W20135   9.775   6.796  13.034
56368W        W20136  19.067  43.947   4.652
56369W        W20137  21.613  28.660  10.981
56370W        W20138  28.544  30.160   1.838
56371W        W20139  16.180  29.083  11.430
56372W        W20140  30.045  21.071   2.226
56373W        W20141  38.498  21.088  11.961
56374W        W20142   6.907  14.665  11.971
56375W        W20143   9.764   6.753  14.022
56376W        W20144  34.422  14.609   4.228
56377W        W20145  30.084  21.017   4.651
56378W        W20146  14.645  29.463  13.045
56379W        W20147  32.449  18.257  12.839
56380W        W20148  20.667  44.359  11.881
56381W        W20149  38.481  31.432  13.351
56382W        W20150  19.229  19.603  14.292
56383W        W20151  42.447  41.917   2.268
56384W        W20152   5.421  44.351  10.108
56385W        W20153   0.954  30.448  13.856
56386W        W20154  20.037  18.095  11.970
56387W        W20155  11.190  25.629   1.249
56388W        W20156  44.442   1.788  14.458
56389W        W20157   4.814  26.551  11.425
56390W        W20158  16.114  23.114  13.913
56391W        W20159  33.038   4.721  11.571
56392W        W20160   1.313  25.966  13.851
56393W        W20161  42.867   4.833   2.217
56394W        W20162  40.410  36.370  14.442
56395W        W20163   2.759  31.568   2.189
56396W        W20164  23.015  37.338   3.847
56397W        W20165   9.694  24.653  13.413
56398W        W20166   1.311  13.122  14.473
56399W        W20167   4.746  44.295   0.312
56400W        W20168  11.751   2.767  14.968
56401W        W20169  21.144   2.792  10.588
56402W        W20170  20.656  18.223  13.418
56403W        W20171  13.649  27.032  12.442
56404W        W20172  13.665  29.131   4.213
56405W        W20173   2.318  18.629  10.618
56406W        W20174   9.796  36.371   3.670
56407W        W20175  29.425  28.569  11.126
56408W        W20176  16.124  39.377   3.784
56409W        W20177  44.770  34.587   4.609
56410W        W20178  35.982  24.712   2.220
56411W        W20179  22.076  41.864   2.230
56412W        W20180   5.308  24.994  13.320
56413W        W20181  14.716  37.382   4.714
56414W        W20182  15.821  43.841   0.897
56415W        W20183  38.998  40.899   2.337
56416W        W20184  26.109  26.991  11.485
56417W        W20185   0.378  40.847  10.946
56418W        W20186  25.194  38.527   1.334
56419W        W20187  20.525  32.907  13.321
56420W        W20188  44.400  23.120   0.831
56421W        W20189  13.815  36.474   1.281
56422W        W20190  42.873   1.462  12.944
56423W        W20191  31.576  34.411  13.463
56424W        W20192  14.824  31.064  13.032
56425W        W20193   4.232  17.622   0.333
56426W        W20194  34.473   5.878  13.491
56427W        W20195  31.916  34.957  13.914
56428W        W20196   5.205  28.620   2.837
56429W        W20197  14.722   9.784   0.807
56430W        W20198  27.458  10.785  14.877
56431W        W20199  29.090  18.161   1.744
56432W        W20200  24.978  20.646   0.840
56433W        W20201  23.026   5.435  12.949
56434W        W20202  29.064  20.744  11.392
56435W        W20203   0.905  22.105   4.320
56436W        W20204  42.978  42.334   4.688
56437W        W20205  34.484  18.633   1.840
56438W        W20206  28.576   3.727   3.311
56439W        W20207  30.013   2.410   0.939
56440W        W20208  30.585  28.143  10.466
56441W        W20209  29.042  19.094   2.724
56442W        W20210  23.088   2.727   4.318
56443W        W20211  18.701  14.230  11.418
56444W        W20212  29.115   8.272   0.290
56445W        W20213  40.490  32.030   3.200
56446W        W20214  19.236  14.711   4.611
56447W        W20215   3.241  15.175  12.525
56448W        W20216  32.575  17.205   0.756
56449W        W20217   4.807  33.106   1.785
56450W        W20218  11.651  35.596   3.250
56451W        W20219   5.871  14.149  10.415
56452W        W20220  15.211  20.756   3.825
56453W        W20221   4.435   6.831  12.348
56454W        W20222  33.908  40.916   3.316
56455W        W20223  23.724  30.624  11.926
56456W        W20224  40.332  25.062   5.086
56457W        W20225  34.386  10.182   4.345
56458W        W20226  22.595  12.303  14.355
56459W        W20227  29.135  34.464  12.845
56460W        W20228  23.199  21.079  12.395
56461W        W20229   9.710  16.614  13.816
56462W        W20230  29.586  28.569   2.351
56463W        W20231  14.667  26.690   3.645
56464W        W20232  32.998  24.215  13.978
56465W        W20233  18.654  14.329  13.050
56466W        W20234  18.646  44.782   2.225
56467W        W20235  40.842   2.378   3.830
56468W        W20236  14.833  32.012  13.369
56469W        W20237  36.567   0.261  10.926
56470W        W20238   4.289  42.025   1.228
56471W        W20239  41.352  28.978  12.854
56472W        W20240  18.695  16.092  12.580
56473W        W20241  36.352  11.861   4.793
56474W        W20242  39.923   8.314  10.444
56475W        W20243  39.924  36.582   3.807
56476W        W20244  23.111  27.480  12.417
56477W        W20245  34.911   5.814   3.312
56478W        W20246  13.246  41.454  10.986
56479W        W20247   7.403   0.290  12.435
56480W        W20248  40.462  28.108  12.898
56481W        W20249   0.272   5.328  14.888
56482W        W20250  43.864  11.834   4.696
56483W        W20251  13.730  19.176   1.295
56484W        W20252  33.987  44.331   1.724
56485W        W20253  25.565  42.518  14.330
56486W        W20254   8.770  43.008   3.684
56487W        W20255  35.066  39.398   0.773
56488W        W20256   4.225   0.979  13.315
56489W        W20257  31.615  43.359  12.855
56490W        W20258  32.484  19.206  13.008
56491W        W20259  20.081  29.540   4.829
56492W        W20260  43.990   5.883  10.937
56493W        W20261  28.588  20.186   0.450
56494W        W20262  11.842   6.788  14.404
56495W        W20263  35.100  11.235   0.824
56496W        W20264  36.866  40.494   2.850
56497W        W20265  40.472  44.791   0.731
56498W        W20266  43.821  43.956   1.396
56499W        W20267  18.290  18.759  13.949
56500W        W20268  11.772  44.382  14.761
56501W        W20269  29.472  14.734   1.225
56502W        W20270  16.619  29.549   4.234
56503W        W20271  32.539   9.881   2.292
56504W        W20272   0.865   6.408   4.208
56505W        W20273   3.773   7.785   1.381
56506W        W20274  19.596  13.200   2.301
56507W        W20275  14.724  41.428  10.632
56508W        W20276  12.767   2.276  12.037
56509W        W20277  29.951  25.991   3.732
56510W        W20278  12.641  19.631   1.291
56511W        W20279  13.741  15.228  14.376
56512W        W20280  24.628  41.002   0.344
56513W        W20281  40.399   5.312   3.286
56514W        W20282  26.485  41.973  10.928
56515W        W20283   2.797  22.557  14.961
56516W        W20284  28.028   6.778   1.795
56517W        W20285  32.935  33.411   1.824
56518W        W20286   5.897  36.444  13.045
56519W        W20287  15.156  23.999  14.798
56520W        W20288  40.449  23.109   1.818
56521W        W20289  26.208   1.362   4.178
56522W        W20290  11.658  37.419   5.253
56523W        W20291  11.779  19.558  10.908
56524W        W20292  30.069  15.185   2.203
56525W        W20293  14.610  36.404   0.402
56526W        W20294  43.879  11.271   1.728
56527W        W20295  11.347  34.964  12.053
56528W        W20296  23.728  14.702  13.504
56529W        W20297  38.848  21.233   9.942
56530W        W20298  17.753  28.942   1.889
56531W        W20299  24.046  30.481   3.351
56532W        W20300   5.874  24.668   2.826
56533W        W20301  36.352   8.290   3.262
56534W        W20302  33.414  18.671  13.958
56535W        W20303  23.061  26.471   3.701
56536W        W20304  31.442  32.621   3.846
56537W        W20305   6.410  11.668  14.422
56538W        W20306  44.942   6.324  14.351
56539W        W20307  11.793  30.593   4.717
56540W        W20308   0.321  25.086   3.360
56541W        W20309  33.100  28.584   1.816
56542W        W20310  20.251  37.900   4.261
56543W        W20311   5.202  39.407   1.755
56544W        W20312  27.055  29.170   1.746
56545W        W20313  27.052  14.258  13.436
56546W        W20314  27.077   9.289   1.219
56547W        W20315  39.053  31.057  13.858
56548W        W20316   3.265  21.757  11.908
56549W        W20317   2.251  31.560  11.985
56550W        W20318  13.684  13.684   3.816
56551W        W20319  33.981  30.937   2.280
56552W        W20320   6.198  27.169   0.750
56553W        W20321  23.218   6.762  10.411
56554W        W20322   6.697   7.254   3.734
56555W        W20323  21.689   0.861  10.535
56556W        W20324  30.140   5.764  13.005
56557W        W20325  44.346   9.213  10.631
56558W        W20326  36.505   6.703   9.568
56559W        W20327  19.705   9.811   0.841
56560W        W20328  19.642  12.725  14.375
56561W        W20329  32.115   9.283  13.912
56562W        W20330  21.218  38.372  14.474
56563W        W20331  28.473  36.015   4.661
56564W        W20332  42.859  33.470   1.759
56565W        W20333  13.247  27.657  10.904
56566W        W20334  16.651  10.671   3.702
56567W        W20335  39.921  23.537  10.406
56568W        W20336   7.333  12.143   0.287
56569W        W20337   6.692  31.036  11.072
56570W        W20338   4.886  38.956  14.883
56571W        W20339  30.118  23.185  11.514
56572W        W20340  26.151   8.817  14.813
56573W        W20341  43.965   9.803  12.387
56574W        W20342   6.348   0.808   4.641
56575W        W20343  31.047   7.811   1.787
56576W        W20344   2.351  11.301   0.883
56577W        W20345  33.595  22.555  12.426
56578W        W20346  32.010  40.986   3.157
56579W        W20347  10.362  24.584   3.667
56580W        W20348   7.398  42.934   2.223
56581W        W20349  19.201  24.198   5.694
56582W        W20350   0.489   9.188   1.889
56583W        W20351  10.352  27.469   1.307
56584W        W20352  29.968  41.965   1.359
56585W        W20353   7.216  40.049   4.698
56586W        W20354  17.738   9.828   3.660
56587W        W20355   0.406  15.750   2.701
56588W        W20356  38.845   0.750   2.191
56589W        W20357  14.307  34.968  11.045
56590W        W20358  41.979  21.553  10.461
56591W        W20359   9.743  11.264   0.294
56592W        W20360  35.025  33.383   3.372
56593W        W20361  16.186  21.713   0.402
56594W        W20362  34.561   0.916   3.770
56595W        W20363  33.591   3.421   3.839
56596W        W20364  27.064  12.328  14.362
56597W        W20365  16.194  33.958  12.826
56598W        W20366  16.696  17.198  13.311
56599W        W20367  36.362  41.417   0.831
56600W        W20368  29.668  34.894   3.689
56601W        W20369  32.525   8.704  14.344
56602W        W20370  43.383   2.732   2.356
56603W        W20371  11.842  19.213   2.861
56604W        W20372  41.462  14.302   2.795
56605W        W20373  30.622  29.496   3.646
56606W        W20374  10.759  26.205   2.716
56607W        W20375  29.045  26.463   1.795
56608W        W20376  10.258  20.068   0.475
56609W        W20377   7.364  31.068   1.257
56610W        W20378   8.345  12.326  14.840
56611W        W20379  19.246  23.594   2.396
56612W        W20380  38.956  41.924   2.408
56613W        W20381  11.632  14.293  14.446
56614W        W20382  33.412  18.637   0.474
56615W        W20383   0.893  27.541   2.664
56616W        W20384   9.702   4.280  14.309
56617W        W20385   3.770   1.964  10.407
56618W        W20386  42.809   9.369   0.371
56619W        W20387  29.610  37.851  11.553
56620W        W20388  21.077  19.063  13.488
56621W        W20389  15.249  13.827   3.231
56622W        W20390  19.040  17.221  13.349
56623W        W20391  16.252  31.967  14.395
56624W        W20392  25.667  32.081   1.852
56625W        W20393  29.925   0.390   0.759
56626W        W20394   8.870  30.087  14.762
56627W        W20395  22.738  16.612   3.812
56628W        W20396  30.615  27.108  10.525
56629W        W20397  32.956  25.705   4.716
56630W        W20398  42.018  21.230  14.001
56631W        W20399  32.989  17.563  13.992
56632W        W20400  21.135  43.825  14.496
56633W        W20401   1.295  32.393  13.823
56634W        W20402   8.365  12.274   1.735
56635W        W20403  28.168  25.147   0.864
56636W        W20404   5.215  20.055  11.959
56637W        W20405  14.302  40.994   2.279
56638W        W20406  22.701   8.803  10.953
56639W        W20407  35.590  25.071  14.990
56640W        W20408   7.780  19.613   0.882
56641W        W20409  35.056  10.275   1.247
56642W        W20410  29.024  28.484  13.534
56643W        W20411  20.058  20.263  11.533
56644W        W20412  11.162   9.361   1.752
56645W        W20413  31.051  23.076   3.378
56646W        W20414  40.328  31.950   3.682
56647W        W20415  17.136  39.841   1.427
56648W        W20416  42.932  41.883   2.691
56649W        W20417  29.936  35.503  11.430
56650W        W20418   2.767  13.266  12.848
56651W        W20419  18.245  22.251   2.790
56652W        W20420  31.595  19.051   1.391
56653W        W20421  16.680  39.511   3.149
56654W        W20422   4.881   2.918   2.737
56655W        W20423  18.252   9.350  12.463
56656W        W20424  24.228  26.529  11.057
56657W        W20425  36.019  39.023  10.996
56658W        W20426  34.446  27.690  13.039
56659W        W20427  11.749  14.641  13.357
56660W        W20428  18.186  23.187  10.151
56661W        W20429  37.413  41.821  13.010
56662W        W20430   8.386  11.813   0.919
56663W        W20431   1.896  15.707  13.012
56664W        W20432  32.900   2.294  10.463
56665W        W20433  36.897  41.303  11.530
56666W        W20434   8.268  25.613  14.785
56667W        W20435  35.585  39.388   1.721
56668W        W20436   8.240  10.305   3.354
56669W        W20437  16.691  35.934  11.573
56670W        W20438  10.830  41.371  10.443
56671W        W20439  40.036  10.210   1.219
56672W        W20440  44.457  13.263  14.305
56673W        W20441  27.556  43.497   2.185
56674W        W20442  40.839  33.529   4.724
56675W        W20443  13.755  41.809   0.922
56676W        W20444  21.253  42.890   5.294
56677W        W20445  13.796  25.105  11.914
56678W        W20446  27.594   9.740   2.702
56679W        W20447  12.257  19.046  13.945
56680W        W20448  40.318  44.304  13.434
56681W        W20449   1.778  41.873   2.795
56682W        W20450  13.665  18.553   0.330
56683W        W20451  29.975  15.252   3.150
56684W        W20452   3.890   4.365  10.465
56685W        W20453   9.215   3.759   1.695
56686W        W20454   3.730  12.155  11.034
56687W        W20455   6.272  22.111   3.204
56688W        W20456  28.034   1.251  10.495
56689W        W20457  30.125  20.265  12.968
56690W        W20458  38.538  15.304  13.380
56691W        W20459  39.874  37.867   2.412
56692W        W20460  29.014  30.956  13.050
56693W        W20461  33.587  33.124  13.390
56694W        W20462  19.130  20.727   0.789
56695W        W20463  42.370  10.665  13.945
56696W        W20464  20.268  17.570   2.823
56697W        W20465   1.963  34.042   0.300
56698W        W20466   9.678   1.434   1.278
56699W        W20467  31.052  21.113   4.617
56700W        W20468  11.226  43.784  14.471
56701W        W20469  32.120  11.634  12.462
56702W        W20470   9.230  39.030  13.392
56703W        W20471  25.480   9.317  12.371
56704W        W20472  43.871  42.027   2.373
56705W        W20473   1.410  23.080  11.856
56706W        W20474  30.618  36.474  10.582
56707W        W20475   2.261  37.367   1.929
56708W        W20476  16.295  44.472   2.763
56709W        W20477  10.312  42.906  12.556
56710W        W20478  31.529  23.530  13.838
56711W        W20479  18.103  13.763   0.327
56712W        W20480  34.595   6.232  10.941
56713W        W20481  34.555  36.965   4.826
56714W        W20482  44.865  44.802  11.987
56715W        W20483  16.649  34.992   1.340
56716W        W20484  23.675  17.669   0.347
56717W        W20485  31.048  13.304  11.126
56718W        W20486  38.983  31.939   1.808
56719W        W20487   6.322  34.872  14.391
56720W        W20488  29.026  33.958  10.982
56721W        W20489  18.212   1.865  12.024
56722W        W20490  41.329   3.279   3.762
56723W        W20491  30.130   1.253  13.915
56724W        W20492  20.248  15.643   4.231
56725W        W20493   3.299  36.471   1.321
56726W        W20494  21.588  18.621  11.516
56727W        W20495  18.789  35.881  13.008
56728W        W20496  21.027  28.068   2.803
56729W        W20497  21.678  39.032   2.406
56730W        W20498  35.960  19.541  10.581
56731W        W20499  18.774  35.087  12.353
56732W        W20500  37.050  12.127   3.348
56733W        W20501  17.694  30.090   1.384
56734W        W20502  21.125  32.072  13.432
56735W        W20503  44.274  35.067   2.890
56736W        W20504  12.730  17.153  11.008
56737W        W20505  26.636   8.298  11.592
56738W        W20506  15.653  18.182   2.331
56739W        W20507  33.975  14.786  13.940
56740W        W20508  16.745  16.809  11.090
56741W        W20509  30.527  43.343  10.945
56742W        W20510  24.176  13.212  13.307
56743W        W20511   2.372  20.249  10.527
56744W        W20512  21.056  39.812  13.039
56745W        W20513  12.201  31.061  11.527
56746W        W20514  41.471  14.600  10.513
56747W        W20515   1.904  36.522   4.202
56748W        W20516  14.116  38.875  14.382
56749W        W20517  12.342  21.133  13.801
56750W        W20518  23.720  10.831  13.976
56751W        W20519   7.869  21.241   1.806
56752W        W20520  14.274  29.935   4.316
56753W        W20521  41.922  11.622   1.802
56754W        W20522   9.696  12.727   2.771
56755W        W20523   2.781   2.758   1.266
56756W        W20524  23.670  28.037  11.449
56757W        W20525  13.698  22.012  14.930
56758W        W20526  43.874  42.358  11.072
56759W        W20527  37.429  40.936  13.882
56760W        W20528  16.719  17.230   4.215
56761W        W20529  12.838  29.534   3.224
56762W        W20530  32.077   5.400  14.354
56763W        W20531  18.097  44.856   2.382
56764W        W20532  33.532  23.079   2.333
56765W        W20533   0.407  41.509   2.722
56766W        W20534  38.491   4.431  11.935
56767W        W20535  21.230   6.844  14.018
56768W        W20536   1.335  34.098   0.959
56769W        W20537  18.287  17.140   2.755
56770W        W20538  13.758   3.391  11.420
56771W        W20539  16.600   7.837   2.247
56772W        W20540  23.030  14.764   2.338
56773W        W20541  18.548  18.163   4.759
56774W        W20542  13.716  15.675   4.213
56775W        W20543   5.828   6.681   0.380
56776W        W20544  23.170  12.844   0.790
56777W        W20545  34.058  21.219  11.919
56778W        W20546  14.167  22.213  14.810
56779W        W20547  14.310  31.138   2.412
56780W        W20548  10.705   4.865   4.785
56781W        W20549   9.733  39.929   3.701
56782W        W20550   8.887  41.487  11.031
56783W        W20551  43.375   2.253  10.899
56784W        W20552  22.516  37.571  14.351
56785W        W20553  12.310  24.069  10.459
56786W        W20554  12.751  43.008   2.837
56787W        W20555  38.384  36.440   0.265
56788W        W20556  18.584  15.217  14.856
56789W        W20557  34.415  19.201  10.444
56790W        W20558  23.136  33.411   2.678
56791W        W20559   2.944   3.888  13.331
56792W        W20560  39.041  36.960  10.570
56793W        W20561  43.310   7.215   4.314
56794W        W20562   6.851  28.656  13.495
56795W        W20563  42.453  22.549  12.003
56796W        W20564  40.829  18.608  11.860
56797W        W20565  35.051  33.100  14.980
56798W        W20566  22.607  28.144   3.180
56799W        W20567  41.911  43.499  13.478
56800W        W20568  32.957  17.123  13.310
56801W        W20569  34.942  14.229   1.286
56802W        W20570  23.586  37.866  11.117
56803W        W20571   3.257   1.785  13.921
56804W        W20572  35.021  29.659   0.927
56805W        W20573  38.484  34.455  12.390
56806W        W20574  42.520   9.191   4.763
56807W        W20575  25.696  25.489  12.952
56808W        W20576  42.992  28.010  11.900
56809W        W20577   9.257   1.834  13.992
56810W        W20578  16.695  21.587  12.454
56811W        W20579   3.222  43.270  13.329
56812W        W20580  32.394  41.452   2.667
56813W        W20581  21.133  15.083   4.130
56814W        W20582  19.161  21.105   0.467
56815W        W20583  27.507   9.860  14.363
56816W        W20584  11.750   3.867  10.988
56817W        W20585  36.011  38.839  13.005
56818W        W20586  36.395  19.540  14.279
56819W        W20587  34.429  18.201   4.249
56820W        W20588  31.107  23.199   0.872
56821W        W20589  21.237  16.721  13.451
56822W        W20590  27.591  42.363   2.868
56823W        W20591  21.232  12.853   4.127
56824W        W20592  23.003  42.413  14.305
56825W        W20593  12.273  20.758   1.785
56826W        W20594   4.909  21.136   9.951
56827W        W20595  29.595  15.774  11.479
56828W        W20596  39.395  23.562   1.767
56829W        W20597   1.237  16.214  10.486
56830W        W20598  41.789  39.033   0.462
56831W        W20599  20.559   6.703  13.374
56832W        W20600  32.000  17.689  14.333
56833W        W20601   4.270   3.221   0.246
56834W        W20602  17.174  40.512   3.789
56835W        W20603  26.027  24.679  14.807
56836W        W20604   5.200  32.945  13.318
56837W        W20605  18.106  36.066   0.959
56838W        W20606  22.581  19.644   3.679
56839W        W20607  44.911  16.253   4.142
56840W        W20608  40.528  17.227  14.870
56841W        W20609  26.128   5.268  10.410
56842W        W20610  35.047  31.930   5.297
56843W        W20611  25.062  12.661  14.797
56844W        W20612  33.988  14.829  14.394
56845W        W20613  23.588   6.732   1.893
56846W        W20614   6.244  29.040  12.869
56847W        W20615  35.898   8.681   4.224
56848W        W20616  31.511   1.255   3.718
56849W        W20617  13.207   1.906  14.790
56850W        W20618   1.302  30.937   0.832
56851W        W20619  16.750  39.523  13.024
56852W        W20620  14.620  15.774  12.025
56853W        W20621  12.341  29.570  12.831
56854W        W20622   6.250  39.346   3.637
56855W        W20623  28.051  28.008  12.971
56856W        W20624   2.882  24.720  12.075
56857W        W20625  11.740  30.942  13.014
56858W        W20626   0.427  15.724   4.775
56859W        W20627  33.574  41.872  12.032
56860W        W20628   1.753  28.528  12.828
56861W        W20629   0.294  17.246  13.816
56862W        W20630  13.818  34.929  11.573
56863W        W20631   2.865   6.325   4.796
56864W        W20632  17.719  17.756   1.847
56865W        W20633  41.491  15.613   2.280
56866W        W20634  17.231  19.083  12.468
56867W        W20635  13.330  28.544   0.475
56868W        W20636  40.855  32.023   0.454
56869W        W20637  11.791   0.438  13.955
56870W        W20638  32.085  20.133   1.699
56871W        W20639  22.564  15.150   0.852
56872W        W20640   7.324  22.029  13.889
56873W        W20641  17.063  26.072  10.444
56874W        W20642  20.709   3.285   0.938
56875W        W20643  26.149  25.517   2.672
56876W        W20644   9.209  14.256  10.929
56877W        W20645  34.450  10.168  14.443
56878W        W20646   9.312   1.433   0.782
56879W        W20647  28.964   4.310  12.995
56880W        W20648  30.529  13.105   2.263
56881W        W20649  39.982  32.064   3.241
56882W        W20650  31.519  17.745  11.493
56883W        W20651   4.758  21.239   1.378
56884W        W20652  39.452  23.704   2.305
56885W        W20653  29.078  26.985   4.217
56886W        W20654  22.065  25.510   4.631
56887W        W20655  37.923  44.377  12.014
56888W        W20656   6.742   8.848  12.990
56889W        W20657   5.800  37.926  13.395
56890W        W20658  14.309  26.620  11.052
56891W        W20659   0.808  40.866  10.965
56892W        W20660   0.345  25.532   1.779
56893W        W20661  40.474  16.121  11.081
56894W        W20662   3.434  28.033  12.975
56895W        W20663  11.312   3.755   3.681
56896W        W20664  36.079  10.781   4.310
56897W        W20665  14.327  26.457  11.497
56898W        W20666  30.991  44.893   3.249
56899W        W20667  21.019   1.842   4.654
56900W        W20668  22.719  23.065   2.858
56901W        W20669  33.404  22.615   4.615
56902W        W20670  21.568  39.867  14.394
56903W        W20671  34.878  30.515   3.834
56904W        W20672  24.049  40.452  12.548
56905W        W20673   3.955  35.855  13.972
56906W        W20674  17.180  24.723  11.545
56907W        W20675   7.774  14.672   0.429
56908W        W20676  35.987   9.194  13.923
56909W        W20677  11.675   7.182   3.715
56910W        W20678   3.456  42.001   3.216
56911W        W20679  22.029   7.284   0.902
56912W        W20680  43.299  26.207  12.444
56913W        W20681   6.255  44.758   0.287
56914W        W20682   8.770   4.867  14.008
56915W        W20683  15.738  29.009   0.729
56916W        W20684   8.285   1.788  12.004
56917W        W20685  14.120  12.615  12.516
56918W        W20686  25.082  19.164  10.426
56919W        W20687  40.964  21.251  12.395
56920W        W20688  34.001   7.333   3.347
56921W        W20689  18.783  20.029  11.564
56922W        W20690  34.412  40.987   2.380
56923W        W20691  27.043  32.050  10.149
56924W        W20692  15.712  18.214   3.826
56925W        W20693  14.687  41.825  11.549
56926W        W20694  14.702   6.687   2.717
56927W        W20695   3.350   0.884  13.049
56928W        W20696   8.768  10.718  13.905
56929W        W20697  23.123  17.191  14.500
56930W        W20698  40.917  28.478  13.866
56931W        W20699  26.567  36.951  14.806
56932W        W20700  31.110  31.927   4.668
56933W        W20701  16.639  23.145   2.288
56934W        W20702  14.263  32.004   4.304
56935W        W20703  34.059  25.100  11.985
56936W        W20704  26.057   3.832  11.562
56937W        W20705  16.094  26.591  13.344
56938W        W20706   7.309  20.651  11.520
56939W        W20707  21.161   3.736   2.310
56940W        W20708  13.658   6.900  12.058
56941W        W20709  30.619   5.302   2.184
56942W        W20710  21.161  44.863  11.045
56943W        W20711  20.561  29.019  12.571
56944W        W20712   8.766  11.815  13.537
56945W        W20713  39.393  37.037  12.425
56946W        W20714   9.742  38.019   3.171
56947W        W20715  25.984  18.191   0.859
56948W        W20716  15.808  40.816   4.352
56949W        W20717  15.704  16.076   4.317
56950W        W20718  37.049   5.421   2.325
56951W        W20719  36.860  26.976   0.820
56952W        W20720  21.224  15.242  14.882
56953W        W20721  39.897  22.106   4.126
56954W        W20722  24.585   5.352  13.436
56955W        W20723  36.958  28.588  14.290
56956W        W20724  13.205  25.581  12.062
56957W        W20725  38.442   7.756  10.936
56958W        W20726  23.044  19.690   3.635
56959W        W20727  28.062  34.374   4.316
56960W        W20728  22.744  14.135   5.297
56961W        W20729  43.511   3.808  14.812
56962W        W20730  39.398  21.242  12.025
56963W        W20731   1.340  33.001   4.211
56964W        W20732  23.987  34.424   3.768
56965W        W20733  40.007  44.850   3.678
56966W        W20734  20.733  25.151   1.279
56967W        W20735  27.986  20.140   2.891
56968W        W20736   9.231   1.952   3.152
56969W        W20737  40.801  13.116   4.827
56970W        W20738  10.152  43.271   3.766
56971W        W20739  13.784   3.440   0.349
56972W        W20740  30.965   9.716   2.351
56973W        W20741   4.766  23.565   1.740
56974W        W20742  42.452  35.526  11.609
56975W        W20743  14.152  21.190   3.715
56976W        W20744  19.089  21.157  12.092
56977W        W20745   5.814  23.554  10.540
56978W        W20746  23.492  17.781   3.807
56979W        W20747  28.615  43.487   0.391
56980W        W20748   3.771  40.018  13.309
56981W        W20749  22.595  22.083  13.829
56982W        W20750  30.108   3.225   3.703
56983W        W20751  28.477  10.385   0.822
56984W        W20752  43.375   7.892   3.203
56985W        W20753  14.117  16.148   0.267
56986W        W20754  22.592   3.438   2.901
56987W        W20755  15.586  21.224  13.923
56988W        W20756  38.849  17.274   4.619
56989W        W20757   9.681  28.125   3.337
56990W        W20758  38.958  18.682  11.486
56991W        W20759  33.952  29.158  14.954
56992W        W20760  36.555  15.584  12.989
56993W        W20761  13.200  12.765   2.276
56994W        W20762  35.478  21.262  13.413
56995W        W20763  26.495  39.942  11.901
56996W        W20764   0.443  25.148   4.157
56997W        W20765  35.520   4.797   2.308
56998W        W20766   2.784   8.370   3.767
56999W        W20767  36.457  13.729   1.831
57000W        W20768  43.351  21.573  12.077
57001W        W20769  36.047  26.489  11.538
57002W        W20770  10.724  30.471   3.828
57003W        W20771   3.256  29.618  13.311
57004W        W20772  35.450   4.371   1.285
57005W        W20773   3.737  10.369   3.314
57006W        W20774   3.319  25.484  13.943
57007W        W20775  41.026  14.155   3.297
57008W        W20776  33.923  16.142  14.849
57009W        W20777  27.625  41.424   2.901
57010W        W20778   9.784  32.050   3.780
57011W        W20779  37.951  13.205  13.451
57012W        W20780  29.033  20.246   2.282
57013W        W20781  29.429  18.220   5.185
57014W        W20782  23.526  42.888  11.926
57015W        W20783  34.455  28.481   4.164
57016W        W20784   0.977  22.250   0.769
57017W        W20785  13.213  39.903   0.873
57018W        W20786  29.607  35.880  12.082
57019W        W20787  26.186  29.124   4.719
57020W        W20788  34.413  38.552  14.020
57021W        W20789  13.829  26.124  13.825
57022W        W20790  33.069  32.571  14.316
57023W        W20791  20.557  13.152  11.967
57024W        W20792  19.608  13.717   1.726
57025W        W20793  19.206   1.894   4.794
57026W        W20794   7.413  34.588  12.557
57027W        W20795  42.294   7.312  14.845
57028W        W20796  38.388  26.484   4.171
57029W        W20797  35.568  29.617   2.417
57030W        W20798  34.458  37.469   3.750
57031W        W20799  23.632  28.046   2.761
57032W        W20800  24.616  35.902   1.769
57033W        W20801   2.304  41.989   4.611
57034W        W20802  41.517  13.791  12.395
57035W        W20803  12.157  41.352   4.267
57036W        W20804  27.041   4.444   3.291
57037W        W20805  11.626  40.390  14.915
57038W        W20806   4.837   6.237   4.691
57039W        W20807   6.359  36.450  13.532
57040W        W20808  31.401  17.280  13.887
57041W        W20809  28.953   0.314  12.029
57042W        W20810  29.164  44.877   2.332
57043W        W20811  31.578  36.932  14.329
57044W        W20812   9.695  41.803   3.186
57045W        W20813  27.475  26.458  13.920
57046W        W20814   1.288  43.002  14.459
57047W        W20815  27.134  37.565  10.599
57048W        W20816  44.400   1.298   2.221
57049W        W20817  24.543  34.535  11.521
57050W        W20818  17.063  13.150   4.764
57051W        W20819  42.937  42.787   1.790
57052W        W20820   2.757  14.623   1.771
57053W        W20821   7.774  13.719  12.881
57054W        W20822  15.812  25.497   5.119
57055W        W20823  14.801  37.919  13.952
57056W        W20824   3.756  21.601   1.899
57057W        W20825  32.929  11.138  13.858
57058W        W20826  40.476  19.535   4.342
57059W        W20827  19.665  22.190  10.616
57060W        W20828   0.454  39.859   1.234
57061W        W20829   6.420  18.222  11.434
57062W        W20830  24.001  41.317  11.476
57063W        W20831  26.048  27.096   1.932
57064W        W20832  31.111  28.108  10.020
57065W        W20833  35.964  44.407  10.443
57066W        W20834   1.912  20.698   0.907
57067W        W20835  42.808  20.122   4.240
57068W        W20836   7.303  17.635   3.344
57069W        W20837  32.531  41.902  12.029
57070W        W20838  23.040  22.250   0.851
57071W        W20839   3.214  13.123   1.408
57072W        W20840  17.790   9.225   1.390
57073W        W20841  42.932  10.325  13.365
57074W        W20842  42.322  11.265   1.918
57075W        W20843  23.733   3.775  13.338
57076W        W20844  29.569  38.997   2.721
57077W        W20845   1.757  31.927  13.843
57078W        W20846  35.372  17.786   3.362
57079W        W20847  15.757   8.174  11.960
57080W        W20848  35.360  24.627   0.353
57081W        W20849  44.412   4.263   9.996
57082W        W20850   3.393  12.271   3.235
57083W        W20851  39.017  42.321   5.148
57084W        W20852  26.166  24.705  11.421
57085W        W20853   2.333  37.532   0.481
57086W        W20854   5.399  29.546   1.871
57087W        W20855   3.454   1.800  13.327
57088W        W20856  11.237   7.833  10.573
57089W        W20857  28.560  36.375  13.829
57090W        W20858   5.888  36.005  10.596
57091W        W20859  32.022  25.522  11.037
57092W        W20860  12.245  23.539   0.757
57093W        W20861  24.607  22.018  12.966
57094W        W20862  15.291  20.091   1.863
57095W        W20863  31.152  24.979   1.332
57096W        W20864  44.391  15.580   2.261
57097W        W20865  32.589  23.580   0.913
57098W        W20866  42.916  15.241   3.803
57099W        W20867  44.984  33.416   0.271
57100W        W20868  19.054  12.782   3.239
57101W        W20869  23.153  41.878  14.475
57102W        W20870  35.384  27.099   3.857
57103W        W20871  30.971  19.210   0.916
57104W        W20872  17.731  22.540  10.545
57105W        W20873  23.565   0.752  13.039
57106W        W20874   7.725   1.951  12.400
57107W        W20875  26.505  27.998   2.898
57108W        W20876  36.570  19.281  14.759
57109W        W20877  30.072  33.978  14.974
57110W        W20878  21.167  38.831  13.336
57111W        W20879  35.005  25.551   4.219
57112W        W20880   0.367  31.928  12.001
57113W        W20881  22.045   6.228  10.583
57114W        W20882  38.462   6.862  14.412
57115W        W20883  43.429  29.586  13.371
57116W        W20884  29.170  15.309   2.714
57117W        W20885   7.807  42.027   0.377
57118W        W20886  35.361  21.753   1.811
57119W        W20887   9.302   8.371  11.087
57120W        W20888  32.484  10.353  10.148
57121W        W20889   9.217  36.005   1.256
57122W        W20890  34.102  40.326   0.751
57123W        W20891  39.461  21.135   4.740
57124W        W20892  44.937  20.751   0.310
57125W        W20893  34.030  33.991  13.461
57126W        W20894  37.489  38.060   4.656
57127W        W20895  28.048   4.433   4.693
57128W        W20896  37.839  22.727  11.491
57129W        W20897  15.680   1.452  11.034
57130W        W20898  18.707  36.454   0.476
57131W        W20899  29.017  17.117  13.366
57132W        W20900  20.591  40.332  14.304
57133W        W20901  20.600  25.154  12.508
57134W        W20902  43.008  29.462   1.891
57135W        W20903  27.627  36.023   2.408
57136W        W20904  22.611  35.508  12.425
57137W        W20905   6.805  13.650   0.459
57138W        W20906  37.861  19.767   2.673
57139W        W20907  27.073   2.862  13.930
57140W        W20908  35.492  19.269  10.524
57141W        W20909  32.132  15.714  10.489
57142W        W20910  18.251  13.650  12.918
57143W        W20911  10.828  39.976   2.390
57144W        W20912  23.086  20.253   2.206
57145W        W20913  21.542  35.983   1.741
57146W        W20914  14.713  42.523  14.388
57147W        W20915  38.911  19.201  12.059
57148W        W20916  21.515  31.499   1.861
57149W        W20917  41.427  23.541  13.496
57150W        W20918  35.524   9.304   1.424
57151W        W20919  25.009   7.353   2.739
57152W        W20920  18.633  33.065  11.938
57153W        W20921  31.902   9.674   9.995
57154W        W20922  20.246  25.649   4.169
57155W        W20923  17.120  14.320   1.835
57156W        W20924  37.084  36.940   4.772
57157W        W20925  17.153  34.538  10.960
57158W        W20926  41.999   1.411  11.442
57159W        W20927  25.595   9.241  11.390
57160W        W20928  10.376  42.301   2.255
57161W        W20929  28.534  24.582  12.509
57162W        W20930  29.041   6.875   2.209
57163W        W20931   4.307   2.245  10.923
57164W        W20932  21.141   4.357  12.977
57165W        W20933   9.854  33.879  14.809
57166W        W20934   3.817  28.064   0.394
57167W        W20935   9.289   3.219  14.464
57168W        W20936  39.044  19.244  12.539
57169W        W20937  38.945  31.602  12.905
57170W        W20938  42.309  39.545   1.299
57171W        W20939  38.068  25.522  11.076
57172W        W20940  11.784  38.485  10.986
57173W        W20941  11.808  31.025  13.482
57174W        W20942  11.852  31.500  12.557
57175W        W20943  23.632  19.607  11.442
57176W        W20944  20.532  27.050   1.221
57177W        W20945  38.877  36.069   3.719
57178W        W20946  25.672  35.591   1.229
57179W        W20947  25.562  16.104  11.457
57180W        W20948   6.800  10.689  14.308
57181W        W20949  44.478   4.863  13.917
57182W        W20950  39.456  33.078  12.860
57183W        W20951  39.489  26.459   3.221
57184W        W20952  44.882  41.846   1.785
57185W        W20953   4.824  23.696   1.213
57186W        W20954  23.527  11.822   9.635
57187W        W20955  11.135  18.065   4.207
57188W        W20956  26.207  16.611   3.859
57189W        W20957  12.121  30.471   2.222
57190W        W20958  34.098  27.109  12.347
57191W        W20959  19.705  13.736   3.848
57192W        W20960  37.831  26.669   2.761
57193W        W20961   7.414  21.595  12.069
57194W        W20962  27.491  15.817  12.095
57195W        W20963  10.302  10.739  13.844
57196W        W20964  24.650  42.840   1.802
57197W        W20965  26.685  15.104   4.638
57198W        W20966  29.958  30.162  12.438
57199W        W20967  31.613  28.010   3.355
57200W        W20968  17.750  10.289  10.525
57201W        W20969   5.364  28.442   1.442
57202W        W20970  44.281  32.069  10.474
57203W        W20971  40.347   7.840  14.899
57204W        W20972   0.382  37.444   1.931
57205W        W20973  31.603   3.953   0.405
57206W        W20974  23.675  44.898   2.756
57207W        W20975  34.371  11.771   1.249
57208W        W20976  27.963  19.096  14.940
57209W        W20977  33.409  37.474   3.201
57210W        W20978   8.893  33.525  13.993
57211W        W20979  26.583  33.020   2.901
57212W        W20980   4.384   4.416  12.501
57213W        W20981  41.027  41.845   1.737
57214W        W20982  28.530  33.484  12.052
57215W        W20983  37.361  24.622  12.823
57216W        W20984   7.842  12.796  11.527
57217W        W20985  20.634  14.693  11.611
57218W        W20986  21.110  34.567   0.757
57219W        W20987  13.642  28.633  12.341
57220W        W20988  34.554  27.988   1.918
57221W        W20989  40.539  41.004   0.481
57222W        W20990  22.187  31.518  10.982
57223W        W20991  29.586  26.032  11.444
57224W        W20992   5.199  22.063  12.377
57225W        W20993  42.322  38.873  13.529
57226W        W20994  42.282   9.795  12.886
57227W        W20995  29.966   8.309   4.810
57228W        W20996  14.785  23.675   0.797
57229W        W20997  30.071   7.364   4.663
57230W        W20998   7.280  31.002   4.352
57231W        W20999  10.700  23.704  14.958
57232W        W21000  11.292  30.010   3.855
57233W        W21001  30.493  25.557   2.774
57234W        W21002  18.635  34.488   5.258
57235W        W21003  31.015  10.722  14.318
57236W        W21004   7.850   1.329  14.371
57237W        W21005  11.713  29.095  12.838
57238W        W21006  16.592  31.018   0.290
57239W        W21007  14.654  34.499   0.865
57240W        W21008  40.391   6.375  10.907
57241W        W21009  13.644  29.642   2.273
57242W        W21010  37.563   2.867   3.190
57243W        W21011  16.295  24.645  12.570
57244W        W21012  44.307  30.554   3.323
57245W        W21013  36.095  17.664  11.102
57246W        W21014  17.651  29.048  11.089
57247W        W21015  35.052   0.857   2.330
57248W        W21016  32.997  41.344   0.335
57249W        W21017  39.928   0.786   1.816
57250W        W21018  21.045  36.978   4.148
57251W        W21019   5.906  39.461   2.734
57252W        W21020  37.373  14.266   1.722
57253W        W21021  29.629   3.445   1.824
57254W        W21022  33.916  41.825  10.523
57255W        W21023   2.459   2.255  10.602
57256W        W21024  21.564  20.167  12.848
57257W        W21025  27.975  15.819   1.753
57258W        W21026  35.072  21.723  11.013
57259W        W21027   1.278  15.176  13.468
57260W        W21028  16.590  37.344  14.767
57261W        W21029  34.986  29.556  14.763
57262W        W21030  20.544  30.477   2.317
57263W        W21031  31.145  24.574   4.763
57264W        W21032  20.033  28.039   0.779
57265W        W21033  26.034  22.738   3.207
57266W        W21034  17.121   3.263  10.002
57267W        W21035   3.878  15.794  13.440
57268W        W21036  44.271  37.989  10.454
57269W        W21037  10.164  39.337   3.329
57270W        W21038  40.982   6.768  11.953
57271W        W21039  37.027  39.318   2.789
57272W        W21040  12.624  19.549   3.273
57273W        W21041  14.801  16.579  13.516
57274W        W21042  13.832  28.969  13.048
57275W        W21043   8.377  14.261   2.230
57276W        W21044  13.846  28.111  11.377
57277W        W21045  27.526  43.780  13.051
57278W        W21046  27.617  30.029   4.338
57279W        W21047  38.570  41.925   1.433
57280W        W21048  31.073  16.178   2.211
57281W        W21049  16.735  39.426  12.075
57282W        W21050  42.331  37.949   3.782
57283W        W21051   5.776  18.232  14.318
57284W        W21052  21.138  25.531   2.730
57285W        W21053  33.954  43.901  13.354
57286W        W21054  12.718  31.087  14.847
57287W        W21055   8.844  20.096  14.025
57288W        W21056   5.765  24.646  14.995
57289W        W21057   8.854  42.360  12.418
57290W        W21058  41.860   3.301   3.789
57291W        W21059  35.879  31.410   4.211
57292W        W21060   4.286  39.482  11.072
57293W        W21061  35.862  21.641   4.116
57294W        W21062  31.931  23.002  10.932
57295W        W21063  32.005  30.550   4.182
57296W        W21064  20.198  41.986  13.938
57297W        W21065  24.495   6.843  14.816
57298W        W21066  37.410  23.217   3.830
57299W        W21067   4.406   8.360   4.831
57300W        W21068  12.222  32.573  12.929
57301W        W21069  22.611   8.358   3.773
57302W        W21070   6.816  42.382   1.877
57303W        W21071  20.684  27.052  14.474
57304W        W21072   5.236   8.658  14.353
57305W        W21073  41.352  37.570  11.399
57306W        W21074   5.228  25.562  11.107
57307W        W21075  36.519  42.976  13.325
57308W        W21076  39.908  10.825  11.923
57309W        W21077  29.637  22.535   0.348
57310W        W21078  40.827  31.533   4.203
57311W        W21079   1.418  17.612   1.391
57312W        W21080   3.269  40.006  14.488
57313W        W21081   0.971  27.052   4.332
57314W        W21082  37.941  22.746   4.323
57315W        W21083  12.129  16.256  11.948
57316W        W21084  44.324  16.748  12.015
57317W        W21085  24.210   2.278   0.816
57318W        W21086  41.363  25.604   0.873
57319W        W21087  34.023  44.495  14.961
57320W        W21088   3.788  32.448  12.009
57321W        W21089  36.429  36.081   3.799
57322W        W21090  38.006   6.296   4.597
57323W        W21091  43.838  38.505   3.644
57324W        W21092  32.630  38.838   9.951
57325W        W21093  40.029  29.430   2.842
57326W        W21094  42.842  12.619   1.256
57327W        W21095  29.123  23.175  14.409
57328W        W21096  24.527  19.169   2.663
57329W        W21097  39.942   2.910  10.892
57330W        W21098   4.928  35.546   3.712
57331W        W21099  31.023  35.988   3.821
57332W        W21100  35.592   1.864   0.290
57333W        W21101  19.106  42.935   2.798
57334W        W21102  38.511  38.509   4.211
57335W        W21103  23.180  10.806   2.384
57336W        W21104  16.097  40.505  13.015
57337W        W21105  40.892  21.064   1.898
57338W        W21106  11.774  44.834   4.202
57339W        W21107  17.227   3.379   3.357
57340W        W21108  13.171  10.858  14.350
57341W        W21109  16.141  32.075   4.126
57342W        W21110  37.083   9.759  13.352
57343W        W21111  25.206  10.862   1.832
57344W        W21112   7.176  11.815  11.985
57345W        W21113  28.136  33.900   9.503
57346W        W21114   2.287  22.746   1.891
57347W        W21115  10.665  37.365  12.027
57348W        W21116  12.211  15.625   1.275
57349W        W21117   2.247  23.118  11.575
57350W        W21118  39.359  29.093  13.026
57351W        W21119  16.766  19.107   1.776
57352W        W21120  42.468  38.026   3.168
57353W        W21121  23.000  33.050  10.617
57354W        W21122  17.105  16.123  14.434
57355W        W21123  28.465  14.216  11.544
57356W        W21124  13.320  10.273   3.184
57357W        W21125   9.369   0.857  11.872
57358W        W21126  19.763  28.655   2.878
57359W        W21127  33.120  44.296   0.473
57360W        W21128  28.126  26.488  10.624
57361W        W21129   5.232  36.052  11.066
57362W        W21130  32.999  22.747   1.834
57363W        W21131   4.764  10.875  13.880
57364W        W21132   1.431   0.767   3.188
57365W        W21133   4.838  25.644   1.935
57366W        W21134  42.905  12.218   2.407
57367W        W21135   4.437  44.865   1.829
57368W        W21136  26.646   6.771   3.866
57369W        W21137  25.527  20.198   0.847
57370W        W21138  11.832   9.228  13.548
57371W        W21139   7.224   8.165   3.734
57372W        W21140  35.569  13.272  13.844
57373W        W21141  41.538  27.940  14.940
57374W        W21142  10.384  37.386  10.455
57375W        W21143  28.624  40.510   4.350
57376W        W21144   5.311  31.040  12.871
57377W        W21145  31.519  41.504  12.021
57378W        W21146  28.645  44.873  12.873
57379W        W21147   9.351  19.581   2.889
57380W        W21148   4.828   7.760   2.288
57381W        W21149  12.819  27.015   4.263
57382W        W21150  23.531  11.715  12.487
57383W        W21151  18.100  28.663  10.525
57384W        W21152   5.228  20.547  10.946
57385W        W21153  27.042  10.202  13.056
57386W        W21154  21.606  14.787   1.715
57387W        W21155  14.730  17.590  12.410
57388W        W21156  37.905  39.851  14.907
57389W        W21157  43.809  34.994  10.572
57390W        W21158  12.749  36.423   4.142
57391W        W21159   7.867  41.375   1.832
57392W        W21160  10.187  19.283   0.924
57393W        W21161  31.936  38.021  10.465
57394W        W21162  37.951  42.862  11.499
57395W        W21163  35.037   4.208   3.292
57396W        W21164  37.358  14.111  13.843
57397W        W21165  28.017  39.931   9.922
57398W        W21166  35.501  26.495  11.897
57399W        W21167  15.681   4.823   4.612
57400W        W21168  18.656  14.101  14.365
57401W        W21169   2.301  38.906   4.183
57402W        W21170  23.556   2.934  14.354
57403W        W21171  26.966  17.131  14.929
57404W        W21172  31.067  19.603   0.801
57405W        W21173  39.844  23.489  12.897
57406W        W21174  36.590  13.811   0.308
57407W        W21175  34.119   3.791  14.799
57408W        W21176  42.857   6.365  14.889
57409W        W21177   5.398  23.604  14.388
57410W        W21178  39.391  30.464  11.522
57411W        W21179   3.216  17.072  14.760
57412W        W21180  27.018  36.470   2.841
57413W        W21181  23.141  15.631  10.904
57414W        W21182  23.717  39.532   4.769
57415W        W21183  28.002  33.416  13.317
57416W        W21184  27.621  10.701  13.011
57417W        W21185  11.258   9.751   9.981
57418W        W21186  14.167  24.048  10.015
57419W        W21187  23.112  34.557   2.318
57420W        W21188  27.681  40.362   2.771
57421W        W21189   3.801  22.078   0.938
57422W        W21190  32.974   2.412   2.406
57423W        W21191  26.509   6.273   2.675
57424W        W21192   8.292   9.643   1.924
57425W        W21193  22.079  40.343   1.821
57426W        W21194  25.690  36.419  13.340
57427W        W21195   1.326  40.972   1.308
57428W        W21196  37.408  38.071  11.470
57429W        W21197  24.664   6.294   4.695
57430W        W21198   8.687   2.847  12.868
57431W        W21199  30.971  42.499  10.447
57432W        W21200  20.237   4.894   3.793
57433W        W21201  14.248  40.334   4.766
57434W        W21202   1.841  36.580   1.246
57435W        W21203  21.100  19.129   3.772
57436W        W21204  41.988  11.329  10.926
57437W        W21205  18.212   1.256   3.804
57438W        W21206  32.469  42.823  11.076
57439W        W21207   8.272  41.537   0.934
57440W        W21208  38.547  36.438   4.150
57441W        W21209  42.390  30.017  13.454
57442W        W21210  14.718  12.785   0.423
57443W        W21211  36.539  42.926  13.998
57444W        W21212  10.204  41.892  11.519
57445W        W21213  21.251  11.664  11.866
57446W        W21214   3.951  31.411  14.359
57447W        W21215  29.527  44.979   2.276
57448W        W21216  26.518   3.417   4.329
57449W        W21217  34.564   8.709   1.379
57450W        W21218  18.784  38.408   2.197
57451W        W21219  43.438  41.010  14.012
57452W        W21220  40.052  11.823  13.041
57453W        W21221  21.044  18.752   1.211
57454W        W21222  21.227  19.648  13.386
57455W        W21223  20.768  19.116   3.185
57456W        W21224  15.177  13.208   1.274
57457W        W21225   6.234   5.331   3.315
57458W        W21226   3.390  15.222  13.057
57459W        W21227   1.945  10.182  11.572
57460W        W21228   1.929   2.890  10.617
57461W        W21229   7.885   8.240   3.205
57462W        W21230  34.420  15.778  12.416
57463W        W21231  38.829  27.558  10.490
57464W        W21232  16.653   8.853   4.153
57465W        W21233   4.708  41.369  14.789
57466W        W21234   9.282   0.453   3.788
57467W        W21235   7.697  19.121  12.496
57468W        W21236  25.714  11.249   5.200
57469W        W21237   7.193   5.210  14.322
57470W        W21238  32.458  21.713  11.920
57471W        W21239  37.565  32.961  12.977
57472W        W21240   6.251  11.760   2.813
57473W        W21241   9.806  26.467   0.729
57474W        W21242  23.178  37.972   0.910
57475W        W21243  15.242  10.831  10.920
57476W        W21244  41.431   3.805   1.245
57477W        W21245   3.328  27.082   0.790
57478W        W21246  35.908  19.565   1.302
57479W        W21247  38.844  23.240  10.593
57480W        W21248  34.464  44.422   2.670
57481W        W21249   2.797  20.112  12.381
57482W        W21250  16.717  30.155   2.230
57483W        W21251  29.027  19.045  14.456
57484W        W21252  39.516  30.917   2.268
57485W        W21253   0.932  11.679   0.283
57486W        W21254  39.496   6.889   2.387
57487W        W21255  29.024  12.680  10.938
57488W        W21256  33.885  35.585   1.700
57489W        W21257  16.289   0.783  10.517
57490W        W21258  17.285   4.284  11.033
57491W        W21259  42.288  30.605   2.819
57492W        W21260  38.042  10.651  13.478
57493W        W21261  29.589  19.642   2.191
57494W        W21262   9.802  23.037   4.759
57495W        W21263  24.188  21.574  12.022
57496W        W21264  38.065  12.216  11.514
57497W        W21265  44.313  10.289   5.263
57498W        W21266  32.621  36.024  12.886
57499W        W21267  44.280  29.072   4.709
57500W        W21268  16.810  18.568   2.291
57501W        W21269  37.527  20.556   2.805
57502W        W21270  23.544  29.920  10.457
57503W        W21271  12.297  33.613   4.617
57504W        W21272   8.798  14.340  10.071
57505W        W21273  23.984  39.870  14.776
57506W        W21274  18.593  35.955   4.125
57507W        W21275  24.009   6.708  13.408
57508W        W21276  32.926  21.519   4.321
57509W        W21277  23.000  15.796   3.656
57510W        W21278  19.626  20.129  11.048
57511W        W21279  23.584  44.934  14.321
57512W        W21280   0.862  10.840  11.913
57513W        W21281  37.497  43.333  13.491
57514W        W21282  41.914   5.724  14.889
57515W        W21283   9.737  36.562  14.275
57516W        W21284  33.913  43.872   1.932
57517W        W21285  39.409  29.458   0.340
57518W        W21286  41.901  10.767   0.944
57519W        W21287  32.455  19.220   4.205
57520W        W21288   4.913  21.621   4.219
57521W        W21289  32.029  12.809  12.389
57522W        W21290  15.192  29.931   1.218
57523W        W21291  27.668  25.521  12.009
57524W        W21292  26.205   8.241   4.705
57525W        W21293  36.094  28.626   0.289
57526W        W21294  36.862   3.388   2.740
57527W        W21295  39.942  29.973  13.431
57528W        W21296  30.566  42.390  10.968
57529W        W21297  37.434  22.527   0.342
57530W        W21298  21.598  28.169   4.620
57531W        W21299  23.153   6.712   3.225
57532W        W21300  15.661  37.572   3.177
57533W        W21301  31.958  12.621   2.356
57534W        W21302  44.902   4.903   4.242
57535W        W21303   3.923  38.525  10.619
57536W        W21304  36.906  41.999  14.465
57537W        W21305  34.945  28.486  11.934
57538W        W21306   7.243  38.896  13.481
57539W        W21307  35.470   1.424   3.687
57540W        W21308  13.736  26.459   4.160
57541W        W21309   0.274   3.276   4.244
57542W        W21310  13.272  36.076   0.741
57543W        W21311   8.874  15.290   2.411
57544W        W21312  33.942   4.916   0.947
57545W        W21313  20.121   1.857  12.028
57546W        W21314  17.594  43.991  13.011
57547W        W21315  11.770  38.052   2.755
57548W        W21316  22.058  34.993  12.904
57549W        W21317  23.702   5.889   2.721
57550W        W21318   0.871  40.986   1.308
57551W        W21319  30.629   7.339  13.807
57552W        W21320  15.099  43.492   3.859
57553W        W21321  42.450  25.998   3.289
57554W        W21322   3.762  11.347   4.673
57555W        W21323  10.742   5.876   2.301
57556W        W21324  15.638  22.741   2.419
57557W        W21325  44.398  32.910  10.160
57558W        W21326  20.723   9.225  14.798
57559W        W21327  40.028   1.941  11.527
57560W        W21328  34.960  13.687  13.996
57561W        W21329  14.678  40.442   1.869
57562W        W21330  34.578  43.348  11.881
57563W        W21331  29.477  21.706  12.509
57564W        W21332  24.520   4.338  14.394
57565W        W21333  21.671  10.795  10.939
57566W        W21334   8.819   9.858  10.962
57567W        W21335   6.369  44.953   4.743
57568W        W21336  16.113  21.167  13.849
57569W        W21337  29.489  23.161   2.311
57570W        W21338  35.924  20.189   2.374
57571W        W21339  43.271   2.311  13.467
57572W        W21340  35.563  36.954   4.623
57573W        W21341   4.310   6.729  10.502
57574W        W21342  16.799  25.047   5.621
57575W        W21343  32.951  18.645   3.818
57576W        W21344  10.220   5.339  13.365
57577W        W21345  39.490  19.677   0.965
57578W        W21346   6.741  15.111   3.300
57579W        W21347  43.970  24.074   3.695
57580W        W21348   3.747   4.756   3.642
57581W        W21349  33.103   3.777  11.420
57582W        W21350   3.230  34.391   0.789
57583W        W21351  13.743  43.452  11.448
57584W        W21352  33.586  31.493  14.874
57585W        W21353  40.385  23.595  10.087
57586W        W21354  43.834  15.303   2.224
57587W        W21355  27.147  36.906   2.895
57588W        W21356  37.382  22.647  11.454
57589W        W21357  42.465  24.500   3.661
57590W        W21358  19.575  11.838  12.032
57591W        W21359  18.160  31.613   3.367
57592W        W21360   9.364   7.900   4.262
57593W        W21361  10.149  40.025   0.312
57594W        W21362   3.905   2.958   2.809
57595W        W21363   8.375   0.453   4.802
57596W        W21364   5.873  32.521  11.909
57597W        W21365  28.114  40.925  12.941
57598W        W21366   3.915   9.303  13.873
57599W        W21367  33.965  35.947   1.881
57600W        W21368  36.400  19.697  12.873
57601W        W21369  17.303  23.683   4.176
57602W        W21370  13.222  13.795   0.263
57603W        W21371   0.292  19.049   3.374
57604W        W21372  30.032  42.828  11.109
57605W        W21373  10.727  35.364   3.870
57606W        W21374   7.240  11.204   1.343
57607W        W21375  13.330   7.849  14.846
57608W        W21376  27.092   5.398  13.869
57609W        W21377   8.313  38.966  12.940
57610W        W21378  27.670  15.750  13.534
57611W        W21379  33.491  16.156   2.294
57612W        W21380  16.664  30.078  13.936
57613W        W21381  25.634  12.153  12.971
57614W        W21382  19.667  29.053   0.857
57615W        W21383  33.911  43.470  14.347
57616W        W21384  34.053  41.933  14.348
57617W        W21385  26.661  17.684   1.849
57618W        W21386  12.247  33.958  14.495
57619W        W21387  35.014  14.639   3.675
57620W        W21388  19.238  24.723   0.450
57621W        W21389  22.679  38.824  14.294
57622W        W21390   7.213  18.223  12.515
57623W        W21391  16.720  22.673  14.509
57624W        W21392  31.109  19.092  14.809
57625W        W21393   7.723  44.944  13.505
57626W        W21394  13.274  44.397  14.460
57627W        W21395  19.645  41.786  14.864
57628W        W21396  14.782  17.594  14.867
57629W        W21397  30.952  26.018   0.919
57630W        W21398  27.459   0.970   0.243
57631W        W21399  39.036  40.799   0.438
57632W        W21400  37.012  23.699  13.027
57633W        W21401  17.559  43.364  11.962
57634W        W21402  37.888  43.934   3.858
57635W        W21403  34.422  39.883  14.411
57636W        W21404   7.801  33.434  12.538
57637W        W21405   1.251   0.411  12.834
57638W        W21406  33.493   4.786  13.999
57639W        W21407   5.418   0.387  13.993
57640W        W21408  34.402  11.332   4.286
57641W        W21409   9.339  15.188  13.039
57642W        W21410   6.771   0.756   4.230
57643W        W21411  44.000  37.564  11.999
57644W        W21412   3.313  15.239  11.454
57645W        W21413  44.330  11.670   4.779
57646W        W21414  35.599  33.059  14.808
57647W        W21415   8.804  26.156   3.378
57648W        W21416  38.058  40.042   2.771
57649W        W21417  16.292  44.289   3.246
57650W        W21418   0.932   6.224   2.219
57651W        W21419  13.279  23.232   2.860
57652W        W21420  26.061  43.922   0.344
57653W        W21421  43.298  37.379   3.258
57654W        W21422  29.969  23.106  11.024
57655W        W21423  25.516  33.013  12.007
57656W        W21424  27.596  14.250   2.811
57657W        W21425  44.004  41.951  10.899
57658W        W21426   4.887   4.430  14.782
57659W        W21427  34.052  39.315  12.421
57660W        W21428  34.459   7.172  11.569
57661W        W21429  43.346  30.613   3.223
57662W        W21430  44.474  15.110   2.416
57663W        W21431  24.150  32.530  13.460
57664W        W21432  43.394  28.161  10.412
57665W        W21433  38.972  11.631   4.232
57666W        W21434   7.910  40.954  11.080
57667W        W21435  41.346   2.851   4.779
57668W        W21436  24.674  32.579  11.941
57669W        W21437  33.940  10.848   4.284
57670W        W21438  25.650   2.271   3.772
57671W        W21439  23.124  30.068  14.301
57672W        W21440   8.161  33.622  14.877
57673W        W21441  39.407  19.168  12.074
57674W        W21442   7.728  12.795  13.394
57675W        W21443  44.832  31.029   4.252
57676W        W21444  27.491  12.626  10.972
57677W        W21445  44.763  33.122  13.059
57678W        W21446  10.366   8.732  10.102
57679W        W21447   6.748  28.082   4.825
57680W        W21448  20.089  42.390  14.771
57681W        W21449  19.072  33.893  14.429
57682W        W21450  19.247  19.137  12.371
57683W        W21451  23.696  31.962   3.865
57684W        W21452  18.748   6.712   0.741
57685W        W21453   7.282   5.399  10.570
57686W        W21454   6.312  18.772   4.264
57687W        W21455  30.984   1.844   0.277
57688W        W21456  25.111   6.205  13.794
57689W        W21457  40.917  16.130   2.858
57690W        W21458   5.762  26.971  13.515
57691W        W21459  21.535  18.230   3.160
57692W        W21460  42.801  26.014  11.934
57693W        W21461  38.546  25.657   2.694
57694W        W21462  29.578   9.386  14.855
57695W        W21463   5.705  29.613   3.372
57696W        W21464  27.054  14.735   2.185
57697W        W21465  38.838  42.306   3.726
57698W        W21466  10.297  18.718   2.767
57699W        W21467  27.010  10.716   1.312
57700W        W21468   4.433  29.513  10.504
57701W        W21469  25.155  44.263   1.827
57702W        W21470  39.394  37.898   2.275
57703W        W21471   3.403  26.529   0.795
57704W        W21472  30.143  32.939   1.699
57705W        W21473   6.280  38.346   2.312
57706W        W21474  32.016  37.340   1.248
57707W        W21475   9.257  30.618  14.346
57708W        W21476  26.496  28.496  10.583
57709W        W21477  39.519  42.397  14.282
57710W        W21478  20.151   5.787   3.278
57711W        W21479  31.405  42.992   1.864
57712W        W21480  29.461   9.149   0.954
57713W        W21481  38.979  25.091   3.849
57714W        W21482   4.857   3.713  13.003
57715W        W21483  30.927   0.291  11.593
57716W        W21484  29.631  29.510  12.352
57717W        W21485  18.580  15.118   1.862
57718W        W21486  38.397  41.878   0.338
57719W        W21487  13.716  23.641   3.705
57720W        W21488  29.607  33.052  10.970
57721W        W21489  28.533  19.745   4.187
57722W        W21490  17.144  25.661  12.882
57723W        W21491  42.024  18.675   4.598
57724W        W21492   7.843  32.087  11.905
57725W        W21493  16.652  32.484   5.669
57726W        W21494  17.255  23.215  14.900
57727W        W21495  27.975  34.451   0.811
57728W        W21496   6.734   0.443  14.400
57729W        W21497   3.946  33.057   3.785
57730W        W21498  41.818  23.000  14.803
57731W        W21499  13.126  42.990   4.317
57732W        W21500  26.063   9.193   3.840
57733W        W21501  11.302  29.083  14.874
57734W        W21502   4.812  40.460  13.414
57735W        W21503  20.192  39.851  12.867
57736W        W21504   8.684  18.065   4.684
57737W        W21505  15.633  39.482   0.788
57738W        W21506  29.573  41.973   0.764
57739W        W21507   2.796  11.742  14.889
57740W        W21508   9.776  20.236  13.526
57741W        W21509  20.113  21.250   3.684
57742W        W21510  20.738  11.723  11.377
57743W        W21511  25.122  29.123  13.339
57744W        W21512   2.841  26.647  12.558
57745W        W21513   1.836  15.190  14.515
57746W        W21514  29.448  11.172  13.846
57747W        W21515  36.432  42.411   3.190
57748W        W21516  27.446   9.652   4.775
57749W        W21517  20.664  30.134  11.452
57750W        W21518  22.119  36.040   4.342
57751W        W21519  32.886  33.081   2.758
57752W        W21520   0.494  10.352  14.352
57753W        W21521   1.934  24.168   0.430
57754W        W21522  24.013  44.465  10.159
57755W        W21523  40.382  34.607  11.928
57756W        W21524  31.994  44.974   1.750
57757W        W21525  42.311  31.109  13.875
57758W        W21526  19.655  29.496  10.420
57759W        W21527  25.711  29.532  11.557
57760W        W21528  19.636  43.334  14.302
57761W        W21529  26.134  30.657  12.004
57762W        W21530   0.974  21.029  14.381
57763W        W21531  39.374  10.202   3.793
57764W        W21532  23.689  26.698   3.194
57765W        W21533   7.263  14.676  12.384
57766W        W21534  17.602  37.501   2.234
57767W        W21535  19.116  30.514  11.974
57768W        W21536  18.569  39.888   2.238
57769W        W21537  18.750  33.103  14.441
57770W        W21538  42.989  21.756  14.880
57771W        W21539  33.609  32.970   4.305
57772W        W21540  14.308  28.937  12.382
57773W        W21541  35.389  31.096   3.359
57774W        W21542  40.548  19.065   2.350
57775W        W21543  36.079  11.759  14.426
57776W        W21544   2.772  12.222  13.801
57777W        W21545  12.248   1.939   1.920
57778W        W21546  24.679  20.739   3.218
57779W        W21547   4.943  33.024  11.047
57780W        W21548  38.351  21.202  10.489
57781W        W21549  30.568  36.011   4.691
57782W        W21550  20.665  30.136  14.023
57783W        W21551  21.690  40.959  11.856
57784W        W21552  31.470  42.896  14.830
57785W        W21553  36.924   5.729  13.954
57786W        W21554   2.418  13.232   2.741
57787W        W21555  34.504  21.093   4.321
57788W        W21556  38.417  21.686  12.355
57789W        W21557   4.406  43.482   0.798
57790W        W21558  41.936   6.417  13.424
57791W        W21559  41.406  43.316   0.909
57792W        W21560  33.902   5.272  10.415
57793W        W21561  20.761  40.370   2.281
57794W        W21562  21.746  16.594  11.468
57795W        W21563  13.657  32.025  11.879
57796W        W21564   6.345  17.594  10.447
57797W        W21565   2.880  32.511  12.427
57798W        W21566   7.285  16.176   0.351
57799W        W21567  10.693  16.300   4.155
57800W        W21568  39.476   8.796  10.904
57801W        W21569   7.220  23.218  14.370
57802W        W21570  10.657  24.540  12.884
57803W        W21571   1.278  19.205   0.395
57804W        W21572   9.762  40.401  10.644
57805W        W21573   2.764  19.638   3.320
57806W        W21574  28.065  35.498   0.893
57807W        W21575  11.835  40.493   2.768
57808W        W21576  15.649  14.105  13.323
57809W        W21577  38.544  14.645   4.800
57810W        W21578  38.951  19.683  12.975
57811W        W21579  16.804  10.381   4.837
57812W        W21580  22.523  43.990  14.813
57813W        W21581  22.105  20.053   0.913
57814W        W21582  13.150   6.365   2.362
57815W        W21583   4.233  27.494   1.318
57816W        W21584   0.970   8.669  10.041
57817W        W21585  14.759  29.967  14.288
57818W        W21586  17.082  21.203  12.953
57819W        W21587   1.973  39.347   3.804
57820W        W21588   6.229  42.358  13.882
57821W        W21589  20.179   2.782  12.893
57822W        W21590  43.436  13.194   0.281
57823W        W21591  26.060   7.355  14.884
57824W        W21592  44.959  40.821   4.782
57825W        W21593   3.945   9.712   1.905
57826W        W21594  13.250  33.076  11.610
57827W        W21595   2.462  16.638  11.483
57828W        W21596  23.998   0.752  10.973
57829W        W21597  44.267   6.731  11.535
57830W        W21598  30.123  27.023   4.233
57831W        W21599  14.250  36.512  11.524
57832W        W21600  35.538  10.668  14.983
57833W        W21601  31.000  23.128  11.879
57834W        W21602  25.647  16.213   3.305
57835W        W21603  39.369   8.229  12.990
57836W        W21604  41.982   8.853   3.226
57837W        W21605   4.321  17.743  12.966
57838W        W21606  35.098  10.668   4.692
57839W        W21607  12.171  24.122  13.012
57840W        W21608  43.486  44.992   2.795
57841W        W21609  17.723  42.503  13.399
57842W        W21610  44.369  41.427  13.920
57843W        W21611  26.572   7.789   1.726
57844W        W21612  39.323   6.898  14.308
57845W        W21613  35.409  17.561   0.825
57846W        W21614  40.351  14.656  11.432
57847W        W21615  41.037  13.258   4.283
57848W        W21616  36.538  32.886   3.147
57849W        W21617  41.844   3.279   2.803
57850W        W21618  37.524  43.324  12.867
57851W        W21619   7.299  16.128   4.198
57852W        W21620  31.619  12.205   2.395
57853W        W21621  29.938  28.681  11.912
57854W        W21622  35.081   2.867   0.791
57855W        W21623  11.672  39.821   1.425
57856W        W21624  40.885  28.547   9.455
57857W        W21625  28.078  17.622  13.015
57858W        W21626  36.091  32.576   2.856
57859W        W21627   6.756  21.101  13.326
57860W        W21628  12.761   9.845  11.095
57861W        W21629   0.360  37.080  13.454
57862W        W21630  32.089  35.089   0.263
57863W        W21631  44.774  41.923   3.775
57864W        W21632  22.087  29.052  12.000
57865W        W21633   7.414   5.874  13.846
57866W        W21634   6.298  33.901  10.924
57867W        W21635  24.637  21.201   4.204
57868W        W21636  11.143   9.855  12.979
57869W        W21637  23.993  33.947   1.814
57870W        W21638  20.081  20.146   1.827
57871W        W21639  36.531  42.875  12.936
57872W        W21640  14.665  34.446   0.326
57873W        W21641  17.581  12.648   2.867
57874W        W21642  38.550  10.761   5.737
57875W        W21643  20.687  25.699   2.411
57876W        W21644   9.807   1.432  10.978
57877W        W21645  19.691  14.098   4.695
57878W        W21646   4.918  37.974   0.290
57879W        W21647  13.644  30.128  13.004
57880W        W21648  21.104  15.145  13.894
57881W        W21649  23.545  44.322  12.828
57882W        W21650  24.617  35.903   3.306
57883W        W21651   8.758  41.501  13.005
57884W        W21652  29.014  20.175   3.282
57885W        W21653   0.912  25.965   3.645
57886W        W21654  20.574   1.889  11.479
57887W        W21655  29.653   8.791   0.474
57888W        W21656  19.553   6.876  10.534
57889W        W21657  20.171   8.807  10.470
57890W        W21658  28.625  23.152   4.800
57891W        W21659  18.725  18.560  13.866
57892W        W21660  38.334   8.679   4.239
57893W        W21661  11.753  21.574  12.915
57894W        W21662  19.242  42.987  12.553
57895W        W21663  35.937  30.093   0.482
57896W        W21664  23.603  38.487  12.962
57897W        W21665  26.135  39.971  14.503
57898W        W21666  39.342  15.659  11.075
57899W        W21667  35.550  35.079  14.944
57900W        W21668  44.873   0.493   4.129
57901W        W21669  17.305  41.968   3.631
57902W        W21670  16.281  35.553   0.850
57903W        W21671  32.907  31.581   1.296
57904W        W21672  38.442  13.716  13.424
57905W        W21673  15.766   1.372  14.511
57906W        W21674  43.841  38.557  14.382
57907W        W21675   5.207  17.687  10.925
57908W        W21676  10.702  11.655  11.497
57909W        W21677  14.761   7.824  14.343
57910W        W21678  17.231  42.878   1.431
57911W        W21679  21.219   5.360   0.755
57912W        W21680  12.176   6.186   0.815
57913W        W21681  23.647  11.773   4.272
57914W        W21682  43.022  43.403  13.016
57915W        W21683  25.064  34.402  12.870
57916W        W21684  31.085  32.034  12.913
57917W        W21685  41.418  15.152  10.520
57918W        W21686  25.502  41.873  14.936
57919W        W21687  40.893  18.063  11.011
57920W        W21688  16.586   6.334  14.370
57921W        W21689  39.476  19.563  10.963
57922W        W21690  26.122  34.373  13.879
57923W        W21691  44.435  26.520   0.879
57924W        W21692  25.572   7.412  12.832
57925W        W21693  21.683  18.075  10.552
57926W        W21694  14.166  30.647  14.935
57927W        W21695   9.154   5.831   4.611
57928W        W21696  28.067  10.272   3.789
57929W        W21697  42.393  20.560  14.936
57930W        W21698  27.564  30.434   2.235
57931W        W21699  27.675   4.935   0.424
57932W        W21700  13.183  19.746   5.276
57933W        W21701   8.370  10.673  11.602
57934W        W21702  43.288   9.817  13.340
57935W        W21703  43.933   8.235  12.411
57936W        W21704  33.580  42.006  14.417
57937W        W21705  23.658  11.156   5.235
57938W        W21706  10.797  11.185   5.774
57939W        W21707  30.472  27.595  10.424
57940W        W21708  17.262   9.390  10.543
57941W        W21709  14.775  23.644  13.490
57942W        W21710  38.952  23.618  11.924
57943W        W21711  32.510  42.797  13.807
57944W        W21712  37.439  13.740  14.385
57945W        W21713  43.840   8.195  13.810
57946W        W21714  29.568   3.813   0.904
57947W        W21715  22.036  31.143   4.157
57948W        W21716  34.099   4.816   1.435
57949W        W21717  37.892  30.921  14.898
57950W        W21718  35.089  37.497   0.430
57951W        W21719  42.389  29.424   0.833
57952W        W21720  14.199   1.930  11.397
57953W        W21721  39.455  21.709   4.148
57954W        W21722   2.383  28.458   0.469
57955W        W21723  11.305  41.983   0.890
57956W        W21724  27.560  21.091  12.061
57957W        W21725  21.036   5.711   2.350
57958W        W21726  27.546  37.025  14.285
57959W        W21727  12.329  13.312   4.302
57960W        W21728  25.185   0.359  14.889
57961W        W21729   3.406  14.247   1.268
57962W        W21730  43.992  23.158  13.903
57963W        W21731  35.574  11.334   3.161
57964W        W21732   6.215  28.020   1.317
57965W        W21733   0.775  20.197   1.301
57966W        W21734  17.271  40.545   4.203
57967W        W21735  43.498  18.771   0.358
57968W        W21736  14.144  30.591  14.349
57969W        W21737  41.316  14.709   2.827
57970W        W21738   0.832   6.269  13.422
57971W        W21739  14.229  24.065  13.960
57972W        W21740   6.380  11.215   3.163
57973W        W21741  31.443  44.390   3.642
57974W        W21742  37.456  35.364  12.473
57975W        W21743   1.962  11.856  11.414
57976W        W21744  41.458  39.999  13.404
57977W        W21745  40.425  10.291  10.105
57978W        W21746  37.422  26.697   0.934
57979W        W21747   0.370  16.214   2.669
57980W        W21748  41.335   8.707   2.359
57981W        W21749  35.545  19.065   4.774
57982W        W21750  30.481  30.649  12.963
57983W        W21751   4.283  17.303  13.991
57984W        W21752  17.710  44.919  14.979
57985W        W21753  42.931  37.893  13.007
57986W        W21754   9.253  11.184   2.263
57987W        W21755   5.335   4.309   2.711
57988W        W21756  26.126  41.400  12.042
57989W        W21757  28.935  30.488   2.244
57990W        W21758  44.831  34.907   0.264
57991W        W21759  25.178  15.142  11.018
57992W        W21760  31.952  10.359  14.949
57993W        W21761   8.780  34.502  13.430
57994W        W21762  30.141  23.523  13.532
57995W        W21763  16.089  16.272  12.380
57996W        W21764   1.743  10.783  12.549
57997W        W21765   6.775  20.143  12.829
57998W        W21766  14.320  11.757   0.859
57999W        W21767  11.864  40.499   2.293
58000W        W21768  27.967  35.946   0.470
58001W        W21769  42.361   2.456   1.411
58002W        W21770  40.907   2.436  10.497
58003W        W21771  40.507  12.726   4.140
58004W        W21772  19.750  40.387   2.756
58005W        W21773  35.039  39.846   1.287
58006W        W21774  12.705  25.685   0.388
58007W        W21775   7.774  29.953  12.401
58008W        W21776  41.371   4.328  13.425
58009W        W21777   1.961  21.261  13.418
58010W        W21778  43.514  28.474  12.474
58011W        W21779   6.872  14.132   2.183
58012W        W21780  10.660  20.078   3.387
58013W        W21781  11.257  17.778   3.313
58014W        W21782  41.042   2.753  10.590
58015W        W21783  26.090  23.657   1.857
58016W        W21784  15.741   4.369   9.998
58017W        W21785  36.846  37.534   4.280
58018W        W21786   6.897  23.215  12.519
58019W        W21787  21.041  15.700  12.387
58020W        W21788  20.701   8.363  12.474
58021W        W21789  23.038  11.744   5.152
58022W        W21790  32.954  17.099  12.391
58023W        W21791  33.381  23.718   3.707
58024W        W21792  37.861  43.896   4.646
58025W        W21793  27.174  24.178   0.905
58026W        W21794   1.932  44.360   0.893
58027W        W21795   3.245  30.593  10.598
58028W        W21796  16.758  42.970  11.566
58029W        W21797   2.828  34.935  13.474
58030W        W21798  15.749  10.680  10.430
58031W        W21799  23.103  42.298  12.566
58032W        W21800  26.149  19.184  11.377
58033W        W21801  43.448   6.311  12.887
58034W        W21802   7.776  42.873   1.757
58035W        W21803   4.285  38.066   9.489
58036W        W21804  31.479  24.561  14.790
58037W        W21805  39.898  33.454   1.926
58038W        W21806  11.238   8.748   0.368
58039W        W21807   3.434  35.389   0.894
58040W        W21808  33.093   5.761   4.145
58041W        W21809  13.128  35.543   4.209
58042W        W21810  34.074  21.079   1.842
58043W        W21811   9.788  21.160   4.300
58044W        W21812   8.834  31.438   3.263
58045W        W21813  37.088   3.831  13.798
58046W        W21814  34.492  42.299  11.939
58047W        W21815   2.926  37.911  12.870
58048W        W21816  26.951  27.536  12.489
58049W        W21817  26.184  18.285  11.075
58050W        W21818   6.895   6.207   2.780
58051W        W21819  24.992   7.870   2.714
58052W        W21820   6.757  23.552  12.357
58053W        W21821  39.460   6.795   1.788
58054W        W21822  23.585   2.790   0.963
58055W        W21823   1.402  22.158  11.873
58056W        W21824  13.171  39.437  14.797
58057W        W21825  13.344  24.592  12.923
58058W        W21826  26.646   6.915   0.301
58059W        W21827  15.663  10.308   5.152
58060W        W21828  29.978  30.136  12.830
58061W        W21829  33.874   9.320   0.749
58062W        W21830  32.633  22.052  14.821
58063W        W21831  17.630  27.554   4.801
58064W        W21832  17.742  20.257  12.938
58065W        W21833  25.473  11.796   0.382
58066W        W21834  34.499   7.880  11.487
58067W        W21835  23.126   8.231  10.554
58068W        W21836  19.265  40.515   0.875
58069W        W21837   9.772   5.331   1.846
58070W        W21838  36.471  12.135  11.051
58071W        W21839  27.590  23.715   1.312
58072W        W21840  39.461   6.257   3.158
58073W        W21841  38.406   7.346   4.259
58074W        W21842  43.313  30.461  14.276
58075W        W21843  44.338  19.041   0.756
58076W        W21844  40.461   3.398  11.385
58077W        W21845  12.207  30.082   1.214
58078W        W21846  30.518  26.490   3.282
58079W        W21847  34.550  36.544  13.345
58080W        W21848  31.587   1.284  14.000
58081W        W21849  15.254  12.846  14.002
58082W        W21850  23.534   8.842   3.178
58083W        W21851   8.313   1.267   1.843
58084W        W21852   7.706   5.804   1.850
58085W        W21853   0.840   6.333  14.406
58086W        W21854  30.966  22.546   1.260
58087W        W21855  31.897  21.579   4.140
58088W        W21856  22.522  13.602   9.523
58089W        W21857  31.000  23.054   1.397
58090W        W21858  25.091  14.234  11.032
58091W        W21859   3.309  41.446   3.322
58092W        W21860  12.833  15.201  10.576
58093W        W21861   1.837  38.905  11.110
58094W        W21862  12.786  32.588   4.762
58095W        W21863  36.856  37.531  13.864
58096W        W21864  17.763  13.198   2.362
58097W        W21865  18.672  30.522  13.947
58098W        W21866  41.035   7.859   0.343
58099W        W21867  17.217  28.644  10.531
58100W        W21868  10.338   0.865   5.148
58101W        W21869  32.530  16.225  14.456
58102W        W21870  26.150  30.964   4.662
58103W        W21871  23.564  21.177  13.929
58104W        W21872  26.680  24.174  13.792
58105W        W21873  17.113  41.807   0.758
58106W        W21874  13.760   5.868  10.435
58107W        W21875   6.324   6.745   3.330
58108W        W21876   7.265  22.724   1.748
58109W        W21877  35.975  28.618  11.389
58110W        W21878  31.603   4.845   4.115
58111W        W21879  22.628  13.725  10.023
58112W        W21880  38.980  16.282   4.148
58113W        W21881  14.641  36.093   3.318
58114W        W21882  16.157  13.764   3.825
58115W        W21883  23.547  12.324  12.920
58116W        W21884  18.747  15.643   1.696
58117W        W21885   0.887  32.464  12.425
58118W        W21886  24.519  28.577  11.460
58119W        W21887   3.302  19.136   3.280
58120W        W21888  12.235   2.339  11.876
58121W        W21889  22.139   7.857   4.822
58122W        W21890  22.167  43.954   1.857
58123W        W21891  15.786  39.450  14.395
58124W        W21892  33.566  33.581  14.910
58125W        W21893  13.247   5.355  10.912
58126W        W21894  14.599  25.696  13.425
58127W        W21895  39.316   5.246   2.269
58128W        W21896   8.881   1.434  12.524
58129W        W21897  22.080  21.213  12.943
58130W        W21898  43.462  18.648  11.421
58131W        W21899  41.991  21.125  12.487
58132W        W21900  20.735  44.860  13.996
58133W        W21901  28.959  37.993   2.887
58134W        W21902  34.408  21.732   3.702
58135W        W21903  10.711  31.966   4.269
58136W        W21904  31.014  32.479   4.707
58137W        W21905  20.092  26.020   0.432
58138W        W21906  28.044  41.988  14.770
58139W        W21907  21.134  10.744  13.896
58140W        W21908  38.475  10.757   0.251
58141W        W21909  36.944  14.664  13.884
58142W        W21910  41.416  28.522   1.815
58143W        W21911  41.838  17.776   3.326
58144W        W21912  18.685   6.274   5.213
58145W        W21913  20.103   9.243   3.646
58146W        W21914  21.233  31.086   3.631
58147W        W21915  37.391  19.769  10.449
58148W        W21916   2.860   4.928  14.409
58149W        W21917  32.036   5.761  13.062
58150W        W21918   2.811  24.488  12.931
58151W        W21919  22.670   7.692  13.448
58152W        W21920  13.825  22.746  13.943
58153W        W21921  35.551  19.257  14.938
58154W        W21922  37.339  39.063  14.438
58155W        W21923  22.695  16.098   1.410
58156W        W21924  27.650  25.050  11.447
58157W        W21925   6.746  31.645  14.360
58158W        W21926  44.999  17.668   1.350
58159W        W21927   5.366  13.614  13.421
58160W        W21928  13.127  13.335   2.863
58161W        W21929  34.534  44.350  10.602
58162W        W21930  32.518   6.862   0.938
58163W        W21931  16.586  35.369   4.132
58164W        W21932  13.748  28.621  11.953
58165W        W21933  30.045  22.575  11.560
58166W        W21934  25.600  40.375  10.608
58167W        W21935  26.604  17.181   4.798
58168W        W21936  13.770  37.901   1.823
58169W        W21937  40.481  38.076   1.320
58170W        W21938  21.529  35.533  10.405
58171W        W21939  44.891   1.322   2.253
58172W        W21940  13.801  25.648   1.713
58173W        W21941  32.407  35.878  11.533
58174W        W21942  31.577  27.686  13.832
58175W        W21943  19.652   0.836  10.562
58176W        W21944  11.695  40.495  10.582
58177W        W21945   7.784  43.380  11.000
58178W        W21946   2.405   6.749   4.614
58179W        W21947  16.131  15.286   2.263
58180W        W21948  23.714  38.523  10.899
58181W        W21949  35.496  36.098  11.387
58182W        W21950  24.202  25.135  11.868
58183W        W21951   6.199  30.102  13.886
58184W        W21952   9.889  29.001   3.185
58185W        W21953  11.750   1.863  10.459
58186W        W21954   5.279  17.582  12.902
58187W        W21955   4.371  15.272  13.318
58188W        W21956  33.503  39.332  14.835
58189W        W21957  17.734  43.857  11.488
58190W        W21958  21.666   8.284   1.786
58191W        W21959  19.251  41.894   3.319
58192W        W21960  38.828   5.196   0.340
58193W        W21961  22.022  15.612   2.350
58194W        W21962   6.199  13.707  10.520
58195W        W21963   4.906   9.217   3.369
58196W        W21964   7.406  12.681   0.377
58197W        W21965  28.953  23.060   2.282
58198W        W21966  40.381  44.306   1.231
58199W        W21967   8.863  13.202   0.934
58200W        W21968  22.997  32.949  13.808
58201W        W21969  34.576  24.168   4.206
58202W        W21970  21.121  37.421   0.771
58203W        W21971   1.442  24.720   2.276
58204W        W21972  23.029  39.541   3.202
58205W        W21973   1.431  13.831   4.352
58206W        W21974  29.650  42.868   3.762
58207W        W21975  44.855  30.040  14.373
58208W        W21976  44.849  10.235   1.870
58209W        W21977  30.623  42.456   0.432
58210W        W21978  21.060  30.431   4.172
58211W        W21979  18.137   9.833   1.859
58212W        W21980   3.307  35.426   1.435
58213W        W21981  38.346   1.886  10.454
58214W        W21982  20.619   0.428  14.421
58215W        W21983  21.188  42.294   2.301
58216W        W21984  39.036  39.024  14.275
58217W        W21985   0.254  38.994  14.436
58218W        W21986   5.409  11.641  12.561
58219W        W21987  44.310  26.616  10.460
58220W        W21988  15.811  31.423   0.882
58221W        W21989  30.573  16.148   0.810
58222W        W21990  42.883  33.570  12.576
58223W        W21991  24.218  10.268  10.036
58224W        W21992   8.188   1.268  11.416
58225W        W21993   9.716  42.783   2.287
58226W        W21994  17.116  40.528  14.346
58227W        W21995  21.692   5.701   1.860
58228W        W21996  19.202  33.609  11.112
58229W        W21997  14.640  44.816   2.306
58230W        W21998  14.178  20.553  14.889
58231W        W21999   4.235   8.857  12.349
58232W        W22000  14.100  26.207  12.040
58233W        W22001  25.967  34.396   3.677
58234W        W22002   4.739  18.609  11.561
58235W        W22003  35.982  17.231  13.530
58236W        W22004  35.920   2.350  10.512
58237W        W22005  34.075  42.961   1.835
58238W        W22006   8.777   5.731   2.328
58239W        W22007  12.200  17.228   2.241
58240W        W22008  33.090  35.985   2.189
58241W        W22009  31.015  22.602  10.418
58242W        W22010  18.709  16.677  12.426
58243W        W22011   4.827  23.170   1.283
58244W        W22012   3.891  37.338  12.848
58245W        W22013  37.481  32.437  14.383
58246W        W22014  16.279   1.921   1.256
58247W        W22015   3.453   4.922  10.557
58248W        W22016  34.541  36.950  10.638
58249W        W22017  40.347  32.437  13.509
58250W        W22018  29.030  21.127   0.778
58251W        W22019   8.236   4.379   2.377
58252W        W22020   2.448   6.237  13.521
58253W        W22021  33.482   2.365  10.126
58254W        W22022  40.433   5.402   1.306
58255W        W22023   4.446   5.713  14.871
58256W        W22024  11.868  13.750  12.911
58257W        W22025  12.783  24.186   4.809
58258W        W22026   2.887   2.418  13.038
58259W        W22027  12.632   9.750   2.810
58260W        W22028  39.533  31.950   0.362
58261W        W22029  31.403  17.590   1.919
58262W        W22030   4.356  28.151   2.736
58263W        W22031  40.884  30.032   3.845
58264W        W22032  32.556  20.193  14.819
58265W        W22033   0.271  34.483   0.392
58266W        W22034  44.455  28.599   0.808
58267W        W22035  10.262   7.889   1.214
58268W        W22036   5.900  15.199   4.315
58269W        W22037   4.752  39.433  14.831
58270W        W22038  16.688  26.111  10.034
58271W        W22039   6.714  37.402   3.819
58272W        W22040   0.870  12.715   4.811
58273W        W22041  25.083  10.740   5.748
58274W        W22042  31.516   6.835   2.759
58275W        W22043  13.220  39.473  14.416
58276W        W22044  44.387  21.611   1.390
58277W        W22045  36.019   0.804   4.749
58278W        W22046  19.658  15.129   4.819
58279W        W22047   3.901  20.540  12.516
58280W        W22048  15.739  34.371   4.180
58281W        W22049  29.470  26.620  12.477
58282W        W22050  32.474   4.437  14.784
58283W        W22051   3.402   7.688  13.845
58284W        W22052  39.519  20.590   4.352
58285W        W22053   5.847  12.679  11.073
58286W        W22054  44.342  38.877   2.220
58287W        W22055  13.302  12.347  12.940
58288W        W22056  32.416   9.660   1.890
58289W        W22057  36.508  41.994   0.851
58290W        W22058  32.493  13.232   1.848
58291W        W22059  42.883  29.150  11.069
58292W        W22060  40.376  14.134   9.942
58293W        W22061  41.483   8.752   2.806
58294W        W22062  44.855  43.899   1.707
58295W        W22063  42.435  18.662  13.406
58296W        W22064  33.111  27.116  11.545
58297W        W22065  14.245   0.374  11.489
58298W        W22066   6.848  13.659   4.209
58299W        W22067  25.161  35.060   0.413
58300W        W22068  42.382  41.309  11.876
58301W        W22069   7.347   6.693  14.981
58302W        W22070  12.738  33.962   1.807
58303W        W22071   5.902  11.166   2.853
58304W        W22072  42.888  30.548  10.024
58305W        W22073  42.967  17.072  11.042
58306W        W22074  16.110  22.126  13.477
58307W        W22075  38.910  43.511   1.223
58308W        W22076  24.003  17.596   2.728
58309W        W22077  37.427  36.015  10.438
58310W        W22078  36.536  30.158   3.869
58311W        W22079  30.613  17.277   3.198
58312W        W22080   9.283   5.340  14.407
58313W        W22081  10.219  22.234   0.952
58314W        W22082  18.235  14.291   2.258
58315W        W22083  30.591  43.389   2.880
58316W        W22084  14.099  25.588   3.153
58317W        W22085  14.218  32.986   1.271
58318W        W22086  35.504  29.122  10.439
58319W        W22087   5.869  13.105   2.854
58320W        W22088   4.847   9.733   3.774
58321W        W22089  31.983  20.549  13.917
58322W        W22090  26.047   7.300   1.727
58323W        W22091  18.625  28.021  14.903
58324W        W22092   7.838  25.525   0.937
58325W        W22093  29.067  12.192   2.863
58326W        W22094  21.746  17.140  12.447
58327W        W22095  38.406  24.504  12.861
58328W        W22096  39.344   3.301   2.832
58329W        W22097  42.399  30.942  12.439
58330W        W22098  14.212  34.046  13.798
58331W        W22099  29.036  11.288  13.495
58332W        W22100  13.180  28.443   2.250
58333W        W22101  16.809  15.157   4.145
58334W        W22102  21.601  15.663   4.306
58335W        W22103  34.493  18.602   4.720
58336W        W22104   9.702  44.494  13.354
58337W        W22105  33.086   1.955  14.849
58338W        W22106  40.357  35.389  12.961
58339W        W22107  17.723   4.424  11.501
58340W        W22108  34.879  12.177   0.814
58341W        W22109  22.686  15.781  13.427
58342W        W22110  31.954  15.610   0.870
58343W        W22111  37.994  23.736  13.424
58344W        W22112  36.424   2.228   2.349
58345W        W22113   8.841  19.156   4.622
58346W        W22114  17.684  34.038  11.956
58347W        W22115  32.626   1.964  10.416
58348W        W22116  33.438  28.976   4.222
58349W        W22117  30.488  37.433   1.828
58350W        W22118  21.239  30.060  12.956
58351W        W22119  19.643  35.576  12.916
58352W        W22120  31.647  43.800   1.822
58353W        W22121   8.693  44.804  13.433
58354W        W22122  41.293  17.207   4.217
58355W        W22123   3.425  36.527   3.214
58356W        W22124  18.664  40.944   1.834
58357W        W22125  30.604   4.247  10.049
58358W        W22126  24.979   8.259  10.512
58359W        W22127  21.599   1.482   3.670
58360W        W22128  19.749  21.528  10.469
58361W        W22129   3.375  14.229  10.529
58362W        W22130  29.950  34.868   1.805
58363W        W22131  13.220   1.314   3.838
58364W        W22132  32.600  33.593  13.934
58365W        W22133  19.267  29.983  10.005
58366W        W22134  30.554   4.836   0.405
58367W        W22135  39.393  30.589   3.187
58368W        W22136  10.835  38.024  11.424
58369W        W22137   7.191  14.741   2.839
58370W        W22138   7.348  31.102   2.857
58371W        W22139   7.685  30.005  10.410
58372W        W22140  29.942   5.799   2.868
58373W        W22141  17.204  31.954  11.081
58374W        W22142  26.012  26.963  14.887
58375W        W22143  28.106  29.637   3.683
58376W        W22144  10.339  35.885   0.332
58377W        W22145  11.740  21.093  10.044
58378W        W22146  41.004  34.435   3.742
58379W        W22147   0.946   7.768   3.209
58380W        W22148  23.062  11.151   0.388
58381W        W22149  33.457  41.014   1.374
58382W        W22150  34.002  36.964  11.902
58383W        W22151   0.969  29.931  11.016
58384W        W22152  23.104  33.554   9.660
58385W        W22153   9.335  34.948  14.014
58386W        W22154   0.317  31.580  13.509
58387W        W22155  11.790  39.006   4.197
58388W        W22156  35.056   2.932  11.945
58389W        W22157   4.373  17.565   1.801
58390W        W22158   1.317  21.161   3.638
58391W        W22159  44.356  32.487   3.864
58392W        W22160  15.142  18.571   3.366
58393W        W22161  22.217  21.069   4.643
58394W        W22162   3.384  25.050   4.806
58395W        W22163  35.934  33.552  14.807
58396W        W22164  33.976   6.767   0.900
58397W        W22165   8.333  10.261   4.138
58398W        W22166  12.309  31.567  10.921
58399W        W22167   1.953  32.447   4.135
58400W        W22168   6.878  25.006   0.813
58401W        W22169  22.144  42.912  11.029
58402W        W22170  30.586  28.563   0.304
58403W        W22171  18.210   9.856  13.857
58404W        W22172  38.532  39.411   2.336
58405W        W22173  40.332   1.760  12.972
58406W        W22174  43.457   6.421  11.404
58407W        W22175   7.700  36.586  12.030
58408W        W22176   1.284   0.329  11.461
58409W        W22177   1.470  34.377  13.947
58410W        W22178  38.469  23.194   1.831
58411W        W22179  38.544   6.794   0.818
58412W        W22180  29.456  37.347   4.218
58413W        W22181   6.221  27.010   1.260
58414W        W22182  17.566   5.916  11.069
58415W        W22183   0.948  22.014  11.601
58416W        W22184  11.291  27.448  11.500
58417W        W22185   0.304  22.646   1.913
58418W        W22186  28.179   0.475  11.070
58419W        W22187  21.244  28.168   4.193
58420W        W22188   7.267  37.862  14.786
58421W        W22189  21.224  43.433   2.665
58422W        W22190  35.981   9.345  11.069
58423W        W22191   5.741  22.608  13.320
58424W        W22192  12.149  27.529   2.759
58425W        W22193  10.369  15.285   4.132
58426W        W22194  38.541  13.279  10.499
58427W        W22195   7.805  28.999   5.218
58428W        W22196  18.612  27.075   2.221
58429W        W22197  19.551   3.397  10.944
58430W        W22198   5.204  28.473   4.816
58431W        W22199   1.245  31.585  11.033
58432W        W22200   3.828  14.676  12.558
58433W        W22201   2.373  29.664  13.905
58434W        W22202  25.087  35.987  10.429
58435W        W22203  33.509  27.551  13.831
58436W        W22204  11.134  27.071  11.588
58437W        W22205  24.490  24.515  12.000
58438W        W22206  31.145  29.649   3.866
58439W        W22207   6.422   7.870   0.854
58440W        W22208  14.258   4.861   2.321
58441W        W22209  31.953   3.913  11.037
58442W        W22210  13.275  32.620  11.941
58443W        W22211  29.431  43.771   0.426
58444W        W22212  31.618  11.714   4.619
58445W        W22213  38.389  11.788  14.882
58446W        W22214  22.621   0.301  12.981
58447W        W22215  31.124  13.823  12.508
58448W        W22216  31.103   9.678   0.769
58449W        W22217  33.890  11.681   4.225
58450W        W22218   5.900  23.718  11.460
58451W        W22219   7.372  31.014  10.922
58452W        W22220  39.050   8.814  13.489
58453W        W22221  36.506  20.654  12.561
58454W        W22222  33.990  20.659   0.909
58455W        W22223  14.141  23.685   3.734
58456W        W22224  22.034  39.982  13.909
58457W        W22225   5.262  37.879   2.846
58458W        W22226  10.201  28.512  11.414
58459W        W22227  15.798   8.217  13.463
58460W        W22228  16.751  19.752   5.223
58461W        W22229  44.884   3.437   3.291
58462W        W22230  37.389  32.118   2.372
58463W        W22231  31.538  27.625   3.152
58464W        W22232  38.958   9.714  13.349
58465W        W22233  20.073   3.785  14.764
58466W        W22234  14.187  29.664  11.491
58467W        W22235  18.155  32.007  14.981
58468W        W22236   5.425  17.307   1.266
58469W        W22237  14.102   1.466   3.674
58470W        W22238  36.449  28.181   1.933
58471W        W22239   7.899   8.165   4.138
58472W        W22240  34.412   1.796   4.660
58473W        W22241   9.267   8.863  14.442
58474W        W22242   2.795  38.455   4.174
58475W        W22243  19.045  42.878   4.803
58476W        W22244  38.911   6.917   1.279
58477W        W22245  38.042  12.613  12.393
58478W        W22246  10.332  36.358  14.474
58479W        W22247   1.773  13.613   2.887
58480W        W22248   8.768   8.163   0.283
58481W        W22249  32.107  44.298  12.042
58482W        W22250  16.229  12.161   2.414
58483W        W22251  12.633  26.575  14.771
58484W        W22252  19.758  41.420  14.440
58485W        W22253  42.923  36.077  10.599
58486W        W22254  11.298  19.255   0.468
58487W        W22255  41.373  27.580  13.806
58488W        W22256  34.444   3.887  11.934
58489W        W22257   0.448   5.294  13.499
58490W        W22258  37.474  16.145  11.080
58491W        W22259  30.043  29.103   4.344
58492W        W22260  41.964  34.878  13.900
58493W        W22261  38.003  41.481   0.305
58494W        W22262  25.515  16.129  10.446
58495W        W22263  40.377  13.172   1.352
58496W        W22264  27.598   0.404  11.998
58497W        W22265  16.199  19.208   9.968
58498W        W22266   8.883  19.254   0.815
58499W        W22267  19.100  41.945   4.272
58500W        W22268  28.558  16.167  13.905
58501W        W22269  14.744  20.635   2.676
58502W        W22270  27.567   5.312   2.777
58503W        W22271  27.581  41.815   1.323
58504W        W22272  10.366  32.930  11.920
58505W        W22273  22.557  16.196  12.078
58506W        W22274  19.757  17.255  14.802
58507W        W22275  12.157  15.646  12.358
58508W        W22276   2.849  21.100   4.328
58509W        W22277   8.177   8.725   4.203
58510W        W22278  28.160  11.201  14.966
58511W        W22279  22.227  13.347  12.849
58512W        W22280  44.395  41.842  14.001
58513W        W22281  35.598  32.501   2.707
58514W        W22282   3.405   5.304   2.392
58515W        W22283  29.002  24.136   3.871
58516W        W22284  37.031  33.927  11.384
58517W        W22285  32.990  17.284  13.855
58518W        W22286   4.393  26.527   0.337
58519W        W22287  15.630   1.909   3.193
58520W        W22288  34.425  34.370   3.280
58521W        W22289   6.336  12.646  14.465
58522W        W22290   6.289   3.893  11.121
58523W        W22291  19.635  14.204  10.433
58524W        W22292  12.186  15.614  10.576
58525W        W22293  31.134  43.304   3.758
58526W        W22294   5.259  41.880  11.550
58527W        W22295  24.671  12.170  13.443
58528W        W22296  19.222  29.537  13.467
58529W        W22297  41.942  23.731   3.213
58530W        W22298   5.258   0.422  13.444
58531W        W22299  17.281   6.730  10.926
58532W        W22300  39.827  38.563  13.860
58533W        W22301  24.001   6.903   1.384
58534W        W22302  33.462  20.093   0.873
58535W        W22303  29.099  39.502   0.891
58536W        W22304   3.927  43.275   3.829
58537W        W22305   8.697  19.631  13.021
58538W        W22306  20.743   5.780   3.812
58539W        W22307  28.631  36.355   3.759
58540W        W22308  36.355  30.607   4.341
58541W        W22309  24.153  43.446  12.925
58542W        W22310  19.670  11.698  14.313
58543W        W22311  10.330  31.442   2.228
58544W        W22312   0.377  13.601  12.885
58545W        W22313  23.204  39.398   0.785
58546W        W22314  11.752  11.162   3.335
58547W        W22315  29.173  22.644  14.399
58548W        W22316  40.449  23.117  11.458
58549W        W22317  22.560   1.752  11.575
58550W        W22318  37.400  25.475  12.055
58551W        W22319   9.207  29.563   2.334
58552W        W22320   0.253  40.327  14.846
58553W        W22321   1.360  42.288  11.457
58554W        W22322  28.586  22.734  14.445
58555W        W22323  41.354  30.529  10.068
58556W        W22324  35.101  20.162  12.038
58557W        W22325   9.788  10.303  12.935
58558W        W22326  32.549  25.567   0.414
58559W        W22327   0.866  19.270  13.498
58560W        W22328  34.864  36.508  14.362
58561W        W22329  39.872  10.662   2.737
58562W        W22330  33.413   9.802   5.209
58563W        W22331  22.226  20.199  14.983
58564W        W22332  37.998  13.171   2.809
58565W        W22333  30.105  14.204  13.416
58566W        W22334  39.435  26.633   4.291
58567W        W22335  19.771  31.638   4.258
58568W        W22336  30.484  18.184   9.996
58569W        W22337  40.510   8.690  12.977
58570W        W22338  26.645  29.991   3.315
58571W        W22339  28.944  12.136  12.343
58572W        W22340  28.500  10.345  11.520
58573W        W22341   6.336  37.407  14.807
58574W        W22342  42.906  24.159   3.297
58575W        W22343  41.478   3.273   0.290
58576W        W22344  38.843  22.742  11.517
58577W        W22345  34.924  23.237  13.356
58578W        W22346  23.628  16.697   1.282
58579W        W22347  21.210  29.017  11.445
58580W        W22348  36.480  22.545  11.051
58581W        W22349  34.449   2.353   4.151
58582W        W22350  29.623  11.667   3.262
58583W        W22351  22.171  42.409  13.435
58584W        W22352  28.481  30.142   3.272
58585W        W22353  40.381  21.654   0.415
58586W        W22354  38.481  15.653  10.533
58587W        W22355  27.496   6.259   3.153
58588W        W22356  18.103  41.322   2.364
58589W        W22357  31.502  30.636   2.389
58590W        W22358  44.783  28.477  14.016
58591W        W22359  33.386  26.624  13.998
58592W        W22360   1.348   6.798   3.171
58593W        W22361  36.921  32.009  11.465
58594W        W22362  22.191  16.685  14.849
58595W        W22363  34.612  41.448  10.499
58596W        W22364  19.671  40.489  12.861
58597W        W22365  26.486  29.931   0.330
58598W        W22366   9.168  12.819  14.856
58599W        W22367  18.202  25.978  12.995
58600W        W22368   1.866  26.645  13.527
58601W        W22369   0.474  30.480  10.499
58602W        W22370  29.547   7.370  14.988
58603W        W22371  16.254  11.358  14.327
58604W        W22372  13.685  30.058   1.282
58605W        W22373   9.372  17.176  11.524
58606W        W22374  28.162  44.420  10.481
58607W        W22375   0.918  19.563   3.769
58608W        W22376  38.450  34.558  12.879
58609W        W22377  18.063   2.390   0.839
58610W        W22378   1.475   2.250  12.916
58611W        W22379  30.919  37.947  12.072
58612W        W22380  43.386  31.532   3.368
58613W        W22381  19.253   7.353   4.757
58614W        W22382  11.241   9.730   2.817
58615W        W22383  17.235  12.288   3.645
58616W        W22384  36.538   5.788   0.851
58617W        W22385  16.673  44.407   3.300
58618W        W22386   4.349  35.440  13.438
58619W        W22387  18.667  15.746  12.371
58620W        W22388  40.987  16.774  12.379
58621W        W22389  32.002  23.147  14.401
58622W        W22390  27.094  14.834   1.342
58623W        W22391  24.685  28.956   3.331
58624W        W22392   6.206  35.865   2.353
58625W        W22393  37.051   4.764  12.870
58626W        W22394   9.321  11.660   1.270
58627W        W22395  23.181   6.416  13.856
58628W        W22396  38.536  15.220   4.711
58629W        W22397  36.861  22.018   2.888
58630W        W22398   9.720  15.214  10.410
58631W        W22399  26.040   4.780   4.807
58632W        W22400   7.233  14.712   4.733
58633W        W22401  20.257  31.920   3.346
58634W        W22402  24.147   3.441  12.862
58635W        W22403   5.909  37.501  14.359
58636W        W22404  29.147  30.548   1.750
58637W        W22405   9.309  25.515  14.820
58638W        W22406  41.022  17.797  13.978
58639W        W22407  26.146  16.750  14.391
58640W        W22408  21.655  37.030  13.438
58641W        W22409  24.650  28.149  11.007
58642W        W22410   6.764  13.699  13.973
58643W        W22411   1.275  43.770   0.850
58644W        W22412  12.808  16.603   4.260
58645W        W22413  39.324  28.656  11.027
58646W        W22414   1.827  19.571   2.780
58647W        W22415  31.621   5.703   2.839
58648W        W22416  19.178   6.412   3.271
58649W        W22417  13.338  34.491   4.165
58650W        W22418  42.349  12.316   4.192
58651W        W22419  20.156  14.192   1.265
58652W        W22420  30.647  38.946  14.452
58653W        W22421  17.084   9.268  12.969
58654W        W22422   1.345   8.187   0.918
58655W        W22423  21.613   0.779   1.257
58656W        W22424  28.638  18.253   3.237
58657W        W22425  15.672  21.669   4.719
58658W        W22426   2.401  22.632   4.732
58659W        W22427  14.312  27.679   4.631
58660W        W22428  27.658  34.479   0.284
58661W        W22429  35.468  37.872   4.115
58662W        W22430  44.363  22.581  14.494
58663W        W22431  25.124   3.916   1.766
58664W        W22432   4.255  19.538   4.146
58665W        W22433  17.787  13.736  13.893
58666W        W22434  31.076  43.956   0.831
58667W        W22435  35.448   3.768  12.061
58668W        W22436   4.289  32.593   2.893
58669W        W22437  35.049  24.581  12.914
58670W        W22438   0.813  35.855  14.319
58671W        W22439  12.659  34.985   2.800
58672W        W22440   4.294  33.549  11.552
58673W        W22441   0.948  44.299  14.880
58674W        W22442  13.248  27.971   0.449
58675W        W22443  27.551   8.875  13.327
58676W        W22444   4.810  28.650   2.859
58677W        W22445  27.669  24.619   0.383
58678W        W22446  40.964  12.173   3.830
58679W        W22447   7.729  21.597   1.905
58680W        W22448  31.518  23.607  11.050
58681W        W22449  20.592   8.843   0.263
58682W        W22450  38.987  29.083  10.048
58683W        W22451   0.884   1.411   3.855
58684W        W22452   6.303   9.202   4.729
58685W        W22453  37.522  15.779   4.692
58686W        W22454  37.479   1.846   2.879
58687W        W22455  24.069  37.363  10.567
58688W        W22456  42.331  25.482   4.226
58689W        W22457  25.150   0.988   3.275
58690W        W22458  36.508  29.556   2.756
58691W        W22459  37.974  26.481  11.376
58692W        W22460  42.871  36.092  11.882
58693W        W22461  13.213  33.585   3.250
58694W        W22462  30.050  11.274  13.430
58695W        W22463  37.887  27.596   4.611
58696W        W22464  37.515   5.230   2.901
58697W        W22465   2.324  11.713  13.358
58698W        W22466  19.775  41.347  11.484
58699W        W22467  44.988  12.697   1.768
58700W        W22468   0.487  38.504   3.664
58701W        W22469  21.111  32.607  14.788
58702W        W22470  17.591  10.367   3.207
58703W        W22471  26.563  28.673  14.292
58704W        W22472   3.869  23.653  10.929
58705W        W22473  41.852  30.616   2.727
58706W        W22474   8.718  40.944  13.971
58707W        W22475  33.560  41.384  10.614
58708W        W22476  43.008  21.601   2.717
58709W        W22477   0.308  30.940  10.609
58710W        W22478   5.272  41.346   4.628
58711W        W22479   7.350  19.742  11.951
58712W        W22480  40.414  18.239   3.238
58713W        W22481  24.212  22.079   4.260
58714W        W22482  39.398  10.763   3.340
58715W        W22483  33.985  40.824   2.687
58716W        W22484   1.476  15.238  10.515
58717W        W22485  10.305  11.641   5.799
58718W        W22486   6.389   5.789   0.341
58719W        W22487  16.812  31.597  13.007
58720W        W22488  17.773   1.966  10.482
58721W        W22489  44.445   0.443   2.728
58722W        W22490  36.389  42.385   3.684
58723W        W22491  27.468  35.366   0.753
58724W        W22492  40.432  12.804  12.476
58725W        W22493  19.537  17.591  14.368
58726W        W22494  43.435   7.787  11.968
58727W        W22495   4.937  26.030   1.299
58728W        W22496   7.348  11.172   3.827
58729W        W22497  44.758  18.195   3.287
58730W        W22498   8.886   3.770  13.998
58731W        W22499  26.586  18.772   4.131
58732W        W22500   8.311   0.914   0.293
58733W        W22501  39.531  26.100   1.327
58734W        W22502   5.260  16.679  11.117
58735W        W22503  35.962  31.627   0.880
58736W        W22504  29.454  29.573   2.338
58737W        W22505  33.616  32.462  12.568
58738W        W22506   0.932  43.808   0.965
58739W        W22507  43.876   6.377   0.811
58740W        W22508  18.132  18.193   1.260
58741W        W22509  10.869  34.950  12.559
58742W        W22510  29.071  33.473   2.219
58743W        W22511  39.390   0.789   1.411
58744W        W22512  28.178  28.586  12.075
58745W        W22513  20.231  37.500  12.473
58746W        W22514  25.490  26.961   1.786
58747W        W22515  17.742  33.501   3.820
58748W        W22516  42.358  39.836  10.583
58749W        W22517  14.291   0.456   3.227
58750W        W22518  22.686  15.158  12.928
58751W        W22519  14.115  15.205   1.710
58752W        W22520  30.945  27.069  11.451
58753W        W22521  36.010  38.822  14.863
58754W        W22522  41.538  33.129   4.686
58755W        W22523   8.879  33.114  10.609
58756W        W22524  21.228  12.839  10.003
58757W        W22525  31.950   1.270   0.431
58758W        W22526  34.546  20.748   1.296
58759W        W22527   2.402  10.201   0.328
58760W        W22528  22.725  13.722   0.324
58761W        W22529  12.816  22.116  11.506
58762W        W22530  43.826  43.824   3.286
58763W        W22531  34.600  18.787   2.210
58764W        W22532   0.967  29.642  14.867
58765W        W22533  19.228   7.385  12.534
58766W        W22534  14.131  30.637   0.883
58767W        W22535  20.747  36.037   1.695
58768W        W22536  33.930  35.004  11.966
58769W        W22537  19.610   5.899  12.013
58770W        W22538  35.603  43.487  13.061
58771W        W22539  32.026  32.476  11.963
58772W        W22540  10.808   1.945   4.712
58773W        W22541  44.007  34.111  13.996
58774W        W22542   2.811   0.408   1.368
58775W        W22543  16.728  25.972   4.738
58776W        W22544  32.459   9.789  11.124
58777W        W22545  34.086  44.987  14.813
58778W        W22546  37.044  27.494   1.314
58779W        W22547  30.522  31.957  10.613
58780W        W22548  13.296   6.863  10.530
58781W        W22549  34.407  25.982   2.832
58782W        W22550  22.593  30.459   4.307
58783W        W22551  12.137  42.518  13.026
58784W        W22552  31.040  33.923   4.244
58785W        W22553  39.351  18.111   3.225
58786W        W22554  38.400   0.800   4.169
58787W        W22555   2.248  37.387  14.992
58788W        W22556  41.030  43.799  11.063
58789W        W22557  22.521  16.130  10.490
58790W        W22558  17.673  21.691   1.796
58791W        W22559  20.167   5.747  10.982
58792W        W22560  43.837  22.529   3.180
58793W        W22561  28.658  44.266  11.988
58794W        W22562  22.241  41.414  11.893
58795W        W22563  13.113  30.125  13.992
58796W        W22564  32.103  23.180  12.558
58797W        W22565  24.037  19.728  13.321
58798W        W22566  11.311  29.145   0.782
58799W        W22567  43.929   9.158  14.972
58800W        W22568   5.882  25.086   4.606
58801W        W22569  14.122  37.522   3.238
58802W        W22570  18.109  38.380   4.326
58803W        W22571  27.118  12.788  14.937
58804W        W22572  20.137  31.962  14.423
58805W        W22573  11.255  30.038   4.250
58806W        W22574   5.244   9.767  10.491
58807W        W22575  37.883  33.984   4.283
58808W        W22576  40.017  12.285   0.407
58809W        W22577  17.726  34.472   4.172
58810W        W22578   6.312  33.379   0.417
58811W        W22579  26.115  21.216   2.804
58812W        W22580  31.604  39.864  14.371
58813W        W22581   0.430   9.337   4.675
58814W        W22582  40.011  11.149  10.484
58815W        W22583  40.832  32.066   3.845
58816W        W22584  43.835  44.297   3.820
58817W        W22585  10.184  29.487   1.747
58818W        W22586  29.515  40.901   0.395
58819W        W22587   2.827  14.229  11.562
58820W        W22588  11.666  17.640  13.956
58821W        W22589  39.867  34.968   1.875
58822W        W22590   6.331  11.223  12.927
58823W        W22591  37.958  13.786   3.819
58824W        W22592  14.268   6.915   3.201
58825W        W22593  27.637  40.049   0.369
58826W        W22594  18.152  10.705   0.954
58827W        W22595  25.007  42.790   2.855
58828W        W22596   9.171  14.782   0.932
58829W        W22597  29.137   1.744   4.837
58830W        W22598  26.140  32.059  14.313
58831W        W22599   2.881  21.558   0.791
58832W        W22600  20.214   7.376  10.589
58833W        W22601   6.712  16.154  10.586
58834W        W22602  39.894  42.890  13.953
58835W        W22603  39.426  29.548  12.020
58836W        W22604  10.343  30.012   4.178
58837W        W22605  26.653  40.427   5.232
58838W        W22606   3.259  44.435   0.316
58839W        W22607   4.861  29.161  12.341
58840W        W22608   0.359  31.464   4.219
58841W        W22609   0.437  41.803  13.882
58842W        W22610  26.493  42.512  13.843
58843W        W22611   7.814   9.381  13.868
58844W        W22612  43.980  11.332   2.679
58845W        W22613  14.610   1.359  14.840
58846W        W22614  40.023  19.278   2.779
58847W        W22615   6.400  17.749   2.826
58848W        W22616  20.638   0.947   1.423
58849W        W22617   2.912  16.195  11.924
58850W        W22618  28.098  33.566  10.414
58851W        W22619  30.015  36.977  14.424
58852W        W22620  30.099  22.692   1.336
58853W        W22621   0.265  19.709   4.802
58854W        W22622  15.598  11.762   4.310
58855W        W22623  23.152   5.844   3.310
58856W        W22624  19.611  43.400  12.486
58857W        W22625  26.123   7.300  12.456
58858W        W22626   7.367  11.740  14.460
58859W        W22627  40.854  42.426  14.281
58860W        W22628  26.131  15.241   9.596
58861W        W22629  13.789   0.391   4.283
58862W        W22630  29.578   4.391  12.487
58863W        W22631  15.111  26.646   4.148
58864W        W22632  32.600  38.405   4.640
58865W        W22633   2.415  26.549   3.351
58866W        W22634  32.096  21.695  11.913
58867W        W22635   7.723  29.638  13.324
58868W        W22636  42.410  11.246   0.915
58869W        W22637  44.498  19.123   1.716
58870W        W22638  27.019  21.560   2.265
58871W        W22639   4.757  11.138   3.847
58872W        W22640  31.094   8.365  11.546
58873W        W22641  37.959  23.027  14.293
58874W        W22642  18.141  25.664  13.938
58875W        W22643  40.982   4.877  11.078
58876W        W22644  34.414  36.554   4.336
58877W        W22645  40.349  35.457   0.919
58878W        W22646  27.458  13.249  14.387
58879W        W22647   5.777  34.966   3.214
58880W        W22648  33.498  12.705  13.925
58881W        W22649  22.689  43.332  13.309
58882W        W22650   7.715  22.717  11.612
58883W        W22651  32.939   2.903   0.259
58884W        W22652   6.350  31.543   3.314
58885W        W22653  29.667   8.180   3.733
58886W        W22654  35.909  34.938   2.205
58887W        W22655  44.770  11.144  12.501
58888W        W22656  24.060  20.171  12.550
58889W        W22657  21.090  14.715  11.375
58890W        W22658   4.221  28.605   4.818
58891W        W22659  26.613  33.446   1.292
58892W        W22660  11.207  42.464   1.855
58893W        W22661  42.437   1.344   4.786
58894W        W22662  36.866  26.537   2.249
58895W        W22663  35.554  10.746  11.083
58896W        W22664  35.874  27.628   2.870
58897W        W22665  15.185  22.109  10.607
58898W        W22666   8.273  37.880   3.698
58899W        W22667   8.823  25.000   0.255
58900W        W22668  40.497  12.252  13.840
58901W        W22669  29.452  19.694  12.015
58902W        W22670  42.790  29.971   4.732
58903W        W22671  34.597  23.183   4.236
58904W        W22672  40.394  11.225  11.962
58905W        W22673  17.204   0.754   1.443
58906W        W22674  28.171  14.788  11.500
58907W        W22675  21.248  14.733   4.328
58908W        W22676  37.567  26.531   1.876
58909W        W22677  13.302   3.918  11.947
58910W        W22678   6.774  18.671  13.420
58911W        W22679  38.895  33.509  13.545
58912W        W22680  28.077  42.305  13.926
58913W        W22681  36.910   0.937  11.962
58914W        W22682  12.634   2.967   2.292
58915W        W22683  32.477  35.535   3.169
58916W        W22684  16.085  39.984   1.816
58917W        W22685  43.507  34.097   0.762
58918W        W22686  29.122  25.631   3.220
58919W        W22687  30.987  31.099  12.023
58920W        W22688  20.244   5.306  14.971
58921W        W22689  44.898  34.050  14.425
58922W        W22690  20.645  20.225   2.408
58923W        W22691   2.396  35.871  14.305
58924W        W22692  37.841  25.986  12.915
58925W        W22693  41.035   6.803  13.536
58926W        W22694   5.414  26.531  10.641
58927W        W22695  35.535   6.707   1.720
58928W        W22696  40.501  37.959  13.429
58929W        W22697  19.689  44.889   3.366
58930W        W22698  34.040   8.852  12.565
58931W        W22699  31.947   8.828   4.763
58932W        W22700  25.661  26.645   4.699
58933W        W22701  19.109  41.484   2.353
58934W        W22702  33.511  10.321  14.826
58935W        W22703  23.577  18.570  14.303
58936W        W22704  19.159  31.005   4.272
58937W        W22705  36.460  31.937   3.763
58938W        W22706  20.592  33.957   4.767
58939W        W22707  26.994  30.932  11.959
58940W        W22708  15.201  11.779  12.470
58941W        W22709   1.362   2.955   3.271
58942W        W22710  14.601   2.342  14.834
58943W        W22711  27.175  19.591  13.934
58944W        W22712  28.008  32.037   3.229
58945W        W22713  36.384  23.598  12.823
58946W        W22714  38.990  27.681   0.785
58947W        W22715  39.006   8.681  12.493
58948W        W22716  38.070   5.407   1.405
58949W        W22717  17.664  24.663  10.969
58950W        W22718  40.982  23.027  13.468
58951W        W22719  23.596  39.005   2.232
58952W        W22720   8.741  25.558   2.726
58953W        W22721  15.655  17.239  11.515
58954W        W22722  10.831  17.745   0.242
58955W        W22723  14.753  33.521   2.742
58956W        W22724   6.271  23.109   2.206
58957W        W22725   5.760   4.407   0.893
58958W        W22726   9.884   1.413   3.232
58959W        W22727  26.187  22.624  14.771
58960W        W22728   0.924   5.743   0.826
58961W        W22729  10.847  21.733  12.996
58962W        W22730  19.730  15.783  11.534
58963W        W22731  13.330  30.051   1.767
58964W        W22732  29.546  31.648   4.646
58965W        W22733  31.000  29.441   0.357
58966W        W22734  15.817  39.811   0.451
58967W        W22735  42.472  38.375  12.953
58968W        W22736  15.584  37.973  11.856
58969W        W22737  34.948  18.642   3.215
58970W        W22738   4.902  43.929   1.352
58971W        W22739  12.684   8.174  12.382
58972W        W22740  11.818   9.394  13.839
58973W        W22741  29.997  28.465   4.649
58974W        W22742  36.847  29.135   4.241
58975W        W22743   5.698  27.538   4.345
58976W        W22744   1.902   8.346  12.438
58977W        W22745  28.180  44.490  14.814
58978W        W22746  26.073  26.157   2.723
58979W        W22747  27.501  22.222  12.832
58980W        W22748   6.360  12.663  11.546
58981W        W22749  24.585  13.238  12.381
58982W        W22750  19.614  25.007  11.376
58983W        W22751  43.350  31.587  11.531
58984W        W22752  18.578  29.425  12.079
58985W        W22753  17.558  36.095   1.370
58986W        W22754  34.511  15.791  13.910
58987W        W22755  44.464  11.241   2.410
58988W        W22756   0.780  43.317   2.381
58989W        W22757  13.778  40.034  13.817
58990W        W22758   0.484  15.269   0.734
58991W        W22759  41.975  27.467   3.208
58992W        W22760  32.489  18.138   5.207
58993W        W22761  24.112   4.875   4.154
58994W        W22762  12.293  12.236  13.479
58995W        W22763  37.912  16.241   0.832
58996W        W22764  21.069  38.571  10.482
58997W        W22765  28.545  11.279   3.668
58998W        W22766  19.771   9.217   3.212
58999W        W22767  14.812  29.919  10.989
59000W        W22768  15.114  30.049  14.772
59001W        W22769  39.055  20.135  11.492
59002W        W22770  23.009  17.777   3.861
59003W        W22771  37.054  19.184   3.743
59004W        W22772  25.687  32.936   3.311
59005W        W22773   1.246  18.550  13.050
59006W        W22774  21.752  10.783  13.821
59007W        W22775  11.770  44.347   2.742
59008W        W22776   2.298  19.643  13.859
59009W        W22777  30.914   9.661   4.710
59010W        W22778  18.608   4.806  13.421
59011W        W22779  42.413  11.366   3.164
59012W        W22780   6.301   6.812  13.044
59013W        W22781  20.114  40.999  12.486
59014W        W22782   5.733  21.252  10.536
59015W        W22783  34.955  19.560  10.945
59016W        W22784  23.144  33.883  13.057
59017W        W22785  37.928  29.553  10.924
59018W        W22786  41.997  28.957   1.364
59019W        W22787  15.697   4.394  14.822
59020W        W22788  41.364   9.241   4.131
59021W        W22789  13.312  34.542  12.512
59022W        W22790  12.838   0.418   2.795
59023W        W22791  25.678   0.948  12.947
59024W        W22792  41.354  23.008  13.428
59025W        W22793  27.977  23.619   1.716
59026W        W22794  28.521  28.648   0.729
59027W        W22795  40.369  18.783   1.358
59028W        W22796  20.634  42.886  11.450
59029W        W22797  37.852  28.600  12.045
59030W        W22798  31.437  37.919  13.430
59031W        W22799  34.062  29.547  13.453
59032W        W22800  21.597  21.754   0.450
59033W        W22801   4.839   6.424  13.463
59034W        W22802  29.567  35.015  12.872
59035W        W22803  16.812  43.791   3.374
59036W        W22804  32.510  19.576   5.247
59037W        W22805  44.817  24.152  10.437
59038W        W22806   9.680   8.851   3.286
59039W        W22807  11.755  27.580   2.307
59040W        W22808  44.448   9.699  13.977
59041W        W22809   8.255  15.619  10.549
59042W        W22810   4.284  12.167  12.505
59043W        W22811  35.050  37.575  13.391
59044W        W22812  23.532  29.621  12.530
59045W        W22813  27.611  23.661   0.948
59046W        W22814   4.303  38.549  11.055
59047W        W22815   4.388  44.473  12.983
59048W        W22816  16.160  34.110  13.977
59049W        W22817   4.861  30.650  14.899
59050W        W22818   1.765  11.838  11.904
59051W        W22819   0.840  39.447  12.993
59052W        W22820   2.372  31.024   0.354
59053W        W22821  42.511  26.633   1.701
59054W        W22822  15.713   3.278  10.994
59055W        W22823  26.137  31.093  10.414
59056W        W22824  40.467   8.276   0.833
59057W        W22825  21.045  42.357   0.802
59058W        W22826   3.739  15.155  11.934
59059W        W22827  40.389  43.453  11.590
59060W        W22828  40.960  33.996  10.546
59061W        W22829  18.691  26.197   3.167
59062W        W22830   3.894  34.512  12.510
59063W        W22831  34.997  27.072   3.230
59064W        W22832  40.936  22.700   2.744
59065W        W22833  19.191  35.006   4.333
59066W        W22834  13.243  19.098  14.403
59067W        W22835  29.030  41.304   4.813
59068W        W22836  34.066  16.194   0.902
59069W        W22837  32.887  26.093   2.671
59070W        W22838  16.655  24.191   1.709
59071W        W22839   4.418  35.423  11.571
59072W        W22840  31.937  11.265   1.439
59073W        W22841  27.046  30.111   3.750
59074W        W22842  31.125  19.545  10.012
59075W        W22843   6.715   1.736  13.496
59076W        W22844  20.106  20.568   1.872
59077W        W22845  14.309  41.832   4.227
59078W        W22846  37.450  10.307  12.534
59079W        W22847  22.584  15.689   3.295
59080W        W22848   5.909  26.063  12.483
59081W        W22849  27.026  17.606   0.301
59082W        W22850  22.520  19.715   2.803
59083W        W22851  43.006  18.680   1.811
59084W        W22852  38.566  36.459  10.515
59085W        W22853   1.323  37.933  10.404
59086W        W22854   7.845   0.902  10.005
59087W        W22855  27.116  37.369   2.187
59088W        W22856   1.777  33.959  13.041
59089W        W22857  37.551  40.523   1.930
59090W        W22858  19.660  17.112   1.818
59091W        W22859  12.181  19.272   0.399
59092W        W22860  24.606  44.427   3.371
59093W        W22861   5.270   0.782   1.343
59094W        W22862  19.275   2.776   4.306
59095W        W22863  42.862  20.699  10.028
59096W        W22864  36.494  31.921  14.402
59097W        W22865   0.924  43.880  14.918
59098W        W22866  29.074  29.984   3.148
59099W        W22867  26.508  26.068   1.235
59100W        W22868  43.404  30.554   3.679
59101W        W22869  28.455  21.586  11.613
59102W        W22870  23.231  35.499   5.131
59103W        W22871  18.671  19.257  12.392
59104W        W22872   0.964  39.441   3.739
59105W        W22873  33.964  24.648   1.393
59106W        W22874   0.809  23.989   0.369
59107W        W22875   2.945  25.552   3.268
59108W        W22876  37.023  44.417  11.576
59109W        W22877  19.760  33.025  13.378
59110W        W22878  19.068  10.228  14.763
59111W        W22879   8.748  33.562  12.477
59112W        W22880  17.727  40.986   4.742
59113W        W22881  40.837  36.411  12.511
59114W        W22882  25.596  17.635  11.864
59115W        W22883  35.906  13.835  13.500
59116W        W22884  12.675  16.617   3.854
59117W        W22885   9.648  18.164   2.383
59118W        W22886  35.994  25.160   4.752
59119W        W22887  36.064  33.073  10.409
59120W        W22888  23.736   0.830   0.329
59121W        W22889  31.905  29.436   1.849
59122W        W22890  33.921  21.656   0.854
59123W        W22891   1.341  33.017  10.563
59124W        W22892  36.075  36.470  13.361
59125W        W22893  21.088  12.618  12.494
59126W        W22894   3.845   4.431  10.966
59127W        W22895  13.666  25.509  14.496
59128W        W22896   0.450  24.121   2.711
59129W        W22897   1.384  13.205  10.970
59130W        W22898  36.851   7.675  13.811
59131W        W22899  21.203  43.351  14.328
59132W        W22900  41.933  17.789   0.308
59133W        W22901  37.998  43.407  12.038
59134W        W22902  27.007  18.254  14.866
59135W        W22903  41.531  31.930   1.868
59136W        W22904  42.957  21.592   3.710
59137W        W22905  23.196  35.899  10.139
59138W        W22906  15.255  41.016   3.180
59139W        W22907   7.894  33.018  14.779
59140W        W22908  44.816  36.543  14.329
59141W        W22909   6.277  12.716  13.408
59142W        W22910  17.147  34.429   2.372
59143W        W22911  33.094  39.975   1.703
59144W        W22912   7.718  30.945  12.453
59145W        W22913   9.358  20.632   0.373
59146W        W22914  28.958   2.736   2.274
59147W        W22915  30.977  32.627   3.312
59148W        W22916  38.906  18.591   5.239
59149W        W22917  32.393  31.068  12.032
59150W        W22918  16.108   4.858   1.826
59151W        W22919   0.949  20.743   4.234
59152W        W22920   4.320   2.463  14.501
59153W        W22921  40.048  24.210   1.247
59154W        W22922   7.838  43.512   4.794
59155W        W22923  23.993  41.914  14.994
59156W        W22924   6.815  34.934   4.773
59157W        W22925  16.634  28.639  14.944
59158W        W22926  37.009  16.678   3.780
59159W        W22927   9.275  25.706  13.548
59160W        W22928  41.937  28.167   3.741
59161W        W22929  28.939  40.829  13.464
59162W        W22930   4.728  42.851  10.543
59163W        W22931  10.158  29.610  12.885
59164W        W22932  30.130  40.028  12.362
59165W        W22933   5.728  23.582   2.375
59166W        W22934   6.417  22.680  11.561
59167W        W22935  32.073  25.095  10.153
59168W        W22936   2.741  22.697  12.459
59169W        W22937   7.867  38.918  12.950
59170W        W22938   4.433  15.594   0.380
59171W        W22939  44.844  30.640  10.553
59172W        W22940  37.018  38.548   4.752
59173W        W22941  37.961  29.519   1.792
59174W        W22942  29.083  34.517   1.233
59175W        W22943  38.962  33.477   3.695
59176W        W22944  20.197  11.767  10.553
59177W        W22945  16.710  13.601   4.624
59178W        W22946   1.792   1.389   4.701
59179W        W22947  11.132  28.470  13.880
59180W        W22948  15.667   3.917  12.441
59181W        W22949   0.929  43.940   3.157
59182W        W22950  27.600   5.793  10.428
59183W        W22951   9.861  13.222  11.477
59184W        W22952  12.760   9.754  13.799
59185W        W22953  29.947  36.417  12.959
59186W        W22954  27.644   4.297  14.413
59187W        W22955   3.453  25.705   1.796
59188W        W22956   2.274  26.203   3.185
59189W        W22957  36.478  34.434  10.932
59190W        W22958  44.797  42.948   4.225
59191W        W22959  26.505  23.182  14.840
59192W        W22960  38.849  30.414  11.978
59193W        W22961  13.762  12.729  10.550
59194W        W22962  35.863  14.739  14.927
59195W        W22963  28.439   2.258  13.835
59196W        W22964   5.261  24.499   3.278
59197W        W22965  18.591  30.636  11.107
59198W        W22966   2.423  10.271   3.796
59199W        W22967  16.767  28.490  13.529
59200W        W22968  33.958  29.652   0.861
59201W        W22969  38.537  33.982   5.635
59202W        W22970  44.773  37.569  14.375
59203W        W22971  44.365  24.100   1.874
59204W        W22972  14.113  19.139   4.706
59205W        W22973   7.363  21.257  14.300
59206W        W22974  10.821  29.499   4.213
59207W        W22975  27.101  20.144   1.358
59208W        W22976  26.657  25.582  10.983
59209W        W22977   1.924  35.067  14.823
59210W        W22978  18.706  13.836  14.490
59211W        W22979   2.318  17.640   1.385
59212W        W22980   9.155   9.160  13.063
59213W        W22981  19.638  12.358   1.223
59214W        W22982  41.935  11.249   4.799
59215W        W22983  11.687  44.998   0.833
59216W        W22984  43.976   5.364  12.462
59217W        W22985  38.830  36.999  14.955
59218W        W22986  36.402  15.236  10.926
59219W        W22987  31.615   9.169   3.362
59220W        W22988  42.347  21.111   1.859
59221W        W22989  39.381  22.237   4.271
59222W        W22990  18.693  38.568   3.337
59223W        W22991  33.537  44.469   1.921
59224W        W22992  41.478  33.954  14.350
59225W        W22993   0.332  35.477   2.297
59226W        W22994  31.080  18.290   1.818
59227W        W22995  34.392  44.907   4.742
59228W        W22996  25.670   3.939  11.093
59229W        W22997   8.690   9.158  14.963
59230W        W22998  39.382   5.281  13.854
59231W        W22999  40.410   3.714   4.804
59232W        W23000  43.877  24.097  12.066
59233W        W23001  29.143  40.373  10.522
59234W        W23002   8.356   8.339   0.843
59235W        W23003  16.589   9.271  12.475
59236W        W23004  17.134  16.086   5.262
59237W        W23005   9.855  35.376  10.571
59238W        W23006  26.703   5.240   0.851
59239W        W23007  13.638  26.483  14.512
59240W        W23008  39.396   7.679   0.914
59241W        W23009  25.701   0.818   4.787
59242W        W23010   3.310  23.503  12.988
59243W        W23011  36.463  41.399   0.324
59244W        W23012   9.826  16.139   0.929
59245W        W23013   5.878  36.431   0.464
59246W        W23014  29.080  17.062   0.845
59247W        W23015  11.322  21.730  13.892
59248W        W23016  11.764  34.112   4.209
59249W        W23017  42.927   5.709   4.299
59250W        W23018  40.518  22.509  11.054
59251W        W23019  17.218   0.251   4.244
59252W        W23020  36.935   9.185  13.845
59253W        W23021  25.625   7.409  12.033
59254W        W23022   2.820  32.979   2.381
59255W        W23023  17.210  22.743   1.402
59256W        W23024  34.938  12.259   2.712
59257W        W23025  14.609  16.677   0.886
59258W        W23026   8.379  18.765  12.374
59259W        W23027  44.436  40.033   4.762
59260W        W23028  29.106  10.329   3.638
59261W        W23029  44.777  15.682  13.022
59262W        W23030  15.699  15.640   0.953
59263W        W23031  17.679  23.193   4.155
59264W        W23032  27.679  41.865  14.336
59265W        W23033  20.623  15.085  13.415
59266W        W23034  44.984  12.794  12.016
59267W        W23035  34.501  38.400   1.695
59268W        W23036  41.320  41.002  13.312
59269W        W23037   6.796  27.653   2.287
59270W        W23038  40.332   4.799   3.666
59271W        W23039  44.392  32.415  10.578
59272W        W23040  27.151  36.075  11.545
59273W        W23041   1.350  22.515   3.702
59274W        W23042  27.600  43.434  11.128
59275W        W23043  34.566  28.089   0.739
59276W        W23044  25.103  43.426  12.360
59277W        W23045  34.516  43.430  13.859
59278W        W23046   7.291  19.767  13.489
59279W        W23047  34.598  32.501   0.318
59280W        W23048   7.346   5.815  12.535
59281W        W23049  31.592  22.049   1.874
59282W        W23050  20.708  37.447   2.221
59283W        W23051  34.867  28.551  12.483
59284W        W23052  29.985   2.343  12.868
59285W        W23053  20.741   7.734   3.737
59286W        W23054  33.005  19.568  11.000
59287W        W23055   3.380  21.653   4.796
59288W        W23056   0.432  36.397  13.477
59289W        W23057  32.911  10.664  11.409
59290W        W23058  16.126   0.254  11.032
59291W        W23059  10.857  26.700   4.631
59292W        W23060  35.405  36.379   2.366
59293W        W23061  29.510  23.146   1.329
59294W        W23062  31.507  31.433  11.461
59295W        W23063  21.132  17.799   2.186
59296W        W23064  29.078  19.676   0.815
59297W        W23065  10.852  27.053   1.388
59298W        W23066  23.072  19.722   1.780
59299W        W23067  36.483  11.819   3.846
59300W        W23068  11.799  32.922   4.315
59301W        W23069   5.839   1.472   3.177
59302W        W23070   8.324  11.840  12.551
59303W        W23071  14.207  13.696  14.964
59304W        W23072  31.021  23.993   5.159
59305W        W23073  16.631  16.300   1.892
59306W        W23074  35.034  35.370  10.574
59307W        W23075  21.726  40.502  14.761
59308W        W23076  27.175  18.124  13.332
59309W        W23077  32.966  42.381  11.935
59310W        W23078  22.099  12.699  12.414
59311W        W23079  44.332  34.055   2.895
59312W        W23080  11.191  21.529   1.833
59313W        W23081   0.771  28.023   1.364
59314W        W23082   2.271   9.687   1.351
59315W        W23083  24.114  30.633   4.615
59316W        W23084  14.814  27.960  13.896
59317W        W23085  18.258  42.016  14.940
59318W        W23086  24.059  18.110  12.047
59319W        W23087  14.694  27.449   3.822
59320W        W23088  11.188  41.869   0.446
59321W        W23089  11.673  21.550  14.799
59322W        W23090  31.587  24.098   1.885
59323W        W23091  33.898  32.533   4.296
59324W        W23092   9.224  35.497  10.628
59325W        W23093  37.579  44.967  14.830
59326W        W23094  18.695  25.591  13.022
59327W        W23095   2.793   0.913  13.330
59328W        W23096  26.601  25.613   2.381
59329W        W23097   6.346  33.918   4.734
59330W        W23098  20.057   8.171  12.056
59331W        W23099   2.886  14.772   0.833
59332W        W23100  22.543  11.850   5.236
59333W        W23101  29.557  43.430  14.897
59334W        W23102  32.482  37.421  13.384
59335W        W23103  20.163  25.563   1.933
59336W        W23104  40.968  34.479  14.895
59337W        W23105  11.753   5.873  10.629
59338W        W23106   3.755  20.125  10.573
59339W        W23107  14.755  40.913  10.977
59340W        W23108   2.442  44.386  13.346
59341W        W23109  38.550  25.187   1.311
59342W        W23110   3.362  40.046   2.775
59343W        W23111  26.479   1.383  13.819
59344W        W23112  16.252  10.176   4.324
59345W        W23113  22.679  18.121   2.717
59346W        W23114   7.767   4.819  10.987
59347W        W23115  37.014   2.275  11.427
59348W        W23116  33.613   6.355   3.866
59349W        W23117  27.481  28.095   3.255
59350W        W23118   8.178   7.240   0.341
59351W        W23119   7.874  10.300   4.709
59352W        W23120  31.413  21.021   4.284
59353W        W23121  17.150   0.493   1.735
59354W        W23122  22.998  31.922   3.358
59355W        W23123   2.238  39.904  14.934
59356W        W23124  24.161   2.871  13.867
59357W        W23125  15.686  30.524   3.734
59358W        W23126  26.684  31.962   4.144
59359W        W23127  33.626  26.068  14.499
59360W        W23128  44.491  12.361   0.289
59361W        W23129  23.188  26.979  13.466
59362W        W23130  16.297  23.187   1.386
59363W        W23131  43.314  43.796   0.813
59364W        W23132   8.377  30.029  11.386
59365W        W23133  35.498  37.894   2.308
59366W        W23134  44.454  29.098  11.603
59367W        W23135  26.542  36.505  12.073
59368W        W23136  42.489  14.738  14.467
59369W        W23137  42.892  26.621  10.105
59370W        W23138  44.784  29.998  12.577
59371W        W23139  20.222   1.861   1.885
59372W        W23140  41.456  36.503  11.534
59373W        W23141   3.392  25.480   4.668
59374W        W23142  20.261  33.027   1.344
59375W        W23143  28.018   8.187  12.046
59376W        W23144  35.497  16.282   2.320
59377W        W23145  27.158  22.108  10.989
59378W        W23146  31.570   5.357  11.000
59379W        W23147  18.735  32.947   3.318
59380W        W23148  27.689   7.869   0.392
59381W        W23149  44.929   9.152   4.801
59382W        W23150  33.487  14.111  10.452
59383W        W23151  17.187  41.822   4.791
59384W        W23152  32.996  35.018  11.480
59385W        W23153  32.502  41.855   2.810
59386W        W23154  38.948  36.078   2.189
59387W        W23155   5.325   6.753  14.972
59388W        W23156  31.464  10.682   3.154
59389W        W23157   3.852  22.242  12.845
59390W        W23158   2.839  23.198  11.388
59391W        W23159  17.247  27.066   4.722
59392W        W23160  38.458  14.307  11.481
59393W        W23161  39.444  34.037   9.606
59394W        W23162   2.257   6.836  12.387
59395W        W23163  32.611   1.394  13.995
59396W        W23164   0.926  28.671  11.388
59397W        W23165   1.844  40.991  13.841
59398W        W23166   3.339  43.865  11.504
59399W        W23167  37.458  25.527   4.210
59400W        W23168  12.244  33.433   0.811
59401W        W23169  10.218  25.037  10.635
59402W        W23170  32.139  13.690  13.833
59403W        W23171  27.547   5.205   4.203
59404W        W23172  16.244  14.621   1.399
59405W        W23173   7.338  19.122   2.346
59406W        W23174  13.246  24.601   0.953
59407W        W23175  36.851  32.935  12.917
59408W        W23176  20.196  34.957   4.767
59409W        W23177   6.688  39.321   0.865
59410W        W23178   3.918  43.869   1.924
59411W        W23179  25.007  29.546   2.752
59412W        W23180  27.537  10.307   3.233
59413W        W23181  33.381  40.002   3.827
59414W        W23182  31.567  35.463  13.395
59415W        W23183  23.607  21.150  12.988
59416W        W23184   5.250   8.901   4.214
59417W        W23185  43.461  43.330   4.254
59418W        W23186  14.806  25.160  12.530
59419W        W23187  10.710  22.172  13.387
59420W        W23188   8.295  40.798   3.257
59421W        W23189  41.968  42.928   0.415
59422W        W23190  17.110  27.099   0.846
59423W        W23191   7.718  25.118   1.355
59424W        W23192  26.166   7.175  13.048
59425W        W23193  34.533  35.556  14.282
59426W        W23194  11.701  25.122   4.743
59427W        W23195   0.769  35.033  11.578
59428W        W23196  13.614  30.600  12.034
59429W        W23197  17.194  39.468   1.707
59430W        W23198  14.320  19.708   2.723
59431W        W23199  16.728  17.207  12.002
59432W        W23200  28.450  16.617   1.697
59433W        W23201  10.810  44.775   0.389
59434W        W23202  17.200  19.588  11.432
59435W        W23203  13.789  39.350   2.291
59436W        W23204  28.632  12.667   2.738
59437W        W23205  28.552  34.957   5.787
59438W        W23206   9.330  37.567   3.258
59439W        W23207  36.389  13.305   1.846
59440W        W23208  33.091   3.857  13.472
59441W        W23209  32.887  20.723   0.761
59442W        W23210  43.789   1.888  13.389
59443W        W23211  23.057  31.629   0.936
59444W        W23212  37.892  44.931  11.535
59445W        W23213  11.817   6.715   1.338
59446W        W23214  34.400  29.598  11.984
59447W        W23215   0.794  28.005   1.923
59448W        W23216  27.605   9.235  13.492
59449W        W23217  39.986  33.402  11.014
59450W        W23218  19.556  36.972   0.420
59451W        W23219  43.427  26.037  13.856
59452W        W23220  37.435  31.630  14.801
59453W        W23221  28.573  10.632   2.897
59454W        W23222   7.382   6.846   2.699
59455W        W23223  33.438   8.192  13.527
59456W        W23224  32.025  44.884  12.899
59457W        W23225  20.539  38.035   0.873
59458W        W23226  30.556  38.913   3.754
59459W        W23227  33.919   4.793   1.720
59460W        W23228   4.213  36.532   0.327
59461W        W23229   9.247  44.467   2.375
59462W        W23230  18.662  43.812  11.528
59463W        W23231   1.336  13.687  14.815
59464W        W23232  24.532  38.946   1.263
59465W        W23233  31.519   0.854   2.271
59466W        W23234   0.943   8.211  11.083
59467W        W23235  41.397   1.447   4.137
59468W        W23236  17.114   5.874  14.454
59469W        W23237  33.526  16.601   2.760
59470W        W23238  15.183  24.209  14.295
59471W        W23239   6.290  40.337  12.439
59472W        W23240  24.142  24.716  13.494
59473W        W23241  29.533  34.961   1.899
59474W        W23242  44.463   5.830  14.017
59475W        W23243  42.482   3.287  12.501
59476W        W23244  34.019  22.619  12.543
59477W        W23245  12.144  30.004   4.124
59478W        W23246  38.346  38.950  11.375
59479W        W23247  25.550  31.141  11.545
59480W        W23248  20.690  33.108  12.825
59481W        W23249   2.347  42.807   4.801
59482W        W23250  14.193   2.731  10.478
59483W        W23251  44.476   6.884  11.903
59484W        W23252   1.332  16.696  10.921
59485W        W23253  19.688  33.059   3.690
59486W        W23254  15.291  22.067  12.428
59487W        W23255  16.207  41.875   1.237
59488W        W23256  23.206  17.301  11.503
59489W        W23257  31.422  14.176  12.041
59490W        W23258  27.971  13.126   4.696
59491W        W23259  14.792  27.593   2.355
59492W        W23260  44.475  36.462  10.943
59493W        W23261  24.650  15.243  10.425
59494W        W23262  41.876  25.549  14.027
59495W        W23263   8.359  17.099  10.616
59496W        W23264  32.042  22.572   3.382
59497W        W23265  27.690  13.696   2.729
59498W        W23266  36.569  16.234   3.733
59499W        W23267   4.366  27.574  14.762
59500W        W23268  13.642  32.037   4.167
59501W        W23269  16.268  35.893  13.374
59502W        W23270  37.936  38.967   0.962
59503W        W23271  27.500  31.619   0.349
59504W        W23272   9.756  22.166   4.242
59505W        W23273  30.080   8.894   4.163
59506W        W23274  22.691   6.836   1.839
59507W        W23275  22.594  37.036   2.706
59508W        W23276  44.300   1.805   3.168
59509W        W23277  16.119  19.267  13.042
59510W        W23278  37.405  35.856   3.352
59511W        W23279   3.833   2.783   1.799
59512W        W23280  17.266  37.567  12.937
59513W        W23281  19.119  38.531   2.746
59514W        W23282  14.722  41.979  10.505
59515W        W23283  24.553   3.302   1.865
59516W        W23284  16.208  41.333   1.254
59517W        W23285  25.656  15.656   3.267
59518W        W23286  34.030   8.342   2.728
59519W        W23287  35.488   0.409  14.800
59520W        W23288   0.958  14.127   4.274
59521W        W23289  28.640   8.851   4.832
59522W        W23290  34.057  23.164   1.278
59523W        W23291   4.916  10.308   3.716
59524W        W23292  41.891  28.548  13.480
59525W        W23293  17.657  12.278  12.920
59526W        W23294  20.093  34.456  10.554
59527W        W23295  20.270  41.477   0.898
59528W        W23296  18.076   9.216  14.323
59529W        W23297   1.824  27.518  13.431
59530W        W23298  38.369  26.951   0.770
59531W        W23299  19.762  36.895  14.925
59532W        W23300  24.028  28.057  14.977
59533W        W23301   2.356  38.045  12.353
59534W        W23302   3.853  33.532   0.803
59535W        W23303  31.991   6.219   2.795
59536W        W23304   1.314  43.335  13.851
59537W        W23305  25.011  10.712  12.420
59538W        W23306  13.322  17.798   1.231
59539W        W23307  36.426  39.445   3.221
59540W        W23308  41.375  30.650   4.276
59541W        W23309   9.305  16.133   3.682
59542W        W23310  39.424  33.385   2.333
59543W        W23311  22.514  28.576  14.465
59544W        W23312  31.946  39.515  11.004
59545W        W23313  10.675   9.204  14.447
59546W        W23314   8.183  12.849   2.854
59547W        W23315  11.689  20.718   1.906
59548W        W23316  40.313  10.719   0.928
59549W        W23317  30.124  20.524  12.479
59550W        W23318  11.636  38.502  14.374
59551W        W23319  32.401  18.610   3.217
59552W        W23320   3.732  21.521  12.846
59553W        W23321  34.435   9.260  11.402
59554W        W23322  28.578   3.450  10.952
59555W        W23323  14.155  28.542  10.577
59556W        W23324  35.069  23.199  10.988
59557W        W23325   9.294  29.067  14.309
59558W        W23326  25.676   2.763  12.009
59559W        W23327  38.341  28.584   3.302
59560W        W23328  38.511  36.461  12.950
59561W        W23329  37.841  41.404   0.754
59562W        W23330  20.548  32.050   2.299
59563W        W23331  36.369  34.092   2.794
59564W        W23332   2.370   2.813   3.178
59565W        W23333   5.321  14.669   3.214
59566W        W23334   4.285   5.306  13.497
59567W        W23335  38.890  37.410   4.273
59568W        W23336  23.624   8.260  14.024
59569W        W23337  35.439  29.919   0.381
59570W        W23338  16.744  43.855  14.004
59571W        W23339  12.755  29.427   4.816
59572W        W23340  20.206  30.098  11.392
59573W        W23341  32.039  18.070  14.795
59574W        W23342  15.717  38.492  14.846
59575W        W23343  21.029  18.072  14.396
59576W        W23344  37.911  42.465   4.258
59577W        W23345  43.390   9.285  13.916
59578W        W23346  19.135  12.208   0.867
59579W        W23347   3.843  10.856  13.956
59580W        W23348  25.562  28.047   3.322
59581W        W23349  33.531   3.947   2.731
59582W        W23350  40.445  11.204  13.968
59583W        W23351  14.133   6.822   0.808
59584W        W23352  44.832   4.748  13.878
59585W        W23353  31.604  32.020   1.353
59586W        W23354  27.942   4.305   1.287
59587W        W23355   1.805  10.643   2.315
59588W        W23356  23.068   7.738   4.665
59589W        W23357   1.896  23.654   4.182
59590W        W23358  10.279  43.021   5.131
59591W        W23359  27.984  33.444   1.294
59592W        W23360  38.010  41.833   4.823
59593W        W23361   4.243  39.906  13.376
59594W        W23362  43.993   4.913  12.000
59595W        W23363  38.358  25.711  11.028
59596W        W23364  19.652   8.170   3.216
59597W        W23365  30.125  12.123   0.729
59598W        W23366   7.677  31.000   0.271
59599W        W23367  27.614  15.591   0.849
59600W        W23368  41.880  16.125   0.464
59601W        W23369  13.116  38.068  12.340
59602W        W23370   2.291  16.291  11.054
59603W        W23371  23.069  36.007  13.801
59604W        W23372  15.122  35.959  12.384
59605W        W23373   2.760  22.214  14.914
59606W        W23374  14.254  23.527  11.521
59607W        W23375  29.971  20.630   4.173
59608W        W23376  25.066  32.002   1.853
59609W        W23377   9.779   9.803   2.815
59610W        W23378   9.658  11.808  14.849
59611W        W23379  31.954  19.170   4.734
59612W        W23380  31.504   6.302  13.335
59613W        W23381   3.227  23.096   2.847
59614W        W23382   2.301  34.905   2.784
59615W        W23383  42.900  35.031   3.368
59616W        W23384  15.196  15.607  12.522
59617W        W23385  22.077  11.133   1.891
59618W        W23386  39.368  23.670   3.345
59619W        W23387  37.336  23.639  10.457
59620W        W23388  36.907  32.438  11.535
59621W        W23389  36.050   1.768  11.404
59622W        W23390  35.945   3.360  14.326
59623W        W23391  34.980  14.334  11.377
59624W        W23392  12.719  41.940   2.842
59625W        W23393  26.465  16.097  14.000
59626W        W23394  38.494  28.067   3.658
59627W        W23395  39.922  11.186  10.993
59628W        W23396  17.744  23.994  13.988
59629W        W23397   0.286  15.216   2.229
59630W        W23398   2.809  11.268  10.573
59631W        W23399  12.629  28.091   3.366
59632W        W23400  10.248   4.871  11.924
59633W        W23401  33.603  32.109  10.156
59634W        W23402   8.356   8.333  13.468
59635W        W23403  25.643   6.851  13.393
59636W        W23404   7.751  11.813  10.902
59637W        W23405  25.065  29.592  11.481
59638W        W23406  43.834  43.322  14.903
59639W        W23407  24.488  41.308   4.795
59640W        W23408  42.434  17.781   2.254
59641W        W23409  24.040   9.327   0.857
59642W        W23410  40.510  34.882   2.715
59643W        W23411   8.382  22.034   2.884
59644W        W23412  26.050  17.172  14.418
59645W        W23413  38.525  39.511  13.421
59646W        W23414  20.101  41.384  12.346
59647W        W23415  29.006  36.364   2.241
59648W        W23416  43.792  26.085   4.802
59649W        W23417  10.325  16.750  12.898
59650W        W23418  21.152  35.059  10.115
59651W        W23419  44.433   4.445  12.370
59652W        W23420  37.882   7.271   1.832
59653W        W23421  44.889  43.908  12.045
59654W        W23422  32.092   4.286   1.282
59655W        W23423  18.685  22.724   3.858
59656W        W23424  17.073  42.292  11.064
59657W        W23425   7.390  38.983   3.750
59658W        W23426  41.514  24.977  14.980
59659W        W23427  38.522  29.642  14.396
59660W        W23428   0.919  33.449  12.925
59661W        W23429  20.070  34.033  10.457
59662W        W23430  28.073  22.118   0.448
59663W        W23431  10.233  21.045   0.386
59664W        W23432  26.646  10.376  14.304
59665W        W23433  32.403   9.181  11.050
59666W        W23434  41.938  17.119  11.011
59667W        W23435  30.135  17.139   4.744
59668W        W23436   9.363   5.767  12.870
59669W        W23437   9.346  39.050  14.449
59670W        W23438   5.769  10.799   2.707
59671W        W23439  31.986   9.390  10.588
59672W        W23440  23.059  27.141  14.390
59673W        W23441  20.729  23.019  10.588
59674W        W23442   2.928  28.631  14.344
59675W        W23443   8.866  33.893  13.988
59676W        W23444   3.801  17.231  14.297
59677W        W23445  15.700  24.565  11.566
59678W        W23446  18.159  44.348   0.858
59679W        W23447  39.535   1.889   5.212
59680W        W23448  14.795  38.331   4.134
59681W        W23449  40.352   1.338  12.409
59682W        W23450  38.956  19.628  10.147
59683W        W23451   8.379   1.867   4.196
59684W        W23452  24.079   8.325  14.894
59685W        W23453  24.990  15.773  12.460
59686W        W23454   1.888  36.050  10.420
59687W        W23455  20.122  30.025   0.348
59688W        W23456  33.007  20.603  10.484
59689W        W23457  31.417  10.853  11.979
59690W        W23458  30.545  24.491  12.406
59691W        W23459   9.161  22.217  14.907
59692W        W23460  42.836  19.204  11.874
59693W        W23461  24.481  38.400   1.896
59694W        W23462  22.025  20.644   4.636
59695W        W23463  21.691   6.197   4.279
59696W        W23464  36.546  20.758  14.454
59697W        W23465  35.859   9.228   3.645
59698W        W23466  26.986  39.545  14.468
59699W        W23467  29.655  30.639  13.870
59700W        W23468  34.549  42.899   4.181
59701W        W23469  33.015  27.498  14.845
59702W        W23470   0.769  25.043   0.931
59703W        W23471   1.263   0.319  13.440
59704W        W23472  24.652   7.852   4.710
59705W        W23473   4.310  15.782   3.243
59706W        W23474  19.633  32.990  13.864
59707W        W23475  13.779   3.389   3.317
59708W        W23476  34.503  25.021   2.823
59709W        W23477   1.260  18.233  14.851
59710W        W23478   3.448  22.533   0.320
59711W        W23479  12.757  42.499   1.894
59712W        W23480  29.600  41.438  14.913
59713W        W23481  37.859   8.259   1.346
59714W        W23482  23.113  31.970   4.649
59715W        W23483  30.480  29.013   2.860
59716W        W23484  14.689  20.644   3.268
59717W        W23485  18.072  38.453  14.014
59718W        W23486  10.366  43.881  14.812
59719W        W23487  12.813  18.550  10.636
59720W        W23488  13.315  14.636   1.772
59721W        W23489  37.029  18.590  10.630
59722W        W23490   6.407  25.537  11.389
59723W        W23491   2.250  36.891  10.995
59724W        W23492  21.627  24.507   4.664
59725W        W23493  31.126  44.797   4.818
59726W        W23494   0.802  21.176   0.358
59727W        W23495  22.625  24.996  13.343
59728W        W23496  24.685  19.069  14.779
59729W        W23497  32.562  16.266  14.848
59730W        W23498  11.790  38.342   1.732
59731W        W23499   7.696  15.650  14.351
59732W        W23500  44.323  37.018  14.320
59733W        W23501  40.981  26.486   2.823
59734W        W23502   6.220  11.152  11.984
59735W        W23503   5.273  35.513   1.778
59736W        W23504  28.524  16.650  12.893
59737W        W23505  11.210  12.688  11.470
59738W        W23506  12.740  23.719  11.029
59739W        W23507  26.571  39.455   1.360
59740W        W23508   2.253  13.838   4.240
59741W        W23509   6.365  18.790  13.460
59742W        W23510  19.673   4.716   3.727
59743W        W23511   0.829  35.362   0.799
59744W        W23512  26.072  17.701  14.858
59745W        W23513  39.443   9.705   3.352
59746W        W23514  31.426  13.790  12.522
59747W        W23515  17.236  24.718   2.386
59748W        W23516  15.678  41.026  14.002
59749W        W23517   8.839   5.803   3.342
59750W        W23518   2.853  38.519  11.887
59751W        W23519  39.332  38.834   3.813
59752W        W23520  14.168  41.472  13.801
59753W        W23521  23.701  22.586   1.338
59754W        W23522  11.815  26.180   2.211
59755W        W23523   8.871  32.089   4.708
59756W        W23524  32.049  12.334  14.500
59757W        W23525  27.676  43.801   2.292
59758W        W23526  27.044  40.341  12.464
59759W        W23527  16.683   1.404  11.870
59760W        W23528  32.501  43.779  14.449
59761W        W23529  21.707  28.071   0.752
59762W        W23530   3.230   1.479  13.833
59763W        W23531   7.389  32.561  12.019
59764W        W23532  21.181  38.860  13.028
59765W        W23533  31.948  21.250   2.258
59766W        W23534  29.652  29.443  14.365
59767W        W23535  16.270  42.303   3.663
59768W        W23536   7.206   3.753  14.422
59769W        W23537  40.390  41.836   1.307
59770W        W23538   3.946  15.824   3.630
59771W        W23539  27.664  38.833  14.765
59772W        W23540  37.527  15.651  11.924
59773W        W23541  31.565   8.797   4.246
59774W        W23542   7.252  11.311   2.194
59775W        W23543   6.395  39.967  12.823
59776W        W23544  34.504  37.949   0.320
59777W        W23545   4.932  12.220   0.839
59778W        W23546  18.195  24.677  13.915
59779W        W23547  17.098  23.011   2.890
59780W        W23548  33.409  14.819  12.917
59781W        W23549  17.137  15.597  13.465
59782W        W23550   4.759  31.560   4.633
59783W        W23551  44.363  42.006  14.500
59784W        W23552  39.510  38.554   1.705
59785W        W23553  41.458  43.870  11.566
59786W        W23554   5.247  38.848  10.052
59787W        W23555  11.761  13.826   2.302
59788W        W23556  12.354  24.526   1.910
59789W        W23557   9.195   8.787   3.344
59790W        W23558  24.018   3.310   0.861
59791W        W23559  38.983  29.938  11.001
59792W        W23560  18.176  23.679   1.762
59793W        W23561  22.737  16.195  13.900
59794W        W23562  17.590  23.069  10.478
59795W        W23563   7.373  40.421   2.348
59796W        W23564   2.891  21.238  13.350
59797W        W23565  19.567  21.567   1.434
59798W        W23566  22.189  21.680  14.502
59799W        W23567  21.741  24.186  12.461
59800W        W23568   5.763   7.360   1.378
59801W        W23569  26.017   5.884   1.256
59802W        W23570   0.824  20.713   3.260
59803W        W23571   1.370  32.071   3.192
59804W        W23572  17.264  27.036   1.769
59805W        W23573  44.440  13.197   0.838
59806W        W23574  36.916  43.469  13.909
59807W        W23575  18.786   1.760  11.572
59808W        W23576  16.598   2.446   0.417
59809W        W23577  29.950  32.408   2.268
59810W        W23578   5.904  16.090  11.521
59811W        W23579  13.603  22.558  14.284
59812W        W23580  41.397  25.206   3.293
59813W        W23581  39.909  21.725  11.902
59814W        W23582   1.894   8.842  13.413
59815W        W23583   1.820   4.434   2.868
59816W        W23584  31.505  35.580  12.876
59817W        W23585  34.592   3.308  11.052
59818W        W23586  44.910  21.658   1.354
59819W        W23587   6.796   8.237   3.185
59820W        W23588   0.273  11.144  13.488
59821W        W23589  33.575  38.025   2.181
59822W        W23590  26.964  32.005  11.031
59823W        W23591  25.162   5.818   2.662
59824W        W23592   7.207   2.740  11.124
59825W        W23593  26.555  33.543  11.967
59826W        W23594  26.592   5.277  12.827
59827W        W23595  36.854  35.882  13.882
59828W        W23596   3.789  18.263   3.303
59829W        W23597  17.578   6.357  13.012
59830W        W23598  15.689  40.539  12.387
59831W        W23599  11.348  42.962   2.261
59832W        W23600  16.226  32.474  12.485
59833W        W23601  16.750  35.598   1.425
59834W        W23602   0.874  31.088   2.212
59835W        W23603   8.293  20.642  13.536
59836W        W23604  15.744  32.578  10.511
59837W        W23605   1.959  43.492  14.862
59838W        W23606  29.522  18.287  11.511
59839W        W23607  15.716   2.291   0.944
59840W        W23608  19.129  36.502   3.828
59841W        W23609   1.290  11.164   4.815
59842W        W23610  33.459  11.734  10.010
59843W        W23611  40.504  39.808  14.891
59844W        W23612  30.999  36.857   0.865
59845W        W23613  19.245  22.518   3.676
59846W        W23614  19.252  19.198  13.060
59847W        W23615  15.632  23.535   2.342
59848W        W23616  30.994  21.757  12.340
59849W        W23617  11.855   6.377   2.854
59850W        W23618  37.050  12.244  12.481
59851W        W23619  10.832  28.600  14.855
59852W        W23620  32.607  39.896   2.342
59853W        W23621  18.755   2.738   4.204
59854W        W23622   2.230  18.185   2.279
59855W        W23623  15.664  10.803   0.416
59856W        W23624  24.021  16.291   2.212
59857W        W23625  20.526  31.439   3.215
59858W        W23626  29.426   2.963  12.442
59859W        W23627  15.219  36.877   3.693
59860W        W23628  39.473  44.787   0.887
59861W        W23629  44.807  25.175   1.886
59862W        W23630   7.809  24.126  12.084
59863W        W23631  27.139  12.352   0.966
59864W        W23632   9.351  25.611  13.049
59865W        W23633  31.491  33.901   1.413
59866W        W23634  44.882  22.251   4.135
59867W        W23635  39.438  36.376   0.850
59868W        W23636  18.704  43.440   0.332
59869W        W23637   3.893  37.498  12.564
59870W        W23638  17.753  13.172   4.151
59871W        W23639   0.401  12.219  12.016
59872W        W23640  19.059   9.801  13.014
59873W        W23641  37.349  17.714  11.128
59874W        W23642  18.296   9.379   3.854
59875W        W23643  34.908  34.028  10.448
59876W        W23644  14.109  25.609   1.925
59877W        W23645   8.809  23.688  13.450
59878W        W23646  32.914  35.552   1.341
59879W        W23647   5.301  19.208   3.230
59880W        W23648  12.346  11.238   0.809
59881W        W23649  15.183  36.870   0.867
59882W        W23650   0.811   7.834   1.257
59883W        W23651  40.045  44.437   2.715
59884W        W23652   5.351  33.889  12.518
59885W        W23653   3.397  44.881   3.235
59886W        W23654  25.654   6.232  12.531
59887W        W23655  22.007  24.690  12.510
59888W        W23656   2.791   2.828   2.780
59889W        W23657  10.228   3.747   0.772
59890W        W23658  18.550  25.490  11.907
59891W        W23659  35.546   9.723   3.329
59892W        W23660   2.469   8.277  14.855
59893W        W23661  22.243  26.956   0.390
59894W        W23662  37.029  38.555  10.586
59895W        W23663  17.639   2.331   3.169
59896W        W23664   1.892   1.256  13.380
59897W        W23665  17.063  11.826   5.185
59898W        W23666  17.579   4.282  12.482
59899W        W23667  24.985  43.968   2.194
59900W        W23668  18.107  21.033   2.236
59901W        W23669  30.959  22.724   0.383
59902W        W23670  33.595  26.965   1.716
59903W        W23671  39.045  30.143  14.423
59904W        W23672  27.614   6.826   3.855
59905W        W23673  11.176  24.138  13.970
59906W        W23674  32.492  26.578   3.286
59907W        W23675   7.172   5.705  11.087
59908W        W23676  40.896  38.393  13.442
59909W        W23677   8.204  15.617   1.247
59910W        W23678   5.211  35.471   2.246
59911W        W23679  41.314  25.492  12.077
59912W        W23680   1.282  32.039  14.288
59913W        W23681  44.327   2.835  14.864
59914W        W23682  15.665  22.174   4.755
59915W        W23683   4.247  24.080   0.376
59916W        W23684  19.139  37.059  11.864
59917W        W23685  14.660   6.887  11.066
59918W        W23686   9.249  18.296   1.847
59919W        W23687  30.155  39.475  13.064
59920W        W23688  23.089  19.226   0.269
59921W        W23689  38.498  34.523  13.906
59922W        W23690  39.057  41.978   0.253
59923W        W23691  44.950  31.466   0.376
59924W        W23692   4.360  20.671   3.204
59925W        W23693  16.727  35.509   5.646
59926W        W23694  40.489   9.247   5.152
59927W        W23695  22.579  13.674  11.936
59928W        W23696  31.982  14.108   4.181
59929W        W23697   8.378  35.554   0.343
59930W        W23698  40.966  19.654  13.974
59931W        W23699  39.942   1.323  14.452
59932W        W23700  40.450   2.729   1.720
59933W        W23701  44.812  36.978   1.782
59934W        W23702  26.549  40.972   4.645
59935W        W23703  19.111   9.872   3.226
59936W        W23704  25.513  21.114   3.826
59937W        W23705  38.541  20.625  12.571
59938W        W23706  13.254  20.230  12.577
59939W        W23707  36.978  32.400   4.608
59940W        W23708  26.073   9.648   1.210
59941W        W23709  24.082  21.019  14.342
59942W        W23710  19.628  32.073   1.239
59943W        W23711  33.607   5.807   4.205
59944W        W23712  38.018  38.442  14.435
59945W        W23713  11.289  10.765   1.323
59946W        W23714  10.197  31.068   1.774
59947W        W23715   8.378  16.152   2.329
59948W        W23716  30.929   7.819   4.200
59949W        W23717   6.902  31.626   1.791
59950W        W23718  31.568  11.692   2.240
59951W        W23719  29.958  25.678   3.334
59952W        W23720  17.780  20.595   1.899
59953W        W23721  23.996  31.126  10.577
59954W        W23722  37.010  31.029  12.852
59955W        W23723   8.218  30.965   3.721
59956W        W23724  10.152  31.444   4.812
59957W        W23725  29.150  24.639  13.865
59958W        W23726  42.372  23.654   1.248
59959W        W23727  17.788  38.565  11.086
59960W        W23728   9.665  18.558  13.061
59961W        W23729  33.427   3.899   3.329
59962W        W23730  40.377  12.319  11.005
59963W        W23731  21.136  34.922  10.911
59964W        W23732  34.967   2.365  14.916
59965W        W23733  35.004  38.364  11.583
59966W        W23734  38.559   8.751   2.369
59967W        W23735   7.674  43.468   3.745
59968W        W23736  23.103   3.834  11.017
59969W        W23737  41.953  12.119   0.356
59970W        W23738  12.130   4.773  11.580
59971W        W23739  32.001  40.893   3.808
59972W        W23740  22.539  15.262   3.755
59973W        W23741   3.411  26.158   3.643
59974W        W23742   1.750  19.163  14.953
59975W        W23743  27.541  14.695  14.324
59976W        W23744  35.400   9.849   9.609
59977W        W23745  26.547   8.677  12.544
59978W        W23746   7.731  38.858  14.399
59979W        W23747  29.615  40.898   2.353
59980W        W23748  11.853   0.428   3.834
59981W        W23749  38.539  10.775  11.046
59982W        W23750   8.352   0.429  12.471
59983W        W23751  10.359   4.397   0.274
59984W        W23752  28.521  14.156   3.636
59985W        W23753  16.731  25.213   9.589
59986W        W23754  24.085  31.645  14.923
59987W        W23755   7.786   6.274   0.962
59988W        W23756  44.273  44.830  14.029
59989W        W23757  30.434   6.272   4.266
59990W        W23758  30.913   2.795  14.341
59991W        W23759  11.127  39.920  13.528
59992W        W23760   8.298  17.588  12.053
59993W        W23761  35.419  43.796  13.816
59994W        W23762  44.265  22.649   0.762
59995W        W23763  29.972   0.768  12.339
59996W        W23764  44.379  11.749  10.028
59997W        W23765  36.966  41.924   0.842
59998W        W23766  18.598  36.403  11.600
59999W        W23767  44.417  29.504  14.296
60000W        W23768  37.491   6.849  12.449
60001W        W23769  22.693  33.598   1.361
60002W        W23770  20.109  39.548  12.949
60003W        W23771  44.408  32.543   0.734
60004W        W23772  31.638  34.074   0.368
60005W        W23773  17.194   3.936   2.703
60006W        W23774   1.368  11.793   4.304
60007W        W23775  35.586  43.836  11.532
60008W        W23776  37.852  11.687  12.973
60009W        W23777   5.925  32.523   3.291
60010W        W23778  43.777   1.240   2.880
60011W        W23779  42.834  20.261   4.700
60012W        W23780  20.060  14.651   0.910
60013W        W23781   3.426  37.496  12.459
60014W        W23782  42.845  33.568   2.683
60015W        W23783  29.664  33.900   1.269
60016W        W23784  38.508  41.846   4.222
60017W        W23785  10.189  12.329   0.865
60018W        W23786   3.221  34.420   3.349
60019W        W23787  21.536   9.204   1.391
60020W        W23788  28.074  12.338  13.448
60021W        W23789  39.873   9.702  11.953
60022W        W23790  11.760  37.950   1.830
60023W        W23791  30.438  35.430   0.376
60024W        W23792  20.744  28.672  12.075
60025W        W23793   3.855  39.023  11.962
60026W        W23794  19.085  30.657   3.373
60027W        W23795  31.093  23.656   3.707
60028W        W23796  43.275  33.394  13.426
60029W        W23797   4.771  22.210   0.460
60030W        W23798  26.696  12.793  14.940
60031W        W23799  12.705   4.265  14.820
60032W        W23800  14.835  18.270   0.429
60033W        W23801  33.384  10.715  13.320
60034W        W23802  26.004  10.246  12.411
60035W        W23803  30.625  17.762   1.336
60036W        W23804  25.208   9.298  14.835
60037W        W23805  32.433  35.100   1.345
60038W        W23806  25.068  39.354   1.859
60039W        W23807  16.137  11.657  11.098
60040W        W23808   9.877  14.661   0.362
60041W        W23809  44.841   2.921  14.826
60042W        W23810   0.314  34.448   1.883
60043W        W23811   2.432  19.608   1.830
60044W        W23812  17.660  32.966   4.300
60045W        W23813   6.191  24.052  13.971
60046W        W23814  32.413   6.845  12.985
60047W        W23815  11.303  42.310   3.188
60048W        W23816  23.168  26.187   3.636
60049W        W23817  27.119  18.208  10.495
60050W        W23818   0.896  28.031   3.706
60051W        W23819  44.849  33.449  13.879
60052W        W23820  25.979  34.568   4.214
60053W        W23821  31.127  24.717   1.915
60054W        W23822  28.454   4.748   1.922
60055W        W23823  32.073  15.763   1.758
60056W        W23824   8.366  30.426   2.192
60057W        W23825  12.254  24.980  12.922
60058W        W23826  38.920  16.803   0.752
60059W        W23827  42.779  11.346  14.336
60060W        W23828  20.093   7.800   3.733
60061W        W23829  24.551   1.795  14.782
60062W        W23830  37.856   0.898  13.479
60063W        W23831   2.935  16.316   2.361
60064W        W23832  12.655  33.380  12.882
60065W        W23833  10.309  30.417   4.140
60066W        W23834  28.519  19.737   4.802
60067W        W23835  40.021  16.670  12.081
60068W        W23836  11.652  30.910  14.884
60069W        W23837  17.780  41.874   0.366
60070W        W23838   5.437  26.112  13.821
60071W        W23839  41.349  18.565   2.852
60072W        W23840  38.512  31.139  14.309
60073W        W23841   3.731   0.329  11.999
60074W        W23842   1.404   5.894   4.223
60075W        W23843  41.381  10.258  11.483
60076W        W23844  31.603  28.970   3.153
60077W        W23845  44.414  22.252   0.373
60078W        W23846   4.250  43.910  14.028
60079W        W23847  34.956  40.310   3.161
60080W        W23848  28.514  44.284   2.675
60081W        W23849  35.501   4.810  11.012
60082W        W23850  35.507   8.185  13.881
60083W        W23851   3.326   5.411  12.052
60084W        W23852  10.354   1.945  10.464
60085W        W23853  25.218  22.104  10.444
60086W        W23854  14.620  11.776  10.112
60087W        W23855  39.970  43.475  14.464
60088W        W23856  36.903   7.241  14.343
60089W        W23857  38.568  29.614  12.948
60090W        W23858  14.282  29.662   4.672
60091W        W23859  30.057  18.787   3.716
60092W        W23860   3.419  20.076   0.249
60093W        W23861  10.672  26.656  10.641
60094W        W23862  10.247  33.507  13.321
60095W        W23863  10.191  26.128   0.923
60096W        W23864   0.333  30.651   0.353
60097W        W23865  41.850  31.991  12.439
60098W        W23866  27.509  40.895   2.738
60099W        W23867  34.592   6.690  12.344
60100W        W23868  22.690   3.859  12.950
60101W        W23869  29.922  30.450  12.016
60102W        W23870  21.637  26.126   4.333
60103W        W23871  44.451  23.203  12.561
60104W        W23872  24.015   7.862  12.364
60105W        W23873   5.824  43.978   1.390
60106W        W23874  33.492   2.341   2.194
60107W        W23875  22.079   7.731  12.911
60108W        W23876  40.421  36.541   3.322
60109W        W23877  39.509   6.213   4.812
60110W        W23878  14.132   5.880  13.453
60111W        W23879  30.134  26.572   2.407
60112W        W23880  13.291  19.236  11.878
60113W        W23881   2.366  44.787   0.772
60114W        W23882  39.528  11.638   4.340
60115W        W23883  43.428  11.721  10.053
60116W        W23884  23.011  42.396   0.954
60117W        W23885  26.130  41.016   0.846
60118W        W23886  10.636  32.446  11.881
60119W        W23887   0.334   6.301   1.894
60120W        W23888  34.073  33.065  14.364
60121W        W23889  40.972   2.760   0.405
60122W        W23890  14.832   4.365   0.267
60123W        W23891  29.454  37.860   4.315
60124W        W23892   8.306   4.727   0.923
60125W        W23893  21.659  38.875   4.755
60126W        W23894  43.379  14.155  11.538
60127W        W23895  39.514  20.587   4.787
60128W        W23896  41.358  44.382  14.399
60129W        W23897  37.002  18.287  14.984
60130W        W23898   2.295  12.795   5.264
60131W        W23899  30.007  13.346  12.905
60132W        W23900  44.771   9.157  11.948
60133W        W23901  13.692  44.300   1.249
60134W        W23902   3.363  44.470   3.733
60135W        W23903   4.870  20.125  13.796
60136W        W23904  15.176   7.281   4.827
60137W        W23905  16.162   0.797  10.908
60138W        W23906  35.463   1.768   4.751
60139W        W23907   4.915   0.779   0.288
60140W        W23908   0.437  44.875   0.914
60141W        W23909  21.206  21.594  14.514
60142W        W23910  23.684  38.859  13.380
60143W        W23911  32.930   9.228   0.742
60144W        W23912  21.732  32.586  13.976
60145W        W23913  14.138  15.670   2.210
60146W        W23914  36.970  41.418  14.840
60147W        W23915   4.914  12.682   1.426
60148W        W23916  10.163  28.954   3.859
60149W        W23917  36.861  13.281  13.063
60150W        W23918  31.556  26.646  13.808
60151W        W23919  13.698   1.266  12.089
60152W        W23920  14.792  39.834   3.852
60153W        W23921  35.030  39.436  13.429
60154W        W23922   9.737   1.247  11.384
60155W        W23923  31.914  26.155   3.302
60156W        W23924  44.332   6.679   1.212
60157W        W23925  15.254  21.559   2.672
60158W        W23926  29.582   6.791  11.430
60159W        W23927  35.409   6.188   2.340
60160W        W23928  38.470  28.037   2.418
60161W        W23929  39.528  41.519   0.315
60162W        W23930  31.545  35.959  10.962
60163W        W23931  11.281   8.823  13.330
60164W        W23932   2.427   8.892   9.948
60165W        W23933  18.275  19.756   0.739
60166W        W23934  28.181   9.856  13.869
60167W        W23935  43.272  17.167   1.368
60168W        W23936  27.632   8.882  10.634
60169W        W23937  19.125  35.428   2.668
60170W        W23938  33.454  43.458   3.258
60171W        W23939   9.196  12.229  13.831
60172W        W23940  28.534  29.983   0.751
60173W        W23941   7.372  36.994   0.391
60174W        W23942  18.091  20.040   3.799
60175W        W23943  16.159   4.777   0.924
60176W        W23944  31.038  20.695   1.253
60177W        W23945   8.324  23.197   1.331
60178W        W23946  34.896  31.022  10.571
60179W        W23947  10.179  12.353  12.038
60180W        W23948  22.230  41.914  14.862
60181W        W23949  21.094  22.555  14.955
60182W        W23950  14.264   8.383   3.793
60183W        W23951   3.317  32.476  10.924
60184W        W23952  42.435  17.254   4.198
60185W        W23953  28.594  10.300  13.958
60186W        W23954  17.591  11.848  10.092
60187W        W23955  22.073   1.938   1.869
60188W        W23956  25.656  26.497  13.891
60189W        W23957   7.409  16.278   4.710
60190W        W23958  15.285  38.032   4.284
60191W        W23959  24.159  42.407  14.924
60192W        W23960  26.670  30.633   1.362
60193W        W23961  22.015  38.032  13.488
60194W        W23962  14.759   8.799   4.172
60195W        W23963  24.040  16.266   2.790
60196W        W23964  30.907  16.114  11.378
60197W        W23965   5.354  33.429  13.369
60198W        W23966  11.140  30.942  11.045
60199W        W23967  14.740  12.850  11.054
60200W        W23968  43.403  23.493   1.767
60201W        W23969  19.190  29.987  10.618
60202W        W23970   0.873   7.280   2.356
60203W        W23971  43.960  36.058   4.650
60204W        W23972  38.570   1.302  14.023
60205W        W23973   4.373  28.675   1.363
60206W        W23974  29.505   6.268  11.003
60207W        W23975  42.027  29.030  10.907
60208W        W23976   7.358  32.054  11.375
60209W        W23977  20.725  39.328  13.023
60210W        W23978   0.830  24.012   5.187
60211W        W23979   0.306   9.683  14.371
60212W        W23980  36.369  29.490  12.829
60213W        W23981  17.792  30.569  10.028
60214W        W23982  35.922  14.299   1.743
60215W        W23983  28.930  35.495  11.565
60216W        W23984  17.769  32.916   3.825
60217W        W23985  32.463   7.740  13.404
60218W        W23986  33.950  17.254   3.773
60219W        W23987  18.110  25.201  14.904
60220W        W23988   9.190  41.824  13.834
60221W        W23989  30.618  29.483   2.412
60222W        W23990  26.045  18.253  11.376
60223W        W23991  44.324   6.758  10.598
60224W        W23992  25.211  36.422   4.663
60225W        W23993  26.984  38.545   4.716
60226W        W23994  43.867   7.724   0.304
60227W        W23995   9.356  33.109   2.280
60228W        W23996  44.309  42.894   4.197
60229W        W23997  12.338   8.774   4.185
60230W        W23998  25.190  14.194   1.729
60231W        W23999  18.677   7.178   5.182
60232W        W24000  18.630  26.167   2.310
60233W        W24001  11.853  28.608   2.866
60234W        W24002  12.623  19.164  12.843
60235W        W24003  16.084  39.335  13.872
60236W        W24004  21.197  30.141   0.332
60237W        W24005  28.948   8.863  10.535
60238W        W24006   1.442  43.386   4.729
60239W        W24007  41.407  10.380   3.760
60240W        W24008  41.477  20.150  11.016
60241W        W24009  13.686   8.896   0.437
60242W        W24010  40.007   9.665   3.333
60243W        W24011  15.678   9.648  11.590
60244W        W24012  40.522  16.795   4.749
60245W        W24013  19.150  22.060   3.776
60246W        W24014  16.227   2.898   3.285
60247W        W24015   9.835  39.040  12.068
60248W        W24016  18.714  16.724  10.538
60249W        W24017  27.059  17.222  13.942
60250W        W24018   6.694  32.558   1.234
60251W        W24019  28.982  22.111  14.913
60252W        W24020  33.607  25.647  10.604
60253W        W24021   1.378   8.195  11.547
60254W        W24022  22.142   6.394   3.242
60255W        W24023  17.101   8.359   2.663
60256W        W24024  42.960  26.543   1.794
60257W        W24025  20.535   9.749   4.232
60258W        W24026  21.664   5.930   1.221
60259W        W24027  33.415   7.325   3.827
60260W        W24028  34.075   4.919  11.559
60261W        W24029  34.952  42.948  13.870
60262W        W24030  18.232  30.600   0.339
60263W        W24031   8.195  15.299  13.824
60264W        W24032   9.747  22.162   1.917
60265W        W24033  41.941  24.170  12.962
60266W        W24034  23.190  23.706  14.416
60267W        W24035  14.203  28.142  12.930
60268W        W24036  17.143  24.002   0.830
60269W        W24037  25.123   0.858  14.418
60270W        W24038   1.421  35.442  12.839
60271W        W24039   6.189  36.986  13.045
60272W        W24040   6.864  38.380  14.390
60273W        W24041   8.849   3.426   1.791
60274W        W24042  15.191  27.994   4.788
60275W        W24043  32.051   7.400  11.056
60276W        W24044  30.617  27.581   0.732
60277W        W24045  31.453  20.666   2.801
60278W        W24046  35.988  15.602  12.870
60279W        W24047  44.939  11.320   4.306
60280W        W24048  10.342  10.334  12.463
60281W        W24049  29.539  15.145  10.444
60282W        W24050  44.887  13.343   3.834
60283W        W24051  42.823  19.725   1.695
60284W        W24052  28.662  23.574   2.814
60285W        W24053  44.347  22.572   1.765
60286W        W24054   7.376  36.983  14.370
60287W        W24055   3.715  20.681  13.502
60288W        W24056  20.580  20.589  13.474
60289W        W24057  44.834   0.881  14.908
60290W        W24058  12.194  24.525   0.421
60291W        W24059   0.759  32.528   0.750
60292W        W24060  12.820  41.307   0.737
60293W        W24061  39.472   8.817  11.415
60294W        W24062  28.019  12.613   1.401
60295W        W24063  33.534  20.584  14.420
60296W        W24064  19.246  43.792   0.406
60297W        W24065   1.809  20.274  12.492
60298W        W24066  13.168   3.277   2.375
60299W        W24067   3.361  39.489  12.375
60300W        W24068  33.060   3.317   4.265
60301W        W24069  23.185  43.300  14.921
60302W        W24070   4.757   1.739  10.436
60303W        W24071   3.412   0.773   4.331
60304W        W24072  25.089   6.915  14.788
60305W        W24073  42.852  36.392   5.093
60306W        W24074   9.790  26.059   0.820
60307W        W24075  36.988  37.499   0.350
60308W        W24076  13.718  13.685  10.425
60309W        W24077  34.455   6.794  11.120
60310W        W24078  37.529  11.144  14.418
60311W        W24079  19.544   4.251   1.447
60312W        W24080  35.376  18.262   4.672
60313W        W24081   4.862   4.777  14.775
60314W        W24082  44.296  44.442   5.271
60315W        W24083  24.718   7.266   1.838
60316W        W24084  43.400  36.848   3.772
60317W        W24085  40.376  23.599   1.868
60318W        W24086  25.548   2.405   0.907
60319W        W24087  12.271  24.691   1.378
60320W        W24088  40.017  14.602  10.602
60321W        W24089  38.943  38.063  14.388
60322W        W24090  31.430   3.719  10.900
60323W        W24091   9.339  12.783   3.330
60324W        W24092  34.953  12.196   1.305
60325W        W24093  29.002  34.111   1.376
60326W        W24094  28.514   2.743  11.106
60327W        W24095  37.467  33.919  11.021
60328W        W24096  34.877  11.128  14.875
60329W        W24097  17.628  27.641  10.473
60330W        W24098  39.364  26.091   4.292
60331W        W24099  43.810  25.696  11.917
60332W        W24100   8.694  12.269   4.734
60333W        W24101  25.175   8.277   4.204
60334W        W24102   5.377  33.436   9.961
60335W        W24103  43.919  37.937   0.786
60336W        W24104  15.687  30.562  14.930
60337W        W24105   5.375  40.498   4.708
60338W        W24106  40.853  24.179  10.572
60339W        W24107  22.510  17.582  11.584
60340W        W24108  42.338  18.565   2.277
60341W        W24109  17.074  26.094  10.990
60342W        W24110  11.736  40.460   4.317
60343W        W24111  17.628  41.902   1.826
60344W        W24112  39.497   4.423  12.025
60345W        W24113  13.122   5.413  14.842
60346W        W24114  38.367  32.142   1.908
60347W        W24115  12.118  15.637  13.998
60348W        W24116   9.258  24.040   0.446
60349W        W24117  21.080   2.362  13.403
60350W        W24118  44.917  34.053  13.947
60351W        W24119  26.517  27.973  11.094
60352W        W24120  22.096  43.477  14.950
60353W        W24121   6.211  35.001  12.552
60354W        W24122   1.795  39.414  10.593
60355W        W24123   5.224   5.760  14.493
60356W        W24124  17.296  20.213  14.997
60357W        W24125   2.859   9.259  11.544
60358W        W24126   5.408  28.091   4.711
60359W        W24127  14.236  10.715  14.282
60360W        W24128  22.097  44.011   2.376
60361W        W24129  31.030   9.168  11.945
60362W        W24130   1.972  20.042  13.952
60363W        W24131  13.843  22.130   1.299
60364W        W24132  30.079  43.387  12.526
60365W        W24133  19.160  26.156  13.487
60366W        W24134  14.169  25.184  12.417
60367W        W24135   1.885  44.405   3.283
60368W        W24136   0.388  18.720   2.318
60369W        W24137   5.898  18.769   0.400
60370W        W24138  40.313  14.238   2.392
60371W        W24139  26.619  27.551   2.764
60372W        W24140  36.582  41.024  11.072
60373W        W24141  34.504  35.029   4.121
60374W        W24142   5.720  18.555   1.363
60375W        W24143   3.721  39.865  10.412
60376W        W24144  22.206  40.331   3.294
60377W        W24145  31.936  30.544   4.677
60378W        W24146  22.502  31.149  11.947
60379W        W24147   8.778  10.661   1.895
60380W        W24148  23.647  19.115  13.541
60381W        W24149  27.485  38.359   3.805
60382W        W24150  28.066  12.263  13.866
60383W        W24151  22.573   6.728   0.756
60384W        W24152  41.038   5.766   0.434
60385W        W24153  18.760  10.168   1.354
60386W        W24154   1.964   5.223  12.006
60387W        W24155  33.029  22.037   0.257
60388W        W24156  15.717  27.686  10.139
60389W        W24157  11.313  22.237   2.899
60390W        W24158  10.324   0.401   4.785
60391W        W24159   0.875  36.859   4.811
60392W        W24160   7.235  40.900   1.228
60393W        W24161  14.303  19.272   3.171
60394W        W24162  15.095   4.213  10.477
60395W        W24163   9.322  35.547  12.374
60396W        W24164  28.678   2.376  11.545
60397W        W24165  34.559  30.143   1.876
60398W        W24166  21.215  37.410   4.646
60399W        W24167  27.988  18.721  11.483
60400W        W24168  41.980  19.550   4.119
60401W        W24169  26.002  33.447   2.699
60402W        W24170  41.307  20.617   2.355
60403W        W24171  40.411  21.210   4.694
60404W        W24172  10.229  13.784   4.664
60405W        W24173  43.947  12.838  14.927
60406W        W24174  38.410  28.053   0.903
60407W        W24175  16.220   7.350   3.353
60408W        W24176  29.531  35.387   0.365
60409W        W24177  44.360  35.991   3.151
60410W        W24178  19.617  34.963  12.441
60411W        W24179  23.200  28.507  13.458
60412W        W24180  32.962  30.993  11.047
60413W        W24181  22.115  24.080  14.931
60414W        W24182   9.386  37.526  13.348
60415W        W24183  35.397  14.690   1.235
60416W        W24184  42.924   8.266   3.327
60417W        W24185  35.960  14.592  12.850
60418W        W24186  27.110  34.606  13.529
60419W        W24187  43.939   0.316   1.438
60420W        W24188  16.127  34.061   2.285
60421W        W24189  17.758  37.571   4.220
60422W        W24190   2.401  43.929  12.534
60423W        W24191  39.825   4.217   1.842
60424W        W24192  41.376  10.803   1.235
60425W        W24193  21.650  25.516   0.900
60426W        W24194  22.096  33.581  14.785
60427W        W24195  18.112  38.515  11.553
60428W        W24196  13.731  36.085   3.781
60429W        W24197   1.468  10.350   0.883
60430W        W24198  40.320  18.575   3.280
60431W        W24199  14.791  27.462  13.525
60432W        W24200  14.676  24.122   1.746
60433W        W24201  21.523  43.403  13.961
60434W        W24202  44.801   3.361  11.987
60435W        W24203  39.369   9.224   3.742
60436W        W24204  13.767  25.528   3.648
60437W        W24205  19.054  39.421   0.863
60438W        W24206   3.352  10.307  14.973
60439W        W24207   9.841   9.284  12.885
60440W        W24208  30.538  18.143   3.204
60441W        W24209   0.299  28.160  13.975
60442W        W24210  44.816  13.251  13.459
60443W        W24211   2.732  10.690  14.391
60444W        W24212   5.840  43.289   0.939
60445W        W24213  26.172  32.936   2.256
60446W        W24214  26.644  24.570  11.109
60447W        W24215  41.037  14.203  14.378
60448W        W24216  23.192  15.714   2.735
60449W        W24217  21.566   3.738  11.538
60450W        W24218  15.705  40.804   0.768
60451W        W24219  19.209  33.489  13.918
60452W        W24220  19.771  38.421   2.249
60453W        W24221  34.486  16.130   9.944
60454W        W24222  26.646   9.729  10.062
60455W        W24223  15.735  37.947  11.038
60456W        W24224  32.965  25.037  10.532
60457W        W24225  39.418  42.830  14.448
60458W        W24226   3.782  24.073  11.095
60459W        W24227  21.146  33.051   4.828
60460W        W24228  21.665  30.049   1.824
60461W        W24229  30.128  31.031  13.411
60462W        W24230  37.077  25.522  11.077
60463W        W24231  44.379  44.865  11.115
60464W        W24232  10.703  11.274   2.667
60465W        W24233  36.542  43.499  10.584
60466W        W24234  40.810  25.013   3.791
60467W        W24235  26.457  29.970   4.203
60468W        W24236  19.628  27.549   0.805
60469W        W24237   7.726  27.476   2.771
60470W        W24238   0.409  42.360   2.189
60471W        W24239   9.331  19.602   5.091
60472W        W24240  10.756  20.135  14.445
60473W        W24241  13.688  39.549   2.846
60474W        W24242  40.383  31.418  12.424
60475W        W24243  20.168  35.968  10.075
60476W        W24244  38.406  21.600  14.475
60477W        W24245   4.323  44.871   2.762
60478W        W24246  44.907  34.553   1.822
60479W        W24247  14.188  13.334  14.780
60480W        W24248  22.572  42.877  12.071
60481W        W24249  23.218  11.226   4.704
60482W        W24250  38.432  22.223   2.325
60483W        W24251   0.380   3.819   0.458
60484W        W24252   0.820  31.009   4.143
60485W        W24253  33.104   7.323   0.967
60486W        W24254  42.941  26.079   4.771
60487W        W24255  36.535  25.062  12.052
60488W        W24256  32.045  12.139  11.943
60489W        W24257  28.005   0.754  11.044
60490W        W24258  13.215   1.268   3.197
60491W        W24259  42.472  10.219  11.061
60492W        W24260  27.044  16.155   1.374
60493W        W24261  37.337  31.568  11.958
60494W        W24262  43.779  16.316   1.247
60495W        W24263   2.809  29.583   0.269
60496W        W24264  44.905  44.765  10.474
60497W        W24265  43.343  36.909   2.878
60498W        W24266  21.081  10.328   1.219
60499W        W24267  30.533   8.897  11.387
60500W        W24268  15.219  39.912  10.922
60501W        W24269  37.977   5.264   0.255
60502W        W24270  41.351  16.772  12.343
60503W        W24271  35.929  43.853   2.204
60504W        W24272  43.893  15.133  13.026
60505W        W24273  27.661  33.557   4.292
60506W        W24274  32.464  40.870  12.477
60507W        W24275  37.928  29.476  13.412
60508W        W24276  14.222  35.902  13.876
60509W        W24277   2.260  28.587  12.498
60510W        W24278   0.279  26.505  11.392
60511W        W24279  38.889   2.381  11.856
60512W        W24280  26.208   3.871  11.880
60513W        W24281  16.719  31.499   2.359
60514W        W24282  15.162  22.103  14.408
60515W        W24283   5.406  43.421   2.280
60516W        W24284   6.896   2.793  10.914
60517W        W24285  16.154  44.897  12.027
60518W        W24286  23.629  35.950  10.501
60519W        W24287  15.097  25.076  12.362
60520W        W24288  14.608  27.630   2.806
60521W        W24289  26.677  29.504  12.457
60522W        W24290  39.875  35.543  11.560
60523W        W24291  40.389  35.595   2.710
60524W        W24292  15.817  20.678  13.399
60525W        W24293   3.432  15.216  14.275
60526W        W24294  24.192  24.162   2.258
60527W        W24295  32.621   9.333  10.623
60528W        W24296   7.887  41.526   3.273
60529W        W24297  42.294  33.115  14.781
60530W        W24298  44.380   5.724   4.206
60531W        W24299  34.001  11.827   2.284
60532W        W24300  36.869  31.633   0.920
60533W        W24301  28.491  29.065  11.474
60534W        W24302   9.204   2.387   2.311
60535W        W24303  11.752   0.863   0.378
60536W        W24304  16.598  18.080  12.001
60537W        W24305  38.028  25.992  10.626
60538W        W24306  18.053   1.260  13.408
60539W        W24307   3.767  21.021   3.861
60540W        W24308  12.245  19.215  10.529
60541W        W24309  38.964  22.071   1.830
60542W        W24310   4.380  38.075  11.093
60543W        W24311  35.014   7.264   5.109
60544W        W24312   4.927  22.607   2.764
60545W        W24313  12.181  27.593  13.429
60546W        W24314  32.125   5.358  12.035
60547W        W24315  20.587   0.371   0.334
60548W        W24316  42.879  11.147   0.462
60549W        W24317  39.444  24.690   3.325
60550W        W24318  34.586  31.621   0.819
60551W        W24319  24.528  29.519   0.439
60552W        W24320   1.355  14.106  12.014
60553W        W24321  23.104  44.826   0.741
60554W        W24322  26.640   6.410   0.252
60555W        W24323  26.501  40.544  12.925
60556W        W24324  25.504  43.381  14.940
60557W        W24325  43.809  42.367  11.538
60558W        W24326  33.935   3.247   3.184
60559W        W24327  41.015  25.668  11.937
60560W        W24328   1.930  19.687   0.808
60561W        W24329  32.394  23.643  12.926
60562W        W24330  17.277  24.628  13.506
60563W        W24331  40.851  33.961  13.526
60564W        W24332   1.282  32.138  10.966
60565W        W24333  32.022   1.832  11.959
60566W        W24334  13.836   6.705   3.747
60567W        W24335  13.301  13.622   1.795
60568W        W24336  12.129   5.340  14.925
60569W        W24337  14.337  34.006  12.007
60570W        W24338  42.393   5.803   3.373
60571W        W24339   9.344  12.725   3.763
60572W        W24340  33.877  43.492   2.844
60573W        W24341   0.936   7.753   3.727
60574W        W24342  26.063  13.699   9.980
60575W        W24343   9.381  33.460   0.444
60576W        W24344  16.659  39.935  14.301
60577W        W24345   5.270  19.119  14.964
60578W        W24346   1.239   1.308  10.462
60579W        W24347  25.066  12.854  12.009
60580W        W24348  26.657  42.315  11.077
60581W        W24349   6.348  41.435   5.081
60582W        W24350  23.214  31.145  10.471
60583W        W24351  26.566  39.878  13.016
60584W        W24352  12.171  28.961  12.995
60585W        W24353  32.494  10.857  14.514
60586W        W24354  24.031   4.838  14.507
60587W        W24355  28.594  27.627  10.571
60588W        W24356  14.686   4.221   1.321
60589W        W24357  17.256   6.294  10.621
60590W        W24358   4.878  33.079   4.148
60591W        W24359  13.261  30.538   0.847
60592W        W24360  17.286  42.316  13.861
60593W        W24361  38.351  23.125   4.342
60594W        W24362  23.121  27.956   3.251
60595W        W24363   6.272  32.524   2.331
60596W        W24364  15.304  20.144   0.455
60597W        W24365   7.175  27.652   2.676
60598W        W24366  11.756  23.647  10.007
60599W        W24367  34.455  37.387  13.380
60600W        W24368  43.887  19.739   1.323
60601W        W24369   1.763   0.408  14.775
60602W        W24370  36.361  11.276  14.773
60603W        W24371  32.531  19.564  12.513
60604W        W24372  25.641   4.212   2.286
60605W        W24373   2.259  21.695   2.351
60606W        W24374  25.562  14.601   0.762
60607W        W24375   5.284   0.284  14.331
60608W        W24376  32.991  43.376  14.838
60609W        W24377  21.684  39.051  11.588
60610W        W24378  20.584   3.868   1.248
60611W        W24379  41.988   1.278   4.291
60612W        W24380  42.293   4.913  14.887
60613W        W24381   3.727  43.969   2.742
60614W        W24382  25.694  16.286   0.805
60615W        W24383  35.868  20.266  13.439
60616W        W24384  44.954   7.679  13.491
60617W        W24385  33.985  10.715  11.449
60618W        W24386  30.496  18.744  10.472
60619W        W24387  16.677   6.865   4.617
60620W        W24388  26.528   2.878   1.913
60621W        W24389   7.788  31.896  13.511
60622W        W24390  32.514  27.947   1.827
60623W        W24391   5.375  14.129  11.971
60624W        W24392  32.108  24.656  14.920
60625W        W24393   0.336  13.802   4.774
60626W        W24394  28.184  19.109   4.834
60627W        W24395   7.283   0.450  12.007
60628W        W24396  32.965  30.147  13.869
60629W        W24397  19.549  11.740  13.363
60630W        W24398  28.085  12.826   0.855
60631W        W24399  28.156  34.084   5.291
60632W        W24400  16.737  18.745  10.950
60633W        W24401  17.063  26.580  12.053
60634W        W24402  17.246  15.161  14.951
60635W        W24403  15.740  21.679   9.949
60636W        W24404  14.829  10.738  13.912
60637W        W24405  36.040   0.757   3.705
60638W        W24406  12.227   4.429   2.879
60639W        W24407  43.395  27.982  13.416
60640W        W24408  14.726   4.898  13.329
60641W        W24409  33.943   6.223  13.427
60642W        W24410  43.828  10.698  11.930
60643W        W24411  10.722  10.788   3.856
60644W        W24412  41.343   8.881  12.860
60645W        W24413  20.058  37.867  11.045
60646W        W24414   8.723   8.787  13.853
60647W        W24415  23.120  33.121   1.375
60648W        W24416  10.854  16.190  12.482
60649W        W24417   7.334  44.003   2.815
60650W        W24418  44.496  17.153  12.836
60651W        W24419  37.959   6.373  12.837
60652W        W24420   0.457  36.985  10.019
60653W        W24421  14.697   0.939   1.293
60654W        W24422  32.099  12.634  11.923
60655W        W24423  14.147   7.292  10.446
60656W        W24424   1.870  23.648   1.874
60657W        W24425   4.881  21.653   3.757
60658W        W24426   8.737  35.539  12.042
60659W        W24427  14.214  10.734   5.082
60660W        W24428  27.988   3.811  14.400
60661W        W24429  13.176   6.755  10.912
60662W        W24430  35.539  19.277  13.405
60663W        W24431   3.919  13.695  11.495
60664W        W24432  30.621  16.107   4.327
60665W        W24433  25.170  11.360  11.604
60666W        W24434  35.497   4.747   0.463
60667W        W24435  14.619   2.280   0.359
60668W        W24436   6.705  25.522  10.953
60669W        W24437   9.849  10.142   0.405
60670W        W24438  39.844  36.370   2.794
60671W        W24439   8.799   6.711  13.539
60672W        W24440   5.379  25.974   4.691
60673W        W24441  25.012  29.439   2.387
60674W        W24442  31.457  39.051   0.403
60675W        W24443  37.050  31.955   0.262
60676W        W24444   1.927  13.820   4.152
60677W        W24445  32.028   6.304  13.804
60678W        W24446  22.605   2.469  12.033
60679W        W24447   1.365  32.998   5.782
60680W        W24448   9.306  10.656   2.204
60681W        W24449  42.445  36.070   3.689
60682W        W24450  29.966  17.675  11.934
60683W        W24451  32.978  15.153   1.324
60684W        W24452  15.765  29.118  14.769
60685W        W24453  28.589  16.310  10.924
60686W        W24454  44.390  13.277  13.946
60687W        W24455   7.287  37.428   2.769
60688W        W24456  21.753  32.063  11.867
60689W        W24457   8.396  23.032  12.956
60690W        W24458  31.011  24.052   2.371
60691W        W24459  43.844   2.346  14.795
60692W        W24460  32.594   0.300  11.965
60693W        W24461  36.554  30.623  11.451
60694W        W24462  37.433   9.217  10.493
60695W        W24463  30.918   8.794   0.381
60696W        W24464  19.737   8.855  12.470
60697W        W24465   5.432  16.168  12.079
60698W        W24466  43.470  33.120  14.776
60699W        W24467  17.210  41.391   1.922
60700W        W24468  14.165  40.933   0.399
60701W        W24469  37.968   2.805  12.399
60702W        W24470  22.550  25.048  13.931
60703W        W24471  18.780   7.213  12.506
60704W        W24472  25.051   1.768   3.161
60705W        W24473  16.168  33.474  13.796
60706W        W24474  17.134  21.146   0.894
60707W        W24475  10.782  40.055  11.027
60708W        W24476  44.351   2.817  10.973
60709W        W24477  21.169   6.399   1.931
60710W        W24478  18.569  24.623   2.364
60711W        W24479   0.434   9.676   0.896
60712W        W24480  12.836   0.387   3.372
60713W        W24481  22.560   3.385  13.803
60714W        W24482   3.789  35.021   4.189
60715W        W24483  40.367  27.632  10.571
60716W        W24484  31.081   6.801  13.513
60717W        W24485   6.785  17.776  10.636
60718W        W24486  28.946  21.252   5.260
60719W        W24487   7.311   9.214   2.337
60720W        W24488   8.314  35.026  10.426
60721W        W24489  19.657  36.901   2.216
60722W        W24490  27.506  16.136   1.211
60723W        W24491   2.325  23.567   1.210
60724W        W24492  17.259   5.781   3.694
60725W        W24493  21.056  12.340  14.444
60726W        W24494  24.719  19.656   2.296
60727W        W24495  27.022  22.609  14.918
60728W        W24496  27.672  16.087  10.895
60729W        W24497   5.289  42.032   2.346
60730W        W24498  19.258  39.872   3.826
60731W        W24499  30.079  43.424  11.074
60732W        W24500  21.089  39.433  11.885
60733W        W24501  28.571  35.536   0.754
60734W        W24502  19.749   3.877  13.315
60735W        W24503  27.683  20.238   4.239
60736W        W24504   9.814  16.305   1.355
60737W        W24505   0.744  35.055   9.638
60738W        W24506  20.201  20.102  13.344
60739W        W24507  30.450  29.620   4.691
60740W        W24508  32.520  13.289   0.445
60741W        W24509   7.320   6.888  11.119
60742W        W24510  23.996  43.919  13.468
60743W        W24511  25.659  14.212  11.475
60744W        W24512  29.071   0.309   4.743
60745W        W24513  29.999  20.060   2.308
60746W        W24514  27.971  21.042   4.741
60747W        W24515  21.235  44.805  10.435
60748W        W24516  36.056  12.166  11.551
60749W        W24517  25.004  16.081   2.711
60750W        W24518  34.876   4.912  10.062
60751W        W24519  36.493   6.778  14.482
60752W        W24520  18.219   6.914  14.965
60753W        W24521  40.342  26.477   2.312
60754W        W24522   6.202   7.335   1.414
60755W        W24523  12.702   5.789   0.777
60756W        W24524   3.445  10.177  12.365
60757W        W24525  10.731  12.669   1.401
60758W        W24526   6.714  37.360  14.962
60759W        W24527  39.942  14.275  10.918
60760W        W24528  13.142  12.766  12.983
60761W        W24529  30.922   7.702  11.121
60762W        W24530  15.645  20.710  13.914
60763W        W24531  30.159   8.670  14.891
60764W        W24532  31.942   2.733  10.569
60765W        W24533  39.970  32.559  10.542
60766W        W24534  44.984  35.462  10.537
60767W        W24535  26.204  41.887   4.231
60768W        W24536   2.386  27.508  14.401
60769W        W24537  21.629  21.603   1.370
60770W        W24538  22.076   7.859  14.405
60771W        W24539  32.090   8.758   0.244
60772W        W24540  28.958  28.618   4.750
60773W        W24541  20.092  29.504   0.745
60774W        W24542  35.373  28.969  12.915
60775W        W24543   9.357  41.835   3.697
60776W        W24544  31.512  20.622  12.829
60777W        W24545  23.607  17.569   2.249
60778W        W24546  14.760  11.654   2.748
60779W        W24547   0.897  44.937   0.927
60780W        W24548  12.223  34.998  14.289
60781W        W24549  16.184  23.169   4.732
60782W        W24550  27.585  11.800   4.603
60783W        W24551  41.530   3.417   2.846
60784W        W24552  19.241  30.512  11.525
60785W        W24553  32.421   3.243   3.636
60786W        W24554  42.519  16.174   1.705
60787W        W24555  13.621  36.567   3.355
60788W        W24556  42.973  24.547   2.416
60789W        W24557  29.522  38.963   3.650
60790W        W24558  30.043  12.742  10.907
60791W        W24559   6.763  13.757  10.949
60792W        W24560  26.519  13.768   3.311
60793W        W24561  24.203  12.652   4.238
60794W        W24562  33.949  39.865   4.159
60795W        W24563  29.590  27.552  11.437
60796W        W24564  22.188   9.799   3.790
60797W        W24565   0.355  29.022   2.724
60798W        W24566  10.222  23.240   4.116
60799W        W24567  27.156  40.054   2.795
60800W        W24568  27.064  31.590   4.330
60801W        W24569  15.739  43.287  14.335
60802W        W24570  33.009  34.084  13.365
60803W        W24571   1.394  22.050  13.380
60804W        W24572   2.800  25.119  11.031
60805W        W24573  42.296  40.351   0.816
60806W        W24574   0.302  22.206   0.417
60807W        W24575  24.133   5.882  14.338
60808W        W24576  24.566  15.612   3.771
60809W        W24577  17.741  44.334   3.712
60810W        W24578  15.623  26.083   4.808
60811W        W24579  25.012  41.335  13.486
60812W        W24580  36.087  44.766  11.477
60813W        W24581  14.629  18.053   9.539
60814W        W24582  26.490  12.752  13.344
60815W        W24583  18.759  40.035   3.817
60816W        W24584  23.489  43.976   2.417
60817W        W24585   0.922  14.699  12.005
60818W        W24586  15.808   9.738  10.481
60819W        W24587  23.582   4.845   2.716
60820W        W24588  22.730  43.366   4.308
60821W        W24589  43.775  31.500   4.644
60822W        W24590  43.968  13.838  11.922
60823W        W24591  17.294   6.789   2.254
60824W        W24592  35.065  39.912   4.159
60825W        W24593  12.715   0.255   1.370
60826W        W24594  24.692  29.662  11.564
60827W        W24595  16.681   2.791   4.725
60828W        W24596   1.790  28.169  11.049
60829W        W24597   0.421   9.346   2.835
60830W        W24598  14.123   6.374   3.321
60831W        W24599  39.361  11.844   3.713
60832W        W24600  20.260  11.366   0.806
60833W        W24601  23.702  43.398   4.210
60834W        W24602   5.237  27.460  11.075
60835W        W24603  26.044  11.292   5.254
60836W        W24604   9.648  12.745   1.858
60837W        W24605  10.634  21.200  11.994
60838W        W24606  37.579  18.657   0.417
60839W        W24607  25.971  14.750   1.289
60840W        W24608   1.838  14.287  12.374
60841W        W24609  10.177   9.376  13.432
60842W        W24610  38.434  27.658  14.511
60843W        W24611   2.922  23.554   2.825
60844W        W24612  40.979  16.262   0.766
60845W        W24613  17.163   8.685  10.158
60846W        W24614  16.611  24.124  14.967
60847W        W24615  29.008   0.430   2.319
60848W        W24616  13.205  38.550  11.598
60849W        W24617  32.965   7.740  12.364
60850W        W24618  44.434   3.712   2.227
60851W        W24619   1.815  21.158   0.897
60852W        W24620  17.559  23.628  13.820
60853W        W24621  12.283  14.796  14.511
60854W        W24622   5.401   0.403   0.428
60855W        W24623  37.921  40.413  14.010
60856W        W24624  35.367  29.558   1.251
60857W        W24625  24.716  31.452   4.638
60858W        W24626  29.037  13.293   2.388
60859W        W24627  30.144  43.846  12.966
60860W        W24628  43.321  20.755   2.799
60861W        W24629  15.327   7.347   0.752
60862W        W24630  35.587  31.543   1.369
60863W        W24631  25.105  21.120   1.285
60864W        W24632  40.369  30.045   4.719
60865W        W24633  44.467   6.372  12.064
60866W        W24634  26.188   9.190  13.499
60867W        W24635  35.970  15.651   0.888
60868W        W24636   1.301  25.161   1.285
60869W        W24637   4.735  39.500  12.394
60870W        W24638  10.824  17.137  11.465
60871W        W24639  10.780   6.312   4.258
60872W        W24640  15.137  27.626  13.453
60873W        W24641   8.250   8.893   0.844
60874W        W24642  17.061  44.365  12.378
60875W        W24643  22.727  37.084   3.252
60876W        W24644  27.543   0.296  11.416
60877W        W24645  28.973  22.550   2.228
60878W        W24646  31.081  35.596  11.535
60879W        W24647  11.761  31.006  13.994
60880W        W24648  16.133  28.180  12.085
60881W        W24649   7.264  30.540  14.899
60882W        W24650  33.446   6.909   0.845
60883W        W24651  21.730  25.043   3.654
60884W        W24652   7.799  31.052   0.952
60885W        W24653  29.014  25.086  12.071
60886W        W24654   4.897   2.795   1.437
60887W        W24655  12.151  33.405   2.830
60888W        W24656  16.587  21.237  14.904
60889W        W24657   8.342  39.890  11.037
60890W        W24658   6.910  24.174   2.376
60891W        W24659  30.945  36.476   2.849
60892W        W24660   3.437   7.694   5.233
60893W        W24661   8.705  44.281   5.222
60894W        W24662   9.377  41.985  14.371
60895W        W24663   5.774  11.361  13.027
60896W        W24664  36.043   6.320  13.008
60897W        W24665  28.042  22.022   0.822
60898W        W24666  13.252  42.429   3.644
60899W        W24667   9.760  44.854  10.404
60900W        W24668   8.709  29.507  10.513
60901W        W24669   9.193  40.849   3.306
60902W        W24670  27.063   3.948  10.513
60903W        W24671  30.032  35.404   0.736
60904W        W24672   1.902  32.042   2.772
60905W        W24673  19.226  11.814  10.562
60906W        W24674  36.975  29.433   3.288
60907W        W24675   0.454  44.804   1.323
60908W        W24676  23.584   4.204  11.544
60909W        W24677  16.217  26.597  12.967
60910W        W24678  42.403   0.285  11.485
60911W        W24679  12.212  26.629  10.618
60912W        W24680  28.987  35.056  11.524
60913W        W24681  39.980  18.226   0.963
60914W        W24682  42.491  27.689  10.562
60915W        W24683  15.818  34.601   9.955
60916W        W24684  42.864  26.061  10.557
60917W        W24685  35.919  27.073  13.023
60918W        W24686  21.144   4.711   5.152
60919W        W24687  30.995  11.254   1.872
60920W        W24688  36.015   0.839  10.642
60921W        W24689   0.456   4.268   2.702
60922W        W24690  27.990  22.618  11.067
60923W        W24691  38.006  24.217  14.823
60924W        W24692  44.820  36.056  14.970
60925W        W24693  42.334  20.724   4.343
60926W        W24694  10.668  11.298   4.797
60927W        W24695  38.937  41.884  10.975
60928W        W24696  30.089  10.225   4.229
60929W        W24697  34.062   6.414   0.814
60930W        W24698   8.672  41.491  12.048
60931W        W24699  36.434  35.528  13.843
60932W        W24700  10.312  24.644   0.768
60933W        W24701  18.086  21.695   0.342
60934W        W24702  22.517  38.370  12.387
60935W        W24703  40.943   0.763  12.577
60936W        W24704  13.841   2.280   3.660
60937W        W24705  32.616  36.415   0.469
60938W        W24706   8.348  36.546   1.925
60939W        W24707   2.269  17.117   0.265
60940W        W24708   8.717   9.316   1.396
60941W        W24709  14.175  18.181  14.772
60942W        W24710  37.435  13.736   3.722
60943W        W24711  18.691  33.910   4.620
60944W        W24712  19.102   4.727   1.211
60945W        W24713  30.562  39.388  11.484
60946W        W24714  26.547  35.409  11.912
60947W        W24715  40.797  42.438   0.410
60948W        W24716  43.916   5.198  13.495
60949W        W24717  36.481  40.845   3.359
60950W        W24718  21.182  28.092  10.512
60951W        W24719   9.881  27.076  14.993
60952W        W24720  23.238   6.824   1.859
60953W        W24721   9.818  35.922  12.898
60954W        W24722  33.595  27.691   2.177
60955W        W24723  10.818  13.237  14.786
60956W        W24724  28.079  29.432   1.324
60957W        W24725   7.823  18.241   2.371
60958W        W24726   4.280   0.417   4.802
60959W        W24727  28.540  40.949  11.886
60960W        W24728  33.932  31.404   4.668
60961W        W24729  29.638  11.742   1.374
60962W        W24730   7.716   0.844   2.807
60963W        W24731  34.025   5.336   1.774
60964W        W24732  13.162   5.921  14.318
60965W        W24733  29.097  24.172  13.932
60966W        W24734  44.968  28.942   1.296
60967W        W24735   7.830  41.478  13.839
60968W        W24736  35.027   0.870  14.308
60969W        W24737  34.016  44.884   4.647
60970W        W24738  43.486  41.440  10.528
60971W        W24739  31.425   5.369   3.387
60972W        W24740  44.500  21.189   4.153
60973W        W24741   1.442  29.478   3.294
60974W        W24742   4.832   7.682   0.814
60975W        W24743  11.859  32.404   0.877
60976W        W24744  43.932  15.260   1.412
60977W        W24745  27.464  14.192  13.478
60978W        W24746   2.738  14.770   1.388
60979W        W24747  13.790   2.963   2.209
60980W        W24748  34.098   3.854   4.140
60981W        W24749  15.751  12.146   2.187
60982W        W24750  42.778  32.626   1.388
60983W        W24751  23.017  34.919  10.510
60984W        W24752  21.191   4.764  12.384
60985W        W24753  13.223  25.127  10.472
60986W        W24754  11.782   4.378   0.465
60987W        W24755  19.049  32.461  11.589
60988W        W24756   3.314  14.738   3.735
60989W        W24757  12.780   1.424  11.876
60990W        W24758  38.862  17.077  10.539
60991W        W24759  34.976  28.566  13.429
60992W        W24760  35.867  30.143   0.918
60993W        W24761  23.162  13.678   3.328
60994W        W24762  29.496  18.623  13.868
60995W        W24763  11.138   0.879   4.794
60996W        W24764   8.216  36.931   3.230
60997W        W24765   2.335   2.460   4.183
60998W        W24766  14.170  16.230   5.297
60999W        W24767  32.466   4.232  13.420
61000W        W24768  20.543   2.230  10.904
61001W        W24769  25.476   0.904   2.843
61002W        W24770  32.135  15.696  13.909
61003W        W24771   0.831   1.897  13.955
61004W        W24772   1.328   7.674   0.858
61005W        W24773   3.944   0.292   4.178
61006W        W24774  22.205  44.499  14.443
61007W        W24775   5.236   9.655  14.497
61008W        W24776   3.259   5.857  14.860
61009W        W24777  19.566   1.759   3.829
61010W        W24778  33.576  40.492  12.469
61011W        W24779  39.018  26.583  11.403
61012W        W24780  14.209  38.557   4.220
61013W        W24781  10.204  23.008  14.295
61014W        W24782  23.119  22.587  13.860
61015W        W24783  11.825  31.920   5.262
61016W        W24784  19.169   3.824   3.787
61017W        W24785   1.256  36.973   9.934
61018W        W24786  38.537  10.331  10.113
61019W        W24787  32.945  23.657   0.292
61020W        W24788  21.622   6.750  14.419
61021W        W24789  27.022  38.545   3.255
61022W        W24790   8.285  28.990   1.218
61023W        W24791  35.933  14.833   2.745
61024W        W24792  19.054  44.375  14.992
61025W        W24793  36.485  36.958  12.886
61026W        W24794  28.442   6.188   3.373
61027W        W24795  29.650  35.416   4.257
61028W        W24796  10.830  43.827  14.898
61029W        W24797   4.427  18.156  12.349
61030W        W24798  18.628   0.946  12.529
61031W        W24799   2.848  24.623  14.855
61032W        W24800  39.344   7.749   3.192
61033W        W24801  41.035  37.500   2.714
61034W        W24802  44.883  15.146   0.875
61035W        W24803  40.365  25.669  10.573
61036W        W24804  36.535  25.170  10.567
61037W        W24805   7.768  35.536  12.042
61038W        W24806  32.008  39.836   3.792
61039W        W24807  41.420  14.095  10.611
61040W        W24808  19.567   5.834   0.264
61041W        W24809  37.356  26.554  14.367
61042W        W24810  43.506  29.143  11.943
61043W        W24811  33.514  39.938  14.411
61044W        W24812  15.317   1.913  14.511
61045W        W24813  26.088  40.305  11.127
61046W        W24814  12.164   2.735   4.818
61047W        W24815   3.220   8.224   4.242
61048W        W24816   4.231   5.691   4.302
61049W        W24817  42.894  10.808   1.811
61050W        W24818  27.487  15.185   3.205
61051W        W24819  38.544  32.455   2.197
61052W        W24820   7.346  34.465   1.858
61053W        W24821  29.565  39.434  11.483
61054W        W24822  25.188  23.032  13.396
61055W        W24823  32.523  37.038  11.989
61056W        W24824  32.607  23.664   4.121
61057W        W24825   6.219  13.116   1.796
61058W        W24826  39.476  26.497   2.742
61059W        W24827  12.238  35.920  13.803
61060W        W24828  44.968  38.533   3.382
61061W        W24829  29.524  40.456  11.611
61062W        W24830   3.863  38.935   3.299
61063W        W24831  23.731  25.542   3.151
61064W        W24832  28.628  18.240  13.978
61065W        W24833  15.807  28.576  10.415
61066W        W24834  40.360  26.640  12.354
61067W        W24835  36.508  34.940  10.513
61068W        W24836  12.189  38.864   1.292
61069W        W24837  22.210  29.951   1.768
61070W        W24838  12.253  25.664  10.523
61071W        W24839   6.757  27.072  14.473
61072W        W24840  26.115  21.598  13.976
61073W        W24841  25.108   3.283  11.980
61074W        W24842  34.105   1.738  11.580
61075W        W24843  23.158   7.370   4.649
61076W        W24844  31.587  19.619   9.977
61077W        W24845   2.952  20.165   3.386
61078W        W24846  33.457  28.971   0.928
61079W        W24847  42.425  16.308   4.831
61080W        W24848  37.547  31.112   3.838
61081W        W24849  18.672  35.573  14.774
61082W        W24850  14.715  29.464   1.826
61083W        W24851  28.073   0.794   1.779
61084W        W24852  29.560  17.771  11.972
61085W        W24853  13.619  36.991  12.901
61086W        W24854  31.615   5.361   4.721
61087W        W24855  27.033  38.350   0.428
61088W        W24856   5.833  20.131   0.735
61089W        W24857   8.836  10.139   1.294
61090W        W24858  30.645  24.689   0.371
61091W        W24859  35.088   5.818   2.241
61092W        W24860  10.804  19.042  11.422
61093W        W24861  28.998  44.338   1.381
61094W        W24862  26.004   2.226   1.228
61095W        W24863   4.805  11.345  13.542
61096W        W24864   8.850   3.768  11.093
61097W        W24865  28.004  12.615   3.830
61098W        W24866  40.862  17.657  10.613
61099W        W24867  23.520  32.100   4.278
61100W        W24868  37.864   7.682   1.297
61101W        W24869   0.447  29.924  14.488
61102W        W24870  12.659  35.977  10.480
61103W        W24871  37.909  24.489  11.481
61104W        W24872  25.622   7.256  14.322
61105W        W24873  26.649  39.414  14.481
61106W        W24874  30.559  29.491   1.260
61107W        W24875  12.748  21.187   4.759
61108W        W24876  38.076  21.235   2.893
61109W        W24877  30.605  41.486  11.013
61110W        W24878   0.943  24.007  12.407
61111W        W24879  30.435  13.622  11.582
61112W        W24880   3.929   5.348  14.772
61113W        W24881  32.473   5.297  14.996
61114W        W24882   6.684  37.931  13.045
61115W        W24883  41.313  31.036   0.753
61116W        W24884  38.022  12.650  14.435
61117W        W24885   4.346  24.075  13.804
61118W        W24886  14.137  39.475  12.992
61119W        W24887  20.219  43.836  10.927
61120W        W24888  16.112  40.941  11.486
61121W        W24889  42.824   9.177  14.286
61122W        W24890  35.384  35.868  11.099
61123W        W24891  32.016  29.653  12.997
61124W        W24892   4.859  14.641  10.932
61125W        W24893   9.300  20.090  14.473
61126W        W24894   6.754  32.410  11.882
61127W        W24895   7.789  36.542  12.847
61128W        W24896   6.794  34.378  12.989
61129W        W24897  25.160  28.090  11.373
61130W        W24898  12.644  25.055  11.895
61131W        W24899  21.127  13.820   4.633
61132W        W24900  42.486  33.435  14.797
61133W        W24901   0.300  27.038  10.446
61134W        W24902  42.026  11.733  11.860
61135W        W24903  39.343  15.160   4.783
61136W        W24904  31.103  30.922  11.431
61137W        W24905  18.192  19.741   1.765
61138W        W24906   6.316   4.386   2.374
61139W        W24907  28.603  34.081   3.224
61140W        W24908  29.511  20.152   4.628
61141W        W24909  32.920  26.164  10.536
61142W        W24910  36.959  35.392   1.712
61143W        W24911  32.100  36.483   2.838
61144W        W24912  23.510   4.724  11.531
61145W        W24913  28.576   6.754  13.894
61146W        W24914  20.198  23.989  14.792
61147W        W24915  13.146  41.384   0.895
61148W        W24916  20.585   3.401   4.236
61149W        W24917  32.903  23.664  13.429
61150W        W24918  26.530  25.613   3.254
61151W        W24919  21.158  20.272  13.803
61152W        W24920  32.628  39.968   1.326
61153W        W24921  34.438  16.622  12.090
61154W        W24922   4.226  28.678  11.605
61155W        W24923  41.924   3.817   3.289
61156W        W24924   2.757  12.247   3.199
61157W        W24925  30.040  24.141   4.311
61158W        W24926   5.210  22.625  13.510
61159W        W24927  43.436   4.912   4.289
61160W        W24928  35.468  12.855   0.290
61161W        W24929  16.155  22.162  10.067
61162W        W24930  22.600  21.017   1.844
61163W        W24931  43.391   5.701  14.418
61164W        W24932  11.723  36.372   3.696
61165W        W24933  10.280  27.127  11.038
61166W        W24934   4.737  15.142  10.597
61167W        W24935  13.626  15.163  14.819
61168W        W24936   7.396  38.843  12.046
61169W        W24937  10.843  23.676  13.396
61170W        W24938  41.973  26.022   3.797
61171W        W24939  14.173  35.995   1.908
61172W        W24940  29.468  17.297   4.741
61173W        W24941  42.897   9.395  11.392
61174W        W24942  17.714   5.299  13.944
61175W        W24943  36.586  25.052   1.444
61176W        W24944  42.794  36.980  13.319
61177W        W24945  38.890  10.255  11.061
61178W        W24946  27.139  40.909  13.975
61179W        W24947  33.877  41.311  10.476
61180W        W24948  27.004   2.248  12.089
61181W        W24949  15.305  29.515  14.503
61182W        W24950   9.840  40.825   0.333
61183W        W24951  30.088  18.564  10.525
61184W        W24952  24.155  22.027  14.853
61185W        W24953  16.660  12.838  12.004
61186W        W24954  16.246  17.574  13.384
61187W        W24955   8.323  33.009   3.861
61188W        W24956  23.216  23.104  11.525
61189W        W24957  36.960  21.143  13.878
61190W        W24958  40.372   1.317  14.300
61191W        W24959  30.074  44.475   4.309
61192W        W24960   3.242  14.618   1.232
61193W        W24961  26.153  29.063   1.899
61194W        W24962  29.975  13.710  13.330
61195W        W24963  12.821  41.917  13.804
61196W        W24964   5.781  13.653  14.862
61197W        W24965  35.985  22.625   1.782
61198W        W24966  17.556  36.894  14.030
61199W        W24967  14.207  24.711   0.424
61200W        W24968  35.558  10.206  11.915
61201W        W24969   6.680  39.340   3.701
61202W        W24970  20.050  23.543  14.877
61203W        W24971   6.419  41.395   3.384
61204W        W24972  21.657  40.422  12.004
61205W        W24973  36.876  22.086   0.774
61206W        W24974  35.926  43.318   4.809
61207W        W24975  15.774  31.628   1.308
61208W        W24976  13.165  43.797   3.208
61209W        W24977  43.897  36.557  14.818
61210W        W24978   1.795  14.806   0.823
61211W        W24979  31.142  35.015  12.925
61212W        W24980  21.179  18.094  11.603
61213W        W24981  34.386  14.652  14.029
61214W        W24982  30.650   4.301   1.809
61215W        W24983  11.755  10.377  10.104
61216W        W24984   5.286   2.835  13.902
61217W        W24985  33.560  16.728  11.491
61218W        W24986  15.107  38.953   3.151
61219W        W24987   1.341  29.666  13.341
61220W        W24988   7.313   0.326  14.924
61221W        W24989  24.706  43.399  12.570
61222W        W24990  37.841   6.895  11.895
61223W        W24991  28.584  21.672  11.084
61224W        W24992   1.964  17.599  14.995
61225W        W24993   9.311  26.487   3.712
61226W        W24994  17.710   8.767  10.892
61227W        W24995  31.151  42.828   3.710
61228W        W24996  41.905  27.518   4.229
61229W        W24997  24.630  31.906   2.757
61230W        W24998  36.364   6.748  10.008
61231W        W24999   7.240   4.214  12.469
61232W        W25000   0.345  38.950   1.774
61233W        W25001  29.170  18.169  13.324
61234W        W25002  36.897  16.669   0.831
61235W        W25003  19.599  38.527   2.766
61236W        W25004  33.477  22.031  13.967
61237W        W25005  37.050  40.526  14.962
61238W        W25006   8.264  24.491  12.848
61239W        W25007   4.849   5.721   0.792
61240W        W25008  24.679  25.707  11.097
61241W        W25009  12.812   0.920  14.893
61242W        W25010  24.498  43.312   0.436
61243W        W25011  32.546  22.642  14.445
61244W        W25012  10.291  14.203  12.538
61245W        W25013  28.656   8.896  10.955
61246W        W25014   4.888  36.897   0.331
61247W        W25015  18.697  21.076   4.276
61248W        W25016  23.640  32.087  11.921
61249W        W25017  11.312  43.935   0.456
61250W        W25018  19.275  15.803   3.869
61251W        W25019  16.203  12.182   3.296
61252W        W25020   9.161  39.555  13.431
61253W        W25021   6.692   6.308  10.482
61254W        W25022  38.468  38.467  14.906
61255W        W25023   1.439  16.293  13.817
61256W        W25024   2.765   6.847   2.337
61257W        W25025  28.662  18.099   2.347
61258W        W25026   5.374  35.068   2.287
61259W        W25027  28.986  27.145  14.876
61260W        W25028  15.123  20.144  12.526
61261W        W25029  26.205  38.927   0.907
61262W        W25030   3.932  30.641   9.961
61263W        W25031  40.397  23.674  10.618
61264W        W25032  25.647  35.873  14.021
61265W        W25033  34.056  27.176   2.364
61266W        W25034  38.896  22.144  12.350
61267W        W25035  16.792  22.250   2.680
61268W        W25036  33.060  27.988  10.496
61269W        W25037  25.470  21.697  12.386
61270W        W25038  14.774  21.055   2.764
61271W        W25039  40.545   2.248  11.438
61272W        W25040  38.509  20.071  10.921
61273W        W25041  17.190  32.024  12.401
61274W        W25042  20.740  17.075   2.382
61275W        W25043  26.104   6.233  13.838
61276W        W25044  34.965  38.427   4.235
61277W        W25045  23.022  25.134   4.123
61278W        W25046  22.031  10.865   4.721
61279W        W25047  25.712  32.390  11.916
61280W        W25048  19.607  26.166   0.919
61281W        W25049  18.254  12.649  11.065
61282W        W25050  34.580   4.717  10.953
61283W        W25051  37.464  36.977  11.894
61284W        W25052  16.134   0.825   4.148
61285W        W25053  39.020  28.584  13.498
61286W        W25054  30.022   9.707   4.837
61287W        W25055   9.660  18.665   4.235
61288W        W25056  44.983  28.052   0.733
61289W        W25057   3.247  36.896  11.931
61290W        W25058  20.531  36.010  14.314
61291W        W25059  13.291  27.624  12.459
61292W        W25060   1.468   5.911  14.955
61293W        W25061  26.064   3.413  12.019
61294W        W25062   6.269  34.937  13.048
61295W        W25063  29.526  43.941  12.030
61296W        W25064  27.150  21.691  11.923
61297W        W25065  26.976  42.418  13.849
61298W        W25066  18.593  28.480  14.984
61299W        W25067  32.888   6.262   3.240
61300W        W25068   7.898  22.042  10.453
61301W        W25069  38.509   3.927  13.451
61302W        W25070  25.488  26.960  14.500
61303W        W25071  22.515  33.131   0.356
61304W        W25072  16.598  31.899  12.463
61305W        W25073  19.117   3.225   4.724
61306W        W25074   8.847  43.288  11.049
61307W        W25075   5.263  41.330   0.844
61308W        W25076  44.915  19.576  12.580
61309W        W25077  21.086  30.496   0.919
61310W        W25078  42.393   9.820  11.113
61311W        W25079  10.147  20.680  13.800
61312W        W25080   5.742  18.214  11.445
61313W        W25081  15.720  42.826  13.423
61314W        W25082  29.998   9.866   0.279
61315W        W25083  11.759   1.339   0.379
61316W        W25084  33.466   1.749   1.320
61317W        W25085  33.622  18.101   5.191
61318W        W25086  38.418  25.204   0.946
61319W        W25087  41.870  13.139  12.524
61320W        W25088  11.639  15.743   0.854
61321W        W25089  34.567  15.701  13.412
61322W        W25090  31.963  40.918  13.061
61323W        W25091  37.397  11.674  11.527
61324W        W25092  20.052  37.904  14.286
61325W        W25093  16.796   5.303  10.628
61326W        W25094   7.383  30.019   3.198
61327W        W25095   2.315  14.176  13.309
61328W        W25096   4.892  29.131   1.373
61329W        W25097  39.029  11.261   2.778
61330W        W25098  28.437  42.973   2.399
61331W        W25099  15.816  13.185   4.166
61332W        W25100  29.473   7.877   4.223
61333W        W25101  14.758   7.807  11.893
61334W        W25102  36.025  12.653   2.793
61335W        W25103  19.706  16.783  14.765
61336W        W25104  35.098  30.960  14.957
61337W        W25105   3.313  39.876  13.807
61338W        W25106  15.679   6.908  12.526
61339W        W25107  26.178  38.046  14.433
61340W        W25108  19.218  16.297   3.835
61341W        W25109  32.044  35.594  13.459
61342W        W25110  16.145  11.263  10.969
61343W        W25111  34.984  25.028   1.447
61344W        W25112  33.083  40.864   2.891
61345W        W25113   5.927  10.196  12.567
61346W        W25114  17.192  13.760   0.762
61347W        W25115   3.732  33.424   4.623
61348W        W25116  13.745   2.363  14.488
61349W        W25117  23.029  34.449   1.266
61350W        W25118  18.693  44.960  10.619
61351W        W25119  28.133   7.863   0.792
61352W        W25120   7.299   4.835   3.276
61353W        W25121  15.638  36.446  14.338
61354W        W25122  31.901  20.056  12.044
61355W        W25123  23.115  44.295   1.879
61356W        W25124  35.081  16.202   4.822
61357W        W25125  34.609  13.659  11.445
61358W        W25126  41.507   4.709   4.270
61359W        W25127  16.201  20.760   3.643
61360W        W25128  33.478  26.492  10.096
61361W        W25129  40.978  12.767  11.913
61362W        W25130   4.364  13.647   3.805
61363W        W25131  42.979  18.146   4.141
61364W        W25132  17.125  10.342   1.698
61365W        W25133  18.740   5.834  10.522
61366W        W25134  31.505  32.621  14.400
61367W        W25135  26.147  13.186  12.085
61368W        W25136  26.999  23.611   3.270
61369W        W25137   0.493  36.559  10.022
61370W        W25138   6.895  27.603  10.423
61371W        W25139   2.324  12.116   2.727
61372W        W25140  21.603  28.461  14.355
61373W        W25141  38.497  19.138  13.441
61374W        W25142   0.841  32.038   2.794
61375W        W25143   5.794  16.575  12.552
61376W        W25144  36.527  29.149   1.366
61377W        W25145  36.492  23.141   0.903
61378W        W25146  24.627  38.967   0.934
61379W        W25147  17.099  34.080   0.853
61380W        W25148  21.671  33.507  14.957
61381W        W25149  31.990  17.600  11.541
61382W        W25150  33.030  29.477  10.606
61383W        W25151  11.362  16.577  13.823
61384W        W25152  32.506  11.156   0.349
61385W        W25153  18.219  29.995   3.259
61386W        W25154  40.030  14.176  12.361
61387W        W25155   9.806  34.555   1.375
61388W        W25156  31.494  14.728  11.093
61389W        W25157  41.392   5.729   0.959
61390W        W25158  26.682   1.265  14.317
61391W        W25159   2.399   4.364   4.708
61392W        W25160   5.740   9.652  13.428
61393W        W25161   5.691  37.923  10.572
61394W        W25162  31.929  21.622  14.350
61395W        W25163  22.538  28.118  10.563
61396W        W25164  18.668   8.192  12.968
61397W        W25165  23.182   3.773   3.266
61398W        W25166  30.488  11.340  10.931
61399W        W25167  27.633  35.568  14.468
61400W        W25168  16.806  35.542  14.024
61401W        W25169  32.019  26.105  11.113
61402W        W25170  35.915  27.603   4.831
61403W        W25171   7.284  19.158   3.366
61404W        W25172  20.697  25.123  14.862
61405W        W25173  10.336   1.425  14.777
61406W        W25174  30.144   5.835   1.849
61407W        W25175  25.662  29.621  11.944
61408W        W25176   0.280   1.754   0.474
61409W        W25177   2.733  40.040  14.367
61410W        W25178  12.175  32.980  13.456
61411W        W25179   2.303   3.881   4.645
61412W        W25180  44.964  24.481   1.239
61413W        W25181  25.578  43.818  10.468
61414W        W25182   4.849  26.179  12.378
61415W        W25183  12.722  32.910   1.269
61416W        W25184  40.441  38.379   4.762
61417W        W25185  23.716  16.145  10.418
61418W        W25186  32.559  15.319   5.795
61419W        W25187  15.668   2.227   4.118
61420W        W25188  39.469  19.594   1.790
61421W        W25189  29.442  38.968   2.396
61422W        W25190  37.868  35.391  12.379
61423W        W25191  33.577  42.432   2.731
61424W        W25192  15.682  10.849   4.156
61425W        W25193  30.140  34.915   3.668
61426W        W25194   8.257  41.478  13.478
61427W        W25195   4.901  25.065  10.461
61428W        W25196  41.351  17.576   3.778
61429W        W25197   7.355  19.057  14.859
61430W        W25198  39.893  12.845  12.014
61431W        W25199  30.118  11.132   4.625
61432W        W25200  29.660   0.421  10.582
61433W        W25201   3.752   5.841   4.260
61434W        W25202   8.827  19.778   3.309
61435W        W25203  38.016   9.297   5.247
61436W        W25204  43.348  36.878  13.314
61437W        W25205  21.648   1.473   1.268
61438W        W25206   4.801  19.250   4.686
61439W        W25207  27.557  20.532  11.394
61440W        W25208  10.794  36.460   3.212
61441W        W25209  43.313  21.687  12.843
61442W        W25210   0.801  39.964   0.418
61443W        W25211  30.552  32.526  12.827
61444W        W25212  24.645   0.955   0.728
61445W        W25213   6.805  25.710   0.778
61446W        W25214  10.249  20.055  13.863
61447W        W25215  24.136  32.140  14.981
61448W        W25216  42.885   3.335  14.377
61449W        W25217  18.285  28.536  11.076
61450W        W25218   6.278  15.736   1.443
61451W        W25219  31.453  22.168   3.227
61452W        W25220  23.170  44.401  10.147
61453W        W25221  36.516  30.941   1.403
61454W        W25222  32.948  32.134  12.568
61455W        W25223  31.144  16.771   2.839
61456W        W25224  29.466  41.462   5.166
61457W        W25225  19.566  39.811   2.731
61458W        W25226   0.461  22.997  11.568
61459W        W25227  36.493  40.932   2.408
61460W        W25228  38.344  37.547   0.874
61461W        W25229  17.560  38.963  10.042
61462W        W25230  12.687  43.317  11.594
61463W        W25231  34.908  22.099   0.420
61464W        W25232   5.393  25.977   2.827
61465W        W25233  18.103  16.642  10.105
61466W        W25234  21.731  44.819   1.871
61467W        W25235   9.285  15.152  11.113
61468W        W25236  18.146  20.621   1.746
61469W        W25237  43.951  21.142   4.715
61470W        W25238  35.497  37.359  11.444
61471W        W25239  16.243  29.448   9.941
61472W        W25240  12.362   1.902   3.652
61473W        W25241   7.262  24.562   1.793
61474W        W25242  17.219  44.296  10.890
61475W        W25243  19.157  29.159   4.735
61476W        W25244  25.710   4.421  12.433
61477W        W25245  21.732  43.327   2.793
61478W        W25246  33.009  16.175  12.389
61479W        W25247  14.698  19.545   4.346
61480W        W25248  39.430  42.872   3.160
61481W        W25249  25.046  42.826  11.901
61482W        W25250  31.537  29.517   4.706
61483W        W25251  17.680  13.280  14.923
61484W        W25252  21.212  29.988   3.288
61485W        W25253   7.334  24.566  14.420
61486W        W25254   3.872  24.661   2.219
61487W        W25255  31.540  28.547  12.350
61488W        W25256   8.163   0.907   2.784
61489W        W25257  36.898   1.829  11.933
61490W        W25258   0.956  41.355   3.259
61491W        W25259   9.265   6.310   1.824
61492W        W25260  36.574  15.092   2.679
61493W        W25261   9.786  20.109   4.685
61494W        W25262  24.168   5.755  10.969
61495W        W25263  12.152  14.756   2.285
61496W        W25264  22.171   1.441   0.461
61497W        W25265  14.778  25.547   4.260
61498W        W25266  38.851  28.982  11.939
61499W        W25267  11.209  15.587  12.055
61500W        W25268  20.665  26.069  12.447
61501W        W25269   8.197  33.891   4.814
61502W        W25270  40.324  28.541  14.855
61503W        W25271  42.884   1.299   1.218
61504W        W25272   3.313  26.504   0.350
61505W        W25273  18.660  17.621  11.960
61506W        W25274  41.966  19.709   3.843
61507W        W25275  36.514  19.737  11.015
61508W        W25276  30.132   9.737   1.248
61509W        W25277  28.444   4.208  14.338
61510W        W25278  28.079  33.450  11.559
61511W        W25279   1.332  27.476  13.804
61512W        W25280   0.946  34.489  11.443
61513W        W25281  30.510  34.384  14.023
61514W        W25282  25.090   3.785   4.153
61515W        W25283   4.248  18.750   1.731
61516W        W25284  30.907  15.643   2.270
61517W        W25285   0.461  41.352  11.052
61518W        W25286  33.902   2.410   3.282
61519W        W25287  34.370  23.710   0.860
61520W        W25288  17.623  10.757   0.374
61521W        W25289  24.129   5.822  12.573
61522W        W25290  18.661  28.454  14.316
61523W        W25291  36.867  32.026  11.918
61524W        W25292  26.988  22.061  12.862
61525W        W25293  27.070  17.160  10.584
61526W        W25294  12.641  36.970   4.669
61527W        W25295  10.263  39.868  12.445
61528W        W25296   7.671  44.892  13.979
61529W        W25297  22.658  33.002  11.514
61530W        W25298  21.649  14.288   2.375
61531W        W25299  14.169  30.029   2.348
61532W        W25300  26.975  16.767   1.432
61533W        W25301  21.616   5.260  13.325
61534W        W25302   3.750  36.404  13.967
61535W        W25303   8.285  32.040  14.493
61536W        W25304  16.086  19.069  14.492
61537W        W25305  15.226  36.577  10.478
61538W        W25306  40.380  42.433   0.245
61539W        W25307  32.471  14.811  10.000
61540W        W25308   6.701  21.151   4.613
61541W        W25309  14.251  30.561   4.328
61542W        W25310  39.550  39.982  13.462
61543W        W25311  33.114  35.980   4.274
61544W        W25312  44.998  44.266   1.223
61545W        W25313  25.576   8.900   9.924
61546W        W25314   3.426  40.341   0.459
61547W        W25315  18.277   3.252  11.028
61548W        W25316  10.292  44.850   4.777
61549W        W25317  14.226   4.867  12.547
61550W        W25318  41.324  44.296   0.475
61551W        W25319  44.805  40.904  11.610
61552W        W25320  23.189  25.033  14.411
61553W        W25321  41.334  18.755   1.447
61554W        W25322  37.901  17.671  14.369
61555W        W25323  13.666  17.571  10.430
61556W        W25324  28.021  20.154  14.838
61557W        W25325  17.194  23.494   0.787
61558W        W25326  34.920  30.155  12.980
61559W        W25327  32.919  32.045  14.516
61560W        W25328  13.700   0.877  11.376
61561W        W25329  29.580  28.005   2.887
61562W        W25330  39.342  24.147   1.376
61563W        W25331  25.687   0.329   1.748
61564W        W25332  41.001  17.086   4.687
61565W        W25333  26.475  33.551   2.676
61566W        W25334  36.902  36.888   0.445
61567W        W25335  23.984  23.620  14.283
61568W        W25336   2.814   3.855   2.377
61569W        W25337  21.664  40.546  10.133
61570W        W25338  17.777   1.467  10.439
61571W        W25339  35.413  39.315   0.249
61572W        W25340  37.481   8.225   2.799
61573W        W25341  14.706  27.984  12.020
61574W        W25342   4.302  40.987  12.394
61575W        W25343  12.786  21.155   2.232
61576W        W25344  24.531  28.616   3.306
61577W        W25345  34.986  34.997   2.847
61578W        W25346  36.454  26.039  13.498
61579W        W25347   0.892   3.416  11.878
61580W        W25348  10.306  27.088  12.374
61581W        W25349   0.844  33.551   4.798
61582W        W25350  30.107   3.309  12.919
61583W        W25351  11.339  36.454  14.442
61584W        W25352   2.444  14.206  11.995
61585W        W25353  42.457  13.767   1.916
61586W        W25354  12.784  31.479  11.114
61587W        W25355  34.381  23.157  10.543
61588W        W25356  42.293  25.106  13.915
61589W        W25357  21.659  33.557   1.301
61590W        W25358   3.791  14.781   1.357
61591W        W25359  30.621  14.783   4.298
61592W        W25360  10.224  19.232  14.005
61593W        W25361  13.843  13.747  12.350
61594W        W25362  34.615  17.761  10.523
61595W        W25363  25.218  15.809  12.900
61596W        W25364   6.852  15.755  11.487
61597W        W25365  12.707   6.202   3.792
61598W        W25366  21.577   4.416  11.010
61599W        W25367  39.926  35.995  12.531
61600W        W25368  22.140  37.564   4.725
61601W        W25369  22.624   8.688   1.424
61602W        W25370  34.433  29.539   3.635
61603W        W25371  19.268  16.108  13.838
61604W        W25372  18.109  17.234  13.800
61605W        W25373  41.417  24.092   5.137
61606W        W25374  17.665  17.677  13.484
61607W        W25375  32.462   1.376  14.406
61608W        W25376  16.118  44.904  10.441
61609W        W25377  15.739  23.519  14.935
61610W        W25378  44.461   9.747   3.200
61611W        W25379  43.773  44.910   0.446
61612W        W25380  10.295  36.859  10.932
61613W        W25381   4.240   1.824   1.781
61614W        W25382  19.644  14.612  14.931
61615W        W25383  18.253  39.898   3.635
61616W        W25384   8.866  34.447  14.014
61617W        W25385  17.677   2.469  12.936
61618W        W25386  43.395  42.371   3.802
61619W        W25387  42.021  24.639  11.097
61620W        W25388  19.190  43.785   2.321
61621W        W25389   6.705  29.046   4.695
61622W        W25390   8.180   1.818  12.504
61623W        W25391   6.333  23.734   1.322
61624W        W25392  42.379  35.895   2.362
61625W        W25393  32.935  17.098   0.956
61626W        W25394  40.506   6.820   0.804
61627W        W25395   6.768   8.359   1.832
61628W        W25396   7.193  25.712  10.967
61629W        W25397  18.705  40.928   0.741
61630W        W25398  41.814  26.503   4.143
61631W        W25399  31.604   5.385  14.487
61632W        W25400  42.013  18.714  13.911
61633W        W25401  32.033   7.412  13.934
61634W        W25402  26.587  30.638   1.765
61635W        W25403  15.087  23.532   5.700
61636W        W25404  34.383  16.602   2.359
61637W        W25405  30.038  44.419  11.077
61638W        W25406  31.638  17.781   2.271
61639W        W25407  16.137   3.718   3.197
61640W        W25408  19.237  12.793  13.536
61641W        W25409   1.739  15.281  13.513
61642W        W25410   4.297   4.775   4.731
61643W        W25411  44.773   3.790   2.773
61644W        W25412  34.502  44.436  11.084
61645W        W25413   5.248  28.013  10.998
61646W        W25414  20.565  13.262   2.221
61647W        W25415  14.178   9.786  11.391
61648W        W25416  40.887  14.162   4.299
61649W        W25417  41.956   6.387  11.464
61650W        W25418  21.261  13.800  14.320
61651W        W25419  19.578  10.295  12.341
61652W        W25420  11.845  13.174   0.889
61653W        W25421  34.059  44.991   4.274
61654W        W25422  28.608   4.700   1.280
61655W        W25423   2.944   2.330  14.337
61656W        W25424  42.507  25.139  11.558
61657W        W25425  37.571   7.817  14.418
61658W        W25426  37.005  14.701  12.865
61659W        W25427  11.148  24.635  12.564
61660W        W25428  37.976  38.871  12.455
61661W        W25429  30.414  15.237  14.789
61662W        W25430  43.977  19.051   4.186
61663W        W25431  26.972  42.915  12.552
61664W        W25432  43.865  42.373   3.300
61665W        W25433  35.908  21.079   3.308
61666W        W25434  25.604  31.064  10.460
61667W        W25435   7.338  39.429   3.850
61668W        W25436  28.110  18.106  13.537
61669W        W25437  24.512   9.271  14.851
61670W        W25438  38.405   0.464  12.895
61671W        W25439  12.724  36.902  11.524
61672W        W25440  29.092  42.961  14.426
61673W        W25441   5.270  28.026  10.633
61674W        W25442  20.549  31.958   2.757
61675W        W25443  37.404   2.294  13.354
61676W        W25444   3.730   4.216   0.268
61677W        W25445  11.332  41.489   1.332
61678W        W25446  18.153  23.137   4.608
61679W        W25447  22.536   5.901  11.012
61680W        W25448  41.865  34.043   2.207
61681W        W25449  13.242   5.279  11.566
61682W        W25450   2.849  43.799   4.180
61683W        W25451   5.203  21.063  12.377
61684W        W25452  41.457  33.559  11.399
61685W        W25453  18.635  33.049   4.312
61686W        W25454  36.413   1.357  10.438
61687W        W25455  38.014  11.346   2.365
61688W        W25456  31.621  24.491   1.804
61689W        W25457  38.430  24.564   2.371
61690W        W25458  34.542  24.065   3.168
61691W        W25459  16.093  10.232   4.818
61692W        W25460  23.064  23.544   2.731
61693W        W25461   7.267  28.664   4.792
61694W        W25462  42.334  10.663   3.704
61695W        W25463  25.028  24.652   4.837
61696W        W25464  18.209  28.136   1.366
61697W        W25465  29.462  32.507  14.001
61698W        W25466  16.795  41.864  12.498
61699W        W25467  20.228  17.682   3.277
61700W        W25468  15.107   4.365  11.398
61701W        W25469  16.087  27.088  14.282
61702W        W25470  20.581   0.420  10.511
61703W        W25471  33.915  21.588   1.288
61704W        W25472   7.279  10.383   3.748
61705W        W25473   7.411  22.607  12.026
61706W        W25474  23.507  14.101  11.029
61707W        W25475  16.598   2.401   0.916
61708W        W25476  20.720  44.384   2.181
61709W        W25477  35.417   5.781   4.706
61710W        W25478  32.479  25.152  10.438
61711W        W25479  41.977   0.339  14.763
61712W        W25480  37.936  24.524   0.896
61713W        W25481  20.676  24.717   0.263
61714W        W25482  16.574  40.526   4.723
61715W        W25483  36.922  14.273  13.037
61716W        W25484  21.614  28.178   2.828
61717W        W25485  23.128  42.520  13.508
61718W        W25486  30.585   1.947   3.379
61719W        W25487  25.573   6.414  14.935
61720W        W25488   4.712  24.001   4.335
61721W        W25489  42.430  38.891   4.349
61722W        W25490  43.285   4.394  11.954
61723W        W25491  44.345   9.778   0.338
61724W        W25492  10.252  23.520   4.118
61725W        W25493   6.694  25.157   4.689
61726W        W25494   6.286  16.248  13.960
61727W        W25495  17.298  35.047  12.016
61728W        W25496  41.481  16.126   2.832
61729W        W25497   7.759   2.778   2.418
61730W        W25498  36.841  29.535  12.012
61731W        W25499  31.007  26.031   0.243
61732W        W25500  31.444  11.266  11.116
61733W        W25501  39.493  37.026   2.300
61734W        W25502   4.238  36.943  10.087
61735W        W25503   7.281  20.602   3.370
61736W        W25504  42.502  12.689  10.632
61737W        W25505  12.813  18.724  12.005
61738W        W25506   3.742  17.174   3.791
61739W        W25507   9.805   7.355  12.351
61740W        W25508  17.557  12.641   1.709
61741W        W25509  40.315  10.347   0.925
61742W        W25510  24.119  24.022  14.375
61743W        W25511  42.355   6.231   0.815
61744W        W25512   7.376  15.753   2.409
61745W        W25513  28.462  41.314  13.795
61746W        W25514  21.045  39.379   1.918
61747W        W25515  43.370  43.783  11.878
61748W        W25516  10.344  23.015   4.616
61749W        W25517  34.595   8.817   5.239
61750W        W25518  15.174  38.900  10.918
61751W        W25519  35.889  14.185  11.511
61752W        W25520  28.471  31.138  14.452
61753W        W25521  14.097  35.039   2.778
61754W        W25522  18.563  12.693   3.685
61755W        W25523  35.968  38.375  14.402
61756W        W25524  24.191  13.668  14.893
61757W        W25525  18.774  29.443   2.707
61758W        W25526  37.011  32.519  13.845
61759W        W25527  37.074   9.840  11.001
61760W        W25528  29.593  24.547  11.076
61761W        W25529  17.577  32.476   3.373
61762W        W25530   4.346  20.053   1.259
61763W        W25531  26.496  22.997  14.377
61764W        W25532  10.339  16.682  14.347
61765W        W25533   8.776  25.470   2.240
61766W        W25534  26.046  15.764  14.921
61767W        W25535  39.021  13.629  13.414
61768W        W25536  26.951  18.577   2.232
61769W        W25537   9.379  13.106  10.903
61770W        W25538  13.160  28.447  14.290
61771W        W25539   1.358  40.918   0.742
61772W        W25540  21.177  18.130   3.718
61773W        W25541  13.166   6.734  12.896
61774W        W25542  22.735  13.188  10.007
61775W        W25543  28.455  31.462   2.293
61776W        W25544  11.669  27.956   4.330
61777W        W25545  17.597  13.637   4.335
61778W        W25546  14.715  39.324  14.793
61779W        W25547  43.911  35.996   2.874
61780W        W25548   2.926  42.016   2.774
61781W        W25549  37.952   0.811  14.877
61782W        W25550  22.501  40.003   2.343
61783W        W25551   6.698  18.187   2.790
61784W        W25552  33.532  36.854  10.949
61785W        W25553  26.017  33.481   1.270
61786W        W25554   7.263   0.794   1.310
61787W        W25555   6.417   7.384   4.752
61788W        W25556  22.629  20.208  12.514
61789W        W25557  12.153  13.631   5.692
61790W        W25558  20.764   6.916  13.982
61791W        W25559  14.708   6.365   0.826
61792W        W25560  29.026  27.959   3.806
61793W        W25561  17.783  34.369   0.835
61794W        W25562   2.962  40.449   4.125
61795W        W25563  35.364  41.007   1.834
61796W        W25564  31.487   6.426  12.562
61797W        W25565   3.796  12.171  13.870
61798W        W25566   8.753  43.930  10.436
61799W        W25567  27.962  38.820  10.937
61800W        W25568  18.271   7.779  12.842
61801W        W25569  38.532  25.704   4.638
61802W        W25570  23.573  11.270  13.928
61803W        W25571  10.300   8.678  11.377
61804W        W25572  43.976  15.617  11.599
61805W        W25573  10.777  14.682   0.900
61806W        W25574  20.606  13.230  14.348
61807W        W25575  28.136  43.974   9.948
61808W        W25576  15.768  20.583  10.446
61809W        W25577  18.161  38.551   1.242
61810W        W25578  41.871   6.759   3.340
61811W        W25579  37.026  37.538   0.789
61812W        W25580  39.316  18.062   0.310
61813W        W25581  34.960  24.594   0.336
61814W        W25582   2.892  28.065  10.918
61815W        W25583  12.735  33.599  14.906
61816W        W25584   3.845  36.007   4.338
61817W        W25585  33.117  39.403  14.796
61818W        W25586   9.184  16.613   2.382
61819W        W25587  25.175  31.903  12.897
61820W        W25588  34.544   9.309  12.845
61821W        W25589  28.023  15.162   0.292
61822W        W25590  27.477  38.828  10.464
61823W        W25591  22.551  43.952   2.369
61824W        W25592  10.872  14.306   4.670
61825W        W25593  10.274   2.278   1.902
61826W        W25594  22.124  13.654   4.826
61827W        W25595  29.926   5.692   0.411
61828W        W25596  38.377  24.179   2.316
61829W        W25597   1.254  10.221   0.328
61830W        W25598  28.070  35.101  11.393
61831W        W25599  18.547  19.629   4.265
61832W        W25600   1.377  21.713   2.193
61833W        W25601   5.369  27.136   4.729
61834W        W25602  37.406  33.983  10.557
61835W        W25603  28.092  42.982   2.252
61836W        W25604  34.918  12.186   1.786
61837W        W25605   3.943   8.831   0.961
61838W        W25606   5.223  42.527  14.851
61839W        W25607  33.918  16.239   5.254
61840W        W25608  41.798   2.361   2.901
61841W        W25609  14.266   2.449  10.432
61842W        W25610  33.444   1.906   5.201
61843W        W25611  33.036   9.200   4.663
61844W        W25612  30.644   0.743   4.173
61845W        W25613   8.327   7.841  11.089
61846W        W25614  34.488  42.784   3.246
61847W        W25615  34.551  17.276   0.848
61848W        W25616   7.883   6.388  11.499
61849W        W25617  43.788   3.784  11.438
61850W        W25618  41.480  40.452   1.923
61851W        W25619   9.318  15.084   4.761
61852W        W25620  10.277  26.953   1.260
61853W        W25621   8.725  32.420  14.824
61854W        W25622  27.143  27.968   0.906
61855W        W25623  30.579  22.074   0.300
61856W        W25624   2.282   8.703  10.610
61857W        W25625  26.656  24.074   0.332
61858W        W25626  16.191  34.946  14.421
61859W        W25627  44.912  38.424  10.503
61860W        W25628  14.285  39.064  12.912
61861W        W25629  36.494  10.678   3.769
61862W        W25630  32.401  44.400  12.992
61863W        W25631  10.306  11.144  11.986
61864W        W25632  42.807  21.160   1.398
61865W        W25633   8.866  38.331   2.229
61866W        W25634  38.389  11.752  11.864
61867W        W25635  27.948  37.480  13.352
61868W        W25636   8.784  33.571  11.125
61869W        W25637  12.250  10.651  14.882
61870W        W25638  11.259  41.378  12.054
61871W        W25639   6.379  16.682   0.464
61872W        W25640  16.227   4.822  10.943
61873W        W25641   7.768  23.987   3.821
61874W        W25642   2.295  36.890   4.118
61875W        W25643  12.291  29.570  12.037
61876W        W25644  39.984  34.922  14.979
61877W        W25645  17.181   9.299  11.003
61878W        W25646   7.235  17.681   0.966
61879W        W25647  26.123  31.577  11.613
61880W        W25648  18.286  16.239   2.832
61881W        W25649  10.287  35.955   4.762
61882W        W25650  19.239  11.292   0.307
61883W        W25651  41.858  34.576   2.226
61884W        W25652  25.479  35.101   2.194
61885W        W25653  11.715  29.543  14.853
61886W        W25654  35.995   7.682   0.852
61887W        W25655   0.864  24.672   0.376
61888W        W25656  28.083  32.136   2.838
61889W        W25657   1.802  39.455   2.883
61890W        W25658  30.051  35.366  13.866
61891W        W25659   2.751  24.629   1.298
61892W        W25660  32.499  35.863  14.470
61893W        W25661  20.709   6.693  12.877
61894W        W25662  35.559  18.552  14.792
61895W        W25663   8.277  12.124  11.952
61896W        W25664  32.452  13.218   2.357
61897W        W25665  29.620  41.841   3.840
61898W        W25666  28.085  16.643   2.400
61899W        W25667  10.312  40.429   4.684
61900W        W25668  24.048  22.562  10.625
61901W        W25669  21.624   9.674   2.870
61902W        W25670  12.255  13.832   9.536
61903W        W25671  16.125   7.676  14.326
61904W        W25672  42.359  39.339   2.889
61905W        W25673  40.835  29.610   3.305
61906W        W25674  43.943  25.605  11.103
61907W        W25675  43.509  17.269   0.901
61908W        W25676  34.912   1.854   2.859
61909W        W25677  23.000  20.265   3.383
61910W        W25678  17.753  24.564   3.671
61911W        W25679  24.079  12.290   0.342
61912W        W25680  21.704  12.129   1.798
61913W        W25681  26.571  13.766   4.753
61914W        W25682   8.763   1.922   4.293
61915W        W25683  27.046  26.989   1.717
61916W        W25684  28.127  40.998   4.681
61917W        W25685  37.056  38.074   3.345
61918W        W25686  22.580  37.848  10.892
61919W        W25687  16.579  19.169   3.291
61920W        W25688   4.443  42.951   4.120
61921W        W25689   7.229  41.857  10.431
61922W        W25690  26.073  41.386   1.425
61923W        W25691  10.855  36.028  13.972
61924W        W25692  10.734  12.672   4.332
61925W        W25693  16.110  13.668  14.916
61926W        W25694  21.593   3.397  14.304
61927W        W25695  37.568  16.732   2.412
61928W        W25696  26.660   5.909   4.210
61929W        W25697   3.932  43.882  12.033
61930W        W25698  34.424  34.604   4.608
61931W        W25699  23.600  16.265  12.521
61932W        W25700  36.860   8.867   4.337
61933W        W25701   6.187  27.986  12.560
61934W        W25702   0.355  37.512   3.326
61935W        W25703  36.578  26.120  14.780
61936W        W25704   9.655  11.194   1.908
61937W        W25705  14.255  41.370   2.259
61938W        W25706  22.627  17.719  12.045
61939W        W25707  19.736  23.157   0.465
61940W        W25708  10.324  16.097   2.713
61941W        W25709  33.923  24.021  12.446
61942W        W25710  10.212  29.937  12.487
61943W        W25711  17.680  18.068   1.888
61944W        W25712  24.669  33.128  11.394
61945W        W25713   4.401  43.325  14.929
61946W        W25714  23.515  19.621   0.254
61947W        W25715  35.856  37.052   3.226
61948W        W25716   2.838  43.790  11.012
61949W        W25717  39.338   7.178   4.645
61950W        W25718  38.394  35.067   4.716
61951W        W25719  16.629  40.313  11.069
61952W        W25720  20.172   5.773  12.909
61953W        W25721  26.625   0.454  11.959
61954W        W25722  32.562   3.807  14.819
61955W        W25723  31.022  19.058   4.711
61956W        W25724  43.766   4.888   1.331
61957W        W25725  20.690  28.602  14.018
61958W        W25726  35.420  43.394   4.229
61959W        W25727  36.065   2.933   4.837
61960W        W25728  32.438  44.769  10.425
61961W        W25729  34.550  33.625  13.488
61962W        W25730  22.607   5.325  13.869
61963W        W25731  25.982  33.459   4.606
61964W        W25732  19.543  44.780  14.811
61965W        W25733  18.696  22.137   1.248
61966W        W25734  31.449   6.328   0.419
61967W        W25735   0.876  16.740   2.184
61968W        W25736   2.754  13.665   2.694
61969W        W25737  16.109  41.854   4.331
61970W        W25738  37.867   1.952  11.929
61971W        W25739   7.365  44.259   4.703
61972W        W25740   9.660  26.137   4.685
61973W        W25741  32.989  38.488   2.252
61974W        W25742   2.249  19.711  13.531
61975W        W25743  12.646   0.771  14.472
61976W        W25744  32.946  28.969  10.423
61977W        W25745  10.833  34.964   2.406
61978W        W25746  43.358  36.355  14.772
61979W        W25747  18.699  37.459   2.880
61980W        W25748   5.212  25.031   1.361
61981W        W25749   7.755   9.821  10.579
61982W        W25750  19.635  39.517  11.980
61983W        W25751  29.156   9.213   3.307
61984W        W25752  16.140  35.930  12.880
61985W        W25753  16.110  42.373   1.877
61986W        W25754  44.469  41.315   1.899
61987W        W25755  30.113  20.670  13.806
61988W        W25756  18.237  39.038   2.807
61989W        W25757  24.017  22.730   1.923
61990W        W25758   5.860  32.484   2.850
61991W        W25759  20.218  16.584   4.627
61992W        W25760  32.604   4.913   2.666
61993W        W25761  36.924  29.136  10.017
61994W        W25762  39.424  32.028   3.305
61995W        W25763  27.093  15.209   4.162
61996W        W25764   8.674  27.957   0.798
61997W        W25765   0.899  44.491  14.323
61998W        W25766  22.027  24.517  11.539
61999W        W25767  17.606  22.637   4.290
62000W        W25768   0.907   8.670  11.574
62001W        W25769   9.861  38.037   4.320
62002W        W25770  18.140   3.827   2.310
62003W        W25771  18.106   3.245  11.880
62004W        W25772   5.795  42.876   4.808
62005W        W25773  36.425  22.635   4.232
62006W        W25774  26.117   0.830  10.480
62007W        W25775  24.990   2.796   4.188
62008W        W25776  10.347  37.462  14.433
62009W        W25777   3.355  16.082   3.343
62010W        W25778  44.952  32.052  14.963
62011W        W25779  28.168  36.488  13.541
62012W        W25780   6.189  35.391   4.812
62013W        W25781  12.692  34.448   0.398
62014W        W25782  11.155  20.602   2.752
62015W        W25783  44.765   4.724  13.342
62016W        W25784  39.453  17.608  14.899
62017W        W25785  27.997  41.528   3.255
62018W        W25786  40.379  16.640   4.248
62019W        W25787  19.706   3.394  10.464
62020W        W25788   5.411  20.046  13.915
62021W        W25789  16.146  14.749   2.245
62022W        W25790  18.702  34.433  11.107
62023W        W25791   0.823   4.306  10.621
62024W        W25792  41.534  19.211   3.682
62025W        W25793   9.736   9.804   3.383
62026W        W25794  42.435   6.415   4.184
62027W        W25795  28.152  20.621  14.478
62028W        W25796  28.559  34.036   9.451
62029W        W25797  12.220   9.760   5.309
62030W        W25798  44.331  13.699   2.835
62031W        W25799   3.324  41.852  12.364
62032W        W25800  21.043   5.722   2.858
62033W        W25801  11.373  14.631  14.951
62034W        W25802   5.270  20.645   0.740
62035W        W25803  33.076  23.174   2.669
62036W        W25804  34.564  37.918  14.472
62037W        W25805   9.836  25.690  14.951
62038W        W25806  21.709  27.061   4.777
62039W        W25807  35.600   4.790   1.737
62040W        W25808  42.285  36.077  10.924
62041W        W25809  35.940  44.761   4.148
62042W        W25810  19.563  36.902   1.894
62043W        W25811  11.207  38.541  11.447
62044W        W25812   6.400  25.648   3.674
62045W        W25813  23.145  41.024   4.812
62046W        W25814  11.213  40.349   3.374
62047W        W25815   3.299  34.099  12.569
62048W        W25816  12.785  31.414   2.795
62049W        W25817   9.159  20.637  12.846
62050W        W25818   4.789  44.814  14.480
62051W        W25819  38.522  10.375   1.450
62052W        W25820  28.067  40.368  13.517
62053W        W25821  14.206   2.815   2.302
62054W        W25822  12.226   3.430   2.893
62055W        W25823   9.351  25.549  12.445
62056W        W25824  31.932  32.549  12.578
62057W        W25825  33.882  37.957   4.703
62058W        W25826  44.424   3.332   4.649
62059W        W25827  34.478   1.399  14.001
62060W        W25828  19.676  35.361   4.791
62061W        W25829  39.058  37.990   2.384
62062W        W25830  11.785   7.208   1.811
62063W        W25831  37.563  36.927   3.268
62064W        W25832  22.601  16.698   2.731
62065W        W25833  13.650  26.663   2.346
62066W        W25834  20.185  24.994  12.089
62067W        W25835  38.325   0.333   2.404
62068W        W25836  36.403   4.856   0.289
62069W        W25837  35.108  17.089   1.265
62070W        W25838  34.586  40.911  11.441
62071W        W25839  34.875  31.629   2.840
62072W        W25840  38.977  33.059  11.061
62073W        W25841  13.825  40.818   3.265
62074W        W25842   9.281  42.778   1.341
62075W        W25843  32.623  34.947   0.957
62076W        W25844  25.552  10.774   5.157
62077W        W25845   6.728  40.502   2.848
62078W        W25846   5.406  29.975  12.092
62079W        W25847  12.343  43.346   2.377
62080W        W25848  38.484   1.305  11.105
62081W        W25849  44.807  10.633  13.429
62082W        W25850  31.439  11.192   1.249
62083W        W25851  17.777  23.117   0.297
62084W        W25852  13.831  15.621  12.373
62085W        W25853  14.296  27.159  12.032
62086W        W25854  43.358   9.203   0.892
62087W        W25855  22.690  39.326  13.872
62088W        W25856  22.245  12.362  12.010
62089W        W25857   2.409  36.591   0.321
62090W        W25858  14.685   3.302  14.359
62091W        W25859  18.591  41.316   4.833
62092W        W25860  12.351  37.380   0.386
62093W        W25861  11.155  26.467  12.991
62094W        W25862  18.212  21.662   0.857
62095W        W25863   5.812   6.708   4.253
62096W        W25864  15.740   5.404  11.490
62097W        W25865  29.437   2.372   0.802
62098W        W25866   3.265  17.643   0.860
62099W        W25867  24.008  30.124   0.362
62100W        W25868  40.838  29.954  14.506
62101W        W25869  10.653  13.717  13.975
62102W        W25870   3.222   4.448   1.935
62103W        W25871   4.448  14.134   4.343
62104W        W25872  10.141   2.919  10.423
62105W        W25873  10.673   7.327  13.530
62106W        W25874  37.906  28.018  11.093
62107W        W25875   4.774  33.913  14.363
62108W        W25876  33.572  31.492   4.602
62109W        W25877   7.760  23.990   0.890
62110W        W25878  16.670  38.475   1.781
62111W        W25879  24.641  20.078  13.946
62112W        W25880  30.557  35.492   0.943
62113W        W25881  40.947  22.098  11.906
62114W        W25882  32.632  31.014   1.261
62115W        W25883  33.599  18.554   3.295
62116W        W25884  13.629   1.311   1.728
62117W        W25885   7.878  36.981   0.283
62118W        W25886  21.522  18.234   4.217
62119W        W25887   8.792   2.365  13.838
62120W        W25888  31.415  34.524   2.319
62121W        W25889  34.074  39.499  13.482
62122W        W25890  42.953  14.166   1.697
62123W        W25891  11.802  20.274   2.252
62124W        W25892   3.222   0.828   3.170
62125W        W25893  11.805   1.292   2.323
62126W        W25894  43.380  32.059  12.441
62127W        W25895  26.151   4.447  12.547
62128W        W25896  29.964   3.744   1.776
62129W        W25897  26.585   6.305   3.285
62130W        W25898  44.479  21.228  10.941
62131W        W25899  22.040   7.707   1.910
62132W        W25900  15.699  30.970   2.746
62133W        W25901  37.069  20.154   4.617
62134W        W25902  10.191  15.272  11.932
62135W        W25903  20.132  39.334   3.711
62136W        W25904  43.405  41.371   2.264
62137W        W25905   5.276  10.305   0.749
62138W        W25906  12.831  28.169   1.432
62139W        W25907   3.881  31.926  13.378
62140W        W25908  22.206  28.436  10.609
62141W        W25909  15.269   3.738   4.609
62142W        W25910   6.303   8.713   1.316
62143W        W25911  26.181  43.337   4.769
62144W        W25912  29.524  34.897  13.344
62145W        W25913   4.923   1.429  12.834
62146W        W25914  43.511   4.383  11.524
62147W        W25915   9.880  22.009  12.383
62148W        W25916  21.196  36.857   2.363
62149W        W25917  27.478  43.873   4.290
62150W        W25918  12.775   1.374  11.091
62151W        W25919  16.761   5.419   1.216
62152W        W25920  14.802  28.992   2.193
62153W        W25921  10.246  26.130  12.998
62154W        W25922  19.770  29.171   0.327
62155W        W25923  27.461  40.857  12.000
62156W        W25924   7.883  30.514   3.354
62157W        W25925  30.089  12.180  10.463
62158W        W25926  34.602  15.221  13.377
62159W        W25927  24.490  32.917   0.340
62160W        W25928  23.580  40.988   3.183
62161W        W25929  41.390  29.657  14.831
62162W        W25930  24.209   9.293   4.129
62163W        W25931   5.273   8.854  14.881
62164W        W25932   9.216  17.069   1.795
62165W        W25933   2.340  38.967  10.549
62166W        W25934  38.967  27.493   5.601
62167W        W25935  26.095  33.583   0.794
62168W        W25936  12.306  20.551   0.427
62169W        W25937   3.761  18.167  12.009
62170W        W25938  39.394  27.165  13.055
62171W        W25939  36.000  28.531  12.569
62172W        W25940  35.854   0.809  10.929
62173W        W25941  12.207  14.684   1.252
62174W        W25942  31.114  19.283  11.409
62175W        W25943  28.607  21.746   2.879
62176W        W25944  11.655  41.023  12.406
62177W        W25945  10.652  28.624   0.964
62178W        W25946  20.682  19.772   4.657
62179W        W25947  31.587  19.712   0.295
62180W        W25948  27.572  36.404  12.935
62181W        W25949  36.501  24.502   1.926
62182W        W25950  32.632   5.359   3.363
62183W        W25951  33.886  21.649  12.087
62184W        W25952  38.924   6.363  10.406
62185W        W25953  28.597  23.718  12.580
62186W        W25954   1.396  43.798   3.637
62187W        W25955  33.054   8.709  12.441
62188W        W25956  26.123   2.861  13.050
62189W        W25957  20.524  13.674  12.443
62190W        W25958   1.924   5.380   3.329
62191W        W25959  28.037  36.532  14.020
62192W        W25960  18.221  11.180   2.316
62193W        W25961  33.536  29.656   1.862
62194W        W25962  29.425  42.406   4.698
62195W        W25963  38.939  34.434  13.822
62196W        W25964  27.182   9.863   4.342
62197W        W25965  14.642  26.090  12.412
62198W        W25966  22.089  41.380   1.788
62199W        W25967  40.827  31.018   2.312
62200W        W25968  28.549   6.352  13.883
62201W        W25969   1.340  32.430   1.836
62202W        W25970  33.101  28.018  14.462
62203W        W25971  33.425   6.816  11.043
62204W        W25972  32.397  32.429   1.925
62205W        W25973   8.209  44.759  11.523
62206W        W25974  26.036  17.273  11.932
62207W        W25975   6.683  30.995  13.517
62208W        W25976   1.958  22.707   3.856
62209W        W25977   8.890  26.571   1.314
62210W        W25978  36.530   0.850   0.929
62211W        W25979  23.528  34.465   3.163
62212W        W25980  13.703   2.922   1.305
62213W        W25981  35.365  19.234  12.919
62214W        W25982  38.965   5.768  10.476
62215W        W25983  18.699  35.966  14.993
62216W        W25984  35.976  17.066   3.237
62217W        W25985  23.008  16.608  13.949
62218W        W25986   0.967  17.107   3.737
62219W        W25987   4.389  19.553  13.357
62220W        W25988  23.204  12.313   9.508
62221W        W25989   4.794  39.862   1.338
62222W        W25990  35.051  12.720   2.239
62223W        W25991  29.641  34.911   2.889
62224W        W25992  23.637  31.114  11.401
62225W        W25993  37.064  28.087  10.481
62226W        W25994  29.572  27.659  12.523
62227W        W25995  26.657  40.365  12.446
62228W        W25996  29.161  24.081  14.451
62229W        W25997  39.028  29.498   3.664
62230W        W25998  40.831  27.673  10.552
62231W        W25999  32.545  20.232   0.872
62232W        W26000   3.413   1.947   0.464
62233W        W26001   4.702  27.529   4.805
62234W        W26002  10.331  31.554   4.149
62235W        W26003   0.372  22.221  14.303
62236W        W26004  18.700   0.888  12.881
62237W        W26005  21.750  38.065   2.352
62238W        W26006   3.736  12.300  11.597
62239W        W26007  39.391  15.246   3.737
62240W        W26008  42.803  27.463   3.782
62241W        W26009  25.698  26.979   0.332
62242W        W26010   9.305  27.456   4.836
62243W        W26011  31.564  17.590  14.869
62244W        W26012  29.528  41.510   4.645
62245W        W26013  15.158   7.737  13.498
62246W        W26014  15.688  18.173   1.910
62247W        W26015  25.678  12.238   1.337
62248W        W26016  37.905  29.047  13.429
62249W        W26017   5.268  41.313  11.909
62250W        W26018  30.427  10.318   2.372
62251W        W26019   3.898  12.855  10.090
62252W        W26020   1.483  21.263  14.924
62253W        W26021  25.218  17.650   2.187
62254W        W26022  28.149  31.534   0.368
62255W        W26023  25.149   0.353  12.470
62256W        W26024   1.944  28.482  13.372
62257W        W26025  19.687  34.485   2.802
62258W        W26026  22.076  29.494  12.456
62259W        W26027  40.006  21.017  14.031
62260W        W26028  38.461  27.451   5.788
62261W        W26029  14.224  38.521   3.383
62262W        W26030  35.032   7.313  11.379
62263W        W26031  30.132  34.370   1.872
62264W        W26032  16.750  40.344  14.471
62265W        W26033  19.265  31.418  14.859
62266W        W26034  27.581  32.583   2.711
62267W        W26035   8.323   6.275  11.121
62268W        W26036  21.578   4.740   3.192
62269W        W26037  44.457  42.858   5.134
62270W        W26038  36.525  29.047   1.796
62271W        W26039   5.824  18.213   4.819
62272W        W26040  10.826   5.747  13.523
62273W        W26041  32.896  12.742  14.879
62274W        W26042  23.986  14.248   0.959
62275W        W26043  36.887  11.225   1.311
62276W        W26044  30.953  40.469  11.115
62277W        W26045   5.689  23.633  12.986
62278W        W26046  15.324  40.825  10.949
62279W        W26047  28.084  30.003  12.458
62280W        W26048  26.071  20.649  14.963
62281W        W26049  28.545   6.837  11.085
62282W        W26050  10.852  38.859   0.280
62283W        W26051   6.701  43.448  10.635
62284W        W26052  10.713  22.072   3.234
62285W        W26053  13.143  19.770  14.498
62286W        W26054  10.184  14.773   1.238
62287W        W26055  33.982  38.399   2.306
62288W        W26056  43.317   5.924   1.902
62289W        W26057  21.700   5.738   3.304
62290W        W26058  19.167   1.421  14.339
62291W        W26059  24.631  38.541  11.959
62292W        W26060  14.633  12.845   2.362
62293W        W26061  31.580  33.582  14.455
62294W        W26062  41.399  22.077  12.895
62295W        W26063   4.808  43.433  12.050
62296W        W26064  13.731  12.347   1.390
62297W        W26065  40.026  24.548   2.865
62298W        W26066  28.543  27.991   0.412
62299W        W26067  17.801  10.145  12.475
62300W        W26068   8.251  13.641  14.803
62301W        W26069   1.386  42.341   0.825
62302W        W26070  25.198  42.791  12.970
62303W        W26071  40.879  26.581  12.506
62304W        W26072   1.740   5.404  10.511
62305W        W26073  27.562  24.674  13.540
62306W        W26074  26.642  34.479   4.127
62307W        W26075  37.958  31.023  13.545
62308W        W26076  27.564  42.374  12.423
62309W        W26077  22.653  43.013   4.699
62310W        W26078  16.084  13.691   2.689
62311W        W26079  20.736  34.408   0.389
62312W        W26080  17.255  38.017   1.247
62313W        W26081   7.347  37.883   2.843
62314W        W26082  40.887  14.095  12.344
62315W        W26083  16.760  11.828  14.408
62316W        W26084  41.993  10.186   4.182
62317W        W26085  11.234  13.232   5.217
62318W        W26086  29.458  18.731   0.463
62319W        W26087  18.242  29.643   4.124
62320W        W26088  35.870  37.371   4.708
62321W        W26089  28.674  26.199  10.911
62322W        W26090  22.235  31.489   1.766
62323W        W26091  19.254   7.865  13.853
62324W        W26092  38.485  40.962   1.730
62325W        W26093  41.041  16.614  11.965
62326W        W26094  26.557  40.835  11.936
62327W        W26095  29.512   6.398  14.957
62328W        W26096  28.624   5.926   1.380
62329W        W26097   5.806  28.629   4.778
62330W        W26098  17.127  39.880   2.418
62331W        W26099  26.600  14.653   3.354
62332W        W26100   2.470  23.220  10.588
62333W        W26101  15.591  17.260   0.889
62334W        W26102  17.663  10.833   2.809
62335W        W26103   4.843  10.306   1.844
62336W        W26104   4.308  44.467  11.427
62337W        W26105   9.872  12.779  10.465
62338W        W26106  14.284  24.558  11.971
62339W        W26107  29.563  20.175   0.303
62340W        W26108  34.410  29.608   4.824
62341W        W26109   4.881  41.863  13.934
62342W        W26110  15.607  33.985  10.501
62343W        W26111  36.846   0.781   0.866
62344W        W26112   1.304   8.721   2.698
62345W        W26113  37.355  13.192   5.164
62346W        W26114  33.593   2.442  13.353
62347W        W26115  32.919  13.269   4.702
62348W        W26116   7.805  12.818   9.965
62349W        W26117   9.867  14.209  14.510
62350W        W26118   5.924  32.419   2.307
62351W        W26119   4.288  10.157  13.942
62352W        W26120  42.301   7.745  14.463
62353W        W26121  21.120  41.457  10.467
62354W        W26122   1.855  21.193  11.420
62355W        W26123  26.629  16.123  14.313
62356W        W26124  27.691  15.184  11.882
62357W        W26125  10.764  15.185  13.895
62358W        W26126   1.922  19.231   2.315
62359W        W26127  18.131   4.755  12.500
62360W        W26128  40.847  38.052  10.566
62361W        W26129  41.898   0.965  11.961
62362W        W26130  14.145   5.816  10.460
62363W        W26131  40.366  15.099  12.538
62364W        W26132  33.106  32.981  13.962
62365W        W26133  22.531  36.388   2.791
62366W        W26134  36.585   6.822   1.413
62367W        W26135   9.653   3.223   2.678
62368W        W26136  40.540  26.004   4.281
62369W        W26137   4.890  31.504   1.282
62370W        W26138  21.542  15.760   0.961
62371W        W26139  15.709  16.231   0.872
62372W        W26140  32.590  27.504  14.025
62373W        W26141  24.605  26.488  13.329
62374W        W26142  36.092   7.215  14.374
62375W        W26143   6.218  22.658   3.190
62376W        W26144  44.755  37.392   2.816
62377W        W26145   9.653  10.794   3.353
62378W        W26146  35.587  22.715  13.839
62379W        W26147  20.093  29.046  13.986
62380W        W26148  31.981   5.823   4.620
62381W        W26149  11.727   2.234   0.373
62382W        W26150  41.896  16.670   3.321
62383W        W26151  42.317  21.513   0.861
62384W        W26152  31.089  26.668  13.457
62385W        W26153  33.908   7.366   1.855
62386W        W26154  44.839  15.698   4.663
62387W        W26155  27.959   9.873   1.299
62388W        W26156   2.842  41.426   3.205
62389W        W26157  43.947  39.046   1.348
62390W        W26158   4.302  26.456  13.866
62391W        W26159  40.969   2.447   2.371
62392W        W26160  15.714  31.463  13.331
62393W        W26161  30.071  23.151   4.637
62394W        W26162  38.898  26.514  12.941
62395W        W26163  31.584  16.722   2.341
62396W        W26164  31.599  41.373   4.290
62397W        W26165   7.184   7.359   1.379
62398W        W26166  39.025  33.996   4.334
62399W        W26167   4.334   2.781   2.716
62400W        W26168  12.634  42.906  12.547
62401W        W26169   4.244   4.264   4.785
62402W        W26170  20.192  17.688   4.211
62403W        W26171  22.671  16.692   0.354
62404W        W26172   3.762  11.674  10.958
62405W        W26173  20.070  37.407   3.238
62406W        W26174   2.849  22.035   1.723
62407W        W26175  44.455  14.699   1.398
62408W        W26176  12.316  16.306   0.881
62409W        W26177   8.702  38.417  14.764
62410W        W26178  16.074  34.046  12.572
62411W        W26179  38.845  11.200  13.878
62412W        W26180  21.088   2.340  10.424
62413W        W26181  44.955  36.401   2.704
62414W        W26182  38.905  38.555  10.017
62415W        W26183  38.966  43.513  12.543
62416W        W26184  18.248  12.314  13.400
62417W        W26185  19.734   9.276   2.308
62418W        W26186  28.593  21.137   3.653
62419W        W26187  35.565  32.948  11.101
62420W        W26188  35.943  16.712   1.798
62421W        W26189  42.329   5.360  12.993
62422W        W26190  13.216  34.922  13.984
62423W        W26191  44.421  17.797  10.505
62424W        W26192  40.362  41.414   5.157
62425W        W26193  44.364  27.000  14.500
62426W        W26194  28.125  10.262   2.853
62427W        W26195   8.711   0.264  10.633
62428W        W26196  27.629  37.070   3.666
62429W        W26197  10.260  21.112   2.667
62430W        W26198  27.948  33.060  13.982
62431W        W26199  11.722  37.943  11.582
62432W        W26200   7.865  28.175   4.626
62433W        W26201  34.399  14.717  12.942
62434W        W26202  11.696  12.325   0.473
62435W        W26203  29.521  24.655   3.749
62436W        W26204  28.475   5.840  14.467
62437W        W26205  38.483   1.896  13.322
62438W        W26206  19.057   4.755   0.833
62439W        W26207   9.209  34.106   4.715
62440W        W26208   7.756  31.961   4.809
62441W        W26209  39.044   0.831   4.284
62442W        W26210  34.475   1.255   2.278
62443W        W26211  40.354  35.897   2.263
62444W        W26212  20.526   7.417  13.375
62445W        W26213  15.763  27.470  12.013
62446W        W26214  43.004  15.716  12.866
62447W        W26215  30.965  33.903   1.700
62448W        W26216   2.750  18.651   3.756
62449W        W26217  37.864   8.724   4.217
62450W        W26218  31.445  32.441   1.350
62451W        W26219   6.250  33.030   3.816
62452W        W26220  21.030  27.660  11.469
62453W        W26221  12.246   9.222  13.978
62454W        W26222   5.397   0.340  11.598
62455W        W26223  44.341  12.284   1.760
62456W        W26224  38.932  24.595  12.350
62457W        W26225   3.827  40.363   1.794
62458W        W26226  37.483   5.749  14.417
62459W        W26227  22.206   0.913  10.929
62460W        W26228  44.905   8.719  10.912
62461W        W26229  38.973  21.104   5.242
62462W        W26230  38.958  32.519  14.331
62463W        W26231   4.894  19.644  11.034
62464W        W26232  30.584  42.287  13.949
62465W        W26233  44.900   9.715   2.341
62466W        W26234  18.114   3.315   1.326
62467W        W26235  38.865  32.506   4.730
62468W        W26236   6.854   1.372   2.386
62469W        W26237  26.663  19.724  11.861
62470W        W26238  19.740  26.100  12.343
62471W        W26239  15.303  32.098   1.409
62472W        W26240   6.712   5.800   1.326
62473W        W26241  12.700  44.920  13.984
62474W        W26242   2.252  25.707  12.909
62475W        W26243   2.882  39.321  10.431
62476W        W26244  37.940  21.099  11.994
62477W        W26245  29.054  12.150   0.318
62478W        W26246  32.896  44.823  10.435
62479W        W26247  17.252  42.889  13.829
62480W        W26248   3.755  23.515   4.319
62481W        W26249   9.371   0.974   1.347
62482W        W26250  23.610   1.809   1.723
62483W        W26251  20.724  26.523  12.386
62484W        W26252  25.519   4.351  10.974
62485W        W26253  35.010  26.177   1.223
62486W        W26254  32.618  31.957   1.898
62487W        W26255  38.389  16.180  13.321
62488W        W26256  36.910  35.371   0.753
62489W        W26257  19.239  13.332  10.934
62490W        W26258  26.094  38.488  10.576
62491W        W26259  28.089   3.358  11.030
62492W        W26260  27.087  33.511  13.513
62493W        W26261  16.112  19.595  11.095
62494W        W26262  40.049  11.154   1.347
62495W        W26263   3.889  34.391   9.967
62496W        W26264  18.187  31.126   1.921
62497W        W26265  28.498  33.501   4.161
62498W        W26266  29.661  17.143  11.546
62499W        W26267  24.173  29.526   2.208
62500W        W26268  21.155  24.530  14.015
62501W        W26269   1.315  34.974   0.889
62502W        W26270  21.059  25.010  14.284
62503W        W26271  21.627  24.664  11.043
62504W        W26272   0.432   8.200  10.526
62505W        W26273  22.180   4.265  12.994
62506W        W26274  10.381  34.405  13.494
62507W        W26275  11.774  14.313   9.933
62508W        W26276  35.456   8.812   2.390
62509W        W26277  14.791   7.364  12.498
62510W        W26278  18.237  31.503   5.647
62511W        W26279  11.311  23.615  12.964
62512W        W26280  36.887  43.463   1.822
62513W        W26281  42.525  44.434  12.056
62514W        W26282  11.815  29.059   2.395
62515W        W26283  31.091  29.457   1.781
62516W        W26284  31.914  42.307   4.336
62517W        W26285  28.984  29.635  12.992
62518W        W26286  32.044  43.300   1.804
62519W        W26287  34.079  13.716   3.271
62520W        W26288  26.128  16.672  12.450
62521W        W26289  10.653  36.485  10.645
62522W        W26290  39.844  43.808  12.364
62523W        W26291  42.789  31.521   1.715
62524W        W26292  26.165   3.268  12.415
62525W        W26293  40.366  19.777   5.292
62526W        W26294  34.907  28.514  10.923
62527W        W26295  36.587   2.938  11.113
62528W        W26296   5.410   8.828  11.952
62529W        W26297  33.962  44.286   1.221
62530W        W26298  38.036  41.300  11.530
62531W        W26299   1.431  43.343   0.823
62532W        W26300  44.878   3.839  10.631
62533W        W26301  25.134  29.581   5.323
62534W        W26302  23.663  15.772  12.077
62535W        W26303  39.397  35.573   0.889
62536W        W26304  37.446  17.599   3.297
62537W        W26305  39.958  37.381   3.702
62538W        W26306   8.203   8.871  12.866
62539W        W26307  44.786  20.703  12.048
62540W        W26308  15.652  33.526   4.308
62541W        W26309  41.492  14.148   2.178
62542W        W26310   6.796  24.105  11.380
62543W        W26311  10.863  36.369  13.012
62544W        W26312  11.719  16.567   4.133
62545W        W26313  19.115  17.637  10.534
62546W        W26314  19.631  24.204   0.957
62547W        W26315  22.178  25.200  11.459
62548W        W26316  21.715  44.325  12.400
62549W        W26317  32.046  20.111  12.911
62550W        W26318  12.292  20.758   4.268
62551W        W26319  22.186  38.567  12.931
62552W        W26320  26.595  23.498   4.598
62553W        W26321   2.274  44.425  13.897
62554W        W26322  34.429  40.424   1.694
62555W        W26323  22.669  44.829   3.755
62556W        W26324  30.916  26.154   1.309
62557W        W26325  32.535  25.476  14.296
62558W        W26326  28.973  15.266  12.039
62559W        W26327  12.262  34.556  11.971
62560W        W26328  32.106  16.227  13.869
62561W        W26329  29.111  25.488  13.052
62562W        W26330  14.099  30.548  13.932
62563W        W26331  42.959  16.255  14.312
62564W        W26332  28.158  10.333  12.056
62565W        W26333  44.310   2.417   4.678
62566W        W26334  34.604  38.954   3.164
62567W        W26335  35.034   5.259  12.576
62568W        W26336  21.118  18.237  10.575
62569W        W26337   8.236   4.395   4.839
62570W        W26338  16.150  29.056   2.741
62571W        W26339  11.788  22.721  13.395
62572W        W26340  31.500  37.512   3.346
62573W        W26341  36.032   2.253   3.759
62574W        W26342  40.876   2.864  13.332
62575W        W26343  18.232  28.134  10.510
62576W        W26344  21.069  17.131   4.727
62577W        W26345  16.768  33.883  12.997
62578W        W26346  20.672  30.031  14.440
62579W        W26347  38.508  40.532   2.825
62580W        W26348  29.957  43.495  12.854
62581W        W26349  39.420  41.336   4.754
62582W        W26350  44.979  36.894   0.435
62583W        W26351  25.162   9.857  13.797
62584W        W26352  17.261  34.531  14.855
62585W        W26353  25.493   8.868   1.236
62586W        W26354   2.965  22.560   3.796
62587W        W26355  27.055  20.071   2.852
62588W        W26356  36.058  28.969  14.796
62589W        W26357   7.272  30.952  10.492
62590W        W26358  12.328   8.269  10.953
62591W        W26359  18.176  32.448   4.122
62592W        W26360  30.535  24.994   2.346
62593W        W26361  31.896   4.863  13.931
62594W        W26362  38.482   5.720   3.747
62595W        W26363  30.993  22.548   4.222
62596W        W26364  20.038   0.897   5.319
62597W        W26365   7.288  16.258  11.394
62598W        W26366  24.207  31.648   4.812
62599W        W26367  38.525  35.954  13.447
62600W        W26368  30.605  22.674   4.767
62601W        W26369  13.737  12.721  12.049
62602W        W26370   0.988  15.718  10.428
62603W        W26371  10.856  24.000  10.481
62604W        W26372  22.214  21.040   0.418
62605W        W26373  34.389   7.827  11.103
62606W        W26374   3.412  28.991  12.420
62607W        W26375  18.676  19.535   3.250
62608W        W26376   9.296   9.305  10.448
62609W        W26377  19.267   6.873  12.533
62610W        W26378  41.970  35.885   5.302
62611W        W26379  28.539  25.023  14.315
62612W        W26380  33.878   9.773   4.780
62613W        W26381  17.306  25.219   4.330
62614W        W26382  36.961  10.783   1.244
62615W        W26383   6.838  31.996  12.081
62616W        W26384  40.402   0.425  11.870
62617W        W26385  13.637  10.845   5.295
62618W        W26386  44.484   8.283  13.039
62619W        W26387  44.978  10.282   3.284
62620W        W26388  14.126  36.375  13.796
62621W        W26389  39.415  11.234  14.492
62622W        W26390   2.907   7.360   0.931
62623W        W26391  31.411   5.287   2.304
62624W        W26392  27.995  17.764  13.472
62625W        W26393  43.803   4.396  14.848
62626W        W26394  44.772  32.410  10.638
62627W        W26395   4.820   0.379   4.625
62628W        W26396  12.275   9.880   2.230
62629W        W26397  10.140  14.747  13.412
62630W        W26398   0.890  40.860  10.512
62631W        W26399  44.439   3.885   0.429
62632W        W26400   5.726  30.968   0.839
62633W        W26401   6.251  18.613  14.491
62634W        W26402   2.918  28.578  13.396
62635W        W26403  37.445  20.615   3.836
62636W        W26404   5.694  25.165   3.640
62637W        W26405  20.029   8.242   0.858
62638W        W26406  43.311  29.924  14.808
62639W        W26407  35.474   9.179   2.288
62640W        W26408  21.673  43.960   0.908
62641W        W26409  13.287  28.639  10.999
62642W        W26410  24.516  10.789  14.479
62643W        W26411  34.371  25.695  11.424
62644W        W26412  34.944  20.640   1.435
62645W        W26413   3.285   0.299  12.445
62646W        W26414  26.073   1.861  11.472
62647W        W26415  38.036  36.455  11.001
62648W        W26416  16.213  23.522   4.298
62649W        W26417  21.250  38.849   3.180
62650W        W26418   3.812  35.990  14.296
62651W        W26419  39.876  25.167   1.294
62652W        W26420  44.798  15.587   0.728
62653W        W26421  14.710  17.562  11.445
62654W        W26422  39.822  29.556   1.741
62655W        W26423  37.442  44.322   4.716
62656W        W26424  18.639  19.212  13.810
62657W        W26425  16.624  38.933  12.004
62658W        W26426  25.986   3.907   0.860
62659W        W26427   6.418  12.665   2.708
62660W        W26428   2.458  27.196   0.436
62661W        W26429  31.988  20.186   3.840
62662W        W26430   4.918   8.682   0.918
62663W        W26431  44.779   7.360  14.409
62664W        W26432  44.301  38.943   1.836
62665W        W26433  42.345  38.493  13.822
62666W        W26434  11.680  36.937  13.940
62667W        W26435  44.836  15.172   1.858
62668W        W26436  20.251   0.826   3.221
62669W        W26437  32.436  29.002  11.566
62670W        W26438  27.030  23.045   1.360
62671W        W26439  44.503  43.399  11.111
62672W        W26440  17.090  32.499   0.745
62673W        W26441  20.555   0.865  12.963
62674W        W26442  34.092   3.398   0.890
62675W        W26443  29.632  25.161   9.925
62676W        W26444  27.969  44.987  10.950
62677W        W26445  12.815  15.234   4.703
62678W        W26446   6.917  30.545  11.871
62679W        W26447  15.639  33.091  11.519
62680W        W26448  23.193   9.300  13.801
62681W        W26449  42.856   3.891  13.388
62682W        W26450  26.552  34.542   3.224
62683W        W26451   1.802  18.617  11.451
62684W        W26452   3.925   0.254  12.957
62685W        W26453  18.123  14.339  13.533
62686W        W26454   8.248  44.934  12.470
62687W        W26455  23.197  39.401  12.487
62688W        W26456  19.747  32.478   2.780
62689W        W26457  21.555   8.349  11.085
62690W        W26458  23.094  25.553  14.793
62691W        W26459  32.093  12.828   4.290
62692W        W26460  35.926  22.246   0.809
62693W        W26461   0.281   9.200  12.930
62694W        W26462   8.296  14.119  11.591
62695W        W26463  22.632  22.678  11.047
62696W        W26464  25.698  16.724   0.885
62697W        W26465  26.032  24.172   4.690
62698W        W26466  19.166  42.864   4.327
62699W        W26467  13.299  39.952   3.277
62700W        W26468  10.810   9.169  13.950
62701W        W26469  24.717  31.099   4.215
62702W        W26470  26.173  20.189   1.843
62703W        W26471   9.178   3.877   2.805
62704W        W26472   2.355   3.359   0.958
62705W        W26473  23.713   0.458  14.290
62706W        W26474  42.784  39.532   0.908
62707W        W26475  21.201  27.510  14.347
62708W        W26476  19.744  14.282  14.982
62709W        W26477  21.143  41.359  14.946
62710W        W26478  22.512  13.168   3.163
62711W        W26479  37.879   5.347   5.268
62712W        W26480  33.107  15.765  10.480
62713W        W26481  40.541  41.446   2.208
62714W        W26482   3.850  40.996   2.257
62715W        W26483  14.732  33.932  12.866
62716W        W26484  29.970  14.154  11.485
62717W        W26485   0.352  42.468   0.373
62718W        W26486  22.059  37.877   1.764
62719W        W26487  35.543  13.218  12.051
62720W        W26488  33.043  42.402  14.856
62721W        W26489  28.938   1.869   2.328
62722W        W26490  25.164  25.195  12.948
62723W        W26491  12.736  18.705   3.799
62724W        W26492  29.072  33.437   0.748
62725W        W26493   8.717  18.577  11.454
62726W        W26494   3.803  39.342   4.259
62727W        W26495  31.637  21.520  14.505
62728W        W26496  44.820  33.896  12.490
62729W        W26497  25.662  22.200   3.707
62730W        W26498  20.629  21.236  11.996
62731W        W26499  44.403  32.900  12.933
62732W        W26500  21.141  41.812   2.248
62733W        W26501  37.901  34.000   2.406
62734W        W26502  17.701  35.386  13.985
62735W        W26503  19.066  34.992  11.861
62736W        W26504  40.396  13.183   3.838
62737W        W26505  35.877  39.488   0.956
62738W        W26506  44.829  26.095   4.289
62739W        W26507  41.348   5.874   2.351
62740W        W26508   9.341  12.797  13.314
62741W        W26509   5.895  12.163   1.256
62742W        W26510   4.375   6.734  14.984
62743W        W26511  12.258  12.680   3.350
62744W        W26512  10.375   7.766  10.503
62745W        W26513  33.903  27.060  11.050
62746W        W26514   9.285  29.545   4.670
62747W        W26515  40.803  19.674   4.238
62748W        W26516  16.753  18.264   5.134
62749W        W26517  33.939  15.236   0.404
62750W        W26518  14.686  41.507   0.889
62751W        W26519  25.624  26.049  12.089
62752W        W26520  28.435  10.829  14.958
62753W        W26521   9.259  18.592   1.826
62754W        W26522  35.378  19.727   4.683
62755W        W26523  32.487  15.133   3.688
62756W        W26524  39.001  29.431  12.934
62757W        W26525  43.801   1.379   0.897
62758W        W26526  40.547   6.211  13.992
62759W        W26527  10.278  34.377   4.745
62760W        W26528  38.517  41.449   3.833
62761W        W26529  35.517  41.413   2.767
62762W        W26530  38.900  39.331   4.198
62763W        W26531  24.690  34.931  14.930
62764W        W26532   7.900  38.915   0.821
62765W        W26533  22.639   8.164  13.505
62766W        W26534   9.169  37.884  13.902
62767W        W26535  12.808  15.208  14.937
62768W        W26536  25.005  27.151   4.285
62769W        W26537   8.807  37.521  13.801
62770W        W26538  23.561  10.339   0.948
62771W        W26539  44.397  35.008  11.612
62772W        W26540  24.705   4.213  13.337
62773W        W26541  43.335  20.630  13.933
62774W        W26542  25.986  18.789  14.351
62775W        W26543  34.457   3.269   3.717
62776W        W26544  10.223  18.583  11.858
62777W        W26545  10.158   6.342  11.055
62778W        W26546  10.272  28.645  10.601
62779W        W26547  42.434  44.433  13.903
62780W        W26548  35.459  19.548   3.347
62781W        W26549   1.889  26.561  12.039
62782W        W26550  29.592   9.261   4.754
62783W        W26551  42.903   4.902   1.329
62784W        W26552  27.660  43.319   0.889
62785W        W26553  33.602   6.680   4.800
62786W        W26554  35.453  17.252   9.961
62787W        W26555  34.100   5.727   2.178
62788W        W26556  18.594  10.235  10.604
62789W        W26557  26.662  44.413   3.219
62790W        W26558  24.220   0.425   2.746
62791W        W26559  28.599  23.219   4.145
62792W        W26560  17.069   5.264   3.727
62793W        W26561  33.899  19.765   0.805
62794W        W26562   3.412  25.502   1.417
62795W        W26563  36.926   2.914  13.972
62796W        W26564  30.069   2.853   2.710
62797W        W26565  29.447   1.898   0.283
62798W        W26566   8.758   5.281   1.418
62799W        W26567   8.693   1.890   1.312
62800W        W26568  31.487  25.005   3.690
62801W        W26569   3.807   7.300  13.034
62802W        W26570  15.267  11.850   1.921
62803W        W26571  18.556  40.462   5.303
62804W        W26572  24.610  12.752  11.952
62805W        W26573   3.354  33.108   1.292
62806W        W26574  33.470  16.706  14.356
62807W        W26575  11.206  27.586   1.366
62808W        W26576   4.360  12.318   4.701
62809W        W26577  15.122  11.797   2.410
62810W        W26578  28.540  10.170  13.527
62811W        W26579   7.873  19.771   2.401
62812W        W26580  21.547  21.079   3.188
62813W        W26581  36.504   3.385   4.212
62814W        W26582  19.616  18.091   1.320
62815W        W26583  10.277  10.218   2.185
62816W        W26584   6.422   5.267  11.080
62817W        W26585   2.736  20.134  14.962
62818W        W26586  20.704   4.355  11.473
62819W        W26587  31.915  34.499   4.739
62820W        W26588   1.780  33.025  12.575
62821W        W26589  26.513  11.825  13.847
62822W        W26590  30.959   7.300  13.313
62823W        W26591  40.501  33.513  13.543
62824W        W26592  35.043  44.366   3.850
62825W        W26593  28.106  31.643  14.364
62826W        W26594  15.603  14.217  10.122
62827W        W26595  11.813  22.500   5.153
62828W        W26596  29.663   8.785  12.033
62829W        W26597  36.588  26.100   2.404
62830W        W26598  37.078  15.127   2.207
62831W        W26599  32.893  19.055  11.446
62832W        W26600  16.273  31.061  12.968
62833W        W26601  25.007   8.380  14.015
62834W        W26602  28.669   1.436  14.871
62835W        W26603   1.816  25.691  12.572
62836W        W26604   4.935  28.627   3.656
62837W        W26605  43.945  33.432   0.440
62838W        W26606  11.749  32.988  14.461
62839W        W26607  14.238  33.085  13.313
62840W        W26608  38.834  27.984   0.478
62841W        W26609   7.315  22.076  12.056
62842W        W26610  43.501   5.242  11.084
62843W        W26611  25.479  34.073  10.907
62844W        W26612  27.955  35.598   2.349
62845W        W26613   1.759   4.327  11.956
62846W        W26614  39.408  13.171  13.988
62847W        W26615   1.894  10.750  13.503
62848W        W26616  29.626  23.073  12.933
62849W        W26617   8.807  40.348  13.969
62850W        W26618  30.415  25.975   3.690
62851W        W26619  43.274  36.933  13.032
62852W        W26620  15.129  20.569   4.300
62853W        W26621  37.379  25.202   1.268
62854W        W26622  43.509  21.230   3.303
62855W        W26623  24.984  36.935   0.418
62856W        W26624  21.632  39.506   1.721
62857W        W26625  13.842  16.150  14.341
62858W        W26626  43.923  39.859   4.762
62859W        W26627  13.322   6.881  11.401
62860W        W26628  34.941  42.838   0.931
62861W        W26629   3.236  28.460  13.797
62862W        W26630   9.241  42.297  11.489
62863W        W26631  27.585  23.037   4.736
62864W        W26632  32.592  10.815  11.927
62865W        W26633   8.285   2.433   4.804
62866W        W26634  41.412  39.959   1.428
62867W        W26635  31.530  32.050  11.956
62868W        W26636  14.293   0.808  14.875
62869W        W26637  19.625  25.674   3.294
62870W        W26638  43.824   2.327   3.214
62871W        W26639  18.775  12.852   1.435
62872W        W26640  38.416   3.711   0.279
62873W        W26641  10.297  43.002  14.770
62874W        W26642  31.463   2.814   2.742
62875W        W26643  31.032   6.764   0.413
62876W        W26644  10.332   7.233  14.385
62877W        W26645  36.066   1.348  10.485
62878W        W26646  43.511  16.129  13.536
62879W        W26647  37.994  17.201  11.886
62880W        W26648  27.159  43.827  14.981
62881W        W26649   2.275  43.841  14.800
62882W        W26650   4.747  10.772  14.298
62883W        W26651  37.084   4.431  11.498
62884W        W26652  40.873  28.677  14.503
62885W        W26653  28.167  14.325   1.340
62886W        W26654  34.614   5.917  10.491
62887W        W26655  18.640  36.484   0.873
62888W        W26656  17.224  19.620   2.782
62889W        W26657  23.618  16.132   2.814
62890W        W26658   2.929  33.503  11.858
62891W        W26659  36.942  34.546   4.214
62892W        W26660  33.988  38.570  12.383
62893W        W26661  28.982  25.593  14.367
62894W        W26662  36.480  14.097  13.419
62895W        W26663  14.767   5.284  14.492
62896W        W26664  11.848  38.989   2.339
62897W        W26665   5.241  14.247   0.898
62898W        W26666  31.131  20.192  14.018
62899W        W26667   0.350  39.491   1.871
62900W        W26668  42.795  23.567   0.948
62901W        W26669  18.731  37.544   1.300
62902W        W26670  27.470  20.217   2.356
62903W        W26671   8.674  21.117  13.815
62904W        W26672  27.448  36.056  11.492
62905W        W26673   7.383  20.619  12.920
62906W        W26674   1.246   2.306  11.386
62907W        W26675  19.221  34.567  12.024
62908W        W26676   8.752   3.800  13.341
62909W        W26677  12.174  18.700   1.245
62910W        W26678  11.266  13.646   4.354
62911W        W26679  37.506  12.765   2.261
62912W        W26680  39.946  18.744   2.902
62913W        W26681   0.270  10.758  11.516
62914W        W26682  25.097   4.299  13.941
62915W        W26683  14.783  24.992   4.801
62916W        W26684  28.045  17.116  13.015
62917W        W26685  29.447   3.935  11.988
62918W        W26686  16.132   2.375   0.398
62919W        W26687  31.514  26.501   2.830
62920W        W26688  11.165   0.944  10.934
62921W        W26689  29.458  31.062  13.466
62922W        W26690  30.112  29.499  11.998
62923W        W26691  16.746   7.753   1.787
62924W        W26692  33.437  18.134  13.328
62925W        W26693  13.236  38.485   4.141
62926W        W26694  42.947  35.870   3.226
62927W        W26695  37.337  24.487  11.525
62928W        W26696  15.281  15.724   2.401
62929W        W26697   5.796  21.627   0.444
62930W        W26698  15.656  14.695  10.514
62931W        W26699  31.991  38.348  14.028
62932W        W26700  21.208  40.328  13.435
62933W        W26701  21.058  27.154  12.833
62934W        W26702   6.750  11.792   3.650
62935W        W26703  33.425  25.140  13.453
62936W        W26704   7.717  12.125   4.168
62937W        W26705  42.379  40.499   1.850
62938W        W26706  30.477  36.365   1.292
62939W        W26707   6.760  40.420   3.668
62940W        W26708  24.147  14.224   2.236
62941W        W26709  41.487  17.574   4.186
62942W        W26710   2.290  36.530   2.835
62943W        W26711   6.197  17.290  14.357
62944W        W26712  37.020  34.990   3.746
62945W        W26713   5.751   9.676  14.462
62946W        W26714   8.716  18.208  12.058
62947W        W26715  10.780  39.931   4.631
62948W        W26716   3.407  16.086  11.093
62949W        W26717  16.735   9.835   1.894
62950W        W26718   0.931   5.224  12.877
62951W        W26719   6.293   6.270  14.862
62952W        W26720  38.468   9.375   0.299
62953W        W26721  16.289  14.266  14.990
62954W        W26722  44.402  34.529  14.870
62955W        W26723  38.343  30.582   3.861
62956W        W26724  41.997  32.632   9.984
62957W        W26725   4.755   4.927   4.280
62958W        W26726   6.226  32.521   1.338
62959W        W26727  18.170   5.795  10.568
62960W        W26728  38.991   3.280   5.082
62961W        W26729   1.900   5.815  10.574
62962W        W26730  19.537  37.831  14.992
62963W        W26731  13.264   8.283  13.792
62964W        W26732  29.952  19.259  12.423
62965W        W26733  40.363  34.497  13.396
62966W        W26734  41.470  12.640   2.880
62967W        W26735  24.018  19.047  11.053
62968W        W26736  12.645  32.916  13.859
62969W        W26737  39.027  42.411  12.551
62970W        W26738  34.969  16.676  10.411
62971W        W26739  17.093  10.790   2.316
62972W        W26740  44.958  18.170  10.946
62973W        W26741  14.163  36.459  11.967
62974W        W26742   9.289  13.145   1.405
62975W        W26743  42.385  18.545   1.859
62976W        W26744   8.387   0.976  14.766
62977W        W26745   4.700  34.870   4.740
62978W        W26746  17.600  39.988   1.346
62979W        W26747   4.348   4.708  12.917
62980W        W26748  41.492  41.490   1.825
62981W        W26749  26.634   5.902  14.402
62982W        W26750  28.093  36.495  12.951
62983W        W26751  16.690  32.411   3.688
62984W        W26752  35.889  20.146  14.860
62985W        W26753  22.145  18.169  11.908
62986W        W26754  43.450  35.972  14.452
62987W        W26755  17.125   2.757   0.948
62988W        W26756  25.515  25.049  12.838
62989W        W26757  13.795  26.676  11.016
62990W        W26758  13.185   0.280  13.418
62991W        W26759   7.817  33.441  14.805
62992W        W26760  32.400  15.329  12.020
62993W        W26761   3.250   1.889   4.255
62994W        W26762  14.110  22.184   3.632
62995W        W26763  27.989  32.431   4.202
62996W        W26764   7.234  31.965  10.971
62997W        W26765  37.421  23.178   2.809
62998W        W26766  18.769  13.340   0.458
62999W        W26767   1.444  16.255   0.835
63000W        W26768  28.966   5.362   0.926
63001W        W26769  23.623  31.479   1.368
63002W        W26770  37.985  18.242   3.788
63003W        W26771  23.514  13.777   4.600
63004W        W26772  40.899   6.736  11.105
63005W        W26773  38.467  43.378   2.797
63006W        W26774  44.481   4.781  13.509
63007W        W26775   7.742  13.723  11.866
63008W        W26776  15.322  26.058   0.379
63009W        W26777  36.088  27.663   0.791
63010W        W26778   0.330  23.648   3.825
63011W        W26779  21.675  20.716   2.688
63012W        W26780  29.553   1.451   2.348
63013W        W26781  29.120  31.103   1.918
63014W        W26782  43.273  13.609   2.817
63015W        W26783  43.869  16.603  12.925
63016W        W26784  34.590  30.463   3.659
63017W        W26785  20.566  29.538  12.351
63018W        W26786  19.106  26.472   0.915
63019W        W26787   2.432  25.966   2.366
63020W        W26788  34.394  32.992   1.448
63021W        W26789  27.029  32.918  14.349
63022W        W26790  39.830  44.368  12.342
63023W        W26791  19.161  43.923  13.546
63024W        W26792  43.355  35.363   1.388
63025W        W26793  16.133  10.770  14.412
63026W        W26794   2.352  43.496   2.418
63027W        W26795  34.596   2.301  11.580
63028W        W26796  15.657  16.089  12.057
63029W        W26797  22.211   9.255   2.733
63030W        W26798  40.528  21.026  14.968
63031W        W26799  26.617  11.204   4.143
63032W        W26800   6.754  36.926   4.226
63033W        W26801  24.209  15.215   1.224
63034W        W26802  28.078  42.865   0.282
63035W        W26803   0.769  27.546  10.949
63036W        W26804   6.713  31.638   2.339
63037W        W26805  38.522   6.370   2.728
63038W        W26806  36.563  39.847   2.251
63039W        W26807  21.570  11.673  12.898
63040W        W26808  21.033  35.078   3.358
63041W        W26809   7.760   5.914  14.353
63042W        W26810  11.727  32.090   2.815
63043W        W26811  19.721  27.990   0.805
63044W        W26812  35.002  32.496   3.673
63045W        W26813  25.171   4.295   2.701
63046W        W26814  30.147  25.045   3.791
63047W        W26815  41.872  40.037   2.382
63048W        W26816  13.108  10.214  13.519
63049W        W26817  10.760  10.138  13.812
63050W        W26818   3.869   9.250   0.778
63051W        W26819   3.373   3.277   4.620
63052W        W26820   8.373  38.350  11.042
63053W        W26821  16.765  26.703   0.965
63054W        W26822  40.865  17.775  12.560
63055W        W26823  42.390  13.204   4.609
63056W        W26824  25.530  38.923  10.462
63057W        W26825  37.501  26.086   3.745
63058W        W26826  37.085   2.930  10.594
63059W        W26827  20.134  23.726  12.497
63060W        W26828  33.541  36.574   0.277
63061W        W26829  10.247  40.445  11.937
63062W        W26830  44.505  26.986   2.873
63063W        W26831  19.739  43.956  10.422
63064W        W26832  14.735  41.972  11.958
63065W        W26833   0.312  21.599  12.845
63066W        W26834  39.362  28.942   2.255
63067W        W26835  33.443  31.510  14.516
63068W        W26836  23.686  28.044   0.358
63069W        W26837  42.877  36.405  12.088
63070W        W26838  29.031  39.517  14.371
63071W        W26839  25.016  19.210  13.849
63072W        W26840  31.500  12.154   4.700
63073W        W26841  29.031  44.837  13.386
63074W        W26842   9.254  28.159  11.871
63075W        W26843  43.369  31.578  14.322
63076W        W26844  30.923   0.306  14.859
63077W        W26845  10.635  36.034  12.510
63078W        W26846  14.223   5.760  11.884
63079W        W26847   2.400  17.090   2.309
63080W        W26848   1.401  23.632   0.302
63081W        W26849  17.776  34.049   0.905
63082W        W26850  22.113  44.902  14.473
63083W        W26851  19.056  16.652   0.785
63084W        W26852   6.340  43.989   1.836
63085W        W26853  27.522   2.948   2.212
63086W        W26854  20.683  22.695   2.221
63087W        W26855  36.088  24.001  12.465
63088W        W26856  18.733  38.844   4.801
63089W        W26857  23.527  30.624  12.351
63090W        W26858  31.053  21.549   4.622
63091W        W26859  20.716  34.587  14.992
63092W        W26860  26.513  25.693   3.835
63093W        W26861  12.674  41.043  12.447
63094W        W26862  37.501   4.831  10.951
63095W        W26863  27.655  34.088   2.223
63096W        W26864  30.484   4.218   2.398
63097W        W26865  18.211  14.287   2.748
63098W        W26866  37.941  18.251  14.486
63099W        W26867  28.163  27.155  10.466
63100W        W26868  23.695   3.928  12.552
63101W        W26869  11.289  17.797  10.469
63102W        W26870  26.140   2.417  11.101
63103W        W26871  11.774  23.566  10.482
63104W        W26872  34.445  36.976  13.519
63105W        W26873  29.644  35.580   0.769
63106W        W26874  24.717  15.289   4.745
63107W        W26875  38.565  28.647  14.765
63108W        W26876   0.829  14.148  14.282
63109W        W26877  31.112  33.981   3.296
63110W        W26878  34.584  27.108   1.378
63111W        W26879  23.585  12.191  11.427
63112W        W26880   0.251  21.025   2.814
63113W        W26881  25.209  32.087   3.309
63114W        W26882  10.645  43.012  13.536
63115W        W26883  33.957   9.328  13.535
63116W        W26884  32.410   6.846  12.428
63117W        W26885  23.563  37.071  14.450
63118W        W26886   2.941   8.882   4.660
63119W        W26887  40.003  39.945   3.253
63120W        W26888  14.218  10.270   2.856
63121W        W26889  37.525   6.716  10.421
63122W        W26890  24.228  23.513  13.890
63123W        W26891  22.065  41.349   2.696
63124W        W26892  37.880   0.788  10.501
63125W        W26893  35.575  17.295   2.850
63126W        W26894  44.470  14.222   0.726
63127W        W26895  27.120   3.257  14.395
63128W        W26896  44.765  31.065  12.546
63129W        W26897   1.834  10.175   4.790
63130W        W26898  22.032  11.738   2.861
63131W        W26899  42.004  25.089   3.847
63132W        W26900  25.488   7.400  13.397
63133W        W26901   9.743  21.526  11.939
63134W        W26902   6.887  15.270  13.327
63135W        W26903  27.652  21.512  12.850
63136W        W26904  36.076  36.881  12.492
63137W        W26905  22.081   2.355  11.934
63138W        W26906   9.226  36.386   0.781
63139W        W26907   3.772  17.639  13.994
63140W        W26908   5.739   7.287   3.688
63141W        W26909  20.541  14.183  14.323
63142W        W26910  32.097  19.168  11.585
63143W        W26911  30.575  34.487  12.478
63144W        W26912  41.392  12.149  11.062
63145W        W26913  40.839   0.799  11.990
63146W        W26914  39.979  22.564   1.867
63147W        W26915   3.275  40.883   4.601
63148W        W26916   0.899   9.291  11.986
63149W        W26917  23.102  34.982  12.984
63150W        W26918   5.794  31.467  10.566
63151W        W26919  43.879  29.601   0.480
63152W        W26920  18.547  24.165  11.489
63153W        W26921   0.290   7.384  10.585
63154W        W26922  19.658  40.797  12.904
63155W        W26923  33.971  12.146   2.848
63156W        W26924  24.125  35.912  13.794
63157W        W26925  20.584   1.462   0.764
63158W        W26926  33.959  25.121   3.712
63159W        W26927  35.415   4.809  14.904
63160W        W26928   9.150   1.244  12.993
63161W        W26929  38.361  25.484   3.697
63162W        W26930  27.998  25.181  10.579
63163W        W26931  26.206   8.869  10.447
63164W        W26932  36.417  31.036  12.994
63165W        W26933  19.645  36.528  11.034
63166W        W26934  13.649  14.244  11.098
63167W        W26935  40.986  10.676  12.859
63168W        W26936  25.078  23.097  10.975
63169W        W26937  20.029  24.642   3.373
63170W        W26938   4.862  22.725   4.155
63171W        W26939  34.487   8.294   3.344
63172W        W26940  43.010  27.953  13.457
63173W        W26941  43.286  22.058  12.961
63174W        W26942   5.355  38.328   0.266
63175W        W26943   0.756  39.877   1.719
63176W        W26944  10.661  26.131  10.931
63177W        W26945  24.023  27.992  11.549
63178W        W26946  20.267  44.812  13.828
63179W        W26947  29.158  42.419  14.415
63180W        W26948  32.959   8.228  13.328
63181W        W26949  37.087  29.641   0.730
63182W        W26950  18.737  17.088  13.940
63183W        W26951   3.892  11.159  13.905
63184W        W26952  30.434  40.391  12.032
63185W        W26953  29.549  14.213  11.884
63186W        W26954  28.679  44.293  11.123
63187W        W26955  21.033  18.670   3.300
63188W        W26956  17.067   2.276   2.696
63189W        W26957   1.926  33.906   2.305
63190W        W26958  21.074  14.287   4.651
63191W        W26959  33.038  32.955  14.319
63192W        W26960  12.799  20.741  10.910
63193W        W26961   8.852  26.169   4.799
63194W        W26962  37.527   3.442   3.254
63195W        W26963  36.363  44.994  11.954
63196W        W26964  26.547  24.506   0.846
63197W        W26965  24.183  41.797   2.372
63198W        W26966  28.042   3.736   1.786
63199W        W26967  28.050  35.987  11.927
63200W        W26968  33.473  18.728  14.846
63201W        W26969   7.379   3.826   1.715
63202W        W26970  38.493   1.742   0.870
63203W        W26971   7.268  36.027   1.871
63204W        W26972  29.445  37.385   1.273
63205W        W26973  19.567  40.370   0.767
63206W        W26974  34.439  27.198   2.184
63207W        W26975  42.844  26.592   2.253
63208W        W26976  41.473  25.975   4.704
63209W        W26977  18.569  28.094  11.941
63210W        W26978  32.563  16.198   5.569
63211W        W26979  20.580  19.205   2.372
63212W        W26980   1.351  21.099   9.986
63213W        W26981  44.505  40.012  14.287
63214W        W26982  44.841   7.701  11.984
63215W        W26983   9.872   3.941   0.271
63216W        W26984   8.384  39.037   0.893
63217W        W26985  40.988  38.569   4.259
63218W        W26986  41.474  40.450   3.232
63219W        W26987   3.827  18.626  14.781
63220W        W26988  13.222  38.380  13.536
63221W        W26989  13.843  32.030  11.475
63222W        W26990  40.323  11.685   0.930
63223W        W26991   3.436  42.416   4.243
63224W        W26992  40.856   0.878   1.774
63225W        W26993  16.249  30.612   3.773
63226W        W26994  26.116   1.392  13.448
63227W        W26995  24.187  26.689   4.178
63228W        W26996   9.227   0.285  10.103
63229W        W26997  41.821   0.889  11.100
63230W        W26998  22.655  16.646   1.907
63231W        W26999  17.675  23.197   0.837
63232W        W27000  10.842   3.906   2.886
63233W        W27001  31.544   9.325   1.922
63234W        W27002  12.835  27.524  12.878
63235W        W27003  29.133  40.364   3.337
63236W        W27004  29.559  12.209   0.313
63237W        W27005  39.507  40.828   0.794
63238W        W27006  43.418  28.601   4.828
63239W        W27007  25.566  22.068   2.391
63240W        W27008  15.683  42.017  14.908
63241W        W27009  18.659  38.393   2.703
63242W        W27010  33.403  32.096  11.032
63243W        W27011  19.632   7.701   1.443
63244W        W27012  15.665  17.707  11.512
63245W        W27013  36.993  22.690   3.809
63246W        W27014  42.934   4.709  14.349
63247W        W27015   5.193  15.600  12.545
63248W        W27016  39.976  27.188   2.852
63249W        W27017  28.100  16.700  14.513
63250W        W27018  38.075  39.872   1.889
63251W        W27019  17.277  42.283   4.617
63252W        W27020  40.412   8.226  12.066
63253W        W27021   3.737  37.832   3.373
63254W        W27022   5.417   1.844   4.169
63255W        W27023  15.236  41.493  14.388
63256W        W27024   6.913  35.029   0.799
63257W        W27025  39.342  37.901  14.485
63258W        W27026  33.929  24.481  12.070
63259W        W27027  26.547   5.321   2.673
63260W        W27028   2.836  36.543  13.387
63261W        W27029   5.835  38.401  12.979
63262W        W27030   3.403   6.743  14.012
63263W        W27031  11.363  41.963  12.876
63264W        W27032   2.242  33.561  14.392
63265W        W27033  19.158  13.839   2.269
63266W        W27034   6.187  32.041  14.941
63267W        W27035  24.074  28.563   2.411
63268W        W27036  31.472  10.737  13.548
63269W        W27037  21.600  18.670  13.063
63270W        W27038   0.366  34.937  10.523
63271W        W27039   8.676  10.199  10.954
63272W        W27040  38.934  10.227   5.244
63273W        W27041  17.283   9.339   2.209
63274W        W27042  40.365  19.627  11.120
63275W        W27043  10.859   2.351   3.359
63276W        W27044  22.181  14.719   1.797
63277W        W27045  24.719   6.316  11.869
63278W        W27046  35.600  23.620  14.923
63279W        W27047  17.155  44.824   4.116
63280W        W27048  22.046  14.242   1.783
63281W        W27049  20.240  40.423  11.975
63282W        W27050   8.727  30.592  12.943
63283W        W27051  32.611  38.938   2.664
63284W        W27052  26.108  19.560  12.427
63285W        W27053   0.915   5.703  14.789
63286W        W27054  25.673   5.930   0.372
63287W        W27055  28.617  20.657   2.247
63288W        W27056  24.205  28.079   2.288
63289W        W27057   8.701  23.203  13.432
63290W        W27058  33.992  10.312   0.364
63291W        W27059  16.119  19.658   2.820
63292W        W27060  25.143  37.469  11.889
63293W        W27061  25.087  16.314  10.469
63294W        W27062   9.714  31.137  12.387
63295W        W27063  18.126  30.952   5.115
63296W        W27064  32.095  42.410  12.533
63297W        W27065  24.554  16.676  12.475
63298W        W27066  18.163  31.514   0.246
63299W        W27067   7.227  32.604   4.810
63300W        W27068  11.233  40.998  13.040
63301W        W27069   9.307   2.418  12.360
63302W        W27070  40.021  13.135   0.751
63303W        W27071   9.754   5.410   4.818
63304W        W27072   9.295  14.632  13.454
63305W        W27073  33.616  19.102  14.301
63306W        W27074   5.407  32.443   4.248
63307W        W27075  22.582  44.265  10.914
63308W        W27076   6.921   1.886  11.014
63309W        W27077  41.448  15.308   2.320
63310W        W27078  24.563  39.838  14.804
63311W        W27079   2.472   3.408   1.730
63312W        W27080  25.137  26.101  10.424
63313W        W27081   4.445  30.657  14.369
63314W        W27082  12.664  32.929  11.585
63315W        W27083  31.145   4.244  13.886
63316W        W27084  20.565   8.223   1.907
63317W        W27085  36.845  19.125  12.988
63318W        W27086   5.342  27.036   3.375
63319W        W27087   1.272  32.534  11.059
63320W        W27088  26.073  42.010  13.467
63321W        W27089  28.619  10.362  10.981
63322W        W27090  44.352  11.272  12.417
63323W        W27091  17.196  34.953  11.484
63324W        W27092  32.632  36.079   5.160
63325W        W27093  29.070   8.719  11.417
63326W        W27094  24.135   0.827  11.442
63327W        W27095  40.964  20.179  11.996
63328W        W27096  38.894   8.370   2.282
63329W        W27097  25.060   8.205  12.027
63330W        W27098  32.413  12.194   3.298
63331W        W27099   3.802  29.490  12.081
63332W        W27100  25.476  32.573   3.316
63333W        W27101  20.685  20.221  10.546
63334W        W27102  25.657  15.207  12.990
63335W        W27103  37.539  38.820  14.861
63336W        W27104  35.084  28.073  14.367
63337W        W27105   9.826  18.133  14.018
63338W        W27106  32.068  23.638   0.473
63339W        W27107  17.595   8.750   2.278
63340W        W27108  32.909  29.501   3.727
63341W        W27109  40.984  19.713   1.781
63342W        W27110  14.797   4.889   2.392
63343W        W27111  43.505   3.307   3.302
63344W        W27112  17.625  11.664  14.491
63345W        W27113  21.578   1.732   4.147
63346W        W27114  36.462  27.666   3.340
63347W        W27115  19.106   9.160  12.371
63348W        W27116  36.392  34.078  13.452
63349W        W27117  16.669   9.801   2.777
63350W        W27118   9.192  22.536   3.811
63351W        W27119   0.367  12.706  10.909
63352W        W27120   0.987  30.550   3.320
63353W        W27121  20.217  42.906   3.706
63354W        W27122  36.572  16.675   2.800
63355W        W27123   4.795  31.456  11.911
63356W        W27124  36.417   6.418   1.218
63357W        W27125  17.767  26.504  14.972
63358W        W27126  28.100  31.109   5.202
63359W        W27127  27.085  22.503   2.689
63360W        W27128  43.980  15.102  14.027
63361W        W27129  41.873   1.955   3.297
63362W        W27130  33.004  20.226  10.086
63363W        W27131  14.735  17.293   1.219
63364W        W27132  40.491   1.357  11.486
63365W        W27133  34.432  36.061   3.370
63366W        W27134   1.965  34.464   0.311
63367W        W27135  16.177  20.080   1.735
63368W        W27136  39.961  10.696   4.166
63369W        W27137  37.878   3.216  14.475
63370W        W27138  27.614   1.304   2.737
63371W        W27139  14.301   3.818  13.468
63372W        W27140  16.752  25.014   1.290
63373W        W27141  16.701   0.345  12.090
63374W        W27142   8.884  23.629   1.253
63375W        W27143   7.727  41.942  14.988
63376W        W27144  12.279  25.510  14.477
63377W        W27145   1.912  32.970  10.585
63378W        W27146  27.117  39.352   3.320
63379W        W27147   6.921  29.951   3.339
63380W        W27148   5.254  13.106   0.865
63381W        W27149  16.677  19.150   2.804
63382W        W27150  19.635  42.881   4.350
63383W        W27151  44.285  19.747  11.042
63384W        W27152  30.444  29.945  13.342
63385W        W27153  22.236   6.322  14.475
63386W        W27154  34.506  23.728  14.897
63387W        W27155  40.812  42.781  12.386
63388W        W27156   9.284  39.868  12.991
63389W        W27157  27.534  20.650   3.337
63390W        W27158  41.380  22.091  14.849
63391W        W27159  25.174  18.190  13.487
63392W        W27160  12.835  14.811   4.628
63393W        W27161  21.675  42.437   2.805
63394W        W27162   8.803  14.606   4.745
63395W        W27163  38.076  24.192  11.489
63396W        W27164  20.132  37.572   5.280
63397W        W27165   1.951  14.689  11.078
63398W        W27166  11.743  20.607  11.421
63399W        W27167  26.541  23.604   2.229
63400W        W27168  36.891  34.615   2.818
63401W        W27169   2.460   7.200  10.996
63402W        W27170  23.597  20.106  13.389
63403W        W27171  13.625   7.818   1.351
63404W        W27172  10.849  15.744  12.486
63405W        W27173  23.511   2.844   4.700
63406W        W27174  35.053  32.002  12.405
63407W        W27175  21.622   2.931  13.847
63408W        W27176  27.566  43.458  14.400
63409W        W27177  37.918  21.601  13.052
63410W        W27178  38.913  32.040  11.552
63411W        W27179   8.661  31.084   2.180
63412W        W27180  44.891   6.781   1.225
63413W        W27181  11.656   4.382  10.467
63414W        W27182   0.816   4.844   4.245
63415W        W27183   6.367  26.087  14.369
63416W        W27184  33.613  15.789   1.807
63417W        W27185  27.580  41.979  13.020
63418W        W27186  26.169  30.553  10.946
63419W        W27187   5.307  27.157  12.064
63420W        W27188  40.350   4.721  10.046
63421W        W27189  40.821   8.362   1.840
63422W        W27190  14.220  36.032  10.995
63423W        W27191   1.276  26.525   2.367
63424W        W27192  36.887  31.042   2.251
63425W        W27193  18.573  42.779  10.986
63426W        W27194   7.770  20.666  12.493
63427W        W27195  26.612  36.085  14.843
63428W        W27196  35.993  31.948  12.927
63429W        W27197  11.179  16.639   3.643
63430W        W27198  21.230  21.171   4.312
63431W        W27199   6.391  15.172  13.412
63432W        W27200  24.691   8.320   3.705
63433W        W27201   8.820  16.808   4.162
63434W        W27202  44.376  37.044  11.545
63435W        W27203  37.077  12.699   2.674
63436W        W27204  11.801  18.054   3.332
63437W        W27205  33.399   0.924   4.281
63438W        W27206  41.502  42.928  11.610
63439W        W27207  13.171   8.840  14.796
63440W        W27208  40.844   2.947  13.029
63441W        W27209  27.570   4.248  13.530
63442W        W27210   9.238  35.964   4.680
63443W        W27211  16.572  27.625  10.952
63444W        W27212   2.751  35.463  12.540
63445W        W27213  38.892  19.115  14.341
63446W        W27214  36.435  26.514  11.944
63447W        W27215  37.339  20.675  14.999
63448W        W27216   8.263  31.960   3.349
63449W        W27217  34.606  32.032   1.737
63450W        W27218  24.633  24.064   0.349
63451W        W27219  39.465  20.155  13.337
63452W        W27220  21.634  18.627   4.309
63453W        W27221  41.005  22.148  11.375
63454W        W27222  14.318  27.579   4.135
63455W        W27223  13.346   8.301  12.550
63456W        W27224  15.674  26.138   1.356
63457W        W27225   5.416   6.265   4.156
63458W        W27226  26.620   3.791   0.431
63459W        W27227  22.171  43.966   4.833
63460W        W27228  40.422  37.049   1.907
63461W        W27229  40.403  14.819  11.013
63462W        W27230   6.312  35.987   3.342
63463W        W27231  11.190  26.525  11.506
63464W        W27232  21.642  36.906   3.867
63465W        W27233  14.194  34.570  12.423
63466W        W27234  33.078  35.391  12.977
63467W        W27235  27.123   8.899   4.800
63468W        W27236  14.169   2.792   1.283
63469W        W27237  26.490  20.109   0.471
63470W        W27238  39.878  38.408  14.812
63471W        W27239  13.679  43.797  12.950
63472W        W27240  30.103   9.880  14.494
63473W        W27241  31.101  23.631  12.553
63474W        W27242  41.948  13.839   1.326
63475W        W27243  10.239   0.913  12.903
63476W        W27244  18.705  42.016  11.018
63477W        W27245  27.104   0.473  13.870
63478W        W27246  44.420  40.530   3.274
63479W        W27247  14.692  23.658   3.283
63480W        W27248  33.550  11.189   1.439
63481W        W27249  25.670  32.559  13.326
63482W        W27250  17.154  26.160  13.487
63483W        W27251  17.699   5.360  12.978
63484W        W27252  16.251   9.709  13.362
63485W        W27253  22.080   2.930   3.860
63486W        W27254   8.881  18.565   4.218
63487W        W27255   5.419  13.690   0.948
63488W        W27256  13.313  33.581   4.727
63489W        W27257   0.819  30.489   4.768
63490W        W27258  22.690  24.717  12.440
63491W        W27259  26.052  44.893  13.895
63492W        W27260  11.294   9.829   3.808
63493W        W27261  30.964   8.854   2.756
63494W        W27262  18.129  15.671   3.333
63495W        W27263  19.086   3.294   5.283
63496W        W27264  35.036  39.538  10.506
63497W        W27265  36.559  44.905   1.736
63498W        W27266  39.871   5.913  14.380
63499W        W27267   9.718  10.762   4.270
63500W        W27268  41.494   6.422   2.891
63501W        W27269  43.406   8.275   3.154
63502W        W27270  39.342  33.974  14.341
63503W        W27271  25.699   5.857   2.699
63504W        W27272   9.731  31.469   4.836
63505W        W27273  35.466  27.623  14.982
63506W        W27274  25.148  25.473  10.524
63507W        W27275  28.597  24.578   2.372
63508W        W27276  28.512  40.898  10.410
63509W        W27277   4.310  29.004   3.775
63510W        W27278  38.028  25.578  13.420
63511W        W27279  24.042  15.312  10.613
63512W        W27280  24.613   1.429  12.861
63513W        W27281  14.606  30.163  14.816
63514W        W27282  21.652  35.914   5.152
63515W        W27283  14.751   7.321  11.022
63516W        W27284  32.405   8.874  14.770
63517W        W27285   7.880  16.095   3.194
63518W        W27286  19.731  34.575  13.952
63519W        W27287   3.267  25.551  10.468
63520W        W27288  22.617  17.143  12.977
63521W        W27289  16.753  37.901   3.242
63522W        W27290  32.922  22.066   2.868
63523W        W27291   9.687   4.783  10.419
63524W        W27292  31.618  32.614   3.308
63525W        W27293  10.307   6.805  12.034
63526W        W27294   3.435  42.307   0.849
63527W        W27295  34.375   6.425   4.718
63528W        W27296   7.343  14.697  13.022
63529W        W27297   5.285   9.274  13.011
63530W        W27298  20.237   0.305  13.417
63531W        W27299  39.982  44.309  10.439
63532W        W27300  11.818  23.533  14.342
63533W        W27301  13.799  25.157   3.809
63534W        W27302  24.573   7.196  11.612
63535W        W27303  25.577  25.149   2.345
63536W        W27304  21.246  11.238  12.459
63537W        W27305  28.937   2.411  13.854
63538W        W27306  11.288  18.722   3.187
63539W        W27307  12.288   5.223   4.139
63540W        W27308  18.776  39.355   3.374
63541W        W27309  34.034  20.660   3.769
63542W        W27310   1.407   3.950   2.274
63543W        W27311  23.065  33.019  14.366
63544W        W27312  17.766  14.804   2.810
63545W        W27313  31.129  20.082   0.962
63546W        W27314  21.187  14.699  10.469
63547W        W27315  25.668  30.471  14.853
63548W        W27316  24.653  34.543  14.321
63549W        W27317  19.227  40.386   2.722
63550W        W27318  13.299   4.745  10.504
63551W        W27319  42.915  43.788   4.622
63552W        W27320  22.623   7.777  13.027
63553W        W27321   1.314  16.726   3.654
63554W        W27322  15.609  27.639  13.864
63555W        W27323  15.209  35.525   2.389
63556W        W27324   1.320  16.233  14.907
63557W        W27325   4.359  13.608  14.011
63558W        W27326  28.166  44.788   4.338
63559W        W27327  41.942  40.403   4.166
63560W        W27328  28.573  33.907   2.735
63561W        W27329  36.039   7.768   2.723
63562W        W27330  35.575  13.736   2.208
63563W        W27331  24.577  32.133  14.952
63564W        W27332  33.006   0.907   1.263
63565W        W27333  14.129  17.212   3.363
63566W        W27334  20.235  34.502   4.180
63567W        W27335   0.478  44.373   2.859
63568W        W27336  41.938  31.460  10.013
63569W        W27337  23.151  37.069  10.462
63570W        W27338   3.948  11.624   3.238
63571W        W27339  27.552  41.365  13.383
63572W        W27340  26.043  13.704   4.642
63573W        W27341   2.905  36.519   1.718
63574W        W27342  28.976  10.293  13.314
63575W        W27343  37.062  40.950   2.260
63576W        W27344  34.922  11.793  14.493
63577W        W27345  11.709  17.762   2.693
63578W        W27346  19.551  24.688   0.404
63579W        W27347   8.859  41.512   2.244
63580W        W27348  44.279  28.126   1.320
63581W        W27349  32.018  37.891  14.856
63582W        W27350  31.069  11.712   0.858
63583W        W27351  44.322  31.547  13.501
63584W        W27352   1.277  24.556  11.899
63585W        W27353  21.626   5.426  13.934
63586W        W27354  14.718  21.583   1.746
63587W        W27355   0.477   6.320   4.681
63588W        W27356  43.294   3.845  14.502
63589W        W27357  17.782  11.368   0.376
63590W        W27358  31.448  40.866   4.831
63591W        W27359   3.235  29.930  12.848
63592W        W27360  16.224  30.153  12.997
63593W        W27361  14.761  28.964  11.041
63594W        W27362  11.345   4.332  12.442
63595W        W27363   9.337  24.672   4.268
63596W        W27364   0.970  13.256   2.796
63597W        W27365  41.498  23.626   2.820
63598W        W27366  26.144  25.517  14.819
63599W        W27367   7.683  29.970  14.890
63600W        W27368   5.219  12.856   0.363
63601W        W27369   8.163  38.913  11.533
63602W        W27370   8.876  24.572   3.805
63603W        W27371  38.386   5.194   0.726
63604W        W27372   1.767   7.225  10.534
63605W        W27373  21.734  20.625  14.482
63606W        W27374  34.609  16.582   4.251
63607W        W27375   4.941  12.716  14.490
63608W        W27376   8.232  35.998   2.418
63609W        W27377  10.316  14.281  10.637
63610W        W27378  29.108  21.538   2.272
63611W        W27379  18.148  24.034   3.338
63612W        W27380  33.481  30.657  10.103
63613W        W27381  26.655   3.376  10.921
63614W        W27382  36.016  37.553  13.909
63615W        W27383  25.493  23.029   1.929
63616W        W27384   2.235  18.094   0.756
63617W        W27385  39.375  20.128  12.358
63618W        W27386  43.299  12.250  12.516
63619W        W27387  13.174   9.790   1.826
63620W        W27388  33.130  27.045  13.420
63621W        W27389   8.687  43.426   2.286
63622W        W27390  34.491   4.433  11.580
63623W        W27391   8.719  25.180  11.585
63624W        W27392  11.327  11.807  12.370
63625W        W27393  32.496  27.614   0.464
63626W        W27394   2.326  31.521  11.420
63627W        W27395  22.573  23.216  14.840
63628W        W27396  37.348  37.470  13.453
63629W        W27397  24.565  38.874   1.825
63630W        W27398   0.809   9.730  14.465
63631W        W27399  11.354  14.685   4.743
63632W        W27400  25.133  17.224   1.247
63633W        W27401  32.416  11.840   4.775
63634W        W27402   2.755  22.065  10.620
63635W        W27403  40.327  29.937   3.691
63636W        W27404  15.254  35.064  13.975
63637W        W27405  24.156   3.722  11.595
63638W        W27406  40.985  15.325  12.986
63639W        W27407  33.076  21.535   3.334
63640W        W27408   1.961  12.826   0.422
63641W        W27409   5.207  15.650   1.245
63642W        W27410  10.824  11.867  13.405
63643W        W27411  44.316   7.256   4.678
63644W        W27412   7.782  19.720  10.116
63645W        W27413  13.602  24.132  13.860
63646W        W27414  31.622   3.811  13.400
63647W        W27415  17.292   5.796  11.530
63648W        W27416  40.402  11.754   4.618
63649W        W27417  27.175  18.201   2.858
63650W        W27418  33.402  34.027   3.673
63651W        W27419   7.800  39.821  10.978
63652W        W27420  10.144  35.359  11.464
63653W        W27421  41.404   3.849   3.346
63654W        W27422  43.935  41.031   2.356
63655W        W27423  14.760  37.395  10.161
63656W        W27424  24.499  16.114  11.120
63657W        W27425  22.143  15.236  13.506
63658W        W27426   0.904   5.896   4.689
63659W        W27427   1.441  16.792   1.894
63660W        W27428  38.857  31.588   5.729
63661W        W27429   1.928  37.520   3.288
63662W        W27430  14.236  41.428  12.548
63663W        W27431   1.260  27.683  12.485
63664W        W27432  31.934  20.762  12.905
63665W        W27433  14.794  35.074   3.832
63666W        W27434  23.151  21.593   1.782
63667W        W27435  29.161  33.061   4.314
63668W        W27436  13.345   2.827  13.061
63669W        W27437   0.434  10.314   2.178
63670W        W27438  34.097  12.129  14.320
63671W        W27439  19.270  44.783   3.331
63672W        W27440  44.268  30.001  12.071
63673W        W27441  18.658  10.284  10.016
63674W        W27442  37.838  16.154  14.024
63675W        W27443   1.940  38.074   0.244
63676W        W27444   2.751   3.837  10.458
63677W        W27445  11.678   9.702   5.255
63678W        W27446   7.229  37.063  13.020
63679W        W27447  16.800   7.780  14.374
63680W        W27448  21.679  18.659  12.344
63681W        W27449  30.108  16.764  14.502
63682W        W27450  36.017  31.628   3.336
63683W        W27451  12.298  20.650   0.865
63684W        W27452  30.442  36.000  11.460
63685W        W27453   2.937  32.028   0.942
63686W        W27454  32.470  24.519  13.530
63687W        W27455  20.542  40.838  14.449
63688W        W27456   0.833  26.032  12.890
63689W        W27457   9.877  15.117  13.454
63690W        W27458  25.163   0.267   2.317
63691W        W27459  23.669  41.794   4.268
63692W        W27460  12.827   1.287   3.270
63693W        W27461  40.308  22.699  11.876
63694W        W27462   3.897  43.444  14.278
63695W        W27463  12.300  37.483  14.759
63696W        W27464  41.940   9.177  11.582
63697W        W27465   4.794  40.421  11.859
63698W        W27466  33.000   0.297  13.396
63699W        W27467  27.174   6.189  11.921
63700W        W27468  43.371  16.306   1.436
63701W        W27469  12.141  10.687  11.527
63702W        W27470  18.085   0.929   0.960
63703W        W27471  23.704  26.611   1.379
63704W        W27472  22.715  40.828  13.902
63705W        W27473  20.211   5.866   2.349
63706W        W27474  19.594  40.424   3.670
63707W        W27475   7.394  25.190   3.848
63708W        W27476  41.407  36.924   4.779
63709W        W27477  27.489  10.654  10.925
63710W        W27478  34.100  26.097  11.496
63711W        W27479   2.893  26.670   0.906
63712W        W27480  23.014  32.101  14.967
63713W        W27481  14.162   6.789   4.158
63714W        W27482  12.356   4.919   3.358
63715W        W27483  21.722   1.391  13.003
63716W        W27484  29.968  20.618  14.873
63717W        W27485  17.261  44.920  14.448
63718W        W27486  41.837  23.555   4.238
63719W        W27487  25.998   4.269   0.904
63720W        W27488  34.610  41.916  11.415
63721W        W27489  29.151   7.401  14.980
63722W        W27490   3.458  11.265   0.325
63723W        W27491  30.970  30.431  11.073
63724W        W27492  39.919  13.734   3.630
63725W        W27493  22.625   8.694  11.487
63726W        W27494   3.805   4.341   4.663
63727W        W27495  20.744  28.603  12.839
63728W        W27496  37.934   5.404   9.600
63729W        W27497  12.731   8.760   0.410
63730W        W27498  44.296  34.555   1.881
63731W        W27499  41.351  37.508   4.276
63732W        W27500  25.563  24.609   3.230
63733W        W27501   8.174   0.950   4.651
63734W        W27502  14.595  36.091  11.074
63735W        W27503  37.541  20.748  12.493
63736W        W27504   1.870  32.399   2.244
63737W        W27505   7.873   4.839   2.394
63738W        W27506  14.755  15.203  12.503
63739W        W27507   6.738  25.023  12.370
63740W        W27508  31.555  22.194   3.869
63741W        W27509  32.425   4.422   1.387
63742W        W27510  13.655   7.669  13.817
63743W        W27511  34.418  21.032  10.523
63744W        W27512   1.339  32.514   4.792
63745W        W27513  42.353  28.994  11.432
63746W        W27514  13.242   4.429   4.820
63747W        W27515  33.999  42.990  12.063
63748W        W27516  18.647  34.417   5.648
63749W        W27517   7.911  43.866   0.943
63750W        W27518  39.063  40.981   4.260
63751W        W27519   3.312   5.880   4.814
63752W        W27520  36.027   3.873  12.902
63753W        W27521  23.070  15.671  14.007
63754W        W27522  29.064  20.709   1.911
63755W        W27523   7.325   5.396   0.772
63756W        W27524   5.692   2.905  12.022
63757W        W27525   2.353  39.516   5.628
63758W        W27526  22.565  28.465  11.891
63759W        W27527  38.476  20.233  11.468
63760W        W27528  44.928  27.964  13.433
63761W        W27529  31.907  27.178  12.036
63762W        W27530   4.747  36.418   2.383
63763W        W27531  28.032   8.284   4.147
63764W        W27532   0.960  14.304   2.736
63765W        W27533   3.408  18.111   2.821
63766W        W27534  10.837   9.798   1.886
63767W        W27535  24.570   0.458  11.461
63768W        W27536   6.886  28.593   4.222
63769W        W27537  18.581  26.105   4.211
63770W        W27538  37.847  41.463   3.652
63771W        W27539   1.246   9.248  11.014
63772W        W27540  42.459  42.354  11.912
63773W        W27541  16.132  25.705   1.309
63774W        W27542  32.554  30.117  10.573
63775W        W27543  35.567   3.782   0.307
63776W        W27544  31.946  31.642  11.374
63777W        W27545  13.229  27.557   3.801
63778W        W27546  28.658  10.207   1.294
63779W        W27547  25.153  24.639   1.708
63780W        W27548  27.551   8.257   0.860
63781W        W27549  39.970   8.363   5.188
63782W        W27550  31.046   1.245  13.908
63783W        W27551  40.014  39.349   0.379
63784W        W27552  41.351  32.084   3.330
63785W        W27553  32.895  10.806   3.230
63786W        W27554  34.918   6.405  12.466
63787W        W27555  24.088  18.119   0.784
63788W        W27556  18.560  44.430   9.980
63789W        W27557  43.331  21.163   3.809
63790W        W27558  27.628  10.144   0.427
63791W        W27559   3.896  33.935   1.211
63792W        W27560  13.223  18.230  13.036
63793W        W27561   3.325  20.045   5.276
63794W        W27562   7.260  10.252   1.421
63795W        W27563  14.151   0.282  13.981
63796W        W27564  39.882  34.888   4.609
63797W        W27565  32.420  39.385  12.493
63798W        W27566   4.437  35.946   4.280
63799W        W27567  19.240  16.586   9.439
63800W        W27568   6.405   4.872   5.299
63801W        W27569   8.173  29.626  13.480
63802W        W27570  15.583  22.090  11.091
63803W        W27571  29.054   4.761  11.385
63804W        W27572  41.017  19.096   3.656
63805W        W27573  28.142  15.664   3.277
63806W        W27574  34.382   0.832  11.965
63807W        W27575  36.548  13.802  13.002
63808W        W27576  35.011   8.776   2.328
63809W        W27577  21.732  22.551  13.342
63810W        W27578  34.590   5.336   0.818
63811W        W27579  34.045  24.514  12.451
63812W        W27580  25.539   9.288  10.489
63813W        W27581  13.311  43.866  11.052
63814W        W27582  14.193  12.258   2.288
63815W        W27583  22.620   1.309   4.158
63816W        W27584  14.723   8.675  10.037
63817W        W27585  10.684   7.249   0.440
63818W        W27586   8.381   7.859   3.844
63819W        W27587  23.692  26.029  10.929
63820W        W27588  14.199   2.467  12.906
63821W        W27589  10.340  17.220  12.405
63822W        W27590   7.409  29.614   0.873
63823W        W27591  38.964  14.690   1.242
63824W        W27592  44.298  28.098   3.209
63825W        W27593  25.702  20.577  11.488
63826W        W27594  35.023  21.214   1.256
63827W        W27595  29.492   4.418   0.399
63828W        W27596  20.055   4.848  13.525
63829W        W27597  42.020   1.361  13.361
63830W        W27598  39.019   5.351   3.294
63831W        W27599  26.993  25.694  14.507
63832W        W27600  41.020  41.509  11.058
63833W        W27601  13.638  11.645   1.870
63834W        W27602   0.744  19.202  13.847
63835W        W27603  11.783  31.044   2.396
63836W        W27604  18.105  25.018   3.807
63837W        W27605  12.683  36.007   4.209
63838W        W27606  20.121  29.612  10.587
63839W        W27607  26.073  14.208   3.715
63840W        W27608  25.486  21.540   4.743
63841W        W27609  17.294  13.346   3.354
63842W        W27610  43.909  12.844  10.985
63843W        W27611  22.227  14.788  11.467
63844W        W27612  32.005  43.786   0.334
63845W        W27613  43.974  26.627   4.811
63846W        W27614  29.959   0.480  12.043
63847W        W27615  40.893   0.848   2.228
63848W        W27616  44.944  42.021  11.403
63849W        W27617  35.481  23.984  11.414
63850W        W27618   8.840  12.315   1.420
63851W        W27619   8.188  31.547  12.994
63852W        W27620  20.569  23.639  13.045
63853W        W27621  25.685   8.402   0.872
63854W        W27622  22.197  14.283  14.405
63855W        W27623  18.156  21.244  12.910
63856W        W27624  32.428  40.873   1.353
63857W        W27625  34.594  22.252   2.878
63858W        W27626  29.133   1.836  14.799
63859W        W27627  18.619  20.033   0.925
63860W        W27628   1.343  21.536  14.304
63861W        W27629   1.400  41.832  14.938
63862W        W27630  17.735  26.463   0.860
63863W        W27631  44.000  14.768   0.808
63864W        W27632  17.209  27.446   2.897
63865W        W27633  36.032  17.668  13.974
63866W        W27634  10.867  28.539   1.352
63867W        W27635   3.442  13.269   1.929
63868W        W27636  34.988  37.977  10.457
63869W        W27637  19.093   5.429  14.000
63870W        W27638   3.842   6.713  10.894
63871W        W27639  10.707  44.994   2.868
63872W        W27640   5.831  32.090   5.266
63873W        W27641  38.555  36.959  14.424
63874W        W27642  14.209  44.930   4.752
63875W        W27643  19.102  19.664  12.413
63876W        W27644  31.487  31.454  12.384
63877W        W27645  28.625   8.764  12.387
63878W        W27646  19.107   8.681   0.740
63879W        W27647  20.573  34.573   4.298
63880W        W27648  38.502  37.548  11.543
63881W        W27649  12.218  15.581   9.948
63882W        W27650  43.897  39.458   3.164
63883W        W27651  23.676  19.259  12.477
63884W        W27652   6.261  42.287  11.868
63885W        W27653  41.988  10.709   2.401
63886W        W27654   7.789  37.551   5.305
63887W        W27655   1.817  10.665   1.848
63888W        W27656  44.978  33.029  13.958
63889W        W27657  30.018  18.200  14.788
63890W        W27658   7.381   2.433   0.476
63891W        W27659  27.079  43.815   1.803
63892W        W27660  22.538  30.421  12.571
63893W        W27661  23.060  26.538  11.475
63894W        W27662  32.452  39.433   0.882
63895W        W27663  36.352  42.031   1.839
63896W        W27664  18.605  11.171   0.251
63897W        W27665  24.518   3.917  13.915
63898W        W27666  37.872  28.471  14.425
63899W        W27667  34.918  26.549   3.662
63900W        W27668  19.188   9.671  11.950
63901W        W27669  29.009  15.728  10.996
63902W        W27670   9.162  17.582  11.980
63903W        W27671  41.383  14.747  13.397
63904W        W27672  39.869  37.441  11.014
63905W        W27673  15.766  23.216   2.762
63906W        W27674   8.171   3.852  12.493
63907W        W27675  39.058  39.554  12.478
63908W        W27676  11.359  28.572   1.351
63909W        W27677  10.376  38.544  14.435
63910W        W27678  35.530  32.460  14.419
63911W        W27679  11.371  12.279  12.021
63912W        W27680  38.463  28.499  10.039
63913W        W27681  28.597  14.755   0.730
63914W        W27682  32.988  11.634   4.279
63915W        W27683  30.647  30.441  10.448
63916W        W27684  33.450  19.242  14.957
63917W        W27685  18.253   9.379   0.291
63918W        W27686  19.139  11.810   0.830
63919W        W27687  38.456  30.994  13.416
63920W        W27688  17.575  16.625   0.854
63921W        W27689  33.113  40.400  12.926
63922W        W27690  11.154  14.294  13.871
63923W        W27691  36.559  17.223  10.547
63924W        W27692  11.301  27.539  13.819
63925W        W27693   6.272  34.934   0.299
63926W        W27694   7.898  41.806  12.353
63927W        W27695   8.226  15.707   2.829
63928W        W27696  21.548  42.785   3.851
63929W        W27697  29.466   7.814   4.666
63930W        W27698   3.244  42.930  14.986
63931W        W27699  23.153  32.411   2.686
63932W        W27700  34.408  44.454  12.384
63933W        W27701   4.725  42.956   2.877
63934W        W27702  25.181  15.278   4.173
63935W        W27703  10.317  36.934   1.271
63936W        W27704   9.718  12.661   4.810
63937W        W27705   0.384  42.986   1.343
63938W        W27706  20.651  10.854  11.960
63939W        W27707  34.987  30.986   3.355
63940W        W27708  38.880  32.017   4.805
63941W        W27709   6.770  26.165   4.166
63942W        W27710  20.745  39.852  14.837
63943W        W27711  20.592  18.124   4.743
63944W        W27712   5.758  39.386  14.311
63945W        W27713  19.246  37.439   4.275
63946W        W27714  24.999  37.380   2.336
63947W        W27715  44.260  12.706   0.727
63948W        W27716   7.223  29.095   2.234
63949W        W27717  19.718  44.381  12.841
63950W        W27718  28.115   7.281  10.959
63951W        W27719  15.294  14.805   1.362
63952W        W27720  39.997  12.802  12.909
63953W        W27721   6.762   7.908  14.999
63954W        W27722  16.109  28.521  10.915
63955W        W27723   7.312   6.386  14.356
63956W        W27724   4.213  33.885   0.384
63957W        W27725  26.031  25.216  12.011
63958W        W27726   0.442  27.470  10.479
63959W        W27727  15.665  24.535   2.325
63960W        W27728   0.253  24.510   0.942
63961W        W27729  11.359   5.701   1.393
63962W        W27730  29.054  30.107  11.443
63963W        W27731   4.716   7.179   4.652
63964W        W27732  27.498  17.752   4.801
63965W        W27733  33.558  25.616  12.527
63966W        W27734  26.134  16.133  11.558
63967W        W27735  15.196  33.115  12.964
63968W        W27736  26.581  15.811   0.437
63969W        W27737  28.037  14.715  14.387
63970W        W27738  30.039   7.734  11.421
63971W        W27739   6.383  42.828  10.530
63972W        W27740  11.681  34.080  11.418
63973W        W27741  11.797  16.654   1.761
63974W        W27742  31.938  39.877  12.441
63975W        W27743  32.531  33.381  13.372
63976W        W27744   7.212  11.344  10.430
63977W        W27745  23.112   1.460   1.795
63978W        W27746  44.417  27.496  11.391
63979W        W27747   3.756  29.631   2.330
63980W        W27748  16.594  20.557  14.780
63981W        W27749  39.560  17.264  13.897
63982W        W27750  24.496   9.689   1.228
63983W        W27751   3.851   4.387  11.892
63984W        W27752  23.631  37.350  14.842
63985W        W27753  33.480  38.556   0.881
63986W        W27754  27.008   3.371  14.996
63987W        W27755  26.041  33.893  13.953
63988W        W27756   2.765  39.386   1.308
63989W        W27757  20.133  11.180  14.363
63990W        W27758  40.028   2.897   0.913
63991W        W27759   2.767   7.307   1.731
63992W        W27760  37.482  40.337  12.496
63993W        W27761  40.392  17.112  13.337
63994W        W27762  19.154   8.797   3.227
63995W        W27763  31.634   5.194   0.443
63996W        W27764  11.757  44.300   3.146
63997W        W27765  10.737  37.429   4.305
63998W        W27766  25.218   2.756   3.197
63999W        W27767  29.583  13.679   1.289
64000W        W27768   9.302  31.976   3.852
64001W        W27769  10.785  34.420  12.845
64002W        W27770  11.806  28.644   0.401
64003W        W27771  24.209  43.328  14.784
64004W        W27772   3.761  21.651  14.291
64005W        W27773  12.707   5.871  14.337
64006W        W27774   4.818   1.736   4.231
64007W        W27775  39.450  28.011   1.442
64008W        W27776  28.494  20.668   1.734
64009W        W27777  22.639  31.943  14.801
64010W        W27778  11.674   3.929  12.853
64011W        W27779  33.987  22.572  14.964
64012W        W27780  26.107  18.575  13.444
64013W        W27781  18.764   4.336   1.763
64014W        W27782  27.513  18.670  12.496
64015W        W27783   7.411   3.895  12.570
64016W        W27784  22.666  25.594  14.356
64017W        W27785  35.932  22.742   1.266
64018W        W27786   4.768   7.787   2.675
64019W        W27787  28.931  37.874   0.290
64020W        W27788  17.248  33.553  12.474
64021W        W27789  42.944  44.863  11.580
64022W        W27790   6.770  35.082   3.218
64023W        W27791  16.658  33.594   4.761
64024W        W27792  30.163  22.249   1.785
64025W        W27793  41.305  30.644  11.500
64026W        W27794  15.583   6.421   3.703
64027W        W27795  25.477  21.080   2.741
64028W        W27796  41.538   0.341  14.391
64029W        W27797   4.230   4.296   0.939
64030W        W27798  13.793  30.618   2.760
64031W        W27799  38.406  35.912  13.007
64032W        W27800  28.971  39.347   2.743
64033W        W27801  20.687  13.709  11.918
64034W        W27802  27.174  22.171  14.315
64035W        W27803  34.888  23.695  13.953
64036W        W27804   3.214   0.438   3.857
64037W        W27805  39.843   3.947   0.269
64038W        W27806  42.015  10.845   1.836
64039W        W27807   9.676  25.984   0.272
64040W        W27808  37.934   4.845   4.182
64041W        W27809  30.471  33.031   3.370
64042W        W27810  17.204  34.445  10.452
64043W        W27811  28.125  16.595  12.955
64044W        W27812  11.314  33.093  13.459
64045W        W27813  29.481  15.704   3.318
64046W        W27814  28.100  43.020  14.511
64047W        W27815  28.064  31.133  14.491
64048W        W27816  12.228  22.510  10.963
64049W        W27817  23.035  15.220  10.499
64050W        W27818  26.043   7.834   4.814
64051W        W27819  23.651   4.699   1.329
64052W        W27820  26.963  18.124   4.264
64053W        W27821  21.719  34.904   4.230
64054W        W27822  12.668  25.482   1.804
64055W        W27823   0.835  28.177   5.115
64056W        W27824   9.325  21.593   4.674
64057W        W27825  36.990   0.361  10.515
64058W        W27826   8.187  19.642   0.826
64059W        W27827  42.935  13.628   0.778
64060W        W27828   4.770  18.680  10.419
64061W        W27829  29.964  20.177  12.553
64062W        W27830  13.722  27.572   4.288
64063W        W27831   4.936  16.087   0.429
64064W        W27832  20.186   0.938   0.777
64065W        W27833  26.009   0.868  11.452
64066W        W27834   2.811   4.277  13.430
64067W        W27835  25.589  34.884  12.041
64068W        W27836  29.982  16.577   5.191
64069W        W27837  35.974  30.154  12.928
64070W        W27838  41.942  21.677   0.840
64071W        W27839   0.262  29.963  12.876
64072W        W27840  16.311  18.547   4.195
64073W        W27841   4.262  36.991  12.382
64074W        W27842  13.108  18.282  12.469
64075W        W27843  40.990  12.680   4.634
64076W        W27844  28.992  39.324  13.849
64077W        W27845  42.925  16.102  12.075
64078W        W27846  20.224  44.870   3.342
64079W        W27847  27.036  11.296  10.908
64080W        W27848  35.386   3.732  12.845
64081W        W27849   0.941  36.090  12.352
64082W        W27850  15.630  16.190   5.299
64083W        W27851  30.601   4.407  10.520
64084W        W27852  30.622  42.328  11.982
64085W        W27853   4.794   7.212  13.546
64086W        W27854   9.335  17.158  13.332
64087W        W27855   6.250   6.213  12.018
64088W        W27856  33.119  31.404   2.250
64089W        W27857  15.246  37.378  13.380
64090W        W27858  38.053  22.207  14.867
64091W        W27859   2.807   8.752   3.670
64092W        W27860   7.829  33.125   3.209
64093W        W27861   9.395   6.208  14.513
64094W        W27862  25.667  28.026  14.828
64095W        W27863  26.624  34.527   3.641
64096W        W27864  42.404  11.167   4.608
64097W        W27865  37.870   7.279  14.310
64098W        W27866  33.392  14.238  10.888
64099W        W27867  20.757  21.563  13.487
64100W        W27868   9.187  21.034   4.180
64101W        W27869   3.231   0.892  11.125
64102W        W27870  36.522  11.690  14.008
64103W        W27871  40.029   4.275  11.006
64104W        W27872   9.307  28.001  12.894
64105W        W27873  38.960  34.073  10.121
64106W        W27874  43.903  27.015  14.427
64107W        W27875  23.119  36.863   2.233
64108W        W27876  22.997  39.558   4.752
64109W        W27877   4.848  43.435   2.802
64110W        W27878  41.817   3.358   1.765
64111W        W27879  21.141   6.692  14.951
64112W        W27880  38.546  25.089  14.988
64113W        W27881   4.703   7.290   3.767
64114W        W27882  34.105  32.960   2.228
64115W        W27883  33.613  42.851   3.216
64116W        W27884  20.232  42.354  11.041
64117W        W27885  39.863  25.120  14.983
64118W        W27886  10.195  24.125   0.292
64119W        W27887  24.165  41.854   0.365
64120W        W27888  32.031  27.636   1.718
64121W        W27889  18.749  33.963   2.339
64122W        W27890  24.007  19.244  11.863
64123W        W27891  19.751  41.890  12.453
64124W        W27892  39.530  32.450  14.008
64125W        W27893  27.674  44.926   3.737
64126W        W27894  10.742  41.834   2.301
64127W        W27895  14.719  38.853  12.993
64128W        W27896   1.946  22.160  12.052
64129W        W27897   5.217  41.814  10.580
64130W        W27898  40.518  12.163  14.819
64131W        W27899   0.916  44.504  13.471
64132W        W27900  34.972  11.756   5.313
64133W        W27901  20.179   0.788  14.490
64134W        W27902  36.858  10.726  14.866
64135W        W27903   7.835   6.681   3.386
64136W        W27904  41.959   4.799   1.771
64137W        W27905  34.505   0.280  12.343
64138W        W27906  34.600  23.138   1.328
64139W        W27907  10.661  39.974  14.798
64140W        W27908  22.737  20.552   4.283
64141W        W27909  16.318  12.200  12.566
64142W        W27910  16.303   5.348   0.956
64143W        W27911  42.784  30.490  11.887
64144W        W27912  10.377  41.041  10.962
64145W        W27913  14.608  43.332  13.344
64146W        W27914   8.738   3.869  11.490
64147W        W27915  25.563  11.266   0.905
64148W        W27916   0.864  35.956  12.950
64149W        W27917   1.922  17.676  12.943
64150W        W27918   2.808   6.313   4.240
64151W        W27919  12.815  25.999   0.863
64152W        W27920  26.137  41.336  10.580
64153W        W27921  44.403   7.821   2.723
64154W        W27922  30.594  10.781  12.568
64155W        W27923  18.762  39.018   9.930
64156W        W27924  11.242  22.557  13.458
64157W        W27925  30.426  11.247   0.733
64158W        W27926  29.007  31.146   4.308
64159W        W27927  25.048  23.625  11.058
64160W        W27928   0.863   0.377   1.831
64161W        W27929   6.698  36.916   0.334
64162W        W27930   3.262  10.720   2.679
64163W        W27931  22.556  13.187   4.321
64164W        W27932  13.185  18.095  13.995
64165W        W27933  20.717  18.276  12.468
64166W        W27934  44.844  20.254  12.543
64167W        W27935   2.370  43.448  13.368
64168W        W27936  14.759  17.738   3.725
64169W        W27937  37.398  36.431   0.850
64170W        W27938  30.107  30.143   3.268
64171W        W27939  25.662   8.797   2.306
64172W        W27940   4.884  24.082  13.920
64173W        W27941  15.175  27.511  11.471
64174W        W27942  11.786  29.432   2.719
64175W        W27943  44.888   5.730  12.041
64176W        W27944  28.483  23.570  13.929
64177W        W27945  16.781   7.828   2.800
64178W        W27946   8.865  29.098   4.199
64179W        W27947  33.886  33.459   1.828
64180W        W27948  40.850  11.630  11.966
64181W        W27949  31.031  42.793   0.957
64182W        W27950  28.531  14.104   0.282
64183W        W27951  37.059  19.181  13.341
64184W        W27952  23.054   0.844  10.442
64185W        W27953  24.524  10.183   9.521
64186W        W27954   7.778  15.155  14.941
64187W        W27955  29.934  40.359   0.400
64188W        W27956   7.775   9.361   4.203
64189W        W27957  37.403  43.984  12.419
64190W        W27958  41.038  12.685  14.309
64191W        W27959  16.301  10.186  13.348
64192W        W27960   4.209  10.672  14.354
64193W        W27961  11.275  15.699  11.111
64194W        W27962  21.036  33.381   2.773
64195W        W27963  29.589  11.756  10.106
64196W        W27964   4.894  42.503   0.442
64197W        W27965  29.971  25.678  13.380
64198W        W27966  35.542  23.726  13.509
64199W        W27967  30.622  33.126   0.338
64200W        W27968  28.091  22.012  14.877
64201W        W27969  40.460  16.628  12.890
64202W        W27970  44.798  39.939   3.706
64203W        W27971  19.104  13.628   3.222
64204W        W27972  38.523  22.640   1.450
64205W        W27973  14.652  42.437  11.099
64206W        W27974  16.590   5.235   3.200
64207W        W27975  34.901  12.803  11.954
64208W        W27976  15.099  18.672  13.496
64209W        W27977   2.465  14.770   3.783
64210W        W27978   9.263  28.053   0.455
64211W        W27979   2.336   5.435   0.878
64212W        W27980  40.350  39.892  12.416
64213W        W27981  36.438  31.042  14.396
64214W        W27982  39.421  11.284   2.262
64215W        W27983   7.197   8.265  14.917
64216W        W27984  23.614  26.955  12.535
64217W        W27985  18.570  29.093  14.013
64218W        W27986  30.942   5.355   1.890
64219W        W27987  27.557  31.414  12.383
64220W        W27988  18.158  21.664   4.288
64221W        W27989  25.484  38.909   4.270
64222W        W27990  41.910  41.932   0.741
64223W        W27991  28.642  40.459   3.785
64224W        W27992  10.722  17.236   3.365
64225W        W27993  20.268  32.475  11.930
64226W        W27994   9.326  11.347  14.775
64227W        W27995  28.940   0.491   3.658
64228W        W27996  13.260  43.826  10.463
64229W        W27997  36.025  20.655   1.372
64230W        W27998  30.036  19.284  14.806
64231W        W27999  21.170  13.807   1.763
64232W        W28000  35.583  44.819   4.315
64233W        W28001  13.613   3.320   3.773
64234W        W28002  33.917   6.204  10.557
64235W        W28003  11.188   8.844  12.971
64236W        W28004   7.292  30.069  10.409
64237W        W28005   3.450   5.814  12.879
64238W        W28006  19.653  29.036  10.125
64239W        W28007  22.556  30.554   5.201
64240W        W28008  13.175  25.549  10.437
64241W        W28009   4.870  39.336   4.164
64242W        W28010  40.914  10.338   0.292
64243W        W28011  16.223  42.494   1.231
64244W        W28012  36.045  44.265  11.985
64245W        W28013  29.569   8.886   1.256
64246W        W28014   8.879  23.190   0.263
64247W        W28015  13.793  28.621  14.368
64248W        W28016  37.417  14.655  14.420
64249W        W28017  15.648   9.326  11.069
64250W        W28018  15.733  35.931   4.833
64251W        W28019  37.960  38.531   0.474
64252W        W28020   5.789  41.994   1.893
64253W        W28021  37.483  24.159  13.495
64254W        W28022   8.201  21.172   4.146
64255W        W28023  36.560  34.457   4.260
64256W        W28024  28.032  30.006  11.392
64257W        W28025  25.159  17.118  11.914
64258W        W28026  25.498  41.361   1.355
64259W        W28027  14.199   0.961   2.212
64260W        W28028  31.635   7.853   2.360
64261W        W28029   1.403  19.763   4.153
64262W        W28030  28.091  13.679   1.753
64263W        W28031   4.360  16.227   0.366
64264W        W28032  43.874  27.492   3.234
64265W        W28033  22.666  22.108   2.381
64266W        W28034  30.466  12.750  14.511
64267W        W28035   3.323  30.995  10.976
64268W        W28036  20.031  10.347   9.921
64269W        W28037  35.887  20.186   0.819
64270W        W28038  13.764  17.686  13.982
64271W        W28039  37.395  26.205  14.398
64272W        W28040  38.027   4.276   3.739
64273W        W28041  26.575  32.888  10.509
64274W        W28042  13.799  27.056  10.925
64275W        W28043  29.046  21.128  11.552
64276W        W28044  34.573  44.930  11.867
64277W        W28045  29.474  11.744  13.536
64278W        W28046  43.277  21.529   3.165
64279W        W28047  42.956  28.648  14.297
64280W        W28048  25.118   2.334  13.834
64281W        W28049  43.499   1.747  14.017
64282W        W28050  42.882  37.466   4.206
64283W        W28051  15.221   7.190  11.066
64284W        W28052   7.809  18.100   1.210
64285W        W28053  44.789  11.365   3.644
64286W        W28054  17.666  31.966   2.259
64287W        W28055  29.164  20.718   4.754
64288W        W28056  29.519   3.843   2.233
64289W        W28057  26.188  35.872  10.990
64290W        W28058   9.157  34.461  14.892
64291W        W28059   9.293   1.738   0.416
64292W        W28060  22.587  21.514  10.466
64293W        W28061  15.306  40.331   0.726
64294W        W28062   0.368   0.332   4.334
64295W        W28063  22.225   8.254   0.297
64296W        W28064  29.087  21.173   3.158
64297W        W28065  11.333  24.148  12.090
64298W        W28066  14.304  34.476  13.815
64299W        W28067  15.616   3.723  10.999
64300W        W28068   6.788  36.017   0.782
64301W        W28069   0.918  24.021  13.511
64302W        W28070  12.301  43.451  14.444
64303W        W28071   1.891  42.362   3.821
64304W        W28072  20.243   5.866  11.593
64305W        W28073  15.212  35.471   3.824
64306W        W28074  41.799  17.556   3.710
64307W        W28075   3.714  42.491   2.838
64308W        W28076  23.991  39.338   2.295
64309W        W28077  12.230  38.475  10.487
64310W        W28078  33.402   1.442   3.793
64311W        W28079   1.785  15.274   3.206
64312W        W28080  38.020  30.632  13.370
64313W        W28081  34.542  20.102   1.753
64314W        W28082  30.067  38.382   4.832
64315W        W28083   1.359  39.350  11.034
64316W        W28084  16.705  14.172   3.180
64317W        W28085   5.763  24.009  11.886
64318W        W28086   8.238  17.269  14.982
64319W        W28087  32.600   1.444   1.799
64320W        W28088  37.853  36.013  14.332
64321W        W28089  17.696  24.985  12.941
64322W        W28090   0.310   8.751  12.564
64323W        W28091  23.684  34.108   1.337
64324W        W28092  23.571  16.118   3.797
64325W        W28093  34.079   2.231   2.818
64326W        W28094  33.900   2.952   3.848
64327W        W28095  42.305   5.403  11.099
64328W        W28096  10.195  13.286  13.919
64329W        W28097  26.470   7.245   2.340
64330W        W28098   1.466  25.692  13.488
64331W        W28099  34.462  33.415   3.656
64332W        W28100  36.093  16.649  12.855
64333W        W28101   7.271  35.470   2.871
64334W        W28102  29.563  44.456  12.509
64335W        W28103  13.788   9.249   3.278
64336W        W28104  43.393  22.123   2.359
64337W        W28105  24.572  32.431  12.937
64338W        W28106  21.262  37.564   5.138
64339W        W28107  22.510   0.839   2.235
64340W        W28108  15.288   7.801  12.926
64341W        W28109  41.438  30.073   5.654
64342W        W28110  22.070  32.417   0.886
64343W        W28111  36.997  17.612  11.471
64344W        W28112  13.175  29.078   2.761
64345W        W28113   5.732  41.446   2.726
64346W        W28114  30.078  37.397   3.677
64347W        W28115  20.643  24.544   4.286
64348W        W28116  39.038  11.176  11.574
64349W        W28117  26.181  15.257   0.451
64350W        W28118  16.076   2.873  13.347
64351W        W28119  29.161  35.883   0.412
64352W        W28120  36.409   8.402  11.490
64353W        W28121  26.621   4.379  13.448
64354W        W28122  15.672   9.715  11.934
64355W        W28123  27.009  28.628  10.938
64356W        W28124  17.241  29.955   1.230
64357W        W28125  30.438   9.883  14.769
64358W        W28126  26.497  34.005   4.126
64359W        W28127  16.602   3.889  12.827
64360W        W28128   0.975  32.592  11.968
64361W        W28129  18.758  40.032   1.409
64362W        W28130  25.570  29.173   0.252
64363W        W28131   1.238   1.833  14.994
64364W        W28132   3.884  34.028   5.272
64365W        W28133  38.490  39.048   1.400
64366W        W28134  27.159  31.920   2.838
64367W        W28135   0.944  22.621   3.317
64368W        W28136  28.979  42.520   2.739
64369W        W28137  34.896   8.700   2.886
64370W        W28138  26.070   5.692   4.599
64371W        W28139  35.103   5.338   3.303
64372W        W28140  44.308   2.857   2.776
64373W        W28141  12.801  18.663   4.703
64374W        W28142  22.148  37.084   4.626
64375W        W28143  35.450  22.599   1.819
64376W        W28144  15.145  44.924   1.288
64377W        W28145  33.432   5.777   4.653
64378W        W28146  44.884   2.928   0.872
64379W        W28147  35.999  26.978   3.330
64380W        W28148  25.625  34.042  13.311
64381W        W28149  25.533  20.239   3.729
64382W        W28150  11.654  27.552  12.949
64383W        W28151  42.471  29.515   2.735
64384W        W28152  16.227  39.971   1.373
64385W        W28153   7.841   3.457   0.757
64386W        W28154   1.347   6.813   2.321
64387W        W28155  19.123  32.566   4.116
64388W        W28156  19.764  28.162   5.114
64389W        W28157  22.546  21.059   3.369
64390W        W28158   3.794   6.208   1.375
64391W        W28159  42.858   3.709   1.413
64392W        W28160   5.718  33.928   4.125
64393W        W28161  18.088  15.124  10.433
64394W        W28162  23.529  11.214  12.944
64395W        W28163  42.029   1.788   5.300
64396W        W28164  20.045  26.122   3.307
64397W        W28165   5.265  34.005  11.013
64398W        W28166  16.622  14.715   3.177
64399W        W28167  23.149  37.072  14.945
64400W        W28168  40.858  32.129   4.299
64401W        W28169  39.984  37.975   3.308
64402W        W28170  16.146   8.720  11.526
64403W        W28171  34.897   5.390   1.928
64404W        W28172  21.229  13.753   1.221
64405W        W28173  24.685   3.936   0.873
64406W        W28174   0.411  16.687   1.402
64407W        W28175  37.882  13.232   4.339
64408W        W28176  31.097  16.206   9.613
64409W        W28177   7.281  17.797  13.885
64410W        W28178  30.484  16.217  13.513
64411W        W28179  27.127   3.880  12.398
64412W        W28180   1.313  40.866  13.472
64413W        W28181  33.551  37.953   3.371
64414W        W28182  31.428  40.479   1.814
64415W        W28183  11.716  41.849  14.383
64416W        W28184  42.303  32.990   0.868
64417W        W28185  37.531   5.355  10.040
64418W        W28186   0.466  36.041  12.852
64419W        W28187  34.102  23.620  13.833
64420W        W28188  37.862  40.913   4.201
64421W        W28189  20.156  41.426   3.247
64422W        W28190  41.044  25.140   3.276
64423W        W28191  12.192  11.348   1.759
64424W        W28192  18.197  30.947   2.365
64425W        W28193  32.460  42.479  14.277
64426W        W28194  14.332   7.247  12.898
64427W        W28195  32.551  30.588  12.467
64428W        W28196  28.185  34.492  12.875
64429W        W28197   3.378   3.338  12.055
64430W        W28198   2.337  24.047  10.481
64431W        W28199   5.250  44.434   2.319
64432W        W28200   4.261  29.069   1.398
64433W        W28201  21.237  14.240   0.747
64434W        W28202  10.686  15.664  14.842
64435W        W28203  43.481  19.083   2.300
64436W        W28204  38.973   4.849  14.281
64437W        W28205  20.249  34.120   3.742
64438W        W28206   8.859  17.650  14.795
64439W        W28207  25.993  35.952   0.887
64440W        W28208  13.601  25.627   3.379
64441W        W28209  22.747  31.597  11.008
64442W        W28210   0.919  25.080  14.476
64443W        W28211  26.145  22.063   0.751
64444W        W28212  29.500  38.406  13.873
64445W        W28213  13.195  20.094   2.234
64446W        W28214   1.480  40.881   3.297
64447W        W28215  32.550  22.032  10.964
64448W        W28216  12.756  29.625  14.883
64449W        W28217   6.706  31.060   2.796
64450W        W28218   1.954  37.911   9.453
64451W        W28219  30.624  17.766  14.922
64452W        W28220  20.074  27.641   2.882
64453W        W28221  22.727  26.169  11.870
64454W        W28222  37.491  19.186  13.335
64455W        W28223  25.470  17.695   3.206
64456W        W28224  17.556  30.483  13.874
64457W        W28225   3.402  26.468  14.460
64458W        W28226  12.129   1.394   4.799
64459W        W28227  13.346  25.672   0.422
64460W        W28228   6.359  39.320   2.662
64461W        W28229  36.853  27.472  14.769
64462W        W28230  37.380  21.137  10.640
64463W        W28231  41.838   7.327   0.944
64464W        W28232   8.851  10.270  14.416
64465W        W28233   9.870  36.993  13.489
64466W        W28234  36.886   0.352   4.719
64467W        W28235   6.896  27.531  14.988
64468W        W28236   9.329  33.471   0.777
64469W        W28237  32.063  38.925  13.939
64470W        W28238   5.221  32.431  13.848
64471W        W28239  25.161   2.792  14.881
64472W        W28240  15.224  36.031  14.977
64473W        W28241  25.660   9.347  12.995
64474W        W28242  32.398   5.308  10.422
64475W        W28243  32.559  16.714  12.853
64476W        W28244  26.974   2.888   0.738
64477W        W28245  31.128  20.100   4.177
64478W        W28246  30.659   2.939  12.479
64479W        W28247  32.561   3.780  13.944
64480W        W28248  42.356  19.688  12.899
64481W        W28249  39.877   0.279   0.861
64482W        W28250   6.690   6.251  12.059
64483W        W28251   5.207  43.969   2.376
64484W        W28252  23.727  39.022  12.532
64485W        W28253  24.010   6.394   5.206
64486W        W28254  26.484   8.318   0.889
64487W        W28255  38.850  15.749   2.215
64488W        W28256  19.771  14.782   4.717
64489W        W28257   0.871  43.982  14.316
64490W        W28258   7.704   6.427   4.778
64491W        W28259   9.748  31.072  13.888
64492W        W28260   5.400  18.637  13.439
64493W        W28261   5.300  38.063   1.751
64494W        W28262  38.936   5.438   4.295
64495W        W28263   1.956  14.183   4.691
64496W        W28264   4.323   9.207   4.119
64497W        W28265  15.720  40.033   3.759
64498W        W28266  23.548  22.622  13.930
64499W        W28267  19.214  13.726   1.430
64500W        W28268  32.603  20.763   4.137
64501W        W28269  30.446  32.550  12.488
64502W        W28270  16.716  25.077  12.037
64503W        W28271  18.776  21.225   1.758
64504W        W28272  10.857  43.448   2.835
64505W        W28273  25.617  44.754   4.206
64506W        W28274  23.691  24.089  12.947
64507W        W28275  44.353  13.252  13.014
64508W        W28276  22.064  40.055  12.497
64509W        W28277  31.086  20.679  10.537
64510W        W28278  24.549  24.509   1.345
64511W        W28279  30.060  16.587   2.208
64512W        W28280  35.897   2.302  13.874
64513W        W28281  16.697  24.000   5.217
64514W        W28282  18.285   4.291   4.297
64515W        W28283   2.460  42.403  11.983
64516W        W28284  27.550  11.348   3.689
64517W        W28285   3.795   9.322  14.770
64518W        W28286  23.609  29.960   4.740
64519W        W28287  25.670   1.870   3.824
64520W        W28288  34.073  32.042  14.330
64521W        W28289  28.085  40.959  11.109
64522W        W28290  21.648  32.970  10.530
64523W        W28291  28.640  44.310   1.725
64524W        W28292  22.102   2.826  11.112
64525W        W28293  31.033   2.769  12.505
64526W        W28294   3.924  12.270  12.339
64527W        W28295  27.659  25.488  12.997
64528W        W28296  11.310   9.332   9.637
64529W        W28297  14.251  23.225   2.725
64530W        W28298  31.989  21.597   3.163
64531W        W28299   8.313  11.726   0.316
64532W        W28300  44.819  30.541   2.330
64533W        W28301  11.682  29.431   5.274
64534W        W28302   5.356  14.249   4.184
64535W        W28303   5.428   1.289   0.730
64536W        W28304  23.649  10.286  14.951
64537W        W28305  30.648  31.971   2.343
64538W        W28306  18.102  38.412  14.293
64539W        W28307  17.778  39.475   0.254
64540W        W28308  21.185  35.560  14.418
64541W        W28309   0.288  42.788  10.515
64542W        W28310   4.857   2.793   3.738
64543W        W28311  33.602  13.262  11.008
64544W        W28312  35.991  29.057  10.421
64545W        W28313  18.068  12.202  10.548
64546W        W28314   8.822  14.305  11.056
64547W        W28315   8.836  30.466  14.852
64548W        W28316  43.349  44.788   4.778
64549W        W28317   0.832  44.389  14.030
64550W        W28318  21.592  27.114  11.372
64551W        W28319  28.674  27.484   4.770
64552W        W28320   5.915  29.974  12.831
64553W        W28321  29.055  29.473   0.256
64554W        W28322  24.568  30.162  14.443
64555W        W28323   2.951  17.586  12.936
64556W        W28324   8.405  31.943   0.368
64557W        W28325  41.383  12.313   4.127
64558W        W28326  38.880  43.771   4.249
64559W        W28327  27.189  27.035  14.482
64560W        W28328  28.604  44.768   3.387
64561W        W28329   7.819   2.815   2.767
64562W        W28330  17.276  21.121  13.478
64563W        W28331  20.235  41.528  10.551
64564W        W28332  16.739  19.578  14.490
64565W        W28333   7.907  33.037   2.818
64566W        W28334  16.201  32.456   3.685
64567W        W28335  24.172   4.866   5.190
64568W        W28336  16.810  23.665  10.535
64569W        W28337  28.062  34.504   4.695
64570W        W28338  22.028  27.945  13.397
64571W        W28339  18.709  17.061  10.478
64572W        W28340  33.975  44.405  10.925
64573W        W28341  24.675  17.187   1.877
64574W        W28342  39.994  27.583   4.238
64575W        W28343  43.394  34.105  13.801
64576W        W28344  41.952  42.963   0.934
64577W        W28345  26.493  30.470   9.999
64578W        W28346  15.235  24.984  12.953
64579W        W28347  36.350   1.409   2.353
64580W        W28348  35.013  31.444  11.938
64581W        W28349  29.135  21.209   4.748
64582W        W28350  17.660  42.463   1.836
64583W        W28351  37.961   2.855  13.375
64584W        W28352  12.156  13.632   5.192
64585W        W28353  28.166  11.139  11.027
64586W        W28354  30.510  32.975   2.668
64587W        W28355   0.325  28.651  14.511
64588W        W28356   4.353   5.327  12.463
64589W        W28357   5.404  38.555   1.233
64590W        W28358  12.627  13.769  11.052
64591W        W28359  20.696   9.783  12.402
64592W        W28360  36.078  34.518  10.544
64593W        W28361   4.775  36.447   4.809
64594W        W28362  16.128  38.428  12.071
64595W        W28363  25.544  14.696  14.965
64596W        W28364  16.715  33.036   1.892
64597W        W28365   5.230  16.589   4.788
64598W        W28366  12.189  21.128  12.913
64599W        W28367  17.658  34.910  13.443
64600W        W28368  39.049  17.087   0.479
64601W        W28369  36.013  30.481   4.230
64602W        W28370  16.113   1.305   2.248
64603W        W28371  42.359  34.098   3.724
64604W        W28372  25.606  29.524   2.278
64605W        W28373   3.720  33.952   2.211
64606W        W28374  15.233  10.836   0.814
64607W        W28375  10.721   6.187  10.484
64608W        W28376  16.237  38.904  10.956
64609W        W28377  25.550  41.495   2.200
64610W        W28378  13.317  26.526   5.291
64611W        W28379  32.590  23.228   0.308
64612W        W28380   8.299  15.125   4.654
64613W        W28381  26.995  29.438  11.457
64614W        W28382  29.497   3.390   2.884
64615W        W28383  20.128  37.382  11.460
64616W        W28384   4.913  36.969   0.783
64617W        W28385  13.307  31.982   2.885
64618W        W28386   4.313  43.453   4.824
64619W        W28387  43.321  40.435   4.130
64620W        W28388   1.433  25.196   2.385
64621W        W28389  10.775  26.601   0.424
64622W        W28390   8.711  31.506   1.352
64623W        W28391   7.816  15.316  13.371
64624W        W28392  11.317  16.185  12.880
64625W        W28393  28.490  26.997  12.052
64626W        W28394   9.228  16.595   3.769
64627W        W28395   6.371  39.429   4.682
64628W        W28396  28.548  41.498   3.853
64629W        W28397  31.009  42.426  11.942
64630W        W28398  40.402   1.478  13.956
64631W        W28399  33.577  41.833   1.431
64632W        W28400  26.501  13.642   2.217
64633W        W28401   3.233  44.377  10.583
64634W        W28402  29.649  14.232   3.232
64635W        W28403   5.286  30.149  12.880
64636W        W28404   4.787  32.992  14.918
64637W        W28405  44.283  40.549   1.906
64638W        W28406  13.842  28.656   0.766
64639W        W28407  25.608  25.486  13.812
64640W        W28408  36.432  22.148   0.914
64641W        W28409  18.749  14.270  14.984
64642W        W28410   4.372   3.918  14.002
64643W        W28411  32.990   2.914   0.752
64644W        W28412  32.904  29.667  11.452
64645W        W28413  31.434   2.896   3.270
64646W        W28414   7.350  13.740   0.342
64647W        W28415  18.745   7.338   2.339
64648W        W28416  43.914  26.669   3.691
64649W        W28417  42.798   4.211   0.813
64650W        W28418  13.685  39.948   4.632
64651W        W28419  25.188   9.670   1.225
64652W        W28420   2.380  36.485   1.402
64653W        W28421  16.748  42.964   0.376
64654W        W28422  41.311  38.461  14.933
64655W        W28423   5.764   7.341  12.044
64656W        W28424  33.440  38.327   0.356
64657W        W28425  23.567  41.975   2.817
64658W        W28426  19.536  29.959   2.412
64659W        W28427  11.278  20.132   4.719
64660W        W28428  31.114  10.800  10.475
64661W        W28429  40.841  26.668   3.716
64662W        W28430  19.285  21.055  10.586
64663W        W28431  17.097  20.621   3.829
64664W        W28432  10.857  38.995  11.880
64665W        W28433   5.390   6.284  12.998
64666W        W28434  43.793  39.511   1.350
64667W        W28435  16.693  28.944  14.775
64668W        W28436  20.553  27.460  13.802
64669W        W28437   3.402  39.864  10.504
64670W        W28438  10.857   4.272   4.733
64671W        W28439  35.053  20.528  11.486
64672W        W28440  34.589  27.542   4.829
64673W        W28441  39.492  15.155   0.918
64674W        W28442  40.987  23.056  12.914
64675W        W28443   2.799  18.264   2.798
64676W        W28444  39.415   0.938   0.426
64677W        W28445  27.449  16.175  14.484
64678W        W28446  26.096  24.571  13.802
64679W        W28447  27.160  16.305   1.714
64680W        W28448  37.495  19.758   4.228
64681W        W28449   3.395   9.714   4.621
64682W        W28450  39.322  29.074   0.760
64683W        W28451  30.434  39.560  11.861
64684W        W28452  25.542  38.571  13.379
64685W        W28453   8.238  43.505  14.510
64686W        W28454  28.979   7.319   4.799
64687W        W28455   9.258  25.058  12.525
64688W        W28456  30.496  24.071  14.460
64689W        W28457  32.469  19.145  13.476
64690W        W28458   4.706  10.367   1.310
64691W        W28459  23.721  14.770  14.017
64692W        W28460   8.330  43.998   1.211
64693W        W28461  12.248  36.926  12.826
64694W        W28462  38.460  33.994   3.701
64695W        W28463  30.105  16.750  10.645
64696W        W28464  33.969  25.045   4.178
64697W        W28465  11.687  23.625   3.353
64698W        W28466  19.567   4.890   0.776
64699W        W28467  23.540   5.422   0.336
64700W        W28468  18.201  39.977  13.987
64701W        W28469  42.309  43.829   0.399
64702W        W28470  18.586  14.673  14.509
64703W        W28471  38.053  10.361  14.984
64704W        W28472  24.125  14.765  12.449
64705W        W28473  17.686  43.473   4.762
64706W        W28474  13.627  44.463   3.200
64707W        W28475  24.126   3.265  11.016
64708W        W28476  29.962  11.820   1.915
64709W        W28477  35.380  20.270  10.514
64710W        W28478   3.276   4.254   3.630
64711W        W28479  42.935  23.172   1.446
64712W        W28480  27.006   2.875  13.427
64713W        W28481  16.648  13.133  11.888
64714W        W28482  25.985   4.738  14.277
64715W        W28483  31.621   0.445  14.278
64716W        W28484  42.940   6.680   3.160
64717W        W28485  36.415  21.189   4.194
64718W        W28486   3.798  44.334  14.435
64719W        W28487  40.038  31.466  11.515
64720W        W28488  35.594  19.703  12.443
64721W        W28489  14.683   6.337   4.835
64722W        W28490  17.106  24.711   4.351
64723W        W28491  17.673  38.445  10.583
64724W        W28492  15.135  10.761  13.050
64725W        W28493   3.333  15.108   3.762
64726W        W28494  41.458  23.991  10.969
64727W        W28495  30.013  25.706  11.382
64728W        W28496  39.975   8.328  11.928
64729W        W28497  13.688   5.866  12.573
64730W        W28498   9.233   6.796  13.518
64731W        W28499  18.150  30.489   0.846
64732W        W28500  15.768  14.116  10.581
64733W        W28501  30.951   5.869  14.906
64734W        W28502   1.825  13.338   1.323
64735W        W28503  23.066  34.441   4.654
64736W        W28504  38.330  22.504   4.191
64737W        W28505   7.255  25.098  12.442
64738W        W28506  33.571  15.127  11.502
64739W        W28507  13.269   7.335  11.478
64740W        W28508   8.191  27.043  11.398
64741W        W28509   3.935  18.616   0.278
64742W        W28510   7.218  15.789  10.505
64743W        W28511  10.162   6.282  11.865
64744W        W28512  28.009  13.303  10.600
64745W        W28513  20.061   5.402  12.953
64746W        W28514  18.277   0.849  11.001
64747W        W28515  16.101   1.822   2.699
64748W        W28516   4.771  11.364   0.769
64749W        W28517  23.527  15.630   3.163
64750W        W28518   0.387  16.599  13.543
64751W        W28519   9.177  41.942  12.856
64752W        W28520  30.063   8.387  13.544
64753W        W28521  37.410   3.721  14.477
64754W        W28522  41.974  26.971  12.861
64755W        W28523  31.943  20.528   1.872
64756W        W28524  17.264  30.155   3.251
64757W        W28525  38.898  32.918   4.815
64758W        W28526   1.243  28.988   4.811
64759W        W28527   4.290   7.884   3.333
64760W        W28528  22.031  33.390  11.533
64761W        W28529  18.610  26.496  12.078
64762W        W28530   1.897  23.525   0.821
64763W        W28531  32.422   1.841  11.506
64764W        W28532  12.327  24.721   4.305
64765W        W28533  36.424   0.384   4.618
64766W        W28534  17.688  35.422   1.399
64767W        W28535  28.454  36.891   2.192
64768W        W28536   2.299  31.603  10.986
64769W        W28537  34.598  35.015  12.908
64770W        W28538   7.213  36.983  13.422
64771W        W28539  25.002  27.521   1.745
64772W        W28540  21.668  13.218  11.593
64773W        W28541   4.716   7.246   2.748
64774W        W28542  10.276  27.962   5.099
64775W        W28543  14.685  20.058   0.316
64776W        W28544  34.410  27.551   3.386
64777W        W28545  20.135   0.754   2.296
64778W        W28546  41.996  23.990   1.739
64779W        W28547  33.457   9.388  14.902
64780W        W28548  22.567  25.622  13.999
64781W        W28549  30.917   0.248   0.248
64782W        W28550  17.632  38.975   2.240
64783W        W28551   1.907  17.114  10.932
64784W        W28552   5.406  24.591   3.649
64785W        W28553  25.528  10.175   4.307
64786W        W28554  37.560  19.111  10.455
64787W        W28555  40.992  42.470   3.679
64788W        W28556  13.210  34.477  10.592
64789W        W28557  25.027  16.269   3.341
64790W        W28558  13.715   7.372  14.800
64791W        W28559  17.664  36.513  13.469
64792W        W28560   4.260  13.614   4.235
64793W        W28561   2.889  29.449  13.037
64794W        W28562   5.268   4.338   1.295
64795W        W28563  22.518  15.324   2.373
64796W        W28564  12.176  12.705   0.332
64797W        W28565  43.300  36.882   1.899
64798W        W28566  28.945  36.480   0.889
64799W        W28567  38.847  12.839   3.824
64800W        W28568  13.719  24.579  14.941
64801W        W28569  20.552  37.882   4.167
64802W        W28570  40.814  40.962  14.475
64803W        W28571  30.059   7.675  14.026
64804W        W28572  41.421  40.427  13.328
64805W        W28573  21.026  17.261  14.346
64806W        W28574  33.518  22.633  14.025
64807W        W28575  37.489   4.885  12.477
64808W        W28576  44.000  20.617  14.479
64809W        W28577  12.653  30.525  14.378
64810W        W28578  24.631  12.304   3.223
64811W        W28579  28.950  10.361  13.054
64812W        W28580  33.491  41.800   2.805
64813W        W28581  20.708  27.652  14.949
64814W        W28582   6.728   2.856   4.618
64815W        W28583   5.219   8.304  11.876
64816W        W28584  11.364  19.621   1.267
64817W        W28585  13.135  17.092   2.253
64818W        W28586  33.506  38.532  11.538
64819W        W28587  30.615   3.845  13.512
64820W        W28588   4.882   3.816  11.040
64821W        W28589  42.515  41.040  11.498
64822W        W28590   2.879  29.522  14.279
64823W        W28591  34.885  27.117  14.019
64824W        W28592   3.789  14.200   3.800
64825W        W28593  40.021  17.693  10.444
64826W        W28594  39.334  43.993  10.905
64827W        W28595  26.590   3.345   0.878
64828W        W28596   2.447  18.761   3.822
64829W        W28597   3.316  17.159  11.600
64830W        W28598  22.559  40.474  12.020
64831W        W28599  44.366   6.261  12.931
64832W        W28600  29.004  25.117  13.851
64833W        W28601  33.033  35.457   2.313
64834W        W28602  10.346  40.339  10.967
64835W        W28603   2.948   2.938  12.063
64836W        W28604  28.496   7.701   3.639
64837W        W28605  43.835  32.039  13.794
64838W        W28606  37.429   0.814   4.143
64839W        W28607  11.652  30.102   2.835
64840W        W28608  22.575  40.027  11.021
64841W        W28609  18.193  31.993  12.949
64842W        W28610  23.100  18.279  11.559
64843W        W28611  40.472  19.619   2.830
64844W        W28612  23.551   7.191   1.927
64845W        W28613  32.904  24.105   4.611
64846W        W28614  22.170  38.522  12.016
64847W        W28615  30.968  23.004  12.873
64848W        W28616  39.052   8.337   1.431
64849W        W28617  18.546  17.306   4.780
64850W        W28618  31.111   7.273   4.817
64851W        W28619   9.177   2.244  12.824
64852W        W28620   3.876  24.589   0.296
64853W        W28621   2.256  42.952  14.488
64854W        W28622  23.214  42.371   3.269
64855W        W28623   8.351  40.969   2.676
64856W        W28624  41.450  14.797  13.810
64857W        W28625  34.923  34.468   4.324
64858W        W28626   4.274  42.920   2.403
64859W        W28627  21.572  42.914   0.917
64860W        W28628  14.675  23.056   2.796
64861W        W28629  28.540   4.362   2.838
64862W        W28630  28.960   4.879   0.405
64863W        W28631  41.379  20.044  13.472
64864W        W28632  32.141   1.267  10.529
64865W        W28633  21.039  17.090  12.913
64866W        W28634  23.179  39.513   2.792
64867W        W28635  38.476   3.838   4.647
64868W        W28636   6.284  35.887   0.323
64869W        W28637   5.265   2.327  14.991
64870W        W28638   3.910  34.906   3.776
64871W        W28639   1.238  26.059   4.155
64872W        W28640   0.463  23.155   1.376
64873W        W28641  43.299   3.454  12.489
64874W        W28642  35.366  22.207   0.866
64875W        W28643   5.327   0.286  12.452
64876W        W28644  20.221  43.496  14.493
64877W        W28645   6.270  43.007   4.780
64878W        W28646  18.259  21.521  11.402
64879W        W28647  10.258   4.774   4.644
64880W        W28648   9.777  24.049  14.482
64881W        W28649   9.160  40.361  12.523
64882W        W28650  36.424  15.808  13.979
64883W        W28651  11.734  43.290   0.900
64884W        W28652   8.227   9.212  12.918
64885W        W28653  20.691  33.406   3.303
64886W        W28654  37.438  22.237   4.137
64887W        W28655  28.064  24.615  10.542
64888W        W28656  42.280  36.965   0.244
64889W        W28657  43.475  41.968  12.046
64890W        W28658   7.677   6.721  10.411
64891W        W28659  25.561   9.755   4.336
64892W        W28660  29.497   9.671  14.838
64893W        W28661  22.023  12.130  13.017
64894W        W28662  26.592  14.698   3.756
64895W        W28663  37.940  20.259  11.063
64896W        W28664  12.221  17.584  11.037
64897W        W28665  33.480  33.548  13.441
64898W        W28666  29.638  30.921  11.382
64899W        W28667  22.006  10.223  11.605
64900W        W28668  21.701   5.883  13.377
64901W        W28669   7.821  30.117   1.232
64902W        W28670   9.652   2.836  11.888
64903W        W28671  24.230  39.972   0.934
64904W        W28672  26.022  32.925   0.833
64905W        W28673  17.796   9.706   2.245
64906W        W28674  22.197  18.617  12.538
64907W        W28675  18.165  33.450  13.481
64908W        W28676  22.082  15.766  14.498
64909W        W28677  22.663  31.151  14.481
64910W        W28678  42.383   8.382   3.267
64911W        W28679  31.632   6.912   3.785
64912W        W28680  12.266  44.441   3.818
64913W        W28681  43.826   4.737  13.846
64914W        W28682  16.116  25.123  14.436
64915W        W28683  36.068   0.854   2.386
64916W        W28684  28.036  43.940   0.932
64917W        W28685  29.920  19.722   3.147
64918W        W28686  41.892   1.974   0.737
64919W        W28687   2.469  39.393  13.398
64920W        W28688  13.321  36.450   2.875
64921W        W28689  13.840  33.931   4.818
64922W        W28690  14.776  22.236  13.454
64923W        W28691   3.780   0.747   2.297
64924W        W28692  37.421  25.999   2.225
64925W        W28693  38.516   5.762  12.517
64926W        W28694  16.280   9.756   0.805
64927W        W28695  23.736  12.312  14.407
64928W        W28696   0.817   6.374   0.878
64929W        W28697  34.099  32.510   2.248
64930W        W28698  21.605  21.197  12.054
64931W        W28699  40.410   9.265   3.739
64932W        W28700  42.945  35.443   3.250
64933W        W28701  38.402  14.130   4.301
64934W        W28702   4.444   5.768   2.817
64935W        W28703  35.518   5.425  14.019
64936W        W28704  17.178  17.199  14.922
64937W        W28705  30.442  22.042   4.224
64938W        W28706   1.909   6.861   4.650
64939W        W28707  43.945  34.414  10.447
64940W        W28708  31.006  38.329  12.845
64941W        W28709  36.408  29.518  10.519
64942W        W28710  28.042  18.587   1.362
64943W        W28711   8.676  40.035   0.272
64944W        W28712  34.898  35.577   1.395
64945W        W28713  14.330  15.731  10.508
64946W        W28714  10.330  26.116  11.896
64947W        W28715   6.735  33.579  12.392
64948W        W28716  44.419   6.322  14.958
64949W        W28717  12.297  39.000  12.883
64950W        W28718  27.026  33.037   3.345
64951W        W28719   5.895  36.039   3.817
64952W        W28720  36.919  28.615  10.075
64953W        W28721  13.825  37.469  12.021
64954W        W28722  10.774  20.742   0.291
64955W        W28723  28.087  23.600   2.401
64956W        W28724  12.172   4.750   4.689
64957W        W28725  35.430  20.751  12.495
64958W        W28726  15.659  39.513   1.865
64959W        W28727  19.653  13.751   1.256
64960W        W28728   3.801   4.927   0.431
64961W        W28729   5.783  29.491  13.419
64962W        W28730  22.094  23.554   4.236
64963W        W28731  40.521  23.615  12.931
64964W        W28732   9.285  16.147   2.728
64965W        W28733  20.607  40.409   2.853
64966W        W28734  20.248  14.107   5.194
64967W        W28735   9.373  33.538   2.198
64968W        W28736  26.643  44.293   4.283
64969W        W28737   4.819  41.373  13.855
64970W        W28738  21.066  37.921   0.269
64971W        W28739  32.616   4.874  10.613
64972W        W28740  22.614  39.850  11.386
64973W        W28741  26.142   6.915  11.869
64974W        W28742  11.370   9.200   0.729
64975W        W28743   1.774  11.368  11.007
64976W        W28744  38.011   5.378  11.112
64977W        W28745   9.712  15.216   2.179
64978W        W28746   2.884  13.209   3.787
64979W        W28747   9.694  40.425  11.023
64980W        W28748  26.093  17.642  11.926
64981W        W28749  21.087   2.279   2.360
64982W        W28750  16.232  18.781   0.256
64983W        W28751  13.733   1.964  13.317
64984W        W28752  44.377  30.922   2.679
64985W        W28753   2.838  15.314   0.733
64986W        W28754  27.989  28.592  12.524
64987W        W28755  36.926  32.556   0.815
64988W        W28756  10.382  30.414  14.979
64989W        W28757  22.740  19.142   1.828
64990W        W28758  12.118   6.676   4.629
64991W        W28759  36.872   7.253   3.221
64992W        W28760  10.839  10.221  12.878
64993W        W28761  25.046  25.477   5.262
64994W        W28762   2.750  12.265  11.393
64995W        W28763  22.554  27.016   3.295
64996W        W28764   7.853   1.786   0.328
64997W        W28765   9.803  40.899  12.863
64998W        W28766   8.832  30.000   4.628
64999W        W28767  27.952  32.141   5.319
65000W        W28768  35.504   7.675  11.077
65001W        W28769  43.295   5.820  11.534
65002W        W28770  40.908   2.784   4.162
65003W        W28771  23.545  26.664   2.350
65004W        W28772   8.320  35.429  13.797
65005W        W28773  11.241   2.741   0.844
65006W        W28774  24.577  38.076   0.827
65007W        W28775  30.550  22.747  14.805
65008W        W28776  18.763  42.846   3.171
65009W        W28777  39.450   7.310  13.894
65010W        W28778  42.463  38.361   3.328
65011W        W28779   9.298   9.844  13.967
65012W        W28780   0.285  17.151   1.866
65013W        W28781   3.785  43.478   4.134
65014W        W28782  11.667  13.345  14.019
65015W        W28783  36.403  11.297   4.663
65016W        W28784  10.855  42.986   2.837
65017W        W28785   5.329  10.660  14.344
65018W        W28786   4.393   1.787   4.739
65019W        W28787  16.804  25.713   1.243
65020W        W28788  16.153  37.025  13.502
65021W        W28789  21.218  35.508  12.082
65022W        W28790  28.111   1.372  13.517
65023W        W28791  31.623   1.820  12.351
65024W        W28792  38.333  13.703  13.927
65025W        W28793  19.179  26.477   3.164
65026W        W28794  36.002  40.025   0.313
65027W        W28795  22.125  32.976  14.297
65028W        W28796  19.182  30.927   1.259
65029W        W28797  12.307  42.356  11.539
65030W        W28798  22.730  10.347   1.837
65031W        W28799   9.821  33.004  14.300
65032W        W28800  16.605  39.549  11.527
65033W        W28801   2.965  17.128  14.940
65034W        W28802  41.932  35.960  13.941
65035W        W28803  21.513  30.003   2.773
65036W        W28804  14.824  44.274   4.261
65037W        W28805  26.099  14.615  11.112
65038W        W28806  13.757  11.810   4.216
65039W        W28807  21.653  21.552  13.319
65040W        W28808   4.841  23.106   4.655
65041W        W28809  25.183   7.821  11.889
65042W        W28810  24.626  35.512   1.745
65043W        W28811  17.245  25.084   1.305
65044W        W28812   6.401  24.977  11.470
65045W        W28813  17.149  22.066   4.834
65046W        W28814  33.604  22.544   5.150
65047W        W28815  16.192  33.990   0.799
65048W        W28816  32.556  39.333   2.895
65049W        W28817  42.489  19.164   1.411
65050W        W28818   2.281   1.946   1.266
65051W        W28819  29.637  22.015  13.480
65052W        W28820  15.210  44.779   4.169
65053W        W28821  16.682   0.480   2.408
65054W        W28822  44.858  11.639   2.747
65055W        W28823  27.974   1.267   2.328
65056W        W28824   7.184  30.546  11.590
65057W        W28825  36.995   5.313   1.908
65058W        W28826   6.387  19.076  13.948
65059W        W28827  18.670  10.862  14.943
65060W        W28828  31.908   0.316   4.161
65061W        W28829  24.590  32.576   1.331
65062W        W28830   8.810   5.239  10.495
65063W        W28831  40.838   3.740  10.954
65064W        W28832   8.736  17.088   5.289
65065W        W28833  25.975  44.504  12.952
65066W        W28834  39.346  33.131  10.077
65067W        W28835   9.175   3.380  11.123
65068W        W28836  21.553  33.481  12.536
65069W        W28837   7.765  39.965  14.416
65070W        W28838  43.420  26.593   4.220
65071W        W28839   5.688   1.761   1.866
65072W        W28840  34.379  41.801   0.474
65073W        W28841  24.990  32.926   4.325
65074W        W28842  31.648   3.855  14.959
65075W        W28843  34.601   6.804   0.782
65076W        W28844   1.921  20.716  10.574
65077W        W28845  24.499   8.318   0.255
65078W        W28846   5.691  39.915  13.969
65079W        W28847  38.857  27.055   2.346
65080W        W28848  10.367  31.060   2.282
65081W        W28849  12.622  17.067  14.509
65082W        W28850  36.995  39.852   3.295
65083W        W28851   6.717  19.097  10.940
65084W        W28852  13.346  20.539  13.440
65085W        W28853  24.016   9.706   2.740
65086W        W28854  29.557  36.067   1.877
65087W        W28855   0.273  44.957  13.918
65088W        W28856  36.994   6.309  13.019
65089W        W28857  44.771   3.774  14.319
65090W        W28858  16.165   7.732   4.306
65091W        W28859  18.232  41.022   4.802
65092W        W28860  15.165  18.633  11.891
65093W        W28861  28.476  12.187   0.254
65094W        W28862  11.688  26.669   0.362
65095W        W28863  38.040  19.630   0.878
65096W        W28864  22.511   3.284   4.625
65097W        W28865  22.651  37.561  14.796
65098W        W28866  41.462  32.018   0.854
65099W        W28867  13.214  19.060  10.614
65100W        W28868  40.480  24.146  11.991
65101W        W28869  41.419  22.600   1.923
65102W        W28870  29.070  40.980   1.374
65103W        W28871   0.892   6.204  12.453
65104W        W28872  19.080  26.023   1.795
65105W        W28873  17.217   2.302  14.403
65106W        W28874  28.940  12.736   2.274
65107W        W28875  41.929  11.340  14.933
65108W        W28876  30.581  14.720   3.855
65109W        W28877  32.944  11.635  13.982
65110W        W28878   7.317  24.479  11.036
65111W        W28879  21.227  43.892   3.711
65112W        W28880  15.274  42.880   0.747
65113W        W28881  37.874   9.319   2.706
65114W        W28882  34.503  12.189   1.378
65115W        W28883  23.019  15.291  12.557
65116W        W28884   3.244  41.400  12.370
65117W        W28885  33.516  24.643   3.709
65118W        W28886  31.072  34.944  11.420
65119W        W28887  19.240   9.364  10.610
65120W        W28888  32.114  24.694   4.183
65121W        W28889  22.008  41.463   4.204
65122W        W28890   6.237  11.641  14.998
65123W        W28891   2.350   3.453   2.871
65124W        W28892  37.481  39.421  13.324
65125W        W28893  34.370  14.133   4.829
65126W        W28894  22.207  33.078  13.843
65127W        W28895   1.482  15.637  14.015
65128W        W28896  11.776  41.924  11.514
65129W        W28897  17.072  27.502   3.870
65130W        W28898  14.183  14.220  13.516
65131W        W28899  44.461  21.644  12.912
65132W        W28900   0.747  24.519   2.316
65133W        W28901  33.007   5.267   4.228
65134W        W28902  25.072  10.827   3.230
65135W        W28903   1.803  39.370  12.471
65136W        W28904  30.440  31.040   1.815
65137W        W28905  43.364  33.037   0.259
65138W        W28906  17.687  21.151   0.396
65139W        W28907  38.916   4.918  12.511
65140W        W28908   2.445  20.652   2.694
65141W        W28909  38.049  15.587  12.909
65142W        W28910  19.603  26.081   1.768
65143W        W28911  35.978   1.336   2.794
65144W        W28912   9.835  39.000  13.901
65145W        W28913  19.673  16.163  11.981
65146W        W28914   4.301  41.864  10.926
65147W        W28915  15.106  22.199  12.927
65148W        W28916   0.494  43.285  12.945
65149W        W28917  25.980  44.974  11.522
65150W        W28918  44.386  29.515   4.154
65151W        W28919  13.261  30.076   3.793
65152W        W28920  34.577  24.998   1.907
65153W        W28921  42.392  41.373   4.626
65154W        W28922  20.226  13.770  14.944
65155W        W28923  39.473  31.976   1.737
65156W        W28924  19.110  26.605  14.441
65157W        W28925  41.522  21.163   3.742
65158W        W28926  21.645  29.447  11.412
65159W        W28927  43.786  24.047  11.498
65160W        W28928   6.840  39.338  11.430
65161W        W28929  33.509   5.283   4.168
65162W        W28930  16.184  28.973   0.399
65163W        W28931  13.836  17.772   1.743
65164W        W28932   4.379  43.960  13.493
65165W        W28933  12.762  39.346  11.990
65166W        W28934  13.319   2.753   0.458
65167W        W28935  24.048  19.259   4.171
65168W        W28936  34.554  10.228   4.742
65169W        W28937   0.266  22.630   0.394
65170W        W28938  17.710  29.499  12.420
65171W        W28939  28.177  34.396  13.915
65172W        W28940  41.386  29.001   4.122
65173W        W28941  18.203  31.059  14.988
65174W        W28942  18.708  15.120   2.892
65175W        W28943  15.310  38.481   3.194
65176W        W28944  15.320  25.542   2.285
65177W        W28945   3.940  44.458   0.911
65178W        W28946  10.688   3.230   2.676
65179W        W28947  22.246  29.551  10.553
65180W        W28948  19.181   6.248   4.719
65181W        W28949  29.090   1.414   2.667
65182W        W28950  22.539  37.545  12.436
65183W        W28951  21.034  29.034   2.830
65184W        W28952  15.132  31.408  11.095
65185W        W28953   6.184   3.874  11.469
65186W        W28954  29.940  34.513  13.315
65187W        W28955  39.448  16.274  12.446
65188W        W28956  24.712  16.620  14.496
65189W        W28957   7.251  41.458  10.947
65190W        W28958   4.722  11.271   4.679
65191W        W28959  43.494  25.207   4.157
65192W        W28960  16.583  12.190   2.787
65193W        W28961  18.790  36.538   3.213
65194W        W28962   4.445   8.867  10.440
65195W        W28963  21.720  30.940   1.265
65196W        W28964  27.682  33.127  14.828
65197W        W28965  36.474   7.193  12.517
65198W        W28966  21.192  37.878  14.397
65199W        W28967  25.065  33.545   4.116
65200W        W28968  34.561  13.208   3.362
65201W        W28969  27.621  29.562  12.845
65202W        W28970   2.799  34.899   1.917
65203W        W28971   8.168  39.526  13.365
65204W        W28972  38.548  27.513  14.902
65205W        W28973  43.411  22.576   3.379
65206W        W28974  14.796  35.980   4.640
65207W        W28975   2.842  22.155   3.220
65208W        W28976   6.210  43.784   1.426
65209W        W28977   2.843  14.186   1.771
65210W        W28978  39.388  43.473   1.783
65211W        W28979  22.026   7.322   4.247
65212W        W28980  29.645  26.108  12.534
65213W        W28981  43.307   5.259   1.884
65214W        W28982  23.522   6.211  11.085
65215W        W28983  27.077  38.944  14.312
65216W        W28984  36.074  22.007  13.057
65217W        W28985  21.170  10.139   2.767
65218W        W28986  37.077  43.343  14.421
65219W        W28987  42.982  30.971   0.819
65220W        W28988  36.579  44.927   2.702
65221W        W28989  30.555  12.740   0.267
65222W        W28990  28.068  35.922  12.860
65223W        W28991  23.726  16.740  10.990
65224W        W28992  25.667   2.867   2.347
65225W        W28993  20.652  33.452  11.085
65226W        W28994  43.765  44.354   4.644
65227W        W28995  39.053  17.779   1.443
65228W        W28996   0.260  32.050  11.441
65229W        W28997  10.255   8.385   3.301
65230W        W28998  40.382  17.762  10.589
65231W        W28999   8.863  19.620   2.896
65232W        W29000  22.086  35.947   0.865
65233W        W29001  44.966  23.708   3.178
65234W        W29002  14.248  21.691   1.422
65235W        W29003   3.375  40.047   4.228
65236W        W29004  36.899  25.176  14.370
65237W        W29005  23.509   9.298   3.812
65238W        W29006  12.331  43.436   0.944
65239W        W29007  25.521  10.805  13.385
65240W        W29008  17.227  19.280  14.856
65241W        W29009  16.737  44.867   0.303
65242W        W29010  31.567  29.503  13.377
65243W        W29011  22.233  32.626   2.325
65244W        W29012  39.945  43.472  11.463
65245W        W29013   9.813  42.342   4.129
65246W        W29014   9.236  31.426   3.293
65247W        W29015  26.095   9.238   2.372
65248W        W29016  37.857  23.514  13.910
65249W        W29017   9.789  29.632   0.889
65250W        W29018  12.171   9.258   4.237
65251W        W29019  27.530  26.661   3.236
65252W        W29020   1.758  23.666   3.355
65253W        W29021  20.151  19.212   4.173
65254W        W29022  27.538  28.579   3.789
65255W        W29023  28.931  42.524  13.501
65256W        W29024  38.889   1.461  12.555
65257W        W29025  11.341  29.606  14.497
65258W        W29026   5.397  20.668  14.446
65259W        W29027  42.815   6.400   1.875
65260W        W29028  39.996  28.449  10.515
65261W        W29029  25.684  32.894  13.985
65262W        W29030  30.045   9.857  12.515
65263W        W29031  15.718   4.760  14.941
65264W        W29032  28.556  12.716  12.483
65265W        W29033  39.410  24.224   4.174
65266W        W29034   9.283  34.524  12.410
65267W        W29035  21.657  14.339  10.430
65268W        W29036  44.461  35.918   0.887
65269W        W29037  29.574   0.423  12.931
65270W        W29038  37.898   7.780   0.938
65271W        W29039  13.653  15.107   3.829
65272W        W29040  43.274  22.163   0.760
65273W        W29041  38.963  43.311  12.876
65274W        W29042  10.192  25.689   0.928
65275W        W29043   6.737  33.079   1.428
65276W        W29044  32.994   6.293  14.288
65277W        W29045   9.348  16.780   0.764
65278W        W29046  18.759  28.082  12.542
65279W        W29047  30.058  20.547   3.657
65280W        W29048  42.353   5.809  11.904
65281W        W29049  29.041   1.458   4.797
65282W        W29050  25.145  25.207  11.417
65283W        W29051  27.542  19.257   4.784
65284W        W29052  11.631   3.832  14.375
65285W        W29053  10.366   0.300   3.671
65286W        W29054   8.783  36.910  14.906
65287W        W29055  25.542  23.622   2.828
65288W        W29056  35.881   6.369   1.320
65289W        W29057  38.913  29.520  10.935
65290W        W29058  40.397   8.673   3.370
65291W        W29059  30.015  27.559  13.340
65292W        W29060  43.017  41.794   0.808
65293W        W29061  38.898  21.580  12.859
65294W        W29062  33.040  16.700   3.182
65295W        W29063  33.513  41.437   1.774
65296W        W29064  33.395   0.256  14.414
65297W        W29065  13.845   4.357  11.926
65298W        W29066  35.374  16.731  11.890
65299W        W29067  11.833  25.587  11.409
65300W        W29068  39.908   0.392   3.160
65301W        W29069  11.688  31.518   3.329
65302W        W29070  22.245  25.093  13.923
65303W        W29071  16.653  30.936   2.871
65304W        W29072  34.953  42.857  14.863
65305W        W29073   6.847  22.653   1.913
65306W        W29074  36.941   5.759   0.863
65307W        W29075  40.484  29.615  10.431
65308W        W29076   5.932  17.792  13.388
65309W        W29077  15.704   7.322  13.968
65310W        W29078  12.797   0.320  10.430
65311W        W29079   2.940  44.312   2.279
65312W        W29080  39.391  40.811  13.531
65313W        W29081  39.550  11.182   0.449
65314W        W29082  39.043   6.881  10.986
65315W        W29083  22.624  25.148  11.534
65316W        W29084  15.660   9.157  13.919
65317W        W29085  15.577   6.837  12.935
65318W        W29086  23.003  15.791   4.154
65319W        W29087  11.793  37.024  13.544
65320W        W29088  37.357   6.747   4.627
65321W        W29089  28.438  32.423  14.374
65322W        W29090   9.156  39.886  14.406
65323W        W29091   5.799  31.585  11.074
65324W        W29092  39.060  34.054   0.951
65325W        W29093  22.068  25.021  12.513
65326W        W29094  39.327  14.287  11.465
65327W        W29095  40.952  10.747   0.805
65328W        W29096  16.290   8.866  12.523
65329W        W29097  21.719  19.124  13.337
65330W        W29098  17.225  44.899  10.563
65331W        W29099  26.048  32.567   5.206
65332W        W29100   1.380  42.322  13.480
65333W        W29101  41.414  44.442  10.626
65334W        W29102  25.553   2.794  13.473
65335W        W29103  23.208  38.327   2.417
65336W        W29104  27.607  22.204  13.817
65337W        W29105  12.801   1.350   4.239
65338W        W29106   8.213  34.099  13.913
65339W        W29107  11.867  35.579   2.384
65340W        W29108  25.174   0.831   4.302
65341W        W29109   0.373  29.109  11.571
65342W        W29110  11.811  30.060  14.471
65343W        W29111  37.914  15.597  11.860
65344W        W29112   0.491  12.780  10.450
65345W        W29113  23.221   0.492  12.837
65346W        W29114  33.457   7.752   2.715
65347W        W29115  32.406  24.097  13.926
65348W        W29116   0.895  21.128   5.299
65349W        W29117  20.745  31.627  12.404
65350W        W29118  23.614  40.014  11.562
65351W        W29119   5.261   0.892  13.944
65352W        W29120  34.499  44.965  11.608
65353W        W29121  40.808  13.691  13.015
65354W        W29122  25.569  14.237   4.114
65355W        W29123   4.253  28.951   2.799
65356W        W29124  37.084  27.487   3.674
65357W        W29125  14.114  30.122   1.917
65358W        W29126  24.123  28.127   4.668
65359W        W29127  37.888   9.192   0.816
65360W        W29128  29.543  29.570   0.942
65361W        W29129  20.108   9.323  11.124
65362W        W29130  14.678  33.069  11.480
65363W        W29131  17.293   5.876   2.759
65364W        W29132   2.846   9.270  14.445
65365W        W29133   0.855   1.295   4.637
65366W        W29134  38.509  42.838  10.624
65367W        W29135  20.264  25.007  11.570
65368W        W29136  15.786  32.143  12.064
65369W        W29137  44.396  36.877   2.346
65370W        W29138  36.873   8.769  14.988
65371W        W29139   2.422  25.710  10.584
65372W        W29140  33.408  17.260   0.946
65373W        W29141   1.293  26.107   2.745
65374W        W29142  39.468  36.996   4.310
65375W        W29143  17.235  34.054   0.423
65376W        W29144  12.756   5.911   3.153
65377W        W29145  40.970  39.472   0.893
65378W        W29146  31.626   1.318   2.772
65379W        W29147  42.365  39.552   0.748
65380W        W29148   7.850  36.410   2.828
65381W        W29149  38.382  20.524  14.443
65382W        W29150  39.509  22.519   2.362
65383W        W29151  41.859  44.283  12.382
65384W        W29152   7.701   8.660   1.840
65385W        W29153  36.577   8.284   5.610
65386W        W29154   7.709  41.010  11.932
65387W        W29155  12.760  33.084   3.150
65388W        W29156  39.506  20.561   0.368
65389W        W29157  23.734  33.112  13.403
65390W        W29158  24.679  35.457  10.567
65391W        W29159   7.782  19.156   1.311
65392W        W29160  14.266  29.107  10.509
65393W        W29161  33.076  20.658  14.486
65394W        W29162  43.277  32.587  11.104
65395W        W29163  44.927   8.245   1.763
65396W        W29164  41.809  31.427  10.602
65397W        W29165  39.011  27.113  13.818
65398W        W29166  14.724  23.205   4.647
65399W        W29167  28.047  31.546  12.411
65400W        W29168  15.798  30.115  13.920
65401W        W29169  19.088  22.545   4.811
65402W        W29170  26.090  31.645  12.961
65403W        W29171  32.563  43.866  13.910
65404W        W29172  40.870  29.084   5.251
65405W        W29173  21.543   2.875  12.993
65406W        W29174   1.858  15.183  10.567
65407W        W29175   2.303  36.910   2.248
65408W        W29176  43.959  30.476   4.221
65409W        W29177   6.747  15.813   0.828
65410W        W29178  44.965  43.886  11.444
65411W        W29179  15.204  42.899  14.507
65412W        W29180   0.894  10.782   4.761
65413W        W29181  36.456  13.618   2.733
65414W        W29182  39.356  11.656  13.359
65415W        W29183  35.536  31.525  12.948
65416W        W29184  30.083  15.128  14.002
65417W        W29185  17.564  41.951   1.273
65418W        W29186  39.869  42.948  13.057
65419W        W29187   9.329  18.694  12.474
65420W        W29188   7.711   4.223   0.798
65421W        W29189  33.035  35.457   0.755
65422W        W29190  13.744  14.332  14.011
65423W        W29191  22.679  10.335   2.710
65424W        W29192   1.830   1.451   1.411
65425W        W29193   4.709  40.413  14.347
65426W        W29194   8.684  19.548  11.446
65427W        W29195  30.604   7.726   0.279
65428W        W29196   2.777  33.047   3.168
65429W        W29197  23.135  13.641   2.359
65430W        W29198  19.276  17.089  11.395
65431W        W29199  12.676  24.978  13.477
65432W        W29200  22.711   0.795   3.156
65433W        W29201   7.186   6.906   1.404
65434W        W29202   2.281   4.235   3.387
65435W        W29203  39.865  32.969  10.569
65436W        W29204  21.065  29.925  14.440
65437W        W29205  32.985  29.522  13.949
65438W        W29206  42.399  12.684   0.922
65439W        W29207  14.129  30.934  14.490
65440W        W29208  38.427   4.428   3.218
65441W        W29209  35.887  35.368  13.420
65442W        W29210  21.573  37.435   2.850
65443W        W29211  16.786   3.844  12.499
65444W        W29212  28.469  28.149  12.490
65445W        W29213   9.384   0.865   3.172
65446W        W29214   2.771  13.625   1.346
65447W        W29215   6.869  11.629  13.307
65448W        W29216  35.021  27.967   5.315
65449W        W29217   3.318  19.749  12.406
65450W        W29218  28.178  32.120   4.258
65451W        W29219  36.989  33.527  14.512
65452W        W29220  37.386   4.925   1.812
65453W        W29221  16.581  32.424  11.577
65454W        W29222   1.321   1.973  10.609
65455W        W29223  41.420  26.659   3.640
65456W        W29224  17.644  28.151  12.346
65457W        W29225  31.103  36.591  11.509
65458W        W29226  35.368  42.821   2.397
65459W        W29227  24.052  42.309   4.306
65460W        W29228  19.106  15.622  10.453
65461W        W29229  34.110  36.577  14.364
65462W        W29230  11.685   2.759  12.853
65463W        W29231   0.809   3.728  11.538
65464W        W29232  27.958  14.095   5.217
65465W        W29233   2.820   3.432   0.805
65466W        W29234  28.181   8.672   4.201
65467W        W29235  21.748  31.513  11.908
65468W        W29236  38.381   3.291  14.827
65469W        W29237   8.301  44.902  14.300
65470W        W29238  33.568  22.618   1.705
65471W        W29239  38.386   8.658  14.412
65472W        W29240  10.171  32.524  12.490
65473W        W29241  39.450  20.727  12.344
65474W        W29242   8.300  40.961  11.538
65475W        W29243  12.627  26.136  14.004
65476W        W29244  33.576  27.121  14.361
65477W        W29245   3.281  43.944  11.997
65478W        W29246  12.640   8.178   3.635
65479W        W29247  38.398  12.708   1.366
65480W        W29248   8.400  26.557   2.208
65481W        W29249  10.719  31.083   0.465
65482W        W29250   1.731  32.902   2.822
65483W        W29251  25.497  11.770  13.827
65484W        W29252   1.933  13.159   2.712
65485W        W29253  10.303  22.516   5.226
65486W        W29254  10.868  30.979  13.012
65487W        W29255   6.252  29.543  14.909
65488W        W29256  43.442  35.873  14.984
65489W        W29257   1.464  36.034   2.268
65490W        W29258  30.925  26.198   2.394
65491W        W29259  30.972  32.981  11.458
65492W        W29260  25.175  10.183   0.914
65493W        W29261  36.386  39.904  14.860
65494W        W29262  27.037  30.619   0.870
65495W        W29263  19.194  36.844  14.817
65496W        W29264  33.037  39.445  14.361
65497W        W29265  20.030  14.271  11.105
65498W        W29266  31.031  12.161   2.864
65499W        W29267  34.522  41.333   3.244
65500W        W29268  16.258  33.438  14.818
65501W        W29269  15.221  42.376   0.728
65502W        W29270   2.306  22.237  14.367
65503W        W29271  43.011   0.768   1.902
65504W        W29272  40.819  22.176   0.457
65505W        W29273  18.717  30.136   0.905
65506W        W29274   1.782  30.936  10.454
65507W        W29275  20.544  42.026  11.904
65508W        W29276   0.872  36.434  13.043
65509W        W29277  16.760  14.628  11.894
65510W        W29278  17.298  15.630  12.918
65511W        W29279  34.962  18.780  12.340
65512W        W29280  39.384   3.741   1.864
65513W        W29281  14.832  30.480  11.529
65514W        W29282  25.092   4.852  14.294
65515W        W29283  22.016   2.906   0.738
65516W        W29284   5.700  25.079   2.214
65517W        W29285   4.854  41.863   1.794
65518W        W29286  27.046  33.454   2.734
65519W        W29287  41.461  11.639   2.384
65520W        W29288  29.175  33.888  14.495
65521W        W29289   0.296  38.403  10.435
65522W        W29290  26.523   8.658   1.396
65523W        W29291   9.259  16.202  10.435
65524W        W29292   0.475  34.055   2.719
65525W        W29293   8.167  26.626  13.950
65526W        W29294  11.625  17.106  14.761
65527W        W29295  11.232  26.508  12.019
65528W        W29296  27.542  23.605  11.540
65529W        W29297   1.755  25.980   1.854
65530W        W29298  17.295  19.766  14.404
65531W        W29299  37.511  10.149   5.195
65532W        W29300  13.187  28.016  11.879
65533W        W29301   8.659   3.281   3.784
65534W        W29302  19.728  42.468  13.358
65535W        W29303  14.095   6.830  10.995
65536W        W29304  25.173  20.231   1.355
65537W        W29305  23.070  13.724   3.699
65538W        W29306  32.944  32.973  12.835
65539W        W29307  19.279  44.484   3.750
65540W        W29308  11.196   5.834  13.823
65541W        W29309  15.766  44.266   3.804
65542W        W29310  30.134  34.999   2.242
65543W        W29311  27.098  16.784   3.380
65544W        W29312  23.721  13.617  11.569
65545W        W29313  44.914  29.473  12.510
65546W        W29314  32.433  31.632   0.277
65547W        W29315   7.676  31.444  11.568
65548W        W29316  37.989   6.183  11.927
65549W        W29317  43.855  44.460   4.118
65550W        W29318  31.030  30.919  13.835
65551W        W29319  44.867   3.811   1.928
65552W        W29320  25.695  11.221   0.368
65553W        W29321  24.664  18.716   3.682
65554W        W29322  10.695  10.702  13.052
65555W        W29323  14.719  19.582  12.994
65556W        W29324  43.357  28.581   1.327
65557W        W29325  23.188   0.345   0.425
65558W        W29326   7.801  14.263  12.829
65559W        W29327  17.142  14.762   2.834
65560W        W29328   8.726  19.691   0.862
65561W        W29329  12.647   9.246  10.577
65562W        W29330  15.091  35.599   4.615
65563W        W29331   4.721  12.856  10.159
65564W        W29332  13.718  18.254   1.229
65565W        W29333  39.065  38.340   2.738
65566W        W29334  23.050   8.203  14.439
65567W        W29335  35.078  35.028  11.467
65568W        W29336  33.960  16.568   2.218
65569W        W29337   0.928   0.459  10.964
65570W        W29338  44.487  43.430   3.720
65571W        W29339  23.986  28.661   2.688
65572W        W29340  27.193  35.938   0.872
65573W        W29341   1.957  44.262   1.221
65574W        W29342  34.453  36.085   4.115
65575W        W29343   1.864  34.579  10.990
65576W        W29344  43.377  11.751   4.346
65577W        W29345  43.936  33.420   4.653
65578W        W29346  14.169  32.497  14.291
65579W        W29347  33.999  15.676   4.609
65580W        W29348  41.995   7.699  13.054
65581W        W29349  44.775  35.001   1.451
65582W        W29350  11.755  29.595   0.742
65583W        W29351  11.194   4.438   2.407
65584W        W29352  42.380  23.532  14.804
65585W        W29353   2.398  21.220   4.192
65586W        W29354   6.784  17.162  11.052
65587W        W29355  27.024  18.586   1.867
65588W        W29356   7.234  26.133  13.809
65589W        W29357   0.905   7.217  13.827
65590W        W29358  19.103   0.452  10.422
65591W        W29359  37.966  33.935   3.295
65592W        W29360  16.307  26.492   1.907
65593W        W29361  13.697  32.474  13.822
65594W        W29362  26.532  21.682  12.342
65595W        W29363   7.310  41.497  12.041
65596W        W29364  19.666  15.780  10.022
65597W        W29365  31.940  33.487   1.716
65598W        W29366  19.201  19.622   2.877
65599W        W29367  12.633   3.723  14.958
65600W        W29368  23.075  32.986  12.064
65601W        W29369  37.387   0.345  11.101
65602W        W29370  37.833   0.293  10.496
65603W        W29371  10.825  13.782   2.326
65604W        W29372   3.344  13.143  12.442
65605W        W29373   3.929  30.076  12.956
65606W        W29374  43.424  41.361   0.886
65607W        W29375   6.416  19.596  12.081
65608W        W29376  27.049   2.730  11.039
65609W        W29377  17.190   3.313  13.874
65610W        W29378  25.477  16.678  13.902
65611W        W29379  16.566   5.232   4.807
65612W        W29380  41.948  14.100  12.870
65613W        W29381  44.375  13.671   2.403
65614W        W29382  24.142  12.341  13.942
65615W        W29383  39.405  12.231   3.727
65616W        W29384   8.301  30.053  14.854
65617W        W29385   9.337  35.962  10.994
65618W        W29386  31.922  44.474  11.027
65619W        W29387   1.746  31.971   1.280
65620W        W29388  38.024  26.002   4.754
65621W        W29389  22.197  41.842   3.277
65622W        W29390  34.544  30.597   2.781
65623W        W29391  30.996  37.383  11.979
65624W        W29392  29.488  28.495   0.392
65625W        W29393  19.609   3.790  12.878
65626W        W29394  13.159  19.706   4.835
65627W        W29395  13.712  38.863  10.491
65628W        W29396  26.182  23.051  14.293
65629W        W29397  20.061   1.918   1.401
65630W        W29398  27.478  11.825  11.445
65631W        W29399  10.725  39.537  13.854
65632W        W29400   4.380  13.253  14.329
65633W        W29401  21.230  25.209   1.755
65634W        W29402   7.867  22.710  10.994
65635W        W29403  18.069   5.356  14.515
65636W        W29404  18.264  26.588  13.851
65637W        W29405  28.979   8.876   0.863
65638W        W29406  41.909  33.400  12.351
65639W        W29407  12.284  43.514   2.716
65640W        W29408  42.856  10.828  14.426
65641W        W29409  12.180  37.997   3.338
65642W        W29410  15.639  22.652  12.875
65643W        W29411  27.550  34.606   1.392
65644W        W29412  32.582  10.876   0.729
65645W        W29413  14.180  16.810  11.551
65646W        W29414   0.389   1.951  11.884
65647W        W29415  29.666  23.543  11.930
65648W        W29416  25.965  12.839  12.483
65649W        W29417  14.767   6.751   4.206
65650W        W29418  13.136  16.757  10.593
65651W        W29419  36.483   1.972   3.260
65652W        W29420  26.059   5.286  12.391
65653W        W29421   4.372   9.207   2.761
65654W        W29422  30.039  43.424   2.780
65655W        W29423   4.841  44.265  11.927
65656W        W29424  14.191  34.033   0.472
65657W        W29425  15.207  25.046  13.841
65658W        W29426  28.984   5.881   0.460
65659W        W29427   1.480  40.468   1.349
65660W        W29428  17.591  27.581   0.399
65661W        W29429  17.754  19.700  11.525
65662W        W29430  43.950  31.000   1.819
65663W        W29431  30.588  25.083  12.456
65664W        W29432   0.814   1.383  11.492
65665W        W29433  17.220   2.722  11.125
65666W        W29434  29.551  41.966   3.193
65667W        W29435   6.780   6.835   0.865
65668W        W29436   7.301  37.883   1.368
65669W        W29437   8.760  10.241  13.441
65670W        W29438  33.598  25.525   1.831
65671W        W29439  38.495  25.606  12.003
65672W        W29440  27.093  42.415  13.036
65673W        W29441  23.496  38.383   2.377
65674W        W29442  43.998  42.982   9.941
65675W        W29443  18.285  34.513   0.322
65676W        W29444  21.138  29.997   2.900
65677W        W29445  23.497  29.931   1.358
65678W        W29446  36.547  12.818  13.040
65679W        W29447  10.741  29.480  10.098
65680W        W29448   7.699  16.718   2.395
65681W        W29449  14.637  39.003  12.047
65682W        W29450   6.310  19.710  12.558
65683W        W29451  30.418  12.654  13.919
65684W        W29452  38.352  33.026   0.867
65685W        W29453  18.193  33.507  12.066
65686W        W29454  39.965  40.008   1.392
65687W        W29455  35.394  31.021   1.846
65688W        W29456  36.076  38.980  14.500
65689W        W29457  14.799  12.259  12.082
65690W        W29458   0.841  18.217   5.236
65691W        W29459   4.933   8.405   4.121
65692W        W29460  25.521  42.448   2.728
65693W        W29461  17.782  16.642   3.148
65694W        W29462  34.020   6.694  13.797
65695W        W29463  39.315  13.225  14.375
65696W        W29464  34.537   4.300   4.730
65697W        W29465   4.412  40.985  11.041
65698W        W29466   7.296  22.057  12.951
65699W        W29467   9.357  26.547  12.365
65700W        W29468  42.371  21.116  11.470
65701W        W29469  29.925  27.650   1.769
65702W        W29470  32.142  42.794  10.512
65703W        W29471  30.537  42.989  11.595
65704W        W29472  26.991   1.381   2.828
65705W        W29473  41.960  40.931  12.366
65706W        W29474  44.875  15.595   2.889
65707W        W29475  21.594  23.616   3.830
65708W        W29476  43.423  15.178   2.261
65709W        W29477   4.701  39.016   4.731
65710W        W29478  35.584   2.855  10.571
65711W        W29479  35.007   7.749   5.170
65712W        W29480   1.881   1.848  12.372
65713W        W29481  16.216  43.272  12.054
65714W        W29482  21.644  14.113   5.184
65715W        W29483   1.885  11.174   2.686
65716W        W29484   1.750  24.538  14.764
65717W        W29485  16.584  14.653  14.778
65718W        W29486  40.381  21.038   2.673
65719W        W29487  36.570   9.176  13.016
65720W        W29488  43.325  12.637  11.611
65721W        W29489  31.949   7.878   3.705
65722W        W29490   6.263  32.032   4.721
65723W        W29491  35.013  33.120   3.842
65724W        W29492  30.479  41.898   2.815
65725W        W29493  18.719  31.055  11.930
65726W        W29494  19.771  10.708   0.375
65727W        W29495   4.208   3.285  14.305
65728W        W29496  16.776  14.792  13.468
65729W        W29497  27.184  44.898  10.415
65730W        W29498  38.380  28.569   2.331
65731W        W29499  44.316  37.384   3.681
65732W        W29500  40.487  23.732  13.468
65733W        W29501  27.623  29.049  11.936
65734W        W29502  44.776  42.911  14.774
65735W        W29503   1.834  17.293   2.181
65736W        W29504  20.171  15.717   0.916
65737W        W29505  10.304   8.717  14.964
65738W        W29506  21.103   2.303   5.297
65739W        W29507   0.356  38.004  14.298
65740W        W29508  28.085  28.478   1.761
65741W        W29509  14.106   4.859  13.375
65742W        W29510  34.454  20.766  13.928
65743W        W29511  29.617  34.886  12.392
65744W        W29512  28.650  28.436   4.765
65745W        W29513  43.962  12.830  14.400
65746W        W29514  16.080  28.130  11.111
65747W        W29515  44.888  35.595   1.762
65748W        W29516  39.903   2.368   1.236
65749W        W29517  34.925  22.725   0.880
65750W        W29518  28.526  18.690   2.273
65751W        W29519   1.276  10.679   1.418
65752W        W29520  44.000  21.049   0.376
65753W        W29521  42.836  39.513   1.888
65754W        W29522  18.175   0.316  12.835
65755W        W29523  41.991  43.335  11.096
65756W        W29524  21.527   9.765   2.279
65757W        W29525   5.896  14.274  12.533
65758W        W29526   7.680  35.382  13.914
65759W        W29527  11.357  14.255  11.412
65760W        W29528  27.987  43.983   3.710
65761W        W29529  43.946  35.102  11.413
65762W        W29530  20.048  34.874   3.337
65763W        W29531   4.837  28.678   4.129
65764W        W29532  38.513  44.908  12.861
65765W        W29533  17.250  32.085   2.183
65766W        W29534  11.349  25.621   3.671
65767W        W29535  29.110  36.528   1.867
65768W        W29536  35.955   3.943  12.490
65769W        W29537  14.820  27.510  11.584
65770W        W29538  30.037  35.534  14.504
65771W        W29539  39.360  29.168   9.943
65772W        W29540   2.876  20.553   4.830
65773W        W29541  11.846  19.768   3.650
65774W        W29542  31.043  43.775   1.794
65775W        W29543  10.873   1.902   4.326
65776W        W29544  38.039  37.859  14.864
65777W        W29545  43.455  31.049   2.744
65778W        W29546  23.165  32.028  14.386
65779W        W29547  39.882  10.323   2.224
65780W        W29548   5.926  18.052   3.826
65781W        W29549   0.438  39.882   0.764
65782W        W29550   9.746  11.261  11.957
65783W        W29551   3.417  10.694  13.901
65784W        W29552  17.749  14.749   1.333
65785W        W29553  27.573  28.522   1.876
65786W        W29554   6.398  33.071  11.575
65787W        W29555  15.766   0.282   4.190
65788W        W29556  18.579  16.246  13.317
65789W        W29557   6.814  15.258   1.273
65790W        W29558  21.184  13.318   0.244
65791W        W29559   3.877  37.389  14.393
65792W        W29560  38.367  32.140   1.267
65793W        W29561  22.526  25.661  10.939
65794W        W29562  37.924  26.164  13.823
65795W        W29563  21.713  27.447  14.844
65796W        W29564  29.581  28.542   1.778
65797W        W29565  37.420  42.462   2.869
65798W        W29566  25.212  35.917   1.912
65799W        W29567  18.138  25.480   1.241
65800W        W29568  40.450  24.044  10.971
65801W        W29569  18.715   0.768  10.974
65802W        W29570  32.886  41.037  11.056
65803W        W29571  31.922  13.322   3.869
65804W        W29572  10.139  44.379  13.013
65805W        W29573   9.763  40.948  11.860
65806W        W29574  16.305   1.462  13.416
65807W        W29575  28.507  35.413   9.941
65808W        W29576  41.344  33.056  12.029
65809W        W29577  20.082  35.411  11.377
65810W        W29578  34.395   3.928  11.007
65811W        W29579  40.352   8.814   4.121
65812W        W29580  27.659  32.894   2.869
65813W        W29581  41.400  36.522   0.478
65814W        W29582  22.599  29.502  13.804
65815W        W29583  41.487   6.874   2.237
65816W        W29584   1.393  24.615   0.760
65817W        W29585  19.232   8.900  10.442
65818W        W29586  43.474  26.966  14.821
65819W        W29587  25.049   0.974  13.876
65820W        W29588  12.661  21.683  14.327
65821W        W29589  40.447  41.901  10.972
65822W        W29590  27.113  44.817   3.688
65823W        W29591   2.779  39.005   2.732
65824W        W29592  44.296  37.021   1.852
65825W        W29593  30.953  42.933   2.722
65826W        W29594   8.853  12.682   3.381
65827W        W29595  20.709  17.256   0.337
65828W        W29596  40.040  19.160   0.292
65829W        W29597  33.388  33.062  12.509
65830W        W29598  44.283  17.168  14.503
65831W        W29599  32.940  19.611   9.458
65832W        W29600  36.092  17.718  11.434
65833W        W29601  13.660  32.010   3.285
65834W        W29602  24.152   9.261  14.432
65835W        W29603  11.784   6.384  13.541
65836W        W29604  33.549  13.765   2.384
65837W        W29605   1.824  28.055   1.813
65838W        W29606  39.927   6.382  13.842
65839W        W29607  38.469  23.130  12.069
65840W        W29608  30.030  34.502  11.492
65841W        W29609  19.109  40.514   0.287
65842W        W29610  14.314  43.455   2.311
65843W        W29611  33.891  20.223   2.723
65844W        W29612  38.909  38.960  13.314
65845W        W29613  10.311  25.058  13.802
65846W        W29614  22.502   3.871  10.555
65847W        W29615  13.176  31.576  11.968
65848W        W29616  37.042  36.069  12.932
65849W        W29617   8.693   2.948  14.982
65850W        W29618  35.554   7.899   2.732
65851W        W29619  14.787  17.205  11.869
65852W        W29620  33.536  24.518  10.020
65853W        W29621  22.180   7.238   1.344
65854W        W29622  15.667  12.338  14.510
65855W        W29623  19.117  20.249  13.871
65856W        W29624  10.776  33.381  10.575
65857W        W29625  25.218  43.497   3.852
65858W        W29626   0.792  26.574  10.056
65859W        W29627  20.703  15.639  10.933
65860W        W29628  13.125  33.938  11.117
65861W        W29629  31.486  25.682  12.532
65862W        W29630   4.384  28.541  13.379
65863W        W29631  24.158  41.811   1.326
65864W        W29632  13.105  38.900   5.314
65865W        W29633  15.261  19.047   2.873
65866W        W29634  16.595  21.156   3.189
65867W        W29635   1.335  12.799  10.975
65868W        W29636  44.468  43.872  11.125
65869W        W29637  36.998  17.639   4.318
65870W        W29638  21.665  44.792  12.450
65871W        W29639   3.337  31.094  11.606
65872W        W29640  38.967   8.670   0.254
65873W        W29641  42.001  15.216  13.986
65874W        W29642  42.289   1.835   2.415
65875W        W29643  40.404  40.452   1.328
65876W        W29644  33.982   0.912  12.440
65877W        W29645  13.129  23.137  12.067
65878W        W29646  27.100   8.734  12.021
65879W        W29647  39.952  42.814   3.704
65880W        W29648  39.889  36.867   4.301
65881W        W29649   3.733   5.409  10.642
65882W        W29650  42.285  13.613   0.256
65883W        W29651  20.260  21.093   2.697
65884W        W29652  19.632   8.250   4.242
65885W        W29653  16.152  24.622   0.891
65886W        W29654  35.088  18.231   9.634
65887W        W29655  43.988  39.821   0.947
65888W        W29656  40.475   0.453   3.262
65889W        W29657  34.402   4.264   3.366
65890W        W29658   3.306   1.789   1.214
65891W        W29659   3.277  35.024   5.158
65892W        W29660  37.910  16.089  13.020
65893W        W29661  27.675   6.820  14.362
65894W        W29662  37.552  42.514  13.023
65895W        W29663   1.387   7.721   3.367
65896W        W29664  17.791   9.334  11.383
65897W        W29665   1.395   0.399   2.708
65898W        W29666   5.258   8.870   2.373
65899W        W29667  18.151  14.690   2.817
65900W        W29668  33.435  14.616   3.668
65901W        W29669  25.563  24.661  10.460
65902W        W29670  10.150   8.834   4.683
65903W        W29671  18.113  12.810   3.655
65904W        W29672  20.651  38.982   0.790
65905W        W29673  34.980  42.925  12.879
65906W        W29674  18.711  10.214   2.399
65907W        W29675  24.701  26.174  12.962
65908W        W29676  23.057  12.626   5.173
65909W        W29677  28.186  37.064  12.024
65910W        W29678  37.937  14.220   3.216
65911W        W29679  35.930  40.053  12.443
65912W        W29680   8.829  23.596   2.401
65913W        W29681  19.653  20.248  14.391
65914W        W29682  21.516  41.403   5.295
65915W        W29683   5.227  30.995  11.378
65916W        W29684  25.117  26.113   3.220
65917W        W29685   2.740  32.534  14.023
65918W        W29686  10.238  25.681  14.458
65919W        W29687   0.424  21.233  12.892
65920W        W29688  44.952  27.573   4.168
65921W        W29689  42.872  31.504  13.975
65922W        W29690  31.127  31.521  13.984
65923W        W29691  35.038  20.136   4.740
65924W        W29692   3.935  31.935   1.734
65925W        W29693  40.513  39.365  11.095
65926W        W29694  31.582  35.952  14.300
65927W        W29695  29.994  39.380   0.837
65928W        W29696  30.976  28.125   4.306
65929W        W29697   7.403  11.670  13.002
65930W        W29698  43.443  17.685   2.235
65931W        W29699  11.823  42.397   0.403
65932W        W29700  33.073  37.460   2.303
65933W        W29701   4.301  41.819   2.203
65934W        W29702  38.421  34.593   1.333
65935W        W29703  31.923  15.661   2.228
65936W        W29704  35.408  37.053  11.125
65937W        W29705  44.418  34.013  12.924
65938W        W29706  23.985  17.136   9.989
65939W        W29707  20.549  32.534   2.712
65940W        W29708  21.182  36.464  12.525
65941W        W29709  36.069  37.084   0.353
65942W        W29710  26.086  18.097  10.502
65943W        W29711  37.398  33.994  13.959
65944W        W29712  33.060   0.483   4.118
65945W        W29713  37.415  24.660  14.879
65946W        W29714  12.649  38.867   4.221
65947W        W29715  33.900  39.835  14.416
65948W        W29716  32.484  43.879   1.729
65949W        W29717  22.212   4.410  11.065
65950W        W29718  34.531  38.957   3.735
65951W        W29719  37.060  37.884  14.946
65952W        W29720  25.130  11.175   3.189
65953W        W29721  29.059  31.501  14.803
65954W        W29722  12.324  24.987  14.398
65955W        W29723  31.912  16.609  14.408
65956W        W29724  15.728  26.031   1.737
65957W        W29725  36.843  38.348   2.670
65958W        W29726  38.939   4.211  13.518
65959W        W29727  29.163  18.205   4.664
65960W        W29728  31.118  10.838  13.849
65961W        W29729   3.283  12.698  11.607
65962W        W29730  16.636  29.949  11.060
65963W        W29731  31.925  21.523   3.847
65964W        W29732  26.141  14.591  13.925
65965W        W29733  38.529  35.427  12.051
65966W        W29734  24.149  20.589  11.542
65967W        W29735  33.878  41.924  11.481
65968W        W29736  17.186  11.345   1.340
65969W        W29737  20.631  36.949  11.957
65970W        W29738  20.764  32.119   5.284
65971W        W29739   9.166  24.719  14.024
65972W        W29740   6.271  40.861   4.792
65973W        W29741  16.080   5.879  13.947
65974W        W29742  28.117   2.822  12.930
65975W        W29743   6.331  41.310  14.853
65976W        W29744   3.416  20.144   0.793
65977W        W29745   8.699  12.303  14.942
65978W        W29746   8.854  36.455   3.650
65979W        W29747  10.670   0.252   1.768
65980W        W29748   7.845  42.990   2.675
65981W        W29749  39.030   1.280  11.531
65982W        W29750  34.020  40.838   4.252
65983W        W29751  14.117  18.598  14.847
65984W        W29752  31.073  14.801   2.264
65985W        W29753  44.974  29.448   1.257
65986W        W29754  27.025   9.182  11.976
65987W        W29755  18.748  29.546   0.802
65988W        W29756  19.743  25.018  12.400
65989W        W29757  33.449   2.365  11.376
65990W        W29758   5.926  27.677  12.455
65991W        W29759  10.826   6.224   3.842
65992W        W29760  11.816  20.146   2.680
65993W        W29761  35.953   9.389  12.944
65994W        W29762  24.570   3.236   2.885
65995W        W29763  38.864  39.899   0.883
65996W        W29764  16.156   6.918   4.250
65997W        W29765  41.929   0.787   2.233
65998W        W29766  24.540  21.582  11.470
65999W        W29767  26.011  13.227  13.820
66000W        W29768  37.391  32.397  10.988
66001W        W29769  14.822  40.488  14.866
66002W        W29770  17.106   1.799  10.113
66003W        W29771  15.255  28.949   0.356
66004W        W29772  27.139  14.184   3.870
66005W        W29773   3.312  43.008  13.316
66006W        W29774  37.353  14.105   3.359
66007W        W29775  31.537  28.935   0.943
66008W        W29776  12.190   0.751  10.491
66009W        W29777  39.893  37.001   1.342
66010W        W29778  29.069  16.230  11.102
66011W        W29779   4.773  39.871   0.785
66012W        W29780  27.460  10.807   1.407
66013W        W29781  44.773  38.934   3.782
66014W        W29782  17.573  26.519   1.880
66015W        W29783   6.771  41.999  13.794
66016W        W29784  31.615  40.471  12.532
66017W        W29785  28.623  31.084  11.441
66018W        W29786  39.414  13.604   4.633
66019W        W29787  32.618  11.781   1.408
66020W        W29788  38.928   3.833  11.907
66021W        W29789  22.174  29.995  11.401
66022W        W29790  35.563  13.774  12.825
66023W        W29791  16.254  23.057  10.514
66024W        W29792  26.597   8.193   2.210
66025W        W29793  18.731  39.944  13.058
66026W        W29794  28.096   8.162  13.373
66027W        W29795  22.589   4.821  13.372
66028W        W29796  30.160  10.656  13.897
66029W        W29797  23.661  29.429  11.379
66030W        W29798  28.066   2.950   0.385
66031W        W29799   9.337  32.063   2.712
66032W        W29800  17.216  36.570  14.913
66033W        W29801  18.672   8.274  14.915
66034W        W29802  31.508  39.517  13.394
66035W        W29803  27.053  39.828   1.351
66036W        W29804  23.021  25.541   3.254
66037W        W29805  14.790  17.296  12.499
66038W        W29806  30.921  30.425  11.954
66039W        W29807  22.562   4.351  13.327
66040W        W29808  35.516  28.930   2.734
66041W        W29809  36.096  12.182   2.329
66042W        W29810   0.830  34.577   3.851
66043W        W29811  19.148  36.023   9.941
66044W        W29812  12.210  19.145   0.876
66045W        W29813  23.141  38.058  13.504
66046W        W29814  44.953  27.564   1.381
66047W        W29815  22.584  19.550  14.506
66048W        W29816  32.400  43.340   0.404
66049W        W29817  29.028  26.518   4.190
66050W        W29818  37.861  44.361  14.879
66051W        W29819  38.075  29.639   5.703
66052W        W29820  21.201  22.520  12.460
66053W        W29821  25.482  23.196   0.384
66054W        W29822  27.962  19.744  12.043
66055W        W29823  14.834  28.626  12.530
66056W        W29824  25.019  23.134   0.348
66057W        W29825  26.991  25.555   0.466
66058W        W29826  37.941  44.823  14.805
66059W        W29827  40.492  17.780   4.725
66060W        W29828  44.342  11.329  10.436
66061W        W29829  26.974  39.539  10.953
66062W        W29830  29.951   5.931   4.246
66063W        W29831  39.027  19.258   2.330
66064W        W29832  25.639   1.888   0.963
66065W        W29833  24.602  37.458   1.240
66066W        W29834  19.759  22.701   4.782
66067W        W29835   2.328  18.068  14.494
66068W        W29836  19.661  44.463  11.448
66069W        W29837  35.542   5.317   1.928
66070W        W29838  31.408  23.055   4.815
66071W        W29839  24.551   2.724  11.961
66072W        W29840  40.531  16.113   1.924
66073W        W29841  31.012  26.700  14.869
66074W        W29842   9.808   3.935  11.861
66075W        W29843  13.810  29.493   4.159
66076W        W29844  44.353  35.106   2.285
66077W        W29845  34.420  32.086  10.047
66078W        W29846   1.907  24.020  10.607
66079W        W29847  34.046   7.254  13.992
66080W        W29848   3.762  37.507   3.207
66081W        W29849  35.422  16.250   0.441
66082W        W29850  26.154  28.013  12.341
66083W        W29851  10.812  40.303  10.605
66084W        W29852  32.559  35.977  14.897
66085W        W29853  22.057   5.881  11.568
66086W        W29854  32.543  32.547   0.473
66087W        W29855  29.622  20.663   1.872
66088W        W29856   3.221  44.835   4.289
66089W        W29857  36.544   6.850   3.863
66090W        W29858  29.165  43.488  12.459
66091W        W29859  29.050  14.213   2.237
66092W        W29860  23.166  27.623  12.925
66093W        W29861  13.607  40.473  14.997
66094W        W29862   3.895  20.576   0.298
66095W        W29863   4.346  11.140  13.059
66096W        W29864  38.064  29.926  12.468
66097W        W29865  22.110  44.281   0.293
66098W        W29866  36.010  12.290   4.682
66099W        W29867   0.342  40.842   4.821
66100W        W29868  11.708  21.706   2.399
66101W        W29869  32.031  35.425  14.434
66102W        W29870  15.796   9.853   0.772
66103W        W29871  26.487  30.078   1.734
66104W        W29872  23.658  15.246  14.311
66105W        W29873  36.952  24.199  13.817
66106W        W29874  37.907  23.094   4.675
66107W        W29875   6.702  20.075   1.810
66108W        W29876  40.942  12.806   0.914
66109W        W29877  10.712  13.702   3.315
66110W        W29878  33.993  34.004  14.292
66111W        W29879   2.470  24.227  12.025
66112W        W29880  37.926  37.575   0.468
66113W        W29881  26.130  16.791   0.272
66114W        W29882  36.358  41.472  13.957
66115W        W29883  12.232   9.836  12.854
66116W        W29884  39.907  39.832   0.348
66117W        W29885   4.823   3.819   4.775
66118W        W29886  34.477  26.057   3.664
66119W        W29887  43.847  42.352   0.859
66120W        W29888  30.071  26.658  12.576
66121W        W29889  15.648  10.225   3.645
66122W        W29890  20.117  22.192  11.896
66123W        W29891  42.809  28.126  10.929
66124W        W29892  16.186  44.899   3.376
66125W        W29893  27.111   1.902   3.192
66126W        W29894  19.286  35.025  13.314
66127W        W29895  12.820  20.240  14.799
66128W        W29896   7.265  10.333  11.507
66129W        W29897   9.301  19.662  10.430
66130W        W29898  25.579  32.507   2.326
66131W        W29899  36.032  33.101   4.178
66132W        W29900  35.074  29.663  11.389
66133W        W29901   9.348  11.749  10.414
66134W        W29902   7.806   6.292   1.810
66135W        W29903   3.260  32.051  12.364
66136W        W29904  43.349  16.138  11.020
66137W        W29905  33.467  44.945   0.776
66138W        W29906  39.844   7.766  11.483
66139W        W29907   7.182  25.663  12.047
66140W        W29908  38.985  18.677  10.962
66141W        W29909  33.087  33.417   0.773
66142W        W29910  13.733  26.992   3.663
66143W        W29911  22.684  12.184  11.065
66144W        W29912  15.734  37.835  14.784
66145W        W29913  27.135  15.314  10.899
66146W        W29914  28.484   1.308  11.404
66147W        W29915  14.689  33.453  14.893
66148W        W29916  17.660   4.367  13.380
66149W        W29917   4.911  11.178  10.002
66150W        W29918   7.912  37.002  11.085
66151W        W29919  18.241  26.617  14.450
66152W        W29920   4.772  33.390  11.003
66153W        W29921   0.258  42.356   0.883
66154W        W29922  33.960   1.799   2.839
66155W        W29923  35.956  12.256   3.819
66156W        W29924   1.845   2.422   1.898
66157W        W29925  39.378  37.533  11.124
66158W        W29926   0.948  37.570   4.836
66159W        W29927  42.930  32.566  13.435
66160W        W29928  42.017  30.627  12.542
66161W        W29929   4.775   5.437   3.657
66162W        W29930  31.954  29.988   1.338
66163W        W29931  31.113  29.487  13.354
66164W        W29932  21.068   2.908   1.280
66165W        W29933  34.431  10.698   0.945
66166W        W29934  12.314  26.050  11.109
66167W        W29935  31.559  20.666  14.766
66168W        W29936  39.951  44.781   1.781
66169W        W29937  27.108  15.671  12.084
66170W        W29938  37.844  17.294  13.373
66171W        W29939  25.056  27.126  13.833
66172W        W29940  41.509   3.334  10.549
66173W        W29941  40.996   4.892   3.173
66174W        W29942  43.503  38.376  12.857
66175W        W29943  32.053   1.879  12.439
66176W        W29944  19.776  39.387  13.834
66177W        W29945  40.499  10.643   3.733
66178W        W29946  26.186  43.506   1.752
66179W        W29947  28.539  39.901   2.900
66180W        W29948   7.906  35.470  14.786
66181W        W29949  44.862   6.257   3.854
66182W        W29950  28.947  12.119  11.955
66183W        W29951  38.525  33.068  14.023
66184W        W29952  19.751  11.323   2.397
66185W        W29953  34.524  27.092   0.371
66186W        W29954   0.869   4.805   3.800
66187W        W29955   3.383  37.542   1.396
66188W        W29956  24.671  33.564   5.757
66189W        W29957  10.253  14.286  12.028
66190W        W29958  36.869  39.458   2.286
66191W        W29959  41.317   5.931   4.724
66192W        W29960  28.501  18.634   3.259
66193W        W29961   6.831  39.832  10.906
66194W        W29962  41.316  33.427  13.019
66195W        W29963  36.465  37.034  13.330
66196W        W29964  10.144  24.625  12.989
66197W        W29965  30.511   1.283  13.390
66198W        W29966  11.745  40.901  11.989
66199W        W29967   6.243  21.178   1.749
66200W        W29968  18.594  12.154  11.586
66201W        W29969  40.416  33.532   0.800
66202W        W29970  42.980  34.936   2.823
66203W        W29971  14.722  20.709   0.961
66204W        W29972  22.693  28.968  12.396
66205W        W29973  23.051   6.288   3.323
66206W        W29974  41.827  23.203   0.796
66207W        W29975   9.260  39.520  14.990
66208W        W29976   4.805  19.713   1.696
66209W        W29977  22.128  26.542   2.345
66210W        W29978  14.281  30.000   3.257
66211W        W29979  42.444   8.663  13.497
66212W        W29980   0.784  24.152   1.403
66213W        W29981  35.069  30.152   2.678
66214W        W29982  27.501  21.676   4.135
66215W        W29983  34.452  30.419   3.209
66216W        W29984  44.914  21.026   0.839
66217W        W29985   5.201  11.787   4.127
66218W        W29986  37.508  33.075  11.900
66219W        W29987  21.198  14.282   4.208
66220W        W29988  28.107   5.739   4.795
66221W        W29989  22.636  34.970  11.496
66222W        W29990  38.379  31.602   1.320
66223W        W29991  27.950  10.850   3.178
66224W        W29992  18.289  15.774  13.865
66225W        W29993  34.518  30.485  13.392
66226W        W29994  19.726  18.250  12.863
66227W        W29995   2.780  40.032  13.891
66228W        W29996  28.101  31.138  10.406
66229W        W29997  18.587   9.873   3.636
66230W        W29998   7.289  10.276  13.845
66231W        W29999  20.560  38.409  12.056
66232W        W30000  11.811   4.304  13.962
66233W        W30001  44.800  14.111   5.246
66234W        W30002  44.300  25.202  12.349
66235W        W30003  23.701   9.847  14.407
66236W        W30004  20.753  13.813  12.979
66237W        W30005  18.230  19.664  13.058
66238W        W30006  39.976   7.410  14.026
66239W        W30007  13.268  31.501  12.498
66240W        W30008  16.219   7.382   0.807
66241W        W30009  10.680  14.597   4.735
66242W        W30010  41.293  31.005  12.554
66243W        W30011  16.125  18.735  12.495
66244W        W30012  31.910  10.309   0.746
66245W        W30013  25.038  38.008   4.276
66246W        W30014  34.938  10.176   3.190
66247W        W30015  12.212   5.253   1.425
66248W        W30016  11.623  26.976  12.401
66249W        W30017   3.413   8.208   1.373
66250W        W30018   6.206  40.401   3.176
66251W        W30019  37.407  15.112   4.791
66252W        W30020  44.980  35.505   9.511
66253W        W30021   2.380  33.393  10.085
66254W        W30022  40.837  38.527  14.936
66255W        W30023  39.523  26.650  11.502
66256W        W30024   7.832   2.746  12.000
66257W        W30025  23.641  27.636   1.306
66258W        W30026  36.880  18.596  13.981
66259W        W30027   3.404  12.705  13.417
66260W        W30028   2.244  34.098   1.706
66261W        W30029  16.179   2.248   2.385
66262W        W30030  35.521   4.851  13.848
66263W        W30031   8.208  28.978   2.329
66264W        W30032  15.587  35.370   1.404
66265W        W30033  14.135  27.578   3.767
66266W        W30034  44.888  26.070  13.443
66267W        W30035  20.107  39.388   4.275
66268W        W30036  20.132  25.501  10.566
66269W        W30037   9.833   1.287   2.760
66270W        W30038  41.422  35.529  13.983
66271W        W30039  20.552  19.534   2.805
66272W        W30040  20.057  23.588   3.722
66273W        W30041   5.774  35.931  13.813
66274W        W30042  16.285   2.424   1.376
66275W        W30043   0.774   1.747  12.895
66276W        W30044  39.846  16.245  11.968
66277W        W30045  19.688  39.843  13.980
66278W        W30046  33.574   7.185   2.835
66279W        W30047   9.219  44.753   2.833
66280W        W30048  26.206   3.770  14.323
66281W        W30049  39.002  39.414   3.694
66282W        W30050  14.312  35.892   2.843
66283W        W30051  26.608  11.767   0.887
66284W        W30052  41.891  16.650  12.441
66285W        W30053   5.358   1.421   2.208
66286W        W30054  10.728  33.499   2.884
66287W        W30055  32.040  21.622  10.534
66288W        W30056  24.127  34.948  13.869
66289W        W30057   6.795   0.771   3.206
66290W        W30058   9.298  43.859  10.497
66291W        W30059   7.248   7.760  12.827
66292W        W30060  13.663   2.444   4.670
66293W        W30061   8.799  44.909   2.759
66294W        W30062  15.313  29.428  11.481
66295W        W30063  17.624   9.817  13.396
66296W        W30064  43.827   1.948  11.473
66297W        W30065  36.453  28.555   0.927
66298W        W30066  10.273  16.761   1.257
66299W        W30067  16.581  29.527  14.291
66300W        W30068  20.224  13.276  12.830
66301W        W30069  29.460  20.596  10.925
66302W        W30070   1.833  36.003  11.476
66303W        W30071  14.148  35.530  11.984
66304W        W30072  42.466  16.768   2.386
66305W        W30073   4.732  18.145   0.754
66306W        W30074  34.529   2.910  12.412
66307W        W30075  39.048  32.086   0.885
66308W        W30076  22.532  37.543  13.939
66309W        W30077  16.243  14.221  11.463
66310W        W30078  21.640  16.089  12.998
66311W        W30079   8.332  14.158  14.882
66312W        W30080  36.527  26.696  11.464
66313W        W30081  20.249  27.664  13.908
66314W        W30082  42.956  10.741  14.835
66315W        W30083  14.826  34.515  11.395
66316W        W30084  43.772  24.140   2.892
66317W        W30085  34.982  31.085   0.819
66318W        W30086  10.218  43.294  13.411
66319W        W30087  10.865  42.003   1.911
66320W        W30088  14.287  36.485   3.255
66321W        W30089  30.597  32.996   2.354
66322W        W30090  27.016  43.963   2.297
66323W        W30091  22.626  14.622   1.432
66324W        W30092  33.389  12.657  11.124
66325W        W30093   3.403   6.780  13.442
66326W        W30094  19.258  42.857  13.983
66327W        W30095  23.085   6.747  11.590
66328W        W30096   2.409  17.147   3.748
66329W        W30097  26.000  32.521  12.431
66330W        W30098  37.497  21.628   1.737
66331W        W30099  22.051  41.313   0.846
66332W        W30100   7.374  14.804  13.858
66333W        W30101  27.088  16.115   2.669
66334W        W30102   0.381  24.625  12.367
66335W        W30103  21.599  13.789  14.909
66336W        W30104  27.635  15.742  14.963
66337W        W30105  20.571  34.547  12.478
66338W        W30106  28.454  26.462  10.515
66339W        W30107   1.406  28.666  10.990
66340W        W30108  24.652  22.737   1.220
66341W        W30109  43.986  34.927   4.207
66342W        W30110  27.691  31.145  10.403
66343W        W30111  27.499  29.521  11.413
66344W        W30112  36.065  36.391  13.915
66345W        W30113  44.829  29.937   4.834
66346W        W30114  31.006   6.800   4.254
66347W        W30115  23.023  19.726  13.354
66348W        W30116  18.615  13.713   2.672
66349W        W30117  44.935  14.166  13.453
66350W        W30118  19.220  26.684   4.315
66351W        W30119   3.341  31.593  13.917
66352W        W30120  27.621   7.391   3.865
66353W        W30121  23.528  43.325   0.464
66354W        W30122  10.248   3.908   2.280
66355W        W30123  17.121  34.865  12.411
66356W        W30124  27.192  23.605  13.337
66357W        W30125  37.935  28.104   2.684
66358W        W30126  19.534  30.979  11.441
66359W        W30127   5.897   7.198   4.174
66360W        W30128  12.145   9.710   2.690
66361W        W30129   3.779  26.517  13.308
66362W        W30130  40.498   5.759  11.125
66363W        W30131  13.749  42.313   2.865
66364W        W30132  31.086   6.202   2.801
66365W        W30133  25.638  39.925  12.875
66366W        W30134  27.952  36.553   3.778
66367W        W30135  21.672   0.775   2.686
66368W        W30136   0.967  36.372   5.209
66369W        W30137  23.688   5.256   3.654
66370W        W30138  29.554  20.095  14.980
66371W        W30139  30.163  10.186  14.312
66372W        W30140  15.591  13.610  14.916
66373W        W30141  21.742   3.795   4.290
66374W        W30142  18.112   3.313   4.720
66375W        W30143  40.368  18.199  10.626
66376W        W30144  36.022  11.736  11.927
66377W        W30145  26.508  10.238  13.795
66378W        W30146   8.731  19.622  13.812
66379W        W30147  14.317  32.579  12.857
66380W        W30148  27.456  29.124  12.856
66381W        W30149  37.385  27.524   3.819
66382W        W30150   8.753  23.651  10.624
66383W        W30151   4.285  17.671  13.318
66384W        W30152   8.851  23.697   3.309
66385W        W30153  43.328  39.532   2.270
66386W        W30154  25.468  34.960   2.825
66387W        W30155  32.565  19.727  13.912
66388W        W30156   2.289  33.974   0.456
66389W        W30157   9.881  31.984   1.252
66390W        W30158   1.853   0.283  14.355
66391W        W30159  41.963   1.838   1.235
66392W        W30160  19.094   2.861  13.385
66393W        W30161  29.591  30.515   0.770
66394W        W30162  16.141  27.196  14.853
66395W        W30163   7.707  36.991  10.487
66396W        W30164  27.600  11.138   1.908
66397W        W30165   7.716  15.100  13.812
66398W        W30166  21.181  28.063   5.164
66399W        W30167  10.864  39.344   2.289
66400W        W30168  39.385   4.270   2.848
66401W        W30169  30.474  35.912   4.342
66402W        W30170  20.183  22.185  14.409
66403W        W30171  23.991  17.164   1.359
66404W        W30172  33.459   4.938  12.345
66405W        W30173  26.000  23.545  12.049
66406W        W30174  39.447  12.145   2.670
66407W        W30175   8.293  34.899   4.648
66408W        W30176  39.374  13.612   1.898
66409W        W30177  36.382  29.939  10.629
66410W        W30178   3.758  18.293   2.741
66411W        W30179  30.914   8.691   1.434
66412W        W30180   2.441  29.628   2.240
66413W        W30181  37.924  11.233  12.428
66414W        W30182   0.440  14.652   0.253
66415W        W30183  10.673  17.210   1.319
66416W        W30184  20.227  32.058   5.149
66417W        W30185  29.625  38.559   3.690
66418W        W30186   0.484   1.953   2.255
66419W        W30187  14.662  18.295  14.338
66420W        W30188  21.639   3.377   4.801
66421W        W30189  41.371  36.513  13.987
66422W        W30190  19.606  29.169   1.764
66423W        W30191  27.613   4.433   3.722
66424W        W30192  40.895   7.793   2.296
66425W        W30193  11.335  37.863  14.975
66426W        W30194  17.706  35.434  14.377
66427W        W30195   0.742  35.560  14.771
66428W        W30196  42.940  21.120   5.167
66429W        W30197  12.715  10.822  13.973
66430W        W30198   6.734  17.689  14.787
66431W        W30199  14.682  11.287   5.734
66432W        W30200  30.046  40.817   4.828
66433W        W30201  26.141  15.132  14.925
66434W        W30202  40.884  12.665  11.114
66435W        W30203   4.792  44.332   5.122
66436W        W30204  18.238  27.122  11.059
66437W        W30205   4.395   5.763   0.315
66438W        W30206  42.979   1.751   0.745
66439W        W30207  22.668  19.052  10.472
66440W        W30208   4.808  14.316  10.000
66441W        W30209   1.884  35.089   3.691
66442W        W30210  12.661   6.386   1.338
66443W        W30211  21.677  40.838   0.967
66444W        W30212  26.526  26.035  14.994
66445W        W30213  34.419  39.413  11.068
66446W        W30214  28.611  13.210   1.845
66447W        W30215  37.363  36.514  14.810
66448W        W30216   6.305  38.931   4.138
66449W        W30217  42.963   7.233   0.379
66450W        W30218  37.850   9.658   0.387
66451W        W30219  33.045   7.329   4.177
66452W        W30220   4.896  29.548   1.385
66453W        W30221  12.309  15.142   2.401
66454W        W30222  26.607  11.669   1.748
66455W        W30223  19.679  40.398  12.479
66456W        W30224  36.002  18.754   4.746
66457W        W30225  12.336  25.142   1.812
66458W        W30226  21.216  32.943  11.929
66459W        W30227  40.318  31.060   1.710
66460W        W30228  11.726   7.327  10.441
66461W        W30229  11.264  26.499   4.126
66462W        W30230   7.386   4.304  13.473
66463W        W30231  37.849  35.016  12.042
66464W        W30232   9.394  38.367   3.334
66465W        W30233  37.944   6.854   1.428
66466W        W30234  16.634  32.042  11.926
66467W        W30235  39.013  36.503  14.924
66468W        W30236  20.550  31.042   2.665
66469W        W30237  13.711  16.699   0.294
66470W        W30238   3.418  42.285  10.909
66471W        W30239  17.647  14.252  11.439
66472W        W30240  22.590  29.937   3.763
66473W        W30241  11.260  35.906  11.116
66474W        W30242  40.332  41.863   3.777
66475W        W30243  43.309  20.144   3.266
66476W        W30244  42.427  11.654   0.839
66477W        W30245  38.067  38.996  10.586
66478W        W30246  33.117   9.238  13.803
66479W        W30247  12.795  25.979   4.736
66480W        W30248  27.013  29.939   3.342
66481W        W30249  10.812  12.761   1.869
66482W        W30250  23.073  35.932  11.111
66483W        W30251  30.161  20.608  11.113
66484W        W30252  16.245   4.313   4.756
66485W        W30253   3.336  12.184  11.899
66486W        W30254  39.837  34.018   3.653
66487W        W30255  16.680  19.668   3.210
66488W        W30256  28.530  11.823  14.390
66489W        W30257   1.810   4.220  14.012
66490W        W30258  42.493  42.775   0.730
66491W        W30259  42.785  36.841   0.243
66492W        W30260  15.240  18.192  14.018
66493W        W30261  32.549  36.901   0.288
66494W        W30262  11.135  36.968  13.419
66495W        W30263   9.184   9.375   4.225
66496W        W30264   1.446  29.474  14.950
66497W        W30265  32.433  40.533  12.053
66498W        W30266   6.259  16.192   3.342
66499W        W30267  18.642  20.526   4.755
66500W        W30268  31.554   4.926  14.329
66501W        W30269  43.780   9.834   1.432
66502W        W30270   7.390  30.429   1.272
66503W        W30271  21.647   8.348   2.892
66504W        W30272  17.762  36.350  12.401
66505W        W30273  20.548  17.795  13.319
66506W        W30274  36.404  16.218  12.058
66507W        W30275  42.995  33.888  11.032
66508W        W30276  38.345   2.268  12.459
66509W        W30277  17.219   1.319  10.524
66510W        W30278  12.123  13.155  14.438
66511W        W30279  15.111  14.766  11.451
66512W        W30280  36.499  16.131   4.157
66513W        W30281  18.764   2.823   1.805
66514W        W30282  10.269  39.883   2.801
66515W        W30283  23.011   0.360  14.283
66516W        W30284  22.585   5.894  13.969
66517W        W30285  25.551  17.643  12.522
66518W        W30286  15.285  17.658  11.383
66519W        W30287  29.937   4.287   2.680
66520W        W30288  12.774  30.970  13.913
66521W        W30289  37.876  17.292  12.452
66522W        W30290  34.013  43.933   0.448
66523W        W30291   1.269  29.587   1.777
66524W        W30292  25.197   9.225   0.951
66525W        W30293   0.451  11.718  10.428
66526W        W30294   8.753  31.463  10.462
66527W        W30295  22.042  38.503  13.817
66528W        W30296  15.765  21.710  13.053
66529W        W30297  39.960   4.945  12.051
66530W        W30298  34.019  25.142   1.414
66531W        W30299  29.061  13.673  12.407
66532W        W30300  11.633  36.976  10.572
66533W        W30301  25.494  18.189  14.904
66534W        W30302   5.832   9.260   3.282
66535W        W30303  44.845  19.714  14.999
66536W        W30304  20.054  42.849   0.422
66537W        W30305  22.063   6.824   2.892
66538W        W30306  14.323  15.300   2.763
66539W        W30307  15.219  33.381  10.475
66540W        W30308   2.472  41.359  12.558
66541W        W30309  24.562  27.189  11.950
66542W        W30310  26.619  37.972   4.759
66543W        W30311   6.335  15.822  14.988
66544W        W30312  15.166  27.689   3.208
66545W        W30313  10.162  22.217   1.927
66546W        W30314  28.167  27.505   3.240
66547W        W30315  13.677  26.693  12.415
66548W        W30316   4.296  14.182   2.700
66549W        W30317  39.911  13.802   2.860
66550W        W30318  11.248  13.689  10.568
66551W        W30319   4.360   1.378   0.456
66552W        W30320  40.370  11.750  13.436
66553W        W30321  42.505  14.793   1.820
66554W        W30322  42.324  19.174   2.877
66555W        W30323  25.009  44.505  10.981
66556W        W30324  37.565  13.817   4.749
66557W        W30325  33.078  28.649  13.913
66558W        W30326  30.007   0.856  12.920
66559W        W30327  38.843   8.183  10.108
66560W        W30328  41.025  13.209  11.948
66561W        W30329  43.308   4.813   0.372
66562W        W30330  14.187  26.978  13.386
66563W        W30331  40.940   5.689   3.629
66564W        W30332   5.749  29.947  11.975
66565W        W30333  16.612  26.162  13.979
66566W        W30334  32.037   5.867  14.423
66567W        W30335  34.544  42.298  14.456
66568W        W30336  13.619  44.905  11.002
66569W        W30337  37.079   9.870  12.938
66570W        W30338  21.040   7.224  11.535
66571W        W30339   5.760  32.436  12.474
66572W        W30340  16.763  39.924  13.333
66573W        W30341  21.671  28.937   0.754
66574W        W30342  13.779  34.007  14.505
66575W        W30343  18.168  30.966  13.363
66576W        W30344  15.240  43.821   2.399
66577W        W30345  35.565   8.731   1.928
66578W        W30346   7.367  44.963   2.180
66579W        W30347  18.113  37.547   0.917
66580W        W30348  32.494  13.660   0.276
66581W        W30349  44.498  13.669  14.479
66582W        W30350  25.129  37.923   2.303
66583W        W30351  18.709  35.472  10.481
66584W        W30352  36.551  17.283  13.925
66585W        W30353   0.265   0.263   2.333
66586W        W30354   1.374   6.743  13.893
66587W        W30355   8.373  38.325  12.569
66588W        W30356  26.144  10.251  13.314
66589W        W30357  26.681  17.238  11.931
66590W        W30358  13.620  35.422  14.912
66591W        W30359   5.711  23.551  12.492
66592W        W30360  28.934   1.335   3.274
66593W        W30361   9.262  32.519  10.900
66594W        W30362   7.867   6.331   2.846
66595W        W30363  21.620  26.137  12.048
66596W        W30364  39.411  15.299   1.715
66597W        W30365  21.101  30.524  14.450
66598W        W30366  22.021  35.104  11.949
66599W        W30367  36.848  28.574   0.380
66600W        W30368  35.590   9.197  12.540
66601W        W30369  43.497  10.172  11.371
66602W        W30370  34.043  28.158  12.966
66603W        W30371  32.024  22.710   1.426
66604W        W30372  39.817  17.571   0.427
66605W        W30373  40.377   8.727  11.932
66606W        W30374  12.645   0.433   0.311
66607W        W30375  37.354   4.703  13.450
66608W        W30376  30.626  18.165  14.989
66609W        W30377  37.905  39.048   2.786
66610W        W30378  11.787  34.534  11.475
66611W        W30379  42.479  17.175  10.518
66612W        W30380  42.333  27.657   1.405
66613W        W30381  16.789  39.440  13.902
66614W        W30382  32.534  13.755  12.063
66615W        W30383  32.138  43.985   1.694
66616W        W30384  30.923  30.137  10.428
66617W        W30385  44.437  41.307   2.899
66618W        W30386   5.868  15.607   3.860
66619W        W30387  13.142  20.715   4.274
66620W        W30388  35.465   4.901   3.709
66621W        W30389   3.776  32.468  12.515
66622W        W30390  29.551  43.323   4.318
66623W        W30391  11.683  43.934  12.092
66624W        W30392   6.740  44.336   2.282
66625W        W30393  22.537  10.744   4.156
66626W        W30394  28.156  35.039  10.025
66627W        W30395   5.726  33.408  14.971
66628W        W30396  22.028  15.167  10.541
66629W        W30397  21.054  39.543  12.437
66630W        W30398  12.749  12.816   0.317
66631W        W30399  13.118  36.556  10.974
66632W        W30400  24.034   3.267  11.944
66633W        W30401  18.768  44.432  10.976
66634W        W30402   2.837  18.210   4.181
66635W        W30403  33.916  44.991   2.843
66636W        W30404  37.422  43.924  13.919
66637W        W30405  15.820  17.099   4.242
66638W        W30406  42.825  24.487  11.377
66639W        W30407  38.528  44.274   0.888
66640W        W30408  25.647  21.733   0.951
66641W        W30409  42.014  29.536  10.406
66642W        W30410  23.652  38.894  10.438
66643W        W30411  20.059  21.619  14.288
66644W        W30412  21.161  36.019   2.416
66645W        W30413  38.559   0.974   1.877
66646W        W30414   2.891  32.617   3.716
66647W        W30415  35.005  40.437   0.783
66648W        W30416  30.934  38.884   4.254
66649W        W30417  27.446   4.855   1.915
66650W        W30418   0.452  25.986   0.837
66651W        W30419   2.777  34.041  14.459
66652W        W30420  13.308  16.101   3.736
66653W        W30421  25.591   2.857   2.900
66654W        W30422  14.280  26.197  10.569
66655W        W30423  39.834  41.388  11.927
66656W        W30424  18.709   6.209  13.043
66657W        W30425  42.463   3.876   0.819
66658W        W30426  27.956   8.867  13.878
66659W        W30427   3.399  13.126  14.902
66660W        W30428  22.540  20.199  11.541
66661W        W30429  30.580  21.566   3.645
66662W        W30430  37.482  26.043   3.298
66663W        W30431  12.270  15.283   0.405
66664W        W30432  16.127  23.082  10.150
66665W        W30433  24.072  18.684   3.315
66666W        W30434  44.366  16.286  13.367
66667W        W30435  34.022  35.537   3.335
66668W        W30436  42.974   1.840   0.335
66669W        W30437   9.153  41.333   3.784
66670W        W30438   9.880  18.277   1.375
66671W        W30439  43.412  37.473   1.446
66672W        W30440  16.604  29.660   1.872
66673W        W30441  18.589  41.437  10.631
66674W        W30442  40.353   4.423  13.388
66675W        W30443   1.913   9.377   0.915
66676W        W30444  24.148  17.614   1.883
66677W        W30445   2.362  27.010  12.031
66678W        W30446   6.262  13.676   0.876
66679W        W30447  37.493   6.380  12.419
66680W        W30448  35.936  15.125   2.689
66681W        W30449  36.513   6.817   0.905
66682W        W30450  11.720  31.944   3.752
66683W        W30451  42.526  12.212   1.873
66684W        W30452  19.773  24.975   1.243
66685W        W30453  29.161  38.339  10.528
66686W        W30454   4.358  39.344   2.291
66687W        W30455  16.233   6.797   4.619
66688W        W30456  23.217   5.845   1.381
66689W        W30457  32.588  17.669   4.185
66690W        W30458  15.632  16.098  11.485
66691W        W30459   0.350  34.520  14.450
66692W        W30460  25.540  16.582  11.884
66693W        W30461  25.116   6.876   4.130
66694W        W30462   1.779   8.375   3.735
66695W        W30463  21.734  10.756   0.440
66696W        W30464  25.157  20.559   3.268
66697W        W30465  35.938  20.090   4.126
66698W        W30466   7.390  16.727  14.370
66699W        W30467  29.016  42.873   3.714
66700W        W30468  15.752  12.814  11.446
66701W        W30469  31.484  43.488  11.442
66702W        W30470  21.159  41.443  12.024
66703W        W30471  13.704  30.144   3.809
66704W        W30472  26.182   1.745  11.922
66705W        W30473  41.489   5.889  13.049
66706W        W30474  33.043   8.771  11.458
66707W        W30475   3.366  44.982  13.344
66708W        W30476  36.971  31.078   1.794
66709W        W30477   3.762  13.778   3.222
66710W        W30478  16.699  16.080  11.118
66711W        W30479  26.610  26.631  14.976
66712W        W30480   4.262  38.939  12.858
66713W        W30481  33.583  13.756  14.854
66714W        W30482  27.111  21.640   3.844
66715W        W30483  43.819   8.196  14.809
66716W        W30484   6.428  43.495   2.325
66717W        W30485  29.956  29.621   1.261
66718W        W30486  38.897   2.376  14.478
66719W        W30487  31.569  13.293   0.798
66720W        W30488  42.443  12.274   3.248
66721W        W30489  20.765   9.774  10.446
66722W        W30490  18.101  28.648   3.176
66723W        W30491   8.764   7.882  13.360
66724W        W30492  12.726  42.921   2.220
66725W        W30493  29.127  19.770  13.465
66726W        W30494  43.316  39.986   3.247
66727W        W30495   2.260  42.456  13.920
66728W        W30496  26.475  28.937  11.526
66729W        W30497  29.102  36.890  13.791
66730W        W30498  18.112  34.591  11.007
66731W        W30499  15.253   2.367  12.423
66732W        W30500  16.700  19.257   4.200
66733W        W30501  22.602  34.490  10.125
66734W        W30502  41.473   5.414  11.930
66735W        W30503  35.039  27.554  10.461
66736W        W30504  35.955  33.978  14.975
66737W        W30505  32.980   2.831  13.441
66738W        W30506  29.065  34.585  11.882
66739W        W30507  17.791  39.322  14.401
66740W        W30508  11.249  16.135   2.736
66741W        W30509  40.336  26.526  10.141
66742W        W30510  28.934  23.531  11.547
66743W        W30511  17.066  13.338  11.996
66744W        W30512  27.118  25.099  12.067
66745W        W30513  44.955  19.164  14.434
66746W        W30514  18.622   8.205  12.043
66747W        W30515  17.560   8.271  13.525
66748W        W30516  32.049   3.827   4.119
66749W        W30517   4.292  35.536   0.279
66750W        W30518  16.698  44.816  13.999
66751W        W30519  23.107  35.572   2.692
66752W        W30520  14.109   4.873  10.530
66753W        W30521  43.809  17.127  12.986
66754W        W30522  20.711  31.591   0.815
66755W        W30523  26.194  30.578  13.372
66756W        W30524  19.533   6.334   4.655
66757W        W30525  11.205  32.612  10.995
66758W        W30526  32.431   2.448   0.732
66759W        W30527  42.491  30.953  10.631
66760W        W30528  34.499  12.743  13.536
66761W        W30529  32.518  13.149   1.289
66762W        W30530   8.688  34.025   3.327
66763W        W30531  32.106   2.382  11.084
66764W        W30532  10.299  10.230   2.836
66765W        W30533  29.960  40.388  13.931
66766W        W30534   0.767  42.847   4.275
66767W        W30535  27.553  26.635   3.838
66768W        W30536  15.165  43.287  14.009
66769W        W30537   5.701  26.510   1.298
66770W        W30538  42.799  18.120  13.505
66771W        W30539  12.705  24.106  11.551
66772W        W30540  19.173   0.889  13.375
66773W        W30541   3.856  38.330   4.209
66774W        W30542  39.997  15.599   4.798
66775W        W30543  14.754  33.083   2.226
66776W        W30544   6.350   8.203   3.682
66777W        W30545  42.918  37.493  13.535
66778W        W30546  43.371   6.350  14.400
66779W        W30547  42.410  31.408  12.511
66780W        W30548  12.323  34.113   3.799
66781W        W30549   4.303  20.260   1.808
66782W        W30550   3.739  12.613  13.340
66783W        W30551   6.306  44.880  10.988
66784W        W30552  23.232  32.902  13.494
66785W        W30553  39.496   6.688  11.487
66786W        W30554   6.876  10.232   1.796
66787W        W30555  40.920  27.476   0.860
66788W        W30556  37.438   0.981  11.069
66789W        W30557  36.370  16.149  14.779
66790W        W30558  43.991  23.637   1.442
66791W        W30559   1.353  28.596  13.379
66792W        W30560  31.542   4.372  14.326
66793W        W30561  23.177  11.657   0.813
66794W        W30562  27.598  39.323   4.746
66795W        W30563   5.268  31.994   4.196
66796W        W30564  32.396  41.885  13.884
66797W        W30565  37.495  34.456  11.497
66798W        W30566  12.361   6.702  14.792
66799W        W30567  44.873  41.421   1.381
66800W        W30568  39.059  39.510  12.866
66801W        W30569  34.921   4.762   3.649
66802W        W30570  18.115  40.969  14.901
66803W        W30571  31.131  30.607  11.503
66804W        W30572  42.828  27.158   1.345
66805W        W30573  18.618  44.939  10.977
66806W        W30574  42.968  34.605  11.904
66807W        W30575  21.216  26.668  14.890
66808W        W30576  22.064  31.016  12.022
66809W        W30577  36.880  44.301  13.538
66810W        W30578  13.748  19.169  12.036
66811W        W30579  11.845  10.869  14.834
66812W        W30580  24.572  31.568   0.441
66813W        W30581  31.944  25.202  12.842
66814W        W30582  43.298   9.889  11.599
66815W        W30583  21.584  42.796   5.310
66816W        W30584  43.858   6.776   1.816
66817W        W30585   0.801  27.603  13.837
66818W        W30586  23.221   8.702  11.486
66819W        W30587   6.258  30.980   2.793
66820W        W30588  38.945  44.978  11.101
66821W        W30589  40.410  22.115  12.083
66822W        W30590  13.717   8.801   1.354
66823W        W30591  11.150  19.275   4.165
66824W        W30592  34.997  42.301   4.149
66825W        W30593  42.378  18.060   2.195
66826W        W30594  28.540  19.042   4.228
66827W        W30595  39.904  10.150  10.613
66828W        W30596  12.330   7.710   3.713
66829W        W30597   8.674  29.109   2.864
66830W        W30598  13.714  29.512  14.845
66831W        W30599   3.337  29.651   4.251
66832W        W30600  17.741  20.661  14.384
66833W        W30601   6.369  18.154   4.146
66834W        W30602  15.208   5.842   3.375
66835W        W30603   8.752  35.402   4.301
66836W        W30604  33.902  21.220  13.861
66837W        W30605   9.835  31.927  13.394
66838W        W30606  30.474   3.302   3.290
66839W        W30607  10.847  15.210  13.020
66840W        W30608  27.092  31.925   2.364
66841W        W30609  18.550   2.882  14.943
66842W        W30610   9.795   2.934   0.919
66843W        W30611  44.461   0.330   9.932
66844W        W30612  39.886   6.757   9.942
66845W        W30613  34.006   6.404   4.668
66846W        W30614  27.977  13.175  11.574
66847W        W30615  14.157  38.518   3.765
66848W        W30616   0.969   5.305   0.431
66849W        W30617  44.370  18.710  11.538
66850W        W30618   1.352  12.753  13.454
66851W        W30619  26.551  12.281  13.905
66852W        W30620  12.238   8.833  12.457
66853W        W30621  26.554  27.157  11.090
66854W        W30622   2.788  15.318  13.333
66855W        W30623   0.373  40.339   1.250
66856W        W30624   7.218  10.734  12.489
66857W        W30625  43.466   6.202   0.761
66858W        W30626  15.236  38.068  13.349
66859W        W30627  16.289   2.884  11.598
66860W        W30628  31.943  19.143  12.578
66861W        W30629  12.297  31.021   0.967
66862W        W30630  31.511  44.882   1.301
66863W        W30631  41.322  25.195  11.378
66864W        W30632  33.062  27.491   1.850
66865W        W30633  41.493   3.217  12.501
66866W        W30634  38.921  19.642  14.410
66867W        W30635  36.039   8.305  11.583
66868W        W30636   4.741  25.520   2.825
66869W        W30637  15.249   6.298  14.406
66870W        W30638  43.455  11.268  11.092
66871W        W30639  33.425  26.617   3.278
66872W        W30640  30.095  34.877  10.624
66873W        W30641  41.494  12.164   2.731
66874W        W30642  30.474   9.768  13.917
66875W        W30643  26.592  14.291  11.048
66876W        W30644  11.624  16.573   2.286
66877W        W30645  43.837  15.807   1.394
66878W        W30646  17.767  27.082   4.254
66879W        W30647  38.944  36.571  11.554
66880W        W30648  22.248  35.408   0.279
66881W        W30649  42.917   2.931   0.369
66882W        W30650  24.087  17.716   3.718
66883W        W30651   1.414  14.116  12.354
66884W        W30652  35.950  37.876  12.825
66885W        W30653  12.141  31.089   0.379
66886W        W30654  10.325  31.501   3.260
66887W        W30655  17.704  32.078  11.578
66888W        W30656  27.998  14.179   0.285
66889W        W30657  13.727  31.029  14.457
66890W        W30658  16.168   4.879   2.237
66891W        W30659  24.562  36.374  11.940
66892W        W30660   3.429   2.414  12.069
66893W        W30661   6.392  33.606   1.379
66894W        W30662   8.880  34.044  14.978
66895W        W30663  39.343  34.071   5.213
66896W        W30664  16.577   9.649   3.646
66897W        W30665  41.493  15.241  12.450
66898W        W30666  43.923  33.402   4.125
66899W        W30667  16.732   1.429  12.406
66900W        W30668  43.889   0.861   2.851
66901W        W30669  27.998  18.130   2.779
66902W        W30670   3.352  26.510  11.381
66903W        W30671   6.777  39.947   4.176
66904W        W30672  14.614  14.153   9.978
66905W        W30673   7.862  22.094  12.036
66906W        W30674   2.286  22.697   1.296
66907W        W30675  38.449  18.559  12.385
66908W        W30676  33.919   1.267   1.320
66909W        W30677  14.126  43.879   2.226
66910W        W30678  36.918  34.034  12.545
66911W        W30679  13.147  10.693  14.834
66912W        W30680  37.486  18.621   3.271
66913W        W30681   8.731  12.149   0.920
66914W        W30682  21.065  11.644  14.292
66915W        W30683   4.885  28.597  13.975
66916W        W30684  15.273  17.116  14.504
66917W        W30685  43.504  19.611  13.991
66918W        W30686   6.679  25.202  13.351
66919W        W30687  36.901   9.682  10.439
66920W        W30688  44.371   2.306  14.319
66921W        W30689  44.813  31.007  13.839
66922W        W30690  20.756  25.097  13.042
66923W        W30691  25.624  23.723  13.954
66924W        W30692  24.529  41.349   1.231
66925W        W30693  19.580  34.582  11.587
66926W        W30694  12.184  18.724  12.086
66927W        W30695  30.625  23.139  13.935
66928W        W30696  13.819   5.299  14.966
66929W        W30697  16.644  35.899  12.951
66930W        W30698  26.026  42.959  12.826
66931W        W30699  12.779  17.254   3.675
66932W        W30700  40.013   9.266  14.767
66933W        W30701  22.188  37.453   0.819
66934W        W30702  32.888   0.781   2.891
66935W        W30703  41.394  18.211   3.300
66936W        W30704   4.246  23.667   0.302
66937W        W30705  26.975  31.509  11.502
66938W        W30706  12.126  44.996   3.687
66939W        W30707   0.827  29.122  12.553
66940W        W30708  42.370   9.234  11.508
66941W        W30709  21.629  20.619  11.856
66942W        W30710  38.870  28.959   0.245
66943W        W30711  30.609  33.481  11.497
66944W        W30712  21.167  22.038  14.276
66945W        W30713  25.628  36.471   3.382
66946W        W30714  13.203  39.362   3.744
66947W        W30715  20.191  42.916   2.274
66948W        W30716  28.569  14.814  10.972
66949W        W30717  29.514   8.202   4.645
66950W        W30718  35.568  41.952   3.277
66951W        W30719  38.485  19.740   2.330
66952W        W30720  32.968  40.431   0.842
66953W        W30721   5.431  36.942  12.486
66954W        W30722  14.724  32.028   0.256
66955W        W30723  34.901   4.364   3.768
66956W        W30724  37.396  18.576  11.881
66957W        W30725   8.738  33.010   4.180
66958W        W30726  34.005  35.933  10.973
66959W        W30727  20.062  27.980   2.712
66960W        W30728  43.844   9.208   0.790
66961W        W30729  27.568  31.402  11.904
66962W        W30730  23.012  40.448   4.720
66963W        W30731  33.510  30.007  10.065
66964W        W30732   1.408  27.657   1.729
66965W        W30733  19.040  21.653   0.317
66966W        W30734  11.700  42.323   3.370
66967W        W30735  24.623  17.213   0.354
66968W        W30736  31.081  35.582  14.813
66969W        W30737  16.262  19.748   3.239
66970W        W30738   5.436   9.721  14.938
66971W        W30739  19.620  32.627   2.287
66972W        W30740  15.682  17.674   1.302
66973W        W30741  20.079   9.768  12.394
66974W        W30742  41.020   1.798  13.876
66975W        W30743  16.583  37.997   1.246
66976W        W30744   0.949  13.344  11.472
66977W        W30745  41.975  12.348   1.822
66978W        W30746  40.402  32.092  11.955
66979W        W30747  31.434  34.939  11.463
66980W        W30748  28.603   4.292   2.324
66981W        W30749  32.400  39.503   4.717
66982W        W30750  39.504  43.945  10.431
66983W        W30751  25.654   4.353   0.276
66984W        W30752  13.125   5.304   2.822
66985W        W30753  10.344  17.641  14.987
66986W        W30754   6.744   4.353   1.810
66987W        W30755   7.728   7.199  11.611
66988W        W30756  24.713  29.044   3.808
66989W        W30757   7.265  13.621   1.292
66990W        W30758  19.721  17.618   2.278
66991W        W30759   4.943  26.179   3.653
66992W        W30760  43.821  36.063   4.130
66993W        W30761  24.492   6.280  10.890
66994W        W30762  13.300   0.842   0.329
66995W        W30763   9.675   7.757   3.302
66996W        W30764  38.385  44.377  14.450
66997W        W30765  41.875   0.369   3.868
66998W        W30766  12.221   3.750   1.747
66999W        W30767  32.947  40.456  13.531
67000W        W30768  42.465  28.452  12.484
67001W        W30769  29.027  34.865   0.934
67002W        W30770   5.430  17.607   0.763
67003W        W30771  27.460   5.210  11.505
67004W        W30772  41.947  22.744   3.635
67005W        W30773  26.003  41.836  11.465
67006W        W30774  20.717   4.723   4.718
67007W        W30775  16.597  23.229  11.058
67008W        W30776  27.120   2.764   3.172
67009W        W30777  13.178  35.920   3.370
67010W        W30778  16.596  13.765   1.834
67011W        W30779  31.471   1.814  14.450
67012W        W30780   5.439  24.171  14.953
67013W        W30781  26.114  10.251   4.265
67014W        W30782  36.396  23.723  13.450
67015W        W30783  44.946  27.687  14.430
67016W        W30784  14.295  38.353   0.440
67017W        W30785  25.144  41.418   4.218
67018W        W30786  26.095   3.919   3.282
67019W        W30787  30.610  23.231   2.848
67020W        W30788  11.151  24.566  10.518
67021W        W30789  42.340  37.886   0.909
67022W        W30790  25.176  17.141  13.905
67023W        W30791  34.526   0.865   4.706
67024W        W30792  39.995   9.807  11.469
67025W        W30793   5.907  29.123  14.894
67026W        W30794  36.568  20.194   4.180
67027W        W30795   8.370  33.998  12.855
67028W        W30796  30.985  41.950  11.968
67029W        W30797   3.860  42.870  10.505
67030W        W30798   9.855  28.560  14.436
67031W        W30799  32.139  28.544   2.754
67032W        W30800  12.262  13.673   0.445
67033W        W30801  25.034  30.503  11.372
67034W        W30802  19.244   5.292   4.756
67035W        W30803   8.813  36.860  10.910
67036W        W30804   8.875  37.359  10.512
67037W        W30805   0.494  26.037  12.885
67038W        W30806  43.500   9.223  10.913
67039W        W30807  30.491  44.393   3.660
67040W        W30808  32.142  34.018   3.224
67041W        W30809  10.306  39.993   1.789
67042W        W30810  27.049  36.358  14.030
67043W        W30811  25.548  30.549   3.231
67044W        W30812  34.914   5.342   2.669
67045W        W30813  18.649   6.392  13.401
67046W        W30814   5.320  37.500  11.077
67047W        W30815   5.224   6.914   1.867
67048W        W30816  24.643  24.983   0.418
67049W        W30817   2.955  44.800   1.425
67050W        W30818  18.607  18.244  10.002
67051W        W30819  31.551  18.765  10.537
67052W        W30820   6.899  41.345   3.839
67053W        W30821  23.499  28.967  13.986
67054W        W30822   8.664  40.422  14.284
67055W        W30823  23.628  21.649  14.843
67056W        W30824  38.927  35.871  11.508
67057W        W30825  14.668   8.683   5.157
67058W        W30826   8.309   1.367   2.398
67059W        W30827  24.560   2.245  14.306
67060W        W30828  40.549   4.818  12.862
67061W        W30829   6.212  21.682  14.428
67062W        W30830  16.231   7.183  12.472
67063W        W30831  40.966   9.375  12.010
67064W        W30832  15.109   5.701  12.061
67065W        W30833   4.772  14.606   1.378
67066W        W30834  35.392  39.954   2.898
67067W        W30835  41.818  37.555   0.790
67068W        W30836   8.749  43.286   2.708
67069W        W30837  22.587  37.358   4.221
67070W        W30838   9.788  34.990   1.906
67071W        W30839   7.701  26.165   3.233
67072W        W30840  12.312  17.295  14.795
67073W        W30841  13.769  31.064   1.251
67074W        W30842  41.347  36.545  11.029
67075W        W30843  25.690  35.573  13.970
67076W        W30844  10.147  25.061   9.970
67077W        W30845  28.601  18.277  14.282
67078W        W30846  31.453  23.055   0.309
67079W        W30847  42.339  34.995  11.483
67080W        W30848  33.889   3.243   2.292
67081W        W30849  21.522  22.245   1.782
67082W        W30850  42.863  13.279   1.843
67083W        W30851   9.392  24.678   3.787
67084W        W30852  26.649   5.849   1.225
67085W        W30853   9.649  42.032   1.895
67086W        W30854  40.508  42.956   0.459
67087W        W30855  40.469   4.289   1.919
67088W        W30856  30.012  29.957   2.822
67089W        W30857  43.279  22.160   2.753
67090W        W30858  41.442  20.170   4.835
67091W        W30859   5.896  38.981  10.578
67092W        W30860   2.828  14.739  12.931
67093W        W30861   1.383  16.145   4.279
67094W        W30862  39.847   5.875  11.582
67095W        W30863  19.118  10.310   3.249
67096W        W30864  19.039   6.727  11.496
67097W        W30865   2.966  39.549  12.958
67098W        W30866  17.208  19.138   3.350
67099W        W30867  43.506  35.031  14.285
67100W        W30868  31.618   7.190   1.249
67101W        W30869  43.983  39.976   1.860
67102W        W30870  13.137  24.496   4.679
67103W        W30871  29.032  13.649   2.858
67104W        W30872  20.251  11.823  14.509
67105W        W30873  27.677  41.936  10.600
67106W        W30874   3.850  22.662  11.568
67107W        W30875  19.732   0.748   2.897
67108W        W30876  39.491  17.165   3.852
67109W        W30877  33.920  39.447   1.341
67110W        W30878  44.938  29.437  10.892
67111W        W30879  13.627  11.864   3.816
67112W        W30880  14.613   9.295   4.233
67113W        W30881  11.728  19.282  10.418
67114W        W30882   6.860  20.640  11.581
67115W        W30883  21.154  12.773  12.857
67116W        W30884   7.401  43.848   1.356
67117W        W30885  30.492   5.334  12.840
67118W        W30886  37.409  11.327   4.716
67119W        W30887  40.438  29.495   3.368
67120W        W30888  22.163  26.510   1.307
67121W        W30889  23.025  18.083  13.416
67122W        W30890  42.416  13.787  10.964
67123W        W30891  44.343  41.953  14.878
67124W        W30892   1.267  30.133   0.282
67125W        W30893  34.991  37.961  14.939
67126W        W30894  43.871  12.311  11.470
67127W        W30895  22.545  16.654   1.358
67128W        W30896  15.214  43.497   4.830
67129W        W30897  30.116  18.586  11.609
67130W        W30898   1.964  20.220   3.775
67131W        W30899  44.438  34.389   3.234
67132W        W30900  12.761  12.279  13.995
67133W        W30901  28.679  18.202   2.699
67134W        W30902  23.497  17.733  12.495
67135W        W30903  24.605  30.952   2.809
67136W        W30904  32.461  26.973  12.461
67137W        W30905  22.710  16.212  12.826
67138W        W30906  37.474  37.020   1.228
67139W        W30907  24.625  36.995   4.715
67140W        W30908  35.381   6.263  11.529
67141W        W30909   5.819  23.625   3.352
67142W        W30910  24.516   9.758   5.773
67143W        W30911  34.088   8.818   4.341
67144W        W30912  42.292   3.807  13.481
67145W        W30913  37.533  15.232   3.262
67146W        W30914  32.021   6.378  10.914
67147W        W30915  26.051  29.440  11.428
67148W        W30916  29.592   2.445  11.529
67149W        W30917  35.027  19.202   1.796
67150W        W30918  31.146  33.425   4.344
67151W        W30919  28.602  31.476  13.004
67152W        W30920  11.627   3.729   2.789
67153W        W30921  32.622  11.317   1.298
67154W        W30922  18.126  38.872   0.729
67155W        W30923  22.205  31.933  14.788
67156W        W30924  20.612  25.503  10.560
67157W        W30925  16.298   6.266  13.852
67158W        W30926  11.373  42.872  13.981
67159W        W30927  32.138  37.996   4.679
67160W        W30928  44.009  36.387   0.903
67161W        W30929  24.535  35.938   3.779
67162W        W30930  30.633  23.042  11.598
67163W        W30931  23.223  33.607   1.739
67164W        W30932  32.985  19.199  14.768
67165W        W30933  30.505  28.069   4.115
67166W        W30934  29.933  21.538  14.423
67167W        W30935  27.109  33.116  10.965
67168W        W30936   8.778   8.227   3.708
67169W        W30937  23.541  42.353   4.749
67170W        W30938   6.334  13.121   0.316
67171W        W30939  31.570  16.227   9.462
67172W        W30940   6.210  30.618   3.794
67173W        W30941  14.220  23.701   4.780
67174W        W30942  28.995  38.472  13.471
67175W        W30943   2.235  13.259  11.568
67176W        W30944  25.007  12.754  10.940
67177W        W30945  24.109  12.728   1.286
67178W        W30946  33.550   6.846  11.585
67179W        W30947  11.190  19.266   4.778
67180W        W30948  17.619  11.679  12.537
67181W        W30949   7.862  13.704   4.711
67182W        W30950  44.430  17.592  13.392
67183W        W30951  17.210  11.687  10.996
67184W        W30952  23.534   2.290   4.737
67185W        W30953  18.620  32.009  12.847
67186W        W30954  23.119  29.428   0.457
67187W        W30955  26.952   2.727   2.662
67188W        W30956  17.066  29.035   1.912
67189W        W30957  39.989   9.700  12.520
67190W        W30958  16.731   0.456   2.778
67191W        W30959  32.458  37.386  12.563
67192W        W30960  44.438  40.407  14.878
67193W        W30961  14.315  19.100  14.002
67194W        W30962  41.881  14.219  12.509
67195W        W30963   8.370  22.591  12.918
67196W        W30964  41.811  13.694  13.544
67197W        W30965   8.723  12.290  11.385
67198W        W30966  30.917  24.191  14.933
67199W        W30967  30.651   9.291   1.802
67200W        W30968   3.830  17.198  12.370
67201W        W30969  37.420  24.112   4.735
67202W        W30970  10.326  29.092  13.421
67203W        W30971  24.524   7.376  14.325
67204W        W30972  30.463   0.886  10.514
67205W        W30973  22.533  34.450   1.841
67206W        W30974   6.768  26.619   4.728
67207W        W30975  38.822   1.396  11.029
67208W        W30976  16.780  27.956   2.390
67209W        W30977  24.717  35.967  14.880
67210W        W30978  23.533  10.723   1.410
67211W        W30979  20.184  38.016   1.332
67212W        W30980  10.661  39.357  11.979
67213W        W30981  23.223  34.425  13.942
67214W        W30982  30.516  38.861  13.965
67215W        W30983   3.785  24.149   1.795
67216W        W30984   6.764  23.518   0.385
67217W        W30985  23.529  25.632   1.721
67218W        W30986   3.858  10.863   3.213
67219W        W30987   8.311  24.079  14.931
67220W        W30988  42.910   7.786  12.026
67221W        W30989   8.229  38.017   2.733
67222W        W30990  14.287  26.692   1.391
67223W        W30991  32.576  10.200   1.351
67224W        W30992  17.797  43.004   0.311
67225W        W30993   4.819  16.643   1.270
67226W        W30994  18.097  26.647  11.491
67227W        W30995   0.951  17.727   0.295
67228W        W30996  44.896   6.884   0.377
67229W        W30997  43.276   2.791   2.850
67230W        W30998  34.514  35.064  14.429
67231W        W30999   1.261  29.058   2.746
67232W        W31000   5.384   3.778  13.366
67233W        W31001   2.371  24.659  12.913
67234W        W31002  41.018   9.797  11.015
67235W        W31003  22.697  20.719   1.414
67236W        W31004   0.292  27.950  10.945
67237W        W31005  39.066  29.938   2.770
67238W        W31006  38.533   5.245  10.464
67239W        W31007  43.845  39.909  14.767
67240W        W31008  39.824   0.426  13.805
67241W        W31009   2.328   0.453   1.290
67242W        W31010  16.281  31.013   1.349
67243W        W31011  30.041  34.511  12.437
67244W        W31012   6.721   8.817   2.293
67245W        W31013  43.818  43.354  10.415
67246W        W31014   8.243   1.745   3.319
67247W        W31015  29.146  43.780   0.853
67248W        W31016  30.427   3.444  12.562
67249W        W31017  21.709  36.576  11.076
67250W        W31018  37.524   9.737   1.934
67251W        W31019  30.115  42.294   3.831
67252W        W31020   7.205  28.600   3.222
67253W        W31021   3.809   8.717  14.348
67254W        W31022  38.568  21.060  12.497
67255W        W31023  21.726  44.487   2.775
67256W        W31024  14.292  13.824  12.483
67257W        W31025   7.879   8.779   5.281
67258W        W31026  37.568  14.645   5.100
67259W        W31027  30.626  28.077  12.060
67260W        W31028   8.397  28.062   2.683
67261W        W31029  39.871   2.233  11.898
67262W        W31030  33.895  34.089  14.993
67263W        W31031   6.776   9.172   2.360
67264W        W31032  16.208  17.697  11.081
67265W        W31033  32.119  16.124   2.860
67266W        W31034  16.809   3.821   1.369
67267W        W31035  19.251  11.642  11.520
67268W        W31036  39.454  43.814   3.262
67269W        W31037   9.334  18.778   1.245
67270W        W31038  19.597  12.268  11.049
67271W        W31039  33.424  31.968  13.420
67272W        W31040  19.131  14.264  11.911
67273W        W31041  24.989   5.842  12.383
67274W        W31042  34.542   8.326  11.885
67275W        W31043  28.643  41.459   0.270
67276W        W31044  12.186  24.100  13.337
67277W        W31045   3.732  30.147   4.617
67278W        W31046  34.042  33.994   2.394
67279W        W31047  36.062  22.561  13.325
67280W        W31048  16.213   6.883   2.216
67281W        W31049  17.106  26.951   3.687
67282W        W31050  42.411  31.106  11.954
67283W        W31051   8.890  26.954  10.950
67284W        W31052  29.940  24.553  14.020
67285W        W31053   0.293  37.842  14.985
67286W        W31054  15.799  42.941   2.258
67287W        W31055  30.106  32.903  12.427
67288W        W31056  13.274  28.159   2.225
67289W        W31057   6.324  44.445   9.964
67290W        W31058   8.860  32.010  10.444
67291W        W31059   3.710  17.236   2.192
67292W        W31060  15.637  30.127   0.960
67293W        W31061   7.878   4.792   1.408
67294W        W31062  24.196  33.467  14.905
67295W        W31063  20.714  12.616  11.557
67296W        W31064  29.141  44.822  11.879
67297W        W31065  35.901  38.386   2.820
67298W        W31066  25.018  20.701   1.853
67299W        W31067  31.504  14.709   5.094
67300W        W31068  37.831  27.512  10.518
67301W        W31069  24.041  19.053  14.783
67302W        W31070  38.914  24.058  11.056
67303W        W31071   5.712  20.169   3.184
67304W        W31072   3.826  28.034   3.665
67305W        W31073   2.753   1.256   4.268
67306W        W31074  39.356  13.727  13.847
67307W        W31075  35.454  10.684   0.743
67308W        W31076  15.294   5.298   1.442
67309W        W31077   6.384  31.609  13.791
67310W        W31078  33.923  44.912   3.818
67311W        W31079  29.530  12.615   2.368
67312W        W31080  24.709  39.402  12.091
67313W        W31081  20.196  39.005  10.097
67314W        W31082   8.744  29.653  14.818
67315W        W31083  44.952   4.756  12.352
67316W        W31084  19.703  33.006  14.926
67317W        W31085  36.580  44.886   3.639
67318W        W31086   8.343   6.229   0.743
67319W        W31087  17.087  32.529   3.321
67320W        W31088   2.720  20.124   1.928
67321W        W31089  37.926   8.838   3.798
67322W        W31090   4.944   6.734   2.184
67323W        W31091  32.979  31.138  10.448
67324W        W31092  37.427   0.271   1.802
67325W        W31093  19.761  42.857   2.187
67326W        W31094  11.677  16.592  13.403
67327W        W31095  29.112  10.755   2.200
67328W        W31096  10.225  18.195  11.035
67329W        W31097  35.885  42.314  12.580
67330W        W31098  22.519  37.457   2.822
67331W        W31099  40.052  22.693  13.874
67332W        W31100   9.706  13.775  12.931
67333W        W31101   6.790   0.305   0.749
67334W        W31102  21.176  21.221   3.155
67335W        W31103   4.341  38.528   4.280
67336W        W31104  40.401   6.905  10.410
67337W        W31105  42.448  25.519   3.226
67338W        W31106  28.565  43.497   4.665
67339W        W31107   4.702  20.704   5.283
67340W        W31108   7.788  24.981   4.134
67341W        W31109   7.741   8.857   3.861
67342W        W31110  36.524  32.577  13.794
67343W        W31111  41.329   3.914  14.385
67344W        W31112  14.647  30.492  10.933
67345W        W31113  15.724  31.083  11.089
67346W        W31114   2.228  16.126  12.490
67347W        W31115  17.773  33.985   2.903
67348W        W31116  44.905   2.887   1.784
67349W        W31117  11.682  39.400   1.428
67350W        W31118  35.470  10.639  13.412
67351W        W31119   0.455  42.816  13.062
67352W        W31120  19.674  26.461   0.806
67353W        W31121  42.428  19.229  11.905
67354W        W31122   9.774  16.790  12.982
67355W        W31123  40.499   0.308   0.894
67356W        W31124  15.123   2.430  14.332
67357W        W31125  33.423  16.722  11.894
67358W        W31126  40.542  36.976  14.768
67359W        W31127  20.073  31.025  12.001
67360W        W31128   2.363   5.307  13.801
67361W        W31129  22.517  44.988  13.509
67362W        W31130  40.044   6.741  12.457
67363W        W31131   7.254  31.944  13.438
67364W        W31132  42.993  37.497   3.655
67365W        W31133  21.128  37.086   2.749
67366W        W31134  26.563  10.736   3.668
67367W        W31135  29.104  10.777   0.281
67368W        W31136  20.252  13.664   2.662
67369W        W31137  15.824   0.818  10.924
67370W        W31138  43.448  33.455   3.221
67371W        W31139   9.247  10.328  13.534
67372W        W31140  11.316  27.604   4.600
67373W        W31141   1.379  33.980  10.540
67374W        W31142  14.174   1.948  13.428
67375W        W31143  15.301   8.382   0.314
67376W        W31144  21.141  41.791   2.852
67377W        W31145  30.968  39.495  13.496
67378W        W31146  31.437  19.150   3.367
67379W        W31147  31.904  14.205   1.740
67380W        W31148  37.057  36.570  10.443
67381W        W31149  14.607   9.224   1.422
67382W        W31150  42.942  24.674  13.896
67383W        W31151  41.849  23.686   2.376
67384W        W31152  39.435  29.164   4.281
67385W        W31153  25.108  12.700  11.459
67386W        W31154  19.681  15.285   4.279
67387W        W31155  12.337  13.124  12.889
67388W        W31156  37.350   3.928  11.411
67389W        W31157  26.628  21.533  13.818
67390W        W31158  36.979  11.292  12.980
67391W        W31159   6.688  30.528   1.424
67392W        W31160  24.531  37.993   4.237
67393W        W31161  14.832   2.468  12.863
67394W        W31162   6.296   3.877  14.879
67395W        W31163  21.177   8.371   0.730
67396W        W31164  37.047   0.475  12.972
67397W        W31165  42.521  22.015  14.396
67398W        W31166  14.282  30.092   1.340
67399W        W31167  43.785  34.033   3.308
67400W        W31168   1.258  29.042   3.726
67401W        W31169  34.544  27.021  12.911
67402W        W31170  34.520  10.342   3.703
67403W        W31171  35.572  28.527   1.711
67404W        W31172  27.626  27.183   2.329
67405W        W31173  40.410  44.458  12.016
67406W        W31174  21.039   4.907  11.014
67407W        W31175  44.277   7.809   4.752
67408W        W31176   5.766   3.769   2.802
67409W        W31177  36.453  26.078   4.814
67410W        W31178   8.866  13.154   2.282
67411W        W31179   5.428  21.031   1.445
67412W        W31180  13.346  44.370   3.288
67413W        W31181  21.726  11.749  13.457
67414W        W31182  22.573   2.341  14.494
67415W        W31183  17.618  10.817  10.437
67416W        W31184   5.413  17.740  12.506
67417W        W31185  29.021  23.012   0.735
67418W        W31186  21.758  12.203   2.208
67419W        W31187  31.097  21.543  14.000
67420W        W31188  15.804  29.172   3.854
67421W        W31189  12.722  13.637   9.525
67422W        W31190  34.516  31.976   2.374
67423W        W31191  36.449  15.624  12.577
67424W        W31192  21.534  34.028   5.221
67425W        W31193  25.663  29.044  14.791
67426W        W31194  41.477  12.144  11.993
67427W        W31195   1.891  28.937  14.876
67428W        W31196  23.228  36.528  13.370
67429W        W31197  27.149  20.532   2.774
67430W        W31198  21.611  39.812   0.888
67431W        W31199  36.410  13.139   1.216
67432W        W31200  41.981  37.880   2.357
67433W        W31201   0.924  10.873  13.988
67434W        W31202  19.651  23.652   5.731
67435W        W31203  32.021  11.746  12.846
67436W        W31204  18.134  40.813  11.601
67437W        W31205   9.785  23.165   2.377
67438W        W31206  32.066  33.602   4.658
67439W        W31207  29.595  43.797   2.860
67440W        W31208   5.832  10.682  14.770
67441W        W31209  21.578  21.210  12.493
67442W        W31210  29.623  44.386   2.251
67443W        W31211  22.025  18.735  11.007
67444W        W31212  12.181  12.671   3.750
67445W        W31213  35.073  21.149  11.992
67446W        W31214  11.260   7.727   1.314
67447W        W31215   4.301  42.477  14.275
67448W        W31216  18.180  36.458  13.004
67449W        W31217  25.191   5.339  14.426
67450W        W31218  35.409  22.180  11.005
67451W        W31219  44.835   3.278  14.383
67452W        W31220   8.827  37.402   1.829
67453W        W31221  39.908   9.890   1.418
67454W        W31222   1.782  16.701  13.046
67455W        W31223  24.070  39.513   2.797
67456W        W31224  41.985  11.336   3.263
67457W        W31225  20.188   2.379   1.857
67458W        W31226   2.470  23.169   3.167
67459W        W31227  13.734   0.468  14.937
67460W        W31228  27.012  20.649   3.191
67461W        W31229   8.294   9.290   2.809
67462W        W31230   7.324  35.917   0.867
67463W        W31231  14.747   7.201   3.684
67464W        W31232  10.200   2.960  13.057
67465W        W31233  31.529  24.491  10.572
67466W        W31234  37.545   6.801  13.503
67467W        W31235  43.468  15.586   1.884
67468W        W31236  22.542  44.809   4.312
67469W        W31237  16.582  15.315  12.476
67470W        W31238  19.205   7.286   3.358
67471W        W31239  34.989  19.056  14.284
67472W        W31240   4.740  44.409   3.669
67473W        W31241  30.030  36.991   4.321
67474W        W31242  27.063  36.363   4.597
67475W        W31243  40.024  15.820   2.321
67476W        W31244   8.803  21.142  12.455
67477W        W31245  27.600  11.765   5.320
67478W        W31246  36.547  42.334  14.849
67479W        W31247  35.941   6.278   2.793
67480W        W31248  26.602  23.984   3.214
67481W        W31249  40.348  31.118   3.811
67482W        W31250  42.014  11.788   0.394
67483W        W31251  23.542  44.861   1.304
67484W        W31252  20.573  20.691   4.705
67485W        W31253  22.720  12.721   3.180
67486W        W31254  21.654  11.228   0.909
67487W        W31255   3.858  25.576  13.485
67488W        W31256  16.288  36.028   0.766
67489W        W31257  23.065  29.942  13.356
67490W        W31258   0.285  28.030  11.986
67491W        W31259  33.078  35.018   2.707
67492W        W31260  14.167  31.614   0.925
67493W        W31261  29.938  41.987   0.919
67494W        W31262  32.467  41.973  12.369
67495W        W31263  28.501  36.936   1.893
67496W        W31264  42.334  30.991  14.943
67497W        W31265  26.067  37.031  12.550
67498W        W31266  28.596  34.895   2.341
67499W        W31267  12.645  11.671  11.553
67500W        W31268  32.133  24.508   1.919
67501W        W31269  12.205  44.980   1.729
67502W        W31270   3.382  19.146  10.944
67503W        W31271  17.651  12.683   4.171
67504W        W31272  12.159  21.608  14.504
67505W        W31273  34.385  34.604   0.827
67506W        W31274   3.718   9.705  14.920
67507W        W31275  41.982   2.732   4.795
67508W        W31276   0.917  28.163   2.277
67509W        W31277   5.360   9.380   3.336
67510W        W31278   5.278  43.989   0.426
67511W        W31279  34.096  35.083  11.070
67512W        W31280  41.299  15.769  14.816
67513W        W31281   6.853  25.514  13.363
67514W        W31282  41.471  38.402   2.298
67515W        W31283  33.406  39.829   0.833
67516W        W31284  20.189   4.263   0.733
67517W        W31285  26.080  26.627   4.227
67518W        W31286  23.017  43.421  11.512
67519W        W31287  15.286  17.692   2.200
67520W        W31288  41.976  37.454  12.091
67521W        W31289   1.472  41.489   1.321
67522W        W31290  27.014  16.602  10.924
67523W        W31291  33.575  14.592   1.280
67524W        W31292  23.704  30.450  11.546
67525W        W31293  13.295   7.746  14.493
67526W        W31294   8.383  33.096   0.794
67527W        W31295  22.227  13.773   3.333
67528W        W31296   4.726   7.223   1.391
67529W        W31297  35.992  21.616  14.452
67530W        W31298  43.983  14.247   3.648
67531W        W31299  43.384   9.814   4.162
67532W        W31300  17.659   7.884   1.421
67533W        W31301  37.399  33.605  14.453
67534W        W31302  16.702  17.622  14.404
67535W        W31303  44.330  28.664   2.771
67536W        W31304  40.850  39.551   2.222
67537W        W31305  28.168  42.427   3.304
67538W        W31306  21.145  38.430  13.808
67539W        W31307   4.411  20.649  11.394
67540W        W31308  23.668  29.133   0.782
67541W        W31309  39.019  11.791   2.226
67542W        W31310   8.402  13.611  13.394
67543W        W31311  20.156  11.840  13.958
67544W        W31312  43.420   9.722   2.687
67545W        W31313  22.676  32.979  12.518
67546W        W31314   4.935  17.283   4.724
67547W        W31315  32.500  27.118   1.804
67548W        W31316  25.523  14.108   3.267
67549W        W31317  30.421  36.059   1.913
67550W        W31318  36.490  29.600  11.861
67551W        W31319   4.395   7.254  14.823
67552W        W31320   4.274   5.379  10.936
67553W        W31321  34.486  24.204  14.390
67554W        W31322   3.445  21.739  12.943
67555W        W31323  43.441   8.657  13.877
67556W        W31324  11.845   4.325  13.510
67557W        W31325  35.876  24.677   4.215
67558W        W31326  10.746  37.997   4.765
67559W        W31327  15.086  25.097   3.772
67560W        W31328  23.681   3.430   2.727
67561W        W31329  38.983  12.155  14.429
67562W        W31330  15.715  16.248   9.955
67563W        W31331  32.423   7.271  13.004
67564W        W31332  17.088  31.429  11.496
67565W        W31333  25.069   2.268   3.263
67566W        W31334  25.696  12.757   4.602
67567W        W31335  18.787  38.438  13.981
67568W        W31336  11.195  25.211   0.300
67569W        W31337   7.844  29.172   0.796
67570W        W31338  15.787   4.302   4.645
67571W        W31339  26.490  27.021  11.995
67572W        W31340  18.166  22.703   2.890
67573W        W31341  11.133  43.318  14.415
67574W        W31342   8.867  32.995   2.179
67575W        W31343  37.037  43.924  14.866
67576W        W31344   8.311  25.678   0.298
67577W        W31345  25.040  26.553  14.867
67578W        W31346  22.034  15.636  14.027
67579W        W31347  35.955  33.392  12.015
67580W        W31348  26.198  41.994   4.692
67581W        W31349  32.911  42.506   3.633
67582W        W31350  35.074  40.828   4.185
67583W        W31351  31.415   8.710  12.436
67584W        W31352  21.690   9.360   4.822
67585W        W31353  31.914  39.956  11.081
67586W        W31354   5.299   9.352  14.404
67587W        W31355  31.900  34.080   1.327
67588W        W31356  26.058   1.299   2.862
67589W        W31357   4.833  34.593  14.864
67590W        W31358  34.396  24.712   0.916
67591W        W31359  44.383  29.653   1.400
67592W        W31360  41.989   2.410   4.142
67593W        W31361   3.723   5.846   0.452
67594W        W31362  28.575  35.009  14.426
67595W        W31363  42.285  19.689  14.434
67596W        W31364  41.337  36.950   1.343
67597W        W31365  37.871  12.789  12.991
67598W        W31366  43.769  17.257   0.338
67599W        W31367  25.618   5.239   3.812
67600W        W31368  29.661  11.154   3.673
67601W        W31369   4.266  28.509   2.321
67602W        W31370   5.837  37.041  13.811
67603W        W31371  32.636  29.576   2.240
67604W        W31372   8.264   2.229  12.008
67605W        W31373  43.868   0.958  11.020
67606W        W31374  35.389  17.196  10.460
67607W        W31375   8.748   8.771   4.608
67608W        W31376   3.326  44.295  12.417
67609W        W31377   2.419  13.113  10.985
67610W        W31378   3.885  36.943  12.854
67611W        W31379   5.919  30.960  11.024
67612W        W31380  25.563  25.214   0.368
67613W        W31381  33.946  31.988  11.460
67614W        W31382  39.999  28.523   2.348
67615W        W31383  30.562  35.999  10.585
67616W        W31384  18.229  28.988   4.311
67617W        W31385  13.840  14.230   0.886
67618W        W31386   2.291  24.059   4.706
67619W        W31387  39.328  38.015   1.350
67620W        W31388  19.133   7.683  12.398
67621W        W31389  31.937  21.571   2.298
67622W        W31390  34.443  41.872   0.914
67623W        W31391   3.414  43.911   1.312
67624W        W31392  38.418  43.809   0.949
67625W        W31393  33.461  20.762   2.801
67626W        W31394  11.665   2.269  11.408
67627W        W31395   9.828  16.252  10.962
67628W        W31396  34.381  10.723   4.213
67629W        W31397  44.785  19.039  11.912
67630W        W31398  24.185  42.314  12.453
67631W        W31399  18.126  37.903  13.420
67632W        W31400   8.771  21.247   4.270
67633W        W31401  20.641  27.015  10.602
67634W        W31402  32.963   6.229  11.990
67635W        W31403  31.976  17.605   0.329
67636W        W31404   8.205  12.305  14.472
67637W        W31405  11.752  12.201   0.896
67638W        W31406  28.598  23.660  13.020
67639W        W31407  21.531  26.952   3.750
67640W        W31408  17.296   7.356   4.715
67641W        W31409  42.799   7.871  11.411
67642W        W31410  12.767  20.562  14.891
67643W        W31411  14.112  29.633  13.797
67644W        W31412  20.626   7.797   1.922
67645W        W31413   9.318  43.478  12.487
67646W        W31414  25.656   0.468  12.575
67647W        W31415  16.219  40.504  14.922
67648W        W31416  13.175  43.896   2.812
67649W        W31417  42.818   6.706  12.964
67650W        W31418  41.998  20.653   0.307
67651W        W31419   3.738  33.917  10.592
67652W        W31420  19.237   3.400  13.370
67653W        W31421  34.087  10.356  11.927
67654W        W31422  17.757  32.578   3.688
67655W        W31423  32.460  41.844   3.821
67656W        W31424  21.743  22.575   3.814
67657W        W31425  25.685   6.718   1.433
67658W        W31426  16.652  39.041  14.465
67659W        W31427  35.930  25.709  12.838
67660W        W31428  29.519  21.613  14.791
67661W        W31429  18.278  37.991   2.712
67662W        W31430  21.666  31.598  11.118
67663W        W31431  34.955   0.859  13.998
67664W        W31432  28.483  30.446  13.504
67665W        W31433  30.518   7.346  13.533
67666W        W31434  18.165  15.645  13.426
67667W        W31435  21.031   9.264  12.853
67668W        W31436  11.688  17.687   0.297
67669W        W31437  16.121  44.972  12.377
67670W        W31438  23.088  11.848   1.716
67671W        W31439  38.867  34.111   4.743
67672W        W31440   3.924  37.972   0.833
67673W        W31441  25.493  29.652   1.444
67674W        W31442  14.813  10.637  13.380
67675W        W31443   4.823  25.220  11.035
67676W        W31444  11.848  35.431   0.373
67677W        W31445  11.151  25.115  13.946
67678W        W31446  35.928   9.379  12.415
67679W        W31447   4.874   5.242  12.508
67680W        W31448  20.255  20.221  13.825
67681W        W31449  44.391  26.496  13.409
67682W        W31450   1.369  17.661  11.480
67683W        W31451  38.015  38.538  12.456
67684W        W31452  17.754  24.060   0.781
67685W        W31453  16.299   7.909  14.870
67686W        W31454  24.533  22.571  10.568
67687W        W31455   7.199   0.932  11.032
67688W        W31456  39.847  42.426   4.176
67689W        W31457  31.597   3.771  14.373
67690W        W31458  21.744  29.921   0.814
67691W        W31459  18.563   0.389   2.683
67692W        W31460  10.717   8.275   2.674
67693W        W31461  36.363  20.123   2.899
67694W        W31462  34.097  27.526  14.391
67695W        W31463  35.565  22.682  14.862
67696W        W31464  42.298   4.217  13.013
67697W        W31465   0.300  36.953  11.396
67698W        W31466  13.779  43.884  10.591
67699W        W31467  41.812   8.755   3.864
67700W        W31468  20.200  18.239  13.954
67701W        W31469  30.933   9.682  12.388
67702W        W31470  35.584   6.833  10.471
67703W        W31471  12.770  23.228  12.983
67704W        W31472   4.736   0.885  11.105
67705W        W31473  13.348  27.076  13.449
67706W        W31474   7.884  27.529   4.249
67707W        W31475   2.856  11.312   3.168
67708W        W31476   0.359   7.867  12.010
67709W        W31477  11.868  18.295   2.794
67710W        W31478   8.805  41.383   1.787
67711W        W31479  43.905  30.655   3.751
67712W        W31480  36.506  40.452  13.798
67713W        W31481  24.140  38.010  12.889
67714W        W31482  44.872  10.269   2.700
67715W        W31483  21.721  24.719   3.210
67716W        W31484  17.796  24.983  11.964
67717W        W31485  34.392  29.531  12.473
67718W        W31486   8.779  42.379   4.211
67719W        W31487  11.171  18.770   1.358
67720W        W31488  38.032   9.702   3.862
67721W        W31489  25.152  23.493   3.191
67722W        W31490   4.420  23.209   3.328
67723W        W31491  13.756  29.447   1.356
67724W        W31492  14.153  20.114  12.493
67725W        W31493  22.143   2.886   2.199
67726W        W31494  17.598  28.501  14.880
67727W        W31495  25.473  41.431  12.074
67728W        W31496  34.588  36.549  14.303
67729W        W31497  39.506  24.699   1.815
67730W        W31498   0.755   5.326  12.486
67731W        W31499  10.825  24.628   1.437
67732W        W31500  28.617  41.979   4.710
67733W        W31501  27.507  27.039   1.845
67734W        W31502   9.314  31.487  12.521
67735W        W31503  16.182  13.260   1.395
67736W        W31504  11.667  27.573   4.627
67737W        W31505  20.682  36.521  12.077
67738W        W31506  28.639  35.888   3.347
67739W        W31507  33.506   1.362  13.495
67740W        W31508  27.456   1.277   4.131
67741W        W31509   5.751  12.756  14.494
67742W        W31510  17.623  40.327   0.859
67743W        W31511  31.030  13.251  11.879
67744W        W31512  37.084  41.877   2.814
67745W        W31513  38.866  43.450  11.915
67746W        W31514  42.834  23.547   4.157
67747W        W31515   4.891   6.775  12.506
67748W        W31516  26.157  42.437   1.338
67749W        W31517  15.629  10.311  11.111
67750W        W31518  17.138  32.413   1.883
67751W        W31519  35.092  44.336   3.266
67752W        W31520   7.175  24.708   2.739
67753W        W31521  20.065  18.589  10.551
67754W        W31522   7.798  31.433  10.575
67755W        W31523  38.526   3.732   1.810
67756W        W31524  42.466  31.410   2.819
67757W        W31525   4.907  15.166   3.158
67758W        W31526  32.572  20.729  11.945
67759W        W31527  39.481  27.495   5.278
67760W        W31528  40.359   1.755  11.107
67761W        W31529  11.287  24.147   4.272
67762W        W31530   3.247  17.064  11.878
67763W        W31531   2.739  15.300   4.142
67764W        W31532  38.391  20.637   3.242
67765W        W31533  43.021  27.960   1.408
67766W        W31534  19.533  15.742  11.868
67767W        W31535   5.221  35.048  11.583
67768W        W31536  17.558  35.972   0.903
67769W        W31537   9.800  39.061  12.393
67770W        W31538   8.280  36.464  12.540
67771W        W31539  27.584  27.488   3.260
67772W        W31540  36.904  13.209   0.733
67773W        W31541   2.839  11.791   2.744
67774W        W31542  29.575  26.056   0.482
67775W        W31543  18.175  17.564   1.841
67776W        W31544  21.569  44.857  12.018
67777W        W31545  22.007  23.046   4.320
67778W        W31546  32.431  18.272  14.989
67779W        W31547  44.411  41.385  14.344
67780W        W31548  22.127   3.775  14.810
67781W        W31549   0.357  23.564  11.530
67782W        W31550   0.857  42.950  11.081
67783W        W31551  22.543   5.329   3.735
67784W        W31552  39.037  11.802   2.771
67785W        W31553  29.469  42.981  14.335
67786W        W31554  29.503  39.015   4.797
67787W        W31555  41.844  43.336   3.263
67788W        W31556  29.164  30.965   0.734
67789W        W31557  34.111  24.635   2.778
67790W        W31558  28.558  43.454  14.912
67791W        W31559  22.523  30.483   3.756
67792W        W31560  26.114  28.463   1.821
67793W        W31561  17.733   4.216   4.634
67794W        W31562  13.233  39.843   1.699
67795W        W31563  12.831  19.708   1.835
67796W        W31564  36.008  32.031   5.097
67797W        W31565  17.212  29.575   0.856
67798W        W31566  39.920  21.692  12.450
67799W        W31567  26.482  27.518   3.230
67800W        W31568   5.409  27.520   4.631
67801W        W31569  37.010  31.402   4.125
67802W        W31570  33.031   2.377  11.092
67803W        W31571  19.168  16.723  10.590
67804W        W31572   0.881  38.550  14.854
67805W        W31573  31.566  43.914   0.332
67806W        W31574  13.323  38.959   1.813
67807W        W31575  44.358  38.950  12.071
67808W        W31576  16.277   4.787  12.552
67809W        W31577  38.921  38.034   0.843
67810W        W31578  40.994  16.620  12.924
67811W        W31579  29.137   3.273   3.339
67812W        W31580  14.205  19.103  14.952
67813W        W31581   9.830  20.050  11.562
67814W        W31582   4.918  38.490  13.983
67815W        W31583  25.124  30.120  11.417
67816W        W31584  26.463  29.003  12.072
67817W        W31585  12.265  32.094  14.434
67818W        W31586  41.441  26.493  14.322
67819W        W31587  15.140   9.737   3.387
67820W        W31588  10.151  17.066  11.949
67821W        W31589  18.693  14.130  10.629
67822W        W31590  42.297  10.712  12.908
67823W        W31591   1.257  38.908   1.831
67824W        W31592  22.169  37.403  13.951
67825W        W31593   3.933  10.718   2.714
67826W        W31594  32.471   9.737  13.858
67827W        W31595   9.361  19.269  14.502
67828W        W31596   1.923  12.120   4.174
67829W        W31597  34.433  29.516  10.608
67830W        W31598  35.421  22.057   4.839
67831W        W31599  18.217  31.585  13.835
67832W        W31600  39.316  21.108  13.849
67833W        W31601  42.507  43.862   4.193
67834W        W31602  23.654  34.106  10.632
67835W        W31603  44.976  34.961  11.402
67836W        W31604  40.005  27.109  13.354
67837W        W31605  34.491  17.068  14.409
67838W        W31606   7.262   4.433   4.628
67839W        W31607  17.249  37.567  10.062
67840W        W31608  16.130  13.759   1.318
67841W        W31609  32.431   0.344   0.765
67842W        W31610   8.189  42.816   0.750
67843W        W31611  32.041   6.867   1.737
67844W        W31612  16.116  21.722   9.644
67845W        W31613   6.238   8.787   4.646
67846W        W31614   2.805  17.225  13.826
67847W        W31615  37.087  40.451  13.026
67848W        W31616  39.815  36.908  13.977
67849W        W31617  33.605  22.553   2.700
67850W        W31618  34.612   8.378   0.737
67851W        W31619   7.283  21.679  13.943
67852W        W31620  24.576  34.525  12.415
67853W        W31621  15.134  29.585  12.369
67854W        W31622   8.191  16.267   3.387
67855W        W31623  36.482   2.726   0.465
67856W        W31624  39.034  10.194   2.777
67857W        W31625  30.023  27.966   1.342
67858W        W31626  15.272  13.337  11.028
67859W        W31627  15.723  27.549   4.143
67860W        W31628  34.434  26.030   0.778
67861W        W31629  31.109  23.015   0.313
67862W        W31630   9.772  41.331  11.399
67863W        W31631  36.957  23.711   4.192
67864W        W31632  13.821   0.837  12.464
67865W        W31633  27.196  43.442  13.331
67866W        W31634  14.812  32.098   9.940
67867W        W31635   7.894  29.140  11.039
67868W        W31636  27.676  43.512   3.148
67869W        W31637  42.466   7.899  14.861
67870W        W31638  43.339  21.604   3.682
67871W        W31639  29.437  32.425  12.075
67872W        W31640  41.847  35.040  11.916
67873W        W31641  26.977  17.129  12.497
67874W        W31642  42.483  23.038  11.089
67875W        W31643  20.089  24.007  12.885
67876W        W31644  42.990  19.729   0.349
67877W        W31645   9.704  25.486   1.736
67878W        W31646  38.501  32.605   3.383
67879W        W31647  21.038  28.932   2.218
67880W        W31648  11.329  29.072  11.492
67881W        W31649  11.235  39.415  14.430
67882W        W31650  19.218  32.101  13.981
67883W        W31651  40.055  26.548  13.493
67884W        W31652  39.864   2.926  11.589
67885W        W31653   5.239  32.953  12.054
67886W        W31654  26.195  16.650  13.897
67887W        W31655  25.607   9.663   1.296
67888W        W31656   1.415  17.638   3.380
67889W        W31657  34.507  15.720  11.482
67890W        W31658  25.654  43.316  12.896
67891W        W31659  35.105  18.261   3.743
67892W        W31660  23.128  20.666  10.419
67893W        W31661  42.925  36.510   0.322
67894W        W31662  38.053  42.792   3.300
67895W        W31663   5.841  31.481   4.319
67896W        W31664  31.631  11.700  12.360
67897W        W31665  34.395  14.163   1.739
67898W        W31666  19.124   6.278   2.830
67899W        W31667  33.539  18.235  11.960
67900W        W31668  13.213  39.436  11.119
67901W        W31669  27.031  14.776  10.641
67902W        W31670   2.857   7.831   4.135
67903W        W31671  19.175   9.177   1.284
67904W        W31672  40.423  34.478   1.310
67905W        W31673  19.062  14.718  10.557
67906W        W31674  20.758  19.284  10.994
67907W        W31675  11.344  23.583  10.488
67908W        W31676  16.293  41.343   3.749
67909W        W31677   5.247  16.691  14.998
67910W        W31678  44.283  38.360  14.412
67911W        W31679   3.754  22.241  12.537
67912W        W31680   7.872  15.146  10.534
67913W        W31681  23.158   4.445   0.829
67914W        W31682  27.985  20.763   0.937
67915W        W31683  13.126  33.060  10.552
67916W        W31684  19.139  13.716  13.498
67917W        W31685  15.281   1.253   3.278
67918W        W31686  21.649  24.092  11.484
67919W        W31687  42.294  19.048  10.597
67920W        W31688   7.876   8.239   3.732
67921W        W31689  17.569  25.969   0.935
67922W        W31690  13.217  22.159  10.533
67923W        W31691  11.177   5.308   3.334
67924W        W31692   5.340  27.969  14.794
67925W        W31693  37.488  16.283   0.462
67926W        W31694  37.400  10.702   0.386
67927W        W31695  16.213  34.047   1.430
67928W        W31696  22.735  12.253  13.454
67929W        W31697  13.188   9.365  13.041
67930W        W31698  16.803  28.007   1.359
67931W        W31699  33.468  33.555  10.434
67932W        W31700  17.266   3.941   0.899
67933W        W31701  24.619  12.213   1.862
67934W        W31702  19.572  36.520   0.248
67935W        W31703  23.063  10.743   0.416
67936W        W31704  32.460  15.778  11.545
67937W        W31705  41.460  32.554  10.090
67938W        W31706  11.797  23.217  14.308
67939W        W31707  25.657   2.411  13.907
67940W        W31708  16.792  12.847   1.919
67941W        W31709   3.763   6.252  12.991
67942W        W31710  29.957   7.682   4.287
67943W        W31711  24.036   9.771  10.511
67944W        W31712  29.080   9.232  11.104
67945W        W31713  38.470  28.594   5.667
67946W        W31714   0.772  35.587  13.794
67947W        W31715  38.902  26.021  13.996
67948W        W31716   6.185  40.409  14.353
67949W        W31717  15.204  35.101  11.536
67950W        W31718  30.113  44.981   2.835
67951W        W31719  40.048  34.378   4.192
67952W        W31720  39.890  13.193  10.564
67953W        W31721  22.508  13.790  12.430
67954W        W31722   6.814  40.981   2.242
67955W        W31723  23.136  44.865   1.837
67956W        W31724  33.009  40.997  14.373
67957W        W31725   3.312  25.054   1.442
67958W        W31726   1.330  19.767   0.256
67959W        W31727  36.397  44.009   4.695
67960W        W31728  21.624  23.709   0.286
67961W        W31729  15.587  28.049  10.414
67962W        W31730  43.403  43.281   0.315
67963W        W31731  35.393  21.536  10.960
67964W        W31732  38.425  13.304   0.303
67965W        W31733  15.625  35.545  13.341
67966W        W31734  35.451  32.427   3.676
67967W        W31735  29.062  26.202   3.268
67968W        W31736   4.749   5.439  11.410
67969W        W31737  32.605  13.734   1.832
67970W        W31738  17.742  28.496  11.011
67971W        W31739  32.896  16.596   2.804
67972W        W31740  37.999  43.504   1.745
67973W        W31741  31.127  28.576   2.281
67974W        W31742  23.563  18.195   3.277
67975W        W31743  39.030  12.209   0.955
67976W        W31744  39.558  10.299   2.819
67977W        W31745  10.197  10.236  13.314
67978W        W31746   6.727  12.793   0.312
67979W        W31747  18.709   1.783   1.874
67980W        W31748  11.282  44.475  10.465
67981W        W31749  22.722  44.398   1.316
67982W        W31750   2.862  37.010  11.511
67983W        W31751  24.641  27.145   0.247
67984W        W31752  42.897  33.924  10.459
67985W        W31753  35.958   8.743   1.860
67986W        W31754  36.066  40.011   3.697
67987W        W31755  16.668  27.450   4.191
67988W        W31756  36.925  22.128   1.366
67989W        W31757  44.968  34.040   1.439
67990W        W31758  24.000  12.320   0.750
67991W        W31759   0.830  31.992  13.418
67992W        W31760  26.675  37.972  10.496
67993W        W31761  40.413  28.672   0.400
67994W        W31762  29.997   3.311   2.750
67995W        W31763  24.213  33.003  12.088
67996W        W31764  15.703  27.963  11.486
67997W        W31765   1.250   3.830   4.723
67998W        W31766  32.540  11.150  10.433
67999W        W31767  43.281   0.867  10.964
68000W        W31768  19.601  44.847   0.471
68001W        W31769  29.476  11.237  11.515
68002W        W31770  27.679  18.718  10.921
68003W        W31771  22.053  15.741   1.695
68004W        W31772  10.684  21.624   0.932
68005W        W31773  34.025  17.133   2.396
68006W        W31774  31.104  33.520   0.955
68007W        W31775  30.094   2.787   4.758
68008W        W31776  26.190  18.058   3.225
68009W        W31777  40.324   1.827   3.751
68010W        W31778  37.385  27.106   3.731
68011W        W31779  12.192  16.150   3.795
68012W        W31780  43.925   6.302  11.033
68013W        W31781   0.817  25.031  10.446
68014W        W31782  44.420  17.631  14.482
68015W        W31783   2.444   1.749   1.788
68016W        W31784  22.009  21.161   2.237
68017W        W31785   5.855   4.719   3.203
68018W        W31786  42.800  26.558  13.862
68019W        W31787  42.899  43.352  12.345
68020W        W31788  13.652   8.338  10.638
68021W        W31789  35.480  17.126   3.171
68022W        W31790   6.312   4.368  12.003
68023W        W31791  36.018  29.628   3.285
68024W        W31792  11.740  11.264   0.306
68025W        W31793   9.655  31.022   2.371
68026W        W31794  12.787  29.148   4.345
68027W        W31795  19.770   9.704  11.394
68028W        W31796  24.650  10.330   1.802
68029W        W31797  33.998   0.744  11.371
68030W        W31798  25.210   2.357  14.402
68031W        W31799  44.429  24.576   4.822
68032W        W31800  28.936  29.460   4.160
68033W        W31801   5.724   9.819  11.547
68034W        W31802  40.841  44.334   3.635
68035W        W31803  15.130   0.272  14.802
68036W        W31804   9.294   1.408   2.379
68037W        W31805  25.975  17.681   1.402
68038W        W31806   0.467  24.535  14.442
68039W        W31807  27.634  24.028   2.764
68040W        W31808  16.203  14.283   2.822
68041W        W31809  35.070  10.190  10.522
68042W        W31810  43.999  32.962   1.876
68043W        W31811  29.966  38.421  12.490
68044W        W31812  36.093  41.042  14.948
68045W        W31813  18.640  33.470  13.971
68046W        W31814   0.460  11.754  11.405
68047W        W31815  15.088  36.067   4.281
68048W        W31816   9.313  24.089  13.330
68049W        W31817  17.271  25.567   3.330
68050W        W31818  19.551  39.891  14.782
68051W        W31819  20.261   3.908   3.184
68052W        W31820  30.139  37.440   0.736
68053W        W31821  36.995   0.438  11.526
68054W        W31822  29.563  27.624  11.916
68055W        W31823   3.308   2.299  14.004
68056W        W31824  14.786   1.469   4.231
68057W        W31825   8.720  22.593  12.394
68058W        W31826  42.901  19.660  10.589
68059W        W31827   2.241  28.480  12.840
68060W        W31828   5.330  41.832   0.933
68061W        W31829  32.598   9.227   2.400
68062W        W31830  43.859  25.562   1.768
68063W        W31831  25.128  28.974   3.306
68064W        W31832  26.193   7.904  14.489
68065W        W31833   5.333  14.333  14.355
68066W        W31834  10.266  25.680   1.334
68067W        W31835  36.869  32.403   9.486
68068W        W31836  26.004  31.539   9.665
68069W        W31837  26.476  29.131   4.127
68070W        W31838  38.956  15.175   3.776
68071W        W31839  35.878  28.668  12.033
68072W        W31840  26.964  24.028  10.996
68073W        W31841  26.616  29.634  14.301
68074W        W31842  44.795  15.209  12.055
68075W        W31843  44.983  29.627   0.805
68076W        W31844  40.400  14.331  11.525
68077W        W31845  24.532  42.348   2.714
68078W        W31846  15.194  28.132  11.993
68079W        W31847  16.811  42.955   3.643
68080W        W31848  26.630  10.282  12.407
68081W        W31849  20.075  41.797  12.361
68082W        W31850   8.244  20.727   2.284
68083W        W31851   4.425  11.697  11.882
68084W        W31852   2.243  12.184  14.779
68085W        W31853  34.900  13.716   3.295
68086W        W31854   7.880  10.663   3.702
68087W        W31855  12.254  41.831   2.813
68088W        W31856  39.813  17.266   1.359
68089W        W31857  33.561  19.062  13.509
68090W        W31858  42.452  28.147  10.971
68091W        W31859  17.227  31.896  14.922
68092W        W31860  29.033  30.531   4.283
68093W        W31861  12.832  15.295  13.968
68094W        W31862  34.082   0.795   1.814
68095W        W31863  26.179  28.543  13.848
68096W        W31864  23.575  31.048  13.983
68097W        W31865  26.558  18.142  11.043
68098W        W31866  12.620   6.741  13.018
68099W        W31867   3.823  43.996   4.674
68100W        W31868   5.220  44.493   1.317
68101W        W31869   7.894  26.164  10.971
68102W        W31870   1.247  27.665   2.319
68103W        W31871   4.885  35.459   2.846
68104W        W31872  21.145  10.727  14.308
68105W        W31873   8.300  24.105   1.853
68106W        W31874   1.947   3.360  10.554
68107W        W31875  27.105  25.130  13.371
68108W        W31876  25.196  34.526   0.473
68109W        W31877   9.675   7.182   0.412
68110W        W31878   9.359  34.030   0.858
68111W        W31879  33.474  16.291   4.603
68112W        W31880  18.077   0.419  11.476
68113W        W31881   8.682  27.168   2.902
68114W        W31882  28.592  29.550  13.022
68115W        W31883  13.253  37.024  13.842
68116W        W31884  11.301  20.590  11.566
68117W        W31885  40.410  14.223  14.283
68118W        W31886  24.170   4.375   1.326
68119W        W31887  40.798   1.913  12.874
68120W        W31888  35.876  26.191  11.573
68121W        W31889  16.218  16.645  11.127
68122W        W31890  42.402  17.194  14.913
68123W        W31891   4.901   1.389  10.631
68124W        W31892  12.183  37.572   4.837
68125W        W31893  12.816  21.523  11.992
68126W        W31894  27.982  34.870   4.195
68127W        W31895  22.645  14.713  12.946
68128W        W31896  30.628  18.646  11.125
68129W        W31897   8.872  34.492   0.882
68130W        W31898  26.979  30.056   0.957
68131W        W31899  27.019  44.854   0.464
68132W        W31900   2.849   4.745   4.292
68133W        W31901  22.223  38.853  14.843
68134W        W31902   1.803  43.834   3.300
68135W        W31903  44.920  26.974  13.963
68136W        W31904  35.440  31.916  10.941
68137W        W31905   7.378  26.686   2.752
68138W        W31906  28.163  14.167  11.952
68139W        W31907  38.409  33.499   1.222
68140W        W31908  22.135  40.449   2.663
68141W        W31909   5.252  15.090   3.703
68142W        W31910  26.647   9.656  11.588
68143W        W31911   8.781   3.458  10.943
68144W        W31912   9.208  34.882  13.447
68145W        W31913  21.753  21.127   4.639
68146W        W31914  28.645  22.539  11.471
68147W        W31915  24.507   7.390  12.459
68148W        W31916  41.385  12.622   1.724
68149W        W31917  32.023  27.134   1.325
68150W        W31918  41.019  13.628  11.602
68151W        W31919  16.137  34.872   4.697
68152W        W31920  37.567  15.669  12.491
68153W        W31921  27.567  13.208   3.871
68154W        W31922  42.331   6.202  14.463
68155W        W31923  44.387  39.065   3.274
68156W        W31924  29.530  30.568  12.960
68157W        W31925   7.260  30.489   2.789
68158W        W31926  10.668  24.560   3.344
68159W        W31927  30.041   0.753  10.474
68160W        W31928   5.788   2.426  14.398
68161W        W31929  35.389  10.762  10.559
68162W        W31930   7.839  10.350  11.486
68163W        W31931   6.403  22.502   2.183
68164W        W31932  27.568   9.240  14.959
68165W        W31933  29.599  14.161  12.478
68166W        W31934  42.894  13.680   1.362
68167W        W31935  41.348  43.938  11.043
68168W        W31936  20.700  17.791  10.496
68169W        W31937   5.411   8.885  11.523
68170W        W31938   9.227  17.292  13.899
68171W        W31939   7.783   1.281   1.278
68172W        W31940   4.705  24.115  12.356
68173W        W31941   1.804  44.472  13.483
68174W        W31942  32.961   6.828   0.863
68175W        W31943   4.220  21.623   0.953
68176W        W31944  19.764  43.889   3.205
68177W        W31945  34.940  42.805  11.858
68178W        W31946  20.740  16.739  11.018
68179W        W31947   6.702  26.644  10.117
68180W        W31948  14.835  24.049  10.144
68181W        W31949  32.981  34.878  10.984
68182W        W31950   2.234   6.327  10.610
68183W        W31951  20.647  18.168   1.383
68184W        W31952  25.116  26.182  11.389
68185W        W31953  38.029  34.962   0.920
68186W        W31954  31.599  14.100  11.539
68187W        W31955  34.584  11.672   3.152
68188W        W31956  13.338   8.689   3.207
68189W        W31957  39.329  19.535   2.815
68190W        W31958  29.991  29.121  14.836
68191W        W31959   2.387  22.066   2.412
68192W        W31960  42.791  21.600  10.503
68193W        W31961  36.038  43.425   3.152
68194W        W31962  39.996  43.995   0.291
68195W        W31963  19.639  37.925  12.877
68196W        W31964  18.240   7.856  14.453
68197W        W31965   2.739  15.720   0.417
68198W        W31966  27.511  34.050   9.663
68199W        W31967  13.835  20.111   3.765
68200W        W31968   9.211  31.535   0.789
68201W        W31969  15.097  39.006  14.320
68202W        W31970  37.458  27.644  13.897
68203W        W31971   3.877   8.367  12.577
68204W        W31972  21.261   2.962  10.952
68205W        W31973  12.819   1.408   2.378
68206W        W31974  12.164  27.039   0.750
68207W        W31975   8.349  16.640  11.601
68208W        W31976  36.478  17.064   1.218
68209W        W31977   1.458   5.839  11.962
68210W        W31978  13.147  42.386  13.345
68211W        W31979  37.978  14.654   2.307
68212W        W31980  32.952  40.357   1.368
68213W        W31981  26.162  11.254   4.669
68214W        W31982  34.481  44.912  14.375
68215W        W31983  27.544  11.785  10.414
68216W        W31984  36.414  36.575  14.311
68217W        W31985  42.318  44.929   3.270
68218W        W31986  44.966  32.619   2.886
68219W        W31987  41.320  23.531  12.012
68220W        W31988   2.944   8.829  12.855
68221W        W31989  34.073  22.132  11.904
68222W        W31990   6.218   1.454   1.815
68223W        W31991  14.249  14.101  11.923
68224W        W31992  27.983  33.515   9.948
68225W        W31993  39.824   1.336  10.441
68226W        W31994   8.240  30.159   0.318
68227W        W31995  36.016  15.221  14.445
68228W        W31996   0.874  40.866  12.513
68229W        W31997  10.790   4.917   4.307
68230W        W31998  32.901  27.139   4.272
68231W        W31999  42.335  24.056  14.886
68232W        W32000  28.462   1.954  14.791
68233W        W32001  23.163  34.978  14.431
68234W        W32002  21.059  28.973   1.311
68235W        W32003  20.606  38.465  13.380
68236W        W32004  30.646  34.898   1.288
68237W        W32005   5.721  10.712   1.904
68238W        W32006  26.663   3.272  10.582
68239W        W32007  34.464  21.609  10.545
68240W        W32008   1.815  30.609   2.717
68241W        W32009  29.457  37.348  12.366
68242W        W32010  13.702  11.762   2.824
68243W        W32011  12.156   1.818  11.415
68244W        W32012  31.934  43.006  13.376
68245W        W32013  44.385  25.154  13.370
68246W        W32014  32.907  27.667  11.059
68247W        W32015   7.870  19.145  13.926
68248W        W32016   8.295  30.480   4.656
68249W        W32017   7.246  36.536  14.815
68250W        W32018  24.692  33.081  14.939
68251W        W32019  11.290  43.981  10.410
68252W        W32020  32.988  14.321   2.305
68253W        W32021  43.331   9.759   1.214
68254W        W32022  40.306  10.711  11.449
68255W        W32023  11.132  10.217  12.853
68256W        W32024  18.129  27.037   1.342
68257W        W32025  21.684  35.047  12.407
68258W        W32026  36.932   6.882   1.428
68259W        W32027  31.570  10.280  13.445
68260W        W32028  33.511   7.764   3.828
68261W        W32029  37.369  43.367   2.411
68262W        W32030  17.783   9.815  12.049
68263W        W32031   6.352  20.704  10.476
68264W        W32032  13.633  33.989  12.003
68265W        W32033  42.921  11.731  13.929
68266W        W32034  20.170  39.874  11.400
68267W        W32035  29.508  25.082   2.775
68268W        W32036  20.121  15.278  11.584
68269W        W32037   2.948  37.419  14.320
68270W        W32038  22.047  29.160   4.163
68271W        W32039  18.678   1.738  12.987
68272W        W32040  36.858  26.193   1.305
68273W        W32041  27.614  10.877   3.715
68274W        W32042  44.940  28.612   3.384
68275W        W32043  27.016  39.356  13.848
68276W        W32044  31.995  20.248   5.120
68277W        W32045  29.423  16.135  13.421
68278W        W32046  29.954   0.803  13.941
68279W        W32047  24.191   0.360  13.957
68280W        W32048  16.805  18.234  11.093
68281W        W32049  42.930   8.733  11.606
68282W        W32050  12.158  41.927   1.759
68283W        W32051  28.187  12.824   1.902
68284W        W32052  18.178  17.239   2.296
68285W        W32053   9.233  44.973   0.256
68286W        W32054  33.944  31.936  13.857
68287W        W32055  18.552  25.584   0.942
68288W        W32056  32.512  40.380   4.607
68289W        W32057   1.316  21.233  14.491
68290W        W32058  22.664  38.416   3.711
68291W        W32059  20.541  23.053   2.770
68292W        W32060   3.894  26.608   2.239
68293W        W32061  42.414   0.254  13.048
68294W        W32062  34.479  11.138  10.997
68295W        W32063  37.353  30.608   3.337
68296W        W32064  28.522  34.446   0.342
68297W        W32065  11.636  31.018  11.056
68298W        W32066  34.987  22.727   3.635
68299W        W32067  35.889  27.941  13.398
68300W        W32068  16.198  43.516   4.731
68301W        W32069   9.763  12.809  13.318
68302W        W32070   7.351  44.888   3.203
68303W        W32071  27.532  11.335   0.835
68304W        W32072  21.169  30.083   1.259
68305W        W32073   3.411  22.611  13.328
68306W        W32074  11.199  41.320  10.534
68307W        W32075  24.692  36.542  12.959
68308W        W32076  39.914  17.752  11.861
68309W        W32077  11.707  30.079   1.447
68310W        W32078   5.854  30.152   2.873
68311W        W32079   0.866  26.969   1.712
68312W        W32080  16.713   1.430   4.813
68313W        W32081  31.510  38.018   4.307
68314W        W32082   8.761  39.339  13.847
68315W        W32083  40.531  36.368  10.546
68316W        W32084  23.164   6.395   2.873
68317W        W32085  16.098  11.704   0.804
68318W        W32086   8.724  39.868  12.940
68319W        W32087  28.488  27.636  14.313
68320W        W32088  33.473  39.027   0.387
68321W        W32089  24.676  30.116   3.253
68322W        W32090  18.054  22.554   3.824
68323W        W32091  35.100  32.015   2.772
68324W        W32092   0.325  21.550   1.741
68325W        W32093  17.063  11.647  12.398
68326W        W32094   8.237  30.452  10.987
68327W        W32095   0.460  21.583  10.411
68328W        W32096   1.751  31.455   2.803
68329W        W32097  37.017  13.717   2.333
68330W        W32098   7.750  19.741   2.755
68331W        W32099  44.986  23.494   2.887
68332W        W32100  30.912  22.717   1.783
68333W        W32101   4.824  11.816  11.067
68334W        W32102  39.010  38.386  12.518
68335W        W32103  11.332  29.655  11.492
68336W        W32104  41.388  38.439   0.344
68337W        W32105  10.644   0.986  11.025
68338W        W32106  13.153   4.367  11.862
68339W        W32107  34.886   2.280   4.246
68340W        W32108  38.533  44.293  11.070
68341W        W32109  11.212   6.324   1.279
68342W        W32110  39.036  19.723  12.379
68343W        W32111  28.534  20.668   0.765
68344W        W32112  34.937   2.355  14.323
68345W        W32113  42.392  37.852   2.701
68346W        W32114  37.061   0.250   1.430
68347W        W32115  13.724   5.384   1.412
68348W        W32116  25.618  30.531  13.804
68349W        W32117  23.662   4.302  12.047
68350W        W32118  30.433  11.313  14.408
68351W        W32119  10.632  13.724   1.735
68352W        W32120  43.775  18.232   3.813
68353W        W32121  40.005  29.653  12.057
68354W        W32122   1.480  28.565  14.929
68355W        W32123  42.452  12.258  13.038
68356W        W32124  26.139  25.630   3.353
68357W        W32125  34.395  35.894   1.838
68358W        W32126  29.035  21.604  10.506
68359W        W32127  43.291  27.632   1.777
68360W        W32128  34.007   7.310   3.733
68361W        W32129  37.527   6.208  13.436
68362W        W32130  23.077  15.226  10.962
68363W        W32131  24.982  31.145  13.519
68364W        W32132  31.003  44.936  13.855
68365W        W32133  26.199   3.904   1.718
68366W        W32134  42.925  17.717   3.687
68367W        W32135   3.767  42.982  14.310
68368W        W32136  32.962  22.541  11.535
68369W        W32137  11.816  24.076   2.744
68370W        W32138  33.990  10.776   3.647
68371W        W32139  18.691  12.361  13.982
68372W        W32140  44.971  10.165  12.024
68373W        W32141  42.414  33.544   1.271
68374W        W32142   6.265  40.991  14.276
68375W        W32143   2.425  28.508   2.262
68376W        W32144   4.237  22.595   3.788
68377W        W32145  21.211  10.867   3.176
68378W        W32146   8.172  26.573  12.043
68379W        W32147  37.372  35.042  14.008
68380W        W32148  30.626  43.909  11.029
68381W        W32149   0.742  31.070  11.447
68382W        W32150   4.391   8.837   0.748
68383W        W32151  34.106   3.895   2.713
68384W        W32152  37.056  22.570   2.307
68385W        W32153   3.811  22.660   3.315
68386W        W32154  25.529  44.856   4.623
68387W        W32155   1.374  36.011  14.350
68388W        W32156  13.179  41.438  13.333
68389W        W32157  14.715  35.108  11.601
68390W        W32158   1.451  24.108  14.774
68391W        W32159  14.610  34.866   4.782
68392W        W32160  41.959   1.293   2.197
68393W        W32161   3.223  16.274   0.397
68394W        W32162   1.775   6.235  13.882
68395W        W32163  39.392  41.525   4.209
68396W        W32164   9.677  39.538   2.875
68397W        W32165  39.057   8.233   0.294
68398W        W32166  23.601   2.381  14.817
68399W        W32167  12.693   0.926  11.423
68400W        W32168  21.018  22.593  11.021
68401W        W32169  17.699  17.615   2.221
68402W        W32170  39.982  29.667  13.012
68403W        W32171  21.256  26.099  13.971
68404W        W32172  39.539  21.610  12.421
68405W        W32173  43.923  32.038  12.870
68406W        W32174  13.287  17.251   4.818
68407W        W32175  31.476  22.668  12.403
68408W        W32176   0.452  37.003   1.441
68409W        W32177   7.306  12.116   2.252
68410W        W32178  10.311  30.521   3.630
68411W        W32179  12.165  14.293  12.912
68412W        W32180   6.201  26.562   1.717
68413W        W32181   8.681  24.227  13.874
68414W        W32182  32.911   4.833   3.267
68415W        W32183  22.060  41.309  10.619
68416W        W32184  15.611  33.575   2.390
68417W        W32185  38.984  42.803   4.328
68418W        W32186  19.637   2.738  12.040
68419W        W32187  12.808  40.441  13.994
68420W        W32188  23.992   3.354   4.794
68421W        W32189  30.607  27.673  12.567
68422W        W32190  21.545  28.103  10.476
68423W        W32191  21.515   9.291   1.822
68424W        W32192  19.590   4.209   3.833
68425W        W32193  38.982   0.825   2.798
68426W        W32194  15.147  35.064   2.207
68427W        W32195  26.665   9.704  13.851
68428W        W32196  44.918   2.795  12.833
68429W        W32197  14.192  41.866   0.808
68430W        W32198  20.536  37.986  11.568
68431W        W32199   7.706  27.190  13.372
68432W        W32200  33.109  32.461  14.943
68433W        W32201  29.646  21.730   1.236
68434W        W32202  18.783  33.972   1.902
68435W        W32203  36.357   1.331   0.893
68436W        W32204  26.632  14.139  12.544
68437W        W32205  19.191  21.037   4.190
68438W        W32206  22.996  31.413  10.572
68439W        W32207  39.960   4.348  14.325
68440W        W32208   3.413  33.595  14.967
68441W        W32209  18.619   2.736  14.315
68442W        W32210   4.754  14.774   4.164
68443W        W32211   1.851  39.996  12.347
68444W        W32212   4.355  17.236  14.398
68445W        W32213  37.863  27.670  14.923
68446W        W32214  42.294  20.209   0.802
68447W        W32215   7.821  34.564   4.817
68448W        W32216   6.226  17.270  10.934
68449W        W32217  19.153  23.232   1.401
68450W        W32218  17.664  21.692   4.793
68451W        W32219  25.045  44.345  11.883
68452W        W32220   7.184  13.187   1.795
68453W        W32221  30.073   7.200  10.957
68454W        W32222  13.741   2.328  14.832
68455W        W32223   2.823  31.006  14.886
68456W        W32224   0.378  11.169  11.432
68457W        W32225  24.521  38.562   4.826
68458W        W32226  24.652   9.721  10.570
68459W        W32227  25.480  39.994   0.965
68460W        W32228  42.825   3.833  13.808
68461W        W32229  30.128  44.450   0.882
68462W        W32230  16.604  29.951  14.883
68463W        W32231  34.612  15.747   3.218
68464W        W32232  32.602  18.609  11.484
68465W        W32233  26.490  21.153   0.400
68466W        W32234  23.530  33.621  14.431
68467W        W32235   2.730  14.309   1.260
68468W        W32236   3.430  28.168   2.692
68469W        W32237   9.280  13.792   1.226
68470W        W32238   8.221   1.458  14.361
68471W        W32239  44.757   1.245  13.912
68472W        W32240  40.879  27.598   4.183
68473W        W32241  19.598   8.297  12.483
68474W        W32242  10.768   5.703  11.008
68475W        W32243   9.831  16.276  12.451
68476W        W32244  42.980  42.974  14.792
68477W        W32245  19.767  41.812  14.451
68478W        W32246   9.686  40.467  14.971
68479W        W32247  20.273  19.752  12.014
68480W        W32248  35.425   6.335   2.781
68481W        W32249  43.963  26.029  13.990
68482W        W32250  24.535  23.129  13.392
68483W        W32251   9.809  39.846  12.877
68484W        W32252  16.628  36.844   4.734
68485W        W32253   0.396  33.493   1.914
68486W        W32254  14.644  44.897   4.620
68487W        W32255  27.943   1.750   0.243
68488W        W32256  21.049  42.456  14.021
68489W        W32257   5.774  38.557  14.990
68490W        W32258  30.481  19.175   3.719
68491W        W32259  35.442  40.325   0.852
68492W        W32260  43.412  32.621   2.902
68493W        W32261  43.836  23.677   3.368
68494W        W32262  15.290  43.924  14.013
68495W        W32263  29.662   6.351   2.744
68496W        W32264  23.489   4.221  12.981
68497W        W32265  36.865   1.902  12.966
68498W        W32266   7.224  39.060   2.802
68499W        W32267  24.682  42.828   4.116
68500W        W32268   2.925   1.481   1.311
68501W        W32269  29.921   6.226  12.894
68502W        W32270  21.083   0.862   4.192
68503W        W32271  32.041  19.638   0.332
68504W        W32272  10.793  19.619  13.903
68505W        W32273  40.505  26.602   2.756
68506W        W32274  39.895  19.780  12.051
68507W        W32275   2.326   9.859   1.810
68508W        W32276  20.165  44.975   4.345
68509W        W32277  13.754  25.512  11.117
68510W        W32278   4.751  18.167   4.637
68511W        W32279  27.585  16.180  10.489
68512W        W32280   4.896  30.015  13.530
68513W        W32281   3.262  34.104   2.677
68514W        W32282  33.040  19.232  13.346
68515W        W32283  37.474  16.125  14.510
68516W        W32284  38.951  43.797  10.407
68517W        W32285  23.116  33.618   4.741
68518W        W32286   1.862  37.448  10.025
68519W        W32287  16.654  37.452   1.277
68520W        W32288  17.252  39.535   0.287
68521W        W32289  15.087  13.143   2.372
68522W        W32290  30.472   3.734  11.390
68523W        W32291   6.208  43.310  14.842
68524W        W32292   9.196  36.843  13.381
68525W        W32293  10.769  25.508  13.791
68526W        W32294  40.041   8.403  10.946
68527W        W32295  33.933   8.240  14.018
68528W        W32296  29.925  21.627  13.907
68529W        W32297  29.512   1.947   2.878
68530W        W32298   7.199  36.481   0.378
68531W        W32299  31.464  15.170  10.589
68532W        W32300  27.465  19.631   3.730
68533W        W32301  16.184  37.538   0.283
68534W        W32302  30.537   8.749  14.896
68535W        W32303  29.611  34.482   2.769
68536W        W32304  16.186  13.626   2.252
68537W        W32305  42.978   6.800   3.838
68538W        W32306  21.148   7.893  13.877
68539W        W32307  31.123  22.720  13.916
68540W        W32308  14.295  31.983   1.411
68541W        W32309  20.145  25.522  10.905
68542W        W32310  19.562  30.634   3.834
68543W        W32311   0.275   0.941   2.777
68544W        W32312  42.972  22.137   3.687
68545W        W32313  26.639   8.754  13.947
68546W        W32314   8.400  15.763   4.655
68547W        W32315  41.969   7.910  11.082
68548W        W32316  32.607   5.365   3.718
68549W        W32317  41.837  42.409  12.051
68550W        W32318   7.906  11.179   4.274
68551W        W32319   8.292  37.033   2.788
68552W        W32320  42.314  28.057   2.354
68553W        W32321  33.007  33.053   0.877
68554W        W32322  29.160  11.824  12.365
68555W        W32323  15.689  39.040  12.931
68556W        W32324  23.139   4.884   2.224
68557W        W32325  31.123   4.861  12.960
68558W        W32326  40.397  11.263   3.816
68559W        W32327  34.520   3.939   3.716
68560W        W32328  32.479  25.649   1.400
68561W        W32329  27.451  15.200  11.126
68562W        W32330  42.784  32.074  14.942
68563W        W32331  23.230  23.199   2.293
68564W        W32332  34.922  44.402  11.378
68565W        W32333  10.379  44.950  12.397
68566W        W32334   5.721  24.489   4.120
68567W        W32335  22.101  22.150   2.243
68568W        W32336  13.274  30.077   1.264
68569W        W32337   4.413  30.489  12.413
68570W        W32338  30.983  28.099   2.799
68571W        W32339  37.425  40.874  12.988
68572W        W32340  10.215  25.138  14.803
68573W        W32341  35.922  23.053  13.876
68574W        W32342   3.379   9.280  13.495
68575W        W32343   7.827   2.907  14.319
68576W        W32344   8.389  20.140  13.963
68577W        W32345   7.214   2.464   3.366
68578W        W32346  23.583   7.215   3.733
68579W        W32347  29.554  23.678   1.788
68580W        W32348  38.387   5.895  11.884
68581W        W32349  24.140   4.232  11.501
68582W        W32350  29.622  42.343   1.440
68583W        W32351  39.429  18.723   4.612
68584W        W32352   1.476  25.172  14.783
68585W        W32353  17.683  28.094  10.109
68586W        W32354  39.347   8.688  14.766
68587W        W32355  10.737  33.568   0.414
68588W        W32356  44.955  18.230   0.443
68589W        W32357  22.740   4.876  10.153
68590W        W32358  15.743  10.690  14.863
68591W        W32359  38.918  15.723  14.418
68592W        W32360   6.742  13.242   4.122
68593W        W32361   1.430   3.401   1.293
68594W        W32362   1.976  23.148  14.367
68595W        W32363  20.204   1.807   0.375
68596W        W32364   7.696  18.199  11.559
68597W        W32365  17.156  39.861  13.538
68598W        W32366   3.826  11.282   2.728
68599W        W32367  34.474  30.056   0.824
68600W        W32368  24.170  31.984  10.135
68601W        W32369  28.561   7.800  11.527
68602W        W32370  17.602   6.384   1.854
68603W        W32371  19.281  30.502  14.926
68604W        W32372  40.369  14.710  10.514
68605W        W32373  41.450   3.257  11.387
68606W        W32374  14.807  33.468  10.983
68607W        W32375   0.820  32.423  13.478
68608W        W32376  43.970   5.850   2.784
68609W        W32377   2.416  17.735   4.808
68610W        W32378  14.260  31.631  12.937
68611W        W32379  35.863   7.384   3.308
68612W        W32380  23.234  18.265  14.315
68613W        W32381  33.586  20.146  13.382
68614W        W32382  42.846  38.007  14.004
68615W        W32383  13.333  30.426  11.999
68616W        W32384   8.707  31.961  14.386
68617W        W32385  39.319  41.835   3.740
68618W        W32386  32.545  24.658  12.016
68619W        W32387  41.326  37.359   3.746
68620W        W32388  22.246  18.774  14.334
68621W        W32389   5.423  42.996   4.737
68622W        W32390  24.682  29.088  14.860
68623W        W32391  39.833   1.375   4.606
68624W        W32392  13.211  25.048  12.028
68625W        W32393  44.300  34.982  13.887
68626W        W32394  23.653   5.432  11.986
68627W        W32395  23.187   7.315  10.467
68628W        W32396  42.383   8.384  10.468
68629W        W32397  31.901   8.822   3.634
68630W        W32398   8.243   8.208  10.574
68631W        W32399  30.113   6.409  11.967
68632W        W32400  40.396  39.041   0.829
68633W        W32401  36.516  33.916  12.979
68634W        W32402  32.118  32.976  14.306
68635W        W32403  10.742  35.599  11.439
68636W        W32404  41.010  22.738  12.927
68637W        W32405   5.332   3.235   3.756
68638W        W32406  17.778  31.588   0.443
68639W        W32407  43.442   1.389  13.507
68640W        W32408  38.394   6.191  11.492
68641W        W32409  17.275  12.344  14.466
68642W        W32410  34.054   9.265  13.841
68643W        W32411   7.889   8.314  11.610
68644W        W32412  37.015  44.976  11.560
68645W        W32413  12.777   4.829   3.263
68646W        W32414  14.316  43.394  13.357
68647W        W32415  24.000  18.051   2.687
68648W        W32416  40.037  28.134  13.420
68649W        W32417   0.382  31.646   3.337
68650W        W32418  38.477  13.236  14.405
68651W        W32419  39.032  12.789   1.215
68652W        W32420  42.833  41.936   4.139
68653W        W32421   7.691  13.299   5.112
68654W        W32422   9.283  35.873  11.928
68655W        W32423   3.859  32.554   0.876
68656W        W32424   5.398  27.495  10.593
68657W        W32425  35.905  32.577  13.033
68658W        W32426  12.339  32.416   1.714
68659W        W32427  23.987  35.484  13.801
68660W        W32428  27.477  16.637   3.297
68661W        W32429   4.279  13.672  10.564
68662W        W32430  11.721  28.034  14.818
68663W        W32431  25.602  18.286  13.874
68664W        W32432  30.991  41.414   0.323
68665W        W32433  19.636  30.083  13.429
68666W        W32434  36.477  16.104   0.857
68667W        W32435  42.842  16.298   2.269
68668W        W32436   3.845  14.207  13.914
68669W        W32437  23.088  23.005  11.002
68670W        W32438  33.879  23.159   0.805
68671W        W32439  12.277  40.846  10.919
68672W        W32440  11.706  37.995   0.902
68673W        W32441  30.105  28.121   0.337
68674W        W32442  20.600  20.739   0.859
68675W        W32443  32.451   6.221  12.526
68676W        W32444  18.065  15.774   0.943
68677W        W32445  35.534  28.437   3.292
68678W        W32446   6.915  25.062   4.332
68679W        W32447   3.790  19.655  10.490
68680W        W32448  16.211  26.982   1.418
68681W        W32449  11.160  21.071  13.391
68682W        W32450  42.942  43.935   3.218
68683W        W32451   7.799  13.712   1.392
68684W        W32452  27.165  35.018   4.140
68685W        W32453  37.503   7.375  13.396
68686W        W32454   0.401  18.690  14.878
68687W        W32455  12.766   9.158   4.309
68688W        W32456   4.414   0.363  10.571
68689W        W32457  18.218   6.810  11.499
68690W        W32458  11.366  41.811  14.010
68691W        W32459  39.930  21.221   4.800
68692W        W32460  22.194  31.632   0.738
68693W        W32461  28.139  29.156   3.289
68694W        W32462  37.576  12.336  13.830
68695W        W32463   4.731   9.182  14.348
68696W        W32464  15.617  43.020   0.283
68697W        W32465  23.994   8.183   1.446
68698W        W32466  25.687  44.796  13.321
68699W        W32467   5.878  37.468   2.854
68700W        W32468  16.306   5.752  12.978
68701W        W32469  29.114  15.724  13.884
68702W        W32470  44.806  31.616  12.055
68703W        W32471  44.400  38.878  14.881
68704W        W32472  13.683  15.612   4.740
68705W        W32473  28.058  40.974   1.777
68706W        W32474  14.782  39.513  14.398
68707W        W32475  28.167  10.704  13.794
68708W        W32476   3.833  16.658   0.447
68709W        W32477   8.882  11.776   1.223
68710W        W32478  24.978   3.247  12.353
68711W        W32479   7.718  34.971  11.567
68712W        W32480  14.827  17.194  14.801
68713W        W32481  11.771  38.852  10.924
68714W        W32482  26.520  40.804   3.661
68715W        W32483  41.461  43.917   0.907
68716W        W32484  16.116  22.506  14.401
68717W        W32485   4.353  11.174  10.991
68718W        W32486  24.096   1.369   0.395
68719W        W32487  38.354  42.450  12.009
68720W        W32488  25.062   8.169   3.278
68721W        W32489  30.567  44.431  10.009
68722W        W32490   7.834  24.506   2.896
68723W        W32491  38.419  10.717   3.336
68724W        W32492  30.126   5.696  13.913
68725W        W32493  35.085   4.761   4.745
68726W        W32494  18.681   9.722  12.507
68727W        W32495  10.330  28.958  13.871
68728W        W32496  41.419  43.330   2.672
68729W        W32497  28.085   8.374  11.603
68730W        W32498  30.648  22.134   1.821
68731W        W32499   7.809   9.185   4.796
68732W        W32500  38.943  14.815   0.372
68733W        W32501  23.000  24.013  11.506
68734W        W32502  25.678  31.024  12.464
68735W        W32503  27.012  39.393   1.810
68736W        W32504  31.093  32.959  13.948
68737W        W32505  15.821  37.508  14.490
68738W        W32506   7.359  26.461  12.343
68739W        W32507  29.502  35.386   4.610
68740W        W32508  33.099  31.961   1.300
68741W        W32509  27.122  17.274   4.626
68742W        W32510  40.834  23.677   3.385
68743W        W32511   3.286  34.496  11.943
68744W        W32512  13.740   0.895   2.877
68745W        W32513  36.539  12.155   2.180
68746W        W32514  36.527   6.362   0.382
68747W        W32515  32.582  44.338   1.268
68748W        W32516  29.457  34.515   4.694
68749W        W32517  11.753  32.588  13.875
68750W        W32518  38.978  28.505   5.636
68751W        W32519   0.887  13.623   1.333
68752W        W32520  30.968  42.483  11.595
68753W        W32521  11.236  40.954  11.512
68754W        W32522   6.904   7.892  11.543
68755W        W32523  23.576  39.060   3.235
68756W        W32524  19.549  18.139  10.560
68757W        W32525  21.152   1.954  11.494
68758W        W32526  41.461  34.536   0.808
68759W        W32527   1.843  34.970   4.725
68760W        W32528  24.194  29.990  13.793
68761W        W32529  12.620  13.722  14.974
68762W        W32530  28.611  27.551  13.928
68763W        W32531  17.594  32.056   0.466
68764W        W32532   8.234  20.050  12.013
68765W        W32533  20.134  18.734  14.309
68766W        W32534  36.358  25.207  14.772
68767W        W32535   4.370  24.170   1.425
68768W        W32536  18.270  28.647   4.136
68769W        W32537   4.270   4.793   9.949
68770W        W32538  23.992   3.276  11.509
68771W        W32539  24.673   1.770  13.344
68772W        W32540  28.442  34.884  11.409
68773W        W32541  14.813   3.870  14.289
68774W        W32542   8.198  31.545  10.623
68775W        W32543  23.595  22.559   4.193
68776W        W32544  15.281  16.121   0.858
68777W        W32545  44.273  23.633   9.949
68778W        W32546   8.207  42.874  10.638
68779W        W32547  33.895  27.490  11.003
68780W        W32548  21.263  43.906   3.159
68781W        W32549   8.355   8.855   0.478
68782W        W32550   5.894  19.266  11.912
68783W        W32551   8.813   8.768   2.804
68784W        W32552  24.060  20.659  14.867
68785W        W32553  31.049   8.868  11.604
68786W        W32554  27.188   1.821  11.492
68787W        W32555   9.219  42.391   2.809
68788W        W32556  44.976  15.102  10.543
68789W        W32557   1.355  35.098  11.077
68790W        W32558  19.600   4.363   2.769
68791W        W32559   2.763  23.568  12.085
68792W        W32560  17.647   9.846   1.372
68793W        W32561  29.551  43.369  10.915
68794W        W32562  20.591   7.788  12.463
68795W        W32563  42.792  39.836  14.779
68796W        W32564  42.336  35.085   3.658
68797W        W32565  10.752  38.462   4.282
68798W        W32566  12.622  29.025  12.846
68799W        W32567  42.992  39.344  11.956
68800W        W32568  25.060  40.953  11.608
68801W        W32569  20.226  36.023   0.934
68802W        W32570  20.610  32.910  14.996
68803W        W32571  34.949  30.155  11.078
68804W        W32572  21.075  43.773   2.302
68805W        W32573  34.515  26.684   4.274
68806W        W32574  23.651  36.844  10.520
68807W        W32575   9.150   8.890   3.640
68808W        W32576   2.906  30.621  12.446
68809W        W32577   1.303  38.415   1.218
68810W        W32578  19.757  29.507   4.825
68811W        W32579  25.519  36.996  11.594
68812W        W32580   5.796  38.865  11.961
68813W        W32581  26.692  19.043  14.420
68814W        W32582  33.945  17.589  12.865
68815W        W32583  20.734   8.692   1.730
68816W        W32584  38.409  37.345   3.703
68817W        W32585   4.284  37.516  10.079
68818W        W32586  19.544  13.703   3.149
68819W        W32587  15.633  13.715  10.556
68820W        W32588  26.514  15.591  10.938
68821W        W32589   0.751  27.503   2.282
68822W        W32590  25.681  20.715  14.464
68823W        W32591  35.915  23.550   2.693
68824W        W32592  10.266  40.378   4.218
68825W        W32593  43.498  44.385   1.277
68826W        W32594  31.497  44.335   2.324
68827W        W32595  41.884  37.984   0.266
68828W        W32596  33.926  40.955   0.462
68829W        W32597  38.947  13.250  13.815
68830W        W32598   2.863   7.309  14.406
68831W        W32599   1.813  28.452  14.796
68832W        W32600  38.916  40.452   1.784
68833W        W32601   5.798  13.112  11.440
68834W        W32602  36.068  22.150   4.829
68835W        W32603   5.749  24.592   2.418
68836W        W32604  37.034  20.655   0.832
68837W        W32605  19.169   7.288  13.830
68838W        W32606   5.261   3.393  10.501
68839W        W32607  10.654   3.460  14.398
68840W        W32608  27.521  38.372  11.574
68841W        W32609  44.998  42.482   2.893
68842W        W32610  41.476  36.416   1.933
68843W        W32611  40.051  10.684   4.621
68844W        W32612  24.188  20.536   2.801
68845W        W32613  12.175  21.574  11.439
68846W        W32614   1.300  15.582   3.750
68847W        W32615   1.780  34.010  11.907
68848W        W32616  14.761  29.939  11.952
68849W        W32617  40.473   2.768  12.014
68850W        W32618  37.561  44.988   4.148
68851W        W32619   9.784  24.051   4.304
68852W        W32620   1.799   4.726   0.269
68853W        W32621  24.976  24.496  12.385
68854W        W32622   2.292   0.324   1.920
68855W        W32623  16.297  41.392   2.414
68856W        W32624  30.971   9.661   4.223
68857W        W32625  15.732  32.500   4.634
68858W        W32626  39.950  40.327  13.502
68859W        W32627  19.162  28.463  13.031
68860W        W32628  11.817  13.688  14.762
68861W        W32629   4.784   0.482   3.206
68862W        W32630   4.785  38.411   0.427
68863W        W32631  25.202  31.060  14.472
68864W        W32632   5.432  39.889  14.768
68865W        W32633   4.700  30.456  11.055
68866W        W32634  42.858  26.623  13.376
68867W        W32635  42.341  16.798  10.404
68868W        W32636  22.210   3.445   0.801
68869W        W32637  20.051  21.538  11.886
68870W        W32638   1.397   7.848   1.853
68871W        W32639  23.182  19.729   2.323
68872W        W32640  20.150  20.242  14.774
68873W        W32641  11.627  33.084   1.892
68874W        W32642  37.368  27.196  11.045
68875W        W32643  20.132  33.893  13.047
68876W        W32644  25.140  21.749   0.773
68877W        W32645  20.529  43.798   3.766
68878W        W32646  37.580   8.168  14.954
68879W        W32647  44.800  44.451  10.524
68880W        W32648   3.817   9.885   0.266
68881W        W32649  26.551  35.541  12.855
68882W        W32650  15.190  34.587   2.789
68883W        W32651  20.148   3.917  10.607
68884W        W32652  35.427  29.029  11.021
68885W        W32653  40.440  32.064   0.756
68886W        W32654  14.319  28.015   1.911
68887W        W32655   1.894  22.669  11.560
68888W        W32656  29.431  21.039  11.026
68889W        W32657  23.543  31.898  13.528
68890W        W32658   2.881  44.454  13.352
68891W        W32659  10.189  30.959  13.332
68892W        W32660  22.507   2.931   0.760
68893W        W32661  38.826  28.941   9.624
68894W        W32662  36.947  25.004   5.269
68895W        W32663  40.863  44.298  13.531
68896W        W32664  19.126   2.732  14.819
68897W        W32665   8.865  14.182   1.337
68898W        W32666  10.160   3.830  13.545
68899W        W32667   5.799   4.929   1.794
68900W        W32668  34.077   8.269  12.056
68901W        W32669  11.751  33.891   2.263
68902W        W32670  26.702  20.130  12.080
68903W        W32671   6.691  32.937  10.499
68904W        W32672  27.986  18.104   4.267
68905W        W32673  26.115  42.402   4.331
68906W        W32674  20.524  27.021  10.972
68907W        W32675  28.950  19.192   1.346
68908W        W32676  23.645  18.729  12.360
68909W        W32677   2.434  16.149  14.856
68910W        W32678  37.422   9.684  10.415
68911W        W32679  31.111   8.220  14.851
68912W        W32680  31.503  14.714   1.413
68913W        W32681  17.569  23.071   4.824
68914W        W32682  19.757  15.815  14.354
68915W        W32683  12.626  29.443  10.494
68916W        W32684   9.675  38.007  12.496
68917W        W32685   9.799  34.469  12.456
68918W        W32686  44.500  42.414   4.654
68919W        W32687   7.408  35.935  10.603
68920W        W32688  34.874  28.617   1.290
68921W        W32689  31.641  34.029   2.843
68922W        W32690  33.987  39.466   2.387
68923W        W32691  25.963  17.072   0.342
68924W        W32692  12.162   5.386   0.325
68925W        W32693   3.868  12.216   3.713
68926W        W32694  21.216   6.824  12.574
68927W        W32695   9.295  44.866  13.541
68928W        W32696   1.977  43.985   3.717
68929W        W32697  44.285  21.097  14.398
68930W        W32698  38.038  13.691   3.150
68931W        W32699  42.356  44.880   1.703
68932W        W32700  17.259   6.195   0.457
68933W        W32701   7.729  36.888  14.011
68934W        W32702  18.063  38.018  11.956
68935W        W32703  28.486   7.872  13.034
68936W        W32704  14.308  25.601   5.246
68937W        W32705   0.265  13.162  13.924
68938W        W32706  32.557  16.600   1.744
68939W        W32707  38.558   6.311  12.014
68940W        W32708  29.953  28.169  11.939
68941W        W32709  33.991  22.203   3.685
68942W        W32710   0.860  12.839  10.479
68943W        W32711   0.804  24.722  13.867
68944W        W32712  25.581  14.663   3.259
68945W        W32713  10.768   9.794   9.520
68946W        W32714   4.888   9.763  14.785
68947W        W32715  25.143   5.875   0.395
68948W        W32716  17.081  40.010   0.293
68949W        W32717  14.655  18.639   2.411
68950W        W32718   1.776  26.538  14.417
68951W        W32719   0.409  21.216   2.379
68952W        W32720  35.856   6.844   4.705
68953W        W32721  18.599   1.423  12.017
68954W        W32722  42.331  21.189   2.226
68955W        W32723  16.182  21.094   5.263
68956W        W32724   1.264  42.436  11.912
68957W        W32725  18.709   7.901   2.799
68958W        W32726  13.623   4.264  13.825
68959W        W32727  38.037  20.160  14.023
68960W        W32728  12.651  41.793  14.833
68961W        W32729   5.295   2.871   0.877
68962W        W32730  22.034  26.982  14.376
68963W        W32731   5.251   2.356   1.847
68964W        W32732  15.152   4.381  13.063
68965W        W32733  36.377  30.142  14.414
68966W        W32734  23.225  41.857   4.791
68967W        W32735   2.344  32.035   2.232
68968W        W32736  10.293   3.852   0.244
68969W        W32737  38.480  24.990   4.764
68970W        W32738   1.964  42.961   4.226
68971W        W32739  26.060  34.549   1.822
68972W        W32740  22.079  44.995   1.726
68973W        W32741  24.194  18.232   3.261
68974W        W32742   6.209  41.992   3.171
68975W        W32743  22.508  20.133  14.513
68976W        W32744  32.433  12.675  12.825
68977W        W32745   4.794  33.018   2.782
68978W        W32746  33.416  30.626  12.424
68979W        W32747  32.549   2.423  10.966
68980W        W32748   2.966  14.758  11.905
68981W        W32749   8.843  14.603  14.920
68982W        W32750  34.962  17.754  11.859
68983W        W32751   5.210  40.353   1.323
68984W        W32752  21.079  38.823  10.084
68985W        W32753  28.946  24.627   1.907
68986W        W32754  10.382  14.121   3.796
68987W        W32755  11.190  20.678  14.867
68988W        W32756  41.373  14.101  14.393
68989W        W32757   7.200  40.040  10.535
68990W        W32758  20.217  35.859  14.460
68991W        W32759  14.333  23.044  13.956
68992W        W32760   6.196  10.204   1.211
68993W        W32761  41.399  40.871  12.930
68994W        W32762  33.618   5.766   0.945
68995W        W32763   8.359  34.922   0.845
68996W        W32764  30.520  14.180  14.295
68997W        W32765  38.554   5.814   1.910
68998W        W32766  38.903   8.665   1.882
68999W        W32767  37.474  34.495   2.828
69000W        W32768  19.617  28.644   3.792
69001W        W32769   4.246   5.718   4.624
69002W        W32770   7.271  38.909  14.783
69003W        W32771  19.553   9.757   2.879
69004W        W32772  29.997  15.236   1.845
69005W        W32773  19.695   8.787   3.680
69006W        W32774  21.739   3.234   0.364
69007W        W32775  17.756  10.236   4.234
69008W        W32776  28.934  15.643   3.865
69009W        W32777  14.202  20.170   4.723
69010W        W32778   0.927   3.385  13.052
69011W        W32779  20.530  41.819   0.413
69012W        W32780  28.056  42.964  13.895
69013W        W32781  39.994   2.430   3.284
69014W        W32782  32.966  33.593  13.852
69015W        W32783  36.033   5.788   2.266
69016W        W32784  14.143  10.654   9.990
69017W        W32785  30.517  25.621  11.552
69018W        W32786  36.431  43.439   0.319
69019W        W32787  22.197  44.812   0.315
69020W        W32788  23.010  19.682  12.092
69021W        W32789  30.413   4.901   1.433
69022W        W32790  15.705  22.035   2.822
69023W        W32791  13.801  28.513  14.854
69024W        W32792  24.652  13.672   0.291
69025W        W32793  23.991   5.796  11.394
69026W        W32794  14.681   0.329   0.904
69027W        W32795   0.928   3.762   2.824
69028W        W32796  13.775  10.806  13.824
69029W        W32797   1.735  18.169   3.780
69030W        W32798   4.424  13.676   0.923
69031W        W32799  29.569  35.380   2.228
69032W        W32800  13.687  12.755   3.693
69033W        W32801   2.439  42.410   0.328
69034W        W32802  26.528   4.276   1.445
69035W        W32803   2.234  34.536   2.868
69036W        W32804  28.109  44.911   0.944
69037W        W32805  30.419  33.094  13.473
69038W        W32806  44.971  13.232  14.940
69039W        W32807   3.788   0.871  10.547
69040W        W32808   0.409   9.806   2.249
69041W        W32809  31.069  25.514  13.987
69042W        W32810  15.652  19.757  10.643
69043W        W32811  24.628  33.950   2.222
69044W        W32812  43.494  17.704  11.095
69045W        W32813  39.455  27.154   0.477
69046W        W32814  16.178  13.831  13.547
69047W        W32815   1.771  44.928   3.678
69048W        W32816   5.390  28.147   4.209
69049W        W32817  38.854  17.692   2.344
69050W        W32818  41.460  16.633  13.533
69051W        W32819  27.152  10.203  10.566
69052W        W32820   6.410  37.574   3.383
69053W        W32821  31.440   2.810  12.871
69054W        W32822  26.054  32.495   0.927
69055W        W32823  11.360   1.458  14.783
69056W        W32824  19.121  42.872   3.374
69057W        W32825  29.940   2.433  11.984
69058W        W32826  42.826  32.525   2.828
69059W        W32827  16.740  38.480   0.416
69060W        W32828  40.346  32.607  11.101
69061W        W32829  36.519  11.301   3.829
69062W        W32830   8.803  20.172   1.278
69063W        W32831  34.958  36.993  10.426
69064W        W32832  42.873  24.074   3.665
69065W        W32833  25.684  30.914   0.727
69066W        W32834  37.897  24.077  13.526
69067W        W32835   5.400  19.700   2.208
69068W        W32836   2.824  30.127   2.859
69069W        W32837   3.835  36.016   0.314
69070W        W32838  15.792  24.067  14.008
69071W        W32839  37.543   3.240  13.036
69072W        W32840   0.755  39.947  13.444
69073W        W32841  30.942  15.620  12.943
69074W        W32842  23.170  27.540   4.162
69075W        W32843  43.862  25.182   3.854
69076W        W32844  17.281  40.939  13.447
69077W        W32845  44.855  26.516   4.722
69078W        W32846  11.257  34.548  14.911
69079W        W32847  16.600  39.886  10.986
69080W        W32848  32.111   7.864   4.338
69081W        W32849  27.979  38.402  10.923
69082W        W32850  17.571  13.179  10.456
69083W        W32851   7.202  44.811   3.707
69084W        W32852  34.508  43.984   2.872
69085W        W32853   0.969  10.871   1.780
69086W        W32854  39.042   9.278  11.518
69087W        W32855   2.327  13.258  12.877
69088W        W32856   7.671  22.701   4.305
69089W        W32857  13.778   7.727   4.244
69090W        W32858  19.587  36.548   1.790
69091W        W32859   2.923  13.129  14.766
69092W        W32860  15.213  43.436  14.791
69093W        W32861  16.581   1.830  12.890
69094W        W32862  38.931  32.497   5.098
69095W        W32863  22.120   9.888   0.455
69096W        W32864  37.452  35.986   4.261
69097W        W32865  19.117  30.560   2.838
69098W        W32866  32.532  18.672  10.426
69099W        W32867  14.735  19.110   3.669
69100W        W32868  41.449   7.745   4.224
69101W        W32869   6.229   5.885  14.820
69102W        W32870   7.863  35.522  12.360
69103W        W32871  26.196   6.394   2.215
69104W        W32872  38.445  13.834  12.076
69105W        W32873   8.270  31.134   4.792
69106W        W32874  10.851  36.923  12.849
69107W        W32875  10.234  31.003  12.453
69108W        W32876  36.429  35.066   3.301
69109W        W32877   4.417  33.874  13.956
69110W        W32878  18.670  20.558  12.055
69111W        W32879  36.388   6.866   2.802
69112W        W32880  20.633  20.186   0.450
69113W        W32881  24.674   4.334  12.492
69114W        W32882   5.342  41.901   2.899
69115W        W32883  40.347  30.529   0.468
69116W        W32884  12.216  12.132  11.921
69117W        W32885  39.341  10.354  12.033
69118W        W32886  38.829  41.490  10.961
69119W        W32887  44.863  36.450  11.962
69120W        W32888   5.907  43.280  13.920
69121W        W32889  22.031  14.807   0.737
69122W        W32890  28.096  38.886   2.774
69123W        W32891  24.680  39.334   0.726
69124W        W32892   6.918  29.042   2.665
69125W        W32893  24.139  40.935   1.755
69126W        W32894  35.482  39.330   3.687
69127W        W32895   1.281  24.051  12.019
69128W        W32896   9.231   7.846   0.262
69129W        W32897  10.316  37.905   0.756
69130W        W32898  39.898  35.499   4.719
69131W        W32899  32.514  40.898   1.858
69132W        W32900   9.164  17.284   3.832
69133W        W32901   9.218  17.660   2.737
69134W        W32902  17.062   9.845   4.684
69135W        W32903  34.555  39.445  13.894
69136W        W32904  39.931  36.412  14.937
69137W        W32905  38.064  44.402  14.377
69138W        W32906  34.418  27.083  10.987
69139W        W32907   4.305  35.037  14.014
69140W        W32908  18.558  41.319  13.402
69141W        W32909  30.487  13.110  12.831
69142W        W32910  12.703  18.775   3.270
69143W        W32911  11.208  22.154  14.464
69144W        W32912  24.659  27.590   4.758
69145W        W32913  16.241  23.110  11.967
69146W        W32914  21.677  13.617  11.462
69147W        W32915  29.521   8.769   3.170
69148W        W32916   7.730  40.474  13.509
69149W        W32917   4.335  19.626  13.013
69150W        W32918  23.237  31.013   0.257
69151W        W32919  44.887  16.634   3.258
69152W        W32920   0.344  22.588  13.055
69153W        W32921   0.443  39.438   1.221
69154W        W32922  24.589  41.961   3.364
69155W        W32923  29.548  12.121  10.588
69156W        W32924  30.086   9.221  10.423
69157W        W32925  15.587  23.498  13.535
69158W        W32926   7.818  25.131  13.024
69159W        W32927  13.255  21.608   2.223
69160W        W32928  37.058  28.986   3.250
69161W        W32929  11.306  28.126   3.794
69162W        W32930   6.749  24.638  11.611
69163W        W32931  12.848  17.280  12.524
69164W        W32932  22.737  21.675   3.297
69165W        W32933  19.142   5.239   1.250
69166W        W32934  16.106  21.528   3.817
69167W        W32935  21.709   4.230   3.667
69168W        W32936  27.977  33.496   3.373
69169W        W32937  32.916  22.661  12.531
69170W        W32938  11.239  12.627  12.833
69171W        W32939  25.046   3.296  10.899
69172W        W32940   0.792   0.953   3.349
69173W        W32941  40.398  40.427  11.090
69174W        W32942   7.850  42.925   2.311
69175W        W32943  14.602  13.205   3.756
69176W        W32944  41.947  15.251  11.472
69177W        W32945  40.997   0.937  13.941
69178W        W32946   6.836  35.936   4.119
69179W        W32947  42.812  30.540  11.439
69180W        W32948  15.116   4.328  11.022
69181W        W32949   0.437  29.920  13.794
69182W        W32950  17.570  16.715  14.345
69183W        W32951  32.089  11.145   2.215
69184W        W32952  39.348  26.529   1.254
69185W        W32953   5.812   1.839   0.795
69186W        W32954  27.095  24.631  13.845
69187W        W32955   5.734  36.524   3.707
69188W        W32956  21.651  30.011  10.906
69189W        W32957  16.739  43.808  14.861
69190W        W32958   5.392   7.234  14.508
69191W        W32959  13.731  34.991   2.301
69192W        W32960  33.403  43.967  12.386
69193W        W32961  29.646  18.178  13.499
69194W        W32962  35.453  11.813  14.294
69195W        W32963  13.773  22.153  11.067
69196W        W32964  17.643  44.825  12.855
69197W        W32965  34.118  17.717  11.086
69198W        W32966  22.019  44.295  13.933
69199W        W32967  27.599  37.559   3.787
69200W        W32968  14.660  16.628   1.840
69201W        W32969  40.311  15.217  11.120
69202W        W32970  44.318  25.662   4.642
69203W        W32971   5.214   8.721  13.926
69204W        W32972  11.763  25.133  14.305
69205W        W32973  31.574  12.827   3.675
69206W        W32974   4.766  39.993   3.283
69207W        W32975   6.817  14.280   1.313
69208W        W32976   6.766  18.740  12.840
69209W        W32977  26.144  21.749  12.519
69210W        W32978   5.700   5.235   4.732
69211W        W32979   4.308   2.881   2.231
69212W        W32980  34.538  17.726  13.975
69213W        W32981  27.098  12.263  10.890
69214W        W32982   1.847  30.649   1.767
69215W        W32983  26.181  22.090  12.020
69216W        W32984   5.883  32.918  12.416
69217W        W32985  32.907   9.787  10.553
69218W        W32986  43.845  32.487  10.534
69219W        W32987  43.472  16.603   4.311
69220W        W32988  38.386  11.637  13.441
69221W        W32989  10.870  27.546  14.797
69222W        W32990   4.409  17.212   0.411
69223W        W32991  41.973  31.618   2.391
69224W        W32992  37.374  42.850  12.942
69225W        W32993   0.264  24.506   2.770
69226W        W32994  42.296  36.468   2.902
69227W        W32995  41.830  41.984   4.354
69228W        W32996   9.389  39.421   4.753
69229W        W32997  12.129  27.095   0.415
69230W        W32998  16.106  34.377   2.313
69231W        W32999  20.172  41.967   1.730
69232W        W33000  14.186  33.471  13.020
69233W        W33001  35.010   6.922   3.364
69234W        W33002  40.503  32.419  12.963
69235W        W33003  24.200   5.296  12.951
69236W        W33004  42.960  39.331  13.413
69237W        W33005  44.367  21.215   0.959
69238W        W33006  26.664  31.903  13.500
69239W        W33007  35.531  37.507   2.199
69240W        W33008   6.713  20.618  13.990
69241W        W33009  22.042  34.944  13.819
69242W        W33010  39.996  20.563  12.556
69243W        W33011  15.599  24.131   4.133
69244W        W33012  16.155  20.561  12.494
69245W        W33013   4.771  36.996  14.938
69246W        W33014  19.110  30.028  14.393
69247W        W33015  37.874  14.242  11.032
69248W        W33016  36.910  18.050   3.757
69249W        W33017  20.140  21.208  12.351
69250W        W33018  30.976  41.845   1.869
69251W        W33019  32.604  17.740   1.258
69252W        W33020   4.273  21.741   3.725
69253W        W33021  19.609  22.045   0.462
69254W        W33022   1.359  33.397   4.137
69255W        W33023  38.428   7.788   0.729
69256W        W33024  14.206  12.279  14.873
69257W        W33025  41.371  44.439  11.010
69258W        W33026   1.734  30.979   4.629
69259W        W33027  36.408  31.971   0.475
69260W        W33028  15.091  43.418  11.557
69261W        W33029  10.373  32.058   3.346
69262W        W33030  39.001   0.397  14.917
69263W        W33031  35.464   9.847  10.436
69264W        W33032  20.525  20.712   1.897
69265W        W33033  31.964  15.708   5.796
69266W        W33034  31.000  18.243   3.814
69267W        W33035   2.953  20.070  13.056
69268W        W33036   7.705  13.625   2.833
69269W        W33037  15.087  16.221  11.562
69270W        W33038  20.119  19.576  14.490
69271W        W33039  41.010  41.868  13.001
69272W        W33040   8.245   3.423  14.306
69273W        W33041  23.733  11.248   4.823
69274W        W33042  35.414   9.381  11.448
69275W        W33043   5.233  28.551   3.637
69276W        W33044   3.770  10.308  11.490
69277W        W33045  13.339  44.433  10.155
69278W        W33046   9.756   8.875   2.412
69279W        W33047  28.488  36.378   0.834
69280W        W33048   6.256  18.053   0.422
69281W        W33049  20.059   5.774   3.653
69282W        W33050  32.541  36.902  13.389
69283W        W33051  13.753   1.977   2.394
69284W        W33052  28.057  23.223  12.080
69285W        W33053  16.660  43.965   1.933
69286W        W33054  42.029  34.603  12.915
69287W        W33055  28.615  23.221   1.375
69288W        W33056  32.444  38.847   0.429
69289W        W33057  12.650  18.151  10.963
69290W        W33058   9.319  29.665   1.313
69291W        W33059  32.394   4.365   2.418
69292W        W33060  29.593  24.020  13.062
69293W        W33061  21.055  10.205   9.968
69294W        W33062  39.836  38.540   2.307
69295W        W33063  33.063  19.665  12.344
69296W        W33064  36.885  24.027  10.452
69297W        W33065  32.613  27.078   2.668
69298W        W33066  35.378  40.852   4.198
69299W        W33067   4.920  43.392   4.186
69300W        W33068  38.053  33.424  13.960
69301W        W33069   7.380  15.323  14.443
69302W        W33070  22.059  34.491   3.738
69303W        W33071  24.160  17.653  13.893
69304W        W33072   2.897  32.127   0.307
69305W        W33073  43.820  20.538   3.226
69306W        W33074  16.636  20.243  11.064
69307W        W33075  43.499  12.674   2.774
69308W        W33076   1.311  19.765   2.280
69309W        W33077  39.059  34.381  11.041
69310W        W33078  15.793  38.450   4.667
69311W        W33079   5.395  24.613  11.554
69312W        W33080  10.193   8.842   1.222
69313W        W33081  21.035  10.355   3.809
69314W        W33082  16.762   2.339  13.959
69315W        W33083  14.829  14.262  14.438
69316W        W33084  10.306  26.472  11.904
69317W        W33085   5.396   0.875  11.079
69318W        W33086  25.216  34.965   1.718
69319W        W33087  17.071  44.007   3.341
69320W        W33088   9.744   2.427  14.462
69321W        W33089   0.754  41.807   3.686
69322W        W33090  21.197  14.312   1.402
69323W        W33091  15.247  13.711   2.806
69324W        W33092  39.830  34.892   0.902
69325W        W33093  42.478  10.304  12.954
69326W        W33094  40.326  40.937  14.367
69327W        W33095  11.268   2.915  14.806
69328W        W33096   2.314   0.825   4.114
69329W        W33097  39.332  36.012   0.366
69330W        W33098   6.805  38.426   4.607
69331W        W33099  17.213   3.723  12.053
69332W        W33100  16.286  37.504  10.932
69333W        W33101  35.926  23.622  11.933
69334W        W33102  31.122  25.566  14.502
69335W        W33103   9.718  18.550  10.553
69336W        W33104  38.045  22.681   1.796
69337W        W33105  42.953  10.298  14.446
69338W        W33106   7.368  40.001   1.330
69339W        W33107   1.884  41.430  11.857
69340W        W33108  43.409   0.965   1.822
69341W        W33109  19.182   0.988  11.945
69342W        W33110  41.919  15.230   4.143
69343W        W33111  31.979   0.946   4.656
69344W        W33112  40.425  12.239   3.373
69345W        W33113  38.856  10.842  12.049
69346W        W33114  13.827  44.441   4.155
69347W        W33115   6.302  18.775   1.238
69348W        W33116   9.259  10.727  10.977
69349W        W33117  41.001  32.505  14.424
69350W        W33118  37.000  36.436  14.341
69351W        W33119  44.925  12.145  14.895
69352W        W33120  23.007   3.812  10.496
69353W        W33121  21.062  13.614  13.449
69354W        W33122   1.923  15.202  11.540
69355W        W33123  30.141  37.871  11.398
69356W        W33124  35.433  37.050   1.929
69357W        W33125  25.580  15.595   0.742
69358W        W33126  37.336  15.236  13.858
69359W        W33127  16.077   0.487   3.806
69360W        W33128  32.911  18.631   0.465
69361W        W33129   1.893   2.315  12.559
69362W        W33130  22.578  32.978  14.778
69363W        W33131   8.287  20.142   2.392
69364W        W33132  32.130  18.290   0.371
69365W        W33133  43.928   8.676   2.670
69366W        W33134  18.116  28.943  10.898
69367W        W33135  34.592   9.343   2.864
69368W        W33136  30.938   2.827   4.755
69369W        W33137   1.418  44.820  11.425
69370W        W33138   2.878  42.355  11.497
69371W        W33139  14.227  18.084  11.118
69372W        W33140  18.575  28.667  11.018
69373W        W33141  31.619  41.334   2.859
69374W        W33142  23.192  28.088   1.368
69375W        W33143   4.854  42.945   5.293
69376W        W33144   4.779  15.197  13.021
69377W        W33145  43.776   3.839   0.268
69378W        W33146  37.573  39.316  13.058
69379W        W33147   1.766  27.003  14.776
69380W        W33148  38.004  37.489  11.528
69381W        W33149  15.785  25.096  11.496
69382W        W33150  37.544   9.305  11.582
69383W        W33151  15.680  38.931  10.416
69384W        W33152  39.362   9.300   1.448
69385W        W33153  23.575   0.748  11.496
69386W        W33154  25.215   8.309   2.199
69387W        W33155  25.637  42.898   3.306
69388W        W33156   6.368  21.591  11.915
69389W        W33157  38.553  44.419   3.371
69390W        W33158  39.387   6.322   2.262
69391W        W33159  43.931   2.326  14.341
69392W        W33160   2.801  12.744   3.233
69393W        W33161  35.094  40.922   3.866
69394W        W33162  23.227   5.221   2.837
69395W        W33163   9.839  12.266  13.493
69396W        W33164  42.510  29.564   1.300
69397W        W33165  42.900  13.630   3.169
69398W        W33166  42.526  12.281   0.389
69399W        W33167  24.501  33.019   0.855
69400W        W33168  21.090  30.550   1.814
69401W        W33169  36.859  34.412  10.448
69402W        W33170  35.057  43.346   3.351
69403W        W33171  18.178  24.668   2.407
69404W        W33172  43.501  14.238   9.934
69405W        W33173  40.817   8.848   1.348
69406W        W33174  44.353   7.202   0.790
69407W        W33175   8.887  43.424   0.351
69408W        W33176  11.809  33.056  11.532
69409W        W33177   2.454  10.287  10.052
69410W        W33178  40.464  42.464   4.837
69411W        W33179  37.072  23.499   2.832
69412W        W33180   5.316   5.929  11.443
69413W        W33181  16.276  38.555  10.580
69414W        W33182  22.187  11.239  14.440
69415W        W33183  21.643   4.800  14.811
69416W        W33184  11.333  18.142  14.002
69417W        W33185  33.388  30.986   3.765
69418W        W33186  37.076  16.259  10.964
69419W        W33187  27.175  44.948  12.549
69420W        W33188  28.466  21.128   4.345
69421W        W33189  17.149  43.859   3.820
69422W        W33190  14.750  39.454   1.808
69423W        W33191  34.904  14.164  12.067
69424W        W33192  12.222  40.473   2.863
69425W        W33193  23.002  24.507   0.826
69426W        W33194  21.675  28.645   3.322
69427W        W33195  26.651  17.193  14.367
69428W        W33196   4.858  33.012  10.512
69429W        W33197  33.391  27.559   4.183
69430W        W33198  17.214  38.002   2.242
69431W        W33199  27.037   5.358   4.795
69432W        W33200  11.660  35.592   4.802
69433W        W33201  27.162  24.139   2.752
69434W        W33202  17.621  14.768   1.898
69435W        W33203  35.497  28.535   2.693
69436W        W33204   7.824  10.813  12.848
69437W        W33205   0.753   8.168  10.513
69438W        W33206  13.763  28.156   2.708
69439W        W33207   1.843  25.140  12.042
69440W        W33208  19.247  35.542  12.091
69441W        W33209  24.709  14.262  11.479
69442W        W33210  23.735  32.066  13.948
69443W        W33211  34.491  36.360   2.284
69444W        W33212  12.764  13.333   0.964
69445W        W33213  28.445  35.982   2.742
69446W        W33214   0.361  32.002   3.271
69447W        W33215   9.357   8.789  13.431
69448W        W33216  33.016  37.579  13.547
69449W        W33217  17.555  39.319  13.929
69450W        W33218  35.602  44.261  14.949
69451W        W33219  34.958  33.068   4.822
69452W        W33220  39.834  21.214  10.925
69453W        W33221  12.710  22.501  11.416
69454W        W33222  43.828   2.394   0.941
69455W        W33223  15.321  14.327  13.492
69456W        W33224   5.779  26.585  14.373
69457W        W33225  32.997   0.775   0.756
69458W        W33226  32.122  27.188  14.856
69459W        W33227   4.407  41.503  14.895
69460W        W33228  44.266  40.382   1.243
69461W        W33229   2.864  29.435  12.530
69462W        W33230  22.020   1.750   0.275
69463W        W33231  19.079  18.229   3.759
69464W        W33232  43.450  25.609   3.386
69465W        W33233  30.043  15.792   4.153
69466W        W33234  36.864   3.745  14.801
69467W        W33235  11.246  11.654  11.456
69468W        W33236  13.707  37.561  10.625
69469W        W33237  38.845  14.243  11.520
69470W        W33238   4.366  10.185   0.456
69471W        W33239  12.361  26.009  12.039
69472W        W33240  32.047  26.557   2.203
69473W        W33241  31.008  38.835   2.662
69474W        W33242  16.612  18.198   3.260
69475W        W33243  34.544  32.084  12.030
69476W        W33244  21.624  21.524   4.691
69477W        W33245  20.626  13.692  13.913
69478W        W33246   8.815  26.057   3.771
69479W        W33247  39.426  11.818   2.408
69480W        W33248   8.237  27.036   4.788
69481W        W33249   0.489  32.472  13.031
69482W        W33250  28.443  39.386   2.690
69483W        W33251  18.123  21.173  10.548
69484W        W33252  27.458  26.993   1.307
69485W        W33253  28.051  35.877   4.674
69486W        W33254  28.130  40.024  11.571
69487W        W33255  36.996   7.714   3.218
69488W        W33256  39.946   2.346  14.928
69489W        W33257  31.532  17.779   3.773
69490W        W33258  14.124   3.714   2.748
69491W        W33259  25.656  42.392  11.881
69492W        W33260  23.987   6.308   2.845
69493W        W33261  32.401  10.797   1.748
69494W        W33262   7.748  12.621   0.301
69495W        W33263  35.439  25.119   0.880
69496W        W33264   3.249  25.095  13.502
69497W        W33265  11.142  22.042  13.827
69498W        W33266   3.812   2.232   1.738
69499W        W33267  42.411  26.147   4.318
69500W        W33268   1.935  37.564  12.069
69501W        W33269  41.426  34.368  12.400
69502W        W33270  16.747   6.761  12.992
69503W        W33271  12.716   2.919  14.876
69504W        W33272  10.728  16.752   0.374
69505W        W33273  38.984  30.971  13.506
69506W        W33274  44.498  18.737   4.661
69507W        W33275   0.829  28.628   3.703
69508W        W33276  40.394  20.670   4.138
69509W        W33277  18.259   5.740   4.321
69510W        W33278  21.575  33.006   2.218
69511W        W33279  35.946  36.993  13.387
69512W        W33280  18.764  38.468  11.890
69513W        W33281  24.219  29.952   3.714
69514W        W33282  41.895  20.552  13.977
69515W        W33283  10.335   7.843  13.045
69516W        W33284  40.882  15.642  14.867
69517W        W33285  21.250   0.260   4.206
69518W        W33286  23.735   9.827  12.419
69519W        W33287  41.013  44.468  10.451
69520W        W33288  37.353  19.620   0.339
69521W        W33289   0.462  33.560  14.903
69522W        W33290  10.328  40.437   3.286
69523W        W33291   3.257  32.142   0.838
69524W        W33292  29.011  31.907   4.638
69525W        W33293  12.765  19.726   2.861
69526W        W33294   4.940  43.356   0.909
69527W        W33295  28.964  18.563  12.371
69528W        W33296  23.098  35.565  12.985
69529W        W33297  42.354  14.229  14.029
69530W        W33298  25.968   1.834   0.771
69531W        W33299   8.828  20.646  11.983
69532W        W33300  35.035  24.686  11.925
69533W        W33301  33.448  38.479  13.848
69534W        W33302   7.341  28.180   0.746
69535W        W33303  24.192  25.210   0.733
69536W        W33304  44.339  41.301   4.179
69537W        W33305   6.874  16.601   4.707
69538W        W33306   7.820  13.795   3.335
69539W        W33307  30.418  44.850   2.180
69540W        W33308  19.226  15.600  14.815
69541W        W33309  16.713   3.330  14.310
69542W        W33310  16.707  21.623   2.753
69543W        W33311  39.510  43.808   4.345
69544W        W33312   5.875  16.104   1.227
69545W        W33313  39.970  38.555   3.851
69546W        W33314  26.993  44.308  10.946
69547W        W33315  14.339  23.194   1.876
69548W        W33316   7.849   1.285   3.845
69549W        W33317  41.446   9.795   0.839
69550W        W33318   7.793  32.980   0.933
69551W        W33319  22.048   4.921   2.833
69552W        W33320  20.660  22.062   1.805
69553W        W33321  34.928   7.191   2.270
69554W        W33322  20.185  40.974  10.411
69555W        W33323  15.722   5.710   0.917
69556W        W33324  32.621  28.593  13.055
69557W        W33325  33.930  17.118   0.377
69558W        W33326  16.667  11.290   4.288
69559W        W33327  43.879  44.780  10.617
69560W        W33328  38.973  28.449  14.314
69561W        W33329  29.612  44.292  14.787
69562W        W33330  29.488  13.720  13.385
69563W        W33331  13.255  18.772  14.919
69564W        W33332  20.615   9.690   4.770
69565W        W33333   4.308   5.387   1.247
69566W        W33334  29.568   6.412  13.494
69567W        W33335   3.883   3.778   1.347
69568W        W33336  44.803  30.133   1.323
69569W        W33337  18.224   7.670   4.118
69570W        W33338  39.968   5.204  11.029
69571W        W33339  43.915   9.853   2.272
69572W        W33340  20.031  26.954  14.846
69573W        W33341  25.090  20.148  13.905
69574W        W33342  37.379   5.363   4.312
69575W        W33343  13.753  32.450   4.813
69576W        W33344  35.531  28.184   4.649
69577W        W33345  26.613  42.791  12.481
69578W        W33346  23.566   7.691   3.335
69579W        W33347  37.066  10.697   4.188
69580W        W33348  19.238  34.494  12.493
69581W        W33349   4.293  12.138  14.292
69582W        W33350  14.166   2.441  11.872
69583W        W33351  44.862  40.803   0.344
69584W        W33352  29.537  30.652  10.067
69585W        W33353  43.793   3.808   2.345
69586W        W33354  32.427  40.024  12.349
69587W        W33355  11.635  36.076  10.985
69588W        W33356   3.829  35.504  13.313
69589W        W33357  24.601  14.727   0.906
69590W        W33358  30.946  34.608   4.174
69591W        W33359  21.540   9.649  10.513
69592W        W33360  35.898  26.058  12.929
69593W        W33361   0.362  26.625  14.841
69594W        W33362  44.001   0.953  12.092
69595W        W33363   2.861   5.212   2.795
69596W        W33364  37.367  28.068  11.024
69597W        W33365  28.949  16.624   1.418
69598W        W33366  22.207  10.350   4.812
69599W        W33367   4.903  40.039  14.986
69600W        W33368  24.147  38.525   4.614
69601W        W33369  26.960  35.494   4.605
69602W        W33370  35.103  26.700   1.297
69603W        W33371   2.783  19.060   3.713
69604W        W33372   7.345  30.415  13.497
69605W        W33373  23.176   5.884  10.509
69606W        W33374  24.704   4.386  13.850
69607W        W33375  41.372   0.320   4.351
69608W        W33376  15.708  16.615  12.477
69609W        W33377  33.558  10.716  10.943
69610W        W33378  33.403  43.495  13.036
69611W        W33379  13.299  33.099  12.842
69612W        W33380  19.201  39.998   0.416
69613W        W33381  40.926  28.576  12.519
69614W        W33382  19.553  44.776  11.486
69615W        W33383   9.393  19.605  14.471
69616W        W33384  11.317   2.781  11.391
69617W        W33385  16.612  20.729  11.921
69618W        W33386  28.973  43.370   3.199
69619W        W33387  23.991  20.068  11.383
69620W        W33388  38.939  41.508  11.519
69621W        W33389  36.529  37.554   1.892
69622W        W33390   9.154  16.119   0.443
69623W        W33391   3.837  11.337   1.246
69624W        W33392  11.297  17.661  10.899
69625W        W33393   4.428  36.025   3.306
69626W        W33394  44.276  11.784   5.141
69627W        W33395  31.642  36.939  12.985
69628W        W33396  30.538   5.794   2.185
69629W        W33397  24.103  36.405   1.450
69630W        W33398   2.458   0.834   5.106
69631W        W33399  23.018  16.225  14.020
69632W        W33400   0.797  26.010   4.161
69633W        W33401  18.549  13.321  11.516
69634W        W33402  16.676  27.152   3.835
69635W        W33403  34.018  13.761   3.870
69636W        W33404  31.991  19.204   4.297
69637W        W33405  12.223  29.172  11.516
69638W        W33406  19.118   5.404   2.291
69639W        W33407  11.696  28.524  10.549
69640W        W33408  26.691  25.053   0.937
69641W        W33409  30.655   2.437  14.943
69642W        W33410  19.150  18.693  11.907
69643W        W33411  21.530  38.325   1.736
69644W        W33412  22.569  28.980   2.743
69645W        W33413  12.751  23.732   4.218
69646W        W33414  32.601  21.164  10.538
69647W        W33415  20.534  36.033  14.972
69648W        W33416   5.869   7.250  14.981
69649W        W33417  28.060  36.037  14.893
69650W        W33418  31.957   4.396   3.770
69651W        W33419  33.046  41.333   2.751
69652W        W33420  20.103   6.369  11.007
69653W        W33421  20.059  36.387  11.097
69654W        W33422  31.426  38.387  10.499
69655W        W33423  19.682  31.105  12.955
69656W        W33424  44.957  31.099   2.870
69657W        W33425  31.595  15.108   4.142
69658W        W33426   0.374  28.488   1.435
69659W        W33427  39.890  23.561  14.450
69660W        W33428  12.244  17.091   2.840
69661W        W33429  42.348  13.303  13.966
69662W        W33430  41.466  24.647  12.039
69663W        W33431  31.591  27.953  13.440
69664W        W33432   7.878   7.245   4.164
69665W        W33433   7.912  25.594  10.903
69666W        W33434  37.450  39.808   3.853
69667W        W33435  20.762   5.773  12.026
69668W        W33436  29.159  16.728  14.501
69669W        W33437   7.215  39.418  12.435
69670W        W33438  40.459  10.177  10.617
69671W        W33439  11.710  39.948  12.020
69672W        W33440  44.329   5.311  11.498
69673W        W33441  21.091  30.431   1.219
69674W        W33442  40.359  15.604  14.320
69675W        W33443  21.745  29.612  13.387
69676W        W33444  28.948  29.982   4.817
69677W        W33445  33.549  10.381   1.720
69678W        W33446  11.296   4.399   0.905
69679W        W33447  12.776  31.558   4.617
69680W        W33448  35.909  10.825   4.686
69681W        W33449  36.437  30.093   9.661
69682W        W33450  15.321  14.152  13.871
69683W        W33451  43.969   7.291   3.227
69684W        W33452   9.350  19.228  12.921
69685W        W33453   6.353  12.708   2.363
69686W        W33454   3.235  42.971  12.047
69687W        W33455  31.143  25.147  11.991
69688W        W33456  11.195  21.185   2.665
69689W        W33457  31.096  30.551  12.507
69690W        W33458  29.990  35.511  12.409
69691W        W33459  13.341   1.414  14.305
69692W        W33460  42.825   6.324  11.073
69693W        W33461   6.308  26.494  14.833
69694W        W33462  30.623   5.869  12.885
69695W        W33463   4.754  12.815  10.554
69696W        W33464  20.168  16.569   3.324
69697W        W33465  14.746  24.129  13.839
69698W        W33466  26.493  10.667   1.869
69699W        W33467   3.221  18.150  14.326
69700W        W33468  24.004  40.398  13.308
69701W        W33469  35.912  20.563   0.930
69702W        W33470  36.566   3.952   3.341
69703W        W33471  19.574   3.321   3.765
69704W        W33472  44.978  28.641   4.695
69705W        W33473  16.145  17.768   1.452
69706W        W33474  41.458   0.433   1.919
69707W        W33475  41.852  11.714   1.352
69708W        W33476   8.716  23.514  14.290
69709W        W33477  10.736  40.871  14.995
69710W        W33478  33.481  32.636   1.264
69711W        W33479  22.709  23.171   0.386
69712W        W33480  41.321  38.994  10.938
69713W        W33481   6.234  33.074   4.230
69714W        W33482  38.888  10.178   0.347
69715W        W33483  36.850   9.789   3.633
69716W        W33484  26.991   6.402  13.844
69717W        W33485  17.608  16.238   2.892
69718W        W33486   8.797   4.935  11.604
69719W        W33487  40.903  23.027   1.278
69720W        W33488  14.641  25.033   0.252
69721W        W33489  15.792  33.121   4.830
69722W        W33490  43.011  44.286  14.825
69723W        W33491  35.024  37.510   2.419
69724W        W33492  17.081  29.535   0.373
69725W        W33493  38.453  36.398   3.849
69726W        W33494  23.061  26.653  14.827
69727W        W33495   5.415  17.744   2.184
69728W        W33496   9.308  11.178   2.767
69729W        W33497   6.280  20.082   0.949
69730W        W33498  21.558  10.812   4.600
69731W        W33499  27.618  13.747   2.215
69732W        W33500  44.404  15.781  13.323
69733W        W33501  40.380  22.527   4.115
69734W        W33502  44.763  37.430   1.804
69735W        W33503  15.091  18.211  14.788
69736W        W33504  11.820  10.755  11.420
69737W        W33505   6.849  15.790  10.970
69738W        W33506  16.608  41.793  12.085
69739W        W33507  43.442   9.760  12.507
69740W        W33508  22.134  19.045  11.128
69741W        W33509  26.097  28.165   2.862
69742W        W33510  13.697  18.730   5.202
69743W        W33511   7.737  36.059  14.019
69744W        W33512  20.260   7.266   1.786
69745W        W33513   8.258  19.723  14.400
69746W        W33514  39.887  37.989   0.798
69747W        W33515  32.454  30.502  12.988
69748W        W33516  23.552   3.851   3.234
69749W        W33517  19.259  31.524   4.325
69750W        W33518  11.306  33.070   0.469
69751W        W33519  28.127   7.398   5.121
69752W        W33520  12.650  13.633   4.169
69753W        W33521  13.791  38.821   2.301
69754W        W33522   0.457  12.194  14.946
69755W        W33523  38.559  29.637  11.551
69756W        W33524   6.326  10.223   2.787
69757W        W33525   6.333  21.729  10.510
69758W        W33526  30.005  42.030  14.989
69759W        W33527  29.965   1.444  14.315
69760W        W33528  33.074  13.682   2.761
69761W        W33529  16.146  42.321  13.518
69762W        W33530  20.657  35.520  14.403
69763W        W33531  44.334   8.723   4.634
69764W        W33532   3.304  10.285  13.957
69765W        W33533  27.603  11.705   2.827
69766W        W33534   8.224  18.167   1.902
69767W        W33535  22.616  30.072  10.011
69768W        W33536  26.480  21.532   1.313
69769W        W33537  38.529  28.454  11.880
69770W        W33538  27.601  33.483  13.947
69771W        W33539   8.235   1.464   0.847
69772W        W33540  39.033  21.095   1.242
69773W        W33541   9.666  19.247  11.399
69774W        W33542  23.226   1.848  12.926
69775W        W33543  14.131  37.378   2.186
69776W        W33544  14.660  24.068  11.574
69777W        W33545  43.434  10.724  10.907
69778W        W33546  20.765  10.216  10.152
69779W        W33547   4.243  19.127  10.412
69780W        W33548  24.052  24.585   4.228
69781W        W33549  32.504   2.778   0.773
69782W        W33550  42.474  42.313  14.421
69783W        W33551  14.120  16.603  10.088
69784W        W33552   3.330  38.975   1.741
69785W        W33553  33.048  26.084  12.999
69786W        W33554  35.471   8.318  12.576
69787W        W33555  20.748  44.272   0.771
69788W        W33556  11.816  36.419   1.870
69789W        W33557  12.797   1.843  11.442
69790W        W33558  33.510  12.188  12.494
69791W        W33559  20.125  19.145  10.572
69792W        W33560  43.914  25.486   3.766
69793W        W33561  33.579  38.062  14.797
69794W        W33562  24.089  43.514  10.554
69795W        W33563  38.025  27.645   3.762
69796W        W33564  12.650   0.369  13.507
69797W        W33565   7.393  23.005   2.677
69798W        W33566   2.351   5.285  12.972
69799W        W33567  19.716  31.145   4.735
69800W        W33568  38.382  41.353   3.275
69801W        W33569  18.584   8.281   1.414
69802W        W33570  19.641  37.971  12.457
69803W        W33571  38.040  28.165  14.769
69804W        W33572  20.670  24.199  14.337
69805W        W33573  41.938  11.227  14.326
69806W        W33574  35.965   5.271   4.149
69807W        W33575   6.807  10.798   0.913
69808W        W33576   6.422  44.477   3.174
69809W        W33577  14.830  44.831   1.295
69810W        W33578  27.687  33.417  12.954
69811W        W33579  24.120  17.119   5.114
69812W        W33580  35.480   8.864  13.419
69813W        W33581  33.553   1.784  10.104
69814W        W33582   7.888  15.656   2.231
69815W        W33583  28.483   3.338  11.956
69816W        W33584   3.761  11.775  14.906
69817W        W33585  38.022  44.386   1.281
69818W        W33586  35.584  33.008   3.191
69819W        W33587  41.839  36.854   2.280
69820W        W33588  39.382   7.756  13.917
69821W        W33589  42.374   1.249  13.542
69822W        W33590  32.557  23.686  14.352
69823W        W33591  40.877  15.315  14.322
69824W        W33592  36.532  34.545   1.341
69825W        W33593  11.294   0.435   1.781
69826W        W33594  22.142  17.659   0.927
69827W        W33595   1.975  14.280   3.648
69828W        W33596  32.934  21.154  14.986
69829W        W33597  23.075  40.519   0.470
69830W        W33598  37.336  31.143  13.796
69831W        W33599  35.394  26.695  11.401
69832W        W33600   9.265   9.846   1.230
69833W        W33601   8.894   5.779  14.857
69834W        W33602  11.339  30.097   1.852
69835W        W33603  19.184  19.583  11.552
69836W        W33604  40.362  17.298  10.641
69837W        W33605   2.334  34.892  12.340
69838W        W33606  15.693  15.613   4.138
69839W        W33607   1.889  41.371   4.126
69840W        W33608  16.745  36.886  14.421
69841W        W33609  40.986  21.719  13.835
69842W        W33610  34.024  39.043   0.427
69843W        W33611  38.947  20.171   0.938
69844W        W33612   7.804  18.052   3.299
69845W        W33613   5.369   3.355   3.252
69846W        W33614  31.901  13.606  10.446
69847W        W33615  22.559   3.730   1.234
69848W        W33616   4.769  13.746   3.865
69849W        W33617  33.469  29.628  13.977
69850W        W33618  40.321  36.893  14.021
69851W        W33619  21.588   4.819   9.935
69852W        W33620  17.204   4.354   4.166
69853W        W33621  44.915   1.863   2.883
69854W        W33622  37.571  34.553   4.743
69855W        W33623  11.322  14.744   0.963
69856W        W33624  24.081   5.897   1.904
69857W        W33625  11.164  33.939   1.324
69858W        W33626  21.625  34.546   1.802
69859W        W33627   0.382   8.212  12.833
69860W        W33628   6.389   7.830   2.293
69861W        W33629  13.177  36.917  12.485
69862W        W33630  27.545  28.522   0.373
69863W        W33631  12.228  44.391  11.391
69864W        W33632  22.141  19.730   1.778
69865W        W33633  39.546  30.085  11.461
69866W        W33634  20.029  13.144  14.303
69867W        W33635  10.240   3.873   4.149
69868W        W33636  18.659   5.356   1.335
69869W        W33637  17.284  38.945  14.281
69870W        W33638  25.645  24.011  12.023
69871W        W33639   3.830  18.699  13.859
69872W        W33640  21.093  24.499   0.245
69873W        W33641  29.504  38.522   2.198
69874W        W33642  25.548  43.369  10.606
69875W        W33643  36.961  34.574   3.165
69876W        W33644  14.813  36.064   0.437
69877W        W33645  26.199  14.685  11.611
69878W        W33646  22.506  27.104   2.324
69879W        W33647  20.197  17.066  10.452
69880W        W33648   5.424  31.023   2.368
69881W        W33649   0.403  42.879  11.905
69882W        W33650  13.146  29.651  13.420
69883W        W33651   5.404  30.996  14.791
69884W        W33652  14.791  10.666  10.624
69885W        W33653   4.273  38.960   3.722
69886W        W33654  13.651  34.018   0.427
69887W        W33655   8.225  33.074  14.327
69888W        W33656   0.467  31.979   4.753
69889W        W33657  15.681   2.447   4.820
69890W        W33658  42.369  18.265  10.469
69891W        W33659  44.446  12.831   0.345
69892W        W33660  12.768   9.230   5.281
69893W        W33661   0.818  27.471  13.059
69894W        W33662  10.248  38.418  13.930
69895W        W33663  34.051  39.052   3.261
69896W        W33664  11.368  13.200   3.277
69897W        W33665   5.723  38.922   0.916
69898W        W33666  30.016  21.564   4.708
69899W        W33667  18.234  43.989  12.434
69900W        W33668  26.100  28.184  13.850
69901W        W33669  17.211  40.829  10.498
69902W        W33670  37.955  33.574   4.803
69903W        W33671  43.789   1.944  14.974
69904W        W33672   7.850  27.956  10.094
69905W        W33673  26.649   7.217   1.415
69906W        W33674  26.171  11.759  15.000
69907W        W33675  15.789  37.528  10.527
69908W        W33676  44.821  28.539   1.434
69909W        W33677  24.035  30.509   9.967
69910W        W33678  39.415   0.441   1.306
69911W        W33679   8.672  31.000  11.462
69912W        W33680  30.157  42.775   2.414
69913W        W33681  39.934  39.484  11.497
69914W        W33682  34.033   1.753   4.321
69915W        W33683  21.208  25.152  10.962
69916W        W33684   6.392  14.761  13.875
69917W        W33685  35.079  25.601  12.520
69918W        W33686  32.593   3.340  13.391
69919W        W33687  35.109   1.268  14.383
69920W        W33688  11.635  25.567   3.737
69921W        W33689  37.987  40.030   4.225
69922W        W33690  20.646  35.445   2.871
69923W        W33691  26.042  20.199  14.843
69924W        W33692  37.472   1.925  13.828
69925W        W33693  32.952  32.557  12.968
69926W        W33694  25.119  15.577   3.157
69927W        W33695  27.992   5.916  14.828
69928W        W33696  26.628   3.317  12.943
69929W        W33697  24.053  43.471   3.754
69930W        W33698   4.792   5.741   4.821
69931W        W33699  24.043   3.873  12.552
69932W        W33700  44.356  23.711  13.942
69933W        W33701   4.810  38.329   0.885
69934W        W33702   2.353  34.038   2.196
69935W        W33703  18.132  36.890   1.795
69936W        W33704  16.082  36.571   4.723
69937W        W33705  44.264  10.291  14.839
69938W        W33706  36.903  16.293   3.195
69939W        W33707  40.385  25.609  14.988
69940W        W33708  37.538  15.087   1.903
69941W        W33709  35.533  37.899  10.568
69942W        W33710  31.913  40.360  10.544
69943W        W33711  21.051  19.697  10.111
69944W        W33712  12.632  36.467  10.900
69945W        W33713  16.704   8.330  14.397
69946W        W33714  39.465  32.979  14.839
69947W        W33715   3.243  26.030   4.126
69948W        W33716  15.755  41.002  14.365
69949W        W33717   2.232  41.932  12.846
69950W        W33718   5.320  41.322  14.899
69951W        W33719  24.216  27.097   0.336
69952W        W33720  25.630  32.569   5.196
69953W        W33721   6.891  42.833   4.344
69954W        W33722  35.899  34.966   3.349
69955W        W33723   2.867   7.851   1.421
69956W        W33724  11.234   2.419  12.869
69957W        W33725  40.026  21.633   1.753
69958W        W33726  23.128  19.264  11.984
69959W        W33727  25.486  34.059   0.869
69960W        W33728  11.321  35.031  11.114
69961W        W33729   1.376  38.943  14.505
69962W        W33730  35.542  10.362   0.375
69963W        W33731  35.918  34.470   3.717
69964W        W33732  22.593  31.501   4.264
69965W        W33733  36.850   5.720   9.482
69966W        W33734  39.930   5.699   1.909
69967W        W33735  18.264  15.284   3.723
69968W        W33736  19.557   0.843  14.923
69969W        W33737  39.887  12.639  11.007
69970W        W33738  12.813  35.023  11.946
69971W        W33739   5.227  43.477   0.320
69972W        W33740  14.792  41.469   0.264
69973W        W33741  20.538  38.343   0.850
69974W        W33742  22.076  44.358   1.781
69975W        W33743   3.904   0.835  11.059
69976W        W33744  42.796  31.477   2.404
69977W        W33745   6.310   8.846  10.043
69978W        W33746  30.919  17.229   4.335
69979W        W33747  23.197   5.796  14.484
69980W        W33748  28.170   3.258   0.831
69981W        W33749  17.079  10.867  10.410
69982W        W33750  36.454  26.114   0.910
69983W        W33751   9.386   0.752  12.994
69984W        W33752  36.041  30.038  10.994
69985W        W33753  30.948  30.918   0.300
69986W        W33754  37.000  41.318   3.822
69987W        W33755   1.465  39.466  13.321
69988W        W33756   2.722  21.656  12.018
69989W        W33757  30.435  14.331   2.840
69990W        W33758  20.127  41.790  11.416
69991W        W33759  43.298  41.508  12.975
69992W        W33760  36.086  21.091  10.577
69993W        W33761   9.263   7.730   3.795
69994W        W33762   8.837  31.453   0.751
69995W        W33763  12.313  23.034   0.866
69996W        W33764  19.279   8.264  11.056
69997W        W33765  23.703  42.004  12.924
69998W        W33766  16.183   2.948   0.740
69999W        W33767  19.057  43.944  12.479
70000W        W33768  19.579  27.982  13.454
70001W        W33769  11.318  11.647  13.856
70002W        W33770   5.208  42.510  11.897
70003W        W33771  27.048  15.801   0.925
70004W        W33772   3.225  40.331  10.516
70005W        W33773  35.568  25.998   0.386
70006W        W33774  32.495  42.992  12.066
70007W        W33775  13.743  34.889   1.783
70008W        W33776  34.982  27.020  14.393
70009W        W33777   8.870  30.153   2.189
70010W        W33778  43.867  16.217  12.406
70011W        W33779   4.901   8.706   2.238
70012W        W33780  12.831  40.332  11.893
70013W        W33781  39.031  25.149  11.423
70014W        W33782  13.804  14.724  11.126
70015W        W33783  34.595  40.454  14.768
70016W        W33784   3.711  38.367  13.486
70017W        W33785  34.909   3.354   2.820
70018W        W33786  28.968  27.607   4.817
70019W        W33787  24.526  15.784  12.526
70020W        W33788  27.575  17.788   0.913
70021W        W33789  18.751   2.780  11.932
70022W        W33790  40.546  17.175  13.047
70023W        W33791  11.815  20.672  13.340
70024W        W33792   8.327  18.769   2.738
70025W        W33793  16.725  32.564   1.756
70026W        W33794  33.522  34.997  11.523
70027W        W33795  27.953   3.235  13.991
70028W        W33796   9.649  22.666   2.689
70029W        W33797  21.717  25.046   2.270
70030W        W33798   9.673  10.735  10.421
70031W        W33799  29.575  18.111   3.381
70032W        W33800  31.942  23.110   3.289
70033W        W33801  17.724  22.214   2.343
70034W        W33802  26.091  31.043   4.229
70035W        W33803  20.170  34.014   2.200
70036W        W33804   6.732   6.375  14.956
70037W        W33805   2.340  43.000  14.784
70038W        W33806  30.003  39.468   3.806
70039W        W33807  24.691   6.907   4.284
70040W        W33808  40.421  33.093   1.448
70041W        W33809   0.958  20.685  12.422
70042W        W33810   7.857  36.443   3.838
70043W        W33811  29.166  25.507  13.938
70044W        W33812   0.382  32.470   0.350
70045W        W33813  35.428   1.247  11.992
70046W        W33814  20.752   6.782  10.918
70047W        W33815  42.960  32.104  13.914
70048W        W33816   9.356  34.386   0.762
70049W        W33817  38.545  31.053  12.031
70050W        W33818  41.386  24.654  11.010
70051W        W33819  35.052  43.910   3.767
70052W        W33820  18.280  15.204  13.886
70053W        W33821  22.566  13.667  13.436
70054W        W33822  10.371   1.432   1.324
70055W        W33823  35.875   0.772   1.924
70056W        W33824  24.137   8.709   3.215
70057W        W33825  10.315  32.627   4.120
70058W        W33826  27.997  16.794   4.613
70059W        W33827  39.048  36.354   2.310
70060W        W33828  17.128  21.104  14.349
70061W        W33829  27.030  17.302   0.268
70062W        W33830  44.343   6.849   3.789
70063W        W33831  20.260  25.642  12.888
70064W        W33832  28.967  20.523   3.827
70065W        W33833  26.506  20.659   4.766
70066W        W33834   0.457  12.176   1.225
70067W        W33835  43.008   6.780  10.548
70068W        W33836  36.997  39.517  11.028
70069W        W33837  32.959  44.416  13.355
70070W        W33838  36.007  29.007  12.922
70071W        W33839  21.647   2.425   3.779
70072W        W33840   0.295  19.111  14.874
70073W        W33841  30.975  24.702  14.289
70074W        W33842  17.165  20.687   4.835
70075W        W33843  17.217  41.396  12.894
70076W        W33844  15.138  40.012  11.413
70077W        W33845  24.999   4.419  12.363
70078W        W33846  29.468  37.542  10.553
70079W        W33847  13.338  25.038   3.714
70080W        W33848  27.095  27.035   2.738
70081W        W33849  32.103  41.862  11.538
70082W        W33850  20.112   1.247  13.393
70083W        W33851  19.609  31.015  11.951
70084W        W33852  16.624  37.371  11.977
70085W        W33853  11.761  37.519   3.232
70086W        W33854   8.701  13.133   3.329
70087W        W33855  18.161  38.953   3.785
70088W        W33856  30.161  35.588  10.991
70089W        W33857  29.125  40.492  14.320
70090W        W33858  21.639  33.612   2.411
70091W        W33859  37.558  39.033  11.936
70092W        W33860   4.938  31.956  14.345
70093W        W33861  43.350  14.254   5.209
70094W        W33862  28.488  30.912   4.816
70095W        W33863  16.076   8.401   0.397
70096W        W33864  23.236  28.489   3.657
70097W        W33865  31.423  30.939   1.798
70098W        W33866   8.679  35.044  12.573
70099W        W33867  34.451   3.856   2.190
70100W        W33868  39.919  20.172  12.927
70101W        W33869  35.886  40.826   1.368
70102W        W33870  43.003  42.410  14.498
70103W        W33871  44.817  17.061   1.878
70104W        W33872  42.448  27.639  12.523
70105W        W33873  38.511  12.309   3.356
70106W        W33874  36.508  31.499   1.868
70107W        W33875  26.463  31.495  12.077
70108W        W33876  36.515  26.514   1.862
70109W        W33877  14.813   4.937   3.778
70110W        W33878  11.653   7.904   2.761
70111W        W33879  44.891  15.219  12.519
70112W        W33880  11.328  42.813  12.993
70113W        W33881  23.592  39.487   2.899
70114W        W33882  14.753  43.915   4.780
70115W        W33883  28.034  41.517   3.642
70116W        W33884  14.100   5.314   4.275
70117W        W33885  21.737  14.631   2.740
70118W        W33886  11.638  10.247   9.550
70119W        W33887  35.005  29.491   2.295
70120W        W33888  16.610  30.634   2.713
70121W        W33889  34.022   7.213  11.009
70122W        W33890  38.975  33.381   2.403
70123W        W33891  32.029  18.572   1.882
70124W        W33892  32.567  10.144   2.682
70125W        W33893  12.318  13.314   3.701
70126W        W33894   6.247   9.700  12.510
70127W        W33895  22.653  26.125   2.705
70128W        W33896  38.997  26.591   3.383
70129W        W33897  40.810   5.371   0.902
70130W        W33898   8.847   3.352  11.569
70131W        W33899  34.984  29.028  14.398
70132W        W33900  22.069  38.396   3.233
70133W        W33901  25.135  18.579  11.047
70134W        W33902   8.291  20.608   0.473
70135W        W33903   5.422  35.874   1.243
70136W        W33904  32.959  36.427   4.826
70137W        W33905   1.373   6.707  14.920
70138W        W33906  10.863   6.342   2.410
70139W        W33907  29.057  21.165   1.760
70140W        W33908  11.225  10.794  10.438
70141W        W33909   8.337   2.285  11.393
70142W        W33910  14.272  31.426   2.815
70143W        W33911  25.497  28.971   4.336
70144W        W33912  17.241  40.846   4.139
70145W        W33913  30.593   1.780  14.004
70146W        W33914  25.499   3.881  10.457
70147W        W33915   0.749   1.393   2.726
70148W        W33916  32.077  22.024  11.098
70149W        W33917  31.633   3.744   3.796
70150W        W33918  21.114   2.867  14.372
70151W        W33919   9.860  16.168   0.443
70152W        W33920  22.664  35.481   3.207
70153W        W33921   7.388   8.217  12.970
70154W        W33922  21.682   8.699  13.044
70155W        W33923   9.322   2.832  12.550
70156W        W33924  18.672  39.399  13.850
70157W        W33925   1.424  28.465   1.787
70158W        W33926  18.668  37.940  13.012
70159W        W33927   6.745  35.465   1.726
70160W        W33928   8.825  22.523  14.324
70161W        W33929  34.481   8.894  11.967
70162W        W33930   8.893  27.629   4.131
70163W        W33931  33.897   2.788  13.918
70164W        W33932   3.749  34.948  13.484
70165W        W33933  18.724  18.231   1.338
70166W        W33934  12.796  26.153  10.944
70167W        W33935   8.310  11.726   3.807
70168W        W33936  22.128  15.118   1.785
70169W        W33937   2.763  32.622   0.334
70170W        W33938  44.881  20.215  10.467
70171W        W33939  19.622  36.867   2.668
70172W        W33940  11.652   7.194   0.826
70173W        W33941  33.449   3.819  11.597
70174W        W33942  28.498   5.778  12.872
70175W        W33943  21.084  31.068  14.436
70176W        W33944  38.037  38.848  11.437
70177W        W33945  36.360  36.591  10.920
70178W        W33946  11.319   6.793  11.093
70179W        W33947  29.512   1.282  12.010
70180W        W33948  41.414   0.370  11.511
70181W        W33949  35.907  38.915  10.417
70182W        W33950  21.107  43.771   1.331
70183W        W33951   7.319   0.931   3.330
70184W        W33952  44.475  18.162   1.725
70185W        W33953  30.532  19.580  11.889
70186W        W33954  31.544  12.183   0.349
70187W        W33955  33.107  29.641   0.256
70188W        W33956   4.220  33.603   2.806
70189W        W33957  36.382  12.807   5.289
70190W        W33958  23.696   7.902  13.410
70191W        W33959   4.368  19.587  13.979
70192W        W33960  39.025  31.127   1.438
70193W        W33961   3.804   4.907   4.303
70194W        W33962  35.536  40.991  10.566
70195W        W33963  18.091  11.275   4.828
70196W        W33964   2.812   4.391  12.483
70197W        W33965  39.517  20.669  10.627
70198W        W33966  23.032  23.706  10.512
70199W        W33967  29.628  36.902   0.251
70200W        W33968   5.827  19.637   2.215
70201W        W33969  34.397  26.189   1.721
70202W        W33970  27.467  32.975   4.137
70203W        W33971  23.656  39.882   2.391
70204W        W33972  39.849   5.305   1.385
70205W        W33973  24.198   4.216   2.735
70206W        W33974  15.093  22.674  13.495
70207W        W33975   6.333   6.245   4.206
70208W        W33976  21.240  21.060  11.506
70209W        W33977  26.011   9.763  10.955
70210W        W33978  26.607  13.722   0.813
70211W        W33979  19.559  15.655  14.991
70212W        W33980  31.937  22.205  13.052
70213W        W33981  43.467  16.243   0.850
70214W        W33982  19.657  20.107   4.291
70215W        W33983  29.089  23.051   2.859
70216W        W33984   8.834   1.772  14.479
70217W        W33985  44.955  12.680  10.615
70218W        W33986   5.757  20.769   1.907
70219W        W33987  37.496   3.776   1.710
70220W        W33988  20.679  10.808  14.005
70221W        W33989  13.637  31.111   1.874
70222W        W33990  30.090  28.083  12.490
70223W        W33991  18.584  25.653   3.334
70224W        W33992  19.051  43.448  11.534
70225W        W33993  44.969  17.115  14.448
70226W        W33994  43.332  10.213  10.499
70227W        W33995  17.688  35.572  12.903
70228W        W33996  38.529  29.655   4.120
70229W        W33997  18.719  27.615   4.250
70230W        W33998  22.252  36.025   3.317
70231W        W33999  14.772   5.852  10.448
70232W        W34000  23.059   4.298   4.741
70233W        W34001  15.317   3.268   2.181
70234W        W34002  19.758   3.923  13.919
70235W        W34003  27.634   2.318  14.957
70236W        W34004  30.965  25.545   3.380
70237W        W34005   3.356  34.379  14.287
70238W        W34006  26.534  43.014   1.386
70239W        W34007   3.299  34.969  11.608
70240W        W34008  30.458  33.102  11.903
70241W        W34009   4.288  10.335   1.241
70242W        W34010   6.877  13.109   2.716
70243W        W34011  43.487  41.916  14.400
70244W        W34012  17.645  38.986   3.227
70245W        W34013  22.659   9.871   0.958
70246W        W34014   7.196  11.269  13.353
70247W        W34015   1.360  23.103   3.772
70248W        W34016  36.533  18.113  13.003
70249W        W34017   4.788  16.585  12.471
70250W        W34018  38.468  15.320  12.971
70251W        W34019  34.060  12.671  11.096
70252W        W34020  31.505  22.586   2.844
70253W        W34021  34.086  39.899   2.274
70254W        W34022  42.350  25.033  11.087
70255W        W34023  13.304  20.064   0.864
70256W        W34024  43.908   7.833  11.988
70257W        W34025  31.496   1.274  14.418
70258W        W34026   3.943  13.793  11.078
70259W        W34027  42.005  25.115  10.430
70260W        W34028  20.585  19.070  13.434
70261W        W34029   0.380  42.967  14.991
70262W        W34030   4.328  38.496   2.335
70263W        W34031  21.740  28.492  11.573
70264W        W34032  27.097  23.570   0.797
70265W        W34033   2.722   9.808   0.286
70266W        W34034   4.913  44.857   3.311
70267W        W34035  13.306  28.152  14.838
70268W        W34036  39.931  39.009  13.805
70269W        W34037  19.176  24.656  14.849
70270W        W34038   0.923  44.448   3.170
70271W        W34039  31.466  11.779  11.607
70272W        W34040  26.491  39.810  13.995
70273W        W34041  38.985  36.072   5.123
70274W        W34042  28.548   5.314  14.353
70275W        W34043  31.959  40.312   1.875
70276W        W34044   1.779  21.707   3.694
70277W        W34045  12.686  16.275  14.338
70278W        W34046  42.801  44.377  11.501
70279W        W34047  31.648  31.448  10.540
70280W        W34048  15.090   3.715   2.870
70281W        W34049  16.097  17.170  14.910
70282W        W34050  26.603   1.295   0.461
70283W        W34051  44.460   6.677   2.766
70284W        W34052  28.095  27.535  10.937
70285W        W34053  35.947  18.196   0.865
70286W        W34054   4.854   2.411   5.262
70287W        W34055  10.728  13.634  11.498
70288W        W34056   2.378  15.612  10.923
70289W        W34057   9.658  36.090   3.276
70290W        W34058  21.059  34.552  10.412
70291W        W34059  43.332  33.101   3.798
70292W        W34060  27.691  35.057  11.595
70293W        W34061  10.297  18.700  11.585
70294W        W34062  12.335  17.614  10.614
70295W        W34063   8.249  24.991   3.206
70296W        W34064  14.298  10.224   4.186
70297W        W34065  29.939  22.670   0.379
70298W        W34066   9.688   7.268   2.767
70299W        W34067  30.057  10.872   3.335
70300W        W34068  36.876  17.198  11.855
70301W        W34069   0.919  40.407   0.743
70302W        W34070  21.238  11.147  14.005
70303W        W34071  23.184  39.968   4.764
70304W        W34072   5.870  39.459   0.869
70305W        W34073  22.214  13.837   5.644
70306W        W34074  35.367  20.173   3.270
70307W        W34075  33.907  21.157  13.467
70308W        W34076  31.536  31.985  13.943
70309W        W34077  17.584   7.210   3.765
70310W        W34078  13.615  20.157  13.051
70311W        W34079   9.179  39.970  10.466
70312W        W34080  38.375  14.756  12.340
70313W        W34081   2.831   0.979  13.045
70314W        W34082   7.378  43.295  14.423
70315W        W34083  15.700  41.926  12.076
70316W        W34084  29.998  10.140  11.460
70317W        W34085   1.469  42.413   1.308
70318W        W34086  44.291  35.562   3.847
70319W        W34087  20.188  20.560   3.738
70320W        W34088   3.897  21.144   3.326
70321W        W34089  19.267   2.332   1.918
70322W        W34090  10.188  20.654   3.196
70323W        W34091  36.525  15.752   1.428
70324W        W34092  24.672  33.424   1.428
70325W        W34093  15.761   7.414  13.515
70326W        W34094  29.080  12.782  13.996
70327W        W34095  15.139  22.009  14.975
70328W        W34096  10.187  33.077  11.106
70329W        W34097   8.667  26.681   4.300
70330W        W34098  41.428  17.135   4.813
70331W        W34099  18.751  35.394  11.859
70332W        W34100  35.863  38.918   4.214
70333W        W34101  27.624   8.371  14.359
70334W        W34102  19.194  37.898  12.536
70335W        W34103   6.795   8.308  11.576
70336W        W34104  10.824  38.433  12.438
70337W        W34105   1.309  37.053   2.732
70338W        W34106   0.914   5.765   3.835
70339W        W34107   3.843  23.154   0.357
70340W        W34108  35.930   6.884  13.004
70341W        W34109  14.171  40.949   4.216
70342W        W34110  43.964   4.869   2.224
70343W        W34111  38.877  16.622   4.306
70344W        W34112  21.055  27.450   9.955
70345W        W34113   7.747  13.739  14.467
70346W        W34114  13.298   3.889   0.313
70347W        W34115  23.178  44.337   4.171
70348W        W34116   6.272  22.237   0.274
70349W        W34117  24.661  29.110   1.820
70350W        W34118   1.239  23.617  13.367
70351W        W34119   7.234  19.643   2.723
70352W        W34120  20.149  20.543   3.265
70353W        W34121  16.087  31.927  13.878
70354W        W34122  26.533  27.665   1.867
70355W        W34123  41.387  15.629   4.178
70356W        W34124  13.820  33.580   3.307
70357W        W34125  22.128  20.701   4.196
70358W        W34126  34.469  42.023  14.466
70359W        W34127  25.653  40.023  11.572
70360W        W34128   8.723  29.101   4.654
70361W        W34129  37.006   2.964   0.888
70362W        W34130   9.653  32.115   4.205
70363W        W34131   3.790  20.273   1.716
70364W        W34132  41.968  29.972   3.383
70365W        W34133  39.403  10.676  13.027
70366W        W34134  23.164  43.963  14.796
70367W        W34135  24.101  10.765   2.843
70368W        W34136  24.224  32.463  14.398
70369W        W34137  27.131   8.401   0.405
70370W        W34138  36.937  12.807  12.912
70371W        W34139  22.623  14.793  11.561
70372W        W34140  24.103  28.118  11.878
70373W        W34141   6.381  33.943   0.319
70374W        W34142  16.160  11.366  11.503
70375W        W34143  28.977  11.245   0.911
70376W        W34144  10.829   0.922   2.878
70377W        W34145  36.457  40.420   4.653
70378W        W34146   0.452  26.517   3.787
70379W        W34147   3.340  27.153  10.473
70380W        W34148  10.850  19.700  12.370
70381W        W34149  37.865   2.894   1.403
70382W        W34150   9.256   5.427  13.005
70383W        W34151  25.491  24.177  12.896
70384W        W34152  21.748  15.247   0.753
70385W        W34153  15.108   2.796   4.744
70386W        W34154  28.994  31.643   3.320
70387W        W34155  18.782  13.180  14.305
70388W        W34156  36.040  25.610  14.912
70389W        W34157   6.771  22.639  12.851
70390W        W34158  27.124  41.484   3.310
70391W        W34159  19.062   7.709  13.419
70392W        W34160   0.971  42.801  13.400
70393W        W34161  31.579   8.864  10.912
70394W        W34162   0.824  38.563  11.863
70395W        W34163  36.957  35.389   4.760
70396W        W34164  41.860  31.573   0.942
70397W        W34165  39.023  22.017  14.927
70398W        W34166  15.708  23.010  12.348
70399W        W34167  15.246   4.853  13.881
70400W        W34168  25.577  38.534  12.402
70401W        W34169   3.453  23.053   2.412
70402W        W34170  40.348   8.694  10.081
70403W        W34171  37.036  34.420   0.734
70404W        W34172  32.071  13.770  11.100
70405W        W34173  18.257  37.403   2.700
70406W        W34174  36.890  18.222   2.246
70407W        W34175  15.313  24.711   0.922
70408W        W34176   0.924  27.496   3.788
70409W        W34177  19.638  40.813  10.534
70410W        W34178  36.072   5.808   3.262
70411W        W34179  17.216  38.904   3.764
70412W        W34180   2.460  32.550  10.609
70413W        W34181  14.254   0.766   3.211
70414W        W34182   1.787  39.510   5.150
70415W        W34183  12.800  34.103  14.765
70416W        W34184  40.541  30.434  14.396
70417W        W34185  11.744  37.546   4.747
70418W        W34186  25.963  31.490   3.833
70419W        W34187  24.604  27.448  14.487
70420W        W34188  24.998  11.259  14.367
70421W        W34189  42.005  23.648  12.364
70422W        W34190  14.147  34.868  10.633
70423W        W34191   1.328  29.551   0.784
70424W        W34192  17.089  41.415   2.306
70425W        W34193  25.985  20.076  12.956
70426W        W34194   6.379   8.386   2.856
70427W        W34195  36.893  41.407  11.121
70428W        W34196  42.294  16.654   1.894
70429W        W34197  13.626  25.559   2.279
70430W        W34198  17.278  22.529   5.264
70431W        W34199  33.424  36.870  10.576
70432W        W34200  42.446  41.918  12.948
70433W        W34201  14.268  40.817   3.198
70434W        W34202  43.410  32.130   0.327
70435W        W34203   5.206  23.002  11.866
70436W        W34204  35.882   5.805   4.651
70437W        W34205  30.055   7.751  12.399
70438W        W34206  42.287  44.999  12.363
70439W        W34207  29.513   0.434   0.332
70440W        W34208  29.559  33.890  14.355
70441W        W34209  30.437  32.135   3.793
70442W        W34210  30.012  16.115  10.969
70443W        W34211  18.090  28.616  12.987
70444W        W34212  17.101  13.836   1.856
70445W        W34213  29.560  32.075   5.264
70446W        W34214  34.908  26.568  12.887
70447W        W34215   7.187  41.490  12.414
70448W        W34216  12.644  33.065   0.779
70449W        W34217   5.270  17.612   3.683
70450W        W34218  26.120  28.626  11.069
70451W        W34219   7.412  16.780  11.011
70452W        W34220  28.037   6.915  12.991
70453W        W34221  34.932  23.224   3.633
70454W        W34222  24.676  20.738   1.769
70455W        W34223  26.670  21.240   2.754
70456W        W34224  17.610  42.297  12.017
70457W        W34225  18.563  13.631   0.791
70458W        W34226  32.917  44.313  13.890
70459W        W34227  16.143  10.298  13.941
70460W        W34228  42.353  35.539   0.452
70461W        W34229  20.257  32.060  11.871
70462W        W34230  38.001  16.655   3.768
70463W        W34231   6.385  33.526  10.956
70464W        W34232   4.875  36.856   3.693
70465W        W34233  41.884   9.824  13.033
70466W        W34234  43.474  23.549   2.259
70467W        W34235   6.412  28.138   1.925
70468W        W34236  35.387  26.669   4.167
70469W        W34237  28.497  37.034   3.294
70470W        W34238  35.926  30.601   0.455
70471W        W34239  21.183   8.230   4.188
70472W        W34240  17.228  30.509   0.271
70473W        W34241  32.032  24.489  13.413
70474W        W34242   6.312   6.909  13.841
70475W        W34243  33.404  29.498   1.415
70476W        W34244   2.760  40.920  11.448
70477W        W34245   1.241  32.452  13.317
70478W        W34246  12.633   3.734  12.965
70479W        W34247   2.230   4.288  10.506
70480W        W34248  28.602  17.794  10.415
70481W        W34249   1.874   6.204  11.943
70482W        W34250  20.701  29.966  10.986
70483W        W34251  45.000   2.829   4.321
70484W        W34252   2.230  37.965   0.854
70485W        W34253  35.094   9.810  12.085
70486W        W34254  23.692  14.790  10.566
70487W        W34255  17.759  14.626   2.270
70488W        W34256  38.848  40.919   3.666
70489W        W34257  43.325  39.064  11.564
70490W        W34258  32.034  32.029   3.187
70491W        W34259  13.119  25.132   5.122
70492W        W34260  20.595  21.254   5.294
70493W        W34261  34.081  41.824   0.889
70494W        W34262  30.640  42.030  14.800
70495W        W34263  25.574  29.142   1.281
70496W        W34264   7.238  12.828   1.371
70497W        W34265  39.957  33.935  12.913
70498W        W34266  33.461  37.008  12.510
70499W        W34267   7.814   4.801   4.706
70500W        W34268   7.834  32.044   2.738
70501W        W34269   4.730   2.907   4.662
70502W        W34270   1.269  33.561   5.165
70503W        W34271   2.330  26.675   4.294
70504W        W34272   5.809   1.880  11.031
70505W        W34273   5.793  12.175  14.306
70506W        W34274  35.548  41.799  13.905
70507W        W34275  36.547  25.106   2.683
70508W        W34276  20.223  31.630  13.412
70509W        W34277  28.112   4.849   4.725
70510W        W34278  30.473  38.983   0.435
70511W        W34279  29.527  13.335  12.919
70512W        W34280   3.403  21.560   0.422
70513W        W34281   4.254  31.454   1.375
70514W        W34282  14.153  31.999  11.875
70515W        W34283  33.484  33.623   1.801
70516W        W34284  31.633   2.275   2.896
70517W        W34285  38.825  37.905   1.260
70518W        W34286  27.566  23.028   2.795
70519W        W34287  22.503  26.205   4.290
70520W        W34288  37.429  37.435  11.038
70521W        W34289  26.664  35.991   2.396
70522W        W34290  34.472  22.154  12.562
70523W        W34291  21.233  19.107  10.551
70524W        W34292  36.959  42.908  13.416
70525W        W34293  21.219  40.968  14.771
70526W        W34294   5.319  33.449  11.902
70527W        W34295  25.491  22.568   4.653
70528W        W34296   2.732  19.104  13.040
70529W        W34297  39.937  13.211  10.959
70530W        W34298  29.152  29.624  10.912
70531W        W34299  34.561  18.209   5.089
70532W        W34300  11.293  30.057  12.831
70533W        W34301  41.436   9.229  14.905
70534W        W34302   7.227  41.954   0.327
70535W        W34303  22.046  13.333   0.435
70536W        W34304   7.197  24.185  13.873
70537W        W34305  32.900  40.861  14.999
70538W        W34306  23.554  16.235   3.313
70539W        W34307  11.766  34.481   1.256
70540W        W34308  15.667  29.159   1.894
70541W        W34309  33.900  18.276  11.599
70542W        W34310  28.950   6.228  12.542
70543W        W34311  36.015  41.955   2.296
70544W        W34312  36.056  29.580   1.927
70545W        W34313   8.178   8.767  10.624
70546W        W34314   3.375   5.331  13.872
70547W        W34315  10.167  21.607  14.910
70548W        W34316  15.745  41.392   2.335
70549W        W34317   4.763   4.387  13.064
70550W        W34318  19.107  15.221   3.258
70551W        W34319  18.709  26.621  10.425
70552W        W34320  38.358  35.876   3.146
70553W        W34321   3.746  11.838  13.794
70554W        W34322  30.486  27.082   0.735
70555W        W34323  43.776  30.658   3.305
70556W        W34324  19.227  26.553   2.216
70557W        W34325   0.420   4.932   2.702
70558W        W34326  26.014  31.059   0.385
70559W        W34327  35.394  28.457  14.307
70560W        W34328   9.868  36.912   3.312
70561W        W34329  41.941  24.094   4.708
70562W        W34330  38.384  28.661   5.273
70563W        W34331  10.378  28.098  12.908
70564W        W34332  18.635  41.375  12.917
70565W        W34333  29.649  28.635  11.553
70566W        W34334  40.915  16.196   1.336
70567W        W34335  13.223  37.025   3.211
70568W        W34336  23.596  24.680   4.764
70569W        W34337  42.908   0.456   4.310
70570W        W34338  19.733   8.752   4.120
70571W        W34339  27.501  32.942   0.854
70572W        W34340  33.996  18.559  12.433
70573W        W34341  38.968  44.897  14.512
70574W        W34342   8.808   6.268   3.223
70575W        W34343  27.541   1.927  12.377
70576W        W34344  25.526  26.084  12.563
70577W        W34345  42.388   4.395   2.222
70578W        W34346  36.593  39.052   1.413
70579W        W34347  20.245  26.590  10.480
70580W        W34348  43.283  44.457   4.278
70581W        W34349  42.450  25.687   0.269
70582W        W34350  38.066  32.541   0.251
70583W        W34351  35.035  15.769  11.991
70584W        W34352  13.814  38.491  14.989
70585W        W34353   8.356  31.998   5.189
70586W        W34354  16.744   6.420   0.883
70587W        W34355  17.683  12.343  13.913
70588W        W34356  44.476   0.960  11.540
70589W        W34357  21.648  44.793   0.792
70590W        W34358  26.659  30.638  13.795
70591W        W34359  33.931  22.678   3.182
70592W        W34360  33.528  16.585   3.869
70593W        W34361   7.289   3.219   0.771
70594W        W34362  32.910  26.526   4.823
70595W        W34363   9.315  19.601   3.753
70596W        W34364  18.108  32.481   2.709
70597W        W34365   8.780  17.573   4.277
70598W        W34366  15.239   0.851  11.569
70599W        W34367  31.047   8.741   3.770
70600W        W34368  26.181  29.498  12.410
70601W        W34369  15.180   3.922  14.361
70602W        W34370  40.483   4.718  13.362
70603W        W34371  24.041  38.000  14.439
70604W        W34372  38.925   9.724   0.839
70605W        W34373  34.990  36.371   0.245
70606W        W34374  39.335  36.380   1.394
70607W        W34375   7.239   9.355  10.572
70608W        W34376  34.034  40.457  14.289
70609W        W34377   1.955  26.093  13.982
70610W        W34378  26.576  40.490  11.470
70611W        W34379  28.466   7.745  14.468
70612W        W34380  34.975   1.966  11.880
70613W        W34381  37.450  32.634   4.620
70614W        W34382  43.393  41.904  14.862
70615W        W34383   2.355  12.156  11.957
70616W        W34384   6.792   5.283  13.857
70617W        W34385   5.933  27.046   1.795
70618W        W34386  28.991  18.682   0.945
70619W        W34387  14.242   9.785  14.832
70620W        W34388  22.627  36.905  11.404
70621W        W34389  12.135  22.531   4.317
70622W        W34390  16.748  32.496  12.462
70623W        W34391  43.306  30.651  12.941
70624W        W34392  42.858  23.018  11.062
70625W        W34393  14.275  22.999  10.534
70626W        W34394   1.254  43.474  14.967
70627W        W34395  13.780  18.221  13.310
70628W        W34396  14.170   2.845   0.754
70629W        W34397   0.831  23.632  13.349
70630W        W34398  27.195  38.518  13.054
70631W        W34399  34.062  26.496   4.181
70632W        W34400  20.055  13.639  10.483
70633W        W34401   3.951  33.065   2.222
70634W        W34402  37.580   9.761  12.571
70635W        W34403  28.670   6.727   0.941
70636W        W34404  26.471   5.347   0.252
70637W        W34405  38.834  37.523  12.071
70638W        W34406  13.650  39.976   1.711
70639W        W34407  36.395  26.534   2.865
70640W        W34408   8.808   8.722   0.865
70641W        W34409  42.011  41.525   3.830
70642W        W34410   0.337  28.487   2.282
70643W        W34411  32.024  26.958   3.149
70644W        W34412  42.832   2.365   2.290
70645W        W34413  15.090   6.423  10.413
70646W        W34414   4.355  32.506  10.899
70647W        W34415  33.928   4.884  11.991
70648W        W34416   9.780   1.912   2.254
70649W        W34417  24.145  28.600  14.948
70650W        W34418  42.300   8.801  10.508
70651W        W34419  14.184   0.479   3.782
70652W        W34420  29.440  18.067   4.248
70653W        W34421   2.949   0.421   4.705
70654W        W34422   3.220  16.267   1.394
70655W        W34423  25.186  22.538   2.389
70656W        W34424  16.234  35.988   3.185
70657W        W34425  41.016  14.643   3.762
70658W        W34426  26.467   9.223  14.276
70659W        W34427  26.070  21.714  11.433
70660W        W34428  22.200  23.531   1.778
70661W        W34429  32.978  38.348   4.602
70662W        W34430  38.474  17.207  13.340
70663W        W34431  36.519  40.516   2.194
70664W        W34432  14.716  43.005  14.768
70665W        W34433  25.022   8.851   1.935
70666W        W34434  27.947  44.798  13.823
70667W        W34435  14.663  43.839   2.219
70668W        W34436  25.580  18.099   0.361
70669W        W34437   3.871  41.996   4.147
70670W        W34438  11.160   7.860  11.559
70671W        W34439  18.205  33.008   2.893
70672W        W34440  23.002  40.445  11.472
70673W        W34441  33.427   1.256   9.986
70674W        W34442  21.092   2.450  10.896
70675W        W34443   9.387  43.867  11.073
70676W        W34444  40.496  11.184  12.369
70677W        W34445  12.629  43.891  13.526
70678W        W34446  24.633  14.253   0.952
70679W        W34447  12.776  26.555  11.927
70680W        W34448  14.827  28.042  13.438
70681W        W34449  13.250  20.234   4.202
70682W        W34450  44.337  12.721   1.833
70683W        W34451  10.218   6.699  10.918
70684W        W34452  33.399  25.177   2.342
70685W        W34453  19.270  15.121  12.880
70686W        W34454  26.011  10.831   0.271
70687W        W34455  33.476  24.057  12.885
70688W        W34456  37.890  22.040  11.920
70689W        W34457  43.459   1.798   4.761
70690W        W34458  11.226  20.233  10.473
70691W        W34459   9.777  16.253  14.797
70692W        W34460  41.448  44.797  10.448
70693W        W34461  36.874   0.892  12.841
70694W        W34462  27.195  33.904   1.318
70695W        W34463  26.964  17.697  13.003
70696W        W34464  13.665  21.139  12.071
70697W        W34465   2.944  28.639   1.901
70698W        W34466  40.314   6.260  13.029
70699W        W34467  31.944  13.612   3.359
70700W        W34468  40.909  32.550   2.684
70701W        W34469  37.891   5.422  12.473
70702W        W34470  29.489   6.222   3.770
70703W        W34471  21.250  20.558   4.250
70704W        W34472  41.437  31.616  10.580
70705W        W34473  40.950   4.733   2.794
70706W        W34474  32.994  32.533   0.803
70707W        W34475  20.755  20.686  12.018
70708W        W34476  22.011   9.737  13.375
70709W        W34477  30.656  34.048  11.493
70710W        W34478  23.994  19.744   5.321
70711W        W34479  33.409  35.494   4.761
70712W        W34480  15.717  43.918  14.841
70713W        W34481  16.121  35.527  10.972
70714W        W34482  15.133  13.786   1.363
70715W        W34483  37.409  33.593  12.824
70716W        W34484   5.761  26.142   0.289
70717W        W34485  36.492  25.701   4.327
70718W        W34486  10.187  34.454   1.374
70719W        W34487   4.838  16.226   1.404
70720W        W34488  15.324   1.798   2.881
70721W        W34489  44.837   8.784  14.324
70722W        W34490  16.157   4.704   4.297
70723W        W34491  24.528  27.594   1.758
70724W        W34492   1.455  30.489   3.735
70725W        W34493  12.166  11.236   4.249
70726W        W34494  43.435  27.962   9.954
70727W        W34495  23.212  14.246   4.176
70728W        W34496  24.993  38.890  12.871
70729W        W34497   4.358   9.819  14.302
70730W        W34498   9.878  18.136   3.666
70731W        W34499   3.337   9.805   3.808
70732W        W34500   2.302  18.161   5.266
70733W        W34501  37.420   1.365  12.942
70734W        W34502  33.603  11.206  13.917
70735W        W34503   9.162  35.579  12.932
70736W        W34504   1.322  35.938   4.151
70737W        W34505  12.824  12.186  11.496
70738W        W34506  15.652  18.763   2.278
70739W        W34507  36.495   3.870  13.346
70740W        W34508  32.039   4.708   2.251
70741W        W34509  35.103  33.975   0.333
70742W        W34510  40.415  36.536   4.180
70743W        W34511  43.282  20.033  13.383
70744W        W34512  14.709  17.196   4.820
70745W        W34513  39.872  21.722   2.824
70746W        W34514   8.161   4.291   1.369
70747W        W34515  14.597  40.850   0.842
70748W        W34516  36.440   2.366  13.024
70749W        W34517   7.272   0.968  13.854
70750W        W34518  14.263  21.091   1.366
70751W        W34519   3.883  31.973   0.874
70752W        W34520  37.017  10.196  11.024
70753W        W34521  18.219  18.285  11.015
70754W        W34522  42.005  31.590   4.334
70755W        W34523  33.523  39.979  10.044
70756W        W34524  28.031  36.562   4.612
70757W        W34525  44.768  12.266   2.197
70758W        W34526  19.156  40.942  11.610
70759W        W34527  39.399   1.970  11.558
70760W        W34528  32.892  16.073   3.760
70761W        W34529  20.030  12.320  10.509
70762W        W34530  21.041  12.226   4.142
70763W        W34531  33.407  23.046   4.332
70764W        W34532  40.973  29.072   0.867
70765W        W34533  33.075  26.080  13.444
70766W        W34534   6.759  25.116  13.836
70767W        W34535  12.126  40.988   2.248
70768W        W34536  39.044  43.810  13.987
70769W        W34537  40.922   4.435   4.350
70770W        W34538  38.418  18.096  12.986
70771W        W34539  23.504  27.530  12.033
70772W        W34540   6.703  23.674   0.948
70773W        W34541  10.661  33.537  13.334
70774W        W34542  41.937  16.789   1.360
70775W        W34543  38.504  13.760  10.532
70776W        W34544  43.818  20.548  12.423
70777W        W34545   5.309  33.417   4.598
70778W        W34546  34.121  31.107  14.903
70779W        W34547  12.684  32.026   3.363
70780W        W34548  41.447  13.746  10.484
70781W        W34549  34.490   1.267  13.333
70782W        W34550  32.486  35.380   0.345
70783W        W34551  36.386   4.311  11.081
70784W        W34552   8.214  21.141   1.420
70785W        W34553  34.567  13.144  12.432
70786W        W34554  34.403  11.359  12.469
70787W        W34555  40.038  24.617  14.763
70788W        W34556  32.445  24.031  11.961
70789W        W34557  16.225  34.949   3.704
70790W        W34558  10.699  15.177   4.186
70791W        W34559  43.933   5.841   3.766
70792W        W34560  10.255  18.278  11.477
70793W        W34561  14.222  41.419  14.800
70794W        W34562   7.309  33.413  10.923
70795W        W34563   7.694   8.899  10.500
70796W        W34564   8.796   9.280   2.674
70797W        W34565  40.010  43.929  10.512
70798W        W34566   4.903  24.990   2.218
70799W        W34567  11.763  24.690  10.943
70800W        W34568  32.098  28.988   4.174
70801W        W34569  35.052  26.640   3.299
70802W        W34570  19.271   6.798  13.510
70803W        W34571  12.235  38.038   1.753
70804W        W34572  40.867  21.178  14.870
70805W        W34573  38.007  34.599  14.332
70806W        W34574   2.384   8.399   4.620
70807W        W34575  33.074  43.778  13.409
70808W        W34576  12.768  31.121   1.370
70809W        W34577  34.939   6.771   4.146
70810W        W34578  12.644  10.645   2.842
70811W        W34579  29.524  24.610  14.390
70812W        W34580   1.926  17.212   2.772
70813W        W34581  35.045  30.926   1.331
70814W        W34582  38.520  36.518  12.579
70815W        W34583  16.285  14.601  10.962
70816W        W34584  25.539  34.085   0.342
70817W        W34585   4.933  36.938  12.476
70818W        W34586  21.194  13.674   3.826
70819W        W34587   1.759   1.418  11.581
70820W        W34588  34.082  15.703  14.429
70821W        W34589  21.684  29.040  13.438
70822W        W34590  26.013  28.015   1.355
70823W        W34591  24.532   0.271  12.412
70824W        W34592  21.260  10.186  11.400
70825W        W34593  25.670  42.436   0.766
70826W        W34594  37.073  15.675   3.844
70827W        W34595  42.451  34.537   1.319
70828W        W34596  25.676  17.146   5.111
70829W        W34597  27.688  21.045   1.788
70830W        W34598  44.449  31.605   4.237
70831W        W34599  28.568  31.493   0.928
70832W        W34600   0.353   0.809   4.752
70833W        W34601  20.642  41.461  12.473
70834W        W34602  12.645  30.969   2.750
70835W        W34603  19.112  13.657  11.460
70836W        W34604  19.769  38.904   3.306
70837W        W34605  23.030  23.068   4.725
70838W        W34606  16.218  17.190  12.872
70839W        W34607   6.893  27.964  10.921
70840W        W34608   4.786  18.243   2.300
70841W        W34609  28.028  39.337   1.911
70842W        W34610  14.628  23.696  10.905
70843W        W34611   7.388  18.093   3.215
70844W        W34612  24.499  31.956  10.918
70845W        W34613  33.962  36.976  10.908
70846W        W34614  43.811  36.947  13.881
70847W        W34615   4.212  37.536   0.443
70848W        W34616  27.621  12.235   1.905
70849W        W34617  35.535  35.401   4.228
70850W        W34618  28.647  14.142   3.278
70851W        W34619  38.356   7.829  11.576
70852W        W34620  25.567  39.904  12.494
70853W        W34621   6.234  28.521  14.875
70854W        W34622  10.190  37.507  11.424
70855W        W34623  12.767  38.338  14.511
70856W        W34624  14.720  40.917   3.335
70857W        W34625  18.260  10.193   2.881
70858W        W34626  25.671  41.965  11.092
70859W        W34627  19.204  27.086  13.944
70860W        W34628  24.152   5.898   0.734
70861W        W34629  40.922  13.768   3.152
70862W        W34630   1.395  15.794  14.482
70863W        W34631  29.660  37.405  12.018
70864W        W34632   1.413  13.801  13.514
70865W        W34633   5.259  24.668  14.407
70866W        W34634  37.340  22.590   3.639
70867W        W34635  13.739  27.089   2.337
70868W        W34636   2.311  33.010  12.381
70869W        W34637  30.649  36.507   3.168
70870W        W34638  39.039  32.088  12.939
70871W        W34639   5.294  28.988   2.664
70872W        W34640  26.987   5.714  11.945
70873W        W34641  29.023   2.918   3.276
70874W        W34642  44.342  37.384  13.042
70875W        W34643  38.056  26.545   0.347
70876W        W34644  41.021  21.164  11.566
70877W        W34645  24.519   6.770   1.790
70878W        W34646  26.132   1.314  14.789
70879W        W34647  15.301  16.790  11.525
70880W        W34648  14.816  22.683   1.408
70881W        W34649  23.159   2.371   0.419
70882W        W34650  41.307  18.647  13.406
70883W        W34651  36.436   3.382  14.959
70884W        W34652  17.085  43.783  13.921
70885W        W34653  30.532  27.515   2.789
70886W        W34654   6.347  18.215  14.332
70887W        W34655  31.982  36.861   2.207
70888W        W34656  31.444  25.551  14.283
70889W        W34657  36.091   2.280  11.062
70890W        W34658  38.530  14.135  14.484
70891W        W34659  15.823  10.278   4.606
70892W        W34660  22.058  17.633   2.769
70893W        W34661  41.816   3.868   3.802
70894W        W34662   2.305   8.268  10.992
70895W        W34663  22.650   8.764  11.993
70896W        W34664  28.529   8.306  12.522
70897W        W34665  36.849   1.402   4.278
70898W        W34666  19.256  20.732  12.861
70899W        W34667  43.798  41.037   2.867
70900W        W34668  31.940  30.087   2.902
70901W        W34669  22.683  24.031  13.870
70902W        W34670   9.307  44.929   2.300
70903W        W34671  40.485   9.777  11.987
70904W        W34672  23.670  43.343   1.285
70905W        W34673   1.371  12.723   4.735
70906W        W34674  28.605   5.782   3.849
70907W        W34675  24.493   9.374   3.684
70908W        W34676  15.716   9.155   4.666
70909W        W34677  30.968  39.559   3.643
70910W        W34678  41.319   4.306  12.855
70911W        W34679  12.180  28.003   0.968
70912W        W34680   2.773  38.994  11.598
70913W        W34681  11.236  32.411   0.295
70914W        W34682  44.425  12.850   1.408
70915W        W34683  22.610  19.048  12.571
70916W        W34684   7.357   6.734   4.718
70917W        W34685  38.995  15.725  11.857
70918W        W34686  17.583  28.169   2.669
70919W        W34687  21.171  19.248  14.474
70920W        W34688   0.354  31.912  14.292
70921W        W34689   2.468  10.154   3.248
70922W        W34690  42.328  21.628  11.117
70923W        W34691   4.784  30.970  12.870
70924W        W34692  37.354  41.878  13.318
70925W        W34693  14.603  23.720  14.351
70926W        W34694   3.458  34.011  14.772
70927W        W34695  33.095  25.490  11.126
70928W        W34696  24.006  43.291   4.317
70929W        W34697  23.130  37.997  14.874
70930W        W34698  25.013  19.109   1.825
70931W        W34699   7.258  26.525   5.253
70932W        W34700   7.176  25.101   1.267
70933W        W34701   1.935  22.040  14.325
70934W        W34702  31.980  32.113   4.193
70935W        W34703   6.181  24.106   2.848
70936W        W34704   7.228   0.353  13.980
70937W        W34705  44.793  35.428   2.801
70938W        W34706  43.863  27.678  11.105
70939W        W34707  20.231  12.673  10.509
70940W        W34708  25.069  30.926  11.610
70941W        W34709  23.713   5.383  14.858
70942W        W34710  18.182   6.874  14.027
70943W        W34711  40.872  28.482   1.221
70944W        W34712  29.050  41.949  14.473
70945W        W34713  43.992   3.387   0.858
70946W        W34714  18.227   1.281   3.292
70947W        W34715  33.034  10.635  10.563
70948W        W34716  33.451  36.013   2.861
70949W        W34717  14.222  43.445  14.812
70950W        W34718  21.257  32.573  12.060
70951W        W34719   1.849   9.372  13.874
70952W        W34720  22.133   1.390   1.758
70953W        W34721  17.647  33.952   1.833
70954W        W34722  18.237  37.024  13.836
70955W        W34723  21.213  38.996  14.364
70956W        W34724  40.524   6.254  14.422
70957W        W34725  27.069  11.823   0.309
70958W        W34726  26.495  38.969  12.488
70959W        W34727  17.102  17.680   3.787
70960W        W34728   8.260  23.652  11.462
70961W        W34729   4.867  30.101   3.667
70962W        W34730  34.400  39.816   4.605
70963W        W34731  28.451  22.148  13.371
70964W        W34732  38.371  37.503  14.421
70965W        W34733  43.316  40.535  11.970
70966W        W34734   2.892  34.112  13.943
70967W        W34735  13.661  33.489  10.973
70968W        W34736  35.014  23.133  10.539
70969W        W34737  20.130  35.925   1.783
70970W        W34738  12.186  22.572  10.415
70971W        W34739  44.452   0.386   0.923
70972W        W34740   0.317  21.041  11.999
70973W        W34741   2.468   5.906   3.321
70974W        W34742  29.953  14.604   3.296
70975W        W34743  14.676  25.675  14.345
70976W        W34744  11.190  10.188   2.685
70977W        W34745  18.786  16.103   4.151
70978W        W34746  40.307  31.631  14.320
70979W        W34747  20.261  16.152  13.932
70980W        W34748  28.547  33.991  10.521
70981W        W34749  24.620  44.412   1.815
70982W        W34750   2.814   6.816  13.792
70983W        W34751   9.279   0.493  12.343
70984W        W34752  15.733   8.274  13.871
70985W        W34753  31.583  23.639   0.478
70986W        W34754  40.531  35.000   9.957
70987W        W34755  39.043  19.661  13.879
70988W        W34756   9.251  40.993  13.468
70989W        W34757  41.323  30.149   1.316
70990W        W34758  13.669  29.591  13.420
70991W        W34759  24.547  17.676   0.248
70992W        W34760  30.554   2.792   2.273
70993W        W34761  15.323  12.355   1.335
70994W        W34762  10.206  42.517  12.398
70995W        W34763  19.612  10.192   3.196
70996W        W34764  26.599  26.664   2.872
70997W        W34765  41.923  18.764   1.808
70998W        W34766  13.324  30.914  12.840
70999W        W34767   4.240   0.329   2.755
71000W        W34768  43.406  40.447   1.729
71001W        W34769   1.372  28.186  14.026
71002W        W34770   8.165   6.322  12.970
71003W        W34771   7.666  23.241   3.330
71004W        W34772  18.133  35.064  10.513
71005W        W34773  36.534   8.857  11.443
71006W        W34774  35.576  41.491   0.906
71007W        W34775   4.795  20.556   2.768
71008W        W34776  11.301  10.278   3.821
71009W        W34777  21.625  23.707  14.990
71010W        W34778  34.085  20.536  14.462
71011W        W34779  38.013   8.758  11.381
71012W        W34780  23.555  40.903   2.182
71013W        W34781   4.444  18.639  12.421
71014W        W34782   2.912  15.084  14.400
71015W        W34783  37.881   5.382   0.788
71016W        W34784  12.201  25.489   0.319
71017W        W34785  22.701  28.136   1.330
71018W        W34786   4.318  20.527   4.753
71019W        W34787   8.793  38.923   1.841
71020W        W34788  36.472  42.019  13.826
71021W        W34789  20.030  43.020  10.513
71022W        W34790  38.979  22.567   0.921
71023W        W34791  34.436   2.767   1.406
71024W        W34792   1.971   1.861  13.547
71025W        W34793  43.500  20.201   2.281
71026W        W34794  42.476  10.373   0.310
71027W        W34795  11.164  10.352   1.360
71028W        W34796  31.929  35.909  13.331
71029W        W34797  29.167   9.660   3.667
71030W        W34798  36.003   3.396  12.053
71031W        W34799  35.522  40.896   0.326
71032W        W34800  34.452  32.393  13.948
71033W        W34801  44.834  26.473   4.226
71034W        W34802  29.647  19.766   1.211
71035W        W34803  13.827  17.665   4.828
71036W        W34804  16.236  28.015   1.431
71037W        W34805  35.523  42.367   0.828
71038W        W34806  33.399  34.079   2.890
71039W        W34807   6.382  44.774  12.460
71040W        W34808  13.665  24.983   0.443
71041W        W34809  20.531   1.782  11.973
71042W        W34810  35.077  38.020   4.699
71043W        W34811  26.665  26.972  10.489
71044W        W34812  42.443  14.253   2.700
71045W        W34813   9.816  32.472  11.117
71046W        W34814  11.705  32.072  14.276
71047W        W34815  11.854   2.923   0.383
71048W        W34816  43.509  42.965  11.119
71049W        W34817  12.345  20.261  13.881
71050W        W34818  37.890   9.244  14.403
71051W        W34819  44.887  14.129   3.214
71052W        W34820  41.911  22.224  12.977
71053W        W34821   8.196  34.517  11.527
71054W        W34822   5.232  37.949  12.083
71055W        W34823   7.899   8.886  11.575
71056W        W34824  40.491  37.891  13.049
71057W        W34825   9.793  33.900   2.829
71058W        W34826  35.904  43.770  12.984
71059W        W34827  37.914  32.620  10.416
71060W        W34828   4.750  16.205  10.557
71061W        W34829  37.969  19.064   4.185
71062W        W34830  17.762   9.369   3.180
71063W        W34831   2.760  43.430  13.418
71064W        W34832  39.365   1.822  12.911
71065W        W34833  29.936  37.548  12.427
71066W        W34834  26.633  21.579   0.463
71067W        W34835  18.050   4.851  14.317
71068W        W34836  41.948  26.462   2.322
71069W        W34837  37.841  29.058   3.281
71070W        W34838  20.151   3.444  13.063
71071W        W34839  25.702  31.443   0.280
71072W        W34840  14.223   9.339   0.439
71073W        W34841  38.047  27.108  14.918
71074W        W34842   9.252  37.021   4.721
71075W        W34843  31.536  27.659   0.275
71076W        W34844  24.680  30.465  11.889
71077W        W34845   9.646  35.861   3.648
71078W        W34846  33.618  11.146  12.879
71079W        W34847  22.013  14.298   3.867
71080W        W34848  29.449  41.010  13.918
71081W        W34849  21.738  18.058   0.865
71082W        W34850  14.666  42.994  11.936
71083W        W34851  44.007  18.770  10.990
71084W        W34852   8.754  15.196   0.423
71085W        W34853  34.863  17.642  11.378
71086W        W34854  41.916  38.048  14.850
71087W        W34855  24.587  23.198  14.848
71088W        W34856  13.302  24.068   0.966
71089W        W34857   6.358  19.726  13.329
71090W        W34858  44.429   2.472   3.334
71091W        W34859  14.796  44.934   0.277
71092W        W34860  42.510  42.991  10.924
71093W        W34861  44.283  17.099   0.386
71094W        W34862  42.372  40.328   4.327
71095W        W34863   7.414  43.765  11.012
71096W        W34864  23.665   3.230  11.592
71097W        W34865  31.500  25.102   0.846
71098W        W34866  42.353  22.197  10.887
71099W        W34867  22.646  14.674   2.404
71100W        W34868  36.986  37.494  11.028
71101W        W34869  25.188  20.556  11.082
71102W        W34870  10.870   2.396   2.764
71103W        W34871  17.797  43.904   0.804
71104W        W34872  13.208   1.917   0.414
71105W        W34873  41.494  41.532   2.305
71106W        W34874  27.587   0.406   0.391
71107W        W34875  36.588  19.177  11.985
71108W        W34876  35.100   0.876   4.245
71109W        W34877  28.461   1.260   3.177
71110W        W34878   5.809  21.048   4.826
71111W        W34879  33.562  33.409  10.095
71112W        W34880  20.741  18.092  14.309
71113W        W34881   1.881   1.948   1.902
71114W        W34882  28.586  31.107   1.337
71115W        W34883  42.474   0.893  13.906
71116W        W34884  19.577   7.198   3.187
71117W        W34885  21.157  38.560   2.683
71118W        W34886  24.110  28.945   2.688
71119W        W34887  39.991  21.641  14.936
71120W        W34888  36.055  26.638  14.373
71121W        W34889  20.621   0.431  11.062
71122W        W34890  43.982   1.822   1.904
71123W        W34891  42.382  31.942   3.670
71124W        W34892  17.075   7.385   2.870
71125W        W34893   0.850  29.526  11.411
71126W        W34894  17.165  35.392  14.476
71127W        W34895  41.926  31.628   1.805
71128W        W34896  30.493  41.538  14.898
71129W        W34897  25.685  33.402  14.482
71130W        W34898  10.164  43.008   1.371
71131W        W34899  16.182   2.433   3.803
71132W        W34900  41.797  17.068   2.820
71133W        W34901   9.667   5.776  12.066
71134W        W34902  27.971  43.285   0.275
71135W        W34903  39.025  35.576  14.481
71136W        W34904  44.444  36.903   4.673
71137W        W34905  39.984  31.638  13.514
71138W        W34906  27.571  19.702   2.691
71139W        W34907  27.149   9.873  14.828
71140W        W34908  24.517  41.332   3.292
71141W        W34909  34.557   2.438  10.609
71142W        W34910   3.389  26.049   2.388
71143W        W34911  10.367   8.831  12.992
71144W        W34912  30.579  43.490  14.953
71145W        W34913   8.815   5.761   0.853
71146W        W34914  10.308   7.289  11.917
71147W        W34915  38.853  31.468   5.098
71148W        W34916  11.771  13.223  10.093
71149W        W34917  17.559  12.640   0.939
71150W        W34918  14.141  29.067  13.343
71151W        W34919  13.305  27.594  10.460
71152W        W34920  23.554   3.360   4.640
71153W        W34921  16.671  14.184   0.776
71154W        W34922  37.953  40.500   0.374
71155W        W34923  44.795  11.202   1.332
71156W        W34924   6.891  44.444  12.002
71157W        W34925  27.664  39.405   1.732
71158W        W34926  22.078   2.794  12.388
71159W        W34927  15.179  22.664   1.359
71160W        W34928   9.697  40.822   0.794
71161W        W34929  33.578  30.972   2.234
71162W        W34930   6.744  37.963   1.883
71163W        W34931   8.332  35.053   0.457
71164W        W34932  20.582  42.809   0.782
71165W        W34933  31.443  13.241  14.370
71166W        W34934  35.497  20.650  10.614
71167W        W34935  13.743  35.034  14.782
71168W        W34936   0.791  19.592   9.941
71169W        W34937  19.773  35.578   0.375
71170W        W34938   6.871   6.277   4.313
71171W        W34939   6.300  14.214   0.770
71172W        W34940   1.732   1.913   0.268
71173W        W34941  40.482  42.891  12.473
71174W        W34942  41.899   9.741   3.783
71175W        W34943  27.191   8.189   4.325
71176W        W34944   2.866   5.915   2.340
71177W        W34945  15.814  40.459   2.277
71178W        W34946   5.333  35.926  14.829
71179W        W34947  28.027  43.297  12.509
71180W        W34948   8.879  12.268  12.029
71181W        W34949  40.483   8.729  11.013
71182W        W34950  18.656   3.229   3.629
71183W        W34951  13.275  28.045  12.970
71184W        W34952  15.120   1.315   1.705
71185W        W34953  20.652   0.409  13.060
71186W        W34954  20.577  33.426  14.430
71187W        W34955  32.068   0.375   3.649
71188W        W34956   9.787  41.430   4.268
71189W        W34957  32.941   1.324  12.995
71190W        W34958  36.430  41.866   3.844
71191W        W34959  32.514  24.563  14.792
71192W        W34960  10.138  22.698  14.479
71193W        W34961   0.796  16.182   4.654
71194W        W34962  16.628  15.296  14.429
71195W        W34963  13.690  37.871  11.407
71196W        W34964  15.770   7.403  11.080
71197W        W34965  22.157   7.671   4.212
71198W        W34966  32.554  28.586   1.326
71199W        W34967  42.009  15.815   2.262
71200W        W34968   7.249  10.215  10.636
71201W        W34969  39.391   5.838   4.693
71202W        W34970  38.002   0.442  10.988
71203W        W34971  21.136  17.065   3.804
71204W        W34972  33.936   3.799   1.395
71205W        W34973  25.055  24.514   2.726
71206W        W34974   1.327  11.837  13.446
71207W        W34975   8.283   7.369   3.694
71208W        W34976  21.702  41.367   0.726
71209W        W34977  39.898  31.077  13.922
71210W        W34978   5.436  23.587   1.311
71211W        W34979   3.763  28.553  14.925
71212W        W34980  24.718   2.414   0.730
71213W        W34981  43.809  27.068  13.034
71214W        W34982  19.591  37.875   0.940
71215W        W34983  26.965  31.935  14.972
71216W        W34984  25.682   3.460   1.299
71217W        W34985  25.116  17.086  13.514
71218W        W34986  19.546  37.340  12.526
71219W        W34987  44.926  29.089  14.312
71220W        W34988   5.257  13.633  13.885
71221W        W34989   6.718   4.352  10.471
71222W        W34990  12.246  13.331  10.993
71223W        W34991  40.379  35.860   3.157
71224W        W34992  27.493  41.896  12.376
71225W        W34993  28.168  36.577  11.409
71226W        W34994  43.488   5.913   4.232
71227W        W34995  15.710  16.641   1.254
71228W        W34996  22.725  38.443  14.297
71229W        W34997   0.356  29.987  11.493
71230W        W34998  22.231  25.510   1.388
71231W        W34999   2.452   8.768  14.394
71232W        W35000  36.395   7.842   0.340
71233W        W35001   3.733  25.097   0.775
71234W        W35002  34.410  15.642   4.717
71235W        W35003  37.375   0.981  11.453
71236W        W35004  40.950  44.429   4.833
71237W        W35005  16.792  16.681  11.476
71238W        W35006  43.969   4.444  13.411
71239W        W35007  13.123  21.670  10.617
71240W        W35008  13.708  35.574  10.639
71241W        W35009  20.746  25.113  14.006
71242W        W35010  12.199   2.760  12.940
71243W        W35011  36.482  24.134   4.205
71244W        W35012  19.171   0.434   0.335
71245W        W35013  11.696  34.569   0.254
71246W        W35014  40.997   9.756  13.500
71247W        W35015  17.599  11.661   3.804
71248W        W35016  36.479  41.041   1.260
71249W        W35017  32.034   2.386   0.757
71250W        W35018  39.551  12.632  13.804
71251W        W35019  17.578  10.809   1.310
71252W        W35020  38.031  19.224  13.827
71253W        W35021   8.249   2.388   3.785
71254W        W35022  32.095  41.360  11.965
71255W        W35023  16.712  19.564   1.854
71256W        W35024   2.466  27.188   4.663
71257W        W35025  25.080  14.619   2.281
71258W        W35026  10.253   2.232   3.785
71259W        W35027  40.889  38.365  11.933
71260W        W35028  24.125  24.005  10.426
71261W        W35029  12.720  10.702   0.840
71262W        W35030  42.818   6.890   0.749
71263W        W35031  39.552  37.338  12.028
71264W        W35032   4.291  31.614   3.276
71265W        W35033  35.370  31.000  13.989
71266W        W35034   6.345  36.861  10.596
71267W        W35035   8.783  21.090  13.418
71268W        W35036  26.118   6.787  10.915
71269W        W35037  23.049  17.248  12.438
71270W        W35038  26.961  17.570   2.892
71271W        W35039  33.062  17.158   1.401
71272W        W35040  17.670  29.617   1.431
71273W        W35041  18.291  19.655  11.610
71274W        W35042  44.838  12.152   0.383
71275W        W35043   9.848   2.428  12.986
71276W        W35044   5.428  30.434  12.390
71277W        W35045  43.343  43.001   1.734
71278W        W35046  31.991  15.609  14.985
71279W        W35047  27.975  29.546   0.401
71280W        W35048   1.325   7.247   3.710
71281W        W35049  13.175  40.863  11.964
71282W        W35050  42.506  42.826  13.443
71283W        W35051  42.795  40.879  14.378
71284W        W35052  43.818  12.813  12.396
71285W        W35053  40.968  44.886  13.042
71286W        W35054  42.498   2.782  12.370
71287W        W35055  21.178  33.904   2.293
71288W        W35056   1.969  31.490  13.048
71289W        W35057  10.684  27.055   3.647
71290W        W35058  11.794  26.484   2.760
71291W        W35059  24.135  33.443   4.282
71292W        W35060  41.867  38.864  10.479
71293W        W35061  44.940   8.799  14.808
71294W        W35062  28.174  15.718   5.235
71295W        W35063  18.081  28.064   0.480
71296W        W35064  24.042  29.563   1.214
71297W        W35065  34.568  12.139   4.163
71298W        W35066  43.511  34.577   2.841
71299W        W35067  40.384   8.291  10.086
71300W        W35068  29.660  12.762  11.550
71301W        W35069  37.864  38.532   2.259
71302W        W35070  22.673  43.405   2.816
71303W        W35071   0.352   4.364  11.102
71304W        W35072   5.851   2.830  10.587
71305W        W35073  13.810  18.613  13.397
71306W        W35074   7.300  42.016   4.606
71307W        W35075  17.178  33.088   3.216
71308W        W35076  16.693   1.779  14.802
71309W        W35077   2.252  43.866  14.468
71310W        W35078  15.754  40.510   1.297
71311W        W35079  25.485  38.001  12.832
71312W        W35080  31.982  32.990   4.707
71313W        W35081  21.658   4.817   0.479
71314W        W35082  15.698  16.080   1.783
71315W        W35083  18.750  23.108   4.175
71316W        W35084   1.385   6.822   2.713
71317W        W35085  31.464  27.596   0.958
71318W        W35086  34.509  24.034  12.405
71319W        W35087  16.763  32.434  14.502
71320W        W35088  23.103   0.285  13.543
71321W        W35089  28.557  30.537  10.417
71322W        W35090  23.078  13.145   3.176
71323W        W35091  30.137  27.452   2.771
71324W        W35092   2.955  32.021   1.275
71325W        W35093  13.739  17.102   9.954
71326W        W35094   8.273  26.701  11.029
71327W        W35095  12.834  40.521  14.917
71328W        W35096  41.016   9.333  14.973
71329W        W35097   5.706  32.029   1.449
71330W        W35098  38.412  18.644   4.735
71331W        W35099  30.153  14.127   1.771
71332W        W35100  19.198  13.814  10.976
71333W        W35101  18.283  38.910  10.587
71334W        W35102   8.225  24.171   3.283
71335W        W35103  14.806   5.810   1.757
71336W        W35104  39.902   1.325   0.447
71337W        W35105  19.130   5.741   3.327
71338W        W35106  32.442   5.777   2.341
71339W        W35107  40.834   1.250  12.945
71340W        W35108  27.119  19.605   3.789
71341W        W35109  37.891  15.155   1.222
71342W        W35110   0.338  10.847  12.095
71343W        W35111  12.613   0.930  10.601
71344W        W35112   1.970  42.377   2.688
71345W        W35113  16.112   8.805   0.908
71346W        W35114  24.990  41.934   4.277
71347W        W35115   0.352  29.440   0.375
71348W        W35116  25.615  39.811  13.974
71349W        W35117   1.744  10.865   4.601
71350W        W35118  12.713   8.348  11.494
71351W        W35119  39.846   5.194  11.869
71352W        W35120   6.823  31.029  12.571
71353W        W35121  33.012  42.320  11.482
71354W        W35122  43.858  10.808  14.367
71355W        W35123  32.397  37.922   1.423
71356W        W35124   9.349  28.436   3.312
71357W        W35125  22.702  28.037  10.138
71358W        W35126   4.902  17.607   1.711
71359W        W35127  13.250  11.795  14.437
71360W        W35128  11.865  11.270  11.008
71361W        W35129  30.988  40.841  13.061
71362W        W35130  39.559  42.395   1.230
71363W        W35131  28.495   9.156   4.199
71364W        W35132  24.645  43.848  13.891
71365W        W35133  22.528   1.940  12.082
71366W        W35134  29.447   3.947   1.925
71367W        W35135  29.458  32.568  14.910
71368W        W35136   9.336  15.097   1.302
71369W        W35137  34.554  43.824   2.416
71370W        W35138  36.436  37.015   0.736
71371W        W35139  25.157   3.439   4.292
71372W        W35140  12.189   9.292   3.349
71373W        W35141  17.744  23.121  11.905
71374W        W35142  12.184   9.220   0.399
71375W        W35143  39.479  16.080  13.496
71376W        W35144   7.212  25.114  13.982
71377W        W35145   6.223  22.101   4.808
71378W        W35146   1.469  17.729  12.499
71379W        W35147  22.514  20.578   0.751
71380W        W35148   2.313  33.510  11.927
71381W        W35149   0.391  31.107   2.269
71382W        W35150  29.099   9.840  13.000
71383W        W35151  33.571   2.752   2.899
71384W        W35152  30.646  44.949   3.768
71385W        W35153  44.288  13.200  12.352
71386W        W35154  31.107  14.142   1.934
71387W        W35155  17.709  44.877  12.464
71388W        W35156  16.093  25.052  13.517
71389W        W35157   5.266  34.115   1.381
71390W        W35158  13.253   0.892   0.732
71391W        W35159  36.912  20.208  14.932
71392W        W35160  43.278  12.263  12.827
71393W        W35161  32.476  43.878   4.139
71394W        W35162  17.293   0.772   2.244
71395W        W35163  34.583  28.085  12.547
71396W        W35164  35.521  36.574   1.784
71397W        W35165   3.889   1.971   4.661
71398W        W35166  14.200  41.815   0.472
71399W        W35167  26.068  26.059  14.988
71400W        W35168  28.046  11.315  11.927
71401W        W35169   7.295  23.572  11.964
71402W        W35170  23.512  39.346  12.544
71403W        W35171  14.259  33.090  11.127
71404W        W35172  26.036   4.825   4.243
71405W        W35173  37.525  35.529   4.636
71406W        W35174  44.484  15.225  14.908
71407W        W35175   5.923  29.498   4.697
71408W        W35176  42.861  22.560   1.934
71409W        W35177  37.374  34.053  12.866
71410W        W35178  19.207  19.220   1.707
71411W        W35179   2.256  19.063  14.019
71412W        W35180  36.962  40.506  11.966
71413W        W35181  12.144  32.586  10.461
71414W        W35182   0.471  28.954   0.301
71415W        W35183   9.199  13.828  13.492
71416W        W35184  30.626  43.999   0.387
71417W        W35185  35.373   5.853   0.778
71418W        W35186  34.078  38.036   2.301
71419W        W35187  32.393  23.033   1.751
71420W        W35188  18.725  35.934   1.698
71421W        W35189   1.777  34.997  12.876
71422W        W35190  34.060   5.787  12.986
71423W        W35191  23.196  40.549  12.069
71424W        W35192  39.970  23.240   3.766
71425W        W35193  37.996  18.605  12.832
71426W        W35194   3.328  41.965   3.635
71427W        W35195   2.335  19.717   2.737
71428W        W35196  24.028  22.056   2.242
71429W        W35197   3.939  18.124   3.699
71430W        W35198   7.381  23.198  11.947
71431W        W35199  25.503   8.874   4.797
71432W        W35200  15.780  18.128   3.235
71433W        W35201  12.670  13.753   2.253
71434W        W35202  21.081   7.759  12.429
71435W        W35203  38.507  44.892  11.942
71436W        W35204  43.410  17.660  14.966
71437W        W35205   9.319  25.603  13.885
71438W        W35206  35.974  21.592   0.352
71439W        W35207  30.042  26.475   0.758
71440W        W35208  16.752  31.948   3.714
71441W        W35209  16.131  43.972   0.912
71442W        W35210   6.297  10.227  10.414
71443W        W35211   5.417   0.870  12.520
71444W        W35212  29.075  12.224  10.591
71445W        W35213  12.657   4.841   2.721
71446W        W35214  20.204  36.006  10.949
71447W        W35215  21.223  33.538  12.940
71448W        W35216  41.840  42.869  12.923
71449W        W35217   5.879  23.056   3.285
71450W        W35218   0.952   3.861  11.113
71451W        W35219  32.554  21.032  10.985
71452W        W35220  18.205   0.307   0.835
71453W        W35221  16.298  40.358   0.377
71454W        W35222  23.493  17.065   0.946
71455W        W35223  24.060  34.536  14.805
71456W        W35224  28.570   7.903   1.845
71457W        W35225  18.764  32.108   0.403
71458W        W35226  22.178  28.160  14.845
71459W        W35227   7.835  37.480  10.616
71460W        W35228  32.560   3.267   0.330
71461W        W35229  37.390  38.899  11.551
71462W        W35230  33.875  12.771  13.445
71463W        W35231  10.773  34.438  13.324
71464W        W35232  22.115   2.750   4.774
71465W        W35233  16.766  26.092  14.369
71466W        W35234  37.379  20.108   2.750
71467W        W35235  14.820   5.393  11.609
71468W        W35236  19.567  28.003   1.242
71469W        W35237  38.998   3.889   0.782
71470W        W35238  44.309  20.173  14.774
71471W        W35239  12.308  15.229  13.008
71472W        W35240  38.505  32.114  11.911
71473W        W35241  19.058  25.629  13.845
71474W        W35242  11.234   8.714   2.353
71475W        W35243  29.977  43.465  12.028
71476W        W35244  29.118  40.014  11.052
71477W        W35245   4.277   1.917  11.077
71478W        W35246  24.653  21.204  10.562
71479W        W35247  29.656  19.569  13.450
71480W        W35248  10.704  44.484   3.259
71481W        W35249  14.139   8.787   0.398
71482W        W35250  26.200  11.748   3.296
71483W        W35251   8.364  33.030  14.896
71484W        W35252   4.776  44.899   4.337
71485W        W35253  15.714   7.850  12.431
71486W        W35254  17.272   5.309  14.893
71487W        W35255   4.407  19.059  12.414
71488W        W35256  18.097  21.091   9.931
71489W        W35257   7.817  41.498  13.394
71490W        W35258  11.756  29.651   1.444
71491W        W35259  34.100  15.823   4.169
71492W        W35260   3.767  15.136  13.016
71493W        W35261  38.968  14.683   2.231
71494W        W35262  41.491  40.894  14.469
71495W        W35263  32.918   2.813  13.999
71496W        W35264  22.714  17.286  11.961
71497W        W35265  37.952  37.506   3.699
71498W        W35266  26.191  21.062   4.715
71499W        W35267   7.728  23.660  12.470
71500W        W35268  30.555   4.301   0.378
71501W        W35269  15.216  35.867  10.928
71502W        W35270  34.489  15.220   1.276
71503W        W35271  39.907  10.668   0.834
71504W        W35272  42.433  26.042  12.562
71505W        W35273   3.726  16.167   2.827
71506W        W35274   8.757   4.793   5.155
71507W        W35275  10.351   0.971  14.460
71508W        W35276  32.411  11.232  14.878
71509W        W35277  42.484  32.524   1.313
71510W        W35278  39.340  13.199   2.268
71511W        W35279  42.018  40.004  14.285
71512W        W35280  18.210   6.700   2.368
71513W        W35281  37.577   9.692  11.005
71514W        W35282  37.551  13.315   1.931
71515W        W35283  14.748  17.219  13.461
71516W        W35284  24.628  20.241  14.793
71517W        W35285  24.540   4.790  12.488
71518W        W35286  26.630  44.942  13.030
71519W        W35287  34.546  30.012  13.030
71520W        W35288  37.456  40.013   1.377
71521W        W35289  15.793  35.570   0.287
71522W        W35290  36.949   4.796  11.106
71523W        W35291  32.579   0.936   2.357
71524W        W35292  27.516   8.262  12.569
71525W        W35293  38.400   3.778   1.239
71526W        W35294  38.474  14.628   0.378
71527W        W35295   1.966  43.491  11.546
71528W        W35296  27.656  38.975  11.115
71529W        W35297  40.332   0.474  14.495
71530W        W35298  29.577  16.175  11.915
71531W        W35299  12.296  15.100   9.931
71532W        W35300  31.975  41.018  10.926
71533W        W35301  40.913  41.921   3.852
71534W        W35302  37.480   0.278   4.601
71535W        W35303  32.973  12.835  10.949
71536W        W35304  11.776  23.179   0.883
71537W        W35305  21.685  15.672   3.788
71538W        W35306  38.341  42.307   2.703
71539W        W35307   0.940  31.136  13.377
71540W        W35308  44.760  41.895  12.924
71541W        W35309  12.322  42.520   2.822
71542W        W35310  41.478  32.919   1.406
71543W        W35311  26.572  32.081   2.748
71544W        W35312  20.609  12.191  10.628
71545W        W35313  18.647  44.906  13.385
71546W        W35314   1.821  22.702  12.377
71547W        W35315   9.373  43.949  14.011
71548W        W35316  14.773  21.085  14.938
71549W        W35317  35.372  10.801   3.233
71550W        W35318  38.525  22.546  11.375
71551W        W35319  38.393  20.699  11.068
71552W        W35320  42.341  29.023  12.347
71553W        W35321  15.175   6.822  10.409
71554W        W35322  40.038  23.580  11.462
71555W        W35323  19.268  33.529   3.343
71556W        W35324   4.285  20.551  13.885
71557W        W35325  19.204  14.698  12.915
71558W        W35326   9.206  20.612  13.358
71559W        W35327   2.266  38.982   1.410
71560W        W35328  42.007  32.910   2.310
71561W        W35329  18.215  37.446   2.246
71562W        W35330  14.225  44.421  12.454
71563W        W35331  44.372  37.564   2.806
71564W        W35332  16.568   8.708   3.677
71565W        W35333  42.785  28.450   2.360
71566W        W35334  31.081  22.551   3.785
71567W        W35335   1.320  29.448  11.572
71568W        W35336  18.699   3.279   4.836
71569W        W35337   3.446  29.595  13.838
71570W        W35338  44.295  44.001  12.906
71571W        W35339  34.453  15.239  10.923
71572W        W35340  19.210  33.544   0.374
71573W        W35341  26.160  11.131  14.011
71574W        W35342  40.965  42.026   0.257
71575W        W35343   7.746  12.818  14.509
71576W        W35344  36.559  33.460   0.376
71577W        W35345   9.743  10.792   4.717
71578W        W35346  34.024  10.345   3.364
71579W        W35347  41.976   3.274  10.424
71580W        W35348  29.985  41.984   0.265
71581W        W35349   8.285  15.258  12.011
71582W        W35350  24.510  13.328  10.980
71583W        W35351   6.340  43.376   3.748
71584W        W35352   6.244  25.597  14.506
71585W        W35353   0.401  33.884  10.434
71586W        W35354  19.237  35.527   5.119
71587W        W35355  26.201  39.482  14.891
71588W        W35356  31.623   2.345  12.829
71589W        W35357  27.126   4.881   0.418
71590W        W35358   3.927  40.991  12.090
71591W        W35359  27.619   4.745  13.332
71592W        W35360  26.041  17.062  13.893
71593W        W35361  32.999  16.249  14.911
71594W        W35362   3.770  14.768  10.591
71595W        W35363  42.838  39.345  13.995
71596W        W35364  14.147   3.798   4.750
71597W        W35365  32.965  36.505  14.772
71598W        W35366  42.777  18.621  13.924
71599W        W35367  21.216   7.805   2.760
71600W        W35368  33.911  28.102   4.666
71601W        W35369  27.154  12.269   4.339
71602W        W35370  16.240   5.819  12.431
71603W        W35371   6.836  25.518  10.612
71604W        W35372  35.538   1.441  10.504
71605W        W35373  13.759  19.661   0.407
71606W        W35374  20.550  44.795   2.703
71607W        W35375  22.573  17.210  12.508
71608W        W35376   9.871  15.588  14.958
71609W        W35377   2.405   6.376  12.956
71610W        W35378  41.008  12.625   3.741
71611W        W35379   7.732  39.556   0.876
71612W        W35380  29.040   2.323   3.328
71613W        W35381  32.477  11.643   2.346
71614W        W35382  30.490  10.719  13.363
71615W        W35383  44.320  43.801  11.987
71616W        W35384  43.326  35.511  14.804
71617W        W35385   3.942  36.591   2.363
71618W        W35386   6.779  12.247   1.423
71619W        W35387  43.965  32.485  12.908
71620W        W35388  31.429   5.816   3.217
71621W        W35389  13.797  31.631   2.249
71622W        W35390  41.313  20.769   2.746
71623W        W35391  40.305   6.213  10.533
71624W        W35392  35.539   2.455  12.913
71625W        W35393  19.143  38.326   1.342
71626W        W35394  17.244  24.522   3.197
71627W        W35395  17.198   4.376  14.002
71628W        W35396  29.571   3.272   2.232
71629W        W35397  20.736  28.445   1.374
71630W        W35398   8.703  15.108  12.081
71631W        W35399   2.746  19.183   4.830
71632W        W35400  30.157  17.091   3.182
71633W        W35401  43.014  19.161   3.680
71634W        W35402  10.326  25.620   2.294
71635W        W35403  29.534  17.699   3.343
71636W        W35404   6.796  42.017  11.945
71637W        W35405  20.067   6.398   1.335
71638W        W35406  37.938  38.337  13.960
71639W        W35407   8.675  20.644   2.720
71640W        W35408   7.289   5.856  10.593
71641W        W35409   9.816  22.705  13.372
71642W        W35410   7.249   3.457   3.145
71643W        W35411   9.309   1.383   1.350
71644W        W35412  44.924  35.423  11.070
71645W        W35413  39.363  36.486   4.817
71646W        W35414  41.346  25.991   2.759
71647W        W35415  28.167  40.993   3.870
71648W        W35416  37.935  10.175  10.910
71649W        W35417  39.456  40.466  12.066
71650W        W35418   3.843  24.528  13.419
71651W        W35419  28.607  31.145   2.270
71652W        W35420   4.910  39.950   2.782
71653W        W35421  13.717  24.986  10.640
71654W        W35422  27.102  40.526   1.375
71655W        W35423  14.307  25.687  14.460
71656W        W35424   4.775  39.503   0.750
71657W        W35425  34.891   4.745  11.515
71658W        W35426   7.767  10.715   2.733
71659W        W35427  39.485  27.601   0.329
71660W        W35428   5.391  40.798   0.931
71661W        W35429  21.578  23.149   4.667
71662W        W35430  18.062  14.739   0.468
71663W        W35431   5.334   5.894   4.814
71664W        W35432  33.385  24.601   3.156
71665W        W35433  43.001  11.222  12.096
71666W        W35434  15.783  14.790  12.385
71667W        W35435   6.842  16.112  13.880
71668W        W35436   9.181   5.395  12.029
71669W        W35437  24.022  11.156  11.578
71670W        W35438  10.669  24.616   4.235
71671W        W35439   4.342   0.487  12.858
71672W        W35440  42.949   7.247  12.984
71673W        W35441  32.892  24.696   0.263
71674W        W35442  14.209  25.076   0.370
71675W        W35443  35.937  12.313  10.472
71676W        W35444  26.471   8.698   2.755
71677W        W35445  12.270  10.759   0.463
71678W        W35446  38.536  36.964   0.331
71679W        W35447   4.240  25.530   3.386
71680W        W35448  32.011  11.347  11.902
71681W        W35449  20.565  38.432   1.831
71682W        W35450  26.522  22.718   3.385
71683W        W35451  35.861   4.874   1.838
71684W        W35452  28.082  33.616  13.979
71685W        W35453  37.993  44.427   3.155
71686W        W35454  11.776  30.455   2.803
71687W        W35455  30.966  22.997   1.860
71688W        W35456   3.885   7.404  10.480
71689W        W35457  23.623  16.608   4.167
71690W        W35458   1.442  10.749  11.394
71691W        W35459  39.052  25.667  14.412
71692W        W35460  24.009  30.038   4.139
71693W        W35461  10.264  27.610  11.397
71694W        W35462   0.292  19.282   4.305
71695W        W35463  41.488  39.016   3.699
71696W        W35464  32.944   8.236   3.327
71697W        W35465  42.998  33.939  13.856
71698W        W35466  29.554  15.654  14.305
71699W        W35467   4.730  13.239   2.899
71700W        W35468  11.345  13.239   0.335
71701W        W35469   3.295   0.774  10.561
71702W        W35470  19.535   2.953   3.303
71703W        W35471  11.646  22.511  11.990
71704W        W35472  37.507  37.418  13.941
71705W        W35473  35.020  19.111   0.364
71706W        W35474  41.484  19.762  12.905
71707W        W35475  34.421   4.791  14.922
71708W        W35476  24.661   6.368  13.035
71709W        W35477   9.297  32.092   0.257
71710W        W35478   4.730  36.858   2.836
71711W        W35479   9.284  11.747  11.381
71712W        W35480  26.207  40.349  12.353
71713W        W35481  33.096   0.471  12.076
71714W        W35482  18.119  42.869  11.996
71715W        W35483  24.220  40.817  10.956
71716W        W35484  27.079  12.641  12.547
71717W        W35485  23.123  10.707  10.406
71718W        W35486   6.401  22.580   0.734
71719W        W35487  36.570   1.911  11.031
71720W        W35488  22.721  14.230  13.504
71721W        W35489  40.490   9.890  11.069
71722W        W35490   6.820  43.342  14.781
71723W        W35491  18.562  12.743  12.421
71724W        W35492   7.883  13.266   0.243
71725W        W35493   6.259  21.027  11.997
71726W        W35494  31.920  34.013   4.320
71727W        W35495  11.656  35.558  12.863
71728W        W35496  24.700  27.949   0.894
71729W        W35497  23.644  22.540   0.380
71730W        W35498  29.604   1.951   1.839
71731W        W35499  26.573  26.515   0.737
71732W        W35500  25.038   6.301   3.823
71733W        W35501  37.840  31.564   2.806
71734W        W35502  34.514  26.527  11.397
71735W        W35503  18.113  20.733  13.339
71736W        W35504  32.413  35.942  13.382
71737W        W35505  37.935   1.889   2.244
71738W        W35506  43.369   9.212   2.324
71739W        W35507  39.346  20.744   1.792
71740W        W35508  28.954  32.633   1.890
71741W        W35509  22.082  19.121   3.761
71742W        W35510  12.236  36.394  12.853
71743W        W35511   0.255  22.181  12.884
71744W        W35512  10.848   7.221  11.035
71745W        W35513  34.475  41.018   0.340
71746W        W35514  42.903   1.475   2.246
71747W        W35515   2.323  15.688   2.263
71748W        W35516  27.670  38.870   0.865
71749W        W35517  38.491  21.166  14.355
71750W        W35518  44.428  33.892   3.165
71751W        W35519  10.339  13.196   1.850
71752W        W35520  31.985   7.863   4.686
71753W        W35521  22.149  25.653   4.155
71754W        W35522  14.337  18.545  13.438
71755W        W35523  23.518   1.260   1.232
71756W        W35524  40.874  21.534  11.116
71757W        W35525   7.243  31.066   0.335
71758W        W35526   7.176  15.684   3.298
71759W        W35527  13.634  22.550  14.830
71760W        W35528  33.901  21.164  10.939
71761W        W35529   4.704  30.625   3.730
71762W        W35530   4.809  29.510  13.943
71763W        W35531  12.853  13.204  14.853
71764W        W35532  11.319  23.640  13.945
71765W        W35533  32.535   5.698   2.752
71766W        W35534   0.859  39.829   3.830
71767W        W35535  14.772  16.633   0.390
71768W        W35536   5.810  30.443   0.479
71769W        W35537   0.429  10.343   4.164
71770W        W35538  44.805  23.130  14.396
71771W        W35539  27.522  29.980  13.875
71772W        W35540  43.964   6.198   0.345
71773W        W35541   9.338  24.649  13.377
71774W        W35542  40.494  42.416   3.267
71775W        W35543  30.123  42.820   2.866
71776W        W35544  34.008  32.431   2.852
71777W        W35545  37.360  13.673  13.960
71778W        W35546  12.711  14.759   3.732
71779W        W35547   2.320  33.023  11.860
71780W        W35548  26.113   7.678   1.336
71781W        W35549  31.631  42.465  14.455
71782W        W35550  37.571   2.755   3.724
71783W        W35551  26.654  39.820  10.893
71784W        W35552  29.041  32.114  14.927
71785W        W35553   1.748  16.111  14.972
71786W        W35554  28.116  39.350  11.040
71787W        W35555   9.282   4.865  13.029
71788W        W35556  39.391  15.238  10.431
71789W        W35557  27.675  18.175  12.383
71790W        W35558  39.495   6.818  13.938
71791W        W35559   8.754   4.890   0.960
71792W        W35560  22.196  18.775   0.390
71793W        W35561  15.275  15.231  11.887
71794W        W35562  32.511   6.734   1.427
71795W        W35563  40.465  39.448   4.757
71796W        W35564  20.763  22.535  13.802
71797W        W35565   0.342  27.053   0.936
71798W        W35566  40.519  27.017  14.027
71799W        W35567  24.593  22.160   4.784
71800W        W35568  19.599   4.821  14.420
71801W        W35569  29.947  14.618   0.766
71802W        W35570   4.742  19.774  12.992
71803W        W35571   3.809  26.200   3.643
71804W        W35572   0.829  25.559  12.054
71805W        W35573  14.766  28.960   1.855
71806W        W35574   4.887  22.062   4.783
71807W        W35575   8.840  18.054   0.384
71808W        W35576  27.516  31.566  10.531
71809W        W35577   2.907  32.102   3.675
71810W        W35578  14.198  28.111   3.171
71811W        W35579  39.915   7.779   4.332
71812W        W35580   8.657  30.511   0.887
71813W        W35581  34.523   9.248  11.049
71814W        W35582  37.081  32.626  14.441
71815W        W35583  43.343   1.252  11.402
71816W        W35584   5.888  15.709  11.122
71817W        W35585  21.069   2.428   0.813
71818W        W35586  38.853  24.663  13.938
71819W        W35587  34.976  18.789   9.511
71820W        W35588   5.734  42.398  14.469
71821W        W35589   3.216  31.633   1.354
71822W        W35590  23.041   1.452  13.503
71823W        W35591   9.780  16.677   1.734
71824W        W35592  43.880  41.498   2.721
71825W        W35593  41.004   9.157   1.222
71826W        W35594   6.844   0.915   2.690
71827W        W35595  17.684   7.866   0.440
71828W        W35596   5.278  21.652   3.754
71829W        W35597  24.495  16.193  13.023
71830W        W35598  40.434  18.154   4.300
71831W        W35599  37.922  40.815   3.379
71832W        W35600   1.768  22.154  14.903
71833W        W35601  34.087  27.562  10.563
71834W        W35602  11.676  23.664  11.470
71835W        W35603   5.359  44.934  12.029
71836W        W35604  30.539  23.660  13.970
71837W        W35605  29.665  25.198  14.406
71838W        W35606   9.296   3.891   4.685
71839W        W35607  18.053  42.506   0.300
71840W        W35608  20.728  22.077  14.455
71841W        W35609  26.652   7.693   4.769
71842W        W35610  14.725  34.912   1.344
71843W        W35611  11.815  23.086   4.757
71844W        W35612  13.272  18.133  11.013
71845W        W35613  41.533  30.953   1.717
71846W        W35614   7.833  26.074   2.773
71847W        W35615  33.559  35.477  10.928
71848W        W35616  36.891  31.508  14.452
71849W        W35617  29.995  40.546   2.301
71850W        W35618   9.664  20.689   2.297
71851W        W35619  27.500  14.189  12.037
71852W        W35620  28.505   8.389   1.404
71853W        W35621  40.322  25.635   2.872
71854W        W35622  29.966  10.372  12.470
71855W        W35623  18.087  42.969  14.929
71856W        W35624  36.427  42.943  10.572
71857W        W35625  38.443  28.081  11.443
71858W        W35626  22.669   3.273   0.832
71859W        W35627  15.589  34.541   1.417
71860W        W35628  18.751   9.648  11.440
71861W        W35629   9.198  24.112   2.320
71862W        W35630  35.918  41.927  12.560
71863W        W35631  18.258  41.851  13.863
71864W        W35632  18.238  12.685  13.939
71865W        W35633   1.381  29.921  11.580
71866W        W35634  13.715  40.418  11.423
71867W        W35635  11.373   1.343   3.273
71868W        W35636   4.867   8.685  12.878
71869W        W35637  37.549  11.269  13.015
71870W        W35638   5.895  14.743  14.377
71871W        W35639  44.813   7.882  10.536
71872W        W35640  39.488  42.982   1.800
71873W        W35641  26.048  41.808  14.402
71874W        W35642  21.107  36.421   1.382
71875W        W35643   4.433  29.149   2.401
71876W        W35644  37.985  24.605  13.950
71877W        W35645  16.691  16.704  14.447
71878W        W35646  20.720  15.605   3.196
71879W        W35647  19.082  30.040   5.679
71880W        W35648  28.480   2.950   0.373
71881W        W35649  10.872  21.077   2.355
71882W        W35650   7.720  18.715   3.340
71883W        W35651  12.810  21.630   3.838
71884W        W35652  19.217  43.866   3.261
71885W        W35653  42.833   6.319   3.817
71886W        W35654  33.119  26.460  11.562
71887W        W35655  44.418  33.097   4.731
71888W        W35656  23.030  36.513  11.054
71889W        W35657  26.066  10.371  12.940
71890W        W35658  22.739  18.656   4.826
71891W        W35659   9.321  34.884  14.992
71892W        W35660  28.115  25.982  10.896
71893W        W35661  30.126  14.113   3.205
71894W        W35662  12.808  28.052   0.909
71895W        W35663  27.666  31.471   1.427
71896W        W35664  35.048   3.914  13.977
71897W        W35665   6.807  28.990   0.951
71898W        W35666  38.939  27.187  12.083
71899W        W35667   8.244  39.550  10.940
71900W        W35668   1.349  16.623   2.330
71901W        W35669   1.914   1.422   0.422
71902W        W35670  32.032  28.935  10.973
71903W        W35671  43.010  29.943   1.446
71904W        W35672   2.328   3.299  13.424
71905W        W35673   3.735   8.274  12.921
71906W        W35674  43.449  18.565  12.877
71907W        W35675  26.182  39.323  13.852
71908W        W35676   0.886  38.546  11.388
71909W        W35677  12.163   1.814  14.973
71910W        W35678  36.441   6.220  11.513
71911W        W35679  35.593   7.193   1.430
71912W        W35680  18.746  17.120   2.795
71913W        W35681  42.305  26.127   1.873
71914W        W35682  11.138  29.967  11.972
71915W        W35683   2.301  41.855  14.799
71916W        W35684  30.068   3.353  11.121
71917W        W35685  36.912   6.916   0.759
71918W        W35686  25.498  31.094  14.337
71919W        W35687   4.830  39.508   2.684
71920W        W35688  11.810   1.446  14.451
71921W        W35689  22.569  32.519  13.904
71922W        W35690  36.899  16.218  11.536
71923W        W35691  21.250  20.623   3.831
71924W        W35692   4.345  24.542   0.263
71925W        W35693  37.867  23.729  14.325
71926W        W35694  13.679  25.009  13.496
71927W        W35695  33.611  12.807   4.721
71928W        W35696  21.163  41.011  12.498
71929W        W35697  13.327  31.429   3.240
71930W        W35698  44.408  34.378  10.600
71931W        W35699  36.912  39.337   0.833
71932W        W35700  28.141  20.093   0.458
71933W        W35701   4.752  11.283   3.195
71934W        W35702  36.055  24.136   1.396
71935W        W35703  13.797  43.280   4.134
71936W        W35704  23.550  17.678  11.527
71937W        W35705   0.398   7.361  10.999
71938W        W35706  32.605   1.464  10.436
71939W        W35707  11.765  42.325   1.798
71940W        W35708  40.450  35.597  14.776
71941W        W35709  30.019  38.411   1.244
71942W        W35710  11.637   4.838   2.323
71943W        W35711  23.164  38.892  11.862
71944W        W35712  34.429   9.390  14.838
71945W        W35713  37.012  23.178   0.280
71946W        W35714  32.609  23.079  11.934
71947W        W35715  43.915  38.074   4.617
71948W        W35716  27.118   2.342  12.831
71949W        W35717  15.613  31.604   3.705
71950W        W35718  30.112  28.159   3.861
71951W        W35719  14.713  43.307   2.858
71952W        W35720  43.440   7.737  13.518
71953W        W35721   9.770  27.611  13.975
71954W        W35722  22.183   0.897   2.854
71955W        W35723  41.843   3.442  10.945
71956W        W35724   7.268   7.734  13.901
71957W        W35725  24.159   6.865   0.341
71958W        W35726   7.268  26.680  11.969
71959W        W35727  19.760  17.714   0.799
71960W        W35728  18.083  19.605  14.796
71961W        W35729   5.378  31.561  14.346
71962W        W35730  40.805   6.805   4.710
71963W        W35731   0.292   8.341  10.957
71964W        W35732  41.527  29.982   3.652
71965W        W35733  19.682   8.660  13.462
71966W        W35734  11.818  18.176   4.798
71967W        W35735  17.652  24.666  11.478
71968W        W35736   3.401  31.917  13.998
71969W        W35737  42.871  19.267  13.040
71970W        W35738  14.665  29.960   0.949
71971W        W35739  11.795  15.616   3.688
71972W        W35740   5.771  16.270   3.829
71973W        W35741   4.311  34.101  11.426
71974W        W35742  10.356  44.942  11.550
71975W        W35743   9.351   7.751  11.887
71976W        W35744   4.372   0.751   2.233
71977W        W35745  13.682  28.077   1.422
71978W        W35746  20.639  34.395   0.846
71979W        W35747  18.243   1.866   2.415
71980W        W35748  22.582   5.882  10.501
71981W        W35749   8.817   7.309   1.774
71982W        W35750   4.369   9.228  11.079
71983W        W35751  12.825   8.186   4.689
71984W        W35752  25.669  16.780  10.636
71985W        W35753   4.388   9.838   1.324
71986W        W35754   1.395   7.335   3.271
71987W        W35755  14.119  15.253   4.627
71988W        W35756  13.272   6.863   4.132
71989W        W35757  18.612  30.454  10.106
71990W        W35758   0.419  23.630  11.084
71991W        W35759  43.989  39.817   3.222
71992W        W35760  35.972  15.268  12.409
71993W        W35761  10.300  15.758   0.461
71994W        W35762   0.320  14.708   3.306
71995W        W35763  23.674  44.384  14.907
71996W        W35764   6.183  43.012   0.294
71997W        W35765  17.102  38.012  10.579
71998W        W35766  43.512  29.636  10.601
71999W        W35767  11.862   5.702   2.854
72000W        W35768   9.391  37.002  12.492
72001W        W35769  12.278  12.715  13.370
72002W        W35770  22.544  30.043   1.298
72003W        W35771   2.433   4.939   2.890
72004W        W35772  34.465  17.716   1.241
72005W        W35773  40.429   7.771   5.254
72006W        W35774  15.195  34.487   0.247
72007W        W35775  10.161  44.997   2.378
72008W        W35776   9.371  30.000  13.875
72009W        W35777  15.262  12.304  13.052
72010W        W35778  14.239  21.207   0.892
72011W        W35779  26.111  27.607  10.471
72012W        W35780  18.267  12.268   2.276
72013W        W35781  30.647  10.203  11.899
72014W        W35782   9.872   0.278  12.938
72015W        W35783  40.372  24.534   0.912
72016W        W35784  12.314  13.717   3.758
72017W        W35785   1.872   0.411   1.417
72018W        W35786  11.244  23.595  14.853
72019W        W35787  37.464   6.888   9.958
72020W        W35788  13.249  14.788  10.091
72021W        W35789   5.300  36.574   2.251
72022W        W35790  44.896  21.071  13.876
72023W        W35791   8.663  22.221  11.942
72024W        W35792  30.475   2.822  13.517
72025W        W35793  41.932  33.087  13.054
72026W        W35794  27.626  11.834   4.129
72027W        W35795  30.003  26.077   2.804
72028W        W35796  39.340  35.080  11.914
72029W        W35797  44.361  27.195  11.390
72030W        W35798  11.859  44.380   1.230
72031W        W35799  26.564  23.575  11.980
72032W        W35800  14.270  37.831  11.468
72033W        W35801   8.862  23.112   1.337
72034W        W35802  29.049   6.736  14.418
72035W        W35803  22.519   3.896  13.320
72036W        W35804   9.301  40.548   2.311
72037W        W35805   8.171  20.190   4.625
72038W        W35806  31.526  30.030  12.861
72039W        W35807  35.040   8.720   4.743
72040W        W35808  20.065   7.821   1.259
72041W        W35809  26.458  12.664  12.970
72042W        W35810  16.249  31.526  12.061
72043W        W35811  21.162  23.674   2.827
72044W        W35812   1.467  29.618   3.762
72045W        W35813  34.553  39.882  12.861
72046W        W35814   1.815  19.685   1.701
72047W        W35815  32.425   8.395   2.270
72048W        W35816  16.248   2.835  14.792
72049W        W35817  15.201  44.295  14.287
72050W        W35818   9.295  30.950  10.978
72051W        W35819   4.814   6.329   0.272
72052W        W35820   5.354   4.209   3.826
72053W        W35821  41.948  29.551   4.717
72054W        W35822  22.706   5.227  10.641
72055W        W35823  40.878  13.202   0.436
72056W        W35824   6.223  25.075   2.357
72057W        W35825   7.209   4.357  14.928
72058W        W35826  10.154  34.013   5.140
72059W        W35827  20.717  42.395  11.609
72060W        W35828  21.705  29.583  12.930
72061W        W35829   0.756   7.362   4.152
72062W        W35830  38.943  11.373  11.865
72063W        W35831  44.310  33.926  10.964
72064W        W35832  28.180   9.173   4.201
72065W        W35833  15.627  35.042   3.844
72066W        W35834  25.522   2.920  11.057
72067W        W35835  42.363  26.650  14.372
72068W        W35836   0.460  41.880   2.889
72069W        W35837  32.576  34.428   1.839
72070W        W35838   3.740  10.657  13.495
72071W        W35839   9.174  37.512   4.802
72072W        W35840   4.884   0.789   3.272
72073W        W35841  41.527  33.520   3.193
72074W        W35842  10.852   9.721   1.324
72075W        W35843  23.061  24.084  14.811
72076W        W35844  21.728  31.644   4.733
72077W        W35845   0.471  38.535   2.308
72078W        W35846  29.125  11.829  12.061
72079W        W35847  44.833  33.587   2.388
72080W        W35848  28.554  43.505  12.484
72081W        W35849  26.480  26.112   3.683
72082W        W35850  40.366  25.108   1.234
72083W        W35851  18.620  12.687   4.695
72084W        W35852  26.082  44.486   4.271
72085W        W35853  12.284  35.011   1.918
72086W        W35854  36.456  20.595  13.386
72087W        W35855  21.518  34.939  10.416
72088W        W35856  38.838  25.121  14.855
72089W        W35857  16.186  37.453  10.612
72090W        W35858  42.799  33.886  11.504
72091W        W35859  10.186  11.363  10.999
72092W        W35860  37.980  36.020  12.877
72093W        W35861  43.301  22.077   3.356
72094W        W35862  31.917  35.929   0.762
72095W        W35863  44.809  27.038   2.880
72096W        W35864  13.113  36.557  11.863
72097W        W35865  16.736  29.144  14.443
72098W        W35866  10.837  20.732  12.508
72099W        W35867  42.445   1.459  14.485
72100W        W35868   7.706  43.866  10.595
72101W        W35869  25.640   4.231  14.475
72102W        W35870  34.933   1.321  14.810
72103W        W35871  13.617  16.074  13.793
72104W        W35872  14.690  33.881   1.292
72105W        W35873  23.178   6.885   2.835
72106W        W35874  23.229  10.700  14.408
72107W        W35875  34.078  26.086   2.724
72108W        W35876   7.902   9.823   1.935
72109W        W35877  38.956  12.124  13.312
72110W        W35878  10.187   8.739  10.446
72111W        W35879  19.662  26.668   3.200
72112W        W35880  21.052  18.094   1.854
72113W        W35881   3.849  32.634   3.671
72114W        W35882   6.409  18.126  13.912
72115W        W35883  32.427  21.123   0.406
72116W        W35884  21.576   8.300   1.317
72117W        W35885  30.637  31.077   1.302
72118W        W35886  15.271  24.676  14.863
72119W        W35887  37.391  26.069  12.990
72120W        W35888  25.592   3.234  12.464
72121W        W35889  18.158  34.950   4.663
72122W        W35890  14.622  41.822  13.817
72123W        W35891  20.081  19.573  13.872
72124W        W35892  38.567  20.040   3.755
72125W        W35893  42.932  15.199   2.884
72126W        W35894  14.830  27.063   4.630
72127W        W35895  16.185  14.703   4.786
72128W        W35896  33.033  22.226   0.859
72129W        W35897  10.682  34.446  11.503
72130W        W35898  30.030  18.660  12.447
72131W        W35899   2.450  39.386  13.807
72132W        W35900  42.894  20.550  14.016
72133W        W35901  40.411  20.720   1.363
72134W        W35902  32.086  27.591  10.043
72135W        W35903   9.870  22.601  14.891
72136W        W35904  39.506  36.394  12.085
72137W        W35905  42.983  21.110  11.429
72138W        W35906   4.360   4.280   2.217
72139W        W35907   7.892   3.267   1.840
72140W        W35908  12.157   9.866   0.274
72141W        W35909  13.222  22.162  13.878
72142W        W35910  37.553  35.400   2.361
72143W        W35911   5.792  29.964   0.259
72144W        W35912  27.096  33.131  12.082
72145W        W35913  35.557  36.474  13.367
72146W        W35914  32.477  28.131  12.489
72147W        W35915   2.797  17.225   0.868
72148W        W35916  29.522   7.324  10.135
72149W        W35917  21.200  33.963  13.488
72150W        W35918  25.681  18.659   0.424
72151W        W35919  24.111  34.488  13.840
72152W        W35920   3.911  27.675  13.957
72153W        W35921   1.867  32.603   0.939
72154W        W35922  44.293  40.417   0.919
72155W        W35923  13.131  34.525   4.679
72156W        W35924  44.353   6.684  11.051
72157W        W35925  19.702  38.042  13.532
72158W        W35926   5.858  41.000  13.891
72159W        W35927  25.120   2.299  10.994
72160W        W35928  21.059  26.496  10.599
72161W        W35929  42.013  19.585  13.472
72162W        W35930  34.527  30.596  12.372
72163W        W35931  35.106  32.439   4.648
72164W        W35932   3.955  44.995   1.239
72165W        W35933   4.759  27.187   2.242
72166W        W35934  24.677  44.817   4.767
72167W        W35935   4.313  29.109  14.940
72168W        W35936  36.411  23.189   3.777
72169W        W35937  21.162  13.275  12.952
72170W        W35938  19.099  13.192   3.633
72171W        W35939  15.312  15.172  13.532
72172W        W35940  12.811  42.804   4.343
72173W        W35941   8.232   2.871   1.820
72174W        W35942  31.139   4.218   4.269
72175W        W35943  26.100   0.853   3.266
72176W        W35944  16.196   6.385   1.409
72177W        W35945  36.844  42.327   4.206
72178W        W35946  28.969  37.893   3.715
72179W        W35947  42.298  16.204  10.525
72180W        W35948  27.598  14.188   2.323
72181W        W35949  22.118   6.710  14.368
72182W        W35950   1.932  37.953  10.419
72183W        W35951  33.922  26.997   1.385
72184W        W35952  22.110  36.481   0.316
72185W        W35953  12.673  34.040  12.512
72186W        W35954   5.903  39.366   0.475
72187W        W35955  36.010   4.738  10.899
72188W        W35956  26.065  20.649  10.996
72189W        W35957  17.763  33.598  14.307
72190W        W35958  29.047  36.389   0.412
72191W        W35959  12.222  14.627   1.886
72192W        W35960  41.480  23.585  12.446
72193W        W35961  25.045  42.008  14.889
72194W        W35962  18.657  28.975  10.085
72195W        W35963  13.341  23.733   3.276
72196W        W35964  23.505   2.412   2.664
72197W        W35965  28.592  22.053   2.411
72198W        W35966  24.556  29.111  10.561
72199W        W35967  41.881  16.764  12.923
72200W        W35968   4.839  21.257  13.799
72201W        W35969  41.393  24.002   2.852
72202W        W35970   1.294   4.811   3.773
72203W        W35971  30.624  14.703  13.815
72204W        W35972  35.542   8.292   4.655
72205W        W35973  33.956   0.478  13.419
72206W        W35974  22.519   7.892  12.474
72207W        W35975  28.107  31.927   2.414
72208W        W35976   4.352  12.697   3.208
72209W        W35977  22.162  15.582  13.544
72210W        W35978  43.276   0.321   2.813
72211W        W35979   2.231  14.643   4.331
72212W        W35980  41.316  39.432  12.856
72213W        W35981  44.827  14.600  14.472
72214W        W35982  38.836  24.644  11.445
72215W        W35983  22.027  39.423  11.461
72216W        W35984   9.744  23.141  13.491
72217W        W35985   5.751  31.126   3.172
72218W        W35986  21.061  44.007  12.381
72219W        W35987  24.602  35.071   0.428
72220W        W35988   7.702  39.825   0.860
72221W        W35989  10.856  37.522   1.284
72222W        W35990  41.875   4.794  10.080
72223W        W35991  30.999   7.364   3.854
72224W        W35992  17.704  25.603   5.215
72225W        W35993  39.421   3.366   0.438
72226W        W35994  34.570  23.122  11.933
72227W        W35995  18.112  11.762   2.881
72228W        W35996  13.624   6.331  11.052
72229W        W35997  29.078   3.773  10.899
72230W        W35998  34.614  16.291   0.804
72231W        W35999  13.141  33.506  10.443
72232W        W36000  37.034  36.059   0.302
72233W        W36001  10.662  40.972  10.612
72234W        W36002  31.404   6.742   4.160
72235W        W36003  14.208  30.077  11.542
72236W        W36004  21.227  33.526  10.414
72237W        W36005  24.145  23.539   2.384
72238W        W36006  21.688   9.692  12.967
72239W        W36007  44.003  16.196  14.439
72240W        W36008  38.969  31.525   0.415
72241W        W36009  27.585  37.466  11.936
72242W        W36010   3.817  31.916   3.660
72243W        W36011   6.919  33.439   0.455
72244W        W36012  15.186  36.891  10.407
72245W        W36013   4.723   4.218   1.744
72246W        W36014  16.154  24.169  14.498
72247W        W36015  29.122  18.774  11.958
72248W        W36016  33.462  35.432  14.944
72249W        W36017  19.133  16.664   5.596
72250W        W36018  27.971  31.484  13.315
72251W        W36019  34.888   4.893   1.286
72252W        W36020  21.645  30.912   2.665
72253W        W36021  43.467   9.179  11.404
72254W        W36022  11.799  30.962   4.312
72255W        W36023  21.582   2.757  10.455
72256W        W36024  27.501  27.666   1.921
72257W        W36025  38.517  20.753  10.456
72258W        W36026  41.529  10.640  11.400
72259W        W36027  33.445  31.547   0.268
72260W        W36028  18.759  36.855   0.828
72261W        W36029   4.271  12.755  11.060
72262W        W36030  22.238  20.625   3.711
72263W        W36031  34.373   8.687   2.247
72264W        W36032  32.006   4.361  14.985
72265W        W36033  16.571  34.436  14.886
72266W        W36034  44.338  35.392   3.306
72267W        W36035   2.808  32.536  14.345
72268W        W36036  41.301  22.618  12.440
72269W        W36037  21.599  34.393   3.275
72270W        W36038  34.039  35.867  11.901
72271W        W36039  26.161   1.974  13.953
72272W        W36040  27.653   2.845   2.697
72273W        W36041  27.951  23.201  14.779
72274W        W36042  44.328  41.410   0.808
72275W        W36043   5.835  43.766  11.532
72276W        W36044  24.687   8.730  12.406
72277W        W36045  23.083  23.658   1.860
72278W        W36046   4.920  38.914   1.444
72279W        W36047  36.381  34.976   2.417
72280W        W36048  17.640  44.369   0.772
72281W        W36049  12.707   1.247   3.843
72282W        W36050  35.090   4.719  13.910
72283W        W36051  27.689  10.194  12.482
72284W        W36052  30.587   6.704  13.049
72285W        W36053  32.976  34.517  10.604
72286W        W36054  19.654  41.878   2.872
72287W        W36055  18.243  29.442  11.419
72288W        W36056  18.549  39.967  11.961
72289W        W36057  27.186  41.984  14.943
72290W        W36058   1.291   4.334   3.149
72291W        W36059  41.811  14.203   1.737
72292W        W36060  29.975  10.874  13.455
72293W        W36061  44.493  36.385  11.958
72294W        W36062  17.303  31.006   0.905
72295W        W36063  19.630  41.301   4.286
72296W        W36064  37.439  19.125   4.674
72297W        W36065   0.913   7.842   4.203
72298W        W36066  27.057  25.202   3.178
72299W        W36067  30.601  30.953   2.332
72300W        W36068  31.604  25.672  14.787
72301W        W36069  34.445   9.152   2.197
72302W        W36070  40.954  30.955  13.519
72303W        W36071  15.299  10.731   4.833
72304W        W36072  16.202  39.884   4.666
72305W        W36073  17.763  13.636   1.220
72306W        W36074  39.871   9.693  14.934
72307W        W36075  38.406  10.139   3.294
72308W        W36076  40.947  17.109  11.396
72309W        W36077   8.185  30.964  14.813
72310W        W36078  12.701  31.640   2.238
72311W        W36079  43.933  26.595  14.860
72312W        W36080  41.897  25.484   2.321
72313W        W36081   4.880  10.785   0.446
72314W        W36082  21.748   9.263  13.912
72315W        W36083  16.089  39.977  11.087
72316W        W36084  23.038  34.058  13.383
72317W        W36085  21.180  34.389  14.952
72318W        W36086  30.554   7.280  11.949
72319W        W36087  17.140  15.319  10.158
72320W        W36088  28.654  29.532   1.867
72321W        W36089   3.413  37.869  13.409
72322W        W36090  26.510  28.523   2.386
72323W        W36091  23.017  32.060   1.734
72324W        W36092   2.938  44.804  12.517
72325W        W36093  41.857   0.282   3.266
72326W        W36094  17.260   7.877   1.311
72327W        W36095  31.528  40.481   2.756
72328W        W36096  34.513  17.285   5.636
72329W        W36097  21.740   4.709  11.027
72330W        W36098   2.370  40.343   2.671
72331W        W36099  32.495  19.761   2.282
72332W        W36100  16.808  41.513   4.717
72333W        W36101   5.257   5.414   3.692
72334W        W36102  38.533  15.086  11.404
72335W        W36103  17.667  30.611   4.156
72336W        W36104  33.544  34.962  12.037
72337W        W36105   0.411  17.248   3.721
72338W        W36106  22.112  13.786  12.447
72339W        W36107  37.510  10.326   3.378
72340W        W36108  38.934  23.018  11.127
72341W        W36109  27.607   6.185  12.514
72342W        W36110  36.592  33.893  12.374
72343W        W36111  14.137   3.450   1.302
72344W        W36112  10.767   8.657   2.821
72345W        W36113  44.369  12.639  11.985
72346W        W36114  41.368   2.275  13.504
72347W        W36115  38.834   5.273  11.571
72348W        W36116  17.678  17.163  11.869
72349W        W36117  27.952   6.748   0.757
72350W        W36118   5.393  29.591  14.413
72351W        W36119  21.212  10.724   4.771
72352W        W36120  34.379  40.404   3.781
72353W        W36121  24.109  36.896   4.205
72354W        W36122  21.669  42.938  11.035
72355W        W36123  20.093  32.033   1.448
72356W        W36124  42.946   2.893  11.013
72357W        W36125  27.006  25.106   2.417
72358W        W36126  36.089  23.099   0.291
72359W        W36127  18.762  15.264  12.518
72360W        W36128  32.516   8.842  13.547
72361W        W36129  43.398  19.243  11.576
72362W        W36130  24.192  16.114   0.765
72363W        W36131  26.200   1.852   4.234
72364W        W36132  25.073  40.337  10.571
72365W        W36133   6.267  41.928  10.546
72366W        W36134  27.109   8.753  13.425
72367W        W36135  16.295   1.451  11.976
72368W        W36136  18.756  42.986   1.703
72369W        W36137  33.958  30.011   3.333
72370W        W36138  25.983  24.694   0.837
72371W        W36139  43.417  24.553   1.745
72372W        W36140   6.879  19.267  13.870
72373W        W36141  41.829   2.407  11.910
72374W        W36142   8.815  31.041   1.741
72375W        W36143  17.094   8.689   3.186
72376W        W36144  41.974  22.710  14.408
72377W        W36145   9.721  11.372   3.193
72378W        W36146  23.240   3.869  13.014
72379W        W36147  22.687  36.374   0.459
72380W        W36148  25.525  11.247   4.296
72381W        W36149  24.655  40.055  12.972
72382W        W36150  19.701  21.654  13.031
72383W        W36151  24.640  21.042   0.755
72384W        W36152   1.764  11.709   1.310
72385W        W36153  24.230  12.635  10.974
72386W        W36154  13.606   8.189   4.644
72387W        W36155  24.715  28.059  12.040
72388W        W36156  35.471   8.385   2.724
72389W        W36157   9.855  31.403   0.244
72390W        W36158  10.847  43.872  11.099
72391W        W36159  11.301  43.510   4.758
72392W        W36160  21.587   8.790  11.000
72393W        W36161  19.123   4.374  14.356
72394W        W36162   8.378  15.626   3.683
72395W        W36163  29.996  32.548  10.582
72396W        W36164  37.843  36.914  12.906
72397W        W36165   2.415  33.613   4.700
72398W        W36166  22.137  34.884  13.342
72399W        W36167   0.869  14.752   3.665
72400W        W36168  17.275  44.488   5.230
72401W        W36169  33.899  30.637  13.048
72402W        W36170  39.479  24.073  14.304
72403W        W36171  38.864  20.568   3.359
72404W        W36172  16.597  35.431  10.965
72405W        W36173  18.563   8.348   2.773
72406W        W36174  17.612   3.444   0.340
72407W        W36175  32.516  27.479   3.260
72408W        W36176  32.994  24.628  10.966
72409W        W36177  33.550  27.042   0.818
72410W        W36178  32.576   0.424   2.395
72411W        W36179  32.911  34.963   4.598
72412W        W36180  12.248  29.448  11.382
72413W        W36181  39.522  39.407   0.325
72414W        W36182  14.693  17.769   1.393
72415W        W36183  28.944  22.670   4.627
72416W        W36184  18.575  43.323   3.386
72417W        W36185  21.245  19.768  11.980
72418W        W36186  10.667  25.054   4.678
72419W        W36187  12.130   3.814   4.821
72420W        W36188   5.365  43.924  12.485
72421W        W36189  14.647  23.126  11.959
72422W        W36190  10.324   8.269   2.338
72423W        W36191   4.764  41.795   3.193
72424W        W36192   8.761  27.156  13.851
72425W        W36193  36.496  18.713   3.383
72426W        W36194  31.622  31.069  12.903
72427W        W36195  34.883   5.242   2.241
72428W        W36196  30.437  41.973  11.915
72429W        W36197   0.780   1.937   9.964
72430W        W36198  10.800  19.064  12.937
72431W        W36199  34.424  29.496  12.876
72432W        W36200  37.565   2.310  12.429
72433W        W36201  20.183  10.272  14.892
72434W        W36202  26.017  41.307  11.093
72435W        W36203  24.148  12.742  13.399
72436W        W36204   5.816  35.936   3.347
72437W        W36205   8.403  38.334  13.450
72438W        W36206  10.647  12.640  13.012
72439W        W36207  26.966  30.120  11.412
72440W        W36208  39.320   8.676  12.408
72441W        W36209  26.132  43.408  12.050
72442W        W36210  43.387   9.221  10.413
72443W        W36211   6.878  17.141  10.541
72444W        W36212  22.042  36.460   0.966
72445W        W36213  16.637  33.599   2.730
72446W        W36214  31.534  11.354   1.904
72447W        W36215  15.765   1.935  14.845
72448W        W36216  15.814  19.563  14.413
72449W        W36217  16.240  19.557   0.306
72450W        W36218  38.050  13.128   3.840
72451W        W36219  22.165  33.045  12.439
72452W        W36220  17.636  12.305   3.179
72453W        W36221  41.934  31.103   2.803
72454W        W36222  18.783  44.968   3.273
72455W        W36223   9.725  30.077   4.610
72456W        W36224   3.251   4.930   4.182
72457W        W36225  23.228  25.597  14.344
72458W        W36226  20.757   0.325   1.240
72459W        W36227  16.154   0.417  14.769
72460W        W36228  36.941  10.639  11.371
72461W        W36229   7.716   1.949  10.014
72462W        W36230  17.247  34.999  13.911
72463W        W36231   3.428   6.744   4.216
72464W        W36232  44.967  12.286  10.492
72465W        W36233  29.571  15.761  13.793
72466W        W36234  26.591  22.572  13.314
72467W        W36235  23.714   7.414   2.260
72468W        W36236  32.985  22.666  10.930
72469W        W36237  25.545  25.645  10.957
72470W        W36238   0.383   8.343   4.664
72471W        W36239  35.883  21.218  14.967
72472W        W36240   7.896  15.254   2.783
72473W        W36241  20.586  10.831   4.251
72474W        W36242  21.724  43.282  14.859
72475W        W36243   9.746  18.748   3.245
72476W        W36244  37.870  17.152   3.778
72477W        W36245  30.038  40.901  11.441
72478W        W36246  22.563  41.787  13.535
72479W        W36247  13.118   6.229  10.095
72480W        W36248  26.068  44.447  10.894
72481W        W36249  21.263  28.641   3.174
72482W        W36250  33.592  29.498   0.794
72483W        W36251  25.689  25.094   4.301
72484W        W36252  40.981   8.270   3.227
72485W        W36253  23.233  19.242  14.006
72486W        W36254   7.305  14.701  10.508
72487W        W36255  29.972  40.935  12.497
72488W        W36256  10.843  31.632   4.672
72489W        W36257  39.547  21.616   2.195
72490W        W36258  19.188  27.520   2.294
72491W        W36259  24.541  30.464   0.805
72492W        W36260  38.042  39.382  11.005
72493W        W36261  21.194  44.300  13.472
72494W        W36262  17.162  30.512   4.823
72495W        W36263  18.739   4.719  14.844
72496W        W36264  29.523   0.350   1.216
72497W        W36265  27.100  40.033  13.428
72498W        W36266  31.100  11.132   0.745
72499W        W36267  38.528  26.991   4.313
72500W        W36268  14.289  19.143   0.823
72501W        W36269  34.397  30.555  10.929
72502W        W36270   6.735  30.020   3.822
72503W        W36271   7.684  13.125  12.492
72504W        W36272  17.087  23.147   3.726
72505W        W36273  31.449  38.935   0.950
72506W        W36274  17.790  42.849   0.910
72507W        W36275  32.525  14.141   5.135
72508W        W36276  31.966  24.716  12.518
72509W        W36277  11.803  41.974  13.492
72510W        W36278  42.310  40.833   4.134
72511W        W36279   2.804  23.220  12.028
72512W        W36280  39.933   6.738  11.119
72513W        W36281   7.759  33.530   3.362
72514W        W36282  22.506   6.748   0.370
72515W        W36283  39.318   1.846   1.841
72516W        W36284  12.773  41.855   4.193
72517W        W36285  26.959  37.438   3.749
72518W        W36286  18.570  39.920   2.683
72519W        W36287  25.177  39.480  11.961
72520W        W36288  31.505  33.031  13.478
72521W        W36289  13.818   7.351   3.703
72522W        W36290  37.495  18.218  14.346
72523W        W36291  12.695  20.623  11.500
72524W        W36292  33.073  16.310  11.042
72525W        W36293  20.729  18.613   2.374
72526W        W36294   8.388  22.055  12.918
72527W        W36295  19.233  39.444  14.904
72528W        W36296  44.802  24.562  12.037
72529W        W36297  44.343  20.666   4.324
72530W        W36298  41.311  35.602   2.294
72531W        W36299  33.525  28.607  12.998
72532W        W36300  19.589  12.672   2.791
72533W        W36301  34.968  10.182  14.942
72534W        W36302   1.975   6.726  14.396
72535W        W36303  43.870   5.694  11.950
72536W        W36304  24.632   3.817  14.927
72537W        W36305  12.732  29.586  13.865
72538W        W36306  27.518  13.295   5.195
72539W        W36307   8.829  43.995   4.623
72540W        W36308  40.815  12.829   2.250
72541W        W36309   5.729  42.524  13.523
72542W        W36310  12.619  37.452   4.622
72543W        W36311  31.491  23.194   4.228
72544W        W36312  23.494  36.455   1.773
72545W        W36313   2.471  17.735  14.412
72546W        W36314  13.229  43.788   0.462
72547W        W36315  24.093  34.978   2.337
72548W        W36316  28.503  40.335  13.804
72549W        W36317  32.420  38.059  14.946
72550W        W36318  18.775  25.709  13.960
72551W        W36319  44.336  28.132  11.951
72552W        W36320  40.319  26.016  14.471
72553W        W36321  21.068  32.635   5.590
72554W        W36322  25.113   5.383  14.925
72555W        W36323  35.001   2.467   1.726
72556W        W36324   9.305   9.649  10.556
72557W        W36325  22.090   3.315   1.694
72558W        W36326  32.961  44.361   0.963
72559W        W36327  22.039  25.201   3.271
72560W        W36328  22.574  32.487  12.073
72561W        W36329  41.534  37.541   3.287
72562W        W36330  29.998  23.691  10.623
72563W        W36331   7.399  16.773  10.579
72564W        W36332  40.403  22.582  12.892
72565W        W36333  35.972   2.935  12.450
72566W        W36334  13.789  34.378   4.816
72567W        W36335   5.227  40.370   2.184
72568W        W36336   6.864  25.181  12.967
72569W        W36337   2.299  12.764  13.424
72570W        W36338  15.130   3.434  11.426
72571W        W36339  12.656  27.176  13.956
72572W        W36340  36.372  29.110  12.961
72573W        W36341  24.228  37.076  10.998
72574W        W36342  30.627  15.704   4.132
72575W        W36343  18.699   1.797   5.115
72576W        W36344  22.218  31.080  11.531
72577W        W36345   2.895  21.075   4.674
72578W        W36346  18.784  38.950   0.314
72579W        W36347  23.104  21.040   0.827
72580W        W36348  22.537  11.221  13.463
72581W        W36349  27.528  10.320  13.364
72582W        W36350  27.515   6.229  13.439
72583W        W36351  26.151  36.095   5.129
72584W        W36352  18.709  27.169   3.839
72585W        W36353  13.811  26.522  12.000
72586W        W36354  10.648   4.355   3.811
72587W        W36355  21.070  14.784  13.826
72588W        W36356   7.910  22.587  13.989
72589W        W36357  40.402  29.588   5.278
72590W        W36358   3.835  32.968  11.115
72591W        W36359  43.964  41.366  14.484
72592W        W36360  13.654   0.879  14.986
72593W        W36361   8.308   4.381  12.406
72594W        W36362  23.203   8.667   1.814
72595W        W36363  33.573  27.461  13.503
72596W        W36364  30.608  14.334   3.370
72597W        W36365  34.598  43.916   4.138
72598W        W36366  32.589   0.266   4.642
72599W        W36367  20.127  19.224   1.743
72600W        W36368  27.629  42.301   0.936
72601W        W36369  41.393  21.017   5.115
72602W        W36370  36.493  43.311  11.522
72603W        W36371  12.677  39.020  11.098
72604W        W36372  15.726  43.424  13.365
72605W        W36373  34.904  44.448  12.836
72606W        W36374  11.821  29.659  13.385
72607W        W36375  14.674  36.511   2.903
72608W        W36376  38.908  16.651   2.292
72609W        W36377   3.286   5.898  10.513
72610W        W36378  41.837  25.628   4.272
72611W        W36379  24.136  12.778   0.818
72612W        W36380  11.162  25.139  11.519
72613W        W36381  26.530  36.059   4.598
72614W        W36382  36.013  37.528   1.760
72615W        W36383  19.604  22.223  11.118
72616W        W36384  35.969  27.475  13.879
72617W        W36385  18.282   5.393   0.417
72618W        W36386  32.596  42.450   0.438
72619W        W36387  14.194  42.998  14.968
72620W        W36388  34.448   3.792   1.386
72621W        W36389  17.261  14.719  13.312
72622W        W36390   7.272  32.076   3.363
72623W        W36391  10.344  29.617  10.530
72624W        W36392   8.787  27.484  11.517
72625W        W36393   2.229  26.151  12.574
72626W        W36394  24.571  17.760  12.051
72627W        W36395   4.929  10.774  10.972
72628W        W36396  39.402  19.118   2.326
72629W        W36397  10.281  16.299   4.282
72630W        W36398  13.330  16.665   0.422
72631W        W36399  33.096  31.130  13.049
72632W        W36400  25.709  30.459   2.767
72633W        W36401  44.887  23.137   0.787
72634W        W36402  29.647  16.633  13.061
72635W        W36403   9.675  22.102   3.630
72636W        W36404   9.260  14.765   2.248
72637W        W36405  13.631  35.110  14.412
72638W        W36406  22.532  24.485  11.453
72639W        W36407  14.232  14.164   4.176
72640W        W36408   0.351  40.953   3.811
72641W        W36409   2.904  12.829  13.033
72642W        W36410  14.696  17.124   3.648
72643W        W36411  29.929  15.584  14.464
72644W        W36412  18.137   0.933   1.766
72645W        W36413   8.374  13.215   3.172
72646W        W36414  17.649   2.958   4.611
72647W        W36415   5.300   6.811  10.527
72648W        W36416   5.213  27.636   1.338
72649W        W36417  38.571   8.244  10.997
72650W        W36418   7.872  40.375  14.366
72651W        W36419  32.991   3.831  14.375
72652W        W36420  41.372  38.835  13.496
72653W        W36421  36.456  29.578  10.104
72654W        W36422  10.712  29.171  14.915
72655W        W36423  15.235  15.711   1.760
72656W        W36424  19.555   4.715  14.953
72657W        W36425  33.893  29.460  11.531
72658W        W36426  17.184   7.299  14.892
72659W        W36427   0.850  33.021   4.279
72660W        W36428   5.879  36.413   4.329
72661W        W36429   5.323  22.638  10.952
72662W        W36430  40.048  42.813  10.469
72663W        W36431  12.133  15.686   3.318
72664W        W36432  37.931  14.136  14.359
72665W        W36433  35.459   6.684   0.771
72666W        W36434  34.550  41.954   2.384
72667W        W36435  44.336  22.063   0.876
72668W        W36436  27.582  12.339   2.256
72669W        W36437  41.013  32.624  13.889
72670W        W36438   5.211  40.517  12.997
72671W        W36439  24.503  44.435  12.489
72672W        W36440  28.458  40.829   0.460
72673W        W36441   2.905  40.980  10.643
72674W        W36442  40.431   5.263   0.961
72675W        W36443  43.444  44.434  14.883
72676W        W36444  29.143  30.102  13.340
72677W        W36445  15.737  39.976  13.533
72678W        W36446  12.304  23.520  12.899
72679W        W36447  18.140  35.081   3.871
72680W        W36448  44.848  21.577  12.438
72681W        W36449  38.839  39.838  14.939
72682W        W36450  16.812  40.945  13.419
72683W        W36451   0.476   1.896  12.842
72684W        W36452   6.344  10.860   0.773
72685W        W36453  44.432  32.056  12.947
72686W        W36454  37.552  16.709   3.171
72687W        W36455  37.531   7.272  14.762
72688W        W36456   4.929  33.410   2.698
72689W        W36457   1.457  31.976  11.515
72690W        W36458  24.604   3.890   3.798
72691W        W36459  18.294   4.348  12.398
72692W        W36460  18.294  44.375  14.452
72693W        W36461  15.171  22.589  12.411
72694W        W36462  27.485  39.026  11.577
72695W        W36463  41.854  28.180  13.833
72696W        W36464   9.785  21.610   3.804
72697W        W36465  43.830  42.384  12.938
72698W        W36466   6.783  15.650  13.947
72699W        W36467   0.441  19.141  11.959
72700W        W36468  21.726   9.318   0.457
72701W        W36469  31.957  20.596   0.250
72702W        W36470  22.584  30.486  11.404
72703W        W36471  10.811  14.119  10.940
72704W        W36472  30.509  10.675   4.201
72705W        W36473  38.387   2.861  13.531
72706W        W36474  37.394  10.262  13.883
72707W        W36475  21.625  30.059  10.442
72708W        W36476  42.353  30.019  10.407
72709W        W36477  39.917  33.607   2.686
72710W        W36478  30.581  33.572   3.770
72711W        W36479  19.742  40.514   0.295
72712W        W36480  27.062  35.472  10.640
72713W        W36481  17.765   2.252  14.394
72714W        W36482  23.516  21.710  11.605
72715W        W36483  44.903   8.377  13.809
72716W        W36484  12.770   9.263  14.363
72717W        W36485  14.605  14.805   2.370
72718W        W36486  44.865  37.456  11.608
72719W        W36487  22.211  24.527   1.428
72720W        W36488  39.960  16.201  14.923
72721W        W36489  23.215  10.375  10.948
72722W        W36490   5.687  34.919   1.301
72723W        W36491  23.711  40.815   1.251
72724W        W36492  29.583  41.494   4.300
72725W        W36493  21.121  25.186  14.905
72726W        W36494  42.374  34.438  14.849
72727W        W36495   4.736  41.800   0.410
72728W        W36496  31.149   7.906   3.744
72729W        W36497  27.591  33.436  14.305
72730W        W36498  41.901  21.174  14.869
72731W        W36499  32.108  41.303  12.893
72732W        W36500  37.927   5.763   2.735
72733W        W36501  20.596  31.147  12.087
72734W        W36502  15.602  29.618   1.800
72735W        W36503  17.767  34.921   3.269
72736W        W36504  25.975  35.010  14.938
72737W        W36505  44.831  41.534  12.006
72738W        W36506  25.591  38.487   4.793
72739W        W36507  39.966  19.590  12.965
72740W        W36508  30.445   6.809  13.496
72741W        W36509  13.839  20.036  13.328
72742W        W36510  43.822   5.759   2.355
72743W        W36511  23.992  29.425   3.190
72744W        W36512  16.775  12.255   2.393
72745W        W36513  24.725   8.834  13.003
72746W        W36514  16.173  13.220  14.945
72747W        W36515  34.505  43.020   1.843
72748W        W36516  17.627  21.180   4.211
72749W        W36517  20.644   3.257  10.641
72750W        W36518  23.145   2.963   1.417
72751W        W36519  10.643   9.321   2.367
72752W        W36520   9.782   3.793   3.156
72753W        W36521  12.284   3.262   3.644
72754W        W36522  33.518  15.229  14.274
72755W        W36523  12.197  41.332  14.018
72756W        W36524  16.183  26.996   2.265
72757W        W36525  10.705  41.797   3.252
72758W        W36526   5.851   7.786  10.553
72759W        W36527  26.640  29.987   2.715
72760W        W36528  37.396  16.229   3.342
72761W        W36529  27.068   1.934  12.955
72762W        W36530  31.409  28.621  14.783
72763W        W36531  10.746  10.846   4.277
72764W        W36532   1.390  40.315  11.438
72765W        W36533   9.727  17.584   3.367
72766W        W36534   1.888  34.007   4.691
72767W        W36535  28.981  33.482   3.286
72768W        W36536  25.986  21.131   2.405
72769W        W36537   7.270   7.712  14.477
72770W        W36538  16.784   3.345  12.469
72771W        W36539  25.010  13.842   1.437
72772W        W36540  34.969   6.791   2.675
72773W        W36541  18.063  10.847  10.931
72774W        W36542  17.802   8.861   0.786
72775W        W36543  33.588  34.042  10.623
72776W        W36544  16.187   2.261   2.894
72777W        W36545  15.686  30.987   2.341
72778W        W36546  14.788   4.368  14.844
72779W        W36547   5.742  14.332  14.416
72780W        W36548  16.651   1.359   0.964
72781W        W36549  13.268  17.749   2.806
72782W        W36550  38.027  28.615  13.878
72783W        W36551   8.307  37.438   4.222
72784W        W36552   5.202  14.741  11.098
72785W        W36553  33.107  31.990  10.146
72786W        W36554  18.241   5.692   1.289
72787W        W36555   3.277  42.931   1.698
72788W        W36556  16.261  16.217  13.318
72789W        W36557  44.365   7.686   1.304
72790W        W36558  15.312   3.823   2.281
72791W        W36559  31.636  30.914   4.114
72792W        W36560  16.667  24.512  12.545
72793W        W36561  34.593  33.392  10.903
72794W        W36562   4.724  34.908   0.338
72795W        W36563  40.356  13.166   0.309
72796W        W36564   3.833  19.254   2.343
72797W        W36565  43.959  21.719   1.721
72798W        W36566   7.255  23.730  11.534
72799W        W36567  22.716  28.041  12.041
72800W        W36568  25.996  19.153   3.655
72801W        W36569  32.038  12.677  11.514
72802W        W36570   0.785  31.484  12.871
72803W        W36571  10.267  15.723   2.774
72804W        W36572  13.248  18.178   4.310
72805W        W36573  33.621  34.529   4.153
72806W        W36574  15.579   0.781  14.827
72807W        W36575  25.995   0.921   2.717
72808W        W36576  14.802   1.480  13.426
72809W        W36577  15.603  18.211  11.527
72810W        W36578  14.605  15.785  14.338
72811W        W36579  29.097  40.929  13.053
72812W        W36580   9.182  39.469   3.367
72813W        W36581  21.673  37.917  12.863
72814W        W36582  20.543   5.741  12.433
72815W        W36583  19.078  24.568   2.816
72816W        W36584   4.703  17.298  13.872
72817W        W36585  43.940  20.597  13.322
72818W        W36586   2.844  11.868   3.309
72819W        W36587  37.968  22.065  13.438
72820W        W36588  30.477  39.457   4.655
72821W        W36589  29.639  36.934  13.396
72822W        W36590   9.736  28.667   2.400
72823W        W36591  31.040  41.029   3.663
72824W        W36592  42.900  18.229  14.370
72825W        W36593  34.043  43.950  13.935
72826W        W36594  28.043   6.862  13.808
72827W        W36595   2.322   8.863   2.210
72828W        W36596   5.900  25.964   2.252
72829W        W36597  23.224  21.020   4.332
72830W        W36598  42.923  44.283  14.294
72831W        W36599  41.027  11.340   1.227
72832W        W36600  15.711   2.262   0.350
72833W        W36601   5.896  24.170   0.455
72834W        W36602   7.384   6.345  12.481
72835W        W36603   5.423  21.255   1.821
72836W        W36604  21.593   1.387  14.882
72837W        W36605   9.779   7.226  12.861
72838W        W36606  32.524   2.254  11.495
72839W        W36607  29.085   7.385  11.467
72840W        W36608  28.460  35.906  10.437
72841W        W36609  23.172   4.779  11.127
72842W        W36610   2.436  32.102   1.706
72843W        W36611  30.946   1.473   2.418
72844W        W36612  44.988  42.965   2.849
72845W        W36613  24.021  35.553  13.352
72846W        W36614  43.009   8.699  13.926
72847W        W36615  23.138   8.285  11.120
72848W        W36616  20.525  25.503   4.815
72849W        W36617  12.223  39.389   3.342
72850W        W36618   3.954  24.974  11.068
72851W        W36619  20.733  21.577   4.753
72852W        W36620  28.164  21.057   5.256
72853W        W36621  20.140   1.753   2.349
72854W        W36622   7.204  23.045   0.264
72855W        W36623  12.208   3.863  12.880
72856W        W36624  44.810  11.172  12.896
72857W        W36625  16.791  31.515  14.922
72858W        W36626  40.355  31.510  10.466
72859W        W36627   7.327   3.275  14.307
72860W        W36628  41.998  31.935  10.067
72861W        W36629  10.249  39.840  13.801
72862W        W36630   2.827  42.476  14.400
72863W        W36631  24.099   1.830  14.397
72864W        W36632  35.057  16.632   0.914
72865W        W36633   1.733  10.148   0.895
72866W        W36634  30.941  26.534   1.242
72867W        W36635  28.178  10.757   0.462
72868W        W36636  44.976  24.491  13.862
72869W        W36637   2.941  12.727   0.892
72870W        W36638  42.394  20.752  11.921
72871W        W36639  12.640  23.112   3.294
72872W        W36640   7.245  11.197   4.132
72873W        W36641  22.710  21.198   9.948
72874W        W36642  34.120  12.256  11.953
72875W        W36643  22.246  28.548   3.344
72876W        W36644  29.465  30.609   1.420
72877W        W36645  37.495  17.116   2.338
72878W        W36646  38.839  12.237   2.803
72879W        W36647  37.987  19.652  10.023
72880W        W36648  27.991  11.298  12.410
72881W        W36649  35.858  32.597  14.987
72882W        W36650  35.105  14.811   2.846
72883W        W36651  30.112  13.823   2.812
72884W        W36652  11.344   8.372   0.783
72885W        W36653  21.251  32.487   3.180
72886W        W36654   5.374  19.662  10.523
72887W        W36655   9.645   9.747  12.007
72888W        W36656   8.877  26.539  14.920
72889W        W36657  26.984   6.873   3.365
72890W        W36658  25.212   1.977  13.307
72891W        W36659   1.813  11.147  14.483
72892W        W36660  26.006  29.050   3.282
72893W        W36661   2.951   5.908  10.927
72894W        W36662  29.100  25.988   0.734
72895W        W36663  30.123   0.447   4.319
72896W        W36664  36.447  28.449   1.850
72897W        W36665  15.097  38.346  14.275
72898W        W36666  16.650  27.016   3.365
72899W        W36667   0.885  17.281   0.275
72900W        W36668  19.280  39.536  13.501
72901W        W36669  44.850  30.537  14.993
72902W        W36670  35.539   7.366   1.891
72903W        W36671  37.866  31.991  12.504
72904W        W36672  35.396  36.403   0.481
72905W        W36673  15.816  14.146  13.909
72906W        W36674  13.174  12.339   0.259
72907W        W36675  31.412  44.422   4.697
72908W        W36676  22.194  38.938  14.466
72909W        W36677  22.152  18.277   4.772
72910W        W36678  30.020  25.656   0.947
72911W        W36679   8.671  24.137   1.786
72912W        W36680  29.919  37.853  14.375
72913W        W36681  23.604  42.801   3.729
72914W        W36682  18.137  26.993   4.685
72915W        W36683   6.318  33.953  12.452
72916W        W36684  11.797  44.782   1.287
72917W        W36685   8.271  15.736  11.033
72918W        W36686   2.290  41.517   2.830
72919W        W36687  21.034  35.490   3.300
72920W        W36688  35.021  21.113   3.650
72921W        W36689   8.755  39.042   0.799
72922W        W36690   7.762  16.769   1.712
72923W        W36691  17.695  23.071  12.389
72924W        W36692  44.833  12.793  10.927
72925W        W36693  11.182  29.633  12.459
72926W        W36694  19.065  23.007  10.010
72927W        W36695  41.413   2.797  14.812
72928W        W36696  20.549  43.322  10.999
72929W        W36697  16.806  25.600  11.098
72930W        W36698   0.976  14.325   0.271
72931W        W36699   6.827  41.512   1.320
72932W        W36700   6.810   4.741   0.966
72933W        W36701  30.561  32.134  12.910
72934W        W36702  12.272  40.456  12.989
72935W        W36703  44.804  43.949  14.856
72936W        W36704  34.925   9.827   4.771
72937W        W36705  40.942  18.184   0.767
72938W        W36706  17.228  39.981   3.792
72939W        W36707  38.531   9.271   2.711
72940W        W36708  10.148   2.237   1.410
72941W        W36709  27.465  23.222  13.529
72942W        W36710  37.006  31.590  10.148
72943W        W36711   5.391  12.207  14.884
72944W        W36712  22.245  35.977  10.941
72945W        W36713  18.134  26.145  10.517
72946W        W36714  23.228   3.718   1.917
72947W        W36715  41.910   5.297  11.376
72948W        W36716   7.253  31.014  14.438
72949W        W36717   9.207  44.754   3.277
72950W        W36718  25.070  43.820  11.987
72951W        W36719   1.756  28.604   0.282
72952W        W36720   8.754  23.581   0.459
72953W        W36721  38.418  38.562  13.852
72954W        W36722  39.886  14.721   2.208
72955W        W36723   3.929   1.313   3.321
72956W        W36724  42.379   9.186  12.976
72957W        W36725   3.914  41.021  13.044
72958W        W36726  31.921   0.295   2.301
72959W        W36727  35.921  44.915   1.760
72960W        W36728  38.946  19.569  14.813
72961W        W36729  32.517  26.555   2.772
72962W        W36730  18.633  16.244   2.192
72963W        W36731  14.142  28.974   3.180
72964W        W36732  28.550   0.469  13.860
72965W        W36733   9.164   0.907   0.376
72966W        W36734  28.989  19.138  12.908
72967W        W36735  42.006  24.045  13.316
72968W        W36736  17.748   1.452  13.948
72969W        W36737  16.255  35.566  14.972
72970W        W36738  42.379   7.681  11.585
72971W        W36739  31.981   8.318  12.068
72972W        W36740  17.777   7.195  12.091
72973W        W36741   1.794  40.024   3.332
72974W        W36742  30.069   1.959   4.246
72975W        W36743   1.364  33.542  12.460
72976W        W36744  36.869  26.546   2.858
72977W        W36745   9.818  16.589   4.677
72978W        W36746  26.043   5.744  11.398
72979W        W36747  13.726  26.973   0.887
72980W        W36748  18.294  16.080   1.760
72981W        W36749  24.704  22.727   3.358
72982W        W36750  44.803  33.929   1.707
72983W        W36751  32.604   7.228   4.223
72984W        W36752  12.760  37.457   4.130
72985W        W36753   0.377  42.498  14.976
72986W        W36754   0.310  44.944  10.986
72987W        W36755  13.644  13.270   0.446
72988W        W36756  38.382  34.006  14.462
72989W        W36757  14.743  14.707   9.613
72990W        W36758   2.228  16.586   2.259
72991W        W36759  24.026  14.157  11.065
72992W        W36760  39.462  23.732  11.992
72993W        W36761  16.649  19.212   4.787
72994W        W36762  31.985  31.117   3.728
72995W        W36763  17.672   7.388   1.274
72996W        W36764  22.046  35.913   1.767
72997W        W36765   2.809  36.069  11.499
72998W        W36766  30.968  12.721  11.051
72999W        W36767   2.389   6.856   3.780
73000W        W36768  42.446  16.223  12.571
73001W        W36769  20.098  39.982  12.009
73002W        W36770  39.826   4.781   1.782
73003W        W36771  16.640  21.233   3.798
73004W        W36772   6.412   7.697  11.918
73005W        W36773   8.729  35.013  11.421
73006W        W36774  27.491  44.404   1.421
73007W        W36775   5.891  39.891   1.389
73008W        W36776  38.977  16.688  13.807
73009W        W36777  33.413   3.778   0.791
73010W        W36778  24.624   8.260  10.435
73011W        W36779  38.890  36.892  11.874
73012W        W36780  41.369  35.030  11.925
73013W        W36781   0.320  30.150   3.730
73014W        W36782  24.522  28.650  11.872
73015W        W36783  17.149  41.851  12.534
73016W        W36784   3.952  43.498   2.322
73017W        W36785  20.038   7.749  13.007
73018W        W36786  33.468  20.169   2.180
73019W        W36787  30.113  11.859   1.378
73020W        W36788  18.089   8.778  14.424
73021W        W36789  10.338   6.420   0.466
73022W        W36790  34.475  33.952   1.356
73023W        W36791  11.308  17.141  14.341
73024W        W36792  16.686  20.730  14.407
73025W        W36793  22.587  27.490   0.878
73026W        W36794  33.079  31.118  11.411
73027W        W36795  32.503  42.822   3.800
73028W        W36796  36.932  16.266  13.389
73029W        W36797  44.756  39.543  11.607
73030W        W36798  33.091   2.306  12.405
73031W        W36799  20.159  28.644   1.791
73032W        W36800  28.477   3.458  13.512
73033W        W36801  39.448  33.996  10.086
73034W        W36802  30.622  42.448  14.921
73035W        W36803   5.748  41.907  13.058
73036W        W36804  44.281  19.219   2.383
73037W        W36805   4.757  39.333  10.528
73038W        W36806  37.366   6.707   3.740
73039W        W36807  12.123  23.092   4.738
73040W        W36808   5.819   4.756   0.836
73041W        W36809   9.880  42.966  13.451
73042W        W36810  21.221  34.486   0.449
73043W        W36811  15.179   6.283  11.861
73044W        W36812  13.318  25.682  10.899
73045W        W36813  10.801  18.568  13.893
73046W        W36814   1.308   3.323  13.830
73047W        W36815  19.725   0.373  11.470
73048W        W36816   3.390  24.593  14.829
73049W        W36817  44.431   9.353   4.689
73050W        W36818  33.923   9.324   1.709
73051W        W36819  21.019  35.945   0.960
73052W        W36820  41.481  32.537   2.349
73053W        W36821  16.622  14.307  12.926
73054W        W36822  40.470  30.564   2.390
73055W        W36823  39.357  17.752   0.798
73056W        W36824  31.472  13.107  13.802
73057W        W36825  44.798   9.152   4.310
73058W        W36826  29.959  28.164  12.972
73059W        W36827  28.025  32.617  11.857
73060W        W36828   5.713  18.598  11.974
73061W        W36829  18.064  35.024  10.935
73062W        W36830  22.510  21.605  11.890
73063W        W36831  31.438   9.297  10.581
73064W        W36832  32.127  43.388  13.889
73065W        W36833  41.844  38.505   3.343
73066W        W36834  14.204   7.302  14.953
73067W        W36835  24.674  15.228  14.308
73068W        W36836  19.187  17.275   4.638
73069W        W36837   7.684  16.623  10.039
73070W        W36838  12.310  24.489  13.826
73071W        W36839  44.288  11.309  14.021
73072W        W36840   4.702  40.427   2.807
73073W        W36841  30.923  38.915   0.893
73074W        W36842  30.097  16.573  13.402
73075W        W36843   9.379  10.797   2.722
73076W        W36844  17.263  29.569  12.959
73077W        W36845  19.768  31.018  11.081
73078W        W36846  36.898  24.043  14.801
73079W        W36847  33.030  32.527   2.841
73080W        W36848  38.891   5.312  14.397
73081W        W36849  32.083  34.944   4.837
73082W        W36850  36.567  23.496   3.369
73083W        W36851  17.621   3.436  11.538
73084W        W36852   8.863  26.516   4.719
73085W        W36853  34.033  15.621  11.567
73086W        W36854  26.052  10.235  11.459
73087W        W36855  10.381   0.400  10.968
73088W        W36856   5.871   8.373   0.478
73089W        W36857  32.067   6.899  12.079
73090W        W36858  35.411  31.923  14.457
73091W        W36859  13.829  37.948  10.510
73092W        W36860   0.409  17.100   3.334
73093W        W36861  38.020  27.561  12.884
73094W        W36862   7.890  24.004   1.857
73095W        W36863   7.766  41.426  14.304
73096W        W36864   9.699  24.115   1.274
73097W        W36865  21.060  10.843  12.478
73098W        W36866  42.882  27.002  12.397
73099W        W36867  12.190  20.033  13.373
73100W        W36868  24.109  15.201  13.432
73101W        W36869   7.708   2.350  14.879
73102W        W36870  21.515  23.076   1.932
73103W        W36871   8.675   8.273  14.312
73104W        W36872   7.667  33.520  10.494
73105W        W36873   3.850   1.323   2.320
73106W        W36874   2.441  41.972  10.972
73107W        W36875  33.550  33.517  13.797
73108W        W36876  44.416  39.867   1.256
73109W        W36877   5.311  26.562  14.946
73110W        W36878  40.854  24.173  12.392
73111W        W36879   6.732  42.310   3.743
73112W        W36880  22.740  30.958  11.019
73113W        W36881  41.798  27.150   0.305
73114W        W36882  25.559  30.492   1.405
73115W        W36883  19.175  16.676   1.805
73116W        W36884  30.963  28.452  13.978
73117W        W36885  38.857  30.476  10.055
73118W        W36886  40.350   7.703   4.231
73119W        W36887  42.949  42.803  11.490
73120W        W36888   9.362  18.099   3.375
73121W        W36889  30.980   2.399  10.989
73122W        W36890  35.471  15.247  13.414
73123W        W36891  16.268  17.723   1.748
73124W        W36892   8.398  25.108  11.500
73125W        W36893  16.667  39.389  14.339
73126W        W36894  25.092   2.263  11.505
73127W        W36895  17.618  16.267   0.914
73128W        W36896  29.931  34.564   3.187
73129W        W36897  43.812  37.371   0.477
73130W        W36898  11.804  25.195  13.992
73131W        W36899  30.544  40.514  12.870
73132W        W36900  32.491  31.951  12.847
73133W        W36901  13.218   7.760   3.147
73134W        W36902  38.359  32.394  12.823
73135W        W36903  27.598  36.418   4.685
73136W        W36904  20.639  26.510   1.314
73137W        W36905  39.046   8.334  10.936
73138W        W36906  44.820   6.923   3.307
73139W        W36907  42.920   2.780  13.406
73140W        W36908   8.837  28.669  14.871
73141W        W36909  42.514  36.074   4.823
73142W        W36910  12.165  11.758  11.602
73143W        W36911  15.798  13.128  11.387
73144W        W36912   0.749  23.161  14.873
73145W        W36913   2.726  40.052  12.003
73146W        W36914  41.973   0.353   2.836
73147W        W36915  20.166  15.285  12.976
73148W        W36916  13.253  22.695   0.340
73149W        W36917  23.650  27.186   4.833
73150W        W36918  23.659  42.805  13.360
73151W        W36919  15.215   5.830   1.242
73152W        W36920  23.555  11.668   5.277
73153W        W36921  35.071  13.625   2.668
73154W        W36922   3.378   9.805  12.052
73155W        W36923  31.445  24.502  12.081
73156W        W36924  29.139  38.969  11.985
73157W        W36925  25.650  44.963   3.184
73158W        W36926  16.163  22.596   4.824
73159W        W36927  28.157   0.916   0.840
73160W        W36928  16.750   4.238  11.541
73161W        W36929   8.866  30.135  12.830
73162W        W36930  18.592  25.150   4.666
73163W        W36931  42.451  33.384   4.672
73164W        W36932   1.392  20.673   4.773
73165W        W36933  11.256  33.620   3.658
73166W        W36934  44.482  17.667   2.384
73167W        W36935  20.228  11.791   2.770
73168W        W36936   0.928  35.370  13.414
73169W        W36937  26.653   6.201  11.089
73170W        W36938  29.615  36.933   2.191
73171W        W36939  24.174  30.544  13.031
73172W        W36940  43.900  23.087   0.942
73173W        W36941  43.850  32.887  13.806
73174W        W36942  42.474  11.794   0.482
73175W        W36943  32.585  43.492  13.481
73176W        W36944   3.325  34.456   0.333
73177W        W36945   9.745   4.423   0.280
73178W        W36946  44.932  29.921   2.395
73179W        W36947   8.865  38.072  12.949
73180W        W36948  38.045  10.157   1.887
73181W        W36949  37.969  40.380   0.826
73182W        W36950   0.916  18.768  11.554
73183W        W36951  42.956  11.242   4.318
73184W        W36952   5.822  41.451   3.268
73185W        W36953  42.025  14.818   3.231
73186W        W36954  22.078  33.480   1.327
73187W        W36955  11.640  17.736   1.409
73188W        W36956  38.478  23.576  14.938
73189W        W36957  16.594  15.712   3.694
73190W        W36958  37.975  17.303  11.388
73191W        W36959   8.285  36.861   1.234
73192W        W36960  23.075  36.037   3.840
73193W        W36961  24.714   6.314   1.331
73194W        W36962  37.477  28.594  13.508
73195W        W36963  27.033  22.657   1.290
73196W        W36964   7.260  17.063  12.462
73197W        W36965  16.236  10.246   3.785
73198W        W36966  11.354  17.662  13.043
73199W        W36967  10.174  30.560   3.260
73200W        W36968  24.220  14.271  14.828
73201W        W36969  43.506  17.576  14.390
73202W        W36970  23.704  32.929  10.038
73203W        W36971  17.575   2.410  11.959
73204W        W36972  30.608  20.725  12.832
73205W        W36973  13.630  31.603   0.382
73206W        W36974   4.900   8.175   0.913
73207W        W36975  32.544  36.433  13.913
73208W        W36976  41.510   5.720  12.075
73209W        W36977  27.549  14.805   2.321
73210W        W36978  11.359  28.146   2.678
73211W        W36979  15.810   5.436  10.560
73212W        W36980  34.065  25.469  11.456
73213W        W36981  38.854   2.894  11.534
73214W        W36982  18.201  16.684  11.377
73215W        W36983  22.247  16.132  11.515
73216W        W36984  41.005  37.918   4.264
73217W        W36985  21.633   8.374  10.573
73218W        W36986   1.421  13.291   0.477
73219W        W36987  43.496  19.137   3.700
73220W        W36988   0.963   9.391   3.152
73221W        W36989   0.482   7.394  12.904
73222W        W36990  40.397  25.998  13.027
73223W        W36991   0.313  18.699   2.871
73224W        W36992  20.204   5.401   2.238
73225W        W36993   5.381  27.636  12.948
73226W        W36994  17.643  31.530   3.840
73227W        W36995  25.016  36.022   2.887
73228W        W36996  38.339  22.574   3.364
73229W        W36997  25.544  10.316   0.436
73230W        W36998   8.676   7.679  10.449
73231W        W36999  43.805  12.144  12.917
73232W        W37000   2.726  28.024  13.403
73233W        W37001   8.699  41.943  11.546
73234W        W37002  44.921  11.738  11.551
73235W        W37003  13.743  22.139  11.371
73236W        W37004  28.175  39.901   3.148
73237W        W37005  29.077  43.994   2.779
73238W        W37006  42.486  27.045   0.904
73239W        W37007   0.291  41.897   1.746
73240W        W37008  22.012  30.442   3.163
73241W        W37009  29.008  28.546   3.756
73242W        W37010  14.767  26.189  13.910
73243W        W37011   8.900  30.083   1.279
73244W        W37012   0.782  21.024  12.834
73245W        W37013  38.495  23.736   3.296
73246W        W37014  31.643   9.755   0.333
73247W        W37015  43.879  40.525   0.320
73248W        W37016  34.870  37.399   5.322
73249W        W37017   2.849   2.372   4.663
73250W        W37018  25.606  34.562  11.975
73251W        W37019   4.791   1.464  11.969
73252W        W37020  25.674  10.273   5.790
73253W        W37021  38.487  39.855   4.668
73254W        W37022  38.980  11.164   4.632
73255W        W37023   1.386  37.401   1.306
73256W        W37024   4.227  23.223  12.407
73257W        W37025  44.425  16.680  12.915
73258W        W37026  38.353   4.801   1.895
73259W        W37027   5.218  33.523   1.735
73260W        W37028  40.979  15.644  10.971
73261W        W37029  25.570  33.597  10.511
73262W        W37030  29.932  21.119  14.973
73263W        W37031   0.405  37.574   4.307
73264W        W37032  24.166   2.738  13.320
73265W        W37033   0.305  29.038   4.620
73266W        W37034  23.675  42.462  10.970
73267W        W37035  22.241  18.284  14.971
73268W        W37036  16.588  25.614  10.430
73269W        W37037  38.559  13.820   1.923
73270W        W37038  15.232  40.895   1.921
73271W        W37039  38.982  40.995   1.843
73272W        W37040   5.823  14.681  12.834
73273W        W37041  13.636  25.070   3.300
73274W        W37042  24.171  30.627   1.828
73275W        W37043  35.430  36.411   3.808
73276W        W37044  43.766   6.913  13.035
73277W        W37045  39.927  38.886   1.278
73278W        W37046  38.908  40.395   3.311
73279W        W37047  36.394   1.268  12.010
73280W        W37048   6.363  23.188   4.792
73281W        W37049  32.083  10.667   3.786
73282W        W37050  39.522   5.369   0.884
73283W        W37051  34.108  31.905   4.787
73284W        W37052  41.339  13.208  14.807
73285W        W37053  18.560  17.721   0.759
73286W        W37054   1.321  10.182  11.437
73287W        W37055  37.548  43.310  13.810
73288W        W37056  34.378  38.050  14.849
73289W        W37057  37.389  12.657  14.982
73290W        W37058   0.887  26.683   1.875
73291W        W37059  17.645  27.126   5.160
73292W        W37060   0.341  22.591   2.900
73293W        W37061  27.103  13.107   2.206
73294W        W37062   9.830  41.860  12.554
73295W        W37063   4.421  27.183   4.817
73296W        W37064  44.934  33.491   9.981
73297W        W37065  38.044  25.977  10.985
73298W        W37066  27.998   7.749  11.053
73299W        W37067  37.077   5.701   5.615
73300W        W37068  23.107  25.671   2.297
73301W        W37069   6.205  40.038   1.399
73302W        W37070  42.366  24.153   3.725
73303W        W37071  22.119  42.861   2.885
73304W        W37072  42.374  34.963  12.473
73305W        W37073  40.320  32.100  13.858
73306W        W37074   5.417  38.996   0.248
73307W        W37075   5.903  31.631   1.914
73308W        W37076   0.336  27.142  14.399
73309W        W37077   8.894  16.302  10.415
73310W        W37078  25.534  39.055   2.325
73311W        W37079  13.248  35.504   2.696
73312W        W37080   0.749   2.425  14.482
73313W        W37081  14.658  41.876   4.175
73314W        W37082  42.012   5.818   0.847
73315W        W37083  32.906   0.374   4.641
73316W        W37084  35.527  44.436   2.203
73317W        W37085  15.208   1.740  11.598
73318W        W37086   0.913  39.464  14.430
73319W        W37087  13.326  28.636   1.887
73320W        W37088   6.762  12.732   4.740
73321W        W37089  24.093  43.917   2.675
73322W        W37090  11.246   5.390  13.318
73323W        W37091   0.294  18.614  10.408
73324W        W37092  34.951  12.829   1.413
73325W        W37093  30.015  19.231   1.911
73326W        W37094  21.175   9.778   3.868
73327W        W37095   3.898   0.858  13.975
73328W        W37096  42.943  34.085  12.427
73329W        W37097  16.292  44.941   4.233
73330W        W37098  13.314  25.710  12.912
73331W        W37099  38.917  42.394  13.870
73332W        W37100  41.410  39.520  12.345
73333W        W37101   9.646  11.161  11.057
73334W        W37102  41.855  24.610   4.330
73335W        W37103  17.570   2.324   1.744
73336W        W37104   2.811  30.571  10.888
73337W        W37105   5.296  10.271  14.762
73338W        W37106   4.722  41.025  13.324
73339W        W37107   8.759  36.513   1.295
73340W        W37108  10.642   5.753  14.843
73341W        W37109  39.872  30.626  11.580
73342W        W37110  17.628  37.041  13.445
73343W        W37111  33.534  19.128  11.608
73344W        W37112  39.027  12.266   0.328
73345W        W37113   1.801   8.670  13.864
73346W        W37114  28.183  32.450  10.940
73347W        W37115   5.231  19.695  12.075
73348W        W37116  37.485  11.291  11.460
73349W        W37117  42.965  37.038   1.283
73350W        W37118  36.989  34.552   1.416
73351W        W37119  40.843  43.477   4.137
73352W        W37120   6.418  38.440  11.056
73353W        W37121  10.844  12.291   3.191
73354W        W37122  22.733  16.793  11.483
73355W        W37123  22.661  21.133   3.727
73356W        W37124  25.053  32.013   1.344
73357W        W37125  25.606  10.809  10.486
73358W        W37126  10.816  13.736  14.808
73359W        W37127  33.544  23.201   1.417
73360W        W37128  40.961   5.799   2.364
73361W        W37129   1.408  12.772  11.601
73362W        W37130   2.417   9.307   0.963
73363W        W37131  37.936  23.516  12.340
73364W        W37132  13.308   5.386   4.243
73365W        W37133  26.542   0.326  12.976
73366W        W37134  40.488  20.710  12.893
73367W        W37135  12.612   9.342   4.760
73368W        W37136  11.341  19.111  13.456
73369W        W37137  35.394  31.052  14.763
73370W        W37138  13.232  42.798  11.090
73371W        W37139  34.084   3.451   0.453
73372W        W37140  22.082  23.506  11.522
73373W        W37141  30.541  38.382   4.830
73374W        W37142   6.778  16.754   0.739
73375W        W37143  22.218  24.098  13.819
73376W        W37144  10.860  26.025  12.498
73377W        W37145   2.795  33.014   9.973
73378W        W37146   2.936  28.671   0.772
73379W        W37147  10.215  26.974  14.837
73380W        W37148  28.579  16.150   1.724
73381W        W37149   0.968  35.856  13.869
73382W        W37150  12.641  20.065   3.312
73383W        W37151   6.839  39.527   4.315
73384W        W37152  29.083  14.218  14.000
73385W        W37153  14.231  13.727   1.317
73386W        W37154  13.175  41.393  14.441
73387W        W37155  11.735  29.485   3.776
73388W        W37156   6.705  10.293  14.282
73389W        W37157   2.448   0.494  12.095
73390W        W37158  34.540  18.286   2.402
73391W        W37159  22.648  34.935   4.322
73392W        W37160  36.578  13.670  11.510
73393W        W37161   3.745   2.332   3.694
73394W        W37162  40.915  41.426   0.436
73395W        W37163  42.896  11.753  12.533
73396W        W37164  18.659   1.814   2.318
73397W        W37165  39.871  35.372  11.017
73398W        W37166  37.043  28.670  10.615
73399W        W37167  27.647  31.106  14.815
73400W        W37168  23.998  30.978   4.251
73401W        W37169  20.097  12.234  13.395
73402W        W37170  17.094  19.154  13.856
73403W        W37171  37.538   4.814  14.991
73404W        W37172  19.172  18.681  13.805
73405W        W37173  30.594  13.687   0.872
73406W        W37174  25.713  12.850  11.922
73407W        W37175  39.894  33.948   1.211
73408W        W37176  44.812   9.703  13.055
73409W        W37177  32.505  43.847  10.972
73410W        W37178  22.223  29.167   2.843
73411W        W37179  12.343  16.661  14.862
73412W        W37180  16.807  22.613   4.244
73413W        W37181  13.209  32.954  11.062
73414W        W37182  18.270   9.653  11.429
73415W        W37183  19.745  38.852   1.381
73416W        W37184  23.691   5.868  14.028
73417W        W37185  19.138  29.567  12.893
73418W        W37186  34.933  42.907   1.264
73419W        W37187  43.347  25.537   3.801
73420W        W37188  35.457  23.164   1.865
73421W        W37189  14.125  17.124   1.451
73422W        W37190   2.465  24.529   0.358
73423W        W37191   0.911  38.886  11.116
73424W        W37192  29.978  11.835  14.322
73425W        W37193  31.134   2.427   2.897
73426W        W37194  33.467  21.185  12.941
73427W        W37195  16.573  13.201  13.453
73428W        W37196  13.834  39.556  14.932
73429W        W37197  13.318  24.990  12.932
73430W        W37198  30.549   4.824   2.381
73431W        W37199  40.914  30.147  14.894
73432W        W37200  30.132  18.786  12.068
73433W        W37201  27.125  12.856   1.859
73434W        W37202  12.241   0.867   4.114
73435W        W37203  38.499  32.066  12.441
73436W        W37204  10.370  26.677  13.039
73437W        W37205   7.690  35.907   1.837
73438W        W37206  35.533  33.071   1.857
73439W        W37207  12.804  35.591   3.782
73440W        W37208  14.271   4.704   3.335
73441W        W37209  35.452  20.639  12.978
73442W        W37210  13.612  23.619  10.131
73443W        W37211  29.011   5.891   4.238
73444W        W37212  13.741  23.138  13.541
73445W        W37213  24.689  39.318   2.196
73446W        W37214  37.578  36.429   4.817
73447W        W37215  40.346  44.377  11.100
73448W        W37216  27.994  19.164   2.270
73449W        W37217  26.000  36.879  14.465
73450W        W37218   5.349  20.705   4.614
73451W        W37219  11.325   3.858  13.817
73452W        W37220  32.419   7.328   3.353
73453W        W37221   3.904  40.464   1.450
73454W        W37222   3.320   3.341   2.899
73455W        W37223  16.604  23.172   9.441
73456W        W37224  34.947  37.893   4.149
73457W        W37225   4.334  12.638  13.033
73458W        W37226  30.440  13.693   3.331
73459W        W37227   1.865  41.826  13.372
73460W        W37228  21.605   3.916   1.704
73461W        W37229   1.889  31.489   2.340
73462W        W37230   6.770  17.689   4.133
73463W        W37231  31.944  16.719   0.815
73464W        W37232   6.348  16.271   1.701
73465W        W37233  20.655  35.604   1.321
73466W        W37234  12.770   2.254   3.755
73467W        W37235  23.525  36.042  11.577
73468W        W37236  20.608  41.373  14.856
73469W        W37237  32.523  21.038   4.287
73470W        W37238  44.464  17.755  12.560
73471W        W37239  15.792  13.169   2.683
73472W        W37240  23.606  12.745  11.108
73473W        W37241  43.891  27.541   0.290
73474W        W37242  15.207  37.859  11.409
73475W        W37243  24.037  38.819   0.902
73476W        W37244   2.868  27.062   2.268
73477W        W37245  25.179  19.234  12.571
73478W        W37246  27.045  12.774  11.450
73479W        W37247  17.066   5.896  10.533
73480W        W37248   8.190  19.568  12.921
73481W        W37249  37.374  17.751   2.842
73482W        W37250  35.975   3.764   2.900
73483W        W37251  24.577  26.952   2.825
73484W        W37252  30.429   8.727  11.103
73485W        W37253   8.690   0.761  11.444
73486W        W37254  20.587  21.134   4.269
73487W        W37255  19.655  30.418  10.045
73488W        W37256  25.487  21.555   2.390
73489W        W37257  33.974  10.255  13.897
73490W        W37258  36.880   1.918   2.209
73491W        W37259   7.308  26.040   3.807
73492W        W37260  43.454  24.523   0.402
73493W        W37261   8.700  15.218  14.409
73494W        W37262   2.278  17.696  12.921
73495W        W37263  38.845  38.519   1.925
73496W        W37264   9.852  27.094   1.251
73497W        W37265  13.643  28.146  14.284
73498W        W37266  17.618  26.084  14.003
73499W        W37267  27.023  19.639   1.401
73500W        W37268  22.209  27.035  12.359
73501W        W37269   3.316   6.214   4.613
73502W        W37270  34.592  42.861  14.480
73503W        W37271   7.855   7.738  13.027
73504W        W37272  34.495   7.365   3.809
73505W        W37273  23.062  11.313   3.343
73506W        W37274  18.126  18.580   5.199
73507W        W37275   3.309  25.543   4.334
73508W        W37276  24.209  41.392   5.172
73509W        W37277  39.420  29.543   4.334
73510W        W37278   6.206  13.125   3.743
73511W        W37279  21.586  14.159   9.989
73512W        W37280  27.628  11.347  12.027
73513W        W37281  16.596  40.995   3.674
73514W        W37282  29.022  41.296   4.315
73515W        W37283  15.633   0.453   3.652
73516W        W37284  29.650  19.168  11.453
73517W        W37285  13.264  30.123  12.516
73518W        W37286  23.713  33.974  12.871
73519W        W37287  12.122  12.300   2.322
73520W        W37288  10.343   2.914  11.857
73521W        W37289  17.292   9.347   0.922
73522W        W37290  19.146  10.710  14.401
73523W        W37291   5.924  17.691   0.410
73524W        W37292  29.943   1.300  11.921
73525W        W37293  30.546  11.676  14.875
73526W        W37294  30.509  13.670   1.341
73527W        W37295  22.661  30.451   9.948
73528W        W37296  17.189  41.345   4.277
73529W        W37297  19.054  29.435  14.846
73530W        W37298  24.682  23.195   3.151
73531W        W37299  13.141   4.834  10.098
73532W        W37300  29.457  44.902   3.803
73533W        W37301  23.180  27.014   1.932
73534W        W37302  19.047  38.495   0.469
73535W        W37303  43.784  18.134  13.381
73536W        W37304  34.559   3.267   2.281
73537W        W37305  34.021  23.589  14.372
73538W        W37306   9.327   0.848   4.119
73539W        W37307  10.216  36.565  13.544
73540W        W37308  16.107  19.764   1.921
73541W        W37309  22.214  34.921   4.711
73542W        W37310  24.535  21.114  13.037
73543W        W37311   0.436  33.412  10.947
73544W        W37312  10.848  35.103   3.655
73545W        W37313  20.681  17.619  12.375
73546W        W37314  21.127  41.791  13.043
73547W        W37315   8.364  23.589  13.054
73548W        W37316   9.822   6.352   3.714
73549W        W37317   5.817   8.360   2.708
73550W        W37318  41.850   0.793  14.915
73551W        W37319  19.663  28.055   4.238
73552W        W37320  40.357  13.322  13.507
73553W        W37321   5.405  26.168   0.734
73554W        W37322  22.584   1.303   3.788
73555W        W37323   2.943  33.075  13.029
73556W        W37324  44.261   7.335   3.335
73557W        W37325  29.601  33.061   0.326
73558W        W37326  10.258  31.017   3.854
73559W        W37327   3.953  29.045   1.789
73560W        W37328   0.267  20.736  12.908
73561W        W37329  38.565  39.920   0.771
73562W        W37330   8.690  35.859  14.287
73563W        W37331  12.333  25.675   1.258
73564W        W37332  26.656   3.286  11.880
73565W        W37333   3.728   4.816  11.594
73566W        W37334  42.400   4.359   4.699
73567W        W37335  30.971   3.879   4.686
73568W        W37336  41.793  29.054   4.146
73569W        W37337  28.680  41.036  11.464
73570W        W37338   0.494  14.101   0.838
73571W        W37339  27.464  22.501  12.042
73572W        W37340  15.586   9.272  14.980
73573W        W37341  31.918   7.255  11.376
73574W        W37342  38.521  10.149  11.947
73575W        W37343  31.901  19.185   5.211
73576W        W37344  22.098  35.020  10.492
73577W        W37345  12.205  43.774  11.449
73578W        W37346  38.012  10.281  11.937
73579W        W37347   5.780  26.534   2.722
73580W        W37348  32.982  38.835  12.507
73581W        W37349  27.483   1.816  14.834
73582W        W37350   5.276  19.193   1.271
73583W        W37351  14.716  14.178   0.813
73584W        W37352  20.612   7.236   0.316
73585W        W37353   9.810  42.289  11.897
73586W        W37354   9.852  36.375   3.339
73587W        W37355  33.423  30.495  12.000
73588W        W37356  37.899  39.008  10.050
73589W        W37357   1.778  32.125  10.548
73590W        W37358  14.219  44.501  13.310
73591W        W37359  35.989  33.100  10.904
73592W        W37360  21.646  33.916  12.966
73593W        W37361  43.283  19.092   1.412
73594W        W37362  25.699  36.078  11.435
73595W        W37363  43.460   7.670   0.373
73596W        W37364   1.443  14.264   4.189
73597W        W37365   4.715  18.284  11.035
73598W        W37366  29.527  37.949   2.773
73599W        W37367  12.342   4.851  11.018
73600W        W37368   3.244  29.956  14.860
73601W        W37369  10.196  37.386   0.323
73602W        W37370  37.037  40.481   1.757
73603W        W37371   1.445  14.672   2.245
73604W        W37372   5.244  44.771   0.370
73605W        W37373  32.058  12.632  13.525
73606W        W37374   4.875   8.846   0.447
73607W        W37375  10.673  28.635  11.449
73608W        W37376  43.378  10.799   3.678
73609W        W37377   7.408   7.394   2.878
73610W        W37378  29.599  42.889   2.329
73611W        W37379  39.413  42.867  11.534
73612W        W37380  24.093   4.282   3.839
73613W        W37381  21.240  24.104   4.288
73614W        W37382   6.922  43.837  12.861
73615W        W37383   5.883   1.888   0.439
73616W        W37384  40.441  23.044  12.467
73617W        W37385  11.339  37.830   3.859
73618W        W37386   1.366   9.657   1.351
73619W        W37387   7.666  32.488   4.231
73620W        W37388  16.604  11.150   2.893
73621W        W37389  34.555  23.082  11.511
73622W        W37390  36.510  28.964   2.404
73623W        W37391  10.853  40.834   1.305
73624W        W37392  28.645  27.522   0.831
73625W        W37393  37.029   7.703  11.390
73626W        W37394  24.690  40.377  12.418
73627W        W37395  31.606  27.030   1.424
73628W        W37396   4.832  21.260   2.814
73629W        W37397  28.954  31.640  10.986
73630W        W37398  10.776  14.632  14.453
73631W        W37399  31.579  22.724  12.957
73632W        W37400  25.046   5.814  11.011
73633W        W37401  35.566  21.724  14.368
73634W        W37402  27.532  24.570  10.936
73635W        W37403   2.385  33.876  14.824
73636W        W37404   3.242  34.013   4.729
73637W        W37405  23.141  22.174  12.027
73638W        W37406  33.427  27.638   3.639
73639W        W37407   5.332  21.218  12.915
73640W        W37408   9.809  38.990   1.797
73641W        W37409  22.191  34.418   3.372
73642W        W37410  37.868  29.650   4.119
73643W        W37411  21.260  11.744   2.330
73644W        W37412   2.399  32.065   1.307
73645W        W37413  19.191   7.414   1.824
73646W        W37414  19.707  31.463  13.391
73647W        W37415   7.277   6.337   2.818
73648W        W37416  37.037   4.735   4.795
73649W        W37417   5.768  39.354   4.302
73650W        W37418  41.397  41.499  13.495
73651W        W37419  18.626  12.311   0.455
73652W        W37420  17.634  36.008   4.618
73653W        W37421  22.648  12.289  13.818
73654W        W37422  41.014   1.806  10.454
73655W        W37423  41.023  23.149  13.916
73656W        W37424  29.594  13.124   0.321
73657W        W37425  19.733  43.970   0.403
73658W        W37426  11.791   9.299   3.796
73659W        W37427  18.191   9.271   4.261
73660W        W37428   6.812   2.234  13.307
73661W        W37429  17.670  10.813  13.491
73662W        W37430  11.372  18.174   0.433
73663W        W37431  35.477  33.521  13.016
73664W        W37432  31.125  22.247  12.944
73665W        W37433   7.780   1.957   4.743
73666W        W37434  42.997   6.705  14.487
73667W        W37435   6.888  24.995  12.083
73668W        W37436  16.634  20.066  12.976
73669W        W37437  23.210  31.568  11.419
73670W        W37438   0.443   4.210   4.152
73671W        W37439  35.444  17.791  12.438
73672W        W37440  42.900  22.217   1.351
73673W        W37441   4.863  12.354  11.871
73674W        W37442  13.601  37.984  13.391
73675W        W37443  37.028  35.050  12.914
73676W        W37444  16.723  33.033  14.478
73677W        W37445  35.364   8.781   3.636
73678W        W37446  11.150   7.890   1.695
73679W        W37447  42.786   8.744  12.429
73680W        W37448  44.811  27.014  11.003
73681W        W37449   7.186  14.273   0.953
73682W        W37450  44.785   8.361   2.406
73683W        W37451  22.138   0.491   1.889
73684W        W37452  18.120   5.289   4.349
73685W        W37453   4.870  44.939   1.281
73686W        W37454  13.739   3.249   1.446
73687W        W37455  36.029  25.496  13.826
73688W        W37456   1.954  14.671  13.814
73689W        W37457  11.198  18.764   0.959
73690W        W37458   9.887  32.525  12.346
73691W        W37459  39.495  11.274  14.029
73692W        W37460  26.103   5.373   1.379
73693W        W37461  26.508   2.299   5.226
73694W        W37462   4.296  19.139   2.202
73695W        W37463  21.552  30.574  12.945
73696W        W37464  41.363  12.197   3.213
73697W        W37465  37.457  26.082  12.567
73698W        W37466   3.348   4.944   4.763
73699W        W37467  37.018  32.405  14.962
73700W        W37468  27.116  21.654   1.390
73701W        W37469  44.855  43.352  10.576
73702W        W37470  15.137  16.701   4.673
73703W        W37471   8.183  17.669   3.685
73704W        W37472   3.866  27.052   3.760
73705W        W37473  39.038  38.885  10.625
73706W        W37474   5.706   1.776  13.842
73707W        W37475  19.635  38.964  12.026
73708W        W37476  19.671  41.359  13.809
73709W        W37477   4.221  36.415   4.753
73710W        W37478  26.976  16.160  11.962
73711W        W37479  13.293  21.125  12.560
73712W        W37480  44.858  33.540  12.959
73713W        W37481   5.395  32.064   1.313
73714W        W37482  19.127  10.858  13.875
73715W        W37483   8.365  33.952   1.219
73716W        W37484  21.220  27.196   3.284
73717W        W37485   4.219   5.238  11.945
73718W        W37486  35.540  19.148  11.899
73719W        W37487  22.703  44.785  13.963
73720W        W37488  33.029  15.680  10.023
73721W        W37489  27.513  33.897   5.572
73722W        W37490  39.883   5.876  14.874
73723W        W37491  14.791  35.080   3.368
73724W        W37492  29.653  12.740   0.268
73725W        W37493  26.631   6.218   0.896
73726W        W37494  24.101   7.347   0.943
73727W        W37495  15.687  40.316  13.843
73728W        W37496   7.825  22.222   3.204
73729W        W37497  23.216  16.230   3.332
73730W        W37498  18.066  26.997   2.402
73731W        W37499  17.575  12.624   3.180
73732W        W37500  36.940  40.921  14.972
73733W        W37501  31.101  19.582   3.784
73734W        W37502  36.570   4.822   3.277
73735W        W37503  34.928  29.434   2.891
73736W        W37504  12.323   0.325   1.410
73737W        W37505  30.032   0.790   4.750
73738W        W37506  30.431  32.492   0.891
73739W        W37507  30.536  22.137  14.323
73740W        W37508  14.245   0.318  14.392
73741W        W37509  20.180  32.913  13.977
73742W        W37510  25.007   3.250  14.447
73743W        W37511  33.030  18.709   2.317
73744W        W37512  14.206  30.004  12.921
73745W        W37513  20.612  10.209  10.604
73746W        W37514  18.747  15.246   4.719
73747W        W37515  37.409  15.618  11.003
73748W        W37516  41.988  18.760  11.093
73749W        W37517  22.647  30.494   0.370
73750W        W37518   5.880  30.643  12.549
73751W        W37519  44.486  20.768  11.076
73752W        W37520  37.074  21.512   1.396
73753W        W37521  33.525  43.412  12.064
73754W        W37522  10.713  32.916   3.670
73755W        W37523  26.499  31.519   2.849
73756W        W37524  24.587  17.798  13.488
73757W        W37525  41.793  14.632  10.910
73758W        W37526  18.765  23.532  14.788
73759W        W37527  39.358  35.398  13.473
73760W        W37528  19.540  20.123  11.923
73761W        W37529  34.441   2.832   3.355
73762W        W37530  19.165  28.976   2.390
73763W        W37531   2.346   7.358   1.733
73764W        W37532  44.269  14.277   4.226
73765W        W37533  16.292  20.156  14.984
73766W        W37534  43.806  37.863   1.755
73767W        W37535  27.949  37.515   4.252
73768W        W37536   1.380  25.976   0.918
73769W        W37537   2.825  31.004   4.136
73770W        W37538  40.468  40.371   9.934
73771W        W37539  34.018  26.667   3.662
73772W        W37540   7.309  37.531   0.869
73773W        W37541  23.058  17.150   2.789
73774W        W37542  24.530   8.376  11.423
73775W        W37543   9.158  29.031   2.300
73776W        W37544   0.273   5.308  13.034
73777W        W37545  42.411  28.971   2.286
73778W        W37546  37.021  38.962  10.496
73779W        W37547  42.852  29.469   5.258
73780W        W37548  28.455   9.348   0.933
73781W        W37549  25.987  38.855   1.701
73782W        W37550  10.829  22.046  12.349
73783W        W37551  41.993  32.501  10.438
73784W        W37552  13.264  32.436  11.426
73785W        W37553  26.982  37.373  14.826
73786W        W37554  16.152  18.611   1.851
73787W        W37555  39.412  10.334  10.639
73788W        W37556  18.206   2.289  13.015
73789W        W37557  42.397  28.550   1.331
73790W        W37558  35.967   7.382  10.921
73791W        W37559  11.350  40.838  11.969
73792W        W37560   7.322  14.189   1.355
73793W        W37561  36.904  29.654  10.064
73794W        W37562  16.796   1.871  12.036
73795W        W37563  11.259  31.916   0.320
73796W        W37564   4.335  22.221   1.392
73797W        W37565   5.919   9.361  11.968
73798W        W37566  38.986  44.790  13.375
73799W        W37567  20.221  21.553  13.801
73800W        W37568  41.904  22.677   1.309
73801W        W37569  41.329  27.118   4.136
73802W        W37570  34.429  32.903  11.379
73803W        W37571   1.920   9.225  12.957
73804W        W37572   6.705  35.561  12.011
73805W        W37573   1.755  13.645   2.217
73806W        W37574   0.444  25.676  11.929
73807W        W37575  18.747  35.480   2.868
73808W        W37576  23.206  24.544   3.769
73809W        W37577  41.360  42.898  12.413
73810W        W37578  28.022  11.865  11.504
73811W        W37579  29.505  18.140   1.430
73812W        W37580  22.032  20.210  11.074
73813W        W37581   5.406  10.193  14.390
73814W        W37582  27.033   3.459   3.313
73815W        W37583  21.195  33.389   0.419
73816W        W37584  40.498  25.964   1.844
73817W        W37585  30.098  31.535  10.422
73818W        W37586  41.882  38.448  13.875
73819W        W37587   0.943  43.400  11.053
73820W        W37588  23.731  33.129  12.418
73821W        W37589   0.981  43.804  10.586
73822W        W37590   2.826  39.483   4.233
73823W        W37591   8.344  31.966   2.270
73824W        W37592  20.038  15.198   1.852
73825W        W37593  17.802  35.040   2.364
73826W        W37594  19.109   8.854  11.471
73827W        W37595  11.324  20.232   3.653
73828W        W37596  35.058  35.576   0.464
73829W        W37597  14.590  22.667  12.901
73830W        W37598   5.403   4.203   2.382
73831W        W37599  34.111  39.353  11.433
73832W        W37600  22.535  13.707   4.334
73833W        W37601  29.646  25.119   3.250
73834W        W37602  40.927  42.338   2.398
73835W        W37603  22.206  22.506   1.725
73836W        W37604   1.279  33.030  14.803
73837W        W37605  32.556  21.712  14.792
73838W        W37606  37.551   6.293  11.404
73839W        W37607   5.418  18.095   0.762
73840W        W37608  36.861  29.495   1.279
73841W        W37609  44.272  26.620  11.524
73842W        W37610  37.496   6.739  13.911
73843W        W37611  44.989  34.473   0.864
73844W        W37612  18.214  29.665   2.858
73845W        W37613  25.197  16.637  14.489
73846W        W37614  43.937  35.101   1.727
73847W        W37615  11.154  14.310  11.010
73848W        W37616  17.636  10.750  14.968
73849W        W37617   8.401   9.711  12.472
73850W        W37618  13.655  42.996   3.289
73851W        W37619  32.445  31.076   4.656
73852W        W37620  10.257  33.963   2.772
73853W        W37621  16.641  12.155  13.867
73854W        W37622  13.719  42.959  14.439
73855W        W37623  29.056  15.160   3.722
73856W        W37624  17.712  37.062   3.309
73857W        W37625  33.935  38.853  12.457
73858W        W37626  26.207  19.759   3.279
73859W        W37627  22.618  10.848   0.437
73860W        W37628  18.137   4.815  10.524
73861W        W37629   0.791  40.419   2.704
73862W        W37630   2.724  34.026  12.533
73863W        W37631  11.141  32.032   1.323
73864W        W37632  29.485  21.528  13.792
73865W        W37633  30.430  30.520   1.834
73866W        W37634   3.863  19.248   4.796
73867W        W37635   5.236  26.051   0.290
73868W        W37636  25.006  10.845   1.369
73869W        W37637  29.025  39.974  12.421
73870W        W37638  43.008   5.293   3.184
73871W        W37639   6.417  11.679   3.637
73872W        W37640   0.876   5.223  10.958
73873W        W37641   4.275  43.335  14.500
73874W        W37642   2.276  21.702   3.729
73875W        W37643  38.385  43.827  12.548
73876W        W37644   2.243  28.991  14.839
73877W        W37645  35.912   1.779   3.734
73878W        W37646  24.078  35.540   0.867
73879W        W37647   1.915  19.277  10.576
73880W        W37648  15.274  26.544  13.933
73881W        W37649  23.151  16.678  10.452
73882W        W37650   6.202  41.480  11.380
73883W        W37651  34.431  34.422  10.416
73884W        W37652  35.061   0.754  13.534
73885W        W37653   6.400  17.704  13.855
73886W        W37654   3.718  30.509   1.899
73887W        W37655  19.180  14.818   2.725
73888W        W37656  18.190  26.609   4.690
73889W        W37657  25.677   9.200   4.739
73890W        W37658  44.458  32.475   1.268
73891W        W37659  22.251  35.551  10.993
73892W        W37660  32.419   5.855   0.926
73893W        W37661  27.580  20.078  11.101
73894W        W37662  35.093   9.303   5.741
73895W        W37663  33.117  20.159   3.710
73896W        W37664  37.561  35.426  10.619
73897W        W37665  28.953  29.993   1.869
73898W        W37666  20.627  25.110   2.845
73899W        W37667  43.400  13.824  14.804
73900W        W37668  38.498  25.078   0.480
73901W        W37669   9.271  18.107  14.949
73902W        W37670  26.623  13.204  10.946
73903W        W37671  33.599  12.170  13.412
73904W        W37672  22.155  12.645  10.588
73905W        W37673  28.440  23.065  13.824
73906W        W37674   2.461   4.213   3.642
73907W        W37675  10.155  13.240   3.783
73908W        W37676  35.060  43.414   3.714
73909W        W37677  39.017  24.149  13.322
73910W        W37678  28.977   1.930  10.432
73911W        W37679  24.213   1.964  11.098
73912W        W37680  15.642  19.205   4.340
73913W        W37681  16.160  30.641   0.258
73914W        W37682  30.913  35.088   0.869
73915W        W37683   9.643  31.069   1.737
73916W        W37684  27.487   3.310  11.537
73917W        W37685   2.858  27.017   2.693
73918W        W37686  29.129   4.247  12.544
73919W        W37687  11.826  26.035  11.568
73920W        W37688  23.219  25.515   4.225
73921W        W37689   9.734  34.445   4.762
73922W        W37690  42.937  37.925  14.426
73923W        W37691  44.298  38.977   2.819
73924W        W37692   7.205  30.587  13.876
73925W        W37693   7.668  28.113   0.298
73926W        W37694  15.183  30.645   4.718
73927W        W37695  18.294  39.009  10.953
73928W        W37696  12.215  23.067   1.419
73929W        W37697  37.833  43.863  14.362
73930W        W37698  16.107  18.059   3.309
73931W        W37699  38.486  10.372  11.430
73932W        W37700  26.462  23.531  13.832
73933W        W37701  10.260  12.727   2.232
73934W        W37702  38.484  40.834  13.937
73935W        W37703  40.445   4.273  14.308
73936W        W37704  18.556  24.187   0.851
73937W        W37705  31.559  30.442  14.405
73938W        W37706  11.675  25.187  11.911
73939W        W37707   4.823  34.446   2.883
73940W        W37708  37.509  25.677   1.764
73941W        W37709   3.851  10.221  14.893
73942W        W37710  37.043  44.939   4.603
73943W        W37711  12.748  16.738   0.876
73944W        W37712  37.065  41.008   4.293
73945W        W37713  14.617  13.170   1.382
73946W        W37714   4.875  34.602  10.488
73947W        W37715  31.465  11.797  12.871
73948W        W37716   2.340  23.557   2.265
73949W        W37717  22.998  39.455   1.906
73950W        W37718  38.387  33.467   4.139
73951W        W37719  34.944  34.542  11.118
73952W        W37720  19.601  34.912  10.947
73953W        W37721   7.367  13.633   4.682
73954W        W37722  44.340   7.253  12.983
73955W        W37723  10.163  30.973  14.009
73956W        W37724  44.771  35.007   3.273
73957W        W37725  11.701   5.216  14.861
73958W        W37726  32.924  25.020   2.401
73959W        W37727  34.586  34.060  12.891
73960W        W37728   9.191   7.747   1.862
73961W        W37729  26.610  44.480  10.972
73962W        W37730  16.590   5.862  14.502
73963W        W37731  17.072  18.579  11.549
73964W        W37732  31.978  21.630  11.535
73965W        W37733  29.486  16.247   3.697
73966W        W37734   8.262  21.659   1.221
73967W        W37735  12.211  14.316  13.443
73968W        W37736  37.946  14.615  13.018
73969W        W37737  27.959   7.189   4.609
73970W        W37738  17.663  28.543   4.142
73971W        W37739  41.509  27.633   3.155
73972W        W37740  36.939  32.899  11.426
73973W        W37741  24.626  33.470   4.261
73974W        W37742  26.647   3.758   4.323
73975W        W37743  32.497  42.941   2.382
73976W        W37744  19.654   7.175  13.438
73977W        W37745  41.865  10.664  13.433
73978W        W37746  22.661  43.001   1.868
73979W        W37747  30.153  40.372   0.802
73980W        W37748  31.024  33.072   0.856
73981W        W37749  14.643  41.951  11.011
73982W        W37750  35.898  43.839  14.938
73983W        W37751  19.093  34.506   1.737
73984W        W37752  25.173  14.710  13.958
73985W        W37753  19.734   7.810   4.619
73986W        W37754  38.403  39.851  11.959
73987W        W37755  44.299  33.522   1.770
73988W        W37756  18.215  34.873  14.926
73989W        W37757  16.105  43.805  14.019
73990W        W37758  11.713  17.777  10.930
73991W        W37759  20.221  43.368   2.254
73992W        W37760  11.790   0.770   2.291
73993W        W37761  19.710  24.197  14.006
73994W        W37762   3.898  29.054  11.115
73995W        W37763  18.760  42.306  13.390
73996W        W37764   3.817  41.388  14.381
73997W        W37765  39.415  10.314  13.053
73998W        W37766   9.269  14.251   4.338
73999W        W37767  20.268   6.366   0.345
74000W        W37768  16.086  11.174  13.026
74001W        W37769  29.110  33.024  13.479
74002W        W37770  11.247  33.594   1.262
74003W        W37771   4.391   9.354  12.997
74004W        W37772  15.221  24.146   1.899
74005W        W37773   3.886   0.744   2.720
74006W        W37774  18.074   3.947  13.496
74007W        W37775  24.133  24.697  10.574
74008W        W37776  21.729  29.498   0.842
74009W        W37777  21.696  41.993  11.395
74010W        W37778  21.030   2.236  11.497
74011W        W37779   2.337   7.718   3.179
74012W        W37780   8.167  21.728  14.425
74013W        W37781  24.047  18.277  12.369
74014W        W37782   2.882  11.722  12.420
74015W        W37783   1.481  30.437  10.515
74016W        W37784   4.854  19.670  10.112
74017W        W37785  42.818  25.494  14.419
74018W        W37786  24.063  30.558  12.475
74019W        W37787  19.624  12.221  14.799
74020W        W37788  13.232  32.927   0.797
74021W        W37789  40.980  34.586   3.156
74022W        W37790  37.060  31.122   2.713
74023W        W37791  34.446   7.720   4.322
74024W        W37792  42.395  17.143   3.703
74025W        W37793  10.760  38.529   2.751
74026W        W37794   0.788  17.674  11.582
74027W        W37795   4.408  33.589   1.925
74028W        W37796   2.839   7.862  10.568
74029W        W37797   1.761  35.374  13.456
74030W        W37798  17.670   2.441   4.215
74031W        W37799  32.983  12.754  10.449
74032W        W37800  31.581   6.785   2.269
74033W        W37801   1.891   2.403   2.225
74034W        W37802  20.273  39.430   2.892
74035W        W37803  12.734  43.955  13.966
74036W        W37804  17.727   3.890  12.016
74037W        W37805  16.751   7.811  10.510
74038W        W37806  39.384  38.927  14.868
74039W        W37807   4.399  42.017   3.315
74040W        W37808  36.957  20.125   0.950
74041W        W37809   9.210   4.363  13.411
74042W        W37810  16.207  42.910  14.448
74043W        W37811  14.205  19.751   2.264
74044W        W37812  10.753  35.567   4.806
74045W        W37813  17.633  17.608  11.600
74046W        W37814  22.725  15.808   0.355
74047W        W37815  40.322   7.210   2.419
74048W        W37816  32.912   4.869  12.957
74049W        W37817  42.795  24.513  14.792
74050W        W37818  30.084  22.120  11.578
74051W        W37819   2.805  28.039  11.481
74052W        W37820  36.546  26.556   3.637
74053W        W37821  40.051  25.481  11.085
74054W        W37822  33.493  17.798  12.566
74055W        W37823  26.029  15.743  10.531
74056W        W37824  24.486  36.063  13.814
74057W        W37825  16.279  43.973   2.725
74058W        W37826  28.663  41.333  10.488
74059W        W37827  32.535  20.057   2.306
74060W        W37828  32.942  31.130  13.894
74061W        W37829   1.423  21.256  10.598
74062W        W37830  10.181  19.753   0.309
74063W        W37831  26.508  43.496   0.300
74064W        W37832   8.668   0.490   2.694
74065W        W37833  17.198  40.846  12.549
74066W        W37834  38.911  34.889   2.785
74067W        W37835  24.154  43.844  11.032
74068W        W37836  24.158   2.438   2.756
74069W        W37837  32.440  12.267   4.767
74070W        W37838  35.068  18.712  12.872
74071W        W37839  23.121  31.452   4.137
74072W        W37840  22.169  25.626  12.543
74073W        W37841  31.908  18.166   9.995
74074W        W37842  31.951  22.128   0.305
74075W        W37843  44.777   2.318  10.535
74076W        W37844  38.862  33.941   2.202
74077W        W37845  27.584  26.994  13.923
74078W        W37846  28.638  31.061  13.799
74079W        W37847  10.189  42.881   0.245
74080W        W37848  19.768  40.444  14.997
74081W        W37849  10.825  26.689   1.241
74082W        W37850   5.242  18.227  11.922
74083W        W37851   9.195  30.045  13.487
74084W        W37852  20.125  16.624   1.273
74085W        W37853  40.407   7.736   2.810
74086W        W37854  41.506  43.978  12.562
74087W        W37855  30.117  10.201   0.744
74088W        W37856  10.269  28.940   1.796
74089W        W37857  21.030  21.631   4.654
74090W        W37858  37.428  10.381  12.892
74091W        W37859  37.029  24.094   1.379
74092W        W37860  31.984  32.963   4.276
74093W        W37861   4.434  37.403  12.935
74094W        W37862  11.678   9.691   1.891
74095W        W37863  17.142  38.889  10.409
74096W        W37864   1.846  38.913   5.269
74097W        W37865  31.537  10.140  12.957
74098W        W37866  37.831  28.991  10.507
74099W        W37867   9.740  26.548   2.852
74100W        W37868  16.706  32.523  14.800
74101W        W37869  19.039  26.025   2.670
74102W        W37870  10.816  38.017   2.363
74103W        W37871  24.611  38.836  11.485
74104W        W37872  29.534   8.336   0.468
74105W        W37873  40.005  20.257  12.036
74106W        W37874  42.880  23.169  11.464
74107W        W37875  10.192  18.785   3.818
74108W        W37876   6.254  35.482   4.342
74109W        W37877   3.448  40.462  14.892
74110W        W37878  18.213  40.005  11.491
74111W        W37879  16.674  31.552  11.936
74112W        W37880   3.341   4.699   3.323
74113W        W37881  27.964  28.561  13.970
74114W        W37882  10.811  10.211  14.392
74115W        W37883  21.614  38.823  12.560
74116W        W37884  38.985  28.665  12.500
74117W        W37885  32.926  17.168  11.499
74118W        W37886  20.569  28.033   1.326
74119W        W37887  23.520  16.722   0.456
74120W        W37888  24.622  12.208  11.895
74121W        W37889   1.779  16.793  12.563
74122W        W37890  18.784  38.387  13.516
74123W        W37891  20.602  26.091  14.453
74124W        W37892   1.853  34.484  14.292
74125W        W37893  37.360  15.630   0.376
74126W        W37894  26.094  31.648  13.315
74127W        W37895   5.914  18.757  13.316
74128W        W37896  18.116   1.438  13.950
74129W        W37897  33.383  42.935   2.779
74130W        W37898   8.202   9.835  14.892
74131W        W37899   7.760  38.912   3.349
74132W        W37900  23.704  11.855  13.430
74133W        W37901  41.866   9.305   2.757
74134W        W37902  37.913  25.044   1.902
74135W        W37903   4.434  37.064  14.336
74136W        W37904  39.049  43.434  10.131
74137W        W37905  29.620  18.057  11.892
74138W        W37906  26.978  11.290  14.878
74139W        W37907  43.283  33.471   0.790
74140W        W37908  14.184  33.495  13.906
74141W        W37909  16.269  34.372  12.489
74142W        W37910  19.040  24.530  13.407
74143W        W37911  28.035   5.373   3.736
74144W        W37912   8.170   2.903   4.200
74145W        W37913  36.557  14.634  14.938
74146W        W37914  19.274  15.087   2.680
74147W        W37915  35.397  40.848  13.983
74148W        W37916  15.256  12.327   0.863
74149W        W37917  13.128  43.341   0.845
74150W        W37918  30.616  15.662   0.309
74151W        W37919  15.701  26.508  12.502
74152W        W37920   6.775  32.974  13.504
74153W        W37921  23.595  17.288   2.775
74154W        W37922  34.927  30.523  10.069
74155W        W37923   5.787  25.675  11.912
74156W        W37924   8.209   9.211   0.727
74157W        W37925  19.674   7.758  14.005
74158W        W37926  27.972   4.920  12.489
74159W        W37927  36.591  42.901   4.606
74160W        W37928  26.078  33.929  14.364
74161W        W37929   9.862  25.134  12.015
74162W        W37930  10.249  22.674  11.971
74163W        W37931  23.684   5.712   3.691
74164W        W37932  30.646  38.408   1.236
74165W        W37933   6.199  37.842  13.041
74166W        W37934  19.718   6.860  12.096
74167W        W37935  31.519  33.405  12.873
74168W        W37936  30.114  31.120   3.795
74169W        W37937   6.388  38.410   1.333
74170W        W37938  36.863   4.776   2.887
74171W        W37939  20.038   0.896  12.402
74172W        W37940  19.599   7.187   0.855
74173W        W37941  17.780  40.871  10.983
74174W        W37942  35.430  44.458   0.380
74175W        W37943  16.237  39.422   4.227
74176W        W37944  24.602  28.969  11.891
74177W        W37945   9.352   0.839   0.875
74178W        W37946   3.754   6.866  12.388
74179W        W37947   6.678  26.493   2.180
74180W        W37948  42.363  21.567   2.244
74181W        W37949   0.777  29.130   4.789
74182W        W37950  34.530  44.435  12.053
74183W        W37951  17.221  30.028  10.524
74184W        W37952  32.039   5.884  10.641
74185W        W37953   7.835  17.598  11.089
74186W        W37954  30.413  17.091  11.436
74187W        W37955  42.840  16.611  10.587
74188W        W37956   1.976  44.861  10.408
74189W        W37957  38.018  30.626  12.980
74190W        W37958  41.405   1.764  14.431
74191W        W37959  19.712  25.078  13.975
74192W        W37960   2.952   3.774  12.484
74193W        W37961  17.586  39.950  14.021
74194W        W37962  41.384  10.657   2.308
74195W        W37963   4.928  24.053  14.276
74196W        W37964   0.879  16.686   4.688
74197W        W37965  42.846  20.727  14.805
74198W        W37966  13.202  10.781   0.940
74199W        W37967  33.527  41.036   2.407
74200W        W37968   3.839  34.109   1.815
74201W        W37969  17.097   3.268   5.265
74202W        W37970  14.747  36.507  14.424
74203W        W37971  12.741  14.760  10.460
74204W        W37972   3.265   3.876   3.800
74205W        W37973  13.242  20.761   1.222
74206W        W37974  10.805  13.608   2.694
74207W        W37975   8.273  37.524  13.820
74208W        W37976  11.790   1.332   3.324
74209W        W37977  26.583  44.844   3.306
74210W        W37978  44.978  44.498   4.696
74211W        W37979  12.354  28.565   3.159
74212W        W37980   3.327   4.732   0.255
74213W        W37981   7.879   3.359   2.834
74214W        W37982  42.417  25.127   3.823
74215W        W37983  30.482  21.752   0.925
74216W        W37984  11.194  28.174   1.339
74217W        W37985  25.586  17.156   4.250
74218W        W37986  34.911  34.444  14.841
74219W        W37987  40.947  35.580  13.006
74220W        W37988  32.019  28.994   3.775
74221W        W37989   3.358  12.162   4.324
74222W        W37990  24.221  29.458   4.834
74223W        W37991  10.198   9.653  11.531
74224W        W37992  13.278  33.391   0.304
74225W        W37993   3.842   5.259  11.582
74226W        W37994  18.250  12.736   1.785
74227W        W37995   8.196   5.797   4.808
74228W        W37996   7.772   0.322  13.543
74229W        W37997   0.456  37.870   5.272
74230W        W37998  21.621  23.622  11.901
74231W        W37999  19.191  32.479  11.919
74232W        W38000   9.328   8.656   0.906
74233W        W38001  43.380  11.315   4.607
74234W        W38002   9.249  41.893   1.812
74235W        W38003   7.827  16.227  10.931
74236W        W38004   7.777   5.846   2.320
74237W        W38005  25.969  12.748  14.994
74238W        W38006  35.427  17.608  13.402
74239W        W38007   6.370   9.717   4.771
74240W        W38008  28.675  14.815   3.375
74241W        W38009  25.582  24.051   1.236
74242W        W38010  20.194   8.178   0.434
74243W        W38011  41.467   0.771  10.955
74244W        W38012  24.164  21.085  11.105
74245W        W38013  42.295   1.892  12.529
74246W        W38014  12.654  12.217   0.865
74247W        W38015   2.384  38.363   0.945
74248W        W38016  34.054  43.422  11.987
74249W        W38017  18.137  29.026   0.411
74250W        W38018  10.224   5.718   3.810
74251W        W38019  35.986   4.762   3.805
74252W        W38020  30.909   4.821  11.943
74253W        W38021  38.359  10.649   1.401
74254W        W38022  38.933  30.001   0.476
74255W        W38023  20.760  15.088  12.523
74256W        W38024  44.901  28.489  14.393
74257W        W38025  42.362  40.413  13.984
74258W        W38026   6.867  37.054  11.990
74259W        W38027   8.680  34.577  10.100
74260W        W38028  23.067   2.430   1.780
74261W        W38029  20.082  26.672  10.968
74262W        W38030   6.239   0.466  10.411
74263W        W38031   7.280   4.782   2.306
74264W        W38032  41.857  36.420  11.006
74265W        W38033  39.900  42.361   1.365
74266W        W38034  41.468  44.470  12.879
74267W        W38035  25.211   6.811  13.541
74268W        W38036   3.225  40.821   3.172
74269W        W38037  37.389   6.256  14.808
74270W        W38038  43.828  31.149  12.960
74271W        W38039  15.112   9.225   4.157
74272W        W38040  23.571  43.903  12.566
74273W        W38041  29.971  14.111   2.291
74274W        W38042  20.106  10.717  10.481
74275W        W38043  21.634   6.405   2.271
74276W        W38044  15.677  39.971   2.738
74277W        W38045  35.921  42.851   1.861
74278W        W38046  18.061  20.764   4.622
74279W        W38047   9.204  15.620  11.572
74280W        W38048  22.181  11.233   4.769
74281W        W38049  12.224  39.545   0.314
74282W        W38050  25.488   1.836   0.412
74283W        W38051  19.172  37.943   3.648
74284W        W38052  40.506  24.596  14.471
74285W        W38053  23.078  42.430   1.841
74286W        W38054   8.283   9.295  11.415
74287W        W38055   6.768  12.652  14.005
74288W        W38056  13.704  36.945  13.981
74289W        W38057  15.158  10.142   1.828
74290W        W38058   7.312  31.962   4.697
74291W        W38059   0.396  38.490  10.955
74292W        W38060  23.696  22.137  12.016
74293W        W38061  21.523  13.257   1.816
74294W        W38062   0.924  12.708   5.278
74295W        W38063  10.671  29.136   3.253
74296W        W38064  34.041  20.051  10.957
74297W        W38065  24.616  21.656  12.556
74298W        W38066   8.391   2.879  13.360
74299W        W38067   4.927  26.070  13.859
74300W        W38068  41.321   3.874   4.677
74301W        W38069  23.167  32.535  12.049
74302W        W38070  40.331  13.301  13.035
74303W        W38071  20.582  39.456  13.798
74304W        W38072  29.962  39.518   3.315
74305W        W38073  26.589  29.503   5.283
74306W        W38074   2.783  12.167   2.828
74307W        W38075  17.640  41.451   4.820
74308W        W38076  11.676  37.471   2.373
74309W        W38077  28.968  24.976   4.299
74310W        W38078  13.612  33.877  14.786
74311W        W38079  15.201  42.464  14.984
74312W        W38080   1.360  31.443  10.432
74313W        W38081  41.808  35.081   0.286
74314W        W38082  14.590   1.854   0.774
74315W        W38083  12.770  41.353  12.968
74316W        W38084  26.076   7.263  10.474
74317W        W38085   7.368  36.982  14.937
74318W        W38086  18.068  13.624   4.205
74319W        W38087  38.526  36.868   4.821
74320W        W38088  37.933  44.424  10.138
74321W        W38089  40.443  29.529   2.710
74322W        W38090  30.596  15.794  11.604
74323W        W38091  37.534  24.489   0.405
74324W        W38092  20.711   4.267   1.789
74325W        W38093  41.830  40.382  10.141
74326W        W38094  19.136  42.488  13.346
74327W        W38095  17.189   5.291  14.494
74328W        W38096  21.199  25.118   2.364
74329W        W38097  20.746  11.279   3.196
74330W        W38098  24.673  24.587  13.945
74331W        W38099  26.087   9.204  12.449
74332W        W38100   1.353  22.557   1.405
74333W        W38101  40.010  33.081  13.315
74334W        W38102  36.458  32.537   2.290
74335W        W38103  36.959  40.304  14.423
74336W        W38104  19.209   2.917   2.367
74337W        W38105   8.896  41.970  14.913
74338W        W38106  11.837   1.939  13.959
74339W        W38107  39.560  33.059   0.838
74340W        W38108  24.655   6.300  14.957
74341W        W38109   4.421   8.830   1.866
74342W        W38110  20.221  40.312  11.085
74343W        W38111   6.839   6.742   3.863
74344W        W38112  24.510  36.448   3.718
74345W        W38113  30.922   6.847  12.566
74346W        W38114  30.040   3.825   1.259
74347W        W38115  29.484   7.803   1.802
74348W        W38116  18.628  35.505   0.260
74349W        W38117  11.837  40.000  11.402
74350W        W38118   3.821  18.144  14.305
74351W        W38119   1.327   3.849  14.948
74352W        W38120  18.226  41.442  14.949
74353W        W38121  41.792  25.008  12.045
74354W        W38122  22.696  10.828  11.913
74355W        W38123   6.191   2.348   0.740
74356W        W38124   6.916  11.264  13.352
74357W        W38125  35.504  41.342   1.296
74358W        W38126  25.602  19.584   3.762
74359W        W38127   1.817   2.275  13.440
74360W        W38128  27.638  36.388   1.824
74361W        W38129  37.042  31.484  11.505
74362W        W38130  10.285  15.263  13.469
74363W        W38131  16.197  13.748  11.906
74364W        W38132  35.555  41.959  12.842
74365W        W38133  43.776  14.768   1.933
74366W        W38134   5.358   0.475  14.795
74367W        W38135  29.148   7.757   3.253
74368W        W38136  29.617  12.856  14.326
74369W        W38137  29.934  13.789   4.767
74370W        W38138  43.422   9.173   1.696
74371W        W38139  43.865  30.131   0.812
74372W        W38140  31.960  18.260   5.286
74373W        W38141  40.544  36.462  13.925
74374W        W38142   7.723   9.845   2.739
74375W        W38143   6.275  29.517  13.974
74376W        W38144  28.085  44.898   3.830
74377W        W38145  10.742   6.718   4.115
74378W        W38146  25.531  15.206   4.829
74379W        W38147  39.465  39.999  14.989
74380W        W38148  44.389  27.031   0.392
74381W        W38149   3.734  41.895   3.264
74382W        W38150  36.051  15.318  13.357
74383W        W38151  16.124  18.119  12.929
74384W        W38152  32.957  12.699  13.485
74385W        W38153  34.380  11.773   4.202
74386W        W38154   0.279   5.921   2.341
74387W        W38155   0.299  23.003   4.124
74388W        W38156  33.589  14.299   3.379
74389W        W38157  31.519  29.946   3.706
74390W        W38158   1.267  27.496  14.390
74391W        W38159  38.967  31.510  11.541
74392W        W38160  29.577   4.257  14.362
74393W        W38161  14.632  15.150   2.671
74394W        W38162  25.109  42.327  11.931
74395W        W38163  33.946  17.579   1.441
74396W        W38164   3.391  11.338  12.431
74397W        W38165   6.252  35.427  12.531
74398W        W38166  18.120   4.927   4.635
74399W        W38167   1.360   4.253  13.499
74400W        W38168  44.845  33.587   3.298
74401W        W38169   0.400   2.810  11.381
74402W        W38170  37.345  37.079  11.057
74403W        W38171  40.904  30.041  13.445
74404W        W38172  25.972  29.637   0.777
74405W        W38173  31.041  18.152   5.148
74406W        W38174  39.897  30.048  12.878
74407W        W38175   3.876  16.689  13.913
74408W        W38176  44.313  25.017   3.298
74409W        W38177   0.268  18.668   4.741
74410W        W38178  42.910   4.416  11.426
74411W        W38179  21.114  34.613   1.694
74412W        W38180   2.385  41.866   3.292
74413W        W38181  17.703   9.149  12.958
74414W        W38182  23.049  14.597  12.511
74415W        W38183  22.198  27.172  11.955
74416W        W38184   7.817  42.335  12.375
74417W        W38185  31.441  15.741  14.401
74418W        W38186  22.642  38.329   2.245
74419W        W38187   5.243  36.983   4.169
74420W        W38188  28.081  41.294  10.621
74421W        W38189   5.756  15.273  12.422
74422W        W38190  12.835  30.119  10.537
74423W        W38191  42.860   2.348  12.365
74424W        W38192  27.067  41.446   1.753
74425W        W38193  16.230  32.529  14.012
74426W        W38194  22.533  39.367   1.271
74427W        W38195  36.954  35.416   0.354
74428W        W38196  31.480  32.967  10.458
74429W        W38197  13.127   8.215   4.790
74430W        W38198  40.030  40.494  10.484
74431W        W38199  19.553  29.064   4.706
74432W        W38200   9.787  10.161   4.800
74433W        W38201  13.165   0.771  10.982
74434W        W38202  29.604   0.799   2.365
74435W        W38203  25.054  39.903   4.815
74436W        W38204  16.663  38.966   0.454
74437W        W38205  37.856  35.061   2.237
74438W        W38206  19.223  17.606   3.678
74439W        W38207  32.016  17.786   1.329
74440W        W38208  22.694  10.205   4.693
74441W        W38209   5.856  14.683  13.915
74442W        W38210  38.386  29.168   5.647
74443W        W38211   3.341  29.169  11.403
74444W        W38212   1.739  33.426  12.841
74445W        W38213  15.820  25.654   3.738
74446W        W38214  34.947  34.530  13.029
74447W        W38215  14.231  37.374   0.300
74448W        W38216  11.686  37.444  10.092
74449W        W38217  26.519   9.668   0.451
74450W        W38218   4.789  44.843   1.696
74451W        W38219  25.036  10.243  14.898
74452W        W38220  44.392  16.249  11.042
74453W        W38221  22.503  13.131  12.959
74454W        W38222   9.655  11.735  10.587
74455W        W38223  35.441  15.302   2.268
74456W        W38224  28.568   5.696  13.906
74457W        W38225  26.492  29.557   0.323
74458W        W38226  32.586  14.158  13.542
74459W        W38227  14.150  28.525   1.330
74460W        W38228  27.087   5.367   2.667
74461W        W38229   3.250  23.169   3.824
74462W        W38230  30.158   8.378   0.838
74463W        W38231   7.210  22.173  14.467
74464W        W38232  28.667  31.901   5.161
74465W        W38233   7.872  15.607   3.804
74466W        W38234   6.756  10.632  12.828
74467W        W38235   3.417  18.063   2.265
74468W        W38236   9.821   8.655   1.278
74469W        W38237  36.384  30.451   3.656
74470W        W38238   8.692  38.883  12.041
74471W        W38239  37.014   6.785  11.568
74472W        W38240  27.573  29.527   4.184
74473W        W38241  17.142  25.649  14.391
74474W        W38242  19.173  21.055   1.806
74475W        W38243  14.593  13.289   5.087
74476W        W38244   9.175  15.104  12.489
74477W        W38245   8.214  26.048   3.757
74478W        W38246  21.551   1.828  12.881
74479W        W38247   0.980  20.095   3.270
74480W        W38248   8.754   7.861  13.983
74481W        W38249  21.060  32.093   0.363
74482W        W38250  29.971  43.498   2.263
74483W        W38251  39.047  13.637   0.931
74484W        W38252   0.468   3.839   2.352
74485W        W38253  29.498   0.900   4.672
74486W        W38254  34.378   1.948  14.421
74487W        W38255  28.547   0.301  11.394
74488W        W38256  28.452  25.590  11.884
74489W        W38257  20.555  42.450  12.827
74490W        W38258  28.087  12.731  10.496
74491W        W38259   7.669  40.447   3.375
74492W        W38260  44.293   9.162  13.859
74493W        W38261  25.554  13.778  14.022
74494W        W38262  14.650   4.314  13.431
74495W        W38263  22.239  43.448   2.402
74496W        W38264   9.159  32.426   1.348
74497W        W38265  20.597   1.895   3.845
74498W        W38266  41.974   3.432  12.965
74499W        W38267  37.879  14.673   1.368
74500W        W38268  33.073  37.052   4.195
74501W        W38269  27.611  31.978   2.204
74502W        W38270  27.008  36.403  12.032
74503W        W38271  23.607  27.052   1.243
74504W        W38272  43.337  26.205  11.927
74505W        W38273  31.441   1.800   1.721
74506W        W38274   5.852  25.582   4.617
74507W        W38275  20.114  21.205  14.450
74508W        W38276  16.112  24.194   1.389
74509W        W38277  24.612   4.757   0.247
74510W        W38278  41.405   2.961   4.160
74511W        W38279  43.271  20.665   4.241
74512W        W38280   9.870  19.671   0.324
74513W        W38281  19.070  40.422  11.955
74514W        W38282  31.965   6.338  12.577
74515W        W38283  38.071   0.419  11.983
74516W        W38284  15.323  40.828   2.885
74517W        W38285  44.974   3.733  14.870
74518W        W38286  10.720  36.522   0.785
74519W        W38287  40.906  29.567  10.503
74520W        W38288  39.391  43.912   0.926
74521W        W38289   2.789  31.421  14.835
74522W        W38290   2.739  36.926   0.254
74523W        W38291  20.765  31.629  11.577
74524W        W38292  27.446  28.605   0.776
74525W        W38293  18.286   0.823  12.842
74526W        W38294  29.457  12.340   1.746
74527W        W38295  19.700   1.472   0.250
74528W        W38296   5.736  27.972   0.740
74529W        W38297  40.960  33.542  12.416
74530W        W38298  20.537   3.941   4.217
74531W        W38299  17.782  39.363  11.970
74532W        W38300  30.059  27.148   0.755
74533W        W38301  31.137   3.918  10.539
74534W        W38302   8.747  18.139   0.814
74535W        W38303  44.978  28.158  14.399
74536W        W38304  38.420  39.820   1.859
74537W        W38305  12.801  43.366  12.351
74538W        W38306   3.800   2.377  14.891
74539W        W38307   9.887  20.034  13.049
74540W        W38308   8.808  22.055   3.778
74541W        W38309  29.432  44.265   0.736
74542W        W38310   4.805  37.388  13.447
74543W        W38311  10.710  34.575   4.321
74544W        W38312  17.195  43.832   0.308
74545W        W38313  38.833   3.226  10.563
74546W        W38314  36.003  17.629  12.831
74547W        W38315  11.321  40.496  13.307
74548W        W38316  12.186   4.794  14.959
74549W        W38317  20.547  33.454   0.340
74550W        W38318   2.373  20.729  10.561
74551W        W38319  33.994  15.741  10.014
74552W        W38320  18.083  42.437  10.439
74553W        W38321  24.194  41.031  11.594
74554W        W38322   9.736  15.790   3.227
74555W        W38323  10.192  25.214  14.494
74556W        W38324  41.916  30.921  14.379
74557W        W38325  33.593   8.684   0.925
74558W        W38326   7.213  35.873  13.332
74559W        W38327  15.089  32.135   2.883
74560W        W38328  14.691  15.128   4.735
74561W        W38329  29.657   1.798  10.513
74562W        W38330   6.714   0.427   1.351
74563W        W38331  29.537  41.039   4.305
74564W        W38332  35.968   7.722  14.277
74565W        W38333   8.227  10.264  12.514
74566W        W38334  31.950   9.783  13.421
74567W        W38335  21.723   8.898   3.172
74568W        W38336   5.194  35.967  12.047
74569W        W38337  21.090  11.285  10.510
74570W        W38338  42.392  29.173  13.900
74571W        W38339   4.304  36.005   0.348
74572W        W38340  10.790  19.267  14.965
74573W        W38341  44.302  24.079  13.985
74574W        W38342   7.357  36.975  12.067
74575W        W38343  21.165  32.541  13.376
74576W        W38344   2.939  12.639  12.077
74577W        W38345  29.086  31.147   3.310
74578W        W38346  10.188  12.348  12.439
74579W        W38347   9.182  12.838   4.767
74580W        W38348  38.070  29.474  14.378
74581W        W38349  29.072  27.092   0.876
74582W        W38350   8.266   1.746  13.428
74583W        W38351  23.152  31.481   4.811
74584W        W38352  37.046  37.370  10.426
74585W        W38353  28.036   3.742  13.482
74586W        W38354  37.937  13.617  14.459
74587W        W38355  14.659  43.474   3.857
74588W        W38356  22.252   1.784  14.316
74589W        W38357   1.774   1.814  10.415
74590W        W38358   2.377  34.458   1.775
74591W        W38359   2.953   5.394   0.435
74592W        W38360  15.143  22.034   2.314
74593W        W38361  35.545   7.340   5.208
74594W        W38362  41.400   8.236   4.194
74595W        W38363  33.926  11.830  10.983
74596W        W38364  40.967  32.921   2.215
74597W        W38365  32.490  17.258  11.092
74598W        W38366  13.170  18.135   3.303
74599W        W38367  24.506  11.709  14.384
74600W        W38368  13.314  31.978  13.497
74601W        W38369  36.874  10.230   3.221
74602W        W38370  28.507  33.565  10.989
74603W        W38371  23.628  18.295  13.546
74604W        W38372  32.928  44.360   3.783
74605W        W38373  14.630  37.425   0.890
74606W        W38374   7.859  21.030   3.795
74607W        W38375  44.268  24.054  14.775
74608W        W38376  43.397  14.163  13.846
74609W        W38377   2.466  37.542   3.249
74610W        W38378  16.656   2.932   2.717
74611W        W38379  44.760  22.527   3.289
74612W        W38380  34.615  43.799   4.814
74613W        W38381  36.547   1.301   4.123
74614W        W38382  27.531  40.969  12.832
74615W        W38383  42.984  20.670   1.708
74616W        W38384  26.044  42.938   9.976
74617W        W38385  25.158  29.482  14.800
74618W        W38386  33.401  44.820  14.972
74619W        W38387  25.178  24.057   1.843
74620W        W38388  22.230  12.250   9.949
74621W        W38389  24.993   4.888   2.192
74622W        W38390  15.149  36.876   3.287
74623W        W38391  13.769  33.903   2.315
74624W        W38392   1.306  42.823  13.969
74625W        W38393   2.437  21.031   2.335
74626W        W38394  39.436   4.263  14.315
74627W        W38395  44.271  40.920  10.482
74628W        W38396  15.628   7.367  10.475
74629W        W38397  17.270  26.539   4.817
74630W        W38398  18.051   8.656  12.440
74631W        W38399   7.242  41.866  12.495
74632W        W38400  44.270  10.350   0.411
74633W        W38401  11.273   9.869  12.354
74634W        W38402  13.191  44.487  14.918
74635W        W38403  39.321  43.961  14.319
74636W        W38404   0.854  24.223  11.385
74637W        W38405  44.865   6.744   4.672
74638W        W38406  13.728  21.069   2.293
74639W        W38407  16.108  25.670  13.941
74640W        W38408   2.378  10.354   5.286
74641W        W38409  40.943   1.840   2.346
74642W        W38410  39.346  40.802  14.424
74643W        W38411  36.912  23.131   1.257
74644W        W38412  14.314  38.349  13.926
74645W        W38413   6.344  37.347   0.472
74646W        W38414  42.818  28.053  12.460
74647W        W38415  11.796  17.731   3.220
74648W        W38416  29.610   5.391   3.867
74649W        W38417  32.473  16.570  11.010
74650W        W38418   2.847  41.532   0.343
74651W        W38419  40.835  13.188  13.449
74652W        W38420  20.664  41.385   4.656
74653W        W38421  11.272   7.404   0.463
74654W        W38422  42.017  19.223  11.403
74655W        W38423  38.351   8.290   3.666
74656W        W38424  28.649  43.892   1.883
74657W        W38425  29.941  13.217  11.513
74658W        W38426  29.021   9.777  12.453
74659W        W38427  11.754  13.624  11.409
74660W        W38428  12.781  10.236   0.812
74661W        W38429  17.248  11.671   0.326
74662W        W38430  26.677  15.743   2.342
74663W        W38431   9.259  23.057   0.311
74664W        W38432  19.161  19.241  13.979
74665W        W38433  25.506  35.064  12.555
74666W        W38434   5.263   9.211  11.913
74667W        W38435  36.954  34.929   2.694
74668W        W38436   9.890   2.777  10.430
74669W        W38437  27.154  43.833  12.531
74670W        W38438   1.933  21.705  10.638
74671W        W38439  35.990   0.937   1.234
74672W        W38440   4.846  26.032  13.401
74673W        W38441   3.873   0.359  13.821
74674W        W38442  41.311   3.858  14.968
74675W        W38443  17.199  23.503  11.579
74676W        W38444  29.642   8.285   4.237
74677W        W38445  35.394  12.616  12.954
74678W        W38446  43.804  24.708  11.582
74679W        W38447   1.894   4.897   0.873
74680W        W38448   1.344  33.543   9.626
74681W        W38449  11.689   4.762   5.166
74682W        W38450  31.109  43.282   4.238
74683W        W38451  15.219  22.140  13.336
74684W        W38452   3.275  42.776  11.083
74685W        W38453   6.850   4.803   1.232
74686W        W38454  31.007  32.593  12.576
74687W        W38455  23.095  20.728  11.877
74688W        W38456   5.727  26.002  12.878
74689W        W38457  11.328   8.251   1.724
74690W        W38458  24.169  38.948   5.214
74691W        W38459  39.917   5.200  11.611
74692W        W38460  31.530  32.463  14.771
74693W        W38461  17.693  33.570  12.411
74694W        W38462  10.691   9.685  13.056
74695W        W38463  37.448  15.156   3.810
74696W        W38464  40.986  12.258   2.685
74697W        W38465  13.157   0.320   4.300
74698W        W38466  28.102  18.133  11.411
74699W        W38467  15.809   6.819  10.107
74700W        W38468  14.711   6.192   1.829
74701W        W38469  36.555  13.328   2.886
74702W        W38470   6.338  33.114   9.986
74703W        W38471  25.497  41.848   0.385
74704W        W38472  29.926  10.299   4.755
74705W        W38473  38.510  38.366   1.695
74706W        W38474  26.149  15.320  11.603
74707W        W38475  26.986  24.496  11.913
74708W        W38476  25.208  10.819   5.229
74709W        W38477   0.757  10.272  13.385
74710W        W38478  16.276  13.194  10.634
74711W        W38479  42.344  42.868   0.364
74712W        W38480  42.311  15.671   1.841
74713W        W38481   1.405  14.218  10.541
74714W        W38482  16.674   6.208   2.758
74715W        W38483  18.082  41.436  13.854
74716W        W38484  37.047   3.254  12.508
74717W        W38485  34.892  28.163  12.957
74718W        W38486  21.580  23.581   4.222
74719W        W38487  38.503  35.559   0.338
74720W        W38488   3.934  20.588  11.564
74721W        W38489  21.558  12.130   4.731
74722W        W38490  41.037  21.619  11.879
74723W        W38491  18.218  16.258   1.406
74724W        W38492  29.476  23.636  14.005
74725W        W38493  29.498  12.637  14.856
74726W        W38494  31.409  35.044  12.943
74727W        W38495   5.245  13.121  11.902
74728W        W38496   9.195  40.999  14.380
74729W        W38497  10.684  10.656   2.749
74730W        W38498  15.210  34.902   4.252
74731W        W38499  21.231   8.356  14.914
74732W        W38500  40.484  37.550  12.826
74733W        W38501  37.942  38.957   4.781
74734W        W38502  21.692  27.635  13.404
74735W        W38503   3.313   8.384  14.947
74736W        W38504  41.851   0.859  13.544
74737W        W38505   9.211  20.695  10.443
74738W        W38506  10.715  14.784   1.933
74739W        W38507  13.791  43.794   0.806
74740W        W38508   8.213  28.132   2.249
74741W        W38509  15.624  41.967   4.801
74742W        W38510  21.175  31.489   4.660
74743W        W38511  35.054  31.645   3.831
74744W        W38512  42.404  32.929   0.282
74745W        W38513  37.363  40.926   4.735
74746W        W38514  26.595  26.079  12.975
74747W        W38515  41.314  39.492  14.469
74748W        W38516   4.371   7.396  14.027
74749W        W38517  17.164  28.939   2.725
74750W        W38518  16.712  30.414  13.042
74751W        W38519  28.962  15.177   1.317
74752W        W38520   0.973   2.463  14.994
74753W        W38521  44.468  15.228   4.211
74754W        W38522   3.325  23.632   0.888
74755W        W38523  39.988  22.036  14.446
74756W        W38524  27.577  22.168   2.181
74757W        W38525  28.138  29.939  13.411
74758W        W38526   2.896  42.397   3.755
74759W        W38527  21.552  37.434   1.768
74760W        W38528  38.445  31.461   5.157
74761W        W38529  39.431  42.959  10.973
74762W        W38530  22.584  11.248   1.878
74763W        W38531  26.998  30.965   3.305
74764W        W38532  30.472  38.929  12.064
74765W        W38533  34.925   6.813  13.047
74766W        W38534  12.131  35.379  14.428
74767W        W38535  28.098  34.080  14.303
74768W        W38536   1.893  33.598   3.222
74769W        W38537  13.126   5.401   2.386
74770W        W38538  11.192   0.270  10.524
74771W        W38539  10.668   2.244   4.305
74772W        W38540  42.968  34.387  13.814
74773W        W38541  11.835  16.255  14.999
74774W        W38542   5.297  25.059   3.699
74775W        W38543   4.416  26.994  14.846
74776W        W38544  28.623  20.706  12.417
74777W        W38545  20.050   3.226   2.796
74778W        W38546  16.087  34.876   2.307
74779W        W38547  34.554   5.281  12.566
74780W        W38548  36.392  37.518   2.723
74781W        W38549  16.194  42.480  14.793
74782W        W38550  26.497  39.385   0.762
74783W        W38551  27.044   9.362  13.503
74784W        W38552  26.107  44.331   2.835
74785W        W38553  20.100   2.938   1.300
74786W        W38554  16.102  41.517  12.393
74787W        W38555  30.063  37.573  13.956
74788W        W38556  33.055  36.081  14.880
74789W        W38557  24.000   4.372   2.198
74790W        W38558  18.575  41.395   1.794
74791W        W38559   6.744  43.411   0.299
74792W        W38560  36.923   8.800  13.340
74793W        W38561   8.729  26.663   1.844
74794W        W38562  12.623  38.865   1.351
74795W        W38563   8.749  30.015   3.633
74796W        W38564  29.095  17.095  10.561
74797W        W38565  39.969   4.429   0.841
74798W        W38566  13.670   8.310   4.306
74799W        W38567   7.794   8.282  11.069
74800W        W38568  34.973  21.636  12.050
74801W        W38569  38.854   7.906   2.324
74802W        W38570  33.007  22.628   3.865
74803W        W38571  36.581  34.903   0.375
74804W        W38572  20.203   7.385   4.761
74805W        W38573  34.416   0.475  11.501
74806W        W38574  42.814   1.888   1.399
74807W        W38575  17.731  13.112  11.044
74808W        W38576   7.691  24.511  13.483
74809W        W38577  14.258   4.450   2.823
74810W        W38578  18.282  32.047   3.813
74811W        W38579  27.972  39.044  12.070
74812W        W38580  35.432   7.414   2.235
74813W        W38581  15.258  34.443  12.997
74814W        W38582  15.298  41.450  12.405
74815W        W38583   0.467  35.023   3.169
74816W        W38584  26.192  42.309   2.721
74817W        W38585  11.180  37.072   4.182
74818W        W38586  33.598  16.586  12.404
74819W        W38587  27.562   6.906   2.328
74820W        W38588  30.625   0.272  13.008
74821W        W38589  10.849  26.208   2.344
74822W        W38590   0.402   8.852   1.887
74823W        W38591  37.898  21.220  13.365
74824W        W38592  26.535  28.057   0.356
74825W        W38593  39.006   3.400  10.025
74826W        W38594  22.232  11.367  12.959
74827W        W38595   7.228  14.640   4.261
74828W        W38596  24.159  10.310   4.218
74829W        W38597  41.824  32.616   0.435
74830W        W38598  16.674  13.843  13.024
74831W        W38599  29.523  39.923  13.060
74832W        W38600  18.667   1.355  10.530
74833W        W38601  15.267   4.325   4.704
74834W        W38602  10.171  38.038   4.780
74835W        W38603  14.742  16.243   2.831
74836W        W38604  10.694  43.323  13.403
74837W        W38605  25.654   5.404  12.854
74838W        W38606  10.179  12.834   3.162
74839W        W38607  23.088  35.524   5.730
74840W        W38608  20.166   3.451  14.435
74841W        W38609  25.152   4.929   1.245
74842W        W38610  39.997  31.637   3.284
74843W        W38611   9.385  37.352  12.071
74844W        W38612  29.546  32.073  11.490
74845W        W38613  37.051  21.130  10.008
74846W        W38614   4.909  41.441  12.085
74847W        W38615  22.703   2.881   9.986
74848W        W38616  32.416  16.124   2.206
74849W        W38617  34.890  30.580   2.204
74850W        W38618  25.172   4.333   0.379
74851W        W38619  21.090  42.401  12.852
74852W        W38620  11.245  27.492  11.858
74853W        W38621   9.872  24.228  12.901
74854W        W38622  30.087  26.090  14.472
74855W        W38623  20.634  34.013  10.496
74856W        W38624   7.773  38.496  11.050
74857W        W38625  22.641   8.235  10.550
74858W        W38626   9.787  38.876   3.765
74859W        W38627  27.563  36.441  14.001
74860W        W38628  42.986   8.265  13.019
74861W        W38629  15.627  41.426  10.617
74862W        W38630  15.155  16.710   3.859
74863W        W38631  35.053   8.851   4.155
74864W        W38632  30.638  28.117   5.117
74865W        W38633   6.199  17.610  11.905
74866W        W38634   5.285  14.182  14.928
74867W        W38635   2.347  18.078   4.597
74868W        W38636   1.378  43.337   3.826
74869W        W38637  34.931  11.779   2.318
74870W        W38638  40.930  12.125  13.318
74871W        W38639  40.322  32.542  13.929
74872W        W38640  23.710  34.589   1.242
74873W        W38641  13.300   4.806   1.279
74874W        W38642   0.411  19.632   3.828
74875W        W38643  22.572  42.346  13.905
74876W        W38644  19.063  11.853   2.896
74877W        W38645  11.806   5.884  11.126
74878W        W38646   6.868  16.760   3.869
74879W        W38647   7.219  40.531   0.267
74880W        W38648  10.661  16.675  13.528
74881W        W38649  28.516  28.941  14.445
74882W        W38650  15.770  21.577   4.228
74883W        W38651  32.052  41.990  13.493
74884W        W38652  24.107  31.115   0.353
74885W        W38653  14.627  34.589   3.852
74886W        W38654  41.933  43.277   0.803
74887W        W38655  41.353   0.856   0.781
74888W        W38656  37.452  42.778  12.096
74889W        W38657   3.719  28.970  13.323
74890W        W38658  27.953  31.144   1.212
74891W        W38659  29.985  34.386   2.313
74892W        W38660  40.463  19.750   0.409
74893W        W38661  22.523  14.588   0.786
74894W        W38662  25.200  18.572  14.394
74895W        W38663  13.711  20.575   4.208
74896W        W38664   1.432   8.880   1.724
74897W        W38665  15.804  17.166  13.866
74898W        W38666  36.376  28.109   3.150
74899W        W38667  25.183  38.990   0.856
74900W        W38668  25.974  11.292  11.961
74901W        W38669   5.913  23.551   4.155
74902W        W38670   8.776  21.697  14.335
74903W        W38671  29.964  19.243   9.619
74904W        W38672  16.775   4.203   2.322
74905W        W38673  27.966   8.354   2.397
74906W        W38674  44.417   5.317   1.375
74907W        W38675   2.438  44.361  11.036
74908W        W38676   7.854  10.267   0.263
74909W        W38677  12.301   8.755  10.605
74910W        W38678  13.837  15.328  12.031
74911W        W38679   1.917  24.677   2.267
74912W        W38680  41.427  36.051  11.383
74913W        W38681  41.508   2.816  13.005
74914W        W38682  23.584  24.984  13.839
74915W        W38683  17.794   5.831  13.013
74916W        W38684  10.279  40.443   2.406
74917W        W38685   0.308  18.059  11.942
74918W        W38686  43.850  16.230   3.218
74919W        W38687  41.431  13.795   2.820
74920W        W38688  37.376  31.093  13.470
74921W        W38689  36.570  30.447   5.195
74922W        W38690  11.237   1.307   2.688
74923W        W38691  29.960  39.950  13.426
74924W        W38692  33.396  10.724   0.278
74925W        W38693   7.680   7.824  10.436
74926W        W38694  10.831   5.690   1.356
74927W        W38695   1.939  21.577   0.877
74928W        W38696  43.370  44.444  10.130
74929W        W38697  15.122   2.456  11.612
74930W        W38698  17.200  27.171   5.298
74931W        W38699   2.452  15.782   1.888
74932W        W38700  15.807   7.796   4.280
74933W        W38701  40.419   8.328  12.453
74934W        W38702  37.012  32.138  10.935
74935W        W38703  19.681   2.454   5.159
74936W        W38704  13.714  22.590   1.297
74937W        W38705   4.209  13.207  13.493
74938W        W38706  24.638   9.203  11.099
74939W        W38707  23.989  14.110   4.693
74940W        W38708  44.398  43.419  14.412
74941W        W38709  36.589  41.417  12.035
74942W        W38710   1.415  11.235  10.937
74943W        W38711  30.981  26.197   1.890
74944W        W38712  40.887  30.974   5.149
74945W        W38713  31.644   2.767  14.298
74946W        W38714  35.946  22.631   4.291
74947W        W38715  32.494   4.719  10.105
74948W        W38716  13.233  22.675  11.112
74949W        W38717   5.810  20.738  14.882
74950W        W38718  17.101  24.694  12.032
74951W        W38719  25.094  21.613  10.943
74952W        W38720  13.692  31.021   4.200
74953W        W38721  44.806   6.242  12.877
74954W        W38722  42.923   2.273  13.366
74955W        W38723  25.497  18.246  12.553
74956W        W38724   7.892  22.166   0.771
74957W        W38725  32.941  15.311  14.898
74958W        W38726  36.348  33.104  13.038
74959W        W38727  40.976  38.360   2.212
74960W        W38728  29.925  32.583  12.060
74961W        W38729  18.708   3.449  14.439
74962W        W38730  23.498  11.297   1.273
74963W        W38731  21.037  27.178  10.979
74964W        W38732  33.542  15.801  14.321
74965W        W38733  17.083   8.703  12.557
74966W        W38734   8.684  24.026   2.765
74967W        W38735  22.657  33.082  11.999
74968W        W38736  14.184  38.925  14.861
74969W        W38737  24.622  19.671   1.244
74970W        W38738  15.673  44.330  11.082
74971W        W38739  31.014   1.758   3.157
74972W        W38740   6.259  13.223  14.867
74973W        W38741  24.222  15.239   3.225
74974W        W38742   8.405  35.368  14.514
74975W        W38743  13.194  29.075  11.081
74976W        W38744  19.182  25.512   3.836
74977W        W38745   5.355  44.405   3.350
74978W        W38746   1.377   3.352  10.464
74979W        W38747  12.707  25.643   4.652
74980W        W38748  29.656  20.671   0.764
74981W        W38749  20.650  21.558   2.777
74982W        W38750   8.359  23.715   0.452
74983W        W38751   1.862  25.487  11.047
74984W        W38752  22.160  21.235  11.596
74985W        W38753  38.974  29.116   4.154
74986W        W38754   2.807  13.838   3.646
74987W        W38755  15.706  32.102  11.409
74988W        W38756  22.224   8.855  13.452
74989W        W38757  29.445  37.003   1.792
74990W        W38758  35.468  13.708  11.975
74991W        W38759  36.020  40.979   2.378
74992W        W38760  25.053  29.619   0.756
74993W        W38761  33.080  42.926  12.894
74994W        W38762  12.615  24.214   0.855
74995W        W38763  11.630  41.449  12.831
74996W        W38764  43.283  37.525   2.772
74997W        W38765  21.026  24.092   3.353
74998W        W38766   9.846  36.553   4.781
74999W        W38767  29.532  10.327  12.091
75000W        W38768  35.001  21.049   0.432
75001W        W38769   4.255   9.813  10.618
75002W        W38770  35.456  11.662   3.187
75003W        W38771   8.751   4.240  14.963
75004W        W38772  15.215  19.656  12.565
75005W        W38773  37.473  21.591  14.773
75006W        W38774  19.661  41.392   3.244
75007W        W38775  34.500  29.925  14.446
75008W        W38776  32.517   1.288   3.303
75009W        W38777   4.358  24.995   0.772
75010W        W38778  33.416  28.517  11.935
75011W        W38779  11.307   6.382  12.896
75012W        W38780  38.569  18.120  14.486
75013W        W38781   1.319  10.698   3.707
75014W        W38782  36.497  28.622  10.915
75015W        W38783  18.627  40.835   3.169
75016W        W38784  15.226   4.905   1.300
75017W        W38785  42.411  36.499  12.916
75018W        W38786   3.308   0.455   0.358
75019W        W38787  35.858  42.340  14.418
75020W        W38788  11.243  16.076   0.407
75021W        W38789  33.029   0.344  11.389
75022W        W38790  32.899   3.715   0.443
75023W        W38791  28.028  35.399  13.476
75024W        W38792  44.966  31.949   3.313
75025W        W38793  21.099  23.499  14.000
75026W        W38794  25.528  30.442  13.525
75027W        W38795  18.185  32.890  13.314
75028W        W38796  12.736  33.441  14.472
75029W        W38797  37.073   4.922  14.914
75030W        W38798  23.637  39.386  10.430
75031W        W38799   2.307  14.246   4.696
75032W        W38800  23.734  23.512   1.315
75033W        W38801  44.390  43.855   4.230
75034W        W38802  17.299  15.605  13.993
75035W        W38803  35.588  14.713   2.349
75036W        W38804  25.617   1.330  14.836
75037W        W38805   9.774  28.534  11.440
75038W        W38806  13.826  44.276  13.313
75039W        W38807  23.608  17.619  10.555
75040W        W38808  13.298  15.592  14.839
75041W        W38809  14.237   7.822  12.541
75042W        W38810  43.956  30.988   2.227
75043W        W38811  34.483  12.122  10.411
75044W        W38812  29.528   8.710  10.416
75045W        W38813  10.845  27.459  13.427
75046W        W38814   4.285  15.817  11.601
75047W        W38815   1.864  32.965   2.211
75048W        W38816  37.970  16.628  11.375
75049W        W38817  36.363  11.828   2.840
75050W        W38818  40.833  17.791  14.799
75051W        W38819  14.649  29.014   2.671
75052W        W38820  18.679   3.939  11.563
75053W        W38821  26.024   6.685  14.939
75054W        W38822  42.016   8.331   0.848
75055W        W38823  40.437   5.822   2.787
75056W        W38824  32.450  37.972   4.772
75057W        W38825  25.149  13.203  13.539
75058W        W38826  42.979  36.859  13.915
75059W        W38827  31.529   2.386   1.711
75060W        W38828  26.658  41.897   3.223
75061W        W38829  11.808   1.914   3.866
75062W        W38830  21.524  35.540  12.397
75063W        W38831   0.974   0.443   1.390
75064W        W38832  21.057  28.646  10.908
75065W        W38833  26.668  27.000   1.327
75066W        W38834   6.329  29.946  12.951
75067W        W38835  18.627  19.063  14.783
75068W        W38836  43.844  38.976   3.153
75069W        W38837  34.915  27.088  12.040
75070W        W38838  33.485   5.722  12.450
75071W        W38839  16.224  28.628   2.411
75072W        W38840  38.537   5.877   0.369
75073W        W38841  11.215  16.759   1.705
75074W        W38842  23.523  24.226   1.771
75075W        W38843   8.770  12.197   0.341
75076W        W38844  26.586  26.513   9.944
75077W        W38845  22.671  26.586   2.349
75078W        W38846  12.275  21.039   3.780
75079W        W38847  36.012   0.935   3.338
75080W        W38848  38.866  22.735  12.022
75081W        W38849   2.455  32.543  13.373
75082W        W38850   5.799   0.833  12.944
75083W        W38851  23.692   2.353  14.466
75084W        W38852  26.503  36.507  12.951
75085W        W38853  18.185  38.916   1.393
75086W        W38854  38.960  25.168  11.977
75087W        W38855   6.257  28.969  11.607
75088W        W38856  34.087  41.389   3.350
75089W        W38857   1.819  18.161   3.313
75090W        W38858   4.827   3.422   4.603
75091W        W38859  20.045  30.150   1.418
75092W        W38860  19.536   6.428   2.207
75093W        W38861   6.226  40.841  11.116
75094W        W38862   8.272   4.866  14.333
75095W        W38863  24.487  19.072   3.146
75096W        W38864  25.075  17.801   1.782
75097W        W38865  44.389  26.201   3.378
75098W        W38866  30.439  41.007  14.813
75099W        W38867   4.376  37.392  11.904
75100W        W38868  44.467  21.526  10.494
75101W        W38869  17.185  13.142   2.257
75102W        W38870  10.357  42.851  14.341
75103W        W38871  44.388  20.567   2.289
75104W        W38872   3.278  40.827  13.387
75105W        W38873  26.464  27.475  11.441
75106W        W38874  17.152  28.435   1.772
75107W        W38875  10.359   0.464   0.881
75108W        W38876  21.102  44.323  12.908
75109W        W38877  28.037  11.193   4.277
75110W        W38878  28.622   6.711   2.745
75111W        W38879  44.974  39.532   4.746
75112W        W38880  30.656  28.573   1.709
75113W        W38881  21.703  34.913   0.808
75114W        W38882  31.606  13.609  13.460
75115W        W38883  22.215  33.502   3.326
75116W        W38884  26.553   0.383   3.758
75117W        W38885  31.068  34.463  11.599
75118W        W38886  15.757  33.889  14.810
75119W        W38887  19.203   5.231   1.700
75120W        W38888  39.809  23.128  13.841
75121W        W38889  37.942  22.174  14.494
75122W        W38890  25.673  23.540   3.185
75123W        W38891  25.566  36.071   2.394
75124W        W38892  20.050  44.389   0.748
75125W        W38893   0.908  39.994  10.564
75126W        W38894  34.056  41.460  10.948
75127W        W38895  38.912  13.212   2.207
75128W        W38896  37.985  31.547  14.409
75129W        W38897  41.348   4.350   4.658
75130W        W38898  30.164  15.746   1.696
75131W        W38899   3.262  23.560   4.270
75132W        W38900  11.645  35.998   3.364
75133W        W38901  33.543   9.696  13.997
75134W        W38902  26.015   9.220   1.327
75135W        W38903  26.086  22.734   2.324
75136W        W38904  16.638  18.108   4.323
75137W        W38905  40.463  12.201   2.310
75138W        W38906   6.346  37.567  13.041
75139W        W38907  12.674  12.251  10.118
75140W        W38908   6.746   4.727  10.919
75141W        W38909  33.044  23.565   3.699
75142W        W38910  35.985  39.924  14.816
75143W        W38911  13.257  33.905   1.726
75144W        W38912  22.127   1.934  10.558
75145W        W38913  35.509   9.298  13.032
75146W        W38914  34.117  18.719   0.815
75147W        W38915  31.099  43.984  12.954
75148W        W38916  40.360  23.018  14.889
75149W        W38917  36.019   4.349  11.894
75150W        W38918  42.010  30.530   0.297
75151W        W38919  43.913  40.312  12.540
75152W        W38920   7.402  13.319   0.744
75153W        W38921  40.971  31.019   3.341
75154W        W38922   6.857  20.109  11.991
75155W        W38923  31.576  33.899  10.979
75156W        W38924  44.925  17.598   3.682
75157W        W38925  37.894   6.196  13.315
75158W        W38926   1.446  36.857   0.301
75159W        W38927  19.052  36.027  14.890
75160W        W38928  17.262  10.265   3.166
75161W        W38929   7.869  34.097   0.402
75162W        W38930  11.310   8.174   4.339
75163W        W38931  24.606  15.619  13.474
75164W        W38932   1.363  41.293   3.644
75165W        W38933  18.712  23.721   1.326
75166W        W38934   4.317   3.327  14.949
75167W        W38935  39.326  20.626  14.871
75168W        W38936  23.098  13.703   0.260
75169W        W38937  42.870   5.828  14.320
75170W        W38938  25.214   3.373   2.749
75171W        W38939  28.618  16.753   3.272
75172W        W38940   7.736  19.207   2.209
75173W        W38941  35.052   8.901  10.603
75174W        W38942  21.043  23.494   1.755
75175W        W38943  42.297  38.930   2.377
75176W        W38944  23.647  33.488   9.975
75177W        W38945  10.668  24.230  11.957
75178W        W38946  19.688  37.459   3.372
75179W        W38947  33.487  21.582   0.342
75180W        W38948  20.727  16.801  12.877
75181W        W38949   8.382  26.684  11.499
75182W        W38950  15.704   5.814  10.600
75183W        W38951  43.927  20.075  12.351
75184W        W38952  27.018  24.546   4.803
75185W        W38953  30.135  20.750   2.726
75186W        W38954  31.454  43.339  12.450
75187W        W38955  29.080   8.688   1.830
75188W        W38956  34.113   3.395  11.035
75189W        W38957  16.314  20.737  13.907
75190W        W38958   2.843   3.459  10.433
75191W        W38959  27.645  13.232   0.936
75192W        W38960  37.356  16.723   0.746
75193W        W38961  41.403  44.809   2.887
75194W        W38962  25.057   5.733  13.461
75195W        W38963  41.926  18.239   9.927
75196W        W38964  25.633  26.594   3.726
75197W        W38965   8.258  19.685  11.454
75198W        W38966  21.622  41.026   2.878
75199W        W38967  40.376  18.660  11.571
75200W        W38968  36.470  29.108  13.391
75201W        W38969  32.989  42.504   0.446
75202W        W38970   4.340  39.066   1.812
75203W        W38971  11.691  40.885   3.676
75204W        W38972  41.472  34.463  14.777
75205W        W38973  10.833  38.973  12.835
75206W        W38974  37.063  13.251   3.790
75207W        W38975  32.576  10.379   5.103
75208W        W38976  36.372   4.939  11.444
75209W        W38977  34.082  22.741  13.317
75210W        W38978  31.135  18.206  10.478
75211W        W38979  41.398   0.435   0.728
75212W        W38980  42.457  42.481  12.572
75213W        W38981  30.619  21.226   2.205
75214W        W38982  21.160  15.290   1.811
75215W        W38983   8.280  16.202   4.802
75216W        W38984  20.105  23.029   0.473
75217W        W38985  28.464  22.133  12.342
75218W        W38986  21.045  19.267   1.447
75219W        W38987  14.244  24.508  14.507
75220W        W38988   9.322  40.380   2.758
75221W        W38989  16.179  16.186  14.394
75222W        W38990   9.170  42.870   4.276
75223W        W38991   6.210  14.785   3.814
75224W        W38992  16.719  41.932   2.800
75225W        W38993  26.663  10.171   2.764
75226W        W38994   5.756  43.359   3.187
75227W        W38995  31.943  17.065  10.463
75228W        W38996   7.261  13.245  11.386
75229W        W38997  28.665  37.336  11.500
75230W        W38998  42.015  28.455   4.246
75231W        W38999  41.336  44.401  11.458
75232W        W39000  13.112  30.633   4.289
75233W        W39001  11.811  26.578  12.015
75234W        W39002  14.147  26.604   1.900
75235W        W39003   0.283  11.711  14.281
75236W        W39004   5.841  22.706   4.755
75237W        W39005  27.546  27.556   2.247
75238W        W39006  32.920   8.738  14.353
75239W        W39007  31.574  18.052  13.924
75240W        W39008  37.420  30.540   0.886
75241W        W39009   2.282  44.793  10.617
75242W        W39010  43.861  38.498   3.156
75243W        W39011  30.506   0.250   0.254
75244W        W39012  37.075  38.367   3.277
75245W        W39013  34.542  39.953  11.980
75246W        W39014   5.924  44.924  12.976
75247W        W39015  17.255  37.453   0.315
75248W        W39016   6.831   2.867  11.439
75249W        W39017  13.689   3.240   1.917
75250W        W39018  40.821  22.172  13.937
75251W        W39019  24.594  40.846  11.599
75252W        W39020   7.745   7.819  13.410
75253W        W39021   0.401  43.996   1.926
75254W        W39022  19.730  26.101   2.697
75255W        W39023  13.626  37.913   2.781
75256W        W39024  38.369  10.146   1.790
75257W        W39025  13.702  44.467  12.869
75258W        W39026  40.909  21.036  13.544
75259W        W39027  44.420  26.956  10.503
75260W        W39028  38.469  19.774   3.779
75261W        W39029  14.295  38.959  11.402
75262W        W39030  15.097  34.879   2.816
75263W        W39031  31.087  20.168   2.836
75264W        W39032  38.427  33.418  13.535
75265W        W39033  18.686  35.028   1.433
75266W        W39034  43.932   6.792   3.762
75267W        W39035   9.167   4.394   1.432
75268W        W39036   7.198  39.421  14.798
75269W        W39037   7.275  34.940  13.845
75270W        W39038  44.326  38.003   2.404
75271W        W39039  40.013  21.245  14.919
75272W        W39040  30.506  28.164  13.852
75273W        W39041   9.346  24.098   4.234
75274W        W39042  40.368  39.049  11.952
75275W        W39043  27.000  29.158  12.970
75276W        W39044  12.281  10.146  13.889
75277W        W39045   3.953  23.226  10.528
75278W        W39046  39.840  35.481  10.545
75279W        W39047  33.988   5.240  11.081
75280W        W39048  21.160   8.226   0.483
75281W        W39049  34.863  11.218   1.872
75282W        W39050  42.381  36.024  12.974
75283W        W39051   4.714  43.284  10.988
75284W        W39052  39.827  22.609  14.890
75285W        W39053  28.178  41.988   0.968
75286W        W39054  15.631  34.010  11.439
75287W        W39055   3.794   8.311   3.786
75288W        W39056   5.869  15.787   0.316
75289W        W39057  36.459  19.557   4.742
75290W        W39058  43.769  34.603  13.870
75291W        W39059  30.913  42.333   0.754
75292W        W39060  41.828  17.073   0.315
75293W        W39061  29.073  16.107  12.473
75294W        W39062  38.932   4.698  11.482
75295W        W39063   6.407   2.873   1.335
75296W        W39064  38.513  31.034   0.331
75297W        W39065  13.609  24.182  14.948
75298W        W39066  37.964  21.250   1.829
75299W        W39067  18.196  17.260   4.828
75300W        W39068  35.396  41.936   2.836
75301W        W39069  16.218  19.611   4.199
75302W        W39070  22.582  36.098   3.629
75303W        W39071  33.626  16.259  14.396
75304W        W39072  19.221  25.181   4.165
75305W        W39073   4.279  13.336   0.849
75306W        W39074  30.955  13.843  10.472
75307W        W39075  11.132  22.635  11.048
75308W        W39076  21.551  18.222  11.122
75309W        W39077   4.275  38.954   0.246
75310W        W39078  14.789  28.574  10.525
75311W        W39079  10.273  17.106  14.314
75312W        W39080  28.525  31.468  13.323
75313W        W39081   3.748  40.495   0.745
75314W        W39082   0.802  32.036  12.432
75315W        W39083  14.335  25.023   1.900
75316W        W39084  13.786   3.923  14.879
75317W        W39085  21.145   0.945   5.315
75318W        W39086   3.760  36.061   1.911
75319W        W39087   1.464  20.170  12.973
75320W        W39088  21.541  19.544   2.328
75321W        W39089  40.416  16.210   4.706
75322W        W39090  39.049  25.520  10.941
75323W        W39091  38.330  34.047  14.986
75324W        W39092  20.717   0.768   3.168
75325W        W39093   2.271  19.168   0.393
75326W        W39094  41.024   3.234   0.806
75327W        W39095  15.761  25.521   2.255
75328W        W39096   9.697  23.519   3.242
75329W        W39097  42.402  38.407   4.687
75330W        W39098  41.334  32.070   2.242
75331W        W39099  38.409  22.037   2.722
75332W        W39100   3.403  31.480   3.756
75333W        W39101  10.184  22.690   2.677
75334W        W39102  24.218  20.529   1.834
75335W        W39103  12.645  44.767  14.795
75336W        W39104  29.066  38.510  11.014
75337W        W39105  44.299  21.604   9.950
75338W        W39106   0.274  33.907  14.029
75339W        W39107  42.987  42.804   0.838
75340W        W39108  33.017  27.125   2.310
75341W        W39109  26.168  12.717   0.822
75342W        W39110  20.252  19.576   4.643
75343W        W39111  34.030  22.103  12.384
75344W        W39112  11.826  43.901  10.519
75345W        W39113  15.234  42.361  13.020
75346W        W39114  30.965  41.503  14.360
75347W        W39115   0.382  38.512   0.928
75348W        W39116  37.347  31.521   0.329
75349W        W39117   4.733  29.537   2.375
75350W        W39118   8.354  26.149   0.357
75351W        W39119  11.702  33.557  14.483
75352W        W39120   1.929  41.432  11.116
75353W        W39121   3.361   4.397  11.394
75354W        W39122  26.550  27.677  13.357
75355W        W39123  28.085   0.806   4.169
75356W        W39124   9.192  41.414   2.184
75357W        W39125  17.251   9.160   1.293
75358W        W39126   6.698   6.369   3.653
75359W        W39127  33.965   3.421  13.818
75360W        W39128  27.526   7.265  10.505
75361W        W39129  34.112  37.949   0.248
75362W        W39130  20.681  33.474  12.841
75363W        W39131  39.968   0.436   0.356
75364W        W39132  24.197  41.376  14.304
75365W        W39133  17.636  44.960   1.776
75366W        W39134  19.046  16.264  12.892
75367W        W39135   3.763  44.370   9.982
75368W        W39136  11.819   3.943   1.379
75369W        W39137  32.137  22.737  13.516
75370W        W39138  15.248  21.236  11.549
75371W        W39139  15.277   1.243   1.335
75372W        W39140  12.711  19.126  14.480
75373W        W39141  17.775  16.285   0.423
75374W        W39142  25.614  41.514  10.406
75375W        W39143  17.288  23.104  14.401
75376W        W39144  43.462   8.689  12.929
75377W        W39145  23.193  11.806  12.055
75378W        W39146  17.143   9.386   0.404
75379W        W39147  39.983   4.870  13.928
75380W        W39148  30.035  13.674   1.220
75381W        W39149  25.697  28.038  10.108
75382W        W39150  37.495  38.891   2.697
75383W        W39151  16.595  32.908   3.816
75384W        W39152  27.596   3.864  12.568
75385W        W39153   8.268  35.952  11.577
75386W        W39154  11.853   1.382   2.749
75387W        W39155  24.573  41.885   0.431
75388W        W39156  30.089  21.624   1.308
75389W        W39157   2.336  39.915   3.736
75390W        W39158  27.098  28.159  14.771
75391W        W39159  19.736  38.849   0.295
75392W        W39160  39.523   1.791   0.752
75393W        W39161   3.722  10.746  11.547
75394W        W39162  27.475  17.634  13.926
75395W        W39163   1.867  32.979   1.804
75396W        W39164  39.426   0.747  12.857
75397W        W39165  43.969  14.627  10.952
75398W        W39166   4.876  26.468  10.013
75399W        W39167   2.389  21.162  11.415
75400W        W39168  41.816  44.981  13.031
75401W        W39169  35.487  44.486  11.089
75402W        W39170   8.278  32.608  10.625
75403W        W39171  33.994  43.779  11.031
75404W        W39172  29.932   6.883   3.632
75405W        W39173   6.324   0.862  10.033
75406W        W39174  35.404   1.323   1.383
75407W        W39175  26.195  40.510   2.756
75408W        W39176  11.168  34.864  12.538
75409W        W39177  21.738  34.482   3.839
75410W        W39178   3.300  24.717   3.636
75411W        W39179  16.728  11.768  12.998
75412W        W39180  35.919  23.000   2.900
75413W        W39181  25.106  18.683  12.492
75414W        W39182  33.492  30.956  13.848
75415W        W39183  23.017   2.352   4.295
75416W        W39184  27.948   2.297  13.508
75417W        W39185  43.806  40.507  10.921
75418W        W39186  39.006  34.564  12.548
75419W        W39187  31.422  24.581  12.576
75420W        W39188  29.661  36.501   3.831
75421W        W39189  38.036  19.245   3.783
75422W        W39190  32.411   0.438   1.372
75423W        W39191  13.149  25.652  11.409
75424W        W39192   6.911  30.031  11.472
75425W        W39193  15.107  38.999   3.699
75426W        W39194  38.932   6.920  12.911
75427W        W39195  33.878  32.988   4.791
75428W        W39196   2.446   7.377   5.109
75429W        W39197  34.866  24.509   1.897
75430W        W39198  14.200  35.897  14.777
75431W        W39199  10.865  16.606  12.065
75432W        W39200   0.257   1.315  10.492
75433W        W39201  27.029  33.399   2.384
75434W        W39202  38.836  16.203   3.633
75435W        W39203   6.859  39.959   2.759
75436W        W39204  37.969   7.257  14.879
75437W        W39205  23.137  40.447  12.353
75438W        W39206  30.914   4.362   0.918
75439W        W39207   0.750  32.965  10.614
75440W        W39208  24.014  42.415  10.929
75441W        W39209  28.987  29.496  10.618
75442W        W39210  44.946  39.015   2.328
75443W        W39211  26.596  17.655  13.512
75444W        W39212  31.639  27.098   3.840
75445W        W39213  25.527   9.709  11.481
75446W        W39214  35.459  38.327  11.376
75447W        W39215  22.579  21.101  10.485
75448W        W39216  34.964  17.590  10.943
75449W        W39217  42.945   0.369   1.346
75450W        W39218   8.737  35.922   0.375
75451W        W39219  28.567  33.400   0.436
75452W        W39220   5.393   4.838  13.513
75453W        W39221  22.625   8.326   4.188
75454W        W39222  25.053  29.463   0.280
75455W        W39223  16.237  28.044  10.028
75456W        W39224  35.572  29.556  14.323
75457W        W39225  22.702  11.865   3.377
75458W        W39226   4.783  43.916  12.459
75459W        W39227  12.633  30.465   4.753
75460W        W39228  13.746  25.603   2.712
75461W        W39229  13.817  18.061   1.801
75462W        W39230  10.355   6.894   0.952
75463W        W39231   0.432  26.050   4.254
75464W        W39232  43.874  30.019   1.281
75465W        W39233  44.385   0.951   1.242
75466W        W39234  10.282  44.886   2.662
75467W        W39235  40.354  15.120  14.484
75468W        W39236   0.784  35.015   4.114
75469W        W39237  25.068  30.468   2.671
75470W        W39238  18.546  28.991   0.455
75471W        W39239  21.251  25.563  11.111
75472W        W39240  31.635  22.102  12.342
75473W        W39241   7.855  38.000   1.765
75474W        W39242  18.105   2.362   2.696
75475W        W39243  19.065  41.483   3.311
75476W        W39244  35.858  34.533  13.937
75477W        W39245  22.680  27.134  12.948
75478W        W39246  39.891  18.291   3.258
75479W        W39247   9.302   9.366   4.710
75480W        W39248  30.945  24.054   0.815
75481W        W39249  16.783  18.107  12.410
75482W        W39250  35.940  30.964   4.316
75483W        W39251  41.023   9.859   3.364
75484W        W39252  23.660  12.646   9.439
75485W        W39253  26.651  10.209   4.711
75486W        W39254   0.399   3.237   3.171
75487W        W39255  26.138  28.105  11.026
75488W        W39256  19.189  28.507   4.793
75489W        W39257  16.700  23.163  13.899
75490W        W39258  16.600  31.426   4.686
75491W        W39259  33.118   3.346  12.921
75492W        W39260  18.204  39.939   4.269
75493W        W39261  11.706  27.017   0.752
75494W        W39262  36.593  17.758  14.385
75495W        W39263  18.656  10.354   0.281
75496W        W39264  22.574  24.722  11.904
75497W        W39265  17.737  12.669   1.252
75498W        W39266   3.451   8.160   0.269
75499W        W39267  34.591   2.786   3.774
75500W        W39268  37.046  21.648  11.126
75501W        W39269  31.107  40.909   0.923
75502W        W39270  20.606  35.956  10.552
75503W        W39271  14.117  14.119   2.419
75504W        W39272  19.070  40.426   1.211
75505W        W39273   5.398   6.910   0.759
75506W        W39274  31.429  21.136   2.821
75507W        W39275  14.725  13.234  13.061
75508W        W39276  10.680  13.683   1.294
75509W        W39277  38.554  11.218  11.503
75510W        W39278  43.977  25.644  12.384
75511W        W39279  42.844  41.373  14.794
75512W        W39280   4.913   9.360   0.468
75513W        W39281   3.340  31.625  10.451
75514W        W39282  25.018  23.090   1.716
75515W        W39283  24.115  33.503  14.507
75516W        W39284  22.613  23.678  12.095
75517W        W39285  14.316  41.796  14.955
75518W        W39286  37.013  28.029  14.418
75519W        W39287  21.199  13.345   1.274
75520W        W39288  24.098  10.660  13.531
75521W        W39289  24.046  43.992   1.873
75522W        W39290   9.741  11.655   4.344
75523W        W39291   8.701  26.975   1.697
75524W        W39292  14.821  19.621  13.337
75525W        W39293  27.188   4.778  11.527
75526W        W39294   7.417  35.464  10.570
75527W        W39295   0.315   2.395   0.781
75528W        W39296  20.090  19.665  11.430
75529W        W39297  40.915  43.501   0.912
75530W        W39298  41.811   1.317   3.781
75531W        W39299  33.956   1.870   2.185
75532W        W39300  10.824  38.366  11.099
75533W        W39301   2.430  24.671  11.429
75534W        W39302  32.557  30.521   1.825
75535W        W39303  27.530   5.422  12.565
75536W        W39304  41.834  26.549   5.152
75537W        W39305   5.195  35.435   0.342
75538W        W39306  44.439  27.479  10.627
75539W        W39307  25.603  24.603  12.415
75540W        W39308  34.052  35.871   3.826
75541W        W39309   2.785  22.193  11.857
75542W        W39310  22.625   2.720   2.416
75543W        W39311  26.527  22.706   2.889
75544W        W39312  15.765  38.489  11.911
75545W        W39313  40.040  21.709   4.275
75546W        W39314  41.515   4.217   0.275
75547W        W39315   1.788   6.687   3.831
75548W        W39316  25.639  17.124   0.277
75549W        W39317  44.260  43.313   0.757
75550W        W39318  39.051  23.023   0.340
75551W        W39319  34.469  24.691   1.281
75552W        W39320  16.704  43.884   3.694
75553W        W39321  20.263  41.995  12.978
75554W        W39322  42.009  41.530   3.357
75555W        W39323   3.300  32.008   1.875
75556W        W39324  38.455  31.597   4.324
75557W        W39325  29.996  43.770   1.336
75558W        W39326  44.433   9.247   3.290
75559W        W39327   6.768   1.293   0.398
75560W        W39328  26.515  13.689   2.752
75561W        W39329  21.153  31.531  12.837
75562W        W39330  15.144  33.599  12.090
75563W        W39331  13.130  41.834  12.884
75564W        W39332  20.126   4.350  12.025
75565W        W39333  24.675  31.640  12.022
75566W        W39334  21.142  25.492   1.426
75567W        W39335  27.484  14.188   1.851
75568W        W39336  27.482  16.242   0.830
75569W        W39337  18.667  18.127   4.225
75570W        W39338  20.101   9.329   4.734
75571W        W39339  14.680  30.484  12.560
75572W        W39340   3.260  39.391   0.460
75573W        W39341  12.772  38.065   2.406
75574W        W39342  16.682  26.511  14.911
75575W        W39343   2.849  29.132  11.885
75576W        W39344   3.223  14.205   1.820
75577W        W39345  24.619  33.983  14.997
75578W        W39346  20.154  43.975   1.835
75579W        W39347   1.955  10.348   3.696
75580W        W39348  44.971  27.047   4.252
75581W        W39349  33.063   9.279   3.854
75582W        W39350  35.051  33.534   0.769
75583W        W39351  25.559  25.503   0.461
75584W        W39352   3.755  24.000   0.300
75585W        W39353  37.927  14.325   0.754
75586W        W39354   5.274  34.970   4.677
75587W        W39355   7.752  12.317   0.841
75588W        W39356  43.847  35.531   0.737
75589W        W39357  35.977  33.451  13.376
75590W        W39358  26.558  15.726  12.546
75591W        W39359   8.888  22.140   4.205
75592W        W39360  21.630  34.529   0.845
75593W        W39361  34.612   8.814  14.407
75594W        W39362   8.221   2.893  14.321
75595W        W39363  24.154  31.076  11.882
75596W        W39364  18.223   7.748   2.268
75597W        W39365  27.135  20.733  11.504
75598W        W39366  20.033  18.109   2.265
75599W        W39367  42.985  38.342  12.566
75600W        W39368  17.624   1.331   2.710
75601W        W39369  32.550  13.137   0.851
75602W        W39370  39.835   7.781  11.119
75603W        W39371  20.769  18.695  14.896
75604W        W39372  15.803  33.059  14.000
75605W        W39373  21.232  37.967  11.553
75606W        W39374  20.723  17.789   0.472
75607W        W39375  38.051  23.141   2.771
75608W        W39376  14.140  11.270  10.992
75609W        W39377  31.623  44.283   2.693
75610W        W39378  19.111  24.500  10.050
75611W        W39379  22.642  40.976  12.849
75612W        W39380  22.502  20.109   3.709
75613W        W39381  30.909  26.107  14.897
75614W        W39382  15.257   2.809   1.779
75615W        W39383   3.925  17.752  11.374
75616W        W39384  26.655  30.558   0.394
75617W        W39385  20.101  28.659  10.419
75618W        W39386  39.496  35.516   3.812
75619W        W39387   9.778  35.016  14.983
75620W        W39388  36.480  36.410  11.404
75621W        W39389  14.736  17.174   0.478
75622W        W39390  31.471  33.541   4.144
75623W        W39391  29.528  11.682  12.481
75624W        W39392  44.414  40.914   0.343
75625W        W39393  25.499  34.613  13.337
75626W        W39394  42.864  25.979  14.820
75627W        W39395  10.753  31.582  11.413
75628W        W39396  22.169  39.979   3.208
75629W        W39397  35.094  35.594   0.881
75630W        W39398  37.440  23.230  12.092
75631W        W39399   2.298  14.748   2.416
75632W        W39400  21.734  16.736   0.314
75633W        W39401   8.884  13.310   5.220
75634W        W39402  23.648  22.042  14.322
75635W        W39403  28.489   2.352  14.957
75636W        W39404  20.129  37.994  14.003
75637W        W39405  19.610  43.804   4.604
75638W        W39406   8.766  18.590  11.960
75639W        W39407  37.531  28.049   2.747
75640W        W39408  32.008  31.003   2.842
75641W        W39409  26.997  21.636   0.438
75642W        W39410  30.494  25.012  11.438
75643W        W39411   2.964   4.269  14.963
75644W        W39412  38.004  29.044   1.284
75645W        W39413  38.519  23.077  14.444
75646W        W39414   8.228  33.907  11.952
75647W        W39415   0.930  24.037   4.623
75648W        W39416   0.977  32.085  14.342
75649W        W39417  40.492  26.068  11.464
75650W        W39418  39.824  16.284  11.612
75651W        W39419   3.760  37.544  13.902
75652W        W39420  18.138   5.789  14.398
75653W        W39421  44.379   6.884  13.982
75654W        W39422  29.114  15.184   4.318
75655W        W39423   0.889   9.717  11.881
75656W        W39424  32.449   9.842  11.862
75657W        W39425  29.574  18.789   4.804
75658W        W39426   4.742  18.595  11.931
75659W        W39427  25.992  38.037   5.318
75660W        W39428  43.358   1.472   3.163
75661W        W39429  43.776   7.173   4.753
75662W        W39430  22.503  33.566   3.352
75663W        W39431  37.440  39.965  12.930
75664W        W39432  34.903  38.931  12.060
75665W        W39433  26.634   6.786   3.146
75666W        W39434  14.611  43.868  12.565
75667W        W39435  25.642  26.090   2.192
75668W        W39436  21.197   4.379   0.442
75669W        W39437  37.505  22.530   4.127
75670W        W39438   2.397  33.438   4.158
75671W        W39439   2.236  39.880  12.890
75672W        W39440  41.504   6.895   0.314
75673W        W39441  26.607  14.301   1.444
75674W        W39442   6.426  15.765   9.937
75675W        W39443  20.737  43.947   4.658
75676W        W39444   2.769  29.579   2.823
75677W        W39445  13.665  40.050  11.515
75678W        W39446  39.822  28.115  10.412
75679W        W39447  25.505   3.725  14.829
75680W        W39448  24.116  21.734  10.499
75681W        W39449  22.022  10.358   0.391
75682W        W39450   0.417  35.454   2.732
75683W        W39451   9.268  44.279  13.950
75684W        W39452  32.589  31.911  10.574
75685W        W39453  32.034  15.226   1.873
75686W        W39454   8.747  16.755   0.961
75687W        W39455  31.025  23.574  13.857
75688W        W39456  31.603  15.746  12.441
75689W        W39457  11.793   6.838   1.720
75690W        W39458  12.228  23.614  14.415
75691W        W39459  26.553   0.850   2.320
75692W        W39460  34.104  17.594  12.462
75693W        W39461  14.128  33.382   2.883
75694W        W39462  43.797  31.051  12.525
75695W        W39463   0.987  17.280  14.934
75696W        W39464   8.863  24.075   2.365
75697W        W39465   0.281  23.604  10.524
75698W        W39466   0.353  42.833   4.168
75699W        W39467  29.089   3.795  13.998
75700W        W39468  14.274  33.610   5.193
75701W        W39469  36.857   5.221  12.548
75702W        W39470  34.496   7.379   5.090
75703W        W39471  42.005   9.346   0.455
75704W        W39472  11.725  23.196   3.190
75705W        W39473  42.973  14.634  14.337
75706W        W39474  42.828  17.116   2.798
75707W        W39475   2.383  11.320  12.048
75708W        W39476  14.100  36.505   2.721
75709W        W39477  13.130  19.191   1.756
75710W        W39478   0.303   8.657  10.447
75711W        W39479  42.997  17.188  13.868
75712W        W39480  41.933  19.753   0.410
75713W        W39481  32.137  14.116   4.645
75714W        W39482  31.055  17.576   5.669
75715W        W39483  12.122  26.566   1.894
75716W        W39484  38.907  35.963  14.911
75717W        W39485  19.242  20.133  10.558
75718W        W39486  19.666  21.574   1.910
75719W        W39487  40.864  10.667   2.748
75720W        W39488  39.424  41.821  10.934
75721W        W39489  40.361  38.837   2.301
75722W        W39490   1.777  10.268  13.379
75723W        W39491  21.173  22.672   5.256
75724W        W39492  30.148  30.089   0.765
75725W        W39493   5.825  23.989   3.270
75726W        W39494  29.452   3.785  10.428
75727W        W39495   5.703   2.791   0.480
75728W        W39496  16.574  44.272  13.526
75729W        W39497  16.566  21.086   4.127
75730W        W39498  26.554  24.998  12.372
75731W        W39499   4.276   0.482   0.939
75732W        W39500  19.117  39.856  10.613
75733W        W39501  44.280   3.336  14.340
75734W        W39502  11.155  10.835   0.817
75735W        W39503  21.141  14.612   0.732
75736W        W39504   8.173  31.592  13.919
75737W        W39505  13.167   4.433  14.512
75738W        W39506   4.232  38.855   0.828
75739W        W39507  42.475  41.504  13.457
75740W        W39508  11.684  19.245  12.048
75741W        W39509  35.919  17.100  14.973
75742W        W39510  25.995  27.113  13.376
75743W        W39511   6.330  20.680  12.841
75744W        W39512  40.891  22.631   3.674
75745W        W39513  27.563   0.793  12.861
75746W        W39514  21.561  35.914  13.977
75747W        W39515   8.853  23.100   2.834
75748W        W39516  30.652  21.214   1.826
75749W        W39517   5.342  43.490   1.791
75750W        W39518  36.015  37.873   4.616
75751W        W39519   8.843   6.365  12.353
75752W        W39520  24.216  33.910   3.776
75753W        W39521  41.476   9.355   2.243
75754W        W39522  23.229  25.694  11.563
75755W        W39523  27.563  27.538   4.344
75756W        W39524  28.602  22.126   2.678
75757W        W39525  34.103  13.238   2.231
75758W        W39526  17.186  20.599  14.850
75759W        W39527  19.557  38.492  13.411
75760W        W39528  31.108  41.815  13.355
75761W        W39529   7.781   7.805   1.794
75762W        W39530   9.825  26.478  13.060
75763W        W39531  32.006  11.340   3.684
75764W        W39532   2.815  33.127  14.847
75765W        W39533  16.653  23.568   0.818
75766W        W39534  13.271  13.173  12.561
75767W        W39535  33.410  43.978   0.885
75768W        W39536  16.759  31.047   3.649
75769W        W39537  32.484  25.055   0.364
75770W        W39538  26.173  34.063  13.405
75771W        W39539  44.942   9.163  10.560
75772W        W39540  25.510   6.402  10.955
75773W        W39541  24.683  23.231   0.389
75774W        W39542  27.592   1.291   2.257
75775W        W39543  26.686  14.115   2.699
75776W        W39544   3.441  34.927  12.440
75777W        W39545  37.913  29.974  13.491
75778W        W39546  16.797  28.145   4.173
75779W        W39547  16.805  28.590  11.067
75780W        W39548   1.274   7.695  13.356
75781W        W39549  24.515  11.762   0.366
75782W        W39550  44.893  27.075   3.769
75783W        W39551  33.914  40.382   4.206
75784W        W39552  41.402   4.785  13.849
75785W        W39553  20.070  14.309   2.886
75786W        W39554   3.736  22.689  12.829
75787W        W39555  14.271   6.725  13.952
75788W        W39556  37.523  32.471   0.744
75789W        W39557  40.441  16.245   2.410
75790W        W39558  16.078  21.569   4.215
75791W        W39559  22.634  27.108   4.219
75792W        W39560  25.595  31.574   2.228
75793W        W39561  34.046  21.232  11.489
75794W        W39562  31.077  23.550   1.797
75795W        W39563  14.332  30.989   1.279
75796W        W39564  20.576  43.509   1.363
75797W        W39565  29.970  31.912   5.183
75798W        W39566  10.265  28.950  14.854
75799W        W39567   4.411  17.719   4.727
75800W        W39568  30.612  15.119   0.300
75801W        W39569  35.960  24.218  14.298
75802W        W39570  21.729  28.493   1.739
75803W        W39571  15.782  20.254  13.816
75804W        W39572  11.845  10.293   5.194
75805W        W39573  14.279  20.564   1.774
75806W        W39574  32.533  18.599  14.963
75807W        W39575  41.485  32.578  12.367
75808W        W39576  17.305  43.438  14.001
75809W        W39577  32.530   2.293  11.896
75810W        W39578  38.860  20.589   1.919
75811W        W39579  34.469  21.131  11.975
75812W        W39580  35.081  37.457   9.937
75813W        W39581  28.558  42.981  13.324
75814W        W39582  29.611  33.091  14.478
75815W        W39583  43.884  31.009  10.550
75816W        W39584  24.655  30.012   2.241
75817W        W39585   2.376  25.991   1.753
75818W        W39586  38.466  17.677  13.510
75819W        W39587   3.442  28.621   2.869
75820W        W39588  25.009  34.940  12.000
75821W        W39589  31.620  20.686  11.489
75822W        W39590  38.848  10.724  14.998
75823W        W39591  24.597  34.536  14.854
75824W        W39592  11.336   4.392   0.283
75825W        W39593  36.931  33.902   3.289
75826W        W39594  34.551   1.359   3.807
75827W        W39595   3.834  42.392   2.371
75828W        W39596  28.035  11.676   1.358
75829W        W39597   0.917   9.320   4.159
75830W        W39598  34.944  22.064  13.988
75831W        W39599  22.681  24.093  11.021
75832W        W39600  32.988  38.366   0.763
75833W        W39601  18.145  36.586   1.431
75834W        W39602  31.976  41.856  10.495
75835W        W39603  15.149  11.633   9.941
75836W        W39604  21.545  17.138  13.890
75837W        W39605  23.644  17.083  11.439
75838W        W39606  10.854  30.998  10.949
75839W        W39607  20.177  41.379  14.024
75840W        W39608  20.567  44.352  13.822
75841W        W39609  19.666  14.105   1.828
75842W        W39610   4.944  27.483  11.468
75843W        W39611  39.542  41.328  11.503
75844W        W39612  31.897  15.086  14.998
75845W        W39613  29.665  29.931   0.784
75846W        W39614  11.343  15.727   4.336
75847W        W39615  20.734  41.899   0.866
75848W        W39616   6.417  21.231  13.524
75849W        W39617  12.132  18.631   4.703
75850W        W39618  37.403  22.156   1.282
75851W        W39619  13.174   9.390  10.561
75852W        W39620  21.684  16.610   1.404
75853W        W39621  22.561  21.154   4.223
75854W        W39622  27.004   5.720  13.353
75855W        W39623   3.894   4.806   1.398
75856W        W39624  11.621  42.494   2.765
75857W        W39625  11.866  17.115  11.535
75858W        W39626  31.569  27.690  10.446
75859W        W39627   4.431  34.103   1.347
75860W        W39628  10.151  33.401  11.041
75861W        W39629  24.091  12.290   2.246
75862W        W39630  37.059  33.427   0.903
75863W        W39631   7.239  28.462   0.266
75864W        W39632  33.923  15.681   1.861
75865W        W39633  34.910  17.738  13.933
75866W        W39634  37.483   8.839   4.267
75867W        W39635  35.924   0.454  11.412
75868W        W39636  10.199  28.945  12.862
75869W        W39637  15.751  43.794   1.379
75870W        W39638  25.969   2.942  10.528
75871W        W39639   1.473  24.978  14.384
75872W        W39640   8.664  29.108  11.093
75873W        W39641  24.207  37.459   4.656
75874W        W39642  14.282  22.063  12.937
75875W        W39643  22.528  42.499   4.722
75876W        W39644  35.552  34.072  10.420
75877W        W39645  30.589  22.552  11.078
75878W        W39646  38.346  37.470   1.785
75879W        W39647  23.127  27.993   2.716
75880W        W39648  17.133   4.929   3.332
75881W        W39649  38.939  23.151  13.334
75882W        W39650   4.869  18.105  14.959
75883W        W39651  27.990  20.260  13.884
75884W        W39652  21.601  40.418   4.784
75885W        W39653  40.438  15.699  11.599
75886W        W39654  32.951  41.389  13.797
75887W        W39655  14.291   9.300   3.725
75888W        W39656  29.522   2.929  10.993
75889W        W39657  33.061  42.028   3.858
75890W        W39658  38.897  27.038   2.811
75891W        W39659  23.142  17.788  11.437
75892W        W39660   5.900  36.920   3.646
75893W        W39661  26.461  40.905   4.268
75894W        W39662  37.019  13.193  10.601
75895W        W39663  24.979  18.136   4.238
75896W        W39664  22.611   3.914   4.720
75897W        W39665  40.944   6.760  11.611
75898W        W39666  25.536  28.600   3.243
75899W        W39667  19.148  14.663   3.331
75900W        W39668  28.511  23.054   3.824
75901W        W39669  23.203  11.837   3.350
75902W        W39670  24.138  12.300   1.407
75903W        W39671   6.766  44.827   3.167
75904W        W39672   4.314   8.758   0.338
75905W        W39673  31.976  36.564   0.751
75906W        W39674  38.497   8.704  14.999
75907W        W39675   6.922  32.496  14.311
75908W        W39676  10.255  38.563   2.279
75909W        W39677  25.086  43.014  13.517
75910W        W39678  30.468  28.004   1.276
75911W        W39679   3.270   7.667   0.906
75912W        W39680  28.033  26.665  13.981
75913W        W39681  19.084  11.355   2.261
75914W        W39682  14.757  23.100  10.574
75915W        W39683   2.894  30.620   2.765
75916W        W39684  23.668   8.204  11.399
75917W        W39685  24.048   3.781  14.279
75918W        W39686  13.194  39.326  11.466
75919W        W39687  18.141  15.317  14.971
75920W        W39688  10.232  14.319  14.875
75921W        W39689  37.528  21.251   4.828
75922W        W39690  27.971   5.823  13.871
75923W        W39691  23.128  14.755  11.436
75924W        W39692  32.501  14.796   4.142
75925W        W39693  42.851  17.769  14.483
75926W        W39694   2.885  27.501  10.471
75927W        W39695  41.448   2.241   0.393
75928W        W39696  20.067  27.611  10.896
75929W        W39697  27.155  32.487  11.500
75930W        W39698  31.086  16.146   0.281
75931W        W39699  27.012  40.386   9.992
75932W        W39700  37.367  10.845   0.792
75933W        W39701  40.527  41.394   4.822
75934W        W39702  40.998   3.715  11.482
75935W        W39703  34.574  12.320   3.375
75936W        W39704   7.314   2.452   3.671
75937W        W39705  41.307  23.168   0.432
75938W        W39706  23.223  37.007   0.745
75939W        W39707  19.129  29.008   0.776
75940W        W39708  15.298   0.456   0.860
75941W        W39709  41.336  21.579   1.817
75942W        W39710  29.579  32.550  12.534
75943W        W39711  20.701   3.461  11.066
75944W        W39712   0.800  31.511   4.171
75945W        W39713  20.182  30.147  10.919
75946W        W39714  34.528  32.908  12.056
75947W        W39715   1.313  26.014   2.194
75948W        W39716  21.152   1.322   0.832
75949W        W39717  39.379   9.688   4.121
75950W        W39718  31.470  26.005  12.087
75951W        W39719   4.826  13.167  10.438
75952W        W39720  19.628   4.213   3.190
75953W        W39721  40.505  19.108   2.875
75954W        W39722  21.731  15.787  11.027
75955W        W39723  39.442  44.779  11.995
75956W        W39724  26.611  34.521  13.875
75957W        W39725  42.432  33.896  10.967
75958W        W39726  16.707  27.628  14.902
75959W        W39727  14.634   4.901  10.888
75960W        W39728  16.716   2.431  12.973
75961W        W39729   3.362   4.402   4.748
75962W        W39730  15.281  31.931   2.380
75963W        W39731   3.383  33.068   3.247
75964W        W39732  11.766   8.718  13.489
75965W        W39733  37.976  16.123  14.467
75966W        W39734  39.948   4.256   4.727
75967W        W39735  39.818  33.086  11.125
75968W        W39736  31.146  41.434  12.452
75969W        W39737  25.672  13.318   4.751
75970W        W39738   5.720  37.530  14.860
75971W        W39739  34.395   9.240  13.380
75972W        W39740  32.110   6.386  13.059
75973W        W39741   4.397  19.092   2.733
75974W        W39742  27.984  43.452   3.638
75975W        W39743  44.936  11.762   0.435
75976W        W39744  20.131   1.283  11.398
75977W        W39745  18.649  31.113   4.645
75978W        W39746  15.278   6.916   3.305
75979W        W39747  11.761  12.621   0.763
75980W        W39748  14.253  15.150  12.998
75981W        W39749  16.151  31.626   2.843
75982W        W39750  24.075  31.533  11.859
75983W        W39751  41.447  25.137   4.198
75984W        W39752   2.359  34.490  13.813
75985W        W39753  13.119  11.777   0.444
75986W        W39754  42.994   7.217  12.037
75987W        W39755   3.888  42.862   3.708
75988W        W39756  12.637  12.256   2.714
75989W        W39757  30.587  18.688   3.819
75990W        W39758  34.117  17.620   2.369
75991W        W39759  34.388  11.665   4.800
75992W        W39760  37.420  22.057   2.712
75993W        W39761  24.143  33.049  12.995
75994W        W39762   1.855  38.960  10.123
75995W        W39763   1.888  19.071  11.580
75996W        W39764  15.582  21.032  13.412
75997W        W39765  17.741  42.291  10.533
75998W        W39766  11.310  14.110   3.650
75999W        W39767  21.218  13.129   0.925
76000W        W39768  33.553   6.395   1.289
76001W        W39769  14.152  43.863  11.519
76002W        W39770   4.404  39.995  12.886
76003W        W39771   7.673   6.729  12.833
76004W        W39772  29.111  26.088   4.154
76005W        W39773  17.285  12.146   2.666
76006W        W39774  17.620   9.364  12.531
76007W        W39775  37.554  29.130  10.522
76008W        W39776  13.340  40.426   4.196
76009W        W39777   6.231  29.645  10.051
76010W        W39778   5.429   9.335   1.321
76011W        W39779  29.482   3.449  11.925
76012W        W39780   1.263  36.008   2.871
76013W        W39781   2.333  29.631  12.539
76014W        W39782  27.068  19.651  14.839
76015W        W39783  24.590  44.446  10.567
76016W        W39784  27.632   9.208  10.966
76017W        W39785   1.237  10.743  13.038
76018W        W39786   1.740  31.627  13.885
76019W        W39787  23.171  14.223   3.293
76020W        W39788  39.874  20.599  12.094
76021W        W39789  27.603  23.208  10.604
76022W        W39790  36.964   8.769   0.895
76023W        W39791   2.469  37.857  13.460
76024W        W39792  24.533  31.061  14.943
76025W        W39793   3.938  37.055   1.216
76026W        W39794  30.072  19.715   0.831
76027W        W39795  26.200  30.011   2.181
76028W        W39796  35.437  40.349   1.366
76029W        W39797  35.910  15.667   3.789
76030W        W39798  24.599  21.062   1.359
76031W        W39799  34.072  31.967   3.214
76032W        W39800  27.068  20.256  11.372
76033W        W39801  10.682  35.402  10.620
76034W        W39802   1.928  27.044   2.317
76035W        W39803  13.687  39.981   2.688
76036W        W39804   3.408  41.790   4.139
76037W        W39805  16.778  43.802  10.561
76038W        W39806   5.432  29.968   0.869
76039W        W39807   2.748   5.882  13.316
76040W        W39808  17.723  37.573   4.792
76041W        W39809   2.902   9.248   1.334
76042W        W39810  33.893  34.906  12.872
76043W        W39811   1.420  13.206  10.614
76044W        W39812   0.987  11.173  13.416
76045W        W39813  27.583  42.316   0.424
76046W        W39814  34.938  31.018   4.311
76047W        W39815   9.325  21.155   0.773
76048W        W39816  22.113  19.222  11.484
76049W        W39817   1.780  41.337   2.842
76050W        W39818  18.284  24.162  14.006
76051W        W39819  35.410  37.416   4.660
76052W        W39820  43.434   2.725   1.931
76053W        W39821  37.428  26.032   0.378
76054W        W39822   1.360   9.649   0.874
76055W        W39823  18.557  32.624  13.876
76056W        W39824  23.595  43.321  12.946
76057W        W39825  18.590   4.698  13.989
76058W        W39826  21.038   7.292   1.895
76059W        W39827   9.881  23.114   4.145
76060W        W39828  35.474   7.745   3.236
76061W        W39829  24.663   0.805   4.147
76062W        W39830  41.323  41.986   1.215
76063W        W39831  12.636  22.175   0.447
76064W        W39832   6.285  20.532   1.332
76065W        W39833   8.293  22.997  14.473
76066W        W39834  21.727  42.029   3.331
76067W        W39835  27.688  28.455  10.491
76068W        W39836  37.454  26.161  11.500
76069W        W39837  31.934  24.539  12.985
76070W        W39838  29.920   2.324   4.311
76071W        W39839  32.431   1.878   0.944
76072W        W39840  27.152  33.453   3.749
76073W        W39841  38.468  29.649   2.692
76074W        W39842   2.817  40.821  10.902
76075W        W39843  19.140  16.317   2.805
76076W        W39844  23.000  35.509  13.806
76077W        W39845   7.855  37.468   3.180
76078W        W39846   4.418  35.582  13.842
76079W        W39847  21.175   6.407  10.554
76080W        W39848  10.222  19.185  10.516
76081W        W39849  33.990  26.607  14.275
76082W        W39850   3.293  38.007   4.285
76083W        W39851  24.225   9.699   4.207
76084W        W39852  33.572   3.390  10.622
76085W        W39853  28.954  11.797   4.764
76086W        W39854  35.421  24.079  13.498
76087W        W39855  31.085  20.038  12.070
76088W        W39856  14.735  16.186   0.890
76089W        W39857  15.592  11.653   0.366
76090W        W39858  33.063  37.500   3.712
76091W        W39859  11.155  18.606   1.886
76092W        W39860  35.056  35.511  12.080
76093W        W39861  10.675   7.677   4.205
76094W        W39862  42.920   2.294   1.424
76095W        W39863  38.015  39.539  11.572
76096W        W39864  42.004   2.797  10.587
76097W        W39865  28.456   6.784   1.250
76098W        W39866  26.023  43.022  11.908
76099W        W39867  16.141  36.464  13.406
76100W        W39868  32.457   6.397  11.573
76101W        W39869  30.626   6.912   2.263
76102W        W39870  38.926  18.131  14.924
76103W        W39871  43.437  18.752   4.299
76104W        W39872   9.381  11.346  10.085
76105W        W39873  24.992  30.646  12.905
76106W        W39874  26.043  21.617   3.387
76107W        W39875  23.996  37.012   3.326
76108W        W39876   7.869  18.193  14.775
76109W        W39877  23.507   3.277  14.760
76110W        W39878  39.898   9.721  11.097
76111W        W39879  42.415  23.628   3.284
76112W        W39880  10.853  22.100   0.329
76113W        W39881  22.618   0.752   3.672
76114W        W39882   7.893   2.437  12.540
76115W        W39883  14.273  15.269  11.933
76116W        W39884  27.558  15.098   1.307
76117W        W39885  36.428  20.599   4.269
76118W        W39886  23.122  12.743  11.508
76119W        W39887  29.487  40.024   3.727
76120W        W39888  10.273   2.444   0.928
76121W        W39889   0.783  10.182  14.957
76122W        W39890  12.146  35.361   0.944
76123W        W39891  27.506  27.138   3.692
76124W        W39892  32.595  25.502   4.708
76125W        W39893  31.077  16.722  14.477
76126W        W39894  10.736  11.808   2.394
76127W        W39895  33.994  13.675  13.535
76128W        W39896  40.353  21.559  10.963
76129W        W39897  13.178  10.737  10.939
76130W        W39898  37.931  35.602  10.472
76131W        W39899   3.215   5.279  10.933
76132W        W39900  41.498   8.163  12.840
76133W        W39901   6.708   1.399   3.792
76134W        W39902  16.777  37.848  12.075
76135W        W39903  41.017  36.417   0.776
76136W        W39904   0.987  26.534  10.612
76137W        W39905  37.381  11.237   0.952
76138W        W39906  29.529  19.624   4.831
76139W        W39907  24.151   5.336  12.432
76140W        W39908  33.920  30.979  13.945
76141W        W39909  15.802  32.528  12.937
76142W        W39910  28.534  21.569  11.868
76143W        W39911  30.069  27.682  11.383
76144W        W39912  29.940  37.489   4.296
76145W        W39913  20.717  41.477  10.454
76146W        W39914  37.901  28.608   4.183
76147W        W39915   2.876  11.285  14.302
76148W        W39916  29.926   9.235  13.905
76149W        W39917  39.541  17.732  14.023
76150W        W39918  28.590  12.344  13.426
76151W        W39919  10.365  31.622  14.843
76152W        W39920  42.446  11.783   2.697
76153W        W39921  18.210  12.826  12.378
76154W        W39922   9.236   7.769  11.604
76155W        W39923  34.600  35.043   3.764
76156W        W39924  30.567  41.000  13.803
76157W        W39925  19.566  10.261  11.528
76158W        W39926  27.097  41.826   4.621
76159W        W39927  10.863   4.899   0.389
76160W        W39928  11.698   5.203   3.678
76161W        W39929  26.622  29.086  13.466
76162W        W39930  26.973  20.075  10.569
76163W        W39931   1.814  41.325   2.298
76164W        W39932  38.333  37.998  13.854
76165W        W39933  18.549  22.097  13.501
76166W        W39934  13.613  19.621   0.926
76167W        W39935   5.239  28.060   3.217
76168W        W39936  40.927  32.076  14.463
76169W        W39937  27.592   5.804  12.556
76170W        W39938  37.949  37.580  12.919
76171W        W39939  42.329  34.387   0.895
76172W        W39940  34.914  17.096  10.542
76173W        W39941  39.382   0.393   0.919
76174W        W39942   6.769  43.470   0.932
76175W        W39943  33.068  12.757   3.786
76176W        W39944  22.180  14.822  14.316
76177W        W39945  38.377  14.758   3.732
76178W        W39946  13.604  17.183   4.225
76179W        W39947  40.392   4.356  14.873
76180W        W39948  11.173  38.015   1.414
76181W        W39949  19.648   8.185  11.382
76182W        W39950  43.508  29.017  10.495
76183W        W39951  28.500  30.912  10.630
76184W        W39952  43.855  25.060   4.623
76185W        W39953   8.275  15.301   1.282
76186W        W39954  18.673  27.459   0.869
76187W        W39955  29.052  19.257   2.402
76188W        W39956  13.641  11.251  11.468
76189W        W39957  40.371  35.591  13.967
76190W        W39958   5.217  18.631  11.869
76191W        W39959  13.733  43.010   4.126
76192W        W39960  32.113   6.294   4.248
76193W        W39961  36.863  32.082   0.763
76194W        W39962   6.254   7.346   2.774
76195W        W39963   7.413  20.047   0.422
76196W        W39964  31.488   2.813   0.905
76197W        W39965  24.713  23.130   3.849
76198W        W39966  17.569  38.853  13.975
76199W        W39967  32.478  24.649  11.594
76200W        W39968  35.887  23.624   2.345
76201W        W39969   0.748   3.220   1.792
76202W        W39970  14.328   0.409   4.608
76203W        W39971  35.938  18.664  14.486
76204W        W39972  36.907  30.007  13.505
76205W        W39973   5.931  30.656  12.941
76206W        W39974   6.859   4.318  14.856
76207W        W39975   8.256  43.974  13.867
76208W        W39976   7.217  31.411  12.363
76209W        W39977  34.484  38.559  13.401
76210W        W39978   2.770  37.002  14.000
76211W        W39979  20.159  33.891   5.106
76212W        W39980  27.537  14.255  12.957
76213W        W39981  21.257  13.198   4.753
76214W        W39982   3.946  23.659  10.098
76215W        W39983  28.552  28.669   3.186
76216W        W39984  41.294  17.673  11.045
76217W        W39985  40.043  36.469  13.526
76218W        W39986  14.798  24.662   2.320
76219W        W39987  43.963  33.078   0.749
76220W        W39988  23.680  39.884  10.561
76221W        W39989  12.639  25.079   4.769
76222W        W39990  35.424  34.375  13.022
76223W        W39991  13.241  26.540   0.920
76224W        W39992  35.483  35.507  11.429
76225W        W39993  26.022   2.881   4.636
76226W        W39994  12.242  38.039   2.379
76227W        W39995  28.574  36.545  12.067
76228W        W39996  22.188  22.602  11.061
76229W        W39997  12.665   5.366   3.754
76230W        W39998  10.240   9.341  13.838
76231W        W39999   6.760  16.693   1.425
76232W        W40000  16.597   8.856  11.877
76233W        W40001  19.678   0.871   3.160
76234W        W40002  25.649  25.628  11.876
76235W        W40003  29.094  36.995   2.766
76236W        W40004   8.345  32.022   4.747
76237W        W40005  11.700  34.443  12.990
76238W        W40006  41.792  18.587  13.405
76239W        W40007   6.262  15.730  12.520
76240W        W40008  20.746  26.019   1.778
76241W        W40009  24.506  18.292  11.447
76242W        W40010   9.855   7.276  14.428
76243W        W40011  32.499   8.761  10.949
76244W        W40012  29.624  32.085  10.076
76245W        W40013  12.799  27.528   2.717
76246W        W40014   7.205  24.212   3.655
76247W        W40015   9.826  12.325  14.842
76248W        W40016  33.887  18.168   4.718
76249W        W40017   3.712  30.020  13.846
76250W        W40018  10.244  26.030   3.235
76251W        W40019  23.155  19.253  11.411
76252W        W40020   0.776  10.355   4.814
76253W        W40021  21.095  31.406   0.453
76254W        W40022   5.203  17.257   2.884
76255W        W40023  43.465   8.818  10.492
76256W        W40024  32.602  30.151  12.863
76257W        W40025   4.908  17.583  10.550
76258W        W40026  10.316  37.389  12.830
76259W        W40027  12.155  31.898  13.525
76260W        W40028   8.733   6.745  14.446
76261W        W40029  43.291  38.985  10.518
76262W        W40030  15.801  25.537   4.208
76263W        W40031  42.418  44.395  10.009
76264W        W40032  12.138  31.579   2.705
76265W        W40033  15.286  31.477  10.430
76266W        W40034  18.066  23.652  11.938
76267W        W40035  30.541   4.293  13.951
76268W        W40036  44.927  10.819  12.899
76269W        W40037  36.888  22.617  13.931
76270W        W40038  36.523  22.694  14.871
76271W        W40039   6.877  39.938  13.317
76272W        W40040  36.946  39.987   2.416
76273W        W40041   7.698  36.097  11.388
76274W        W40042  20.256  33.560  11.975
76275W        W40043   1.744   9.786   4.133
76276W        W40044  39.850  30.628  13.929
76277W        W40045  27.554  29.641  10.515
76278W        W40046   9.820  31.474  10.893
76279W        W40047  36.928  38.901  14.990
76280W        W40048  31.454  12.771  14.776
76281W        W40049  39.053   6.421   1.759
76282W        W40050  32.081  43.982  14.421
76283W        W40051  40.835  37.983   4.816
76284W        W40052   5.266  21.531   0.394
76285W        W40053   9.340  25.065   0.477
76286W        W40054   1.321  22.563  12.976
76287W        W40055   3.362  30.954   2.290
76288W        W40056   1.952  31.512   3.791
76289W        W40057  26.504  38.854   3.637
76290W        W40058  15.702  33.078  11.050
76291W        W40059   8.183  43.434   0.849
76292W        W40060  16.282  31.456  13.508
76293W        W40061  16.742  32.633   0.754
76294W        W40062  17.587   6.297  13.935
76295W        W40063  22.060   7.290  14.785
76296W        W40064  11.134   0.981   2.259
76297W        W40065  12.125   9.779   1.254
76298W        W40066   8.300  33.936  10.486
76299W        W40067  35.390  14.749  10.436
76300W        W40068  11.628  38.525  14.025
76301W        W40069   6.920  21.645   4.197
76302W        W40070  12.141  35.497  11.994
76303W        W40071  17.129  30.488  13.366
76304W        W40072  33.541  15.722  13.534
76305W        W40073  29.562   6.681  12.371
76306W        W40074  43.395   9.220  13.509
76307W        W40075   7.737  18.756   2.875
76308W        W40076  43.779   3.948  14.795
76309W        W40077  32.036  36.015   4.322
76310W        W40078  28.600  13.273   3.265
76311W        W40079  10.808   4.826   1.258
76312W        W40080   2.724  42.993   1.390
76313W        W40081   2.963  41.849   3.341
76314W        W40082  38.449  37.894   4.824
76315W        W40083   4.873  43.798   4.829
76316W        W40084  34.493  16.573   0.961
76317W        W40085  10.780  41.435   0.750
76318W        W40086  11.358  25.005  12.000
76319W        W40087   0.340   1.781  11.603
76320W        W40088  29.021   3.788   3.280
76321W        W40089  20.554  39.458   1.447
76322W        W40090  25.489   3.956   3.642
76323W        W40091   7.673  43.443  12.890
76324W        W40092  26.161  16.315  11.869
76325W        W40093  44.768  28.141  14.016
76326W        W40094  10.303  38.014  14.384
76327W        W40095  42.027  12.319  11.978
76328W        W40096  12.235  36.349   1.725
76329W        W40097  13.215  42.019   3.800
76330W        W40098  39.863  33.569  11.576
76331W        W40099  20.744  18.776  13.461
76332W        W40100  28.138   2.746  12.374
76333W        W40101  21.191  26.136   0.738
76334W        W40102  18.263  31.515  13.395
76335W        W40103  43.973  16.087   2.778
76336W        W40104  29.498  13.179  11.496
76337W        W40105  25.666   3.234  12.027
76338W        W40106  27.509  14.725  13.452
76339W        W40107  34.919   9.654  11.589
76340W        W40108   8.768  19.049   1.790
76341W        W40109  34.890  11.283  12.372
76342W        W40110  44.417  10.337  14.449
76343W        W40111   4.804  23.653  13.864
76344W        W40112  37.381  23.061  13.823
76345W        W40113  32.922  24.546   1.790
76346W        W40114  24.093  21.180   3.739
76347W        W40115  22.038  18.147   1.249
76348W        W40116   0.824  23.077   4.669
76349W        W40117  34.027  35.073   1.360
76350W        W40118   8.805  33.417  13.364
76351W        W40119  14.282  28.154   2.818
76352W        W40120  35.543  11.846  13.391
76353W        W40121  41.499  22.018  12.508
76354W        W40122  10.251  11.154   0.387
76355W        W40123  15.171   6.701  11.950
76356W        W40124  43.434   8.754  14.453
76357W        W40125  12.634  16.735  10.576
76358W        W40126  11.865  22.656  12.372
76359W        W40127  40.029  36.898  11.444
76360W        W40128  44.346   7.329  12.509
76361W        W40129  39.412  31.960  13.053
76362W        W40130  19.083  41.846  12.501
76363W        W40131   3.423  17.612  13.896
76364W        W40132   4.237   6.743   3.234
76365W        W40133  35.479  16.784  10.443
76366W        W40134  34.873  34.554   2.273
76367W        W40135  31.962   1.290   1.832
76368W        W40136  13.640  42.837   2.745
76369W        W40137  38.939  17.143   4.273
76370W        W40138  10.372  32.969  10.545
76371W        W40139  19.204  29.026   4.290
76372W        W40140   7.764  43.319   2.876
76373W        W40141  13.650  14.825  12.879
76374W        W40142   8.325   3.859   4.308
76375W        W40143  22.505  35.464   2.752
76376W        W40144  28.510  13.136  12.844
76377W        W40145   6.823  11.321   0.433
76378W        W40146  12.708  43.978  11.470
76379W        W40147  10.707  25.007  13.040
76380W        W40148   2.267  44.502  12.941
76381W        W40149  32.976  15.157  11.504
76382W        W40150   0.769  40.410   0.481
76383W        W40151  16.231  16.275  10.516
76384W        W40152  19.576  42.332   0.843
76385W        W40153  35.596  31.548   2.223
76386W        W40154  24.555  11.277   2.760
76387W        W40155   6.688  32.004   1.790
76388W        W40156   0.911   0.819  11.001
76389W        W40157   1.974  26.699   5.193
76390W        W40158  33.921  29.085   2.849
76391W        W40159  39.319  40.031  12.559
76392W        W40160   1.352  13.803  12.035
76393W        W40161  16.758  15.816  12.057
76394W        W40162  18.231  21.105   1.278
76395W        W40163   4.751  13.147   0.321
76396W        W40164  30.597   8.771   0.962
76397W        W40165  44.993  23.092   2.275
76398W        W40166   8.674   7.324  14.376
76399W        W40167  34.559  11.774  13.045
76400W        W40168  31.411   1.310   0.283
76401W        W40169  30.543  35.368  13.885
76402W        W40170   0.332  16.756  13.879
76403W        W40171  36.477  27.507   4.632
76404W        W40172   3.280   0.920   2.398
76405W        W40173  42.908  10.352   1.365
76406W        W40174  32.506   8.190   1.922
76407W        W40175  21.143   7.901   3.639
76408W        W40176  36.070  14.216   0.454
76409W        W40177  23.514  16.694   3.176
76410W        W40178  35.561  21.642  10.634
76411W        W40179   7.668  43.458   4.237
76412W        W40180   6.703  23.092   0.253
76413W        W40181  30.515  38.034  14.783
76414W        W40182   7.179  28.505  14.943
76415W        W40183   7.787   8.211  12.072
76416W        W40184   5.837  41.966   0.405
76417W        W40185  35.441  28.485  12.354
76418W        W40186   2.935  41.880  13.452
76419W        W40187   6.833  19.134  12.436
76420W        W40188  31.036  36.468   4.748
76421W        W40189  23.137   7.369  13.507
76422W        W40190  16.686  18.645   1.903
76423W        W40191   9.177   0.344   4.614
76424W        W40192  23.645   8.759  13.325
76425W        W40193  13.845  29.017   4.819
76426W        W40194  34.116   9.874   2.193
76427W        W40195   1.952  44.994  13.820
76428W        W40196   2.831  43.890  14.833
76429W        W40197  41.486  22.704  13.024
76430W        W40198  11.264  28.075  12.026
76431W        W40199  16.735  10.319  12.429
76432W        W40200  13.184  44.355  11.097
76433W        W40201   2.780  28.509   4.200
76434W        W40202  29.583  23.557  13.408
76435W        W40203  36.385   0.277   4.175
76436W        W40204   6.821  44.923   4.702
76437W        W40205  44.284   2.774   4.644
76438W        W40206  11.334  18.090  12.401
76439W        W40207  43.977  40.308  11.500
76440W        W40208  26.586   2.472  11.554
76441W        W40209  40.834  12.847  13.483
76442W        W40210   6.707   7.313  12.431
76443W        W40211  25.184  42.776   1.237
76444W        W40212   3.411  29.165  14.830
76445W        W40213  39.557  37.558   1.406
76446W        W40214  11.647  10.313   5.720
76447W        W40215  21.085   0.346   4.615
76448W        W40216  24.627  38.435  11.053
76449W        W40217   0.953  28.150   4.813
76450W        W40218   5.732  20.062   4.646
76451W        W40219  25.713  31.934  13.505
76452W        W40220   1.314   8.900   4.209
76453W        W40221  10.798  31.555   0.831
76454W        W40222  44.981  29.616   1.795
76455W        W40223  13.686  11.642  14.341
76456W        W40224  16.199  42.349  11.970
76457W        W40225  21.604  32.522   2.804
76458W        W40226  24.176  21.689  13.335
76459W        W40227  15.171  22.066   1.299
76460W        W40228   7.703  25.491  12.952
76461W        W40229   3.257  31.533   2.215
76462W        W40230  18.143   5.777   3.171
76463W        W40231  41.012  10.800  11.067
76464W        W40232  40.825  22.181  14.448
76465W        W40233  23.658  37.579   3.711
76466W        W40234   3.845  29.986   4.308
76467W        W40235  20.592  42.501   4.121
76468W        W40236  44.765   3.222  12.937
76469W        W40237   2.906  29.095  11.594
76470W        W40238  22.582   4.920  10.508
76471W        W40239   4.932  23.154  12.560
76472W        W40240   1.480  16.310  12.983
76473W        W40241   8.202  38.482   3.251
76474W        W40242  40.330  31.936  14.828
76475W        W40243   2.759  25.056   0.471
76476W        W40244  32.019  39.460  13.851
76477W        W40245   1.284  28.662   2.402
76478W        W40246  12.131  18.101   3.256
76479W        W40247  28.084  12.235   0.307
76480W        W40248  32.018  22.709   4.157
76481W        W40249   9.341  21.631  13.992
76482W        W40250  32.535  29.971  11.067
76483W        W40251  11.689  33.489   0.903
76484W        W40252  26.084  16.780  14.981
76485W        W40253   8.876  14.625  10.560
76486W        W40254  34.086  24.010   4.262
76487W        W40255  44.879   0.487  14.513
76488W        W40256  31.520  41.965  12.909
76489W        W40257   0.982   4.740  11.451
76490W        W40258  33.464  21.077  11.033
76491W        W40259   3.801   7.745   0.370
76492W        W40260  38.026   3.808   1.776
76493W        W40261  10.859  12.632   5.280
76494W        W40262  26.127   0.415   0.951
76495W        W40263  18.659  31.636   1.864
76496W        W40264  25.147  13.756   5.291
76497W        W40265   8.784  13.184   1.279
76498W        W40266  30.922  17.717   5.295
76499W        W40267  35.934  32.435   1.394
76500W        W40268  36.456  21.159  10.120
76501W        W40269  22.022  19.554   0.396
76502W        W40270  17.095  37.414  12.357
76503W        W40271  36.431  18.757  13.379
76504W        W40272   4.268  23.138   0.727
76505W        W40273  37.529  42.381   2.392
76506W        W40274  27.638  12.770   4.320
76507W        W40275  35.999  11.776   2.322
76508W        W40276  21.041  34.068   2.699
76509W        W40277  19.230  32.034   1.220
76510W        W40278  10.180  41.864  12.543
76511W        W40279   3.895  28.040  13.528
76512W        W40280  13.773  14.647   0.429
76513W        W40281  43.382  42.919  14.349
76514W        W40282  16.141   3.717   2.359
76515W        W40283   1.481  22.515   3.191
76516W        W40284  18.231  32.948   0.922
76517W        W40285  44.475  38.494  13.387
76518W        W40286  21.654  30.977  11.444
76519W        W40287  24.703   5.797  13.307
76520W        W40288  22.065  21.225   2.705
76521W        W40289  15.228  26.479   2.240
76522W        W40290  20.665  27.003  13.035
76523W        W40291  22.219  31.581  13.991
76524W        W40292  35.937   3.293   3.234
76525W        W40293  34.543  16.626  11.378
76526W        W40294   4.254  18.766  13.849
76527W        W40295  17.175  29.104   5.132
76528W        W40296  30.140  28.047   0.770
76529W        W40297  24.673  28.632  13.467
76530W        W40298  33.532  26.495  12.557
76531W        W40299  43.860   4.736   4.165
76532W        W40300  22.624   1.751   5.099
76533W        W40301  43.375  16.302  12.574
76534W        W40302  31.089  22.018  14.433
76535W        W40303  16.144  27.194   0.253
76536W        W40304  15.117  40.437   0.416
76537W        W40305  43.997   4.257  11.554
76538W        W40306  28.942  34.406  14.001
76539W        W40307  30.026  33.590  13.408
76540W        W40308  34.909  10.151   0.449
76541W        W40309  39.970  15.722  13.794
76542W        W40310  43.786  38.923   4.148
76543W        W40311   1.948  28.654   1.306
76544W        W40312  42.898  32.464  11.896
76545W        W40313   9.311  40.510  10.542
76546W        W40314  41.303  24.216   3.643
76547W        W40315  31.952  22.049   2.217
76548W        W40316  41.483  33.976   3.152
76549W        W40317  23.512   3.898   1.272
76550W        W40318  37.009  23.030   4.127
76551W        W40319  43.840  25.168  13.462
76552W        W40320  36.459   3.875  13.853
76553W        W40321  21.600  29.169   1.357
76554W        W40322  25.211  29.133   2.748
76555W        W40323   0.746  44.787  11.568
76556W        W40324  44.911   4.394   4.694
76557W        W40325  28.487  16.163  14.354
76558W        W40326   8.336  33.414  12.523
76559W        W40327  21.518  26.542  10.058
76560W        W40328  26.074  18.597  14.790
76561W        W40329   2.729  35.468   3.289
76562W        W40330  16.157  26.090   0.401
76563W        W40331  14.215  19.273   5.260
76564W        W40332  22.053  35.891  14.486
76565W        W40333   0.896  18.051   0.806
76566W        W40334  16.798   5.415   3.729
76567W        W40335  31.529  28.183  11.885
76568W        W40336  12.643   1.398  10.445
76569W        W40337  35.997   9.654   0.405
76570W        W40338  28.960  28.046   3.276
76571W        W40339  21.055  13.337   2.679
76572W        W40340  19.148   1.262   1.335
76573W        W40341  25.974  20.089   4.647
76574W        W40342   1.904   6.761   2.397
76575W        W40343  42.306   0.332   0.403
76576W        W40344  21.673  18.063  13.496
76577W        W40345   5.426  42.965   4.145
76578W        W40346  40.045  39.419   4.168
76579W        W40347  18.197  21.072   0.865
76580W        W40348  16.310  29.985   0.347
76581W        W40349   2.962  43.939   0.254
76582W        W40350   1.278   3.248  14.320
76583W        W40351  11.798   9.238   1.777
76584W        W40352  38.024  27.568   3.155
76585W        W40353  36.581  39.054  14.374
76586W        W40354   8.180  43.424  10.404
76587W        W40355  38.947  26.089   9.976
76588W        W40356  33.440  31.470  12.915
76589W        W40357  25.984  10.367  14.391
76590W        W40358  13.339   7.413  11.910
76591W        W40359   5.386  10.360   1.398
76592W        W40360  20.576   0.349   3.222
76593W        W40361  36.393  27.628  11.043
76594W        W40362  23.589  16.173   1.694
76595W        W40363  42.900  35.893   1.704
76596W        W40364  34.016  11.235  10.486
76597W        W40365  41.814   1.855  10.608
76598W        W40366  29.528  42.343   3.830
76599W        W40367  33.013  26.598  14.327
76600W        W40368   7.809  36.877   0.823
76601W        W40369   6.913  33.066  13.814
76602W        W40370  44.279  27.950   2.721
76603W        W40371  39.947  23.184   1.442
76604W        W40372   3.425  17.677   1.887
76605W        W40373   7.675   2.847  10.426
76606W        W40374   7.825  25.157   9.940
76607W        W40375  41.420  29.024  14.435
76608W        W40376  10.855  26.620  13.027
76609W        W40377  20.600  40.413  14.815
76610W        W40378   8.255  11.858  11.439
76611W        W40379   5.893  12.857  13.998
76612W        W40380   0.252  21.570  12.025
76613W        W40381  30.454   8.194  13.930
76614W        W40382  35.084  44.490   4.722
76615W        W40383  12.722  42.282   2.340
76616W        W40384  15.773   3.458   3.193
76617W        W40385  42.509  13.702   4.239
76618W        W40386  27.989  16.767  11.520
76619W        W40387   5.927   6.285  12.916
76620W        W40388  28.125  30.635   4.694
76621W        W40389  19.282  28.035  13.525
76622W        W40390  40.326   4.215  11.930
76623W        W40391   5.799  39.397   1.334
76624W        W40392  26.191  11.320  13.442
76625W        W40393   9.656  44.324   0.379
76626W        W40394  34.985  21.700  13.812
76627W        W40395   0.775  13.167  11.012
76628W        W40396  32.584  15.087   9.579
76629W        W40397  32.913  33.576  13.398
76630W        W40398  26.569  30.131  11.023
76631W        W40399   4.923  16.693  11.572
76632W        W40400  44.419   3.275   0.352
76633W        W40401  11.349  42.980   1.357
76634W        W40402  10.347  21.124  11.535
76635W        W40403  40.412   1.864   4.343
76636W        W40404  15.817  42.833   3.630
76637W        W40405  19.256  27.632  12.964
76638W        W40406  41.445  17.215   2.322
76639W        W40407  38.415  23.004  12.980
76640W        W40408  31.126  10.307  10.613
76641W        W40409   6.295  20.687  13.855
76642W        W40410  44.405  26.979  11.975
76643W        W40411  34.604   3.459   1.911
76644W        W40412  29.135   4.447   2.811
76645W        W40413  41.826  11.151   2.417
76646W        W40414  44.883  42.392   4.252
76647W        W40415  37.031  12.177   2.769
76648W        W40416   4.289   1.926  12.536
76649W        W40417  27.080  19.707  10.900
76650W        W40418  28.574   3.861   0.396
76651W        W40419  14.259  45.000  12.042
76652W        W40420  39.454   8.301   2.216
76653W        W40421  24.662  43.932  14.764
76654W        W40422  44.426  23.490   0.463
76655W        W40423  34.864  23.143   2.699
76656W        W40424  25.711  14.177  14.809
76657W        W40425  14.146  19.204  12.851
76658W        W40426   4.337  41.013  14.486
76659W        W40427  36.376  42.371   4.297
76660W        W40428  13.229  40.492  12.970
76661W        W40429  36.431   2.341  12.493
76662W        W40430  15.085  10.748  14.018
76663W        W40431   8.240   6.360   1.287
76664W        W40432  34.569  11.163  11.882
76665W        W40433  35.983  18.240   1.711
76666W        W40434  25.099  36.918   2.274
76667W        W40435  16.625  27.602   5.655
76668W        W40436  24.212  20.029  10.419
76669W        W40437   4.720  30.041   3.243
76670W        W40438  15.320  26.547  13.320
76671W        W40439   2.304  30.576   2.402
76672W        W40440  43.316   0.330  12.003
76673W        W40441  34.099  34.508  14.308
76674W        W40442   9.671  18.784   0.379
76675W        W40443  16.761   7.394   3.324
76676W        W40444  19.136  20.245   1.271
76677W        W40445   4.347  41.434  11.377
76678W        W40446   6.205   5.361  10.094
76679W        W40447  27.088   1.796  10.503
76680W        W40448  18.138  21.672  11.936
76681W        W40449  28.478  20.223   1.233
76682W        W40450  41.913  35.887   2.737
76683W        W40451  27.997   0.930  11.384
76684W        W40452  15.720  28.638   1.380
76685W        W40453  17.299  10.343   4.659
76686W        W40454  44.842  22.130  12.835
76687W        W40455  36.904  18.184   4.210
76688W        W40456  31.584  15.737   5.587
76689W        W40457   5.844  33.575  12.975
76690W        W40458  42.972  20.611  13.443
76691W        W40459  22.223   3.853  11.023
76692W        W40460  20.666   4.314  12.830
76693W        W40461   3.870  43.332  11.413
76694W        W40462  14.740   9.869  10.458
76695W        W40463  28.130   7.730   1.360
76696W        W40464  43.846  33.542   1.245
76697W        W40465  19.663  23.706  12.945
76698W        W40466  32.917  41.335  10.987
76699W        W40467  14.752  10.856   0.862
76700W        W40468  24.662  34.402  12.040
76701W        W40469  28.153  39.867  12.049
76702W        W40470  15.098  30.468  12.005
76703W        W40471  33.031   6.860   0.320
76704W        W40472   7.804  40.866   3.690
76705W        W40473  40.456   3.920  11.870
76706W        W40474  12.753  23.565  11.414
76707W        W40475  36.092  35.551   3.220
76708W        W40476  38.847  34.021   3.716
76709W        W40477   0.895  23.524   0.340
76710W        W40478   1.896  44.431   4.213
76711W        W40479  11.783  18.586  12.966
76712W        W40480  26.006  38.335   1.766
76713W        W40481  32.055  36.562  14.826
76714W        W40482  37.958  42.860   1.859
76715W        W40483   9.308  31.576   1.746
76716W        W40484  29.963  15.227  14.945
76717W        W40485   7.283  16.292  14.405
76718W        W40486   9.777  36.389  11.128
76719W        W40487  36.940  33.961   1.859
76720W        W40488  24.708  26.510   3.632
76721W        W40489  43.770   8.286   3.154
76722W        W40490   4.414  11.355   4.277
76723W        W40491  31.023  21.089  13.965
76724W        W40492  39.533   1.859   3.156
76725W        W40493  23.531  13.231  11.499
76726W        W40494  19.197   1.241   0.961
76727W        W40495  24.685  43.359   4.650
76728W        W40496  13.803   2.235  11.066
76729W        W40497  12.683  12.684   1.350
76730W        W40498  12.339  42.425   1.267
76731W        W40499  26.155   0.285  11.573
76732W        W40500  17.740  21.134  11.127
76733W        W40501  27.154  44.452  13.024
76734W        W40502   0.269  27.056  14.814
76735W        W40503  36.422   6.237  13.406
76736W        W40504  18.708  37.573   3.715
76737W        W40505  29.106  16.616   0.754
76738W        W40506  40.437  29.953   2.360
76739W        W40507   1.798  17.114   4.154
76740W        W40508  41.981  22.654   4.353
76741W        W40509   9.193  19.082   2.865
76742W        W40510  38.003  10.322  13.055
76743W        W40511  10.165  11.166  13.456
76744W        W40512  32.601  27.453  13.022
76745W        W40513  18.750   4.236  12.883
76746W        W40514  16.732  31.526   3.700
76747W        W40515  25.672  33.006   3.843
76748W        W40516  33.503   9.806   0.947
76749W        W40517  15.177  41.891   4.824
76750W        W40518  44.339  35.853  13.836
76751W        W40519  34.550  36.928   3.262
76752W        W40520  24.012   5.309  13.414
76753W        W40521  41.508   3.461  11.000
76754W        W40522  30.920   9.673  13.975
76755W        W40523   5.863   8.754  14.029
76756W        W40524  16.735  38.360   0.917
76757W        W40525  25.707  19.258  11.972
76758W        W40526  38.847  35.876  12.492
76759W        W40527  16.784  40.505   2.309
76760W        W40528  16.267  15.301  11.965
76761W        W40529  29.127  42.515   4.120
76762W        W40530  18.275  34.420  14.374
76763W        W40531  18.715  44.408  11.548
76764W        W40532   7.715   0.445   3.316
76765W        W40533  30.478  29.043  14.291
76766W        W40534   2.359  19.571  11.867
76767W        W40535  36.013  13.317  11.946
76768W        W40536  35.976  17.082   1.706
76769W        W40537  11.262  44.297  14.510
76770W        W40538  39.865  38.056  10.420
76771W        W40539  29.147  16.142   1.791
76772W        W40540  35.001  11.253  11.005
76773W        W40541   5.435  11.838   2.735
76774W        W40542  22.718  38.400   0.880
76775W        W40543  40.884  37.894   3.249
76776W        W40544  25.995  11.332  12.534
76777W        W40545  10.183  28.987  14.274
76778W        W40546   2.919  11.721  14.333
76779W        W40547   5.701  37.873  13.041
76780W        W40548   8.334  24.987   1.243
76781W        W40549  15.639   3.780   0.436
76782W        W40550  17.181  40.501  14.828
76783W        W40551  16.276  20.178   1.431
76784W        W40552  18.553  39.416   2.261
76785W        W40553  21.028  37.564  11.925
76786W        W40554  28.136  38.926   4.223
76787W        W40555  22.658  19.552  10.500
76788W        W40556  37.449  28.661  13.815
76789W        W40557  24.228  26.600  12.045
76790W        W40558  21.176  44.323   0.840
76791W        W40559  10.864  29.988   3.734
76792W        W40560  32.637   3.367   2.414
76793W        W40561   9.748  21.171   0.905
76794W        W40562   9.843   3.215   3.382
76795W        W40563  41.034  28.654   3.680
76796W        W40564   3.720   3.852  10.494
76797W        W40565   2.442  40.476   1.730
76798W        W40566  41.003  21.589  14.376
76799W        W40567   4.890  31.475  12.453
76800W        W40568   6.805  30.022  11.117
76801W        W40569   8.217  22.033  12.435
76802W        W40570   3.738  41.912  10.512
76803W        W40571  27.113   7.232  13.495
76804W        W40572   1.902   5.737   0.920
76805W        W40573   9.710  44.272  13.031
76806W        W40574  17.727   8.840  12.375
76807W        W40575  36.484  35.562   0.335
76808W        W40576  16.200  24.507  14.356
76809W        W40577   2.459  19.683  12.925
76810W        W40578  25.010  24.058   2.204
76811W        W40579  10.316   2.967  14.853
76812W        W40580  17.102  23.686   3.641
76813W        W40581  25.054  17.140  11.420
76814W        W40582  42.510  19.574   3.708
76815W        W40583  15.122  37.473   2.852
76816W        W40584  30.519  15.749  13.515
76817W        W40585  21.595  21.176  13.899
76818W        W40586  39.500  19.088  13.956
76819W        W40587   2.454  12.251  10.472
76820W        W40588  27.556   1.825   2.213
76821W        W40589  22.048  44.982  11.412
76822W        W40590  38.837  16.703  11.459
76823W        W40591  16.813  43.278  14.795
76824W        W40592  27.481  12.738   4.715
76825W        W40593   4.365  26.686   3.641
76826W        W40594   8.800  35.020  11.916
76827W        W40595   5.218  30.604   3.811
76828W        W40596  22.090  14.102   0.392
76829W        W40597  38.550   2.789  12.839
76830W        W40598  34.531  43.324  10.517
76831W        W40599   4.339  32.932  12.846
76832W        W40600  16.594   7.352   4.770
76833W        W40601   3.727  35.901  12.345
76834W        W40602   3.920   3.411  14.973
76835W        W40603  43.275   3.938  10.465
76836W        W40604   4.731   4.882  14.275
76837W        W40605  32.588  32.971   0.390
76838W        W40606  21.182  17.156   0.304
76839W        W40607  43.912   9.252  12.038
76840W        W40608  14.702  22.545   3.708
76841W        W40609   7.671   3.911   3.746
76842W        W40610  35.600   0.886  12.509
76843W        W40611  37.373  39.014   3.309
76844W        W40612   5.886  42.310   3.771
76845W        W40613  14.822   4.866   0.404
76846W        W40614  17.629  36.863   1.415
76847W        W40615  12.777  29.486  13.480
76848W        W40616  23.699  10.875   3.755
76849W        W40617   5.265   7.865   2.702
76850W        W40618  21.615  21.703   4.330
76851W        W40619  35.038  12.228  12.848
76852W        W40620  18.188  12.852  13.390
76853W        W40621  11.663  43.988   3.258
76854W        W40622  39.962  35.912   3.690
76855W        W40623  41.413  40.394  10.514
76856W        W40624  27.666  19.051  14.968
76857W        W40625  29.000  34.109   3.374
76858W        W40626  14.132  16.803  10.586
76859W        W40627  36.570  22.218  13.002
76860W        W40628  35.389   1.915  11.397
76861W        W40629  29.134  15.701  12.477
76862W        W40630  16.803  17.271  12.344
76863W        W40631   3.867   8.771  13.889
76864W        W40632  37.859  17.293  10.977
76865W        W40633  30.466  23.124  12.957
76866W        W40634  26.139  19.583  13.904
76867W        W40635  24.150  32.017  11.610
76868W        W40636  17.294   7.280  11.062
76869W        W40637  41.914  41.445   4.744
76870W        W40638  32.542  22.595   2.744
76871W        W40639  40.862   4.273   3.221
76872W        W40640   0.355  13.129   3.827
76873W        W40641  32.031   4.423   1.898
76874W        W40642  25.475  25.968   4.767
76875W        W40643  11.712  21.049   5.139
76876W        W40644  16.806  12.354  10.510
76877W        W40645  42.314  11.327   3.850
76878W        W40646   8.284  19.273  10.994
76879W        W40647  39.508  27.491  13.876
76880W        W40648  42.817  40.460  13.899
76881W        W40649  31.900  43.827  12.083
76882W        W40650  32.634  16.593  11.548
76883W        W40651  18.111   5.777  12.966
76884W        W40652  36.561  28.126   2.777
76885W        W40653   9.315  30.073   0.790
76886W        W40654  22.120  18.063   1.858
76887W        W40655  10.164  23.006  14.883
76888W        W40656  21.680  25.612   3.796
76889W        W40657   2.883  23.029   1.405
76890W        W40658  14.262  17.625   1.410
76891W        W40659   5.907  36.030   0.892
76892W        W40660   5.866  32.588   0.882
76893W        W40661   8.366  25.137   1.879
76894W        W40662  24.582  10.669  10.059
76895W        W40663   1.978   3.795  14.386
76896W        W40664  40.872   1.778  11.612
76897W        W40665  12.716  15.587  14.841
76898W        W40666  18.549  16.191   4.609
76899W        W40667  14.130   1.974   2.739
76900W        W40668  37.564  30.517  14.838
76901W        W40669  12.165  23.122   2.282
76902W        W40670  12.264   8.233  11.945
76903W        W40671  30.019  20.058  14.990
76904W        W40672  38.383  17.115  14.846
76905W        W40673   0.822  23.623  11.543
76906W        W40674   2.885   5.800   0.797
76907W        W40675  41.448  35.483  12.857
76908W        W40676  16.711  15.642   3.381
76909W        W40677  27.478  21.166   1.409
76910W        W40678  35.889  14.720  13.320
76911W        W40679  41.808  39.992  12.092
76912W        W40680  10.662  36.404   0.356
76913W        W40681   0.493  30.488  14.435
76914W        W40682  28.964   5.815   1.312
76915W        W40683  34.442  26.698   0.810
76916W        W40684  36.046   6.839   3.194
76917W        W40685  10.202  17.714  13.509
76918W        W40686  40.542   1.813   1.763
76919W        W40687  10.633  27.178  11.415
76920W        W40688  31.539  24.006  14.363
76921W        W40689  23.155  41.915   2.292
76922W        W40690  18.201  20.582   0.792
76923W        W40691  39.316  28.991   2.788
76924W        W40692  29.432  27.178   2.214
76925W        W40693  33.968  18.251   2.790
76926W        W40694  28.954  22.140   3.720
76927W        W40695  33.485  25.090   4.164
76928W        W40696  25.175  15.715   4.785
76929W        W40697  15.598  19.724  11.524
76930W        W40698   2.852  17.789   0.473
76931W        W40699   5.305  24.046   0.967
76932W        W40700   7.345  28.068  12.510
76933W        W40701  34.533   0.839   4.152
76934W        W40702   8.265  10.314   3.667
76935W        W40703   5.284  32.928  12.513
76936W        W40704   6.323  38.542  11.385
76937W        W40705  29.528  37.848   3.251
76938W        W40706  12.313   2.818  12.071
76939W        W40707  15.130  41.014   0.333
76940W        W40708  10.747  44.478   0.858
76941W        W40709  13.120  27.462  12.049
76942W        W40710  34.387  15.288  14.297
76943W        W40711  21.534  32.556  10.099
76944W        W40712  30.570  30.592   0.855
76945W        W40713  19.648  37.900  11.873
76946W        W40714  38.900  20.653  14.022
76947W        W40715  19.555   7.184   4.114
76948W        W40716   3.430  40.908   3.720
76949W        W40717  40.438  26.996   3.235
76950W        W40718  16.130  30.515  11.934
76951W        W40719   8.814  40.535  11.909
76952W        W40720  33.077  34.387   3.272
76953W        W40721  11.844  39.955   4.716
76954W        W40722  10.346  26.667   3.304
76955W        W40723   9.155  38.353  11.467
76956W        W40724  34.396   5.279   3.291
76957W        W40725   5.707  40.847   1.903
76958W        W40726  26.656  36.911   3.268
76959W        W40727  12.222  18.174  11.937
76960W        W40728   6.314  18.093  12.913
76961W        W40729   6.836  40.977  14.324
76962W        W40730  34.538  10.365  10.620
76963W        W40731  13.812   4.313   0.727
76964W        W40732  37.549  21.113   0.791
76965W        W40733  26.645   8.265   1.229
76966W        W40734  34.943   3.382   3.712
76967W        W40735  35.964  23.622   1.840
76968W        W40736   3.722  14.664   0.439
76969W        W40737   6.356  29.936   4.807
76970W        W40738  34.999   1.463  12.448
76971W        W40739  25.070  11.330   5.208
76972W        W40740  24.219   7.243  10.934
76973W        W40741  11.138   9.160  11.010
76974W        W40742   5.786  15.674  13.831
76975W        W40743  41.849  16.688   4.247
76976W        W40744  30.107  37.018  10.640
76977W        W40745   9.225  33.462   4.253
76978W        W40746   9.877  27.069  10.481
76979W        W40747  43.865  10.301   3.233
76980W        W40748  43.310  33.990   4.335
76981W        W40749  16.727  31.909  10.410
76982W        W40750   2.377  12.182  14.516
76983W        W40751  41.519  26.517   4.774
76984W        W40752  17.759  18.156  13.864
76985W        W40753  34.010  13.799  10.956
76986W        W40754   4.282  36.397  11.009
76987W        W40755  44.467   0.779  11.870
76988W        W40756  11.269  13.731   1.845
76989W        W40757  10.247  27.589   1.718
76990W        W40758  21.258  26.595  12.939
76991W        W40759  41.293  16.638  13.862
76992W        W40760  40.427  37.337  14.440
76993W        W40761  12.158   8.744  14.989
76994W        W40762  18.291  10.849   3.697
76995W        W40763  42.444  35.552   2.289
76996W        W40764   5.274  44.775   3.765
76997W        W40765  26.126   4.364   0.407
76998W        W40766   8.808  28.535   0.777
76999W        W40767   2.823  16.644  14.829
77000W        W40768  38.031  37.516  13.941
77001W        W40769  14.685  22.529   2.735
77002W        W40770  42.369   6.865   4.200
77003W        W40771  42.942  42.321   4.220
77004W        W40772   3.745  28.061  14.861
77005W        W40773  27.562  26.184   4.772
77006W        W40774   1.823  14.232  13.856
77007W        W40775  16.091   4.312   3.722
77008W        W40776  29.936  43.340  11.505
77009W        W40777   6.916  35.579  14.464
77010W        W40778  19.157  38.353  14.866
77011W        W40779  29.574  13.229   3.298
77012W        W40780   6.282  25.045   1.361
77013W        W40781  27.173  42.866   4.668
77014W        W40782  18.554  36.900   1.883
77015W        W40783  36.886  19.653   2.343
77016W        W40784   1.764  39.373   2.206
77017W        W40785  22.213  18.709   3.344
77018W        W40786  33.900  36.961   1.371
77019W        W40787   4.869  15.674   3.151
77020W        W40788  16.608  17.114   3.255
77021W        W40789   2.227  11.825  10.586
77022W        W40790  14.095  18.254   1.737
77023W        W40791  27.123  21.204  12.077
77024W        W40792  31.139  21.638  12.961
77025W        W40793  42.441  10.213  11.457
77026W        W40794  10.752   1.434  11.874
77027W        W40795  12.627  26.492   3.799
77028W        W40796   9.380   9.870   3.762
77029W        W40797   4.941  15.204   3.759
77030W        W40798  40.366  42.482   4.150
77031W        W40799  30.937  10.230  11.960
77032W        W40800  39.518   5.242   3.327
77033W        W40801  19.674  21.651  12.567
77034W        W40802  40.467  25.592   2.282
77035W        W40803  39.021  21.735  10.615
77036W        W40804  36.384   5.285   1.796
77037W        W40805  11.672  22.685  10.038
77038W        W40806  38.034  21.075  14.809
77039W        W40807   3.718  22.706   0.903
77040W        W40808  26.667  23.215   0.317
77041W        W40809   0.335  13.233   4.150
77042W        W40810   4.402  16.735  11.110
77043W        W40811   1.788  24.025  12.860
77044W        W40812  44.394  37.079   0.433
77045W        W40813  14.701  34.953  12.576
77046W        W40814   2.874   2.317  13.923
77047W        W40815  14.623  29.489  10.930
77048W        W40816  39.437   1.280   4.717
77049W        W40817  41.990   2.322  11.432
77050W        W40818   1.848  33.589  14.386
77051W        W40819  33.483  10.224   0.434
77052W        W40820  44.413  11.362   3.163
77053W        W40821  42.405  25.491  11.597
77054W        W40822  19.711  16.292   4.763
77055W        W40823  40.880  22.013   2.198
77056W        W40824  44.962  41.975   3.297
77057W        W40825  21.151  29.614   0.314
77058W        W40826  23.146  14.800  10.598
77059W        W40827  33.509  18.057   3.381
77060W        W40828   9.357  10.336   4.673
77061W        W40829   9.209  35.862  14.497
77062W        W40830  38.870  32.555  10.072
77063W        W40831   3.752   4.320   4.206
77064W        W40832  16.748  32.956   2.805
77065W        W40833  36.926  11.748   3.316
77066W        W40834  33.542  36.939  11.946
77067W        W40835  36.392  22.618  13.023
77068W        W40836   6.280  26.029   4.319
77069W        W40837  23.623  27.971  10.604
77070W        W40838   8.190  14.707   1.910
77071W        W40839  24.116  20.593  12.011
77072W        W40840  17.294  30.574   2.681
77073W        W40841  29.485  43.388   3.828
77074W        W40842  28.644  25.547  11.471
77075W        W40843  23.567  44.986   1.732
77076W        W40844  12.341   9.249  11.970
77077W        W40845  39.328  19.652   4.144
77078W        W40846  31.115   0.297   3.188
77079W        W40847  23.028  35.107   4.279
77080W        W40848   5.729  42.927   3.291
77081W        W40849   5.256  31.437  10.515
77082W        W40850  32.527  24.003  13.493
77083W        W40851  20.697  32.953   1.395
77084W        W40852  10.641   1.975   3.647
77085W        W40853   7.296  14.110   3.263
77086W        W40854  27.084  30.658   0.336
77087W        W40855  30.461  34.060  14.341
77088W        W40856  21.203  42.890   3.812
77089W        W40857  20.632   3.309  14.416
77090W        W40858  27.553  28.671   4.650
77091W        W40859  33.083  28.957  14.441
77092W        W40860  20.239  21.045  12.033
77093W        W40861  18.246  16.133  11.970
77094W        W40862  10.315  44.990   0.779
77095W        W40863   0.396  23.631   3.151
77096W        W40864  21.098  20.579   4.611
77097W        W40865  31.063  42.953  11.956
77098W        W40866   3.264  15.617  12.484
77099W        W40867  43.892  38.536   4.693
77100W        W40868  32.980  26.693   4.241
77101W        W40869   2.870   2.371  12.079
77102W        W40870  39.827  27.607  13.909
77103W        W40871  11.217  30.138   0.288
77104W        W40872  42.998  31.603   0.930
77105W        W40873  24.486  19.074  10.574
77106W        W40874  27.986  25.647  14.413
77107W        W40875   0.472  22.173   2.829
77108W        W40876   7.802  21.203  14.413
77109W        W40877  35.060  33.057  11.897
77110W        W40878  36.509  15.206  11.609
77111W        W40879  32.889  15.164  12.006
77112W        W40880  30.959  37.423  12.984
77113W        W40881   4.747  14.773   3.281
77114W        W40882   4.390  44.322  11.918
77115W        W40883  32.022  13.776  12.371
77116W        W40884   2.422  22.170  11.557
77117W        W40885  20.646   4.853   3.157
77118W        W40886  30.546  19.270  11.868
77119W        W40887  42.027  24.550   3.340
77120W        W40888  22.612  15.773   1.883
77121W        W40889   2.954  37.962   5.284
77122W        W40890  34.086  27.046   0.411
77123W        W40891  28.520  26.980   4.265
77124W        W40892  13.643  13.164  13.356
77125W        W40893  23.716  30.066   0.856
77126W        W40894  31.483  19.249   4.675
77127W        W40895  44.306  28.576  12.076
77128W        W40896  36.490   6.305  11.030
77129W        W40897  23.601  21.620  13.496
77130W        W40898   0.873  21.020   4.321
77131W        W40899  36.533  38.983  12.350
77132W        W40900   5.901   9.730   1.868
77133W        W40901  22.051  17.154  10.440
77134W        W40902  32.487  30.543   4.290
77135W        W40903  29.510  29.627  11.871
77136W        W40904   9.728  10.664   0.959
77137W        W40905  39.538  44.468   3.319
77138W        W40906  25.030   9.676   0.745
77139W        W40907  16.735  30.616   2.179
77140W        W40908  39.556  30.471  13.877
77141W        W40909  23.502  42.299   1.890
77142W        W40910  27.558   8.787  12.580
77143W        W40911  41.028   9.722  12.421
77144W        W40912  39.038  22.146  13.016
77145W        W40913  15.168   3.410   3.807
77146W        W40914   2.840   1.850   0.732
77147W        W40915   5.736  37.510  10.522
77148W        W40916   4.705  37.882  14.485
77149W        W40917  24.084  20.208   4.232
77150W        W40918  29.630  33.387  10.134
77151W        W40919  23.553  40.345   3.373
77152W        W40920   5.200  16.175   3.835
77153W        W40921  36.012  21.557  13.817
77154W        W40922   1.858  37.401   4.283
77155W        W40923  29.023  26.527   0.821
77156W        W40924   4.227   5.201   4.262
77157W        W40925  11.639   8.663   2.709
77158W        W40926   8.297  23.155  11.104
77159W        W40927  36.985   7.403  11.457
77160W        W40928  24.989  18.080   3.309
77161W        W40929  32.588   6.394  10.504
77162W        W40930  29.068  34.015  13.346
77163W        W40931  13.120  36.851  11.864
77164W        W40932   7.253  44.441   0.834
77165W        W40933  25.632  20.064   4.821
77166W        W40934  36.910   3.826  11.054
77167W        W40935  21.132  10.752   4.241
77168W        W40936  10.638  27.617   2.302
77169W        W40937  17.190  10.684   0.350
77170W        W40938  41.914  25.973  10.888
77171W        W40939   5.793  42.822  11.983
77172W        W40940  32.934  18.170   5.236
77173W        W40941  17.753  35.867  11.442
77174W        W40942  33.991  19.566  10.900
77175W        W40943   0.357   0.436  13.951
77176W        W40944  16.113  14.126  12.900
77177W        W40945  30.072   1.732   3.798
77178W        W40946  15.814  19.603  13.800
77179W        W40947  40.880   3.723   2.292
77180W        W40948  40.339  15.670   2.361
77181W        W40949  26.594  42.441  10.622
77182W        W40950  28.645  18.252   1.825
77183W        W40951  16.660  18.114  14.464
77184W        W40952   5.885  39.381  10.594
77185W        W40953  11.753  35.077  10.126
77186W        W40954   9.328  26.120  11.600
77187W        W40955  41.982   7.847   2.810
77188W        W40956  20.091   3.362   0.386
77189W        W40957   7.396  40.976   0.879
77190W        W40958  12.299   4.802  12.885
77191W        W40959  44.764  33.997  13.032
77192W        W40960  11.312  30.146  14.977
77193W        W40961  22.531  23.659   2.327
77194W        W40962  43.944  28.517  10.517
77195W        W40963  24.094  32.624   2.322
77196W        W40964  13.757   5.821  11.460
77197W        W40965  16.796   7.284   2.305
77198W        W40966  19.123  16.686  13.019
77199W        W40967  25.021  31.504   0.814
77200W        W40968  10.672  20.534  10.970
77201W        W40969  12.156  21.030   4.190
77202W        W40970  22.678  37.012  11.124
77203W        W40971   2.851   5.754  11.985
77204W        W40972  18.624  38.534   0.850
77205W        W40973  41.900  14.744  13.330
77206W        W40974  24.976  26.042  11.101
77207W        W40975  16.298  39.408   1.933
77208W        W40976  23.130  20.050   4.124
77209W        W40977   8.749  34.075   3.758
77210W        W40978   8.352   7.884  13.510
77211W        W40979  44.388  34.488  11.499
77212W        W40980   0.963  16.753   3.177
77213W        W40981  24.988  19.055   4.615
77214W        W40982  30.575  21.622  11.573
77215W        W40983  18.236  22.696   0.428
77216W        W40984  28.619   9.196   3.238
77217W        W40985  23.709  23.647  12.550
77218W        W40986  43.400  29.172  12.940
77219W        W40987  24.687  20.100   1.866
77220W        W40988  19.045  23.093   5.194
77221W        W40989  39.325  40.510  14.823
77222W        W40990  25.705  22.142   1.405
77223W        W40991   7.180  20.667  11.900
77224W        W40992  16.089  25.683   2.807
77225W        W40993   9.257   1.949  11.868
77226W        W40994  39.970  23.571   3.381
77227W        W40995  19.271  20.137  13.379
77228W        W40996  40.979  43.497  13.954
77229W        W40997  36.989  10.746  12.417
77230W        W40998  14.772  29.530  12.353
77231W        W40999   8.294  14.670  12.072
77232W        W41000  20.221  30.064   3.860
77233W        W41001  20.565  11.867   2.187
77234W        W41002  29.613  44.388  14.423
77235W        W41003  17.195  34.516   3.246
77236W        W41004  34.563  18.085   3.279
77237W        W41005   4.400  11.671  13.030
77238W        W41006  41.502  34.906  13.322
77239W        W41007  12.316  41.505  11.957
77240W        W41008   1.782   8.239  13.792
77241W        W41009  11.838  27.110   1.290
77242W        W41010  28.058   5.278   1.851
77243W        W41011  22.197  12.723   4.247
77244W        W41012  42.029   7.912  14.836
77245W        W41013  21.629  43.898  14.510
77246W        W41014   7.794  43.363   0.297
77247W        W41015  12.748  35.914  14.898
77248W        W41016  23.055  23.044   4.204
77249W        W41017  17.610   4.298   1.260
77250W        W41018  18.171  16.170  10.443
77251W        W41019   5.922   8.284  13.491
77252W        W41020  26.115  11.768   0.773
77253W        W41021  17.081  28.475   3.709
77254W        W41022  39.032  44.783   0.349
77255W        W41023   1.294   1.239   1.836
77256W        W41024   0.894  16.643   4.260
77257W        W41025  15.249  30.034   0.427
77258W        W41026   9.865   9.285   2.847
77259W        W41027  32.136  40.874   0.286
77260W        W41028   6.744  42.792   3.268
77261W        W41029  26.031   2.304   4.299
77262W        W41030  26.601  21.651   0.955
77263W        W41031  34.608  41.475   4.718
77264W        W41032   0.271  34.039  11.570
77265W        W41033  36.441  17.599  12.878
77266W        W41034   2.891   0.449   3.776
77267W        W41035   7.714   4.796   2.842
77268W        W41036  35.985   3.856  11.396
77269W        W41037   9.261   6.367   0.401
77270W        W41038  38.492   3.932   2.874
77271W        W41039   6.747  18.613   2.405
77272W        W41040  44.434  21.689  12.034
77273W        W41041  39.880  30.657   1.821
77274W        W41042  16.611   4.427   4.238
77275W        W41043  21.110  21.202   0.848
77276W        W41044  29.453  31.515  13.321
77277W        W41045  35.972  31.015   0.482
77278W        W41046  34.388  21.682   4.801
77279W        W41047   6.770  14.594   3.336
77280W        W41048  17.634  13.288   1.888
77281W        W41049  35.984  21.696   2.877
77282W        W41050  35.418  40.869   2.188
77283W        W41051  27.478  38.424  13.520
77284W        W41052  14.112  21.704   1.728
77285W        W41053  42.382   8.880   2.356
77286W        W41054  26.035   3.860   4.796
77287W        W41055  16.310   6.390   4.313
77288W        W41056  15.623  27.586   0.283
77289W        W41057  25.521  17.157  14.414
77290W        W41058  39.525  38.386   0.824
77291W        W41059  38.955  28.956  11.116
77292W        W41060  18.776   4.361  12.363
77293W        W41061  33.543  10.349   9.939
77294W        W41062   8.830  28.124   1.851
77295W        W41063  22.512  12.181   3.676
77296W        W41064  27.113  21.239  11.378
77297W        W41065  38.337   1.367   1.742
77298W        W41066   9.804   5.824  12.452
77299W        W41067  21.108  20.067   2.886
77300W        W41068  25.621  40.481   4.190
77301W        W41069  22.240  15.628  12.534
77302W        W41070   9.805  21.619   2.826
77303W        W41071  37.027  33.048   2.184
77304W        W41072  38.503  43.844   0.331
77305W        W41073   2.450  22.554   9.971
77306W        W41074  14.154   4.846   2.788
77307W        W41075  33.577  29.952  11.875
77308W        W41076  26.594  31.038  13.446
77309W        W41077   7.676  27.158  13.940
77310W        W41078   4.313  29.506   4.118
77311W        W41079   5.206  10.239  11.868
77312W        W41080  39.986  38.328   1.337
77313W        W41081  34.944   9.188  11.925
77314W        W41082  42.790  44.925   2.794
77315W        W41083  41.484  21.639  10.617
77316W        W41084  19.176  43.284  11.067
77317W        W41085  35.495  44.445   3.650
77318W        W41086  26.686  21.657   3.861
77319W        W41087  18.217  19.186   4.189
77320W        W41088  16.656  38.051  10.493
77321W        W41089  41.022  28.104  12.961
77322W        W41090  16.569  17.200   1.363
77323W        W41091  31.622   6.794  13.844
77324W        W41092   1.274  37.040   1.238
77325W        W41093  31.542  23.650   1.909
77326W        W41094  39.946  10.704   0.401
77327W        W41095   5.758  33.909   0.959
77328W        W41096  20.615  40.459  12.415
77329W        W41097  23.683  33.892   9.580
77330W        W41098  37.940  15.291   4.624
77331W        W41099  17.121   4.310  12.430
77332W        W41100   7.872  24.570   4.730
77333W        W41101  35.481  26.606  14.870
77334W        W41102  10.237  38.490  12.872
77335W        W41103  36.023  24.606  14.771
77336W        W41104  17.561  21.749  11.530
77337W        W41105   2.897   3.865  12.052
77338W        W41106  16.776  32.894  13.834
77339W        W41107  22.521  29.467   4.802
77340W        W41108  16.143  25.164   1.844
77341W        W41109  12.352  35.517   4.170
77342W        W41110  12.738  20.044   2.270
77343W        W41111   8.406  35.873  12.425
77344W        W41112  16.587  38.962  12.370
77345W        W41113   9.309  13.754   1.908
77346W        W41114  17.746  31.132   3.784
77347W        W41115  42.285   0.396   4.190
77348W        W41116  42.966  43.773   3.737
77349W        W41117  35.913   2.388  14.358
77350W        W41118  26.203  23.098  12.036
77351W        W41119  40.540  11.756   2.702
77352W        W41120  44.309  10.797  14.803
77353W        W41121  10.326  20.760  13.048
77354W        W41122  22.176  36.923   1.841
77355W        W41123  26.637  22.572   0.851
77356W        W41124  17.777  32.394   0.424
77357W        W41125  35.566   0.779   1.873
77358W        W41126  40.996  42.405   0.794
77359W        W41127  15.601   2.795   4.816
77360W        W41128  42.355  20.243   2.676
77361W        W41129   1.436  21.121   2.804
77362W        W41130  15.769  29.615   3.171
77363W        W41131  18.221  31.016   3.245
77364W        W41132  34.403  21.725  14.787
77365W        W41133  24.640  37.375   3.794
77366W        W41134  33.024   2.887  12.397
77367W        W41135  19.072  36.576  13.537
77368W        W41136  31.450  19.567   4.752
77369W        W41137   1.911   2.251   0.832
77370W        W41138  11.204  41.887   4.709
77371W        W41139   2.842  16.116  10.969
77372W        W41140  41.020   7.812  11.957
77373W        W41141  32.978  34.925   1.367
77374W        W41142  11.849  40.034   0.411
77375W        W41143  32.583  20.051   3.355
77376W        W41144  12.344  41.373  12.461
77377W        W41145  30.944   5.402   4.332
77378W        W41146  10.665  26.974  13.369
77379W        W41147  25.710  19.062   3.642
77380W        W41148  24.074  33.001  11.575
77381W        W41149   9.392  18.743  12.003
77382W        W41150  12.223  36.490   1.365
77383W        W41151  23.608  15.772  12.513
77384W        W41152  19.102  35.427  14.330
77385W        W41153  16.744  37.046   2.691
77386W        W41154  19.098  32.453  14.923
77387W        W41155   2.328  11.298   1.734
77388W        W41156  36.476  19.044   1.759
77389W        W41157  22.658   3.293   3.295
77390W        W41158  24.195  17.267  10.425
77391W        W41159  18.186  42.433   3.248
77392W        W41160   7.343  25.161  12.912
77393W        W41161  14.713  17.231   1.850
77394W        W41162  34.396  17.790  13.547
77395W        W41163  21.262  40.869   4.741
77396W        W41164  15.117  33.411   0.929
77397W        W41165  25.000   2.760  11.055
77398W        W41166   5.242  37.548  13.911
77399W        W41167  26.063   7.391  13.825
77400W        W41168  31.913  37.013   0.897
77401W        W41169  28.933   4.207  10.644
77402W        W41170  20.081  21.158   4.118
77403W        W41171  22.126  31.956  11.444
77404W        W41172  27.072  40.499  11.963
77405W        W41173  25.489  33.000  10.580
77406W        W41174  39.985  37.947   0.336
77407W        W41175  35.876  35.889   3.661
77408W        W41176  22.243  38.058   4.174
77409W        W41177  40.428   5.737   2.384
77410W        W41178   2.447   2.824   3.840
77411W        W41179   8.880   8.190   0.755
77412W        W41180  24.030  13.130   3.638
77413W        W41181   5.368  39.057  14.442
77414W        W41182  23.229  13.316  11.042
77415W        W41183  39.450  21.513   4.605
77416W        W41184  28.653  44.407  10.473
77417W        W41185   7.860  40.432   4.665
77418W        W41186  25.132  39.986   3.350
77419W        W41187  44.419  44.490  11.946
77420W        W41188  35.505  30.564   3.753
77421W        W41189  21.687  33.886  10.508
77422W        W41190  34.428  43.833  14.939
77423W        W41191  36.425  44.912  11.068
77424W        W41192   1.961  17.134  13.415
77425W        W41193  24.584  23.084   2.392
77426W        W41194  18.171   7.285  11.881
77427W        W41195   8.363   1.460  14.903
77428W        W41196  41.376  26.078  14.433
77429W        W41197  34.045  26.038   3.705
77430W        W41198  36.448  19.551   0.821
77431W        W41199  29.633  29.138   4.255
77432W        W41200  27.449  37.039  11.473
77433W        W41201   5.724   4.335  12.879
77434W        W41202  23.150  23.121  13.527
77435W        W41203  16.095  29.650   3.718
77436W        W41204  12.306   0.898  12.569
77437W        W41205   5.885   4.412  11.946
77438W        W41206  41.981   5.287   1.312
77439W        W41207  20.570   7.223   4.328
77440W        W41208  26.078  10.224   0.242
77441W        W41209  26.101  25.032  12.479
77442W        W41210   4.355  25.706  14.940
77443W        W41211  34.468  44.277   3.306
77444W        W41212  44.264  32.966  11.558
77445W        W41213  39.061  16.280  14.797
77446W        W41214  18.790  20.093  12.448
77447W        W41215  32.009   2.290   3.220
77448W        W41216  29.593  33.534  10.481
77449W        W41217   5.330   4.863  13.810
77450W        W41218  19.593   8.299  13.963
77451W        W41219  44.488  15.818   1.758
77452W        W41220  34.438   9.355   1.924
77453W        W41221  36.453  12.700  11.104
77454W        W41222   9.152  42.388  10.542
77455W        W41223  13.813  40.051  10.944
77456W        W41224  15.650  20.556  11.930
77457W        W41225  42.454  25.131   4.806
77458W        W41226  28.160  35.053   5.666
77459W        W41227  27.025   6.346  10.456
77460W        W41228   9.799   5.299  14.322
77461W        W41229  28.598   5.695  11.571
77462W        W41230  44.935  16.229  12.860
77463W        W41231   9.291  20.130  10.456
77464W        W41232  34.012  37.021   3.379
77465W        W41233   9.161  35.085   4.838
77466W        W41234  17.565  30.603   0.437
77467W        W41235  33.107  20.049  10.456
77468W        W41236  32.128  41.504   0.325
77469W        W41237  20.155  18.702  10.941
77470W        W41238  37.486  44.998  10.912
77471W        W41239  11.713   4.909   1.732
77472W        W41240  10.337  33.049   0.921
77473W        W41241  19.092  37.049   2.809
77474W        W41242  13.735   2.462   0.911
77475W        W41243   8.224  24.086   4.718
77476W        W41244   8.276  39.433  11.477
77477W        W41245  26.983   3.418  13.877
77478W        W41246  40.394  26.001  12.342
77479W        W41247  41.386  30.932  12.918
77480W        W41248  28.672  13.271  10.642
77481W        W41249  41.376  20.061   2.374
77482W        W41250  20.605  21.513   0.911
77483W        W41251  32.429   3.842   3.712
77484W        W41252  42.913  31.048   3.319
77485W        W41253  41.389   8.875   4.137
77486W        W41254  32.503   9.883  14.942
77487W        W41255  33.465  16.310  11.544
77488W        W41256  40.897  22.554   3.197
77489W        W41257  11.312  23.610  14.397
77490W        W41258  39.522  23.008  14.444
77491W        W41259  23.074  36.532  14.354
77492W        W41260   7.291  20.057   3.708
77493W        W41261  30.598  29.954   2.821
77494W        W41262  22.243   9.166  13.415
77495W        W41263  41.382  22.211   2.846
77496W        W41264  34.484  21.687  12.490
77497W        W41265  14.668  23.597  14.847
77498W        W41266  38.561  24.695  11.110
77499W        W41267  15.171  14.789   2.809
77500W        W41268  22.502  41.478   1.388
77501W        W41269   8.381  30.084   4.681
77502W        W41270  36.069  36.533  12.916
77503W        W41271  13.167  29.652  11.025
77504W        W41272  29.601  42.314  10.634
77505W        W41273  12.147  17.193   0.947
77506W        W41274  42.798  32.493   0.349
77507W        W41275  22.168   1.313  11.465
77508W        W41276   7.304  22.732   3.294
77509W        W41277  10.740  42.028   4.235
77510W        W41278   8.273  12.826   3.193
77511W        W41279  21.660  10.350   0.396
77512W        W41280  20.136  13.248   2.263
77513W        W41281  15.660   7.363  10.129
77514W        W41282  12.778   1.431  14.864
77515W        W41283  12.179  33.478   4.295
77516W        W41284   8.324  28.574  13.995
77517W        W41285   0.286   0.960  13.324
77518W        W41286  25.675   9.204  11.984
77519W        W41287  25.544  20.657  13.882
77520W        W41288  27.549  31.094   1.754
77521W        W41289   0.800   8.787  11.882
77522W        W41290   7.682  37.454   4.604
77523W        W41291  19.058   2.292   3.662
77524W        W41292  37.566   6.882   3.197
77525W        W41293  12.358  35.527  11.122
77526W        W41294  27.953  35.513  10.986
77527W        W41295  42.913   2.813   3.775
77528W        W41296  31.457  18.089   1.310
77529W        W41297   6.757   4.236   2.865
77530W        W41298   8.402   0.810   4.129
77531W        W41299  10.322   8.658  11.940
77532W        W41300   1.313   5.883   0.428
77533W        W41301  32.014  17.783   3.631
77534W        W41302   9.347  20.642  14.008
77535W        W41303  13.206  20.177   1.869
77536W        W41304  25.491  44.269   4.353
77537W        W41305   4.857  14.165  11.946
77538W        W41306  12.656  19.686   3.656
77539W        W41307  19.271  37.419   3.294
77540W        W41308   5.296  19.759  11.391
77541W        W41309  36.029  26.632  12.957
77542W        W41310  30.462  10.830   3.150
77543W        W41311   4.276  33.524  12.492
77544W        W41312   0.886   8.355   4.668
77545W        W41313  43.808   5.810  13.826
77546W        W41314  43.444  16.749  13.841
77547W        W41315   7.895  20.619  10.581
77548W        W41316  11.835  11.645  14.950
77549W        W41317  30.590  22.519   3.832
77550W        W41318  30.084  43.924   0.354
77551W        W41319  17.198  31.632  12.880
77552W        W41320  35.047  38.412   2.336
77553W        W41321  36.843  22.089  11.533
77554W        W41322  16.773  43.453  14.424
77555W        W41323   5.194  30.625  11.505
77556W        W41324   6.181  29.622   2.753
77557W        W41325   1.406  34.066   2.359
77558W        W41326  44.482  37.505   3.250
77559W        W41327  12.231  10.654  12.395
77560W        W41328  29.437  15.085  12.486
77561W        W41329  33.993  41.326  12.057
77562W        W41330  42.876  41.955  11.092
77563W        W41331  44.901  23.159   4.752
77564W        W41332  43.013  18.593   0.363
77565W        W41333   4.818  36.551   5.311
77566W        W41334  21.048  41.811   9.986
77567W        W41335   1.951  15.167   4.119
77568W        W41336  29.474  41.334  14.027
77569W        W41337  11.248  38.973  14.935
77570W        W41338   6.223  37.543  13.878
77571W        W41339  33.409   1.270   1.829
77572W        W41340  29.528  41.440   1.255
77573W        W41341  44.773  25.595   2.350
77574W        W41342  41.805   8.235  14.275
77575W        W41343  18.670   0.282  12.947
77576W        W41344  35.482  13.230   3.344
77577W        W41345  19.131  23.059  13.436
77578W        W41346  34.980  31.088   1.724
77579W        W41347  40.520  40.878  13.860
77580W        W41348  21.610  30.076   3.350
77581W        W41349  34.944  11.209   3.841
77582W        W41350   8.796  20.717   3.870
77583W        W41351  36.589  24.039  10.991
77584W        W41352  21.718  10.652  14.362
77585W        W41353  29.143  13.295  13.063
77586W        W41354  44.372  10.637   2.901
77587W        W41355  19.754  42.930   4.703
77588W        W41356  28.171  15.311  11.493
77589W        W41357  35.901  22.142  11.073
77590W        W41358   0.336  30.438  14.026
77591W        W41359  39.517   7.838   2.261
77592W        W41360  20.273  22.665  10.988
77593W        W41361  22.645  34.998   4.764
77594W        W41362  26.084  32.595   5.596
77595W        W41363  17.216  27.663   3.255
77596W        W41364   8.223  41.524   0.311
77597W        W41365  23.507  37.894  12.580
77598W        W41366  37.923  20.150   4.754
77599W        W41367  34.440  41.862  10.495
77600W        W41368   4.300  38.842  11.888
77601W        W41369  39.413  34.521   1.873
77602W        W41370   4.942  10.301  14.791
77603W        W41371  18.711  31.561   2.883
77604W        W41372  28.557  17.136   2.690
77605W        W41373  41.368  21.037   1.892
77606W        W41374   9.739  43.777  11.085
77607W        W41375   4.431   4.422   4.335
77608W        W41376   3.799  31.110  11.377
77609W        W41377  25.467  35.419   2.694
77610W        W41378  43.448  41.376  11.377
77611W        W41379  43.361  32.054  10.980
77612W        W41380  15.745  16.300  14.913
77613W        W41381  27.158   1.316  13.364
77614W        W41382  42.837  39.339  12.350
77615W        W41383  27.984   2.888   1.355
77616W        W41384  19.273  11.292   1.720
77617W        W41385  21.021   1.853   1.220
77618W        W41386  25.990  36.988   0.398
77619W        W41387  23.643  42.006  14.865
77620W        W41388   7.709  16.643   0.834
77621W        W41389  33.563  14.823  13.495
77622W        W41390   3.943   4.213  13.964
77623W        W41391   6.386  42.893   5.169
77624W        W41392   6.880  37.961  14.914
77625W        W41393  18.088  21.230  12.404
77626W        W41394  16.277  16.101   0.456
77627W        W41395  43.869   3.865  11.920
77628W        W41396   6.771  16.305   4.226
77629W        W41397  39.400  34.015   1.400
77630W        W41398  33.038  31.153   4.685
77631W        W41399  23.078  33.992  11.012
77632W        W41400  20.547  33.104  11.378
77633W        W41401   7.673  36.517  11.520
77634W        W41402  14.662  29.668   0.850
77635W        W41403  25.031  20.195   4.336
77636W        W41404  19.153  40.877  10.516
77637W        W41405  36.957   1.319  13.892
77638W        W41406   1.887   4.383   4.634
77639W        W41407  15.201   2.867   2.262
77640W        W41408   6.727  14.829   3.720
77641W        W41409  42.886  25.697   1.346
77642W        W41410  41.021  43.920   1.908
77643W        W41411  12.748  28.071   2.771
77644W        W41412  27.110  13.278  12.009
77645W        W41413  30.563  12.741   2.181
77646W        W41414  39.050  40.474   9.948
77647W        W41415  38.013  31.437  13.875
77648W        W41416  39.376  14.209   3.303
77649W        W41417   3.265  20.711   3.860
77650W        W41418  17.284  23.604  14.896
77651W        W41419  16.111  17.609  15.000
77652W        W41420  32.411  11.318   4.633
77653W        W41421  20.537  40.050  12.555
77654W        W41422  12.356   4.760   3.652
77655W        W41423   4.764   5.690   0.244
77656W        W41424  27.630  28.961  10.643
77657W        W41425  23.035   4.807  13.347
77658W        W41426  36.032  34.597   4.670
77659W        W41427  34.585  24.534  10.440
77660W        W41428  31.553  13.287   0.288
77661W        W41429  38.542  19.756   1.767
77662W        W41430  39.409  19.698   3.847
77663W        W41431  22.059   3.778   2.777
77664W        W41432  15.283  18.282   5.591
77665W        W41433  12.757  11.848   0.466
77666W        W41434  19.772  43.765   1.822
77667W        W41435   1.253   9.279  12.994
77668W        W41436  27.543  32.118  14.381
77669W        W41437   7.873  35.894   0.483
77670W        W41438  38.480  30.600   0.826
77671W        W41439  31.048   6.296  11.566
77672W        W41440  13.752   8.733  12.886
77673W        W41441   5.899  28.458  10.627
77674W        W41442  10.285  43.431   5.272
77675W        W41443  23.010  32.486   1.328
77676W        W41444  10.766  29.154  13.996
77677W        W41445  33.006  22.642   0.393
77678W        W41446   9.696   1.292  12.536
77679W        W41447  21.065  16.238  14.907
77680W        W41448  32.419  32.546  12.898
77681W        W41449  26.693   5.236  14.322
77682W        W41450  34.479  26.108  13.865
77683W        W41451  14.690   7.824  11.376
77684W        W41452  15.736  19.279  14.516
77685W        W41453  34.973  34.932  12.575
77686W        W41454  44.999  14.159   1.753
77687W        W41455  41.402  12.740   3.782
77688W        W41456  14.761   0.326  10.985
77689W        W41457  11.855  24.053   3.296
77690W        W41458  16.231  36.354  13.872
77691W        W41459  15.788  40.931  10.987
77692W        W41460  16.165  24.678   3.293
77693W        W41461  35.986  19.594   0.793
77694W        W41462  28.443  29.634  14.791
77695W        W41463  22.101  40.855   4.654
77696W        W41464  25.130  10.858   0.813
77697W        W41465   9.172   5.764  12.366
77698W        W41466  28.977  38.882   3.684
77699W        W41467   4.927  24.127   2.662
77700W        W41468  24.113  34.485  13.053
77701W        W41469  35.545  41.787   3.744
77702W        W41470  20.754  42.289  10.919
77703W        W41471  36.914  21.529   2.359
77704W        W41472  31.103   4.817   3.646
77705W        W41473   1.421  30.969  10.615
77706W        W41474  25.607   9.745  12.008
77707W        W41475  11.331   2.778   2.693
77708W        W41476   5.705  18.231  11.970
77709W        W41477  36.886  44.479   0.299
77710W        W41478  17.785  32.016   5.709
77711W        W41479  17.094  17.632  14.975
77712W        W41480  21.601  29.520   1.902
77713W        W41481  15.281   2.265   0.426
77714W        W41482  31.571  15.714  11.015
77715W        W41483  33.444  29.508   4.707
77716W        W41484  41.895  21.723   3.264
77717W        W41485  20.614  29.087   2.222
77718W        W41486   7.290  29.565   2.706
77719W        W41487  34.947  29.113   1.262
77720W        W41488  29.045  14.659   3.349
77721W        W41489  11.626  26.003   4.722
77722W        W41490  39.396   5.743  12.983
77723W        W41491  21.634  12.197   3.843
77724W        W41492  38.986  20.757  13.506
77725W        W41493  10.376  10.846  11.385
77726W        W41494  24.214  44.854   1.215
77727W        W41495  35.502  36.045   1.895
77728W        W41496  26.506   9.859   4.675
77729W        W41497  36.055  27.150   0.364
77730W        W41498  39.472   2.384  13.982
77731W        W41499   7.172  28.627  11.066
77732W        W41500  30.924  43.407  11.966
77733W        W41501  34.926  41.000  13.345
77734W        W41502   6.301  11.772  12.935
77735W        W41503  37.056  28.102   1.255
77736W        W41504  44.391  25.056   3.707
77737W        W41505  12.785  29.561  11.094
77738W        W41506  38.896  10.692  11.053
77739W        W41507  17.079  19.569  13.981
77740W        W41508  38.887  28.555   2.679
77741W        W41509  27.012  11.325  12.479
77742W        W41510  20.089  28.972  10.417
77743W        W41511  14.277  28.448  14.935
77744W        W41512  18.128   0.399   0.360
77745W        W41513  15.609  30.992  11.605
77746W        W41514  38.836  11.677   4.816
77747W        W41515  23.192  27.095   2.729
77748W        W41516  39.964  32.448   1.409
77749W        W41517  26.554  36.939   0.889
77750W        W41518   1.372  25.031  11.076
77751W        W41519  22.639   3.453  10.147
77752W        W41520  20.245  36.511  12.983
77753W        W41521  44.767  27.009   3.205
77754W        W41522  11.811   7.690   3.758
77755W        W41523   3.750  40.488  11.872
77756W        W41524  38.388  31.040  13.899
77757W        W41525  16.681  10.648   1.807
77758W        W41526   5.763  37.028   2.823
77759W        W41527  16.227  39.415  11.451
77760W        W41528  21.083  19.659   3.807
77761W        W41529  16.115  33.392  13.447
77762W        W41530  28.053  35.447   1.758
77763W        W41531   2.725  18.198   4.776
77764W        W41532  21.575  30.111   0.295
77765W        W41533  23.496   0.952  14.792
77766W        W41534  11.795   0.253   4.736
77767W        W41535  11.287  35.899  14.316
77768W        W41536   2.341  23.149   0.893
77769W        W41537  28.635   9.654   1.377
77770W        W41538  15.222   4.754  10.961
77771W        W41539  25.053  18.740   0.373
77772W        W41540   4.399  22.244  12.493
77773W        W41541  35.891  19.581  10.926
77774W        W41542   2.828   3.835  10.887
77775W        W41543   9.182  29.967   1.822
77776W        W41544  38.343   4.827   3.790
77777W        W41545  24.029  43.386   3.303
77778W        W41546   1.432   8.281   2.797
77779W        W41547   6.220  30.128  10.559
77780W        W41548  16.742   2.813  11.987
77781W        W41549  43.329  34.457   1.769
77782W        W41550  16.769  15.605  11.389
77783W        W41551  33.076  40.935   2.241
77784W        W41552  11.686  39.992   3.227
77785W        W41553  38.074   8.405   2.663
77786W        W41554   1.275   5.334   2.288
77787W        W41555  14.684  16.146   0.367
77788W        W41556  15.593  39.981   0.817
77789W        W41557   6.884  19.269   1.893
77790W        W41558   0.313  24.511  14.900
77791W        W41559  28.149  22.134  12.474
77792W        W41560  42.350  10.171  14.829
77793W        W41561   0.761  20.092  12.446
77794W        W41562  28.609  20.264   2.693
77795W        W41563  26.630  21.665   2.874
77796W        W41564  25.095  39.039   4.711
77797W        W41565  34.974   2.431  10.912
77798W        W41566   6.344  17.129  13.051
77799W        W41567  32.897  26.685   0.928
77800W        W41568  44.807  17.651   1.793
77801W        W41569  26.626  36.384  14.958
77802W        W41570  41.537  35.105  14.306
77803W        W41571  35.061  18.149  11.882
77804W        W41572   6.281  16.124   4.219
77805W        W41573  24.032  40.802  10.604
77806W        W41574  14.804  44.309   0.881
77807W        W41575  22.645  19.138  14.980
77808W        W41576  44.968  42.509  10.517
77809W        W41577  40.055   7.844  10.483
77810W        W41578  11.291   3.723  10.511
77811W        W41579  42.482  29.035   4.145
77812W        W41580  14.593  22.646  14.329
77813W        W41581   4.443   5.758  13.926
77814W        W41582  11.636  16.722   2.781
77815W        W41583   9.332  32.119  10.022
77816W        W41584  11.155  20.709   3.364
77817W        W41585  14.630  11.240  14.926
77818W        W41586  21.532   0.904  13.416
77819W        W41587   5.302   9.753  10.979
77820W        W41588   6.200   1.420  13.402
77821W        W41589  18.056  31.570   4.132
77822W        W41590  14.274  33.082  10.537
77823W        W41591  29.972  39.906   3.736
77824W        W41592   1.744  34.880  10.524
77825W        W41593  23.032  23.525   0.738
77826W        W41594  31.025  12.361  13.899
77827W        W41595  32.539  20.672  13.938
77828W        W41596  43.800  19.655  11.013
77829W        W41597   9.160   1.872  10.075
77830W        W41598  32.105  43.874   4.336
77831W        W41599  18.563  16.660  14.442
77832W        W41600  29.533  25.981   0.783
77833W        W41601  18.239  27.098  14.359
77834W        W41602   0.907  38.914   4.178
77835W        W41603   9.845  16.248  11.553
77836W        W41604  22.626  44.356  12.418
77837W        W41605  27.476  23.051   2.259
77838W        W41606  16.787  21.158   2.387
77839W        W41607  14.709  20.220  13.885
77840W        W41608  22.710  43.389   0.462
77841W        W41609   2.385  43.018  12.960
77842W        W41610  23.240  44.957  11.431
77843W        W41611  41.859  38.993  11.876
77844W        W41612  25.118  33.026  10.979
77845W        W41613   6.208  31.494  14.940
77846W        W41614  38.497  37.966   4.315
77847W        W41615  40.831  12.117   1.799
77848W        W41616  35.086  43.900  13.454
77849W        W41617  16.286  35.376  11.470
77850W        W41618   5.281  11.676  14.921
77851W        W41619  37.560   3.872  12.565
77852W        W41620  36.020  26.602  13.403
77853W        W41621  22.123  38.420   2.284
77854W        W41622  24.215   6.875  13.038
77855W        W41623  44.770  10.655   3.344
77856W        W41624  26.958  33.951  13.030
77857W        W41625  15.095  32.106  12.544
77858W        W41626  21.038  36.551   3.871
77859W        W41627  31.417   2.742   2.275
77860W        W41628  35.429  25.196   4.138
77861W        W41629  19.602  20.028   0.769
77862W        W41630   8.372  27.519  11.490
77863W        W41631  34.538   2.345   0.349
77864W        W41632   0.763  26.677  11.469
77865W        W41633  26.057  25.983  12.960
77866W        W41634  16.749  40.316  12.570
77867W        W41635  39.926  31.901   0.477
77868W        W41636  35.886  25.702  13.454
77869W        W41637  39.994   9.263  13.881
77870W        W41638  23.088  44.991   4.240
77871W        W41639   0.311  36.967   5.281
77872W        W41640  24.202  43.898   3.329
77873W        W41641  13.171  26.516  11.100
77874W        W41642  39.507   8.820   4.285
77875W        W41643  38.860  12.360  10.506
77876W        W41644  30.121   3.414  11.892
77877W        W41645  25.005  42.322  14.403
77878W        W41646  38.042   3.347   4.692
77879W        W41647  33.508  27.014   4.827
77880W        W41648  44.826  21.631  11.433
77881W        W41649  11.236  38.524   2.888
77882W        W41650  13.191  41.318   3.166
77883W        W41651  16.117   4.257  12.539
77884W        W41652  27.017  18.594  12.437
77885W        W41653  44.298  10.252   3.819
77886W        W41654  35.019  19.086  13.830
77887W        W41655   0.763  28.435   1.328
77888W        W41656   0.283  30.022   0.385
77889W        W41657  41.494  31.446   0.242
77890W        W41658  10.358  37.452  12.468
77891W        W41659   5.821  21.641  13.528
77892W        W41660   2.357  27.668  14.876
77893W        W41661   1.426  22.075  12.437
77894W        W41662  16.694  42.389  13.914
77895W        W41663  38.842  29.443   5.152
77896W        W41664  39.916  23.584  11.878
77897W        W41665  25.219  24.695   3.847
77898W        W41666  35.909  27.471   1.800
77899W        W41667   6.896  16.774  11.970
77900W        W41668  11.665  11.366   1.736
77901W        W41669  37.068  13.723  11.043
77902W        W41670  25.023  37.387  14.407
77903W        W41671  36.426  25.203   1.726
77904W        W41672  41.515  28.658  13.908
77905W        W41673  24.645  41.297   0.898
77906W        W41674  16.304  16.765   0.964
77907W        W41675  36.484  17.731  13.340
77908W        W41676  17.183  23.193   1.924
77909W        W41677  39.922  15.669  11.399
77910W        W41678  34.034  18.239   3.852
77911W        W41679  35.469   1.883   4.194
77912W        W41680  25.478  25.496  12.423
77913W        W41681   6.820  39.318   1.742
77914W        W41682   3.821  16.747  13.020
77915W        W41683  27.005  11.163  11.861
77916W        W41684  39.916  33.618   0.828
77917W        W41685   4.866  44.782   4.826
77918W        W41686  32.623  38.456  10.931
77919W        W41687  40.054  13.611   0.473
77920W        W41688   0.486  28.968   2.319
77921W        W41689  12.223  14.686   5.263
77922W        W41690  22.088  31.006  10.419
77923W        W41691  44.978  25.712  11.515
77924W        W41692   2.270  31.913  11.932
77925W        W41693   2.235  15.597  11.913
77926W        W41694  35.858  12.126   1.324
77927W        W41695   7.751  31.541  11.000
77928W        W41696   7.847  24.092  10.421
77929W        W41697  41.461  38.978   1.387
77930W        W41698  21.067  10.648   2.193
77931W        W41699  32.605  43.350   1.899
77932W        W41700  33.027  40.538   0.269
77933W        W41701  25.688  11.340  11.022
77934W        W41702  40.924   0.789   2.700
77935W        W41703  43.286  44.417   0.834
77936W        W41704  32.913  24.711   3.263
77937W        W41705   5.912  29.513   2.290
77938W        W41706  18.238  29.449   0.745
77939W        W41707  18.703  25.127  10.626
77940W        W41708   3.840  43.801   3.819
77941W        W41709  44.978  30.103  14.975
77942W        W41710  17.668  33.499  13.372
77943W        W41711   0.902  12.763  13.321
77944W        W41712   7.375  37.930   0.859
77945W        W41713  19.715  28.081  14.446
77946W        W41714  41.526  28.150   2.287
77947W        W41715  25.603  28.627  11.958
77948W        W41716  44.272  32.143   2.797
77949W        W41717  39.007  16.223  11.489
77950W        W41718  31.107  15.316  10.960
77951W        W41719   6.205  33.060   4.800
77952W        W41720  44.758  10.146  12.567
77953W        W41721  16.715  23.189  13.490
77954W        W41722   4.840  27.086  14.993
77955W        W41723  19.608  31.468  11.107
77956W        W41724  36.492  26.177  13.955
77957W        W41725  12.617  12.159  12.896
77958W        W41726  32.008   9.355   4.611
77959W        W41727  31.432   3.253   4.648
77960W        W41728  12.623  43.833   2.191
77961W        W41729  28.049  20.032  12.479
77962W        W41730   3.299   8.685   0.387
77963W        W41731  27.110  33.936   3.352
77964W        W41732  21.585   3.266   3.168
77965W        W41733  26.654  27.500   0.271
77966W        W41734  34.409  41.790  14.870
77967W        W41735  41.857  18.286  11.090
77968W        W41736   2.465   1.971   4.797
77969W        W41737  24.059  31.921   0.782
77970W        W41738  39.535  11.202   3.358
77971W        W41739  38.027  41.890  11.609
77972W        W41740  31.586  16.089   2.703
77973W        W41741   2.414   4.296  13.799
77974W        W41742  41.861  21.593  13.547
77975W        W41743  23.148  33.518  13.884
77976W        W41744  42.418  16.130   3.259
77977W        W41745  15.164  15.669  14.010
77978W        W41746   1.881  12.820  14.031
77979W        W41747  17.233  41.512   3.197
77980W        W41748  14.830  31.463  11.914
77981W        W41749  12.164  37.497   1.322
77982W        W41750   7.848  16.594  13.330
77983W        W41751  42.523  42.287   0.785
77984W        W41752  14.334  22.657   4.234
77985W        W41753   8.310  39.443   1.247
77986W        W41754  24.605  23.067  12.363
77987W        W41755  22.208  30.939  12.998
77988W        W41756  16.100  33.560  12.397
77989W        W41757  15.131  31.977   1.716
77990W        W41758  42.825  25.639   5.174
77991W        W41759  29.968  29.631  11.071
77992W        W41760   2.924  34.584  12.979
77993W        W41761  37.522  44.888  11.472
77994W        W41762  14.296  16.141  13.331
77995W        W41763  32.523  22.666  14.903
77996W        W41764   6.200  41.495  10.005
77997W        W41765  15.717   9.704   2.772
77998W        W41766  10.765  34.523   2.259
77999W        W41767  29.497  25.704   2.708
78000W        W41768  30.936  10.697  11.397
78001W        W41769  27.562  26.652   4.660
78002W        W41770   0.908   9.807   0.389
78003W        W41771  19.061  28.669  10.408
78004W        W41772  26.116  34.884  11.441
78005W        W41773  23.117   0.977  11.513
78006W        W41774   1.309  37.055  12.041
78007W        W41775  38.901  15.809   3.670
78008W        W41776  18.098  33.016   4.340
78009W        W41777  40.412  17.749   2.241
78010W        W41778  18.156  29.585  10.566
78011W        W41779  13.334   0.763  12.840
78012W        W41780  31.110  29.026   1.846
78013W        W41781  19.223   4.724   0.246
78014W        W41782  12.789   6.422   4.134
78015W        W41783  40.031  26.205  14.826
78016W        W41784  10.337  26.003   2.775
78017W        W41785  17.088   8.770  11.002
78018W        W41786  10.264  13.253  11.494
78019W        W41787   2.278  20.262   3.776
78020W        W41788   1.314   1.790   4.281
78021W        W41789  40.821  35.862   2.852
78022W        W41790   9.180  19.244   4.657
78023W        W41791  19.708  23.502  14.348
78024W        W41792   7.393  23.640  11.021
78025W        W41793  16.628  15.684   0.890
78026W        W41794  11.853  35.006  11.938
78027W        W41795  35.542   5.378   2.782
78028W        W41796  39.425  43.338   4.124
78029W        W41797  17.162  15.186   2.311
78030W        W41798   8.325  31.976   1.229
78031W        W41799  24.991  37.044  14.991
78032W        W41800  36.585  21.647  10.545
78033W        W41801  41.011  40.529  14.910
78034W        W41802  43.421  21.741  11.000
78035W        W41803  11.133  22.612  13.820
78036W        W41804   1.331  33.066   0.928
78037W        W41805  38.973  44.326  13.379
78038W        W41806  21.206   5.396   2.791
78039W        W41807  17.668  33.979  13.880
78040W        W41808  41.511  38.898   2.816
78041W        W41809  17.752   3.901  13.504
78042W        W41810  24.665  38.068  11.557
78043W        W41811  37.948   4.257  11.579
78044W        W41812  25.636   1.327   4.194
78045W        W41813   4.248  10.185  11.407
78046W        W41814  36.442  11.761  13.522
78047W        W41815  36.937  20.707  14.374
78048W        W41816   8.293   3.246  14.922
78049W        W41817  32.494  24.627   0.891
78050W        W41818  19.701  33.006   2.760
78051W        W41819   1.750  23.725  14.006
78052W        W41820  38.370  34.056   4.310
78053W        W41821  34.960   7.823  14.320
78054W        W41822  10.801  24.217  13.886
78055W        W41823  21.090  44.762   4.181
78056W        W41824  11.811   6.332  12.348
78057W        W41825  44.877  33.521  11.098
78058W        W41826   5.885  43.019  10.441
78059W        W41827  13.249  17.143   0.270
78060W        W41828  17.653  18.712   5.291
78061W        W41829  42.955  20.169  13.064
78062W        W41830  17.119  24.213  12.872
78063W        W41831   8.805  36.428  10.913
78064W        W41832   2.357  11.233   4.189
78065W        W41833  22.513  26.643   5.292
78066W        W41834  32.405   3.803  11.560
78067W        W41835  37.547  18.737   1.729
78068W        W41836  12.343  29.100   2.776
78069W        W41837  21.121   8.801   1.895
78070W        W41838  10.172   9.741   1.235
78071W        W41839   4.834  19.231   0.864
78072W        W41840  31.634  26.073   3.347
78073W        W41841  35.458  19.616  11.859
78074W        W41842  35.917  31.066  13.821
78075W        W41843   0.379   0.476   2.681
78076W        W41844  38.839  31.933   4.263
78077W        W41845  39.331   4.760  14.814
78078W        W41846  12.737  27.548   4.250
78079W        W41847  30.151   1.302  14.966
78080W        W41848  39.450   3.308   1.732
78081W        W41849  33.888  32.507   4.605
78082W        W41850   8.379  32.120   2.723
78083W        W41851   7.873  21.150   0.350
78084W        W41852  11.657  21.618  11.389
78085W        W41853  28.651   0.418  10.946
78086W        W41854  29.995  35.576  10.436
78087W        W41855  10.835  19.047  10.961
78088W        W41856  18.634   4.730  12.476
78089W        W41857  25.653   2.849  10.479
78090W        W41858   4.445  22.111   4.152
78091W        W41859  34.004   1.797   1.395
78092W        W41860   8.164  24.681   4.628
78093W        W41861  11.231  32.568   1.396
78094W        W41862  12.297  43.312  11.109
78095W        W41863  11.357   3.452   0.380
78096W        W41864  31.611  20.177   1.904
78097W        W41865  13.788  30.540   3.754
78098W        W41866  34.035  36.951   0.338
78099W        W41867  39.462  27.962   5.256
78100W        W41868   7.336  16.174  13.334
78101W        W41869   3.426  23.058  11.882
78102W        W41870  11.316  37.903   4.713
78103W        W41871  17.622  43.389  11.435
78104W        W41872  29.466   4.873  13.370
78105W        W41873   9.854  15.770  10.485
78106W        W41874  38.433   7.405  11.987
78107W        W41875  15.146   6.735   1.788
78108W        W41876  13.111  26.011   2.229
78109W        W41877  19.606  22.628   3.224
78110W        W41878  14.195  34.977   2.231
78111W        W41879  30.027   3.236   2.353
78112W        W41880  38.466  33.419   5.793
78113W        W41881   9.645  36.537   0.367
78114W        W41882  22.089  32.435   1.888
78115W        W41883   6.719  20.735  14.285
78116W        W41884  41.433  36.867  11.466
78117W        W41885  12.164  24.609  12.345
78118W        W41886  38.436  24.678  12.028
78119W        W41887  42.344  27.675   0.824
78120W        W41888  44.391  18.679  10.891
78121W        W41889  43.380  15.614   0.730
78122W        W41890  44.805  40.423   2.850
78123W        W41891  10.230  31.128   1.333
78124W        W41892  19.563  34.414  12.050
78125W        W41893  23.000  25.185  12.966
78126W        W41894  37.549  39.497   3.296
78127W        W41895   9.695  19.643   2.675
78128W        W41896  26.639  29.133   2.309
78129W        W41897  25.183  26.580  12.929
78130W        W41898   2.867  21.257  14.994
78131W        W41899  42.790   2.318   0.801
78132W        W41900  17.625  33.395   2.898
78133W        W41901  33.080  35.001   3.811
78134W        W41902  41.308  37.837  12.935
78135W        W41903  28.550  17.229  13.964
78136W        W41904  29.485  34.081   2.889
78137W        W41905   5.347  35.072   1.865
78138W        W41906  13.157  17.750   4.814
78139W        W41907  16.639  30.572  11.966
78140W        W41908  24.037  34.584   2.343
78141W        W41909  35.533  43.784   3.836
78142W        W41910  40.002   2.443   3.742
78143W        W41911  18.257   7.721  10.991
78144W        W41912  32.967   1.948   4.217
78145W        W41913  39.416  39.440  11.606
78146W        W41914  39.836   8.200   0.747
78147W        W41915   1.847  28.119  10.481
78148W        W41916  38.034  41.426  13.995
78149W        W41917   1.840  25.982   4.116
78150W        W41918   7.250  26.000  11.103
78151W        W41919  44.259   7.738   0.363
78152W        W41920  34.891   9.750   3.282
78153W        W41921  16.276  20.617   2.253
78154W        W41922   6.679  25.033   1.905
78155W        W41923  44.924  24.547   2.330
78156W        W41924  28.010  44.461   3.353
78157W        W41925  42.008  41.950  11.870
78158W        W41926   5.838  31.511  12.527
78159W        W41927  21.241   4.315  11.420
78160W        W41928  13.845  42.368   0.312
78161W        W41929  37.875  40.523   1.862
78162W        W41930  42.297  14.119  13.327
78163W        W41931   1.261   3.252   2.416
78164W        W41932  26.958   0.352  10.490
78165W        W41933   3.454  15.750   4.269
78166W        W41934  29.141  19.178   0.353
78167W        W41935  17.744   9.265   4.786
78168W        W41936   8.781  44.953  12.379
78169W        W41937  31.548  44.962  13.793
78170W        W41938  11.343  20.724  13.053
78171W        W41939  10.150  11.224  14.389
78172W        W41940   1.403  44.306  12.495
78173W        W41941  12.789  34.103   3.285
78174W        W41942  22.631   2.355   0.901
78175W        W41943  24.151   1.483  10.414
78176W        W41944   0.474  31.150  13.824
78177W        W41945  19.592  12.135  12.440
78178W        W41946  28.046  12.218   1.243
78179W        W41947  19.282  40.420  14.000
78180W        W41948  39.536   3.420   1.339
78181W        W41949  43.413  23.152  11.085
78182W        W41950  40.346  16.635  14.328
78183W        W41951  24.633  16.782   1.877
78184W        W41952  16.303  40.910   1.895
78185W        W41953  26.470  39.930  12.408
78186W        W41954   2.768  17.152   3.706
78187W        W41955   0.373   2.421  13.907
78188W        W41956  10.694  30.089  10.632
78189W        W41957  19.096  29.597   1.395
78190W        W41958  33.105  20.270  11.409
78191W        W41959  19.611  26.032  14.902
78192W        W41960  17.603  21.670   3.743
78193W        W41961  44.432  25.156   1.740
78194W        W41962   5.321  29.484   3.753
78195W        W41963  42.358  26.505  14.989
78196W        W41964   7.273   2.802   3.300
78197W        W41965  36.398  11.732  12.530
78198W        W41966   8.206  16.623   4.636
78199W        W41967  40.994  12.818  13.869
78200W        W41968  33.483  30.596  10.497
78201W        W41969  15.300  19.280   4.708
78202W        W41970   3.316  43.848   0.797
78203W        W41971  37.384   8.797  14.318
78204W        W41972   9.182   4.925   1.241
78205W        W41973  21.519  30.440   2.848
78206W        W41974   8.767  29.619  11.949
78207W        W41975  36.991  21.135  11.871
78208W        W41976   3.715  22.115   4.736
78209W        W41977   9.185  38.918   0.385
78210W        W41978  11.164  19.768  13.488
78211W        W41979  22.677  18.745   0.726
78212W        W41980   5.724   1.796  10.601
78213W        W41981  41.377  21.142  11.453
78214W        W41982  44.879  24.123   0.773
78215W        W41983  24.611  33.085   4.315
78216W        W41984  18.152  34.988   0.864
78217W        W41985  36.858  11.304   4.345
78218W        W41986   9.842  13.299  13.446
78219W        W41987  10.715  30.475   0.264
78220W        W41988  37.465  31.444   2.411
78221W        W41989  27.689  14.784   4.617
78222W        W41990  21.047  41.294  11.121
78223W        W41991   6.769  14.255   4.284
78224W        W41992  21.061   4.434   1.390
78225W        W41993  43.777  25.163  12.518
78226W        W41994   4.269  13.651  11.431
78227W        W41995  37.978  23.172   1.230
78228W        W41996  25.537   7.333   2.725
78229W        W41997   1.467  15.619   2.775
78230W        W41998  29.979  18.194  13.477
78231W        W41999  44.450   5.361   0.864
78232W        W42000  25.591  39.341   2.790
78233W        W42001  25.981  39.368   0.798
78234W        W42002  13.183  35.977  13.862
78235W        W42003  37.406   5.220   1.386
78236W        W42004  42.478  13.706   3.635
78237W        W42005  20.751  27.681  12.052
78238W        W42006  42.015  14.287   3.735
78239W        W42007  26.195  23.598   0.939
78240W        W42008  35.958  23.123  12.035
78241W        W42009   6.182  41.994   4.802
78242W        W42010  38.900  19.535   1.374
78243W        W42011   7.320   0.902   0.362
78244W        W42012  44.960  11.814   1.254
78245W        W42013  43.840  19.651   2.774
78246W        W42014  34.912  44.849  10.923
78247W        W42015  21.074  11.627  14.943
78248W        W42016  24.675  10.753  10.539
78249W        W42017  26.957  27.464   0.374
78250W        W42018   0.304  12.636  13.038
78251W        W42019  29.537  20.147   2.382
78252W        W42020  17.306  43.839   4.624
78253W        W42021  19.200   0.468   2.686
78254W        W42022   4.823  18.574   4.837
78255W        W42023   1.368  37.059   5.184
78256W        W42024  23.000  39.392   3.702
78257W        W42025  31.425  31.592   0.411
78258W        W42026  27.093  33.448  10.045
78259W        W42027  30.541  18.200  12.463
78260W        W42028  19.092   7.392   3.745
78261W        W42029  43.327  16.285  14.416
78262W        W42030  38.900  43.334   1.731
78263W        W42031   9.337   2.902   0.880
78264W        W42032  15.233   8.869   0.359
78265W        W42033   8.792  31.114  11.925
78266W        W42034   8.378  16.238  13.903
78267W        W42035   1.746  42.893  12.372
78268W        W42036  28.047  35.947  13.333
78269W        W42037  18.545  43.790  12.905
78270W        W42038  27.037  26.113   2.774
78271W        W42039   3.310  12.689   3.151
78272W        W42040   4.814   4.927   5.259
78273W        W42041  14.110  31.528  14.885
78274W        W42042  35.552   1.773   1.901
78275W        W42043   1.319  43.793  14.992
78276W        W42044  14.669  25.636   3.248
78277W        W42045  16.761  15.161   5.207
78278W        W42046   4.280   2.310  12.936
78279W        W42047  27.107  42.420   3.856
78280W        W42048  11.151  28.179  12.555
78281W        W42049  18.705   3.817  12.565
78282W        W42050  41.023   9.179   2.178
78283W        W42051  41.413   7.187  11.449
78284W        W42052  41.028  10.767  14.386
78285W        W42053  42.999   5.247   0.899
78286W        W42054   4.409  44.259   3.865
78287W        W42055   5.312  12.714   3.356
78288W        W42056   9.814  31.150  11.909
78289W        W42057   9.166   1.277  14.912
78290W        W42058  41.815  34.073   3.365
78291W        W42059  40.807  12.837  12.846
78292W        W42060  28.674  40.829   3.696
78293W        W42061   2.397  24.030  12.523
78294W        W42062  26.054  26.077   2.242
78295W        W42063  40.837  22.039  14.918
78296W        W42064  35.443  10.380   2.829
78297W        W42065  26.085  36.386   0.883
78298W        W42066  33.484  32.400   1.800
78299W        W42067  26.535   9.771  10.588
78300W        W42068  28.468  21.044  11.503
78301W        W42069  14.824  32.431   2.720
78302W        W42070  31.996  37.462   5.104
78303W        W42071   7.400   5.832   4.625
78304W        W42072  42.338   7.863  10.476
78305W        W42073  37.526  28.557   1.877
78306W        W42074  33.519  14.122  12.459
78307W        W42075  11.188  11.761  10.971
78308W        W42076   1.305   7.878   3.672
78309W        W42077   7.743  23.069  11.472
78310W        W42078  34.545  43.950  11.093
78311W        W42079  40.922  23.511   1.435
78312W        W42080  30.584  17.279   3.810
78313W        W42081  33.034  25.540  10.580
78314W        W42082  41.990   6.745  11.466
78315W        W42083  30.635  18.170  11.478
78316W        W42084   4.285  30.029   4.291
78317W        W42085  17.763   2.330   0.962
78318W        W42086  42.481  21.675  12.549
78319W        W42087  15.598  32.417   2.340
78320W        W42088   8.287   5.787   1.933
78321W        W42089  11.245  15.191  11.958
78322W        W42090  36.380  21.665   4.298
78323W        W42091  32.506  10.199   3.336
78324W        W42092  43.814  31.994   0.777
78325W        W42093  40.931  13.821  12.063
78326W        W42094  31.469  25.145   2.230
78327W        W42095  36.898  16.180   1.216
78328W        W42096  31.615  25.709   2.783
78329W        W42097  25.692  21.243  14.482
78330W        W42098  11.720  18.213   1.425
78331W        W42099  20.072  44.999  11.122
78332W        W42100   0.313  20.088   3.300
78333W        W42101  16.801  26.031  11.876
78334W        W42102  20.044  35.580  13.834
78335W        W42103   2.787  27.082  10.611
78336W        W42104  13.799  20.695  14.455
78337W        W42105  17.680  42.285  12.930
78338W        W42106  37.905  42.961   0.414
78339W        W42107  12.734  13.336  13.953
78340W        W42108  11.200   9.261  13.836
78341W        W42109  34.874  29.924  14.014
78342W        W42110  29.564  17.174   1.749
78343W        W42111  33.430  20.199   4.825
78344W        W42112   8.835  17.682  13.417
78345W        W42113  29.980  13.658   3.223
78346W        W42114  35.033   2.234   0.919
78347W        W42115  37.022   4.230   2.408
78348W        W42116  30.053   5.224   4.231
78349W        W42117   8.175  18.178   3.201
78350W        W42118  13.608  12.816  11.111
78351W        W42119  21.528  12.697  12.977
78352W        W42120  28.972   2.236   1.694
78353W        W42121  44.815   3.367   4.186
78354W        W42122  44.924  31.474   1.928
78355W        W42123   1.736  11.712  10.643
78356W        W42124  31.530  15.724  13.513
78357W        W42125  38.831  17.654  12.824
78358W        W42126  43.793  23.122  13.537
78359W        W42127  24.576  14.761   4.670
78360W        W42128  36.088  16.221   2.401
78361W        W42129  21.125   7.747  14.484
78362W        W42130  16.127  29.026  13.980
78363W        W42131  18.227  24.645   0.840
78364W        W42132  32.531  20.126  14.014
78365W        W42133  36.012  24.204   3.738
78366W        W42134  20.172  13.349   1.854
78367W        W42135  27.468   5.757   3.202
78368W        W42136  41.408   0.930   4.758
78369W        W42137   6.362  24.614  13.029
78370W        W42138  20.661  35.427   3.849
78371W        W42139  28.127  27.623  13.965
78372W        W42140  17.091  21.535  11.497
78373W        W42141  38.881  33.984   5.691
78374W        W42142  16.801   5.702   3.807
78375W        W42143  24.589  27.507   1.247
78376W        W42144   7.782  34.892   4.296
78377W        W42145   3.821  43.395  11.035
78378W        W42146  42.811   6.690   0.424
78379W        W42147  35.078   0.771  12.443
78380W        W42148  44.323   0.791   3.673
78381W        W42149   3.221  29.608   4.819
78382W        W42150  13.832   4.815   0.394
78383W        W42151  38.070   0.762   4.323
78384W        W42152  35.853  36.968  14.485
78385W        W42153  24.088  34.952   2.797
78386W        W42154  26.063   3.880   2.874
78387W        W42155  33.599  19.763   4.747
78388W        W42156   7.874  28.113   3.767
78389W        W42157   5.871   4.422  12.459
78390W        W42158  12.643  19.268  13.861
78391W        W42159   2.958  42.331  11.948
78392W        W42160  26.110  25.711   4.732
78393W        W42161  11.672  22.698   4.152
78394W        W42162  41.812  12.691  10.944
78395W        W42163  24.556  26.638   2.895
78396W        W42164  44.408   5.848   0.375
78397W        W42165  18.050   0.880   0.310
78398W        W42166  22.019  43.000   3.669
78399W        W42167  33.928  20.613   1.720
78400W        W42168   1.469   6.805   4.299
78401W        W42169   7.213  30.919   1.768
78402W        W42170  18.255   3.732  11.073
78403W        W42171   8.296  30.427   0.823
78404W        W42172  39.934  13.731  14.917
78405W        W42173  25.067  25.693  11.968
78406W        W42174  30.068  21.077   2.798
78407W        W42175  38.358   1.924  12.451
78408W        W42176   7.357  15.192  13.838
78409W        W42177  39.393  20.570  13.487
78410W        W42178  30.509  44.962   3.261
78411W        W42179  28.159   1.801  13.891
78412W        W42180  23.170  36.389  11.583
78413W        W42181   9.169  26.677   0.878
78414W        W42182  34.400   2.232  12.575
78415W        W42183  24.109  11.655  13.384
78416W        W42184  12.737   5.708  13.966
78417W        W42185  27.547   1.761  13.907
78418W        W42186   4.326   8.193   0.324
78419W        W42187  10.341  19.166   1.221
78420W        W42188  16.239  35.518   3.821
78421W        W42189  29.617  10.175   4.794
78422W        W42190  26.968  29.528   1.266
78423W        W42191  17.180  25.972   1.711
78424W        W42192  30.032   6.850  13.539
78425W        W42193  34.091  21.091   9.960
78426W        W42194  10.325  38.911   1.786
78427W        W42195   4.901  39.958  12.483
78428W        W42196   3.889   3.818   0.278
78429W        W42197   2.754  24.060   2.685
78430W        W42198  12.810  43.904   0.881
78431W        W42199  12.833  41.897  11.459
78432W        W42200  38.944   8.745  10.432
78433W        W42201  10.142  11.174   2.878
78434W        W42202  25.100  39.986   2.236
78435W        W42203  25.168   3.920  12.569
78436W        W42204   4.239   2.772   0.474
78437W        W42205   6.835  28.578  11.076
78438W        W42206  31.951  39.510   0.398
78439W        W42207  14.595  21.608   2.827
78440W        W42208  12.782  38.529  10.599
78441W        W42209   6.237   3.430  10.025
78442W        W42210  18.118  36.014   4.817
78443W        W42211  39.851   4.291   4.354
78444W        W42212   9.358  21.691   2.737
78445W        W42213  17.136  21.102  12.043
78446W        W42214  23.183  38.942   0.914
78447W        W42215  16.255  11.217   4.214
78448W        W42216  44.958  16.808  11.896
78449W        W42217   3.946  39.540   3.748
78450W        W42218  12.308  42.465  12.471
78451W        W42219   6.770  38.006   1.222
78452W        W42220   8.689  38.523  12.531
78453W        W42221  34.523  38.922   2.306
78454W        W42222  37.420  34.923   5.213
78455W        W42223  21.539   8.354   0.429
78456W        W42224  20.163  30.569  14.467
78457W        W42225  28.021  25.570  10.949
78458W        W42226  43.838   6.807  10.899
78459W        W42227  21.534  44.285  13.883
78460W        W42228  41.317  30.030   4.712
78461W        W42229  15.631  10.234   0.473
78462W        W42230  10.729  11.135   1.874
78463W        W42231  32.985   0.985  14.911
78464W        W42232   1.793  35.914   4.720
78465W        W42233  11.759  31.418   0.454
78466W        W42234   7.683  44.412  13.329
78467W        W42235  33.594  21.124   3.326
78468W        W42236   3.243  43.363   0.935
78469W        W42237  38.458  20.557  11.535
78470W        W42238  35.910   0.380   1.286
78471W        W42239   0.888  29.092  10.117
78472W        W42240   7.405  32.956  14.365
78473W        W42241   9.198  37.870  11.522
78474W        W42242   3.795  24.121  11.427
78475W        W42243  17.743  32.076   4.164
78476W        W42244  41.430   0.389  12.436
78477W        W42245  42.367  19.606  11.886
78478W        W42246  18.164   9.752  12.476
78479W        W42247  23.517  13.110   2.857
78480W        W42248  23.681  15.723  13.361
78481W        W42249  43.887  34.380  14.329
78482W        W42250  38.894  42.932   2.276
78483W        W42251   6.284  13.130  10.561
78484W        W42252   3.853  34.412   1.314
78485W        W42253  29.011  15.248  10.991
78486W        W42254  36.398  10.805   4.173
78487W        W42255   2.787   4.848  12.073
78488W        W42256  11.200  37.018  12.860
78489W        W42257  14.615   3.731  14.872
78490W        W42258  34.537  32.606  12.855
78491W        W42259  21.059  17.668   4.620
78492W        W42260  10.230  40.905  12.567
78493W        W42261  44.884  14.113  11.921
78494W        W42262  36.902  25.576  14.890
78495W        W42263  34.387  16.303   2.281
78496W        W42264  13.163  19.564   3.644
78497W        W42265  12.776  11.846  14.867
78498W        W42266  21.531  19.078  14.985
78499W        W42267  27.615  34.078   4.699
78500W        W42268   7.333  32.081   1.847
78501W        W42269   5.880  27.006  14.877
78502W        W42270   6.327  24.983   2.884
78503W        W42271  21.129  38.462   4.690
78504W        W42272  30.588  31.617   3.216
78505W        W42273  16.752  42.352   0.889
78506W        W42274   6.854  28.940   2.334
78507W        W42275   3.358   2.801  11.111
78508W        W42276  40.361  42.023   1.731
78509W        W42277  33.890  18.594   3.671
78510W        W42278  26.483  43.466  13.521
78511W        W42279  25.072  27.152  12.479
78512W        W42280  23.590  39.905   1.851
78513W        W42281   2.776  15.727  13.896
78514W        W42282   2.837  23.009  10.472
78515W        W42283   1.769  23.639  10.478
78516W        W42284  31.402  28.137   0.460
78517W        W42285   0.830  17.176  10.577
78518W        W42286   0.383  37.009  14.328
78519W        W42287  42.778  39.890  11.035
78520W        W42288  33.071  24.211  10.983
78521W        W42289   0.868  28.619  14.463
78522W        W42290   6.303  20.038   4.798
78523W        W42291   5.738  28.183  11.548
78524W        W42292  43.285  15.772  14.937
78525W        W42293   4.413  18.654   3.843
78526W        W42294  38.544   9.887  13.548
78527W        W42295   0.777  42.481   4.745
78528W        W42296   9.365  39.824   2.261
78529W        W42297  35.861  32.574  14.371
78530W        W42298  31.965  18.231  12.864
78531W        W42299  38.420  33.509   2.191
78532W        W42300  16.316  15.168   1.864
78533W        W42301  33.978  25.669   2.698
78534W        W42302  43.987   0.282  12.490
78535W        W42303  18.777  43.331   4.653
78536W        W42304  38.509   9.655   3.357
78537W        W42305  32.903  18.681  10.034
78538W        W42306  20.163   5.338  11.891
78539W        W42307   7.726   8.406  12.984
78540W        W42308   9.812   1.828  11.439
78541W        W42309  42.281   6.759  11.578
78542W        W42310   0.901  24.578   1.861
78543W        W42311  40.898  37.347  12.938
78544W        W42312  43.328  11.718   2.197
78545W        W42313  42.943  12.335  13.807
78546W        W42314  14.751   8.395   2.376
78547W        W42315  26.961   9.278   3.233
78548W        W42316  30.971  14.265   3.342
78549W        W42317  24.015  20.747   0.320
78550W        W42318   5.728  12.678   4.658
78551W        W42319  14.670  14.181   4.798
78552W        W42320  34.612   3.818  12.430
78553W        W42321  39.406  22.164  14.922
78554W        W42322  24.067  42.380  14.004
78555W        W42323  43.458  11.324   2.746
78556W        W42324  29.977  22.602  12.506
78557W        W42325  44.983  35.076   1.765
78558W        W42326   5.286  44.766  14.858
78559W        W42327  24.185  42.298   2.689
78560W        W42328  35.371   5.904  13.798
78561W        W42329  23.551  11.248  10.110
78562W        W42330  39.953   2.964   3.731
78563W        W42331  26.068  32.016   0.303
78564W        W42332   8.196  27.591  13.942
78565W        W42333  20.266  17.088  13.875
78566W        W42334  37.951  27.656   4.343
78567W        W42335  42.972   5.901   1.259
78568W        W42336  22.065   0.408   3.726
78569W        W42337  37.372  27.510  11.055
78570W        W42338  36.901  14.138  12.011
78571W        W42339  36.015  24.984  11.887
78572W        W42340  30.625  24.552  14.280
78573W        W42341  28.982  41.356   0.291
78574W        W42342  21.597   3.272  14.783
78575W        W42343  25.534  44.399   3.729
78576W        W42344  18.745   8.699   0.752
78577W        W42345  37.076  39.450  11.558
78578W        W42346   9.761  28.468   3.190
78579W        W42347  18.286   0.430  13.315
78580W        W42348  36.468  32.576  14.805
78581W        W42349  11.835  10.747   1.235
78582W        W42350  32.571  35.477   2.899
78583W        W42351  12.346   2.433   4.150
78584W        W42352  34.591  35.991  12.354
78585W        W42353  12.764  14.657   0.747
78586W        W42354  16.214  30.016   2.874
78587W        W42355  43.953  11.742  14.449
78588W        W42356   3.907   5.908  14.447
78589W        W42357  40.801   6.386  12.345
78590W        W42358   8.218   6.349   3.283
78591W        W42359  37.855  37.866   0.389
78592W        W42360  28.022  38.509   0.429
78593W        W42361   4.345  11.664   3.861
78594W        W42362   1.867  28.640  14.329
78595W        W42363  35.954  29.579   2.200
78596W        W42364   9.253   2.460   3.339
78597W        W42365  15.804  30.029   3.188
78598W        W42366  26.622  17.125  10.515
78599W        W42367  26.173  42.438  11.121
78600W        W42368  43.380   8.700   2.895
78601W        W42369  41.864   3.785   0.880
78602W        W42370   7.259  26.700  13.875
78603W        W42371  14.330  13.178  11.578
78604W        W42372   4.843  15.623  12.468
78605W        W42373  43.950  11.210  11.893
78606W        W42374   9.161  14.144  11.427
78607W        W42375  21.718   0.986   4.342
78608W        W42376  26.530  38.929   2.294
78609W        W42377   6.839   0.910  14.437
78610W        W42378  31.025  41.032   3.154
78611W        W42379  23.055  32.627  13.810
78612W        W42380  41.370  11.833   2.794
78613W        W42381  24.533  18.592  10.594
78614W        W42382   7.693  39.916   2.332
78615W        W42383  28.599   7.368   4.206
78616W        W42384  29.997  27.451  12.552
78617W        W42385   5.387  42.885   1.294
78618W        W42386   4.281  26.022  13.354
78619W        W42387  19.588  20.551   1.296
78620W        W42388  31.601  34.952   3.157
78621W        W42389  38.050  25.569   3.283
78622W        W42390  36.366  31.646   0.812
78623W        W42391  38.357   9.689   2.770
78624W        W42392  17.559  39.963  12.370
78625W        W42393  33.532  38.551  12.408
78626W        W42394  29.098   8.397   2.195
78627W        W42395  15.783  14.686   0.373
78628W        W42396  37.851  29.502   2.395
78629W        W42397  35.534  13.122  13.049
78630W        W42398  19.572   4.887  13.902
78631W        W42399   2.342  37.920   2.836
78632W        W42400  27.649  36.890   0.904
78633W        W42401  40.033   4.822   4.775
78634W        W42402  36.062  17.297   2.720
78635W        W42403  21.135   1.852  14.808
78636W        W42404  17.735  40.312  13.960
78637W        W42405  16.079  43.289   3.222
78638W        W42406   8.174  19.619  12.039
78639W        W42407  34.048  14.304   4.295
78640W        W42408  41.016  25.002   2.276
78641W        W42409  38.414   1.769  10.979
78642W        W42410  32.501  35.457  12.543
78643W        W42411  34.402  42.962   4.647
78644W        W42412  38.327  29.172  10.608
78645W        W42413  20.073  38.381  14.842
78646W        W42414  22.164  11.769  12.029
78647W        W42415  36.574  13.279   0.444
78648W        W42416   6.684  12.252   1.778
78649W        W42417  35.104  25.041   5.289
78650W        W42418  42.385  39.330  14.772
78651W        W42419   9.659  15.609   0.827
78652W        W42420  22.527  26.964   1.313
78653W        W42421  18.195  29.053   1.887
78654W        W42422   5.200  32.114   4.736
78655W        W42423  15.318  30.521   1.258
78656W        W42424  38.482   2.407   0.370
78657W        W42425  40.457  33.007  12.882
78658W        W42426   2.469   1.334   0.741
78659W        W42427  36.051  38.329  12.988
78660W        W42428  30.494   6.184  14.385
78661W        W42429  36.578  35.502   0.961
78662W        W42430  25.026  38.375   2.750
78663W        W42431   6.714  17.300  11.571
78664W        W42432  35.508   7.775   0.954
78665W        W42433   7.672  21.087   2.180
78666W        W42434  19.072  15.262   3.747
78667W        W42435  27.184   7.809  12.964
78668W        W42436  38.071  30.109  11.937
78669W        W42437  44.292  35.538   0.430
78670W        W42438  41.406  16.162  12.971
78671W        W42439  31.628  35.531  13.931
78672W        W42440  15.690   8.836   1.220
78673W        W42441  38.864  34.061  12.078
78674W        W42442  40.871  34.941   1.423
78675W        W42443  19.671  41.961   1.766
78676W        W42444   4.821  39.969   4.326
78677W        W42445  39.832  37.867   3.751
78678W        W42446  30.951  31.948  14.943
78679W        W42447  39.551  21.691  11.469
78680W        W42448  29.493  33.096   3.749
78681W        W42449  18.100  42.280   1.318
78682W        W42450  34.418  25.566  14.989
78683W        W42451  15.591  15.100   3.182
78684W        W42452  23.558   3.293  13.058
78685W        W42453   8.333  29.083  10.924
78686W        W42454  44.401  18.217  11.426
78687W        W42455  21.064  14.322   2.820
78688W        W42456  18.068  18.689   3.868
78689W        W42457   4.879  12.208   0.381
78690W        W42458   8.856  42.461   2.247
78691W        W42459  22.105  37.834  12.370
78692W        W42460   7.342  18.597   4.285
78693W        W42461  42.017   8.657   2.274
78694W        W42462   1.911  30.659   1.255
78695W        W42463  11.191  34.576   1.409
78696W        W42464  29.973  21.756   3.199
78697W        W42465   5.771  42.967  12.485
78698W        W42466  31.507  19.708   4.238
78699W        W42467   5.897  37.343   0.449
78700W        W42468  12.287  38.068  14.362
78701W        W42469  18.564  31.414  12.453
78702W        W42470  32.495  32.018  11.996
78703W        W42471  21.541  20.654   4.233
78704W        W42472  10.327   3.227   3.773
78705W        W42473  28.463  30.153  14.843
78706W        W42474  24.077  41.885   4.203
78707W        W42475  31.953  10.665   2.250
78708W        W42476  19.176  42.449  12.561
78709W        W42477   7.254  14.322  11.891
78710W        W42478   9.247  17.167   1.232
78711W        W42479  23.136  27.146  13.805
78712W        W42480  23.194  12.166  10.603
78713W        W42481  41.445  20.232   5.211
78714W        W42482   5.236   7.258   1.788
78715W        W42483   9.381  42.990   3.376
78716W        W42484  13.171   9.743   3.789
78717W        W42485  17.121  28.029   3.284
78718W        W42486  27.956   4.307  10.445
78719W        W42487   9.285  34.117  12.886
78720W        W42488  24.548  15.761  14.313
78721W        W42489  22.117  28.550  13.487
78722W        W42490   4.916  32.941  13.523
78723W        W42491  23.142  31.944  12.067
78724W        W42492  44.382  18.236  14.493
78725W        W42493  40.365  30.987   2.844
78726W        W42494  25.144  14.750   4.176
78727W        W42495   2.831  35.441  14.928
78728W        W42496  39.917  36.389   2.393
78729W        W42497  37.516  15.799  13.840
78730W        W42498  26.546  18.742  14.507
78731W        W42499  22.723  42.829  14.342
78732W        W42500  22.249  42.518  11.522
78733W        W42501  12.217  34.937   3.663
78734W        W42502  41.940  21.600   1.302
78735W        W42503  33.618  13.252   4.267
78736W        W42504  37.421  18.634  13.968
78737W        W42505  34.064  10.816  14.510
78738W        W42506  36.990  19.541   3.336
78739W        W42507  41.470  20.645  13.480
78740W        W42508   4.408  18.062  14.901
78741W        W42509   5.415  32.496  12.884
78742W        W42510  18.219  34.907   9.647
78743W        W42511  35.458   3.780   2.732
78744W        W42512  34.099   7.809  13.501
78745W        W42513   4.827  16.616   1.833
78746W        W42514   3.873  27.994  12.855
78747W        W42515  21.140   5.741  12.861
78748W        W42516  10.304   9.810   4.182
78749W        W42517  22.129   2.929  14.917
78750W        W42518  33.620   4.410   1.870
78751W        W42519  12.288   0.485   0.742
78752W        W42520  21.205  26.581  13.310
78753W        W42521   8.198  19.610  13.534
78754W        W42522  25.088  27.076  13.499
78755W        W42523  23.205  32.887  14.857
78756W        W42524   5.932  10.809  10.564
78757W        W42525  15.631   7.677   3.357
78758W        W42526   0.933  15.679  12.060
78759W        W42527  23.688  15.134  11.966
78760W        W42528  14.629  14.735  12.989
78761W        W42529   1.748  44.008  11.894
78762W        W42530  15.650   3.843  11.581
78763W        W42531   0.445  34.098  12.411
78764W        W42532  12.730  33.946   4.697
78765W        W42533   9.772   9.786   4.655
78766W        W42534   8.374  34.936   2.761
78767W        W42535  11.792  37.056   4.835
78768W        W42536  32.392   0.268  10.058
78769W        W42537   4.407   9.295  10.407
78770W        W42538  31.974  10.833  13.982
78771W        W42539  39.433  14.697  14.290
78772W        W42540   1.248  40.014   0.735
78773W        W42541  39.478  34.590  12.482
78774W        W42542   2.799   8.271  12.374
78775W        W42543   6.713   3.839  10.481
78776W        W42544  28.518  39.811  13.348
78777W        W42545  31.628  37.394   0.396
78778W        W42546  25.690  29.471  11.103
78779W        W42547  11.367  42.435   0.429
78780W        W42548  14.700  24.994   1.796
78781W        W42549  22.711  21.627  10.089
78782W        W42550  15.668  40.823   3.386
78783W        W42551  41.496  35.881   2.380
78784W        W42552  27.668  29.520   2.717
78785W        W42553   5.336  29.990   4.659
78786W        W42554   0.317  27.661   1.912
78787W        W42555  17.649  11.868   1.730
78788W        W42556   1.977  33.454  11.098
78789W        W42557  24.546  30.018  10.905
78790W        W42558  10.295  36.562   3.363
78791W        W42559  44.893  35.072  14.946
78792W        W42560  20.738  37.444   2.663
78793W        W42561   8.878  23.224   4.640
78794W        W42562  28.136   9.727  10.533
78795W        W42563  43.501  39.436   4.153
78796W        W42564  15.228  21.703   0.438
78797W        W42565  41.504  34.890   3.664
78798W        W42566  14.701   2.240   1.933
78799W        W42567   9.865   0.307  11.052
78800W        W42568  12.677  35.012  13.491
78801W        W42569  32.939  29.041   1.251
78802W        W42570  42.918  36.444   2.839
78803W        W42571  31.030  32.082  14.352
78804W        W42572  35.557  26.650   1.237
78805W        W42573  16.658  11.816   4.671
78806W        W42574  10.692   1.409  14.858
78807W        W42575  30.631  27.492  13.824
78808W        W42576  41.354  38.929  14.836
78809W        W42577  39.394   6.763  10.934
78810W        W42578  27.943  22.116   3.270
78811W        W42579  21.731   2.892  11.055
78812W        W42580  41.378  39.361   2.809
78813W        W42581  17.289  22.523  12.878
78814W        W42582   0.888  11.221   0.926
78815W        W42583  23.664   3.913   3.714
78816W        W42584   9.392  32.938  10.579
78817W        W42585  18.703  27.565   3.322
78818W        W42586   2.763   9.718   1.343
78819W        W42587  39.467   2.299   2.721
78820W        W42588  10.774  28.936   0.357
78821W        W42589  22.567  33.605  13.484
78822W        W42590  40.529   9.372  14.296
78823W        W42591  18.083  33.079   1.304
78824W        W42592   6.298  41.468   4.176
78825W        W42593  30.019   4.753   4.229
78826W        W42594  28.544   5.196  12.863
78827W        W42595  20.554  20.071   0.771
78828W        W42596  22.720  40.872  14.766
78829W        W42597  32.965  12.158   0.770
78830W        W42598  38.937  16.787   3.327
78831W        W42599  39.950   4.812   3.862
78832W        W42600  16.108  15.096   4.202
78833W        W42601  28.020  35.872  10.954
78834W        W42602  34.970  25.086   4.263
78835W        W42603   1.242   2.248   0.803
78836W        W42604  29.003  31.611   0.813
78837W        W42605   7.347  20.194   4.608
78838W        W42606  20.255  39.488   1.358
78839W        W42607  19.698   0.386  14.472
78840W        W42608  35.386  26.118  13.986
78841W        W42609  20.140  36.521  12.348
78842W        W42610  42.822  36.990   3.645
78843W        W42611  13.743   9.393   3.686
78844W        W42612  26.527   6.796   2.805
78845W        W42613  32.619   3.427  12.436
78846W        W42614  44.931  27.040   1.300
78847W        W42615  29.514  24.674   3.280
78848W        W42616  13.600  20.164  11.486
78849W        W42617  32.956  21.699  10.494
78850W        W42618  29.136   4.251   2.333
78851W        W42619  37.353   7.763   4.246
78852W        W42620  38.016  38.532   0.786
78853W        W42621  19.595   4.830  12.433
78854W        W42622  42.968   4.204   4.275
78855W        W42623   2.952   5.406  12.528
78856W        W42624  17.189  24.700  12.537
78857W        W42625  11.659   9.231   2.307
78858W        W42626  31.590  41.884   1.916
78859W        W42627   5.762   9.798   4.124
78860W        W42628   8.661  42.946   0.765
78861W        W42629  36.925  26.184  12.043
78862W        W42630   5.221  10.792  11.991
78863W        W42631   9.194  10.866   4.244
78864W        W42632  22.625   1.875   1.323
78865W        W42633  29.487  39.914   0.790
78866W        W42634  27.533  23.496  13.996
78867W        W42635  11.638  12.270  12.494
78868W        W42636  27.184  20.752  11.899
78869W        W42637  23.674  44.920   2.419
78870W        W42638  33.464  40.866  13.544
78871W        W42639   1.352  36.409  11.982
78872W        W42640  30.081   2.962   0.786
78873W        W42641  20.732  16.239  14.388
78874W        W42642  13.746  17.760  14.433
78875W        W42643  23.107  24.121   2.697
78876W        W42644  36.084  27.097   3.755
78877W        W42645   3.828  19.111   3.328
78878W        W42646  30.913  19.162  10.444
78879W        W42647  18.163  39.830   3.250
78880W        W42648  37.022  12.322  11.066
78881W        W42649  41.454  30.963   1.301
78882W        W42650  12.810   5.910  12.841
78883W        W42651  18.140  32.589   0.879
78884W        W42652  23.562  30.507  14.787
78885W        W42653  43.322   7.908   4.641
78886W        W42654  39.914  38.860  14.513
78887W        W42655  10.718  21.672  11.592
78888W        W42656  28.638  19.675   0.363
78889W        W42657   4.844  39.470  10.929
78890W        W42658  34.609   3.893   0.953
78891W        W42659  15.726  26.528  13.931
78892W        W42660  18.265  16.743  13.518
78893W        W42661  37.467  23.683  11.966
78894W        W42662  10.810  14.634   5.214
78895W        W42663  35.547   6.826  13.985
78896W        W42664  36.430  35.360   2.850
78897W        W42665  18.216   5.284  13.019
78898W        W42666  20.699  36.852  12.366
78899W        W42667  27.080  36.538  10.483
78900W        W42668   2.836  24.166  11.092
78901W        W42669  14.228  42.970   1.323
78902W        W42670  16.592  44.781  13.056
78903W        W42671  12.677  16.733  11.867
78904W        W42672  17.737  40.943  13.493
78905W        W42673  32.419  34.883   2.721
78906W        W42674  35.865  36.463  14.973
78907W        W42675  33.118  16.217  14.329
78908W        W42676  24.694  25.043  14.877
78909W        W42677  29.971   5.194  14.473
78910W        W42678  33.907  18.066  14.318
78911W        W42679  36.554  37.839  13.466
78912W        W42680   8.735  19.761  10.576
78913W        W42681   9.240  25.985  10.616
78914W        W42682  20.058  27.193   1.746
78915W        W42683  19.178  32.066   0.868
78916W        W42684  32.107  17.574  12.433
78917W        W42685  44.349  31.618   5.298
78918W        W42686   1.917  34.542   2.828
78919W        W42687  43.316  41.932   2.334
78920W        W42688   3.220   3.412   1.310
78921W        W42689  24.144   5.759   4.316
78922W        W42690  20.645   1.972  14.416
78923W        W42691  44.946   0.309   1.730
78924W        W42692   1.331  39.354   1.229
78925W        W42693  37.546  24.023  11.082
78926W        W42694  12.245  38.519  14.854
78927W        W42695  16.746  32.553   2.767
78928W        W42696  28.563   6.782  13.481
78929W        W42697  17.168   8.326  13.908
78930W        W42698  27.108  37.901   0.915
78931W        W42699   8.305  10.681  13.825
78932W        W42700  13.689  18.247  14.942
78933W        W42701  43.290  17.717   2.664
78934W        W42702  44.962  36.935   0.958
78935W        W42703  12.622  21.512   2.810
78936W        W42704   9.840  11.804  12.340
78937W        W42705  14.150  13.251   1.313
78938W        W42706   1.447  28.680  11.482
78939W        W42707  33.465  40.397  10.617
78940W        W42708   1.816  43.492   1.400
78941W        W42709  38.440  44.375   1.450
78942W        W42710  35.925  35.547  13.024
78943W        W42711  43.919  10.695   2.411
78944W        W42712  30.459  15.778  12.369
78945W        W42713   0.393  11.755  12.971
78946W        W42714   4.801   4.249   4.179
78947W        W42715  10.150  24.129  10.435
78948W        W42716  43.421  41.441   4.219
78949W        W42717  26.693  39.996   0.397
78950W        W42718  37.029  18.068   1.886
78951W        W42719  25.525  25.190  10.544
78952W        W42720   8.799   0.390  11.099
78953W        W42721  11.349  16.261  10.502
78954W        W42722  28.018  28.124  10.932
78955W        W42723   0.278   2.941  13.810
78956W        W42724  30.630  12.743  11.045
78957W        W42725  22.037  11.306  13.812
78958W        W42726  10.269   9.208   0.935
78959W        W42727  28.609  13.346   0.788
78960W        W42728  32.456  13.732   0.852
78961W        W42729  15.755   3.860  13.991
78962W        W42730  25.992   8.336   1.313
78963W        W42731   4.308  10.198  14.444
78964W        W42732  40.850   8.680  14.396
78965W        W42733  11.801  30.923   3.681
78966W        W42734  12.226   6.240   1.294
78967W        W42735  13.608  16.641   2.836
78968W        W42736  44.331  37.468   4.668
78969W        W42737   9.368  42.927  14.510
78970W        W42738  12.283  34.092   1.388
78971W        W42739  17.678  35.595   4.301
78972W        W42740  19.131   4.230   1.264
78973W        W42741  44.450   3.361   3.720
78974W        W42742  44.448   9.850   9.919
78975W        W42743  34.380   7.716   2.862
78976W        W42744   1.829   7.862   2.869
78977W        W42745  27.587  39.997  13.503
78978W        W42746  15.193  22.137   4.150
78979W        W42747  28.170  29.031  12.021
78980W        W42748   4.743  43.301   0.324
78981W        W42749   7.715  23.066  10.416
78982W        W42750  12.722  32.117  14.000
78983W        W42751  30.486  30.584  14.392
78984W        W42752   1.894  23.191   3.692
78985W        W42753  42.027   9.662  14.436
78986W        W42754  30.433  14.824   1.823
78987W        W42755  11.783  32.455  12.887
78988W        W42756  29.508   6.744  11.042
78989W        W42757  29.952   7.180   2.362
78990W        W42758  27.947  14.728  14.947
78991W        W42759  18.167  19.689  10.413
78992W        W42760  25.628  26.001   3.654
78993W        W42761  20.600  26.064  11.909
78994W        W42762  32.558  39.352  10.522
78995W        W42763  31.085  37.416  10.097
78996W        W42764  12.615  17.788   0.474
78997W        W42765   2.294  10.762   3.634
78998W        W42766  11.673  44.450  10.513
78999W        W42767   2.257  21.512  13.918
79000W        W42768  28.471  14.335   0.879
79001W        W42769  42.482  30.127  11.511
79002W        W42770  33.881  15.821  10.554
79003W        W42771   1.945  22.657   1.370
79004W        W42772   8.189  15.287  10.531
79005W        W42773  22.613  26.124  11.424
79006W        W42774  28.959   7.813   4.727
79007W        W42775  16.138  41.990  13.998
79008W        W42776  13.837  18.598  14.832
79009W        W42777  32.901  29.986  11.101
79010W        W42778   5.751  21.196  12.906
79011W        W42779   6.731  18.633   0.828
79012W        W42780  40.837   4.404  14.323
79013W        W42781  43.858  31.523   0.418
79014W        W42782  24.163  19.729   2.805
79015W        W42783  33.401  20.099  14.428
79016W        W42784   5.269   4.232   1.849
79017W        W42785  14.781  28.672   0.424
79018W        W42786  11.702  13.228   4.231
79019W        W42787   0.307  33.480   3.853
79020W        W42788  42.348  10.799  14.839
79021W        W42789   0.795  20.747  13.511
79022W        W42790  43.998  24.081  11.002
79023W        W42791  39.015  17.198   2.687
79024W        W42792   8.856   7.196  12.556
79025W        W42793  41.812   0.755   0.392
79026W        W42794  31.627  15.632   2.187
79027W        W42795  38.821   3.846   4.730
79028W        W42796  15.304   8.810  12.567
79029W        W42797  31.124   8.723  10.516
79030W        W42798  13.107  10.713  12.415
79031W        W42799   4.225   3.783   1.346
79032W        W42800  38.911   3.405   2.664
79033W        W42801  42.882  13.759  13.438
79034W        W42802   9.153  25.018  10.615
79035W        W42803  32.915  27.131  12.919
79036W        W42804  18.154  34.943   1.395
79037W        W42805  33.002  40.534  11.075
79038W        W42806  33.948   6.690   4.624
79039W        W42807  39.382  23.044   3.311
79040W        W42808  40.412   6.911   9.946
79041W        W42809   0.771  34.048  10.509
79042W        W42810  27.117  20.214   3.302
79043W        W42811  22.173  43.982   4.274
79044W        W42812  21.096  12.840   1.357
79045W        W42813   8.877  17.770  13.061
79046W        W42814   6.794   0.974   2.377
79047W        W42815  37.847  14.762   0.908
79048W        W42816  30.961  13.622   0.917
79049W        W42817  24.179  43.375  13.396
79050W        W42818  24.598   5.264  14.405
79051W        W42819  21.655  32.133   2.762
79052W        W42820  29.612  12.767  13.380
79053W        W42821  12.154  39.830  13.514
79054W        W42822   3.846  35.859  11.968
79055W        W42823  22.537  34.395   4.211
79056W        W42824  29.134  36.466   3.338
79057W        W42825   6.371  23.526  10.035
79058W        W42826   3.268  15.646  14.392
79059W        W42827  34.025  36.927   1.703
79060W        W42828  42.981  13.267  13.370
79061W        W42829  40.543  35.086  13.469
79062W        W42830  36.586   0.328   2.283
79063W        W42831  12.127  31.566  12.956
79064W        W42832   4.230  37.919  11.540
79065W        W42833  43.457  24.706   3.767
79066W        W42834   8.802  12.758  11.481
79067W        W42835  43.875  38.885  12.843
79068W        W42836  21.609  28.650  13.357
79069W        W42837  43.483  17.096  13.862
79070W        W42838  20.272   8.195   2.304
79071W        W42839  20.683  26.121  13.926
79072W        W42840  19.089   5.756   2.405
79073W        W42841  30.923   8.266   4.143
79074W        W42842  36.372  10.830  12.883
79075W        W42843  26.520   1.405  11.523
79076W        W42844  26.112  23.495  14.907
79077W        W42845  24.614  25.055  12.894
79078W        W42846  25.664  32.021  12.877
79079W        W42847  26.582  25.080  10.011
79080W        W42848  40.852  32.525   4.179
79081W        W42849  24.031   6.781  14.797
79082W        W42850  32.491  14.606   2.354
79083W        W42851  19.700  42.295   1.237
79084W        W42852  23.039  38.072   2.902
79085W        W42853  16.628  37.581   0.386
79086W        W42854   1.871  20.270  14.285
79087W        W42855   5.245   0.331  11.917
79088W        W42856  31.116   0.787  12.372
79089W        W42857  30.457  32.484   0.459
79090W        W42858   1.243   3.304  11.948
79091W        W42859  34.599   4.838  12.047
79092W        W42860  20.618  37.538  10.905
79093W        W42861  30.432  35.991  13.872
79094W        W42862  10.675  29.020  11.403
79095W        W42863  16.209  17.795  11.906
79096W        W42864  31.629  31.432   4.199
79097W        W42865  16.706   2.810   2.414
79098W        W42866  15.697  18.719  14.485
79099W        W42867  26.582  40.363   3.726
79100W        W42868  44.782  34.555   2.879
79101W        W42869  28.033  25.595   0.863
79102W        W42870  24.661  31.453  12.949
79103W        W42871   4.364  41.006  13.437
79104W        W42872  30.947  35.532   4.600
79105W        W42873   5.903  25.524   0.262
79106W        W42874  15.769  41.374  14.965
79107W        W42875  30.023  15.580   3.744
79108W        W42876  38.826  39.461   0.396
79109W        W42877  14.663  11.650   4.265
79110W        W42878  32.600  38.325   2.257
79111W        W42879  24.067  40.023  12.921
79112W        W42880  37.928   3.893   4.703
79113W        W42881   5.431  36.369  10.939
79114W        W42882  37.411  20.227  13.913
79115W        W42883  19.678  11.371  14.307
79116W        W42884  38.549  24.185  12.426
79117W        W42885  42.868   8.192  14.029
79118W        W42886   1.898  32.932  14.279
79119W        W42887  35.020   8.679  13.487
79120W        W42888  35.590  17.798  14.791
79121W        W42889  28.489  33.935  12.958
79122W        W42890  33.093  19.195   9.593
79123W        W42891  40.933  20.083  11.513
79124W        W42892  33.068  24.062   3.842
79125W        W42893  33.567   2.817  13.978
79126W        W42894  40.042  16.621   2.295
79127W        W42895  18.157   9.669   1.266
79128W        W42896  21.213  14.655   0.291
79129W        W42897  21.258  18.221   2.352
79130W        W42898  11.746  44.285  13.529
79131W        W42899  12.316  11.312  11.542
79132W        W42900  42.008   8.753   0.461
79133W        W42901  41.337   6.888   2.849
79134W        W42902  33.425  14.196  10.103
79135W        W42903  31.415  14.751   5.786
79136W        W42904  19.159  39.009   1.713
79137W        W42905  38.559  18.608   4.245
79138W        W42906   5.221  19.711  12.340
79139W        W42907  22.135  43.858  14.435
79140W        W42908   2.342  25.009  13.484
79141W        W42909   0.897  38.000  12.924
79142W        W42910   5.436  16.242   0.795
79143W        W42911  19.571  28.681  13.888
79144W        W42912   0.278   2.366   0.408
79145W        W42913  11.206   9.323   3.229
79146W        W42914  28.590  37.391  12.562
79147W        W42915   3.425  14.181   3.672
79148W        W42916  22.021  32.568  13.307
79149W        W42917   5.927  16.702  13.809
79150W        W42918  41.342  20.583  12.001
79151W        W42919  35.046  34.405  12.094
79152W        W42920  40.347  13.657  14.914
79153W        W42921  14.708  31.137   4.745
79154W        W42922  35.547  23.557   3.295
79155W        W42923   7.833   3.290  13.944
79156W        W42924  13.124  39.864  10.636
79157W        W42925  42.425  10.796   3.313
79158W        W42926  17.604  34.470   0.385
79159W        W42927  16.800   5.400   1.696
79160W        W42928   0.910  29.072  11.407
79161W        W42929  12.124  29.940   3.781
79162W        W42930   8.348  10.769   4.254
79163W        W42931  25.596  26.573   4.292
79164W        W42932  14.589   2.413   2.744
79165W        W42933  40.392   9.374   4.690
79166W        W42934  28.014  16.809  13.963
79167W        W42935   8.207  42.501   4.118
79168W        W42936  21.716  36.383   4.237
79169W        W42937   6.381  42.916  13.432
79170W        W42938  18.137  36.079  12.080
79171W        W42939  18.747  29.034  14.314
79172W        W42940   3.781  24.124   3.728
79173W        W42941  33.130   6.708  11.414
79174W        W42942  30.620  44.488   3.301
79175W        W42943  38.460  32.636  13.990
79176W        W42944  37.548   5.422  11.016
79177W        W42945  33.583  12.842  10.427
79178W        W42946   4.287  17.281   1.797
79179W        W42947  22.551  38.863  12.871
79180W        W42948  41.809   7.365   4.798
79181W        W42949  43.313   0.773   3.277
79182W        W42950  39.358  12.118  13.045
79183W        W42951  22.040   3.938  13.015
79184W        W42952   8.688  42.922   2.272
79185W        W42953   5.747  27.981   3.794
79186W        W42954   8.399  44.321  10.504
79187W        W42955   8.230  29.516   4.311
79188W        W42956  17.183   7.213  11.963
79189W        W42957  35.040  15.317   3.762
79190W        W42958  38.002  31.430   0.736
79191W        W42959  20.117  35.004  12.888
79192W        W42960  20.703  37.563  11.411
79193W        W42961  16.583  43.512   2.744
79194W        W42962  37.951  39.361  14.446
79195W        W42963  18.146  25.126   2.661
79196W        W42964  24.646   2.816  11.419
79197W        W42965  17.675  34.006  11.029
79198W        W42966  21.638  32.423   3.745
79199W        W42967  15.281   5.196   0.891
79200W        W42968   1.348   8.864  11.004
79201W        W42969  33.880  41.986   4.156
79202W        W42970  16.720  43.777  12.462
79203W        W42971  36.017  43.280   1.749
79204W        W42972  44.262  33.579  11.375
79205W        W42973  13.227  13.279  13.474
79206W        W42974   9.852  37.982  10.945
79207W        W42975  14.193  31.994   0.945
79208W        W42976  18.758  15.221  14.301
79209W        W42977  29.509  30.605  12.538
79210W        W42978   3.240  35.950   2.742
79211W        W42979   0.404  22.723  10.568
79212W        W42980  15.115  23.630   1.445
79213W        W42981  35.920  29.619   2.873
79214W        W42982  35.407   1.820  12.478
79215W        W42983   1.865   2.839  13.390
79216W        W42984  15.585  15.229  10.160
79217W        W42985  26.116  39.370  12.507
79218W        W42986  16.223  11.338   1.715
79219W        W42987   2.727  25.711   3.658
79220W        W42988  30.064  21.724   0.370
79221W        W42989  26.624   2.231   4.147
79222W        W42990  42.025  38.535  12.885
79223W        W42991  28.977  15.815   4.670
79224W        W42992   5.318  19.192   2.252
79225W        W42993   5.875   8.790  12.527
79226W        W42994  33.934  10.378  11.585
79227W        W42995  10.764  27.011   3.214
79228W        W42996  39.523  24.702   0.888
79229W        W42997  10.731  26.605   2.387
79230W        W42998  33.620  38.380  13.458
79231W        W42999  12.702  39.378  13.833
79232W        W43000  17.270   4.409  11.963
79233W        W43001  31.464  22.706  10.419
79234W        W43002  41.336  22.550   3.330
79235W        W43003  31.546  18.591  13.850
79236W        W43004  40.872  40.029   2.847
79237W        W43005   3.345   0.853  12.525
79238W        W43006  20.706  29.599  11.537
79239W        W43007   9.832  17.189   4.755
79240W        W43008  19.662  43.438   1.374
79241W        W43009  31.509  21.592   0.423
79242W        W43010  14.766   4.297   2.398
79243W        W43011   6.864  21.055   1.237
79244W        W43012  12.624  35.018   4.685
79245W        W43013   6.863  23.096   2.739
79246W        W43014  35.373   7.764  13.953
79247W        W43015  20.552  12.803   2.760
79248W        W43016  12.185   0.879  12.899
79249W        W43017  34.879   9.232  12.421
79250W        W43018  30.121  38.510   4.202
79251W        W43019   7.905  29.481   0.922
79252W        W43020   2.300   5.834   1.413
79253W        W43021   2.899  31.002  12.008
79254W        W43022   5.415  36.046  13.420
79255W        W43023   8.858  22.720  12.004
79256W        W43024  42.419  21.150   0.349
79257W        W43025  40.421  22.514  11.540
79258W        W43026  39.919  35.989   2.373
79259W        W43027   6.240  26.136  12.539
79260W        W43028  44.833  37.387   3.256
79261W        W43029  25.474   7.304   2.184
79262W        W43030  24.479  10.292   3.242
79263W        W43031  21.576  35.002   2.674
79264W        W43032  28.620  40.339  12.376
79265W        W43033  34.102  29.129   4.143
79266W        W43034  21.191  23.170  13.357
79267W        W43035  31.459  22.249   4.176
79268W        W43036  40.446  41.028  10.490
79269W        W43037  18.293  23.226   5.124
79270W        W43038  29.670  11.366   0.323
79271W        W43039  23.541  42.997   0.929
79272W        W43040  33.021  24.655  13.009
79273W        W43041  40.961  17.079  13.391
79274W        W43042  23.665  23.057   2.828
79275W        W43043   6.723   3.768   4.339
79276W        W43044  38.995  15.083   4.253
79277W        W43045  13.838  23.150   2.886
79278W        W43046  32.110   1.328  13.064
79279W        W43047  31.498  36.009   0.428
79280W        W43048  10.184  44.294  10.423
79281W        W43049  20.564  30.450   2.669
79282W        W43050  34.476  18.761  12.529
79283W        W43051  31.432  44.456   4.268
79284W        W43052  15.600  11.372   0.875
79285W        W43053  32.597  18.555  13.919
79286W        W43054  37.865  19.754  12.549
79287W        W43055  23.197   1.907  12.493
79288W        W43056   5.295   6.825  12.088
79289W        W43057  34.069   7.319  14.430
79290W        W43058  21.631  29.941  11.522
79291W        W43059  29.991  39.503   4.638
79292W        W43060  18.084  30.986  12.413
79293W        W43061  38.887   9.664  11.507
79294W        W43062  13.685  19.120   4.723
79295W        W43063  44.448   4.212   1.354
79296W        W43064  33.955  30.098   4.808
79297W        W43065  21.567  32.043   1.746
79298W        W43066  34.960   6.387  11.444
79299W        W43067  22.652  23.643   1.448
79300W        W43068  31.615  24.649  13.935
79301W        W43069   8.818  15.219  13.534
79302W        W43070   2.337  34.459   5.617
79303W        W43071  37.393  42.850   0.292
79304W        W43072  22.680  32.031   5.186
79305W        W43073  19.659   0.408   4.835
79306W        W43074  38.836   5.878  11.417
79307W        W43075   4.248  15.188   4.781
79308W        W43076  23.613  22.167   1.273
79309W        W43077  18.236   4.439  12.919
79310W        W43078  17.154  20.257   1.868
79311W        W43079  18.583   1.317   1.894
79312W        W43080   0.256  32.138  11.032
79313W        W43081  12.852  39.042   2.279
79314W        W43082  16.775  30.986   9.960
79315W        W43083  23.076  11.217  14.482
79316W        W43084  12.701  23.140   0.266
79317W        W43085  42.447  22.246  12.896
79318W        W43086   6.333  44.944  13.973
79319W        W43087   7.417   7.730  12.469
79320W        W43088  13.258  11.827   1.227
79321W        W43089  31.638  13.156   2.383
79322W        W43090  24.991  42.332  14.891
79323W        W43091   2.285  11.144  12.571
79324W        W43092  15.230  23.655  14.028
79325W        W43093  20.699  16.680   0.481
79326W        W43094  39.484  44.851   3.371
79327W        W43095  40.364  34.381  12.862
79328W        W43096   8.213  12.648   3.809
79329W        W43097  13.325   7.328   3.210
79330W        W43098  27.039   8.294   1.402
79331W        W43099  43.905  30.952  13.797
79332W        W43100  34.582  42.448   4.176
79333W        W43101  28.492  12.328   3.632
79334W        W43102  23.555  11.346  12.486
79335W        W43103   1.473  41.369  10.459
79336W        W43104  31.482  34.384   3.153
79337W        W43105  35.586  28.502  12.881
79338W        W43106  24.166  13.322  13.898
79339W        W43107   5.325   2.916  11.538
79340W        W43108  27.967  33.497  12.926
79341W        W43109  31.100  35.422  13.919
79342W        W43110  39.545   2.409  10.900
79343W        W43111  44.767  11.791  10.464
79344W        W43112  31.444  22.590  11.599
79345W        W43113  17.061  11.807  11.925
79346W        W43114   4.404  16.318  10.634
79347W        W43115   9.702   8.296  11.405
79348W        W43116  26.600   3.393  13.995
79349W        W43117  30.540  42.836  14.441
79350W        W43118  29.084  30.527   1.226
79351W        W43119  21.554  39.438   4.659
79352W        W43120  19.733  23.102  12.552
79353W        W43121  38.928   0.283   1.423
79354W        W43122  12.162   2.758   1.396
79355W        W43123   9.807  18.597  12.427
79356W        W43124  43.973  24.498   0.467
79357W        W43125  22.558  24.020  11.567
79358W        W43126  37.407  38.337   4.151
79359W        W43127  13.160  42.783   3.797
79360W        W43128  35.410  14.099   3.837
79361W        W43129  25.110  24.978  14.008
79362W        W43130  26.201  21.718   2.841
79363W        W43131  23.575  11.152  14.982
79364W        W43132  35.521   2.358  14.012
79365W        W43133   6.353  24.142  14.276
79366W        W43134   7.360  10.671   1.424
79367W        W43135  40.419  31.405   2.369
79368W        W43136  12.617   4.925   4.295
79369W        W43137  25.094   5.282  13.820
79370W        W43138   4.314  11.312  10.437
79371W        W43139  37.557   3.358  10.551
79372W        W43140  34.055  42.927   2.413
79373W        W43141  13.841  30.964  11.907
79374W        W43142  43.934  20.234   4.354
79375W        W43143   8.813  10.877  14.495
79376W        W43144  18.156  26.018  14.324
79377W        W43145  20.694  13.106  14.939
79378W        W43146  26.577  23.561   2.729
79379W        W43147  18.781  10.726   3.303
79380W        W43148  36.004  41.538   3.197
79381W        W43149   7.755  32.932   0.379
79382W        W43150  14.684   2.740   2.718
79383W        W43151   9.703  15.617   3.763
79384W        W43152  37.943  23.506   4.659
79385W        W43153  16.679   0.931  11.426
79386W        W43154   7.691  38.997   4.152
79387W        W43155  17.640  23.712  13.411
79388W        W43156  21.166  22.672   0.860
79389W        W43157  24.224   7.730  12.956
79390W        W43158  34.497  28.172  11.577
79391W        W43159   2.427   1.482   1.772
79392W        W43160  25.001  41.814  12.835
79393W        W43161  16.615  32.518  10.008
79394W        W43162  23.013  10.266   0.816
79395W        W43163  32.013   6.356   0.847
79396W        W43164   1.742   1.409  13.822
79397W        W43165  23.098   7.409  11.424
79398W        W43166  27.604  21.747  11.015
79399W        W43167  34.878   0.274   3.686
79400W        W43168  32.966  13.846   4.190
79401W        W43169  33.099  38.958   0.819
79402W        W43170  30.646   7.183   0.927
79403W        W43171  39.047  38.045  12.544
79404W        W43172   6.681   7.339   1.719
79405W        W43173  35.933  35.368   3.834
79406W        W43174  14.332   3.880   3.171
79407W        W43175  10.272   6.338   3.764
79408W        W43176  26.628  23.112  12.839
79409W        W43177  15.797  26.586   0.406
79410W        W43178  44.966  28.538   4.154
79411W        W43179  33.084  39.968   1.401
79412W        W43180  26.548  25.984  12.084
79413W        W43181   0.836  13.262   0.309
79414W        W43182  43.891  39.850   2.696
79415W        W43183  17.762  28.591  13.945
79416W        W43184  30.537  26.149  14.506
79417W        W43185   1.250  14.758  14.332
79418W        W43186  23.520   8.164  14.921
79419W        W43187  19.249  23.232  10.948
79420W        W43188  21.064  13.771  14.873
79421W        W43189  31.905  27.665  13.501
79422W        W43190  12.184  17.797   4.122
79423W        W43191  42.794  17.133   4.599
79424W        W43192   3.269  14.097  14.959
79425W        W43193  36.528  24.039   0.757
79426W        W43194  32.493  40.472   3.871
79427W        W43195   2.726   9.752  11.543
79428W        W43196  20.629  11.319   0.245
79429W        W43197  40.319  33.510   0.413
79430W        W43198  41.802  38.356  10.434
79431W        W43199   0.966  11.356   1.274
79432W        W43200  37.574  34.457  14.493
79433W        W43201  43.309  44.439  11.118
79434W        W43202   6.902  36.550   1.887
79435W        W43203  25.573  15.658   3.677
79436W        W43204   2.461  34.943   2.180
79437W        W43205  42.942  12.645   3.846
79438W        W43206   1.763   1.970   4.714
79439W        W43207  25.608  17.093  12.871
79440W        W43208  12.744   4.794  12.904
79441W        W43209  34.524  18.143  10.100
79442W        W43210   7.415   1.444   2.325
79443W        W43211   2.775  41.789   4.118
79444W        W43212  34.066  38.871  11.996
79445W        W43213  13.845  17.263  14.948
79446W        W43214  13.272  14.194   1.845
79447W        W43215  44.860  38.383  13.451
79448W        W43216  38.068  19.650  14.321
79449W        W43217  28.109  36.420  10.001
79450W        W43218  23.997   0.892   4.221
79451W        W43219  23.009  41.514   4.280
79452W        W43220  41.037  31.589  12.090
79453W        W43221   1.774   1.954  14.020
79454W        W43222  23.132  24.646  12.847
79455W        W43223  25.971   9.228   0.845
79456W        W43224  14.623  41.851   2.859
79457W        W43225  42.383  39.019  10.476
79458W        W43226  32.024  43.019   0.475
79459W        W43227  16.288  21.080   1.743
79460W        W43228  43.849   5.904   1.264
79461W        W43229   3.391   2.450   3.678
79462W        W43230  41.912   1.317   3.273
79463W        W43231   2.807   5.812  12.445
79464W        W43232  39.320  28.023  13.842
79465W        W43233  37.937  26.004  11.511
79466W        W43234  23.515  39.327   1.884
79467W        W43235  43.800  22.718   4.350
79468W        W43236  12.157  18.613   4.205
79469W        W43237  26.077  35.567   4.252
79470W        W43238  32.431  32.987   3.730
79471W        W43239   7.866  22.243  11.547
79472W        W43240  19.651  35.366  12.571
79473W        W43241  19.065  11.803   3.309
79474W        W43242  32.118  21.091  11.460
79475W        W43243  31.444  25.606   4.255
79476W        W43244  20.693   8.706  14.851
79477W        W43245  17.172  29.158   0.948
79478W        W43246  26.056   6.745   4.760
79479W        W43247  13.300  35.562   0.293
79480W        W43248  25.150  31.110   2.807
79481W        W43249  29.056   6.807  10.449
79482W        W43250  30.469  43.361  12.486
79483W        W43251   3.836   2.727   4.149
79484W        W43252  11.690  20.216   1.335
79485W        W43253  16.303  12.800   1.408
79486W        W43254  19.210  28.508   1.759
79487W        W43255  24.505  35.500   4.289
79488W        W43256  30.467  14.822   2.835
79489W        W43257  38.528  23.126  11.561
79490W        W43258  27.069  38.340   2.331
79491W        W43259  28.608  34.937   4.754
79492W        W43260  40.017  42.813  14.824
79493W        W43261  33.947   6.370   2.286
79494W        W43262   4.902   2.240  11.965
79495W        W43263  35.940  26.991   1.837
79496W        W43264  38.542  30.646  13.374
79497W        W43265  31.546  20.629  11.046
79498W        W43266   8.273  17.659  10.454
79499W        W43267  27.692  39.485   3.849
79500W        W43268  26.063  11.282   4.249
79501W        W43269  22.588  23.026  12.516
79502W        W43270  21.587   8.200   3.307
79503W        W43271  13.150  13.227  11.447
79504W        W43272   2.752  18.192  11.897
79505W        W43273   3.716   1.370   4.266
79506W        W43274  31.561   4.241   0.905
79507W        W43275   7.813  14.725   3.643
79508W        W43276  41.320  27.613  13.019
79509W        W43277  39.003  30.656  14.925
79510W        W43278  21.629  14.227  12.041
79511W        W43279  36.491   9.810  12.921
79512W        W43280  27.558  34.070   1.246
79513W        W43281  33.498  42.493   0.765
79514W        W43282  19.601  18.177   4.278
79515W        W43283   6.222  35.853  12.063
79516W        W43284   6.852   0.909  14.952
79517W        W43285  28.184  36.892  11.588
79518W        W43286   7.314  11.163  14.412
79519W        W43287  17.695   5.401   0.796
79520W        W43288  39.470  38.516   2.189
79521W        W43289  44.002  44.455  13.486
79522W        W43290  12.179   7.773   1.887
79523W        W43291  27.062  15.640   3.292
79524W        W43292  11.177   8.214   2.324
79525W        W43293  24.055  22.680   4.812
79526W        W43294  34.049   1.419  11.439
79527W        W43295  38.927  23.554   0.476
79528W        W43296   1.777  31.530  12.456
79529W        W43297  29.159  18.201  11.910
79530W        W43298  16.182  44.768   4.612
79531W        W43299  13.689  12.291  14.864
79532W        W43300  28.987  31.926  11.518
79533W        W43301  15.186  28.951   3.295
79534W        W43302  18.211   4.346  11.416
79535W        W43303  29.965  33.485  13.823
79536W        W43304   6.265  20.571  11.098
79537W        W43305  10.162  36.033   3.688
79538W        W43306  28.585   2.411   2.409
79539W        W43307  19.079  26.500  12.941
79540W        W43308  32.994  37.978   0.282
79541W        W43309  44.457  11.312   2.666
79542W        W43310   7.189  26.517  12.928
79543W        W43311  32.056  26.011   1.249
79544W        W43312  14.296  28.484   4.202
79545W        W43313  24.097   3.247  14.354
79546W        W43314  25.964  25.028   1.715
79547W        W43315  17.700  24.492   0.255
79548W        W43316  19.219   0.301   1.252
79549W        W43317   1.468  18.607  14.865
79550W        W43318  38.546  25.131  12.384
79551W        W43319  23.015   2.330   3.644
79552W        W43320  28.561  34.415   3.258
79553W        W43321  36.382  19.755   5.235
79554W        W43322  27.647   7.366  13.956
79555W        W43323   7.852  10.820  10.939
79556W        W43324  25.135  40.827   1.864
79557W        W43325   2.831  10.666  10.636
79558W        W43326  43.345   2.293   3.707
79559W        W43327  18.214   7.344   1.343
79560W        W43328  10.663  34.549   2.699
79561W        W43329  30.540  23.999  13.925
79562W        W43330  10.177  32.951   3.708
79563W        W43331   7.851   6.764   0.893
79564W        W43332   4.218   0.757  14.983
79565W        W43333  35.363  15.264  13.970
79566W        W43334  25.689  39.532  12.082
79567W        W43335  12.227   7.740  14.985
79568W        W43336  35.906  38.056   2.802
79569W        W43337  18.558  24.165  12.376
79570W        W43338  11.280  27.625   3.192
79571W        W43339  29.169  43.883  14.919
79572W        W43340  16.200  28.521   4.825
79573W        W43341  21.187   2.343   0.384
79574W        W43342  21.029   6.813  11.491
79575W        W43343  26.151  10.274  14.815
79576W        W43344   8.668  10.198  13.981
79577W        W43345  42.298  10.145   4.640
79578W        W43346  10.726   2.915  13.896
79579W        W43347   9.670   0.281   3.844
79580W        W43348   5.863  43.333   0.244
79581W        W43349   7.385   4.888   0.383
79582W        W43350  43.381  30.149  12.970
79583W        W43351  23.723  13.303   2.383
79584W        W43352  35.420  34.101   4.666
79585W        W43353  20.658  21.029   1.821
79586W        W43354  26.961  16.275  14.929
79587W        W43355  43.996  38.494   1.400
79588W        W43356  23.154  35.370   9.524
79589W        W43357   1.310  27.159   4.265
79590W        W43358   0.824  28.132  12.028
79591W        W43359  23.501  24.520  10.900
79592W        W43360  28.643  25.544  12.970
79593W        W43361  22.179  10.252   1.904
79594W        W43362  10.197  34.417   0.421
79595W        W43363  44.868  31.480  10.939
79596W        W43364  31.561  38.545  13.845
79597W        W43365  20.260  40.519   5.179
79598W        W43366  38.834  44.806  12.941
79599W        W43367  28.965  13.213   4.151
79600W        W43368  24.707  22.166   3.820
79601W        W43369  25.151  44.344  11.549
79602W        W43370  17.600  16.639   3.866
79603W        W43371  43.979  17.668  13.054
79604W        W43372  31.985   6.421   1.853
79605W        W43373  31.405  44.404  10.986
79606W        W43374  23.578  19.093   2.678
79607W        W43375  24.003  19.603  10.603
79608W        W43376  32.416  10.230   4.730
79609W        W43377  17.568  31.106  14.870
79610W        W43378  18.252  40.340   3.693
79611W        W43379   4.914  26.065   4.655
79612W        W43380  34.955   9.888  13.847
79613W        W43381   7.687  26.188   0.284
79614W        W43382   8.311  36.355   0.457
79615W        W43383   1.955   6.713  13.395
79616W        W43384  25.700  37.564   4.172
79617W        W43385  15.632  44.444   1.310
79618W        W43386  36.519  22.703  10.492
79619W        W43387  19.104   7.873   4.668
79620W        W43388   6.367  38.343  13.898
79621W        W43389  42.321  42.480  13.872
79622W        W43390   9.874  25.702   4.673
79623W        W43391  26.073  12.667   2.889
79624W        W43392  18.787  34.882  11.906
79625W        W43393  31.455  36.871   3.740
79626W        W43394   0.924  22.585   0.801
79627W        W43395  15.798  26.660  14.297
79628W        W43396  12.141  27.689   4.195
79629W        W43397   9.178  28.970  12.481
79630W        W43398  36.897  40.492   3.155
79631W        W43399  37.457  28.582  10.950
79632W        W43400  23.655  11.135   3.271
79633W        W43401  39.055   9.196   1.872
79634W        W43402   5.735  10.839  13.487
79635W        W43403  29.085  39.501  10.642
79636W        W43404  44.342   4.704   1.891
79637W        W43405  34.488  43.282   2.784
79638W        W43406   3.332  11.814   3.642
79639W        W43407  38.824  33.623  11.889
79640W        W43408  24.994  25.618  13.999
79641W        W43409  32.460  11.130   4.118
79642W        W43410  36.895  20.633  11.597
79643W        W43411  28.642   5.302   4.768
79644W        W43412   4.251  28.609   0.299
79645W        W43413  24.143  27.578  12.379
79646W        W43414   5.365  37.898  14.910
79647W        W43415  19.074   9.306   0.872
79648W        W43416  28.563  29.530   0.452
79649W        W43417  28.950  42.994  10.474
79650W        W43418  10.801  43.772   2.751
79651W        W43419  33.541  36.931   4.762
79652W        W43420  31.495   1.310   0.883
79653W        W43421  23.042  23.070  14.845
79654W        W43422  34.379  20.240   2.225
79655W        W43423   5.883   1.743  12.345
79656W        W43424  22.580   6.302   2.714
79657W        W43425  43.473  23.058   4.296
79658W        W43426  34.506  43.339  12.397
79659W        W43427  25.604  16.263  12.379
79660W        W43428  30.030  41.869  11.484
79661W        W43429  23.718  25.709   2.261
79662W        W43430  40.512  26.670   4.647
79663W        W43431  24.115  21.135  10.520
79664W        W43432  28.031  17.760  14.985
79665W        W43433   2.312  27.957  14.282
79666W        W43434  27.683  27.508  14.806
79667W        W43435  44.325   4.824  12.057
79668W        W43436  34.080  30.415  13.403
79669W        W43437  25.692  29.935  14.337
79670W        W43438  44.309   3.235  13.472
79671W        W43439   5.862  20.766   3.733
79672W        W43440  24.176  29.135  12.848
79673W        W43441  15.733  16.198  13.887
79674W        W43442  27.610   2.783  13.900
79675W        W43443   8.784  11.814   4.301
79676W        W43444  20.581  36.462   1.412
79677W        W43445  18.157  15.626  11.906
79678W        W43446   9.256  21.544  13.520
79679W        W43447  34.541  12.769   0.866
79680W        W43448   7.759   8.687   0.943
79681W        W43449  21.204  17.781   2.786
79682W        W43450  36.417  19.043  12.936
79683W        W43451  24.488  42.781   0.439
79684W        W43452  44.419   5.433   4.130
79685W        W43453   8.809  28.582   1.828
79686W        W43454  26.667  40.547   0.257
79687W        W43455  29.146  20.074  14.415
79688W        W43456   1.758  25.035  13.798
79689W        W43457   6.707  30.107  10.606
79690W        W43458   3.770  36.580   4.121
79691W        W43459  23.089  32.010  13.362
79692W        W43460  30.979  19.135  14.378
79693W        W43461  39.935  15.148  12.355
79694W        W43462  28.135  41.393  11.978
79695W        W43463  29.555   8.377   3.198
79696W        W43464  27.133  28.625   1.798
79697W        W43465  36.442   5.214  11.069
79698W        W43466  41.331  12.795   2.387
79699W        W43467  16.636   9.746   3.173
79700W        W43468   6.742  43.795   1.804
79701W        W43469   1.261  31.933  12.967
79702W        W43470  29.449  36.956   3.775
79703W        W43471   7.249  35.509   4.192
79704W        W43472   1.814  18.215  11.931
79705W        W43473   8.174  28.136  11.582
79706W        W43474  36.999  17.744  11.105
79707W        W43475  35.979  32.597   4.326
79708W        W43476  41.321   1.743   0.730
79709W        W43477  38.569  18.667  14.326
79710W        W43478  36.514  33.931   4.719
79711W        W43479  44.896  19.106   1.930
79712W        W43480  11.722  27.524  11.974
79713W        W43481  39.954  41.791  12.947
79714W        W43482  40.831  26.133   2.358
79715W        W43483  34.609  42.404   1.381
79716W        W43484   8.279   1.799  11.409
79717W        W43485  24.644  17.688   1.345
79718W        W43486  26.634  34.912   1.908
79719W        W43487  17.588   2.917  10.421
79720W        W43488  22.082   1.773   4.713
79721W        W43489  21.703  10.863   3.287
79722W        W43490  44.866  28.562  14.991
79723W        W43491  42.022  22.740   2.670
79724W        W43492  40.027   8.841   3.635
79725W        W43493  28.460   3.236   5.122
79726W        W43494   1.259   4.239   0.316
79727W        W43495  34.495  29.563  11.606
79728W        W43496   8.264  37.930   0.831
79729W        W43497  22.596  33.907  13.526
79730W        W43498  31.507  17.587   2.701
79731W        W43499  33.579  40.455   0.967
79732W        W43500  16.666  34.008   1.443
79733W        W43501  25.477  22.634  11.607
79734W        W43502  13.207  16.582  13.548
79735W        W43503   0.339  17.123  10.511
79736W        W43504  16.168  37.917   4.209
79737W        W43505  21.030  24.711  12.574
79738W        W43506  22.691  27.165   4.740
79739W        W43507   6.799  20.058   1.242
79740W        W43508  36.363  30.057  14.763
79741W        W43509   1.241   4.708   0.730
79742W        W43510  25.047  12.308   2.418
79743W        W43511  17.063  41.931   1.433
79744W        W43512  37.381  43.928   4.808
79745W        W43513  31.509  15.617   4.345
79746W        W43514  43.815   9.821  13.814
79747W        W43515  20.656  12.283   0.802
79748W        W43516  16.595  40.515  11.983
79749W        W43517  44.361   0.456  11.864
79750W        W43518  17.234  17.067  14.504
79751W        W43519  23.046  25.213   3.182
79752W        W43520  10.383  20.630  14.950
79753W        W43521   1.381  25.160   4.314
79754W        W43522  44.882  20.028   2.297
79755W        W43523  33.129  16.290  11.952
79756W        W43524  16.232   8.698  13.039
79757W        W43525  20.220  41.910  13.543
79758W        W43526  40.314   1.471   2.676
79759W        W43527  43.387  36.868  11.975
79760W        W43528   2.827  27.151  11.564
79761W        W43529  38.856  20.566  11.050
79762W        W43530  28.548  16.210   2.308
79763W        W43531  22.036  15.303   0.282
79764W        W43532  16.654  12.775   1.305
79765W        W43533  37.894  35.854   2.378
79766W        W43534   2.269  34.522  11.433
79767W        W43535  44.339  38.483   0.360
79768W        W43536  18.577  27.090  14.802
79769W        W43537  33.082   9.828  12.993
79770W        W43538   2.441  10.706   1.770
79771W        W43539  12.843  40.475  12.431
79772W        W43540  20.226  33.038  12.895
79773W        W43541  43.389   0.871   2.724
79774W        W43542  17.778  17.654  14.780
79775W        W43543  43.866  12.230  12.413
79776W        W43544  15.791  27.972   3.764
79777W        W43545  18.625   2.407  14.950
79778W        W43546  28.117  26.111  13.514
79779W        W43547  23.037   3.745   0.892
79780W        W43548   7.744  13.108   3.825
79781W        W43549   3.915   3.854   4.273
79782W        W43550   9.171  38.502   0.935
79783W        W43551  28.042   3.908   4.149
79784W        W43552  43.324  22.179   1.339
79785W        W43553  35.468  21.225   2.400
79786W        W43554  30.104  43.840   2.399
79787W        W43555  31.029   0.884  10.602
79788W        W43556  37.564   4.900   1.225
79789W        W43557  19.235  25.031   4.773
79790W        W43558  38.036  19.771   4.190
79791W        W43559  11.350  44.881   0.446
79792W        W43560  13.709   7.243  13.386
79793W        W43561  36.441  13.810   4.282
79794W        W43562  19.559  38.929   4.682
79795W        W43563   0.388   2.855  11.947
79796W        W43564   7.797   5.770   0.959
79797W        W43565  30.161  16.645   2.765
79798W        W43566  16.707  29.011   4.123
79799W        W43567   2.379  18.276  14.009
79800W        W43568   3.231  34.103  14.501
79801W        W43569  37.388  41.426   3.199
79802W        W43570  34.910   6.221  11.942
79803W        W43571  37.022  33.988   2.318
79804W        W43572  27.159  40.385  11.092
79805W        W43573  11.303  39.946   0.834
79806W        W43574  34.961  28.066   1.720
79807W        W43575   8.801  44.838   1.713
79808W        W43576  37.578  43.978   2.704
79809W        W43577   2.817   5.418  13.053
79810W        W43578  25.614  44.999   3.764
79811W        W43579  11.658  14.141   5.188
79812W        W43580  30.416   2.384  11.594
79813W        W43581  12.821   7.891   4.768
79814W        W43582  23.518  11.841  13.001
79815W        W43583  20.163  21.539   0.840
79816W        W43584  35.003  32.530  12.404
79817W        W43585  16.755   6.773   3.382
79818W        W43586  34.596   3.880   3.320
79819W        W43587  39.889  37.532  12.931
79820W        W43588   8.776  43.920   4.296
79821W        W43589  38.564   8.171  11.989
79822W        W43590   4.913  10.148  14.370
79823W        W43591  21.191  23.220  10.518
79824W        W43592  22.530  14.704   2.797
79825W        W43593  17.227  33.127  10.894
79826W        W43594  37.553  29.148   3.870
79827W        W43595  22.021  21.519  13.472
79828W        W43596  20.068  26.998   3.865
79829W        W43597   8.281   6.239   3.630
79830W        W43598  35.027  36.564  13.022
79831W        W43599  42.816  12.801  14.368
79832W        W43600   5.378  20.167   0.897
79833W        W43601  25.963  35.403  14.483
79834W        W43602  39.389  28.113   4.637
79835W        W43603  37.865  44.422   0.391
79836W        W43604  31.059  18.718   0.340
79837W        W43605   4.380  24.115  12.562
79838W        W43606   5.877   0.832   3.242
79839W        W43607  32.518   7.709  12.043
79840W        W43608  33.006  23.595   1.881
79841W        W43609  44.411  19.750  12.428
79842W        W43610  31.641   1.433  11.086
79843W        W43611   9.677  41.348  10.925
79844W        W43612   2.772  21.157   2.683
79845W        W43613   2.794   3.948  11.400
79846W        W43614  11.334   4.355   2.727
79847W        W43615  31.418   9.653   2.789
79848W        W43616  21.124   9.818  13.530
79849W        W43617  43.314  25.964   2.371
79850W        W43618  29.070  38.852   4.624
79851W        W43619  41.537   5.866   3.374
79852W        W43620  40.944  29.669  14.788
79853W        W43621  35.986   4.339  13.859
79854W        W43622  38.894  23.116   5.313
79855W        W43623   9.182  33.114  14.889
79856W        W43624  33.414  39.967  10.481
79857W        W43625  23.641  33.104   0.467
79858W        W43626  10.800  20.166   2.394
79859W        W43627  39.928  19.534  12.435
79860W        W43628   5.283  29.621  11.386
79861W        W43629  22.019   9.659  12.488
79862W        W43630   1.283  32.034   4.651
79863W        W43631  16.667  21.679  11.028
79864W        W43632   6.781  33.062  12.364
79865W        W43633  15.625   4.249  13.495
79866W        W43634  36.055  39.907   4.765
79867W        W43635  29.102  33.438  11.548
79868W        W43636  16.210  19.739   2.292
79869W        W43637  39.503  15.745   0.242
79870W        W43638  28.449  38.019  13.041
79871W        W43639  30.055  14.170  12.936
79872W        W43640   9.288   1.888   1.865
79873W        W43641   1.742  26.062   1.414
79874W        W43642  20.184  27.101  14.388
79875W        W43643  20.636  33.129   3.768
79876W        W43644   0.472  33.430  13.899
79877W        W43645  18.572   6.242   3.219
79878W        W43646  18.664  27.502  14.953
79879W        W43647  13.164  29.653   0.820
79880W        W43648  42.904  23.157  13.319
79881W        W43649  21.619  11.293  11.586
79882W        W43650  22.031  10.852   0.918
79883W        W43651   0.288  40.406  13.051
79884W        W43652  35.405  37.994  12.428
79885W        W43653  17.067  17.199  13.517
79886W        W43654   0.315   6.362  14.967
79887W        W43655  30.034  38.460  11.059
79888W        W43656  11.705  15.111   4.306
79889W        W43657  14.136  25.583   3.778
79890W        W43658  33.428  44.980  11.423
79891W        W43659  43.833   5.873  14.949
79892W        W43660  21.590  36.392   1.807
79893W        W43661   9.372  39.824  11.581
79894W        W43662   3.768   5.342  11.989
79895W        W43663  15.303   0.813  13.502
79896W        W43664  30.928  22.996   2.833
79897W        W43665   3.771  18.648   2.902
79898W        W43666  13.795  30.475  11.101
79899W        W43667  27.053   4.815   0.864
79900W        W43668   3.826  27.953  10.532
79901W        W43669  16.209  35.053  11.414
79902W        W43670  16.616  13.824   3.698
79903W        W43671  10.669  15.624   3.372
79904W        W43672  26.522  39.415   2.275
79905W        W43673  17.683   9.853  10.552
79906W        W43674   1.387  11.835   4.617
79907W        W43675  36.881  40.319   0.311
79908W        W43676  30.076  18.258   2.833
79909W        W43677   0.779  23.636   3.339
79910W        W43678  15.295  16.607  12.451
79911W        W43679  41.356  38.855   0.338
79912W        W43680  40.534  19.621   4.763
79913W        W43681  32.460  34.911   4.349
79914W        W43682   0.251   5.437  13.936
79915W        W43683   9.385  13.254  13.925
79916W        W43684  32.079   0.778   1.291
79917W        W43685   3.845  25.118  10.018
79918W        W43686  34.967  27.451   2.744
79919W        W43687  10.352  44.476   3.170
79920W        W43688   1.779  36.845   9.489
79921W        W43689   8.718  35.467  13.889
79922W        W43690  27.620  22.680   4.192
79923W        W43691  44.259  12.294  14.953
79924W        W43692  28.476   0.405  14.893
79925W        W43693  28.019  32.958   2.292
79926W        W43694  27.067   2.863   4.708
79927W        W43695   9.182   9.686   0.925
79928W        W43696  35.512   2.750  12.396
79929W        W43697  26.474  30.523   0.727
79930W        W43698  36.047  44.502  13.933
79931W        W43699  44.449   4.415  13.978
79932W        W43700  22.176  17.562   0.356
79933W        W43701   4.840  16.626  10.538
79934W        W43702  29.641  32.499  11.385
79935W        W43703   4.755  18.688  14.496
79936W        W43704   4.903   4.440  13.460
79937W        W43705   8.320  21.691   2.733
79938W        W43706  36.461   5.334  13.457
79939W        W43707  44.771  34.097  11.925
79940W        W43708   9.179  16.781  11.433
79941W        W43709  18.249  33.561  14.455
79942W        W43710  41.317  42.390   1.857
79943W        W43711   2.385  10.384   1.257
79944W        W43712   7.252  32.124   9.979
79945W        W43713  41.538   8.781  12.574
79946W        W43714  21.733  40.976   1.259
79947W        W43715  18.712   4.880   4.767
79948W        W43716   8.877  35.553  14.411
79949W        W43717  21.755  20.169  11.430
79950W        W43718  40.414   0.274   3.659
79951W        W43719  34.099  23.639  10.999
79952W        W43720  40.893  40.862  13.961
79953W        W43721  37.386  15.714  14.915
79954W        W43722  21.196  42.924  12.558
79955W        W43723  32.490   6.377  13.024
79956W        W43724  36.984  32.039   2.188
79957W        W43725  23.000  33.024  12.347
79958W        W43726  38.426  38.953  14.809
79959W        W43727  42.860  18.222  10.987
79960W        W43728  29.624  17.694   4.224
79961W        W43729  40.979  32.576   2.386
79962W        W43730  20.246   3.741  14.434
79963W        W43731  19.578  44.764   3.692
79964W        W43732  38.931   4.926   5.129
79965W        W43733   1.455   5.334   4.693
79966W        W43734   5.321   0.379  12.824
79967W        W43735  18.139  27.188   0.304
79968W        W43736  20.173  17.658  10.973
79969W        W43737  43.832  13.210   2.789
79970W        W43738  25.047  35.504   3.706
79971W        W43739  27.949  20.586   1.218
79972W        W43740  16.747  29.549   0.350
79973W        W43741  23.692  38.486  13.802
79974W        W43742  24.582  35.460  13.510
79975W        W43743   4.924  13.693  11.421
79976W        W43744   9.334  40.396   4.249
79977W        W43745  32.058  12.668   3.795
79978W        W43746  40.500  31.580   2.665
79979W        W43747  43.288  15.187   0.812
79980W        W43748  40.809  17.285   2.248
79981W        W43749  38.043  18.744  14.918
79982W        W43750  31.127  37.954  13.319
79983W        W43751  18.191  25.162   0.791
79984W        W43752  23.228  12.121   5.801
79985W        W43753  21.609  28.477   3.643
79986W        W43754  12.120  35.492  12.837
79987W        W43755   1.354  34.075  10.031
79988W        W43756  43.336  24.186  14.786
79989W        W43757  17.233  33.007   2.233
79990W        W43758   3.921   9.871   3.180
79991W        W43759  32.931  38.861  12.864
79992W        W43760  18.600  32.143   2.187
79993W        W43761   6.357  38.862  12.030
79994W        W43762  38.987  44.478   1.832
79995W        W43763  27.154  21.246   3.740
79996W        W43764  10.666  15.633  13.977
79997W        W43765  24.203  33.932   1.413
79998W        W43766  29.664  39.399  14.975
79999W        W43767  15.654  35.546   4.297
80000W        W43768  40.543   5.279  14.831
80001W        W43769  10.654  40.340  14.874
80002W        W43770  13.803  14.640  13.415
80003W        W43771  32.109  38.541   2.271
80004W        W43772  40.830   4.787  14.902
80005W        W43773  13.220  32.480   0.433
80006W        W43774  30.446  27.117  11.512
80007W        W43775  44.367  14.176  14.333
80008W        W43776   7.667  27.663  10.420
80009W        W43777  38.001  22.542  10.004
80010W        W43778   1.974  34.994  13.850
80011W        W43779   1.342  19.211  12.995
80012W        W43780   3.877   6.222  10.565
80013W        W43781  31.574  38.526   2.777
80014W        W43782  25.639   9.686  12.990
80015W        W43783  30.557  32.618   4.187
80016W        W43784  23.227  27.158  10.645
80017W        W43785  27.138   6.271  14.949
80018W        W43786  27.177  31.636   2.819
80019W        W43787  33.050  29.561   1.731
80020W        W43788  28.981  37.080  14.773
80021W        W43789  44.776  32.408   4.202
80022W        W43790  38.034  37.853   1.773
80023W        W43791  12.241  19.229   4.245
80024W        W43792  25.023   2.911  13.852
80025W        W43793  22.506   9.720  12.017
80026W        W43794  40.880  44.910  10.550
80027W        W43795  41.997  30.991   2.268
80028W        W43796  26.467  21.088   3.640
80029W        W43797  34.112   7.332   4.680
80030W        W43798  15.179  44.395  12.384
80031W        W43799  32.044  37.368   3.774
80032W        W43800  25.160  41.794   3.764
80033W        W43801   8.240   5.931  14.405
80034W        W43802   3.757  25.713  12.899
80035W        W43803   5.902   9.377  12.888
80036W        W43804   0.800  40.035   1.238
80037W        W43805  39.540  41.927   3.298
80038W        W43806   9.239  43.427   2.885
80039W        W43807  20.769  18.547   1.415
80040W        W43808   3.822  35.433   3.249
80041W        W43809  29.615  42.992   5.090
80042W        W43810  41.444  11.847   1.744
80043W        W43811  36.002  31.986   2.358
80044W        W43812  16.109  39.472  12.880
80045W        W43813  19.660  15.283   1.865
80046W        W43814   8.374   5.842   2.723
80047W        W43815  20.615   9.659  11.438
80048W        W43816  32.503  39.446  11.075
80049W        W43817  15.230  40.014  12.977
80050W        W43818  23.648  19.252   4.119
80051W        W43819   0.283   9.248  11.972
80052W        W43820  26.016  16.601  11.050
80053W        W43821   3.297  33.604   0.786
80054W        W43822   9.700  26.600   4.824
80055W        W43823  29.583   7.354   0.350
80056W        W43824  25.640  15.692  14.481
80057W        W43825  36.869  19.728  10.633
80058W        W43826  14.706  22.208  11.073
80059W        W43827  38.917   7.674  11.587
80060W        W43828  14.275  37.501   5.181
80061W        W43829  43.379  43.874  11.535
80062W        W43830  26.696  18.292   4.755
80063W        W43831  17.560   5.786   3.260
80064W        W43832  29.634   4.915  10.509
80065W        W43833  10.693  13.254  13.432
80066W        W43834  37.414  16.741  11.033
80067W        W43835  15.706  28.558   2.751
80068W        W43836   8.733  23.240   0.767
80069W        W43837  21.697  26.141   0.862
80070W        W43838  20.239  39.416   0.469
80071W        W43839   7.417  35.070   2.411
80072W        W43840   6.349  36.469  12.484
80073W        W43841  24.722  41.970   0.881
80074W        W43842  35.088  25.107  10.491
80075W        W43843   2.274   4.301  11.022
80076W        W43844  21.196   0.779   4.682
80077W        W43845  11.709  28.118  12.503
80078W        W43846  32.060  40.346   3.323
80079W        W43847  41.517  29.657   4.345
80080W        W43848  30.548   3.742  14.003
80081W        W43849   9.760  20.577   1.784
80082W        W43850  20.187  13.718  13.936
80083W        W43851  16.197  21.539   2.404
80084W        W43852  21.264  43.816   2.686
80085W        W43853   9.707  10.725  10.036
80086W        W43854  22.675  22.128  12.945
80087W        W43855  27.961  26.652   4.775
80088W        W43856  10.800  20.551  11.883
80089W        W43857   3.400  17.137   1.698
80090W        W43858  20.051   7.369  14.892
80091W        W43859  26.528  19.690   3.308
80092W        W43860  14.242  27.641   2.330
80093W        W43861   2.934  21.150  14.376
80094W        W43862  23.178  22.113  14.397
80095W        W43863  20.146   4.778   4.704
80096W        W43864   9.226  39.020   1.803
80097W        W43865  28.149  23.122  11.090
80098W        W43866  43.392   9.653  12.093
80099W        W43867  43.441  41.892   3.226
80100W        W43868  30.977  38.871  12.007
80101W        W43869   7.203   1.969   0.257
80102W        W43870  33.385  40.004   0.422
80103W        W43871  20.105  31.514  13.020
80104W        W43872  40.995   7.669   4.801
80105W        W43873  24.158  24.007  10.921
80106W        W43874  38.432  12.705   1.716
80107W        W43875  36.022   9.316   9.929
80108W        W43876   8.350  23.725   3.348
80109W        W43877  43.271   4.403  12.554
80110W        W43878  44.970  14.649  11.501
80111W        W43879   7.670  14.759  11.405
80112W        W43880  35.590  11.788  14.926
80113W        W43881  10.875  27.484   3.318
80114W        W43882  30.977  44.933  12.029
80115W        W43883  17.652  29.584   0.848
80116W        W43884  11.278   6.287  14.998
80117W        W43885   6.415  27.598  14.801
80118W        W43886   5.391  32.893   4.125
80119W        W43887  39.816  14.209   4.247
80120W        W43888   3.780  33.962   0.392
80121W        W43889   5.819  25.712  10.499
80122W        W43890  31.120  34.943   4.781
80123W        W43891  23.677   0.265  14.885
80124W        W43892   8.871  32.100   3.157
80125W        W43893   0.845  12.762   1.831
80126W        W43894  36.078   0.411   4.749
80127W        W43895   6.379  14.255   3.736
80128W        W43896  40.374  21.645   4.731
80129W        W43897  43.931  35.865  11.885
80130W        W43898  15.819  35.920   1.830
80131W        W43899  38.452  35.468   4.634
80132W        W43900   0.293   6.379   3.632
80133W        W43901   3.247  43.880  13.330
80134W        W43902   2.309  38.835   3.866
80135W        W43903  19.625   5.288   3.313
80136W        W43904   8.251  27.195   2.299
80137W        W43905   1.840  31.526   4.827
80138W        W43906   9.720  22.145  10.546
80139W        W43907  25.652   5.327   0.919
80140W        W43908  23.997   9.329   1.225
80141W        W43909  29.605  11.683   0.903
80142W        W43910  29.039  17.110  12.027
80143W        W43911  28.159  34.563   5.275
80144W        W43912  14.114  24.602   2.824
80145W        W43913  40.820  28.612   1.892
80146W        W43914  32.122   8.709  14.930
80147W        W43915  21.262  12.150   1.792
80148W        W43916  27.091  33.046   3.701
80149W        W43917  20.057  18.056  12.403
80150W        W43918  44.266   3.238   9.935
80151W        W43919  14.201   6.223   4.771
80152W        W43920  15.755  35.869  14.431
80153W        W43921   0.361  44.931   2.675
80154W        W43922   1.844   2.326   4.734
80155W        W43923  36.009  33.098   3.810
80156W        W43924  20.533  15.704  12.955
80157W        W43925  42.292  19.188   2.229
80158W        W43926   2.238  13.105  14.015
80159W        W43927  36.547  11.169  13.876
80160W        W43928  23.576  19.707   0.963
80161W        W43929  36.853  32.034  12.926
80162W        W43930  25.481   2.892  12.426
80163W        W43931  34.012   7.682  13.848
80164W        W43932   7.754  14.713   2.269
80165W        W43933  11.218  36.550   0.731
80166W        W43934   4.907  14.617  14.797
80167W        W43935  12.739  41.032  10.638
80168W        W43936   9.666  14.274   2.755
80169W        W43937  42.442  11.329  14.289
80170W        W43938   8.759   4.442   4.599
80171W        W43939   5.896  44.982  11.100
80172W        W43940  13.707  20.572  10.640
80173W        W43941  13.717  27.584  14.283
80174W        W43942  20.203   8.315  12.894
80175W        W43943  41.400  23.206   2.713
80176W        W43944  20.076  35.018  10.616
80177W        W43945   9.812  16.702  11.588
80178W        W43946  23.051  18.594   4.837
80179W        W43947   2.767  32.400   1.368
80180W        W43948   7.358  36.570   4.716
80181W        W43949  28.095  14.783   3.253
80182W        W43950  22.538  29.977   4.299
80183W        W43951  42.990  43.770  10.587
80184W        W43952  34.467  28.031  13.793
80185W        W43953  14.603  18.087  13.835
80186W        W43954  16.231  25.554  13.405
80187W        W43955  26.488  15.600   0.903
80188W        W43956  14.174  11.795   2.285
80189W        W43957  39.976  28.621   1.713
80190W        W43958   7.257  15.677  11.539
80191W        W43959   2.408  12.129   0.963
80192W        W43960  40.956  15.599  11.597
80193W        W43961  22.089   5.843   1.346
80194W        W43962  39.066   1.430  10.582
80195W        W43963  44.002  16.717   0.454
80196W        W43964  38.539  12.271  13.501
80197W        W43965  36.504  21.599  12.980
80198W        W43966   7.786   4.833  14.392
80199W        W43967  30.638  11.677   1.399
80200W        W43968  25.527  12.836   1.360
80201W        W43969   7.689  13.605  10.596
80202W        W43970   9.775   8.260  14.783
80203W        W43971  44.266  37.062  10.560
80204W        W43972  13.697  29.030   2.232
80205W        W43973   8.406  39.885   0.293
80206W        W43974  38.467  37.363   3.176
80207W        W43975  33.399  38.401  11.936
80208W        W43976  17.785  33.963  12.441
80209W        W43977  23.140  27.961   2.394
80210W        W43978  22.586   3.843   0.370
80211W        W43979   8.773   1.851  13.793
80212W        W43980   2.389  39.324   4.228
80213W        W43981  39.418  42.304   4.206
80214W        W43982   7.251  26.164   1.356
80215W        W43983  14.826   3.854   4.597
80216W        W43984  14.159  26.982   0.965
80217W        W43985  42.494  42.025   2.817
80218W        W43986  23.617  19.093   0.259
80219W        W43987  37.875  35.022  14.384
80220W        W43988  10.269  19.152   2.693
80221W        W43989   7.796  37.512  11.392
80222W        W43990  29.950  13.755  11.420
80223W        W43991  17.716  30.912   1.299
80224W        W43992  10.319   0.917  14.876
80225W        W43993   6.298  29.040   1.744
80226W        W43994   8.661   2.757  12.002
80227W        W43995   8.770   3.934   3.172
80228W        W43996  23.229  24.012  11.980
80229W        W43997  13.223   5.911  12.543
80230W        W43998  35.540  18.166  12.983
80231W        W43999   9.269   6.244  13.921
80232W        W44000   5.826   2.846  14.010
80233W        W44001  40.923  12.226  12.515
80234W        W44002   4.245  11.339   2.335
80235W        W44003  43.421  39.000   4.631
80236W        W44004   5.243  10.172  13.538
80237W        W44005  26.549  16.207  13.051
80238W        W44006   9.245  15.608  10.076
80239W        W44007  12.341  18.728  10.907
80240W        W44008  29.007   5.387   4.352
80241W        W44009  12.845   4.785   1.881
80242W        W44010  13.717   5.910   2.794
80243W        W44011  22.097  38.959   3.202
80244W        W44012  35.584  15.613  13.535
80245W        W44013  44.347  32.512   1.818
80246W        W44014  28.954  12.611  13.001
80247W        W44015  38.040  31.095   0.752
80248W        W44016  22.737   0.304  10.522
80249W        W44017  28.152  35.982  12.359
80250W        W44018   7.334  38.954   4.677
80251W        W44019   7.825  42.869  10.588
80252W        W44020  32.065  26.198  14.952
80253W        W44021  40.869  39.848  13.956
80254W        W44022   9.272  14.231   0.929
80255W        W44023  17.200   8.716  13.056
80256W        W44024  18.172  39.860   4.674
80257W        W44025  12.715  31.568   1.376
80258W        W44026  17.266  12.150  11.861
80259W        W44027   4.210   9.690  11.433
80260W        W44028  16.280  22.571  11.028
80261W        W44029  41.851  40.492   2.902
80262W        W44030  23.503  37.007  13.867
80263W        W44031  37.007   0.250  13.976
80264W        W44032  29.478  18.236   2.830
80265W        W44033  32.950  20.241  12.964
80266W        W44034   3.907  31.104  11.879
80267W        W44035  12.237   5.289   2.215
80268W        W44036  37.875  12.614   1.278
80269W        W44037  10.802   1.392   3.215
80270W        W44038  17.143  41.927   1.932
80271W        W44039  36.414  13.613   2.265
80272W        W44040  14.339   6.805  10.626
80273W        W44041  21.672  34.490  13.969
80274W        W44042  40.879  35.559   0.313
80275W        W44043   4.263  13.144   4.597
80276W        W44044  43.359  34.115   4.606
80277W        W44045  16.307  41.983   1.776
80278W        W44046   1.829  37.543   1.833
80279W        W44047  35.042  35.080   4.744
80280W        W44048  23.568   1.808   0.316
80281W        W44049  22.096  29.516   1.441
80282W        W44050  20.577  13.350   1.912
80283W        W44051  18.613  30.118   3.257
80284W        W44052  19.760  27.545   2.415
80285W        W44053  41.492   4.718   3.651
80286W        W44054  31.090  29.526  14.828
80287W        W44055   8.777  11.247  12.444
80288W        W44056  26.134  13.150  12.532
80289W        W44057  31.968  20.580   2.731
80290W        W44058  33.042  13.322  11.482
80291W        W44059   7.762  10.847  14.889
80292W        W44060  44.854  23.007  12.403
80293W        W44061   3.763  33.993   9.949
80294W        W44062   7.189  38.421  13.022
80295W        W44063  13.147  27.512   2.309
80296W        W44064  20.728  25.651  12.057
80297W        W44065  38.978   1.801  11.906
80298W        W44066  26.124  38.927   2.816
80299W        W44067  38.333  12.666  14.378
80300W        W44068   8.307   2.812  11.998
80301W        W44069  24.482   7.344   0.914
80302W        W44070   2.318  44.868  13.942
80303W        W44071  21.534  40.375   0.385
80304W        W44072  16.172  38.422   2.294
80305W        W44073  23.708  32.443  11.519
80306W        W44074   2.410   1.278   2.365
80307W        W44075  27.046  14.599  13.925
80308W        W44076  32.468  37.987  12.944
80309W        W44077   9.217  18.151   3.789
80310W        W44078   8.348  39.005  12.379
80311W        W44079  31.140  42.846   2.416
80312W        W44080  23.651  29.487   2.357
80313W        W44081  31.018   6.317  14.503
80314W        W44082  21.199  35.090   1.393
80315W        W44083  25.631  28.552  14.813
80316W        W44084  43.392  24.080  13.420
80317W        W44085  22.692  41.013  14.414
80318W        W44086  35.863   0.864  12.535
80319W        W44087   1.302   3.311   0.904
80320W        W44088  14.719   5.835   0.906
80321W        W44089  18.585  16.212   5.298
80322W        W44090  17.627  41.373   2.288
80323W        W44091  34.382  29.572   0.483
80324W        W44092  11.280   4.397  11.578
80325W        W44093  43.408  39.847  11.108
80326W        W44094  25.587  31.448   2.773
80327W        W44095   3.378  33.028   2.770
80328W        W44096  13.786  19.270   2.703
80329W        W44097  14.215  21.576   0.809
80330W        W44098   4.773  29.166  11.518
80331W        W44099  11.863  34.378   2.203
80332W        W44100   6.710  35.407   2.672
80333W        W44101   6.717  21.228   2.325
80334W        W44102  23.182  31.970  12.845
80335W        W44103  35.978   3.375   0.899
80336W        W44104  29.627   0.481   4.634
80337W        W44105  11.776  19.541   2.902
80338W        W44106  32.130   0.940   0.789
80339W        W44107  17.237  22.572  13.522
80340W        W44108  40.526  14.750   1.748
80341W        W44109  31.430  28.594   0.788
80342W        W44110  33.992  14.111  10.892
80343W        W44111   2.234  44.884   3.633
80344W        W44112  29.512   2.237   3.631
80345W        W44113  29.523   7.269  13.405
80346W        W44114  26.488  10.870  13.843
80347W        W44115  20.094  37.549  13.883
80348W        W44116   8.657   8.375  13.467
80349W        W44117  44.388  22.541   3.786
80350W        W44118  27.602  21.575   1.281
80351W        W44119  43.299  16.784  10.430
80352W        W44120  30.625  11.729  12.340
80353W        W44121  42.804   8.326   1.426
80354W        W44122  15.708  16.578   0.953
80355W        W44123  30.075  16.178   0.948
80356W        W44124   3.790  24.694  11.892
80357W        W44125  35.880  18.693   3.795
80358W        W44126  18.264  16.603   3.788
80359W        W44127  24.610  34.995   2.747
80360W        W44128  37.403  39.386   1.443
80361W        W44129  37.001   4.358   4.631
80362W        W44130  15.781  19.576   3.780
80363W        W44131  10.637   2.260  10.610
80364W        W44132  21.666  14.677   1.217
80365W        W44133  37.348  23.677  12.969
80366W        W44134   2.826  23.238  14.316
80367W        W44135  10.833  26.520   0.756
80368W        W44136   0.883   4.415  11.942
80369W        W44137  22.548  16.094   3.228
80370W        W44138   3.287  38.444  11.894
80371W        W44139  19.130  21.514   3.194
80372W        W44140  15.240  31.518  14.395
80373W        W44141   3.340   9.172   1.897
80374W        W44142  20.548  13.754   4.659
80375W        W44143  17.276  32.117   1.363
80376W        W44144  41.425   3.741   4.346
80377W        W44145  15.120  42.975   4.327
80378W        W44146  21.058  24.545   2.795
80379W        W44147  33.121  15.275   3.651
80380W        W44148   7.718  38.936  10.895
80381W        W44149  24.037  37.427  11.588
80382W        W44150  14.669  38.933  10.113
80383W        W44151  16.128  31.096  11.862
80384W        W44152  10.206   4.289  14.515
80385W        W44153  35.940  27.078  14.498
80386W        W44154  25.135   0.823  10.932
80387W        W44155  17.146  23.194   9.927
80388W        W44156   4.780   6.407   0.859
80389W        W44157  24.614  21.668   4.223
80390W        W44158  22.210  11.709  10.642
80391W        W44159  26.543   7.353  14.008
80392W        W44160   6.409  26.537   1.281
80393W        W44161  37.981  38.419   3.721
80394W        W44162  31.989  36.504  12.490
80395W        W44163  15.629  17.699   3.310
80396W        W44164  34.533  33.624  14.992
80397W        W44165   3.361  29.578  11.866
80398W        W44166  18.215  31.917   0.285
80399W        W44167  28.181  34.574   5.800
80400W        W44168  24.984   4.351   3.174
80401W        W44169   4.387  13.233  11.934
80402W        W44170  11.655  44.474   2.223
80403W        W44171  28.623  42.398  12.405
80404W        W44172   5.268  40.325  12.404
80405W        W44173  16.139  18.612   0.854
80406W        W44174  19.757   2.962  10.911
80407W        W44175  36.076  36.909  12.907
80408W        W44176  12.198  38.531  12.402
80409W        W44177  33.125  14.598   2.853
80410W        W44178  13.300  42.978   0.936
80411W        W44179   7.838  33.926  11.068
80412W        W44180  21.122  40.913  10.527
80413W        W44181  14.821  34.523   4.784
80414W        W44182  33.082  30.591  12.552
80415W        W44183   1.889  16.122   4.617
80416W        W44184   1.762   7.811  13.046
80417W        W44185  30.461   7.196  11.123
80418W        W44186  20.077   3.913   2.352
80419W        W44187  26.103  44.009   2.246
80420W        W44188  15.318  34.081  13.060
80421W        W44189  26.073  29.959   0.311
80422W        W44190  16.763  25.697  14.929
80423W        W44191  11.199  12.612   0.369
80424W        W44192  29.097  36.000   4.799
80425W        W44193  26.581  21.053  13.895
80426W        W44194   5.770  15.293   4.822
80427W        W44195  14.176  19.776  10.545
80428W        W44196  10.851  42.293   2.336
80429W        W44197   4.253  21.164   0.859
80430W        W44198  21.248  31.958   1.411
80431W        W44199   7.384  14.167   2.780
80432W        W44200  27.109  37.423  12.423
80433W        W44201  10.318   5.341  14.429
80434W        W44202  37.514  40.473   2.319
80435W        W44203  29.084  30.553  11.501
80436W        W44204  41.420   1.254   1.781
80437W        W44205  32.950  39.352  13.483
80438W        W44206  34.069   2.265   3.682
80439W        W44207  18.603  32.096  14.860
80440W        W44208  20.244  29.501   2.732
80441W        W44209   8.230  34.119  13.450
80442W        W44210  10.213   8.787   0.771
80443W        W44211  28.137   3.314  11.933
80444W        W44212   1.792  37.015  12.510
80445W        W44213  30.992  12.796  12.867
80446W        W44214  29.532   2.946   4.183
80447W        W44215  41.932  10.833   3.734
80448W        W44216  12.342  22.172   0.461
80449W        W44217  25.615   6.339   9.921
80450W        W44218  33.541  20.113  14.972
80451W        W44219  15.086   7.791   1.437
80452W        W44220  12.197  24.039   1.440
80453W        W44221  29.619  18.177   2.337
80454W        W44222  39.023   0.479  13.033
80455W        W44223  36.432   6.881  11.864
80456W        W44224  33.545  10.350  13.832
80457W        W44225  44.907   0.876   4.602
80458W        W44226  30.933  22.097  12.536
80459W        W44227  29.547  11.797   3.651
80460W        W44228  38.481   5.436  13.415
80461W        W44229  33.089  37.450   4.709
80462W        W44230   2.752   9.164   0.968
80463W        W44231  30.628  32.012  12.552
80464W        W44232  20.073  27.154  13.398
80465W        W44233  11.695  25.488   4.829
80466W        W44234  11.248  15.754   4.602
80467W        W44235  30.104   7.228   1.400
80468W        W44236  31.127   7.868   2.820
80469W        W44237   4.710   9.384  13.453
80470W        W44238   7.238   9.273  13.961
80471W        W44239  38.069  36.895  11.911
80472W        W44240  22.615  43.401   2.313
80473W        W44241  18.573   2.870  11.436
80474W        W44242   7.821   3.762  13.869
80475W        W44243   3.436   8.248  10.914
80476W        W44244  41.422  20.187   3.850
80477W        W44245  14.104   8.251   4.221
80478W        W44246  20.567  36.058   1.318
80479W        W44247  24.655  34.099   3.697
80480W        W44248   3.342  34.902   9.972
80481W        W44249  43.480  27.951  12.826
80482W        W44250  16.227  35.876   4.777
80483W        W44251   9.786  15.813   2.804
80484W        W44252  27.603  25.153   3.312
80485W        W44253  39.898  14.312  14.800
80486W        W44254  35.506  22.611   2.696
80487W        W44255   3.461   0.805   5.123
80488W        W44256  15.611  23.627  11.387
80489W        W44257  24.660  16.634   4.623
80490W        W44258  28.548  12.724  14.787
80491W        W44259  27.649  32.113   1.398
80492W        W44260  27.951  41.941  12.353
80493W        W44261  19.208  34.943   1.834
80494W        W44262  10.291  11.679   0.479
80495W        W44263  28.545  37.382   0.861
80496W        W44264   1.871  40.450  14.957
80497W        W44265  12.286  12.126   3.279
80498W        W44266  19.269  18.548   4.782
80499W        W44267   8.386  20.141   2.899
80500W        W44268  10.710  17.596  13.916
80501W        W44269   9.274  36.010  12.933
80502W        W44270  28.173  27.633  12.910
80503W        W44271   6.762  18.697  11.518
80504W        W44272  11.185  41.809   3.740
80505W        W44273  28.479  37.888   2.811
80506W        W44274  37.407  33.086   2.255
80507W        W44275  23.565  22.042   3.297
80508W        W44276  40.879   5.343  11.086
80509W        W44277   4.761   4.238  10.459
80510W        W44278   2.859   4.843   3.830
80511W        W44279  41.040  19.251  12.345
80512W        W44280  36.917  14.187   2.661
80513W        W44281  22.208   2.790   3.286
80514W        W44282   0.831  15.823  12.954
80515W        W44283  27.498   3.310   2.877
80516W        W44284   8.274  38.418   1.374
80517W        W44285  39.446  43.478  11.976
80518W        W44286  44.865  20.547   3.224
80519W        W44287  18.669  35.586   2.367
80520W        W44288  27.084  20.546  10.502
80521W        W44289   8.889   3.729   4.833
80522W        W44290   3.327  20.574  12.374
80523W        W44291  42.797  10.309  11.516
80524W        W44292   3.768  23.660  13.914
80525W        W44293  14.302  26.042  14.466
80526W        W44294   4.295  17.614   0.925
80527W        W44295  25.963  36.881   4.786
80528W        W44296  41.397  18.232  12.890
80529W        W44297   5.230  36.860   1.909
80530W        W44298   4.731   5.748   1.236
80531W        W44299  19.589  13.263  10.465
80532W        W44300   0.355   8.757  12.055
80533W        W44301  38.473  39.396   0.272
80534W        W44302  27.571   7.804  11.484
80535W        W44303  37.998  44.285   4.279
80536W        W44304  43.934  30.979  13.364
80537W        W44305  17.102  30.485  14.873
80538W        W44306  21.565  32.542   4.131
80539W        W44307  38.043  29.167  12.351
80540W        W44308   0.291  39.325  13.945
80541W        W44309   2.271  30.095   0.315
80542W        W44310  38.930   8.209   2.718
80543W        W44311  37.970  32.514  13.940
80544W        W44312  36.967  35.898  10.502
80545W        W44313  12.649  27.617   1.764
80546W        W44314  10.840  18.084   0.748
80547W        W44315  21.210  10.311   5.293
80548W        W44316  25.467  20.085  13.461
80549W        W44317  14.683  19.711   3.866
80550W        W44318  13.224  25.511   2.847
80551W        W44319   7.172   8.287   0.457
80552W        W44320   1.757  33.443   4.718
80553W        W44321   3.410  28.159   4.766
80554W        W44322  20.688  36.051  13.448
80555W        W44323   7.783  33.975  14.014
80556W        W44324  17.285  14.817   3.816
80557W        W44325  19.753  44.806  13.002
80558W        W44326   2.834  13.303  11.469
80559W        W44327  32.444  15.154   0.931
80560W        W44328  42.519  16.185  13.897
80561W        W44329  25.129  12.678   1.372
80562W        W44330  19.695  25.508  10.000
80563W        W44331   9.190  42.032   2.409
80564W        W44332  10.802  14.685   3.833
80565W        W44333  40.309  24.027   4.800
80566W        W44334  44.869   5.913   4.149
80567W        W44335   6.387   3.316   0.963
80568W        W44336  37.514  27.148  14.024
80569W        W44337  32.528  32.943   2.294
80570W        W44338  30.952  36.939  13.006
80571W        W44339  43.454  28.641  11.051
80572W        W44340   2.288  44.805   3.353
80573W        W44341  18.232  41.899   4.351
80574W        W44342   1.771   5.751   1.815
80575W        W44343  16.131  31.913   0.739
80576W        W44344  23.199  40.973  13.323
80577W        W44345  19.721  16.749  11.922
80578W        W44346  27.553   1.845   2.847
80579W        W44347  13.719  28.967   0.894
80580W        W44348  14.120   1.933  12.352
80581W        W44349  42.864  22.722   3.158
80582W        W44350  12.360  41.987   0.323
80583W        W44351   7.174  14.741  11.906
80584W        W44352   2.298  27.952  11.089
80585W        W44353  41.428   9.344   0.841
80586W        W44354  19.695  39.435   3.386
80587W        W44355   9.270   2.879  14.336
80588W        W44356  43.316   8.303   1.378
80589W        W44357  36.409  39.849   4.288
80590W        W44358  23.535  19.552  13.542
80591W        W44359  20.711  37.559  12.059
80592W        W44360  37.382  32.554  14.818
80593W        W44361  31.028   4.934   2.717
80594W        W44362  19.723  13.279   2.728
80595W        W44363  40.955  17.768   3.842
80596W        W44364  44.481  36.090   2.309
80597W        W44365   1.955  26.066   0.745
80598W        W44366   3.242  23.107  10.461
80599W        W44367  26.562  38.344  12.553
80600W        W44368  39.033  19.642   1.795
80601W        W44369  37.353  23.632   1.812
80602W        W44370  28.058  39.538   0.284
80603W        W44371  31.480  40.859   1.334
80604W        W44372  44.842  11.316   3.284
80605W        W44373  11.237  33.878  11.942
80606W        W44374  23.629  27.980   2.285
80607W        W44375  28.522  44.837   4.654
80608W        W44376  24.647   3.371  14.435
80609W        W44377  25.504  12.700  11.015
80610W        W44378  10.644   9.172   1.236
80611W        W44379   5.737  14.786   3.831
80612W        W44380  34.949  44.353  13.936
80613W        W44381  11.836  14.178  14.771
80614W        W44382  28.465  24.532   3.147
80615W        W44383  32.895  30.942   3.805
80616W        W44384   1.377   2.776   2.772
80617W        W44385  19.042  15.212   4.814
80618W        W44386  14.094   1.392  14.893
80619W        W44387   3.378  31.987   0.338
80620W        W44388   8.256  23.104  11.990
80621W        W44389  30.136  36.933  14.781
80622W        W44390  36.551  40.019  13.061
80623W        W44391  20.258  33.032  11.572
80624W        W44392  25.195  13.700  10.946
80625W        W44393   5.705   8.386   1.747
80626W        W44394   4.829   6.313   1.304
80627W        W44395  40.905  33.934   3.288
80628W        W44396  19.721  16.749   3.699
80629W        W44397  17.612   0.473  11.912
80630W        W44398   2.351  43.930   2.804
80631W        W44399  44.913  32.101   2.297
80632W        W44400  38.389  34.086   1.433
80633W        W44401   2.944  23.608   1.301
80634W        W44402   2.829  10.799   2.388
80635W        W44403   1.312  17.090  11.532
80636W        W44404   6.888  29.588  12.994
80637W        W44405  20.258  22.681  10.609
80638W        W44406  10.651  44.867   4.242
80639W        W44407  11.743  31.938   4.711
80640W        W44408  26.517  33.995   2.785
80641W        W44409   2.336  10.718  11.892
80642W        W44410  27.162   0.846   1.889
80643W        W44411  36.559  15.103   0.888
80644W        W44412  12.783   0.322   1.696
80645W        W44413   5.841   3.725  11.536
80646W        W44414   3.316  27.055  13.904
80647W        W44415  16.266   9.757   1.410
80648W        W44416  19.646  28.672  14.948
80649W        W44417  17.628  44.857  11.009
80650W        W44418  30.956   3.711   0.285
80651W        W44419  22.104   8.733   5.289
80652W        W44420  43.300  28.147   3.725
80653W        W44421  25.202  21.029  14.830
80654W        W44422  33.958  14.757   3.355
80655W        W44423  35.871  15.172   4.624
80656W        W44424  19.703   7.817   0.357
80657W        W44425   7.729   6.874  11.543
80658W        W44426  11.759  39.487   4.777
80659W        W44427  30.149  36.927   3.195
80660W        W44428  35.527   7.704  12.423
80661W        W44429   5.885  43.467  11.031
80662W        W44430  20.196  31.641   4.255
80663W        W44431  17.286  22.670   1.725
80664W        W44432   0.960  22.727  13.369
80665W        W44433  43.420  36.423  11.006
80666W        W44434  42.963  35.007  13.401
80667W        W44435  44.971  25.100  12.827
80668W        W44436  21.146  11.307   3.228
80669W        W44437  32.034   7.326  14.280
80670W        W44438  11.233  42.506   0.770
80671W        W44439  13.669  16.214   3.259
80672W        W44440  31.995   2.354   5.145
80673W        W44441   2.368  15.678   3.217
80674W        W44442  18.609  37.013  14.389
80675W        W44443   4.271  42.891   1.900
80676W        W44444  18.700  41.460  11.539
80677W        W44445   4.781   1.463   3.631
80678W        W44446  18.561  18.765   1.859
80679W        W44447  39.495  10.844   4.602
80680W        W44448  27.101   5.343   0.283
80681W        W44449  35.446  13.798  12.380
80682W        W44450   7.835  20.661   3.697
80683W        W44451  42.284   4.851   2.835
80684W        W44452  31.611  41.519  10.416
80685W        W44453   6.293   5.838  14.362
80686W        W44454  25.041  44.446  13.343
80687W        W44455   7.200  18.729   5.162
80688W        W44456   9.803  10.317  10.591
80689W        W44457   4.835   7.359  14.930
80690W        W44458  30.586  42.460  12.427
80691W        W44459  41.008  28.563   0.930
80692W        W44460  24.563   5.325   0.373
80693W        W44461   8.834  11.705   2.245
80694W        W44462  36.516  12.175  13.965
80695W        W44463  15.773  28.070  13.924
80696W        W44464  31.461  29.107  10.925
80697W        W44465   2.394  38.359   3.821
80698W        W44466  25.482  33.497   2.734
80699W        W44467  33.123  21.182   1.871
80700W        W44468  14.201   2.331   3.706
80701W        W44469  35.452  39.824   4.326
80702W        W44470   4.786  33.495  12.963
80703W        W44471   9.724  25.606   0.850
80704W        W44472  44.945  16.146  13.854
80705W        W44473  17.140  16.570  11.394
80706W        W44474  16.269  13.768  14.282
80707W        W44475  27.007   0.468   2.726
80708W        W44476  19.572   7.724   5.283
80709W        W44477  44.337  23.163   2.712
80710W        W44478  30.527   4.868  12.978
80711W        W44479  13.273  12.341   3.236
80712W        W44480  36.847  14.262   3.223
80713W        W44481  15.735  16.298  12.870
80714W        W44482   5.752  28.642   2.302
80715W        W44483  25.205  30.440   1.239
80716W        W44484  13.320  16.622   1.349
80717W        W44485  41.871  34.558   1.838
80718W        W44486  15.185  44.384   0.786
80719W        W44487  27.041  11.147   1.210
80720W        W44488  12.712   2.889   4.785
80721W        W44489  36.954   4.339   0.799
80722W        W44490  30.434  21.706   4.128
80723W        W44491  24.641  41.884  13.817
80724W        W44492  11.659  25.071   0.956
80725W        W44493  33.402   0.249   1.276
80726W        W44494   5.322  23.736  12.461
80727W        W44495  31.567  28.080  10.624
80728W        W44496  44.786  17.617   0.334
80729W        W44497   3.870  39.951  10.115
80730W        W44498  32.396  15.798  10.982
80731W        W44499  29.490  30.979   4.120
80732W        W44500  27.052  39.559   0.926
80733W        W44501  13.834  13.116   1.335
80734W        W44502   3.879  30.913   2.785
80735W        W44503  34.963   2.859  10.530
80736W        W44504   4.741  33.123   0.932
80737W        W44505  23.509  39.998   3.859
80738W        W44506  31.937   6.412  11.919
80739W        W44507   3.331  39.042   0.781
80740W        W44508  22.548   6.186   5.289
80741W        W44509   2.778  37.846   1.376
80742W        W44510  14.638  40.900   0.272
80743W        W44511   3.429  43.361   4.304
80744W        W44512  31.467  33.973  13.008
80745W        W44513  38.819  17.615  14.378
80746W        W44514  37.379  37.525  11.407
80747W        W44515   5.873   2.803   1.765
80748W        W44516   4.815   8.335   5.087
80749W        W44517  12.652  20.250  12.563
80750W        W44518  14.809  12.679   3.212
80751W        W44519  37.899  22.126  11.451
80752W        W44520   1.256   5.884   1.297
80753W        W44521  17.280  25.042   1.704
80754W        W44522  20.171  21.080   1.767
80755W        W44523   0.836  39.394  12.572
80756W        W44524  36.528   6.782  12.548
80757W        W44525  31.438  14.313   1.428
80758W        W44526  25.485   7.772   5.306
80759W        W44527  32.070  12.200  12.946
80760W        W44528   4.728  29.516  12.894
80761W        W44529  40.405  10.850   4.772
80762W        W44530  28.983  29.054  12.999
80763W        W44531  18.172  12.229  14.847
80764W        W44532  19.770  28.019  12.568
80765W        W44533  12.287  16.258  13.957
80766W        W44534  24.681   6.914   3.359
80767W        W44535  12.130  39.498   3.839
80768W        W44536  18.147   3.765   3.331
80769W        W44537  14.753  44.955  13.351
80770W        W44538  14.316  37.015  13.977
80771W        W44539  30.979  25.220  12.518
80772W        W44540  43.885  35.025   0.329
80773W        W44541  27.146   1.803   5.183
80774W        W44542  27.028  25.523   1.830
80775W        W44543   1.446  25.205  14.016
80776W        W44544  32.109  44.793   4.267
80777W        W44545  44.286  38.841  13.947
80778W        W44546  32.134  25.120  11.397
80779W        W44547  42.337   9.368  13.915
80780W        W44548  19.625  28.659   1.272
80781W        W44549   8.355   1.425  12.427
80782W        W44550  10.299  13.792  10.536
80783W        W44551   5.907   7.752  12.049
80784W        W44552  11.780  21.206   2.304
80785W        W44553  40.434  42.907   3.376
80786W        W44554  23.202  30.638   4.332
80787W        W44555  40.011  27.134  14.983
80788W        W44556   1.779  23.989  12.010
80789W        W44557  42.827  34.976   3.776
80790W        W44558  22.188   0.331  10.412
80791W        W44559  26.636  13.160  14.825
80792W        W44560  18.745   1.816  14.948
80793W        W44561   4.933  40.476   3.360
80794W        W44562   4.434  15.103  11.536
80795W        W44563   8.702  28.977  14.802
80796W        W44564  19.060   5.345   3.158
80797W        W44565  44.812  22.061   3.370
80798W        W44566  12.292  44.272  13.379
80799W        W44567  21.576  17.686  14.321
80800W        W44568   9.182   6.215  10.039
80801W        W44569  38.023  32.908   2.688
80802W        W44570  23.637  24.042  14.337
80803W        W44571  29.565  37.024   3.299
80804W        W44572  25.496  30.652  13.063
80805W        W44573   2.872  17.741  11.941
80806W        W44574  41.893  40.384   4.621
80807W        W44575  24.077  21.585   1.869
80808W        W44576   3.919  37.437  11.951
80809W        W44577  14.644  40.890   4.823
80810W        W44578  25.140  11.239  10.973
80811W        W44579  35.067   3.307  13.480
80812W        W44580  20.599  38.870   1.387
80813W        W44581   7.194   1.461   4.233
80814W        W44582   4.789   2.356   2.708
80815W        W44583  20.737  12.264   4.621
80816W        W44584  14.736  32.060  11.447
80817W        W44585  31.491  10.377  11.591
80818W        W44586  33.068   7.307  11.520
80819W        W44587  25.596   3.254   2.780
80820W        W44588  17.083  28.048   4.214
80821W        W44589  16.767  42.282   0.282
80822W        W44590  38.424  39.995  11.044
80823W        W44591  21.166  34.453   2.899
80824W        W44592  22.109  44.264   4.209
80825W        W44593  22.717   1.811   2.202
80826W        W44594   9.745  30.042   2.732
80827W        W44595   1.327  16.682   3.379
80828W        W44596  13.846  12.321  14.501
80829W        W44597  10.761   2.316   4.740
80830W        W44598  38.827  21.670   3.271
80831W        W44599  44.847  40.351  12.094
80832W        W44600  23.120  20.075   2.895
80833W        W44601  44.354  33.571  12.346
80834W        W44602  15.738  15.700   3.342
80835W        W44603  25.501  21.629   0.474
80836W        W44604  21.026  21.628   2.308
80837W        W44605  38.570  24.479   2.891
80838W        W44606   6.715  22.557  11.444
80839W        W44607  24.996  17.575  14.382
80840W        W44608  38.974  34.545   4.838
80841W        W44609   5.362  30.631  13.513
80842W        W44610  24.626  37.339  11.574
80843W        W44611   6.408   1.774   4.304
80844W        W44612  35.007  10.708   1.293
80845W        W44613  39.911   2.955   0.388
80846W        W44614   4.260  42.991  10.932
80847W        W44615  39.509  33.495   1.717
80848W        W44616  16.812  31.109   5.247
80849W        W44617  24.188  31.981   0.341
80850W        W44618   2.723   7.692  11.033
80851W        W44619  13.835  17.104   1.264
80852W        W44620  33.021   8.884   2.183
80853W        W44621  34.105   4.781   0.329
80854W        W44622  44.849  27.561   4.666
80855W        W44623  21.552  19.540  11.065
80856W        W44624   8.700   1.242  14.804
80857W        W44625  12.264  12.173   4.683
80858W        W44626  10.238  44.815  14.885
80859W        W44627  31.995  43.943   2.403
80860W        W44628  13.601  14.192   4.254
80861W        W44629  15.266  11.677  14.373
80862W        W44630  22.507   8.830   3.261
80863W        W44631  36.936  10.637  10.979
80864W        W44632  20.583  38.040  10.639
80865W        W44633  38.963  29.452   4.329
80866W        W44634  44.808  24.676   0.373
80867W        W44635  30.139  28.134  13.467
80868W        W44636  44.940  13.665   0.269
80869W        W44637   6.308  36.377   0.875
80870W        W44638  10.230   2.360  11.971
80871W        W44639  44.360  41.998   4.195
80872W        W44640  17.749  29.003  12.024
80873W        W44641   7.726  42.487   3.265
80874W        W44642  32.589  21.152  14.813
80875W        W44643  19.686  30.604  14.861
80876W        W44644  43.853  32.885   2.317
80877W        W44645  10.863  26.113   3.766
80878W        W44646   4.324  25.095   0.444
80879W        W44647  34.449  33.023   2.218
80880W        W44648  36.987   7.831  10.966
80881W        W44649  28.503  22.541   1.862
80882W        W44650  33.007  20.244   2.859
80883W        W44651   4.258  24.495  14.908
80884W        W44652  13.307  36.436   3.304
80885W        W44653  28.591  42.964   4.135
80886W        W44654  11.268  27.092   4.739
80887W        W44655  14.198  44.992   2.252
80888W        W44656  27.113  37.962   4.299
80889W        W44657  31.043  13.263  11.604
80890W        W44658  17.764  28.999   2.828
80891W        W44659   0.783  24.631  11.566
80892W        W44660  35.050  12.690  13.974
80893W        W44661  12.816  28.629   4.640
80894W        W44662  14.732  32.988  12.576
80895W        W44663   6.872  35.526   4.144
80896W        W44664   8.279  40.391   2.200
80897W        W44665   7.687  32.494   3.699
80898W        W44666  25.538  29.919   4.776
80899W        W44667  20.134  43.911   4.242
80900W        W44668  15.790  28.560   2.257
80901W        W44669  32.075  44.413  14.389
80902W        W44670  38.389  10.369   2.726
80903W        W44671  44.807  42.845   3.229
80904W        W44672  21.569  33.033   3.749
80905W        W44673  40.504  44.495   9.967
80906W        W44674  21.660  40.906  13.435
80907W        W44675  22.045  23.175  14.795
80908W        W44676  28.140  20.109  10.520
80909W        W44677  24.615  36.886  14.467
80910W        W44678  38.479   0.968  11.105
80911W        W44679  10.870  28.051   2.870
80912W        W44680  18.148  32.566   1.355
80913W        W44681  28.172  40.867  14.005
80914W        W44682  28.120   8.871   2.835
80915W        W44683  32.959  29.173   0.868
80916W        W44684   9.254   3.267  11.545
80917W        W44685   3.927  21.729  13.990
80918W        W44686  39.492  31.940   9.465
80919W        W44687   0.768  38.844  13.880
80920W        W44688  19.281  22.102  11.007
80921W        W44689  21.516  29.667   0.311
80922W        W44690  40.436  15.632   4.327
80923W        W44691  32.398  43.816  14.888
80924W        W44692  23.709   6.755  13.418
80925W        W44693  34.537  19.259   1.848
80926W        W44694  40.416  24.622  11.958
80927W        W44695  12.831  14.186   4.195
80928W        W44696  29.648  34.935  11.897
80929W        W44697  22.639  15.792  13.849
80930W        W44698  15.622  16.581  11.492
80931W        W44699  23.063  26.628   0.291
80932W        W44700  29.533  12.610   3.292
80933W        W44701   6.224   5.763  14.031
80934W        W44702  21.107  28.171   0.803
80935W        W44703  35.038   8.222  10.996
80936W        W44704  25.083  23.708   0.271
80937W        W44705  41.834   6.710   2.210
80938W        W44706  42.865  17.766   0.436
80939W        W44707   4.303  33.392  14.921
80940W        W44708   4.408   9.674   0.829
80941W        W44709  24.532  38.397   4.173
80942W        W44710  25.572   9.719  10.091
80943W        W44711  13.670  35.988  12.385
80944W        W44712  26.038  13.254   3.214
80945W        W44713  12.357  32.930   0.782
80946W        W44714  31.495   9.283   4.212
80947W        W44715  21.569  14.670  10.916
80948W        W44716  29.545  32.533   3.756
80949W        W44717  34.035  32.412  14.903
80950W        W44718  33.420  14.712   0.727
80951W        W44719  40.039  32.951   2.818
80952W        W44720   7.848   8.721   0.301
80953W        W44721   8.311  23.004  10.640
80954W        W44722  16.610   4.286  10.627
80955W        W44723  27.594  39.064   2.384
80956W        W44724  17.736  23.025  14.349
80957W        W44725   4.852  43.907  10.988
80958W        W44726  20.088  29.631  12.093
80959W        W44727  13.134  41.914  11.386
80960W        W44728  36.956  17.132  12.930
80961W        W44729  11.815  16.300   0.449
80962W        W44730  14.688  33.426   3.353
80963W        W44731   9.698   8.760  13.923
80964W        W44732  28.064  24.708  13.914
80965W        W44733  10.187  28.508  14.456
80966W        W44734  39.881  40.449   1.712
80967W        W44735  26.578  26.650   1.225
80968W        W44736  12.638  22.574  11.958
80969W        W44737  10.683  26.179  11.410
80970W        W44738  30.643  42.949  10.623
80971W        W44739  21.085  40.487  10.479
80972W        W44740   4.222   0.783  13.921
80973W        W44741  23.612  33.958  14.899
80974W        W44742   2.370  38.014  12.014
80975W        W44743   0.250  39.367  12.533
80976W        W44744  39.491  29.978  13.458
80977W        W44745  21.529  39.934  13.894
80978W        W44746  37.359   7.892   1.443
80979W        W44747   3.257  10.379   5.176
80980W        W44748  31.029   5.698  10.416
80981W        W44749   3.271   0.851  13.955
80982W        W44750  32.122  36.571   1.228
80983W        W44751   0.950   3.432   0.828
80984W        W44752  36.561  25.207   5.290
80985W        W44753   7.406   2.279  12.518
80986W        W44754  13.128  17.218  10.472
80987W        W44755  10.842  39.060   0.855
80988W        W44756  19.159   6.277  13.369
80989W        W44757  43.022  25.570  11.028
80990W        W44758  16.685   9.249  14.924
80991W        W44759  32.480   3.858   0.320
80992W        W44760  37.423  36.024   0.267
80993W        W44761   1.740  20.664   2.358
80994W        W44762  23.734   2.396  12.966
80995W        W44763  27.071   4.272  12.060
80996W        W44764  18.561  36.884  11.962
80997W        W44765  42.306  35.021  14.275
80998W        W44766  38.547  28.467  11.483
80999W        W44767  40.979  18.610  13.548
81000W        W44768  40.479  37.002  12.932
81001W        W44769  14.608  41.843   2.402
81002W        W44770  24.587   3.336   3.658
81003W        W44771  24.223  10.682   2.369
81004W        W44772  29.152   3.223  13.992
81005W        W44773   9.338  31.013   0.366
81006W        W44774  34.489   4.886  13.905
81007W        W44775  33.070  10.848   4.679
81008W        W44776  24.535  36.982  12.504
81009W        W44777  33.083  18.232   0.269
81010W        W44778  33.083  22.705   3.152
81011W        W44779   4.283  15.775  10.910
81012W        W44780  44.401  26.201   0.327
81013W        W44781   9.280  13.748  14.430
81014W        W44782   6.694  15.238   2.270
81015W        W44783  26.597  44.435   5.221
81016W        W44784  40.389  44.258  11.559
81017W        W44785  29.637  34.910   1.228
81018W        W44786  26.612  20.184  11.517
81019W        W44787   3.794   6.246  10.912
81020W        W44788  42.304  36.870   4.348
81021W        W44789  12.326   3.738   3.309
81022W        W44790  24.618  41.472  14.916
81023W        W44791  15.162  40.041  10.485
81024W        W44792  43.793  10.225   3.689
81025W        W44793  19.737   7.875  14.432
81026W        W44794  16.601  34.423  10.940
81027W        W44795  14.785  26.162   4.280
81028W        W44796  20.608   2.403  12.392
81029W        W44797  29.070  42.306   3.630
81030W        W44798  19.051  29.135  12.896
81031W        W44799  41.420  37.912  14.944
81032W        W44800  13.664  38.989   9.956
81033W        W44801  33.415   1.368   0.873
81034W        W44802  10.309  42.424  12.859
81035W        W44803  39.017  25.206   1.749
81036W        W44804  41.526   7.311  13.910
81037W        W44805   6.690  31.970  13.825
81038W        W44806  38.420  10.854   2.700
81039W        W44807  26.684   2.774  14.032
81040W        W44808  18.149  34.548  12.381
81041W        W44809  37.553  28.583  13.064
81042W        W44810   2.470   2.456  11.508
81043W        W44811  30.582   3.402  13.037
81044W        W44812   7.180  30.634   0.733
81045W        W44813  37.378   9.374  13.537
81046W        W44814  26.603  15.284  11.380
81047W        W44815  13.331  30.128   0.898
81048W        W44816  34.036  15.171   1.756
81049W        W44817  22.039  10.785  13.981
81050W        W44818  27.466  31.918   0.729
81051W        W44819   9.366   9.855   4.121
81052W        W44820  44.909  11.299   1.819
81053W        W44821  23.685  34.060   3.225
81054W        W44822  24.666  19.144   1.894
81055W        W44823  26.562  22.104  13.498
81056W        W44824  28.064  10.345  10.100
81057W        W44825  44.979  29.427   4.299
81058W        W44826  13.636  15.193   0.442
81059W        W44827  10.160  33.087   1.785
81060W        W44828   6.323  12.137   1.773
81061W        W44829   8.231   2.928   2.837
81062W        W44830  33.016  38.997   0.376
81063W        W44831  34.113   1.473  13.410
81064W        W44832  11.303  12.728   1.450
81065W        W44833  30.530  24.584   1.280
81066W        W44834  43.896   1.247   2.400
81067W        W44835   4.775  10.725   3.718
81068W        W44836  33.031  40.317   2.388
81069W        W44837  41.382  15.107  13.061
81070W        W44838   6.293  13.328  12.480
81071W        W44839  30.498  39.022   4.783
81072W        W44840  35.099  30.596  14.804
81073W        W44841  30.026   4.914   2.367
81074W        W44842  28.981  25.128   2.390
81075W        W44843   0.851  16.098  10.511
81076W        W44844   1.315  23.613   1.805
81077W        W44845  33.603  35.894  11.013
81078W        W44846  36.469  18.179   5.129
81079W        W44847  26.620   3.836   3.151
81080W        W44848  25.067  39.845   4.186
81081W        W44849  41.977  30.951  11.897
81082W        W44850  25.557   4.851  10.936
81083W        W44851  37.357  37.519   3.227
81084W        W44852   3.286  12.668   2.276
81085W        W44853   8.201   3.817  14.491
81086W        W44854   6.283  36.443  12.001
81087W        W44855  14.258  29.073  13.831
81088W        W44856   6.783   1.971  13.005
81089W        W44857   6.700   9.861   0.321
81090W        W44858   6.289  19.659  11.381
81091W        W44859  28.444  35.043   0.821
81092W        W44860  26.022  39.555   3.211
81093W        W44861  18.752  11.785  12.512
81094W        W44862  18.572  18.284  14.829
81095W        W44863  29.428  17.239   5.094
81096W        W44864  33.970  11.673   2.815
81097W        W44865   1.481  32.903   1.324
81098W        W44866   0.896  41.400  12.028
81099W        W44867  34.074  30.054  10.971
81100W        W44868  29.563  19.630  13.983
81101W        W44869  20.543   4.404   4.617
81102W        W44870  21.665  11.280   4.741
81103W        W44871   3.875   6.840  11.502
81104W        W44872  27.999  14.181  11.523
81105W        W44873   3.895   0.436   4.639
81106W        W44874  32.966   4.348   0.352
81107W        W44875  18.591  17.263   1.769
81108W        W44876  30.922  16.733   4.214
81109W        W44877  33.949  28.119  11.948
81110W        W44878  36.432  37.382  12.547
81111W        W44879  19.653   6.289   1.219
81112W        W44880  10.716  34.010   2.216
81113W        W44881  17.642   9.879  13.942
81114W        W44882  15.695  30.535   0.866
81115W        W44883  28.056   1.776  13.447
81116W        W44884   1.303  35.415  11.524
81117W        W44885   3.759  25.588   0.264
81118W        W44886  36.487  24.537   3.631
81119W        W44887   3.934  42.904   4.218
81120W        W44888   0.770  11.207   0.310
81121W        W44889  26.648   5.695   2.341
81122W        W44890   5.412   3.907   4.353
81123W        W44891  17.753  14.594   0.731
81124W        W44892  31.047   9.354  14.908
81125W        W44893  32.056  19.562   5.222
81126W        W44894   8.759  24.573  13.042
81127W        W44895  13.698  23.533   5.108
81128W        W44896  12.292  22.046   4.141
81129W        W44897  20.713  28.048  12.012
81130W        W44898  10.732  26.021   3.326
81131W        W44899   2.844  26.628   1.773
81132W        W44900  28.637  34.118  14.009
81133W        W44901   0.348   7.760   1.809
81134W        W44902  21.072  12.315   4.659
81135W        W44903  22.740   9.834   1.319
81136W        W44904  22.125   6.347  14.790
81137W        W44905   1.309  20.733   0.482
81138W        W44906  31.505  16.709  11.025
81139W        W44907  17.650  20.054   5.664
81140W        W44908  38.889  31.444  12.550
81141W        W44909   0.917  41.502   2.871
81142W        W44910   7.185  35.039  14.310
81143W        W44911   5.769  15.737  12.361
81144W        W44912  17.163   4.800   0.871
81145W        W44913   9.808  18.774   1.237
81146W        W44914  15.673  38.447   3.842
81147W        W44915  16.191  21.622   0.762
81148W        W44916  30.926  17.268  12.431
81149W        W44917   0.300   3.384   2.382
81150W        W44918   0.329  13.212   1.733
81151W        W44919  39.327  39.527  12.376
81152W        W44920  15.645  10.867   2.742
81153W        W44921  30.131  36.475  11.611
81154W        W44922  34.993   5.199  10.459
81155W        W44923   4.238  26.100  10.479
81156W        W44924  22.537  35.385  14.777
81157W        W44925  39.914  38.873   1.777
81158W        W44926  18.658  38.527  11.489
81159W        W44927  34.584  34.552  13.346
81160W        W44928  41.863   5.836  10.467
81161W        W44929  30.055  43.289  14.298
81162W        W44930  15.256  17.694   1.843
81163W        W44931  32.390  36.349   2.357
81164W        W44932  33.532  38.055   0.263
81165W        W44933  26.144  15.205  13.021
81166W        W44934   5.424  24.186  10.499
81167W        W44935  35.562   9.349   3.298
81168W        W44936  16.246  32.604  10.927
81169W        W44937  20.071  24.575  12.411
81170W        W44938  40.476   2.737  10.534
81171W        W44939  28.502  38.520   1.368
81172W        W44940   5.860  15.231   3.365
81173W        W44941  42.391   2.798   0.836
81174W        W44942  25.055  14.219  12.434
81175W        W44943  22.243   5.785   2.884
81176W        W44944  11.690  36.511  10.462
81177W        W44945  22.556  15.143   1.710
81178W        W44946  31.897  18.094   3.287
81179W        W44947  26.608  39.006  13.462
81180W        W44948  22.119  28.611  13.035
81181W        W44949  13.208  29.030  13.360
81182W        W44950  36.955   9.255  10.979
81183W        W44951   1.790  35.952  14.991
81184W        W44952  14.180  25.072   1.422
81185W        W44953   5.310  27.652   4.184
81186W        W44954  34.614   4.938  10.541
81187W        W44955   0.987   7.203   1.256
81188W        W44956  42.010  19.078   2.891
81189W        W44957   5.811   2.452  12.461
81190W        W44958   5.809  22.248  12.825
81191W        W44959  34.085  14.104   3.274
81192W        W44960  40.982  25.470  13.931
81193W        W44961  17.238   3.220  12.523
81194W        W44962  40.448  24.127   2.785
81195W        W44963  41.022  18.120   4.118
81196W        W44964   5.785  12.217   0.430
81197W        W44965  20.754  42.491  10.520
81198W        W44966  34.894  19.545   2.793
81199W        W44967  29.646  20.248   0.829
81200W        W44968  20.616  32.013  14.849
81201W        W44969   3.715  13.309   0.937
81202W        W44970  38.335  24.181  12.046
81203W        W44971  12.343  34.073  13.918
81204W        W44972  28.984  39.432   1.881
81205W        W44973   6.303  34.464   5.130
81206W        W44974  17.171  39.882  14.463
81207W        W44975  32.616  39.845  11.595
81208W        W44976  33.975  41.450   4.185
81209W        W44977  31.103  16.269   3.711
81210W        W44978  29.112  42.436  11.449
81211W        W44979  30.985  19.259   2.288
81212W        W44980  29.077   4.772   3.717
81213W        W44981  14.177  29.545   2.186
81214W        W44982  13.842  17.681   2.723
81215W        W44983  24.679  15.656  11.978
81216W        W44984  10.821  10.683   3.175
81217W        W44985  18.548  21.028   1.353
81218W        W44986  22.100  11.164   0.776
81219W        W44987   8.869  17.077   3.716
81220W        W44988  34.395  33.611   0.384
81221W        W44989  40.819  34.602   0.770
81222W        W44990  36.897  14.255   3.695
81223W        W44991  33.616  38.005  12.424
81224W        W44992  19.639  37.572  14.898
81225W        W44993  27.507  31.081   2.793
81226W        W44994  28.466  44.343  14.334
81227W        W44995   3.800  13.681  12.956
81228W        W44996  43.302  40.842   1.291
81229W        W44997  17.167  10.292  11.447
81230W        W44998  39.857  12.269   1.350
81231W        W44999  34.478  35.103   0.294
81232W        W45000  17.627  29.102  13.964
81233W        W45001  35.038  18.737  11.865
81234W        W45002  39.858  34.591   3.291
81235W        W45003  16.596  40.432   2.877
81236W        W45004  17.128  11.257   2.833
81237W        W45005   7.772  41.879  11.392
81238W        W45006  34.891   9.312   0.410
81239W        W45007  11.724  24.054   5.264
81240W        W45008  38.516   4.436   4.794
81241W        W45009   5.893  26.193   4.188
81242W        W45010  20.699  17.713   3.750
81243W        W45011  39.819   2.967  10.484
81244W        W45012  37.479  31.139  11.078
81245W        W45013  21.654  17.799   2.681
81246W        W45014  24.023  20.094  10.993
81247W        W45015  23.571   2.339   4.136
81248W        W45016  37.510   5.778   3.652
81249W        W45017  11.804   0.372  14.372
81250W        W45018  30.553  36.936   2.674
81251W        W45019  36.015   8.751   3.728
81252W        W45020   9.188  15.593   3.186
81253W        W45021  25.092  31.543  10.052
81254W        W45022  16.721  14.729   3.805
81255W        W45023   9.673  42.917   1.335
81256W        W45024  34.973  20.691  13.056
81257W        W45025  27.027  14.335   2.185
81258W        W45026  33.957  29.480  11.984
81259W        W45027  18.779  14.336   3.774
81260W        W45028  27.983  34.577   0.479
81261W        W45029   5.277  41.304   4.270
81262W        W45030  35.436  21.033  14.420
81263W        W45031  43.374   2.873  11.958
81264W        W45032  33.941  32.948   0.832
81265W        W45033   9.889  17.101  11.096
81266W        W45034  17.667   1.774  13.314
81267W        W45035  23.599  19.126  10.962
81268W        W45036  33.461  39.015  13.429
81269W        W45037   0.492  14.121   3.292
81270W        W45038  18.544   1.943  13.479
81271W        W45039   6.788  35.915  12.533
81272W        W45040  32.005   5.828  12.538
81273W        W45041  15.312  16.667   0.283
81274W        W45042   8.775  32.539   1.700
81275W        W45043  29.540  30.430   2.243
81276W        W45044  22.626   4.303   1.409
81277W        W45045  26.593  20.705   1.757
81278W        W45046  13.607   5.232   3.278
81279W        W45047  27.974  30.996   1.755
81280W        W45048  31.089   0.787  11.048
81281W        W45049  16.734  22.198  10.416
81282W        W45050  38.971  18.724   1.908
81283W        W45051  34.539  43.418  11.017
81284W        W45052  40.467  24.166  13.792
81285W        W45053  41.860  18.647   3.704
81286W        W45054   6.229  30.008  13.464
81287W        W45055  22.601  44.317  13.486
81288W        W45056  31.960  37.510  11.542
81289W        W45057  28.594  28.997   0.943
81290W        W45058  11.632  24.645  10.589
81291W        W45059   6.740   6.228   0.255
81292W        W45060  13.148  43.329  11.387
81293W        W45061  43.991  15.791  13.001
81294W        W45062  27.654  26.155  14.392
81295W        W45063   0.398  33.942   4.730
81296W        W45064  11.131  15.640   2.385
81297W        W45065  10.174  34.511   2.774
81298W        W45066  27.652  27.689  13.412
81299W        W45067  24.640  25.699   0.948
81300W        W45068   9.659  10.359  11.435
81301W        W45069  11.220  37.425   4.792
81302W        W45070  36.404  24.029  11.892
81303W        W45071   8.244  42.782   3.171
81304W        W45072  39.411  32.938   5.218
81305W        W45073  28.937  11.233  11.974
81306W        W45074  35.507  36.593  12.027
81307W        W45075  37.366   4.448  12.462
81308W        W45076  40.400  36.357   0.811
81309W        W45077  42.990  20.131  14.389
81310W        W45078   0.386  22.567  11.496
81311W        W45079  15.213  26.968  12.876
81312W        W45080  21.105  14.679   1.884
81313W        W45081  16.292   7.259   2.704
81314W        W45082  10.258  24.007   4.116
81315W        W45083  13.109  34.034   4.325
81316W        W45084  28.558  18.589   4.737
81317W        W45085  16.680   5.237  11.063
81318W        W45086  44.873  23.652   1.349
81319W        W45087  23.581  26.029  14.911
81320W        W45088  29.432  44.768  11.478
81321W        W45089  36.572  12.650   1.871
81322W        W45090  11.690  18.050   3.653
81323W        W45091  12.801  21.097   1.848
81324W        W45092   2.912   2.729  14.933
81325W        W45093  28.613  24.213   3.744
81326W        W45094  28.985  18.116  12.507
81327W        W45095  35.919  16.120   4.674
81328W        W45096  28.595  21.518   0.386
81329W        W45097  22.714  12.314   9.985
81330W        W45098  31.918  32.094   5.204
81331W        W45099  20.569  24.198  12.888
81332W        W45100  23.175  27.094   3.333
81333W        W45101   9.853  44.946  12.017
81334W        W45102  27.620  26.655   5.146
81335W        W45103  29.968  19.551   0.340
81336W        W45104  18.619  28.103   2.880
81337W        W45105  15.271  25.190   5.193
81338W        W45106  10.797  33.041   4.612
81339W        W45107  42.354  31.092  11.526
81340W        W45108  17.657  41.472  14.418
81341W        W45109  16.091  16.171   1.408
81342W        W45110   2.299  23.991   2.720
81343W        W45111  31.501  33.435  10.562
81344W        W45112  29.985  11.190  10.908
81345W        W45113   0.770  38.536  10.028
81346W        W45114   0.287  42.385   4.643
81347W        W45115  27.474   0.266   2.252
81348W        W45116   3.710  27.567   1.873
81349W        W45117  39.423  15.583  12.983
81350W        W45118  37.570  33.085   1.911
81351W        W45119  17.104  32.017  13.023
81352W        W45120  23.508   2.730   1.445
81353W        W45121   0.935  42.838  14.421
81354W        W45122  42.311  32.946  12.991
81355W        W45123   8.248  21.078  12.870
81356W        W45124  35.573  27.064  13.822
81357W        W45125  17.762  16.138   1.244
81358W        W45126  23.068  34.099   1.281
81359W        W45127  13.214  41.890  14.825
81360W        W45128  11.313  32.489   1.794
81361W        W45129  24.160  25.135   4.223
81362W        W45130  16.568  35.918   1.387
81363W        W45131  35.507  27.498  13.958
81364W        W45132  12.243   5.399   0.926
81365W        W45133  35.049  31.422   2.212
81366W        W45134  22.731  20.161  10.577
81367W        W45135  32.617  26.061   0.374
81368W        W45136  37.506  21.092  14.968
81369W        W45137  29.079  41.352  13.890
81370W        W45138  34.981  43.871  14.991
81371W        W45139  18.586  18.068  10.600
81372W        W45140  41.330  34.542  10.949
81373W        W45141  23.030   2.940   2.796
81374W        W45142  22.561  37.373   2.312
81375W        W45143  18.117   8.669  11.933
81376W        W45144  35.951  23.720   0.432
81377W        W45145  34.911  17.109  11.952
81378W        W45146  20.117   3.283   0.859
81379W        W45147   5.392  23.543  13.852
81380W        W45148  30.940  34.377   0.266
81381W        W45149   8.845  42.836  12.982
81382W        W45150  44.858  26.186  11.485
81383W        W45151  30.579  11.132   3.328
81384W        W45152  18.284  12.342  12.018
81385W        W45153  31.988  36.015  12.854
81386W        W45154  24.576  42.942  12.536
81387W        W45155   7.669  11.162   3.807
81388W        W45156   6.688  22.239  13.378
81389W        W45157  26.113  43.347   3.797
81390W        W45158   8.162  24.166  13.811
81391W        W45159  17.689   8.339   2.693
81392W        W45160  23.620   7.723  14.945
81393W        W45161  20.078  31.007  10.629
81394W        W45162  28.101  13.599  12.431
81395W        W45163  27.481  22.661  14.881
81396W        W45164  30.568   0.874   0.905
81397W        W45165  39.889  17.715  12.520
81398W        W45166   3.922   9.153  12.520
81399W        W45167  15.145  44.960  14.342
81400W        W45168   1.330  28.141  12.527
81401W        W45169  36.524  29.019  14.510
81402W        W45170  31.600   6.216   1.384
81403W        W45171  39.556  36.454   1.859
81404W        W45172  30.636  14.113  11.115
81405W        W45173   4.932  10.705  12.835
81406W        W45174   2.780  27.069  12.513
81407W        W45175  37.399  21.678   3.219
81408W        W45176  40.806  20.263   1.764
81409W        W45177  44.884   0.836  12.845
81410W        W45178  33.950  25.094   3.171
81411W        W45179  22.702   5.904   0.364
81412W        W45180  31.449  22.063  13.003
81413W        W45181  36.977  15.209  14.789
81414W        W45182  27.945  17.183   4.269
81415W        W45183  42.296  38.415  10.899
81416W        W45184  11.177  16.109  11.115
81417W        W45185  42.007  35.478   1.316
81418W        W45186  34.959   7.275   3.328
81419W        W45187  37.406  32.528  12.430
81420W        W45188  42.467  11.361   2.780
81421W        W45189   0.384  36.058   0.258
81422W        W45190  26.486  19.637  13.432
81423W        W45191  37.468  20.528   1.781
81424W        W45192   0.742  33.103   0.369
81425W        W45193  25.703  10.269  11.429
81426W        W45194  25.972  43.492  14.830
81427W        W45195   3.917  38.908  14.499
81428W        W45196  29.492  44.797   4.323
81429W        W45197  38.482  24.030  12.873
81430W        W45198  14.308  14.669  14.776
81431W        W45199  13.756  19.087  10.491
81432W        W45200   2.960  30.554  13.792
81433W        W45201   6.250  15.687   3.260
81434W        W45202  21.106  37.398   2.824
81435W        W45203   6.301   8.221  12.006
81436W        W45204  18.683  29.927  12.915
81437W        W45205  16.789   6.854  14.983
81438W        W45206   8.747   8.892  11.127
81439W        W45207  27.999  17.670  12.579
81440W        W45208  28.584  29.054   1.434
81441W        W45209  42.402  40.919   3.266
81442W        W45210   7.395  24.072   3.153
81443W        W45211   5.727  38.845  11.569
81444W        W45212  36.858   4.226  10.929
81445W        W45213  16.281  44.838  13.923
81446W        W45214  16.788  11.815   1.221
81447W        W45215  16.780  35.047   4.321
81448W        W45216  34.004   0.482   0.737
81449W        W45217  40.982  31.931  11.484
81450W        W45218  14.704  35.535   4.298
81451W        W45219  25.490  26.984   0.885
81452W        W45220  24.053  43.510  11.964
81453W        W45221   5.907  41.948   2.820
81454W        W45222   0.472  34.915  12.359
81455W        W45223  25.979  13.761  13.315
81456W        W45224  20.637   1.918   1.724
81457W        W45225  27.609  12.814  10.478
81458W        W45226   1.301  37.972  14.880
81459W        W45227  41.459  29.614   4.600
81460W        W45228  10.659  23.124  14.869
81461W        W45229  33.508  11.853  14.864
81462W        W45230   0.843  12.738  12.994
81463W        W45231  34.585   4.356  10.483
81464W        W45232  37.015   1.359   3.307
81465W        W45233  22.581   3.835   2.302
81466W        W45234  31.591   5.771   0.475
81467W        W45235  12.156  40.046  11.092
81468W        W45236  26.065  11.644   2.852
81469W        W45237  30.612  30.437   4.705
81470W        W45238  37.986   4.932  11.437
81471W        W45239  43.416  23.606  12.564
81472W        W45240  29.998  20.599   1.804
81473W        W45241   6.415   0.341  13.004
81474W        W45242  41.316   3.746   3.744
81475W        W45243  16.102  44.300   3.861
81476W        W45244  43.862  29.438  14.840
81477W        W45245  42.783  12.679   3.254
81478W        W45246  43.496  31.061   0.767
81479W        W45247  28.098   2.337   0.296
81480W        W45248  25.179  15.155   2.829
81481W        W45249  11.316  36.065  10.501
81482W        W45250  37.465   6.409   5.737
81483W        W45251  32.543  31.525  13.933
81484W        W45252  29.008  12.304   3.676
81485W        W45253  21.235  18.744   5.115
81486W        W45254  26.102  35.488  12.909
81487W        W45255  28.096   7.334   0.374
81488W        W45256   5.913   9.244  11.103
81489W        W45257  24.585  44.958   1.741
81490W        W45258   1.912   2.779  14.280
81491W        W45259  10.659  20.212   1.443
81492W        W45260  26.951   1.292  10.923
81493W        W45261  18.724  40.361   4.634
81494W        W45262  42.847  24.215   0.384
81495W        W45263  26.521  37.539   1.919
81496W        W45264  43.423  37.520  13.363
81497W        W45265  15.145   7.193   1.898
81498W        W45266  30.011  15.724  13.922
81499W        W45267  15.098  36.936  14.429
81500W        W45268  17.152   6.198  11.438
81501W        W45269  37.472  37.455  12.541
81502W        W45270  37.501  16.806   2.751
81503W        W45271  37.040   1.740  11.010
81504W        W45272   2.236  39.870  12.441
81505W        W45273  42.379  34.453  13.409
81506W        W45274  39.315  28.000   0.283
81507W        W45275  31.493  16.132   0.353
81508W        W45276  37.845  22.239  12.463
81509W        W45277   9.647  40.357   0.344
81510W        W45278  17.621  43.002   1.384
81511W        W45279   8.732   3.221   4.343
81512W        W45280   8.202  13.312   0.375
81513W        W45281  19.759  17.221  11.986
81514W        W45282  24.988  26.569   5.099
81515W        W45283  13.822  15.742   2.411
81516W        W45284  12.743  31.563  14.444
81517W        W45285  14.314  28.173  11.484
81518W        W45286  26.572  10.645  13.435
81519W        W45287  18.626  25.482  14.831
81520W        W45288  24.490  17.766   1.863
81521W        W45289  41.529  11.671   1.257
81522W        W45290  14.104  36.554   4.829
81523W        W45291  21.039  12.286  11.390
81524W        W45292  28.955  35.007   1.736
81525W        W45293  33.506  13.795   3.825
81526W        W45294  44.984  16.170   1.880
81527W        W45295  20.757   3.299  11.526
81528W        W45296  38.368   8.378   2.380
81529W        W45297   0.825  20.101  11.493
81530W        W45298   1.324   8.264  13.471
81531W        W45299  20.590  17.123  11.478
81532W        W45300  37.526  11.688  12.937
81533W        W45301   3.271  36.957  12.931
81534W        W45302  42.886  25.126   2.359
81535W        W45303  22.518  32.068  13.852
81536W        W45304  37.506  18.754  14.446
81537W        W45305  32.602   4.257  12.559
81538W        W45306  24.589  28.648   2.244
81539W        W45307  11.762  31.591  13.028
81540W        W45308   1.962  27.007   0.755
81541W        W45309  21.665   3.401   5.251
81542W        W45310  23.686   9.326  12.504
81543W        W45311  34.087  24.132  10.615
81544W        W45312   0.935   2.936   4.337
81545W        W45313  39.054   4.267  14.472
81546W        W45314  33.487   9.733  10.631
81547W        W45315   1.469  40.934   0.353
81548W        W45316   4.445   1.735   1.405
81549W        W45317  37.967  16.653   4.182
81550W        W45318  25.668  17.123   2.869
81551W        W45319  29.938  30.648  12.380
81552W        W45320  40.404  29.592   2.291
81553W        W45321   4.426  30.578   2.851
81554W        W45322  28.537  17.245   3.832
81555W        W45323  36.388  12.212   0.454
81556W        W45324   5.859  44.823   2.864
81557W        W45325   4.421   3.270   1.404
81558W        W45326  39.053  17.269   1.883
81559W        W45327  16.695   9.856  11.403
81560W        W45328  21.031   0.953   2.197
81561W        W45329  13.110  42.961  12.544
81562W        W45330   6.908  19.723  14.396
81563W        W45331  13.169  35.037  11.991
81564W        W45332  19.259   0.757   0.878
81565W        W45333  36.969  17.297   0.889
81566W        W45334  22.690  41.819   1.813
81567W        W45335  35.907  20.675   2.392
81568W        W45336  13.740   9.849   4.266
81569W        W45337  12.792  13.149  11.871
81570W        W45338  39.906   7.237  10.466
81571W        W45339  42.311  36.405  12.461
81572W        W45340  12.300  28.977   2.343
81573W        W45341  35.077   2.456  12.485
81574W        W45342  32.040  29.162  14.999
81575W        W45343  28.125  37.340  12.454
81576W        W45344  21.146  42.961   0.841
81577W        W45345  27.132  14.669   1.924
81578W        W45346   7.912   0.889  14.297
81579W        W45347   8.854   5.397  12.845
81580W        W45348   8.890   7.909   2.305
81581W        W45349  23.211  33.120  10.894
81582W        W45350  16.749  13.682   0.256
81583W        W45351  21.617  14.683  13.996
81584W        W45352   8.790   0.863  13.375
81585W        W45353  15.092   4.913  14.274
81586W        W45354  23.001  25.993  11.528
81587W        W45355  38.496   1.764  13.801
81588W        W45356  14.822   4.432   3.183
81589W        W45357   8.893  40.948   3.158
81590W        W45358  24.090  36.496  13.957
81591W        W45359  25.658  14.226   0.750
81592W        W45360  44.769  16.740  12.834
81593W        W45361  27.165  20.572   4.669
81594W        W45362  43.831  18.544   3.719
81595W        W45363  42.331   2.307  14.025
81596W        W45364   6.704  10.180  11.496
81597W        W45365  29.445  21.086   4.835
81598W        W45366  36.470  27.970  11.454
81599W        W45367   0.357  41.962   1.372
81600W        W45368  30.003  20.648  12.902
81601W        W45369   2.765   4.222   1.381
81602W        W45370  17.135  38.964  12.056
81603W        W45371  20.523  41.828  12.489
81604W        W45372   7.402   2.297  13.360
81605W        W45373   0.807  10.866   3.205
81606W        W45374  29.012  26.039  14.981
81607W        W45375  28.181  28.635   9.930
81608W        W45376  19.079  40.532  12.937
81609W        W45377   3.755  11.662   2.211
81610W        W45378  25.005  15.684   0.856
81611W        W45379  12.806  17.689   0.839
81612W        W45380  10.656  29.641   4.741
81613W        W45381  32.427   1.375   2.781
81614W        W45382   7.360  44.455   4.338
81615W        W45383  33.562   5.894  13.934
81616W        W45384  24.152  38.528   2.814
81617W        W45385   3.750  35.048  11.506
81618W        W45386  19.187  14.264   2.372
81619W        W45387  39.515  36.879  13.358
81620W        W45388   4.737  16.271   4.121
81621W        W45389   3.307  39.850   3.184
81622W        W45390   9.790  15.770  12.549
81623W        W45391  20.649  16.270   4.145
81624W        W45392  11.355   2.368  14.298
81625W        W45393   3.451  40.467   4.748
81626W        W45394   9.697  10.271  10.076
81627W        W45395  40.862  30.036   0.965
81628W        W45396   9.644   2.349   1.872
81629W        W45397   8.797  44.924   4.256
81630W        W45398  22.011  32.957  13.369
81631W        W45399   4.242  19.660  11.020
81632W        W45400  12.288   4.368   2.260
81633W        W45401   5.285   0.468   0.859
81634W        W45402  33.979  18.264   0.272
81635W        W45403  19.149  14.303   4.156
81636W        W45404  36.884  40.933   3.695
81637W        W45405  21.021  21.087   2.899
81638W        W45406  28.123  12.201  10.889
81639W        W45407  10.666  10.644  13.316
81640W        W45408   7.265  32.553  12.553
81641W        W45409  43.353  10.325   3.292
81642W        W45410  23.709  20.522  11.042
81643W        W45411  10.733  10.168  11.013
81644W        W45412  23.236  10.243  12.081
81645W        W45413   1.811  28.464  13.808
81646W        W45414  16.233  30.447   1.342
81647W        W45415  21.546   4.343  14.437
81648W        W45416  19.049  27.127  14.815
81649W        W45417  20.674  28.038   1.884
81650W        W45418  16.148  10.179   3.306
81651W        W45419  41.372  37.960   4.138
81652W        W45420  35.067   3.739  13.468
81653W        W45421  17.743  40.910   1.885
81654W        W45422  20.030  30.489   2.800
81655W        W45423  21.564  42.941  12.468
81656W        W45424  38.017  44.274   0.887
81657W        W45425  12.715  25.520   1.429
81658W        W45426  11.209  43.433  10.547
81659W        W45427   3.739  11.258   1.792
81660W        W45428   4.779  32.905  12.361
81661W        W45429  18.610  31.416  11.017
81662W        W45430  28.997  30.004   2.246
81663W        W45431  14.180  44.000   3.341
81664W        W45432  18.057  42.978   1.214
81665W        W45433   2.357   6.229   3.248
81666W        W45434  19.258  24.693   5.112
81667W        W45435  37.554  27.667  12.396
81668W        W45436  22.043  44.305   0.869
81669W        W45437   3.943  12.788  14.993
81670W        W45438  24.536   1.458   0.479
81671W        W45439  38.841  33.573   0.761
81672W        W45440  44.399   7.730  12.964
81673W        W45441  43.279  17.246  12.997
81674W        W45442   9.674  40.932   4.608
81675W        W45443  14.686  29.580  14.021
81676W        W45444  25.649  24.174   3.850
81677W        W45445  33.535  32.611  14.810
81678W        W45446  18.616   8.746   3.675
81679W        W45447   9.709   6.860   0.362
81680W        W45448   4.301  18.225  13.371
81681W        W45449  25.168  39.042  11.524
81682W        W45450  22.086  30.604   2.276
81683W        W45451  24.144   9.850  13.371
81684W        W45452  41.384  32.936  14.384
81685W        W45453   6.833  35.030  12.481
81686W        W45454   4.889  31.143   0.731
81687W        W45455  25.517  13.273   1.741
81688W        W45456  18.141  22.691  13.488
81689W        W45457  21.027  18.598  12.420
81690W        W45458   3.401   8.772   1.861
81691W        W45459  23.007  23.662  13.466
81692W        W45460  24.974  13.762  10.448
81693W        W45461  14.627  37.417  13.362
81694W        W45462   5.340   5.888   2.408
81695W        W45463  44.774   5.310   3.692
81696W        W45464   0.867  19.162   1.219
81697W        W45465  21.191   1.384  13.057
81698W        W45466  19.100  32.117  14.818
81699W        W45467  29.108   0.348   1.242
81700W        W45468  29.566  24.207  10.431
81701W        W45469  31.917  38.925  14.334
81702W        W45470  25.057   2.957  13.348
81703W        W45471  27.670  35.107  11.077
81704W        W45472  39.982  18.108  14.362
81705W        W45473  39.958  41.886  11.586
81706W        W45474   2.888  27.981  13.794
81707W        W45475  13.819  18.134   5.261
81708W        W45476   8.234   9.687  10.592
81709W        W45477  13.145   4.753   2.301
81710W        W45478   4.739  44.877   0.292
81711W        W45479  11.211  28.030  10.501
81712W        W45480  25.556  19.189   1.752
81713W        W45481  10.781  16.629   3.686
81714W        W45482   7.336  18.051   0.259
81715W        W45483   4.849  26.201  14.365
81716W        W45484  12.787   2.723   3.235
81717W        W45485  23.554   7.759   0.949
81718W        W45486  36.006  26.617  10.473
81719W        W45487  40.825  29.461   0.248
81720W        W45488   7.892  30.556  10.914
81721W        W45489  16.613  22.505   3.744
81722W        W45490   0.899  27.541   0.936
81723W        W45491   4.429  43.430  13.987
81724W        W45492  13.346  35.501  12.359
81725W        W45493  26.476  11.220  14.896
81726W        W45494   8.395  27.168   3.865
81727W        W45495  14.829  25.683  12.967
81728W        W45496  22.028   5.233  14.286
81729W        W45497  38.481  13.730   0.940
81730W        W45498  19.731   7.180   2.278
81731W        W45499  28.614  23.608   3.678
81732W        W45500  40.443   3.254   3.234
81733W        W45501   9.673  17.562   0.777
81734W        W45502  35.973  20.137  11.969
81735W        W45503   9.677  39.822  11.917
81736W        W45504  21.708  40.378   1.290
81737W        W45505  34.926  40.466  11.460
81738W        W45506  24.593  18.764   1.324
81739W        W45507  21.599  40.470   3.772
81740W        W45508   5.369  37.018   1.321
81741W        W45509   1.759  22.708  13.860
81742W        W45510  13.661   9.784   4.809
81743W        W45511  37.045  19.194   1.210
81744W        W45512   8.331  24.687   0.275
81745W        W45513  20.661  24.032   2.677
81746W        W45514  35.604  31.032  10.932
81747W        W45515  30.446  25.033  11.868
81748W        W45516  18.606  19.096   2.689
81749W        W45517  35.981  14.165   1.438
81750W        W45518  33.605  33.409  12.473
81751W        W45519  17.135  26.951  14.832
81752W        W45520  21.070   9.817   4.646
81753W        W45521  11.809  15.780  10.021
81754W        W45522  24.173   7.889  13.325
81755W        W45523  23.542  35.941  12.910
81756W        W45524  39.342   8.892  10.404
81757W        W45525  30.491  37.983   4.271
81758W        W45526  42.311  29.648  11.955
81759W        W45527  38.847  16.687  12.049
81760W        W45528  44.272  41.861  11.003
81761W        W45529  38.359  14.702   4.350
81762W        W45530  38.987  42.292  11.515
81763W        W45531   5.361  24.567   0.854
81764W        W45532  28.141  15.233   3.716
81765W        W45533  34.449  26.091  11.976
81766W        W45534   1.761  24.699  13.521
81767W        W45535  27.134  14.339  11.545
81768W        W45536   6.758  24.022  12.067
81769W        W45537  21.070  39.428   4.643
81770W        W45538  29.546  34.120  12.934
81771W        W45539  43.950  39.511  11.111
81772W        W45540  42.923   4.900   0.447
81773W        W45541  27.487  31.983  12.522
81774W        W45542   5.314  18.204   3.182
81775W        W45543  12.347  30.443  14.022
81776W        W45544  44.268   3.423  10.418
81777W        W45545   6.707  38.441  13.421
81778W        W45546   7.873  43.495  14.433
81779W        W45547   7.336  10.770  11.504
81780W        W45548   3.756  19.099   1.863
81781W        W45549  17.750  12.799  10.928
81782W        W45550  25.162   4.309  14.288
81783W        W45551  36.524  18.727   1.851
81784W        W45552  26.519  26.520  13.035
81785W        W45553  11.685  25.176  13.039
81786W        W45554   9.879  21.203   1.763
81787W        W45555   7.863  33.919  13.012
81788W        W45556   2.244  41.906   1.880
81789W        W45557   3.353  29.536   0.960
81790W        W45558  16.139  30.961  14.968
81791W        W45559  44.831  39.434  14.031
81792W        W45560  24.721  19.116  11.026
81793W        W45561   3.816  30.603  11.922
81794W        W45562  31.535  27.959   1.308
81795W        W45563  12.786  36.996  10.931
81796W        W45564  44.936   9.304   1.314
81797W        W45565  33.447  37.938   2.685
81798W        W45566   5.371   8.233   0.792
81799W        W45567  42.966   6.842  12.033
81800W        W45568  13.801  10.723   2.802
81801W        W45569  25.599  39.923   3.665
81802W        W45570  37.372  31.931   3.262
81803W        W45571   4.337   8.388   1.809
81804W        W45572  33.057   3.316  13.866
81805W        W45573  18.555  26.547  10.141
81806W        W45574  31.542  10.672   2.384
81807W        W45575  28.029  43.286  10.553
81808W        W45576  22.131  33.117   3.763
81809W        W45577   3.803   1.767  14.328
81810W        W45578  32.989  31.414  14.930
81811W        W45579  30.077   3.830   4.629
81812W        W45580   0.755  40.363  14.977
81813W        W45581  42.010  16.715   0.316
81814W        W45582  15.771   0.931   4.194
81815W        W45583  26.645   8.185  10.625
81816W        W45584  19.689  29.549  12.997
81817W        W45585  35.592  22.010   1.879
81818W        W45586  44.353   2.234  12.575
81819W        W45587  17.185  28.096  14.460
81820W        W45588  24.699  27.666  11.552
81821W        W45589   2.256   3.412  11.104
81822W        W45590  32.916   7.397   2.398
81823W        W45591  29.504  16.613  13.826
81824W        W45592  28.606  23.074  14.889
81825W        W45593  41.959  37.536   4.818
81826W        W45594  12.188  23.037  12.994
81827W        W45595   3.898  19.739  11.070
81828W        W45596  28.655  13.179   4.162
81829W        W45597  22.182   5.365  13.943
81830W        W45598  42.415  17.724  13.933
81831W        W45599  41.807  11.644   4.159
81832W        W45600  21.603   5.753  13.936
81833W        W45601  44.353  29.159   3.371
81834W        W45602  11.860  43.500  14.337
81835W        W45603  38.851  36.006  13.460
81836W        W45604  35.562   8.244   2.261
81837W        W45605  31.075  18.273  11.038
81838W        W45606   4.424  42.911   5.279
81839W        W45607   6.794   1.842  11.865
81840W        W45608  32.623  26.611   4.635
81841W        W45609  10.246  32.989   3.242
81842W        W45610   0.258  34.398   3.279
81843W        W45611  11.785  34.503  10.586
81844W        W45612   5.247   1.369   2.755
81845W        W45613   9.335  41.948  13.377
81846W        W45614  20.744  32.960   0.921
81847W        W45615   3.297  18.649   1.714
81848W        W45616  36.843  43.938  12.942
81849W        W45617  43.942  25.049  10.893
81850W        W45618  23.720  14.151   4.262
81851W        W45619  40.971  42.930   2.414
81852W        W45620  32.557  15.299   2.404
81853W        W45621  36.497  29.960   1.744
81854W        W45622  14.690  22.233   0.855
81855W        W45623   2.352  15.227   0.776
81856W        W45624  42.937  32.994   2.263
81857W        W45625   2.233   0.782  12.003
81858W        W45626  18.653  11.716   1.392
81859W        W45627  19.066  21.031  10.970
81860W        W45628  28.558  32.075   3.776
81861W        W45629   7.798   7.215   3.191
81862W        W45630  23.201  34.106   5.286
81863W        W45631   9.713  30.024   1.750
81864W        W45632  20.222   1.961  14.776
81865W        W45633  21.754  30.497   5.254
81866W        W45634   3.823  23.049  14.013
81867W        W45635  27.962  28.462   4.735
81868W        W45636   9.352  34.067   0.460
81869W        W45637  21.599  43.922  12.828
81870W        W45638   7.859  12.223   1.747
81871W        W45639  10.687  29.506  12.934
81872W        W45640  16.803   2.734  12.575
81873W        W45641   8.373  26.157   3.168
81874W        W45642  25.195   7.801   1.431
81875W        W45643  18.266  30.643  14.396
81876W        W45644  30.617  22.032   0.772
81877W        W45645   7.778  10.311  10.409
81878W        W45646  10.652  13.274   4.692
81879W        W45647   4.862   6.751   3.775
81880W        W45648  43.971  18.666   4.211
81881W        W45649  11.654  36.065   1.703
81882W        W45650  41.343   4.281  14.778
81883W        W45651  21.125  39.844  13.842
81884W        W45652  10.355  31.976  13.422
81885W        W45653  12.143  22.103  14.974
81886W        W45654   7.810  41.535  10.964
81887W        W45655  26.978  13.734  13.476
81888W        W45656  42.422  31.016   1.401
81889W        W45657   9.869  22.567   4.151
81890W        W45658  31.903  24.517  12.047
81891W        W45659  21.126  36.408  10.900
81892W        W45660  34.923   3.830   3.267
81893W        W45661  37.922  16.641   0.345
81894W        W45662  31.071  12.777  12.557
81895W        W45663  39.550   4.398  10.992
81896W        W45664  14.783  27.618  11.917
81897W        W45665   1.352  17.612  14.819
81898W        W45666   1.946  11.729   2.366
81899W        W45667  34.389   8.827   0.759
81900W        W45668  38.411  23.649   0.864
81901W        W45669  44.927   4.816   2.202
81902W        W45670  15.322   5.215  11.968
81903W        W45671  27.146   6.902   0.244
81904W        W45672  29.430  44.927   0.781
81905W        W45673  31.604  35.388   3.268
81906W        W45674  10.245   4.737  13.943
81907W        W45675  36.902  13.825   0.878
81908W        W45676   8.388  19.279  14.432
81909W        W45677  17.710   3.430  10.556
81910W        W45678   8.889   7.869  12.405
81911W        W45679  32.062  35.041  12.981
81912W        W45680   3.833  13.178   1.321
81913W        W45681  10.367   9.381  12.535
81914W        W45682  42.334  17.107   4.760
81915W        W45683  28.112  19.205  10.489
81916W        W45684  40.542  15.612  14.986
81917W        W45685  44.330   4.249  11.600
81918W        W45686  30.539  29.159   0.330
81919W        W45687  39.972  10.846  14.355
81920W        W45688  32.984  41.899   1.732
81921W        W45689  25.503  17.258   4.698
81922W        W45690  36.377  17.098   4.301
81923W        W45691  24.118  18.574  14.992
81924W        W45692  16.261   5.814   3.226
81925W        W45693  44.355  27.181  13.966
81926W        W45694  40.953   7.410   3.206
81927W        W45695  39.442  10.704   2.693
81928W        W45696   2.230  40.387  12.469
81929W        W45697  21.649  20.556   4.744
81930W        W45698  34.969   3.722  10.441
81931W        W45699   5.763  23.091   2.850
81932W        W45700  28.499  28.465   1.396
81933W        W45701  11.230  36.869  12.049
81934W        W45702  37.079  27.004   0.308
81935W        W45703   0.974  10.732  12.480
81936W        W45704   7.310  23.015   0.757
81937W        W45705  29.620  27.940   5.189
81938W        W45706  16.084  42.840  10.630
81939W        W45707  12.239  30.142  12.537
81940W        W45708   9.328  13.329  11.463
81941W        W45709  26.570  36.524  11.555
81942W        W45710  41.346   5.819  12.378
81943W        W45711  22.743  23.524  12.483
81944W        W45712  20.643   1.769   4.340
81945W        W45713  17.785  19.224  11.548
81946W        W45714  34.579  39.402   4.346
81947W        W45715  36.394  30.439   9.979
81948W        W45716  24.534  22.662   3.799
81949W        W45717  38.983   8.248  11.509
81950W        W45718   2.345  39.009   0.286
81951W        W45719   5.847   2.450  11.448
81952W        W45720  10.347  24.058  11.381
81953W        W45721  40.909  26.474  14.514
81954W        W45722  17.296  16.786   3.781
81955W        W45723  43.341   2.778  10.962
81956W        W45724   5.276  10.247  10.500
81957W        W45725  23.525  20.145  12.503
81958W        W45726  34.105  23.539   4.261
81959W        W45727  13.784  14.200   0.404
81960W        W45728   6.750   7.341   4.620
81961W        W45729  30.018  37.047  12.412
81962W        W45730  43.011  24.138   4.253
81963W        W45731  13.763  34.510  10.541
81964W        W45732  43.860  40.937  14.827
81965W        W45733  34.898   6.697   1.304
81966W        W45734  13.804  41.348   1.727
81967W        W45735  15.768  32.041   1.441
81968W        W45736  39.486  23.082   4.144
81969W        W45737  16.096  35.091  11.113
81970W        W45738  15.679  30.921  10.538
81971W        W45739  21.574  18.199  11.992
81972W        W45740  14.833  25.207  10.923
81973W        W45741   6.923  30.428  10.951
81974W        W45742   2.839  20.745   3.862
81975W        W45743  36.841   1.779  13.311
81976W        W45744   8.249  41.797  10.921
81977W        W45745  33.476  16.801   0.352
81978W        W45746  11.637  33.463  12.462
81979W        W45747   1.818  39.440   4.288
81980W        W45748  37.070  28.086   1.718
81981W        W45749  22.653  26.488  10.118
81982W        W45750   5.815  31.124  12.974
81983W        W45751  13.119  13.736   2.835
81984W        W45752  31.596  44.393  10.484
81985W        W45753  30.471  42.388  12.843
81986W        W45754  37.867  42.842  11.101
81987W        W45755  42.000  24.582  11.453
81988W        W45756  12.642  42.374  14.290
81989W        W45757   7.274  24.603   4.817
81990W        W45758  31.947  18.110  10.410
81991W        W45759   3.907  28.506   0.795
81992W        W45760  14.215  37.537  11.009
81993W        W45761  26.004  32.026   0.925
81994W        W45762  42.805  12.622  10.454
81995W        W45763  36.088  40.940   1.842
81996W        W45764  19.744  25.131   3.364
81997W        W45765  40.024  24.555   0.947
81998W        W45766  32.908   1.838  11.507
81999W        W45767  11.848  13.254  12.954
82000W        W45768  27.582  27.164   4.266
82001W        W45769  27.943  13.130  12.924
82002W        W45770   3.326  12.231  11.107
82003W        W45771   1.823  26.613   3.333
82004W        W45772  33.979  20.186  13.510
82005W        W45773  43.983   8.711  14.389
82006W        W45774   0.786  30.058   4.353
82007W        W45775  15.188  42.826  13.381
82008W        W45776  16.762  34.571   0.843
82009W        W45777  33.458  28.127   4.245
82010W        W45778  10.227  43.806   4.683
82011W        W45779  34.590  11.166  12.905
82012W        W45780  25.976  12.185   4.185
82013W        W45781  42.879   0.303  13.439
82014W        W45782   2.261  19.239  12.387
82015W        W45783  29.611  13.720   3.866
82016W        W45784  39.391   1.842  13.938
82017W        W45785  38.369  40.379  14.803
82018W        W45786  29.143  43.417   0.283
82019W        W45787  37.502  44.773   2.350
82020W        W45788  33.000  18.737  10.488
82021W        W45789  30.052  39.040   0.476
82022W        W45790  30.113  36.456  13.424
82023W        W45791  30.131  12.357  11.099
82024W        W45792  37.557  18.083  11.099
82025W        W45793  26.122  18.197   1.847
82026W        W45794  23.160  31.482  12.397
82027W        W45795  43.447   0.806  11.402
82028W        W45796  35.023  33.414   1.862
82029W        W45797   6.361  14.715   4.724
82030W        W45798  32.627  42.371  10.499
82031W        W45799   8.783  43.351   1.342
82032W        W45800  11.253   7.732   3.290
82033W        W45801  34.094  42.775   0.289
82034W        W45802  24.977  10.849  11.916
82035W        W45803  16.283  37.913   3.629
82036W        W45804  34.966  16.568   4.338
82037W        W45805   6.749  12.251   2.773
82038W        W45806  21.669  18.124  12.933
82039W        W45807  26.009  21.182  12.451
82040W        W45808   3.375   6.209  10.984
82041W        W45809   1.284  39.861  13.810
82042W        W45810  28.486  43.834   3.243
82043W        W45811  14.310   6.841   2.895
82044W        W45812  38.373  12.673  11.522
82045W        W45813  25.472  36.846   1.274
82046W        W45814  15.273   2.242   4.629
82047W        W45815  17.264  12.313   4.122
82048W        W45816  33.073  39.512  13.984
82049W        W45817  43.270  12.294  13.522
82050W        W45818  21.698  39.967  14.978
82051W        W45819  19.159   4.707   1.895
82052W        W45820  26.187  23.541  13.497
82053W        W45821   2.818  26.063  12.400
82054W        W45822  21.635  12.748   3.634
82055W        W45823  32.902   2.459  14.455
82056W        W45824  15.647  22.243  13.880
82057W        W45825  41.423  12.705  11.423
82058W        W45826  21.216  39.322  10.582
82059W        W45827  28.005  34.439  13.546
82060W        W45828   7.197  14.646  11.441
82061W        W45829   9.878   4.239   2.887
82062W        W45830  13.668  33.095   4.193
82063W        W45831  38.355  31.625   3.248
82064W        W45832  22.113  43.880  13.513
82065W        W45833  22.011  24.570  14.923
82066W        W45834  32.467   9.221  11.478
82067W        W45835  14.694  14.747   2.819
82068W        W45836  32.890   0.425  13.799
82069W        W45837  34.528  12.356  11.533
82070W        W45838  26.052   3.260  10.513
82071W        W45839  36.014  25.482   2.189
82072W        W45840  23.037  11.827   4.601
82073W        W45841  23.568  40.496   4.682
82074W        W45842  28.536   4.796  14.909
82075W        W45843   9.818  23.235  13.885
82076W        W45844   0.273  22.574   2.408
82077W        W45845  38.897  25.099  10.984
82078W        W45846  29.956  25.965  12.987
82079W        W45847  25.008  36.374  12.884
82080W        W45848  43.853   2.848   4.182
82081W        W45849  28.449   6.794  14.761
82082W        W45850  29.500  10.177   5.117
82083W        W45851  19.558  19.091   3.830
82084W        W45852   7.813  38.366  12.346
82085W        W45853  28.155  40.923  14.444
82086W        W45854  35.472   4.372  10.577
82087W        W45855  16.119  33.478  11.071
82088W        W45856  12.272  28.978  14.828
82089W        W45857   5.263  15.135   1.279
82090W        W45858  10.812  23.542   0.343
82091W        W45859   1.744  26.955   3.753
82092W        W45860  32.097  38.342  10.410
82093W        W45861  35.028  22.044  12.533
82094W        W45862  39.389   9.728  13.839
82095W        W45863   5.720  22.178  11.428
82096W        W45864  43.289  33.494   1.776
82097W        W45865  23.159  37.869   2.360
82098W        W45866  42.778   0.874   5.296
82099W        W45867   1.241  26.495   1.359
82100W        W45868   6.897  24.068   4.778
82101W        W45869  36.374  12.244  12.986
82102W        W45870  28.663  22.716   3.671
82103W        W45871   4.700  18.060  13.399
82104W        W45872  27.463  24.205   4.610
82105W        W45873   3.803  19.080  13.018
82106W        W45874  31.008  13.213  12.841
82107W        W45875  24.568   9.380  12.826
82108W        W45876   4.864  21.060  11.610
82109W        W45877   7.824  32.544   0.956
82110W        W45878  17.246   6.410   2.219
82111W        W45879  22.623  23.574  13.947
82112W        W45880  32.978  37.939   2.668
82113W        W45881  26.679  32.457  10.121
82114W        W45882  40.511  25.083   2.726
82115W        W45883   2.369   7.728   2.235
82116W        W45884   2.731  11.808   4.626
82117W        W45885   3.763   5.359  13.954
82118W        W45886   4.897  37.428   0.785
82119W        W45887  15.667  32.039   2.729
82120W        W45888  27.619  41.451  12.970
82121W        W45889  16.614  20.756   1.694
82122W        W45890  40.008  21.052   0.311
82123W        W45891  44.984  25.148   3.819
82124W        W45892   1.416  11.159  11.454
82125W        W45893  40.960  25.041  11.611
82126W        W45894  33.494  12.747   0.362
82127W        W45895  39.034  26.500   2.355
82128W        W45896   4.797  35.853   9.995
82129W        W45897  41.474  36.881   0.275
82130W        W45898  17.150  12.801   2.846
82131W        W45899  29.098  19.651   2.380
82132W        W45900   3.363  10.354  11.552
82133W        W45901  38.052  18.205   1.785
82134W        W45902   9.688  40.546  11.864
82135W        W45903  29.469  24.035   0.750
82136W        W45904  23.118  34.565  11.020
82137W        W45905  37.013  11.819  11.128
82138W        W45906  13.730  38.326   2.281
82139W        W45907  30.477   1.798   2.829
82140W        W45908  35.466  18.627   3.356
82141W        W45909  27.152  33.572  14.314
82142W        W45910  38.958  33.017  14.510
82143W        W45911  30.659  37.545   4.730
82144W        W45912  11.372  43.800  12.902
82145W        W45913  43.356  35.991  11.122
82146W        W45914  41.306  15.233   4.243
82147W        W45915  26.667  39.400  12.885
82148W        W45916   2.937  29.981   0.837
82149W        W45917  23.207  13.811  13.957
82150W        W45918  44.849  36.853  11.512
82151W        W45919  16.579  20.166   4.654
82152W        W45920  26.457   4.438  14.868
82153W        W45921   6.852   2.453   4.789
82154W        W45922  17.765  28.634   0.356
82155W        W45923  39.897   4.724  14.338
82156W        W45924   9.738  41.905   4.334
82157W        W45925   5.313  32.077  12.012
82158W        W45926   0.359  29.936   2.892
82159W        W45927  39.375  16.124  13.939
82160W        W45928  15.214  31.055  11.458
82161W        W45929  22.159  15.101   3.150
82162W        W45930  33.618  41.499   0.335
82163W        W45931   5.233  44.004   3.867
82164W        W45932  42.867  40.841  11.042
82165W        W45933  32.978  37.945  10.526
82166W        W45934  10.318  19.619  11.026
82167W        W45935  40.934  43.918   2.334
82168W        W45936  19.135  34.450   0.383
82169W        W45937  31.592  23.690  12.478
82170W        W45938  19.073  22.094  11.444
82171W        W45939  38.337  24.215  13.895
82172W        W45940   0.264  43.021  11.525
82173W        W45941  33.946  37.851   3.337
82174W        W45942   5.435  10.800  10.639
82175W        W45943  42.941  38.985  14.276
82176W        W45944   9.337  16.140  12.381
82177W        W45945   3.943  19.739  12.091
82178W        W45946   2.795  23.120   1.853
82179W        W45947  18.175  25.121  11.392
82180W        W45948  31.645  35.546   4.787
82181W        W45949  15.311  43.942   1.865
82182W        W45950  22.722  33.536   4.343
82183W        W45951   5.739  41.514   4.632
82184W        W45952   8.780   6.922   1.397
82185W        W45953  34.403  39.375  12.850
82186W        W45954  41.792   4.921  14.006
82187W        W45955  10.729  15.815  12.896
82188W        W45956  11.170  44.991  11.076
82189W        W45957  20.164  18.103   4.137
82190W        W45958   3.450   9.361  11.890
82191W        W45959  19.543  10.244   4.826
82192W        W45960  30.459  19.137  10.501
82193W        W45961  39.962  20.681   3.202
82194W        W45962   9.159  40.440  11.462
82195W        W45963  43.936  40.960   4.277
82196W        W45964  22.529  23.006   3.856
82197W        W45965  27.179  40.360   4.835
82198W        W45966  42.811   7.795   3.318
82199W        W45967  16.611  20.134   3.324
82200W        W45968  16.629   5.885   1.325
82201W        W45969  35.459  42.926  11.607
82202W        W45970   1.904  15.787  10.526
82203W        W45971  12.808  14.783  10.890
82204W        W45972   3.390  19.083  14.321
82205W        W45973  30.605  27.547   4.714
82206W        W45974   4.283  18.216   4.751
82207W        W45975  35.421  10.832  12.390
82208W        W45976  22.189  43.437   0.436
82209W        W45977  20.182  14.817  10.533
82210W        W45978  14.177   6.859  14.479
82211W        W45979  30.913  35.025  10.924
82212W        W45980  38.469  17.125  10.466
82213W        W45981  41.807   4.393  13.976
82214W        W45982  20.728  23.519  13.994
82215W        W45983  15.134  19.596  12.045
82216W        W45984  23.574  16.295   0.744
82217W        W45985  14.666   9.662   1.345
82218W        W45986   7.739  14.831   3.356
82219W        W45987  28.632  11.329   0.749
82220W        W45988  30.919  22.209   4.607
82221W        W45989  35.995   8.263   5.662
82222W        W45990  28.048  21.610   0.934
82223W        W45991  13.685  36.587   4.765
82224W        W45992  28.170  17.123   0.811
82225W        W45993  34.495  10.746  11.114
82226W        W45994  42.955  37.526   0.878
82227W        W45995   1.851   7.849   3.372
82228W        W45996  13.264  29.588   2.351
82229W        W45997  16.769  26.498  14.460
82230W        W45998  32.480  15.322  14.962
82231W        W45999   3.215  25.694  14.931
82232W        W46000  18.065  44.368  13.525
82233W        W46001  15.746  24.170  12.070
82234W        W46002   5.688  20.673   2.798
82235W        W46003  38.076   5.733   9.555
82236W        W46004  35.596  35.070  13.452
82237W        W46005  42.527  13.633  14.433
82238W        W46006  25.494   8.695   2.724
82239W        W46007  27.513   9.392  13.940
82240W        W46008  38.827  27.115  12.931
82241W        W46009  19.666   6.379   3.719
82242W        W46010  39.382   3.800  12.573
82243W        W46011  41.322  19.715   2.854
82244W        W46012  24.029   9.773  14.496
82245W        W46013  40.493  34.967   3.870
82246W        W46014   0.742  20.098  13.325
82247W        W46015   6.409  13.190  11.972
82248W        W46016   3.918   5.216  11.005
82249W        W46017   1.928  17.167  14.767
82250W        W46018   7.229  20.061   1.368
82251W        W46019  21.151  13.144  12.025
82252W        W46020  42.850  19.604  13.901
82253W        W46021  41.406  24.590   4.222
82254W        W46022   5.776  15.249  11.056
82255W        W46023  17.129   0.930  13.862
82256W        W46024  38.854   5.746  12.827
82257W        W46025  31.026  38.820  13.466
82258W        W46026  15.776   0.443   1.386
82259W        W46027  11.777  44.941   0.343
82260W        W46028  43.971   5.710  10.544
82261W        W46029  37.485  17.684   2.238
82262W        W46030  35.018  12.775  10.568
82263W        W46031  12.617  34.021   2.845
82264W        W46032   8.338   5.926  10.601
82265W        W46033  26.697  12.670  11.959
82266W        W46034  39.884  13.635  10.503
82267W        W46035   8.356   4.408  14.839
82268W        W46036   8.882  11.259  11.033
82269W        W46037   9.232  20.118  13.822
82270W        W46038  27.039  33.457  13.017
82271W        W46039  36.362  28.089  12.442
82272W        W46040  12.825  27.624   0.265
82273W        W46041  43.291  31.505  13.903
82274W        W46042  12.624  20.651   3.668
82275W        W46043  19.074   6.193  10.610
82276W        W46044  19.161  31.590  11.031
82277W        W46045  17.624  12.749  12.092
82278W        W46046   5.334  13.735   3.746
82279W        W46047   3.459  32.430  11.457
82280W        W46048   6.817   5.926   4.730
82281W        W46049  24.056  40.324   3.821
82282W        W46050  16.193  31.541  13.896
82283W        W46051  12.341  20.222   2.178
82284W        W46052   6.230   6.261   2.268
82285W        W46053  20.730  34.899   2.204
82286W        W46054   5.737  36.488   0.734
82287W        W46055   8.840  10.319   4.752
82288W        W46056  33.487  10.636  12.094
82289W        W46057   6.752   5.398  10.915
82290W        W46058  22.729   6.186  14.766
82291W        W46059  18.705   6.322  11.377
82292W        W46060  37.047   6.346   9.550
82293W        W46061  44.866  43.919   1.363
82294W        W46062  31.118  24.663  12.484
82295W        W46063  18.573  24.665   2.756
82296W        W46064  13.193   4.761   2.804
82297W        W46065  12.662   6.279  12.965
82298W        W46066  16.180   9.362  11.955
82299W        W46067  28.458  39.933   0.270
82300W        W46068  11.369  32.919   2.228
82301W        W46069   9.664  22.682  12.495
82302W        W46070  41.919   4.265  12.538
82303W        W46071  22.649  33.485  10.603
82304W        W46072  39.480   0.414   0.372
82305W        W46073   7.805  18.763  12.079
82306W        W46074  12.208  19.703   1.740
82307W        W46075   5.831  25.625  14.983
82308W        W46076  35.438   3.794   1.267
82309W        W46077  23.693  36.443   4.732
82310W        W46078  21.062   7.332   3.681
82311W        W46079  33.480  40.523  12.857
82312W        W46080  41.792  33.613   1.348
82313W        W46081  42.502  32.066   4.808
82314W        W46082  40.375   1.853  13.439
82315W        W46083  32.007  19.225  12.093
82316W        W46084  32.923  37.892  12.008
82317W        W46085  22.649  23.576  10.615
82318W        W46086  44.010   1.253   3.695
82319W        W46087   3.768  34.529   4.734
82320W        W46088  35.412  18.115  10.940
82321W        W46089   8.872  17.136  11.061
82322W        W46090   7.748   3.240  14.436
82323W        W46091   0.893   8.802   0.800
82324W        W46092  35.591  17.654  13.960
82325W        W46093  17.166  16.566   4.826
82326W        W46094  18.679   8.267  10.908
82327W        W46095  23.190  29.428  12.072
82328W        W46096  28.973  10.669  10.626
82329W        W46097   4.260  30.121   1.345
82330W        W46098   2.226   7.273  14.424
82331W        W46099  32.894  10.294   0.827
82332W        W46100   7.253   1.391   0.878
82333W        W46101  24.480  19.573  11.113
82334W        W46102   7.771  12.857  10.621
82335W        W46103   2.830   9.874  12.523
82336W        W46104  31.585  19.569  13.860
82337W        W46105  26.601   8.892  14.310
82338W        W46106  18.566  27.197   4.784
82339W        W46107   1.442  24.184  14.496
82340W        W46108   4.809  12.177  11.389
82341W        W46109  20.678  25.195   0.247
82342W        W46110  19.689  25.674   1.930
82343W        W46111  25.214  44.888  10.611
82344W        W46112  19.172  27.550  14.025
82345W        W46113  40.362  13.637   3.731
82346W        W46114  29.129   3.408  10.069
82347W        W46115   4.314   1.837   4.170
82348W        W46116  37.341  41.963  11.507
82349W        W46117  34.882   9.330   3.165
82350W        W46118  13.201  11.626   1.890
82351W        W46119  27.566  29.028  10.934
82352W        W46120  26.968  18.658   0.340
82353W        W46121  15.175  22.538   4.643
82354W        W46122  16.137   4.867   1.313
82355W        W46123  31.499   6.280  14.432
82356W        W46124  25.219  22.516   0.423
82357W        W46125  15.177  37.396  11.599
82358W        W46126  13.121   2.352  12.400
82359W        W46127  19.759   7.213  11.395
82360W        W46128  12.670  26.129   3.159
82361W        W46129   0.926  31.437   1.732
82362W        W46130  35.579  38.881  13.472
82363W        W46131  43.273  29.065  14.974
82364W        W46132  28.979  14.177  11.103
82365W        W46133  10.208   5.251  11.889
82366W        W46134  28.103  29.060  11.564
82367W        W46135  35.100  16.238  12.036
82368W        W46136  40.013  27.531   0.259
82369W        W46137   4.369   3.293   2.797
82370W        W46138  29.074  34.371   1.821
82371W        W46139  30.100  35.945   3.795
82372W        W46140  37.006  33.101  13.517
82373W        W46141  33.937  16.627   5.734
82374W        W46142  39.502  36.889   3.249
82375W        W46143  39.910  18.056  13.322
82376W        W46144  38.002  25.674  11.472
82377W        W46145  28.545   1.441  12.848
82378W        W46146  23.648  43.962   2.721
82379W        W46147   7.667  30.973   3.871
82380W        W46148   7.237   6.331   3.767
82381W        W46149   4.888  38.920   3.185
82382W        W46150   8.744  38.381  10.147
82383W        W46151  28.473  12.651  13.943
82384W        W46152   5.315  25.545   4.236
82385W        W46153   6.716  15.733  10.463
82386W        W46154   3.459  26.595  13.824
82387W        W46155  38.004   1.962   4.767
82388W        W46156  33.915  22.718   4.802
82389W        W46157   0.409  43.483   3.151
82390W        W46158  23.564   3.310   3.263
82391W        W46159   0.937  16.277   4.128
82392W        W46160  40.984  22.059  13.427
82393W        W46161   5.208  14.668   0.474
82394W        W46162   9.652  18.621   2.863
82395W        W46163  33.428  44.765  10.470
82396W        W46164  29.978  36.370   1.316
82397W        W46165   7.349  14.799   0.831
82398W        W46166  39.354  21.169   2.418
82399W        W46167  24.541   7.832   3.364
82400W        W46168  21.743  25.681   4.636
82401W        W46169   3.224  19.675   0.956
82402W        W46170  32.968  16.738   0.892
82403W        W46171  22.681  16.646   2.278
82404W        W46172  30.526  39.006   2.183
82405W        W46173   0.352  23.098   0.483
82406W        W46174   4.208  31.646  11.548
82407W        W46175  22.092  40.329  14.821
82408W        W46176   3.806  38.409  11.481
82409W        W46177  10.273  33.098  14.841
82410W        W46178  17.100  20.562   1.403
82411W        W46179  24.998  28.166  14.396
82412W        W46180  43.874  11.338   4.827
82413W        W46181  13.240   4.282   4.284
82414W        W46182  32.113   1.821  10.478
82415W        W46183  15.256  32.579   0.955
82416W        W46184  37.055  40.369   3.706
82417W        W46185  35.093  16.078  13.840
82418W        W46186  33.876  22.714  11.417
82419W        W46187  10.368  26.002   4.202
82420W        W46188  22.209  15.635   0.421
82421W        W46189  39.373  29.985   1.913
82422W        W46190  23.683   1.774   2.901
82423W        W46191   7.783  20.738   4.153
82424W        W46192  15.110  42.854  12.447
82425W        W46193   8.316  10.682   1.256
82426W        W46194  30.633  30.946   4.323
82427W        W46195  35.085   3.391  14.795
82428W        W46196  25.511  27.538   4.818
82429W        W46197  31.906  35.522  14.985
82430W        W46198  42.374  11.254  13.466
82431W        W46199  27.106  37.883   3.178
82432W        W46200  36.011  41.860  13.899
82433W        W46201  30.433  44.347  10.903
82434W        W46202  40.850  36.026  14.327
82435W        W46203  23.992  25.470   3.671
82436W        W46204   7.187  32.930   0.864
82437W        W46205  40.532  14.341   3.630
82438W        W46206  44.775  16.306  14.300
82439W        W46207  39.008  17.237  13.337
82440W        W46208  10.706  12.176  14.765
82441W        W46209  11.691  10.854   2.233
82442W        W46210  21.659  32.086  10.967
82443W        W46211  42.898  35.014   5.264
82444W        W46212  21.608  44.412  12.095
82445W        W46213   5.265  42.851  11.972
82446W        W46214  34.083   8.205  10.998
82447W        W46215  32.548  14.629   3.345
82448W        W46216  22.070  25.614  14.862
82449W        W46217   6.368  28.978   3.799
82450W        W46218  15.312  27.017   3.830
82451W        W46219  19.571  38.994  14.369
82452W        W46220   1.910   1.760   3.350
82453W        W46221  10.248   0.314   4.293
82454W        W46222  39.480  15.165  12.390
82455W        W46223  21.243  18.118  13.015
82456W        W46224  19.736  26.690  10.555
82457W        W46225   6.828  35.880   0.256
82458W        W46226  13.133   9.783   4.166
82459W        W46227   9.373  12.191   3.195
82460W        W46228  26.165   4.788  10.640
82461W        W46229   9.685   9.716   3.869
82462W        W46230  15.309   2.876   0.967
82463W        W46231   8.703   2.268   1.398
82464W        W46232  27.548  27.673  10.617
82465W        W46233  43.429  12.657   0.425
82466W        W46234  39.029  16.676  11.126
82467W        W46235  22.572  12.815   0.377
82468W        W46236  26.025  28.630  10.527
82469W        W46237  44.391  26.596  10.114
82470W        W46238  33.940  17.174  11.978
82471W        W46239  37.435  11.240   3.381
82472W        W46240   2.451  25.178   2.743
82473W        W46241  36.542  26.502  13.460
82474W        W46242  20.760   7.370   1.390
82475W        W46243  11.313  15.285  10.533
82476W        W46244  19.604  42.329  12.456
82477W        W46245  27.572  32.615   0.446
82478W        W46246  10.351  15.189   1.313
82479W        W46247  41.445  31.052   4.779
82480W        W46248   3.389  18.761  11.372
82481W        W46249   8.194  15.586   0.924
82482W        W46250  26.114  33.029   3.298
82483W        W46251  12.119  33.930  10.971
82484W        W46252  44.437  42.388  11.894
82485W        W46253  43.884  25.147   0.944
82486W        W46254  33.966  44.472   3.646
82487W        W46255  43.788  40.352  12.988
82488W        W46256  30.051  17.598   4.266
82489W        W46257  19.236  20.188   3.656
82490W        W46258  22.520  16.249  13.312
82491W        W46259  11.319  22.097   4.246
82492W        W46260  32.073  22.633  12.455
82493W        W46261  18.064  44.929   1.837
82494W        W46262  19.102   6.734   1.870
82495W        W46263   3.719  20.562   2.244
82496W        W46264   8.688  44.285   3.736
82497W        W46265  37.510  19.100  10.891
82498W        W46266  28.167   2.915   4.138
82499W        W46267  31.548  39.050  12.045
82500W        W46268   6.414  43.286   1.868
82501W        W46269  14.098  11.813   1.377
82502W        W46270   5.325  42.010   1.751
82503W        W46271  11.168   9.680   3.281
82504W        W46272   8.839  18.068  10.125
82505W        W46273  24.506  43.908  12.958
82506W        W46274  43.975  34.981   3.241
82507W        W46275  11.691  19.645  10.470
82508W        W46276   7.783  17.759   4.646
82509W        W46277  31.537  41.464   3.302
82510W        W46278  27.582   6.423  11.015
82511W        W46279  34.609  19.688  13.537
82512W        W46280  34.551  32.041  12.973
82513W        W46281  15.730  28.545  12.054
82514W        W46282  27.114  41.508   1.354
82515W        W46283   4.317  39.379  13.434
82516W        W46284   6.275  22.557   2.681
82517W        W46285   8.278  13.640  13.976
82518W        W46286  39.435  36.844  11.049
82519W        W46287  25.027  27.523   3.784
82520W        W46288  29.638  29.106   0.320
82521W        W46289  34.081   4.253   0.787
82522W        W46290  13.726  10.220   0.868
82523W        W46291  20.092  37.937   3.802
82524W        W46292  25.053   3.294   3.683
82525W        W46293  16.084  35.964   2.314
82526W        W46294  36.442  44.870  14.917
82527W        W46295  19.607  21.583   2.896
82528W        W46296  15.579   8.813  11.072
82529W        W46297  18.740  25.658  11.082
82530W        W46298  36.875  18.102   3.214
82531W        W46299   4.893   3.357  12.030
82532W        W46300  22.079  26.988   3.306
82533W        W46301   4.906  33.402   1.292
82534W        W46302  39.537  41.314  10.517
82535W        W46303  37.832  17.201   9.931
82536W        W46304  11.640  17.158   1.248
82537W        W46305   0.809  43.308   3.718
82538W        W46306   6.408   7.668  10.490
82539W        W46307   4.838  23.174  13.357
82540W        W46308  18.263   9.755   2.236
82541W        W46309   0.343   6.408  12.829
82542W        W46310   0.287   0.834   0.285
82543W        W46311  31.992  18.674  13.802
82544W        W46312  32.516  34.951   4.685
82545W        W46313  15.239  27.643  11.102
82546W        W46314  27.627  44.987   1.839
82547W        W46315  22.195  17.646   3.689
82548W        W46316   2.375  11.309   0.326
82549W        W46317   5.391  18.581  13.977
82550W        W46318  16.281  32.491   4.627
82551W        W46319  12.624  28.932  12.471
82552W        W46320   7.200  43.399   2.182
82553W        W46321  12.297  14.331  13.847
82554W        W46322  36.861  17.662  12.931
82555W        W46323  42.517   3.799  10.943
82556W        W46324  17.255   4.365  10.502
82557W        W46325  24.983  23.194   3.746
82558W        W46326  40.476   2.365   0.883
82559W        W46327  18.757  30.512  11.575
82560W        W46328  35.558  23.173   4.701
82561W        W46329  22.239  13.345  10.973
82562W        W46330  23.052   8.711  14.989
82563W        W46331  18.611  39.335  11.535
82564W        W46332  12.850   7.816   4.305
82565W        W46333  18.282  16.253   4.238
82566W        W46334   0.276  10.641   3.146
82567W        W46335  19.713  29.067  11.385
82568W        W46336  19.744  37.051  11.114
82569W        W46337  30.978  27.095  11.038
82570W        W46338  44.411   1.463  10.539
82571W        W46339   8.265  38.348  14.461
82572W        W46340  27.036   2.337   0.952
82573W        W46341  29.112  43.498   1.427
82574W        W46342  32.985  20.207   2.310
82575W        W46343  16.677  28.040  14.371
82576W        W46344  39.444  39.824   1.429
82577W        W46345   8.730   3.945   0.468
82578W        W46346  24.707  41.878   2.854
82579W        W46347  22.043  12.137  13.311
82580W        W46348  24.641  32.486  11.484
82581W        W46349   6.711  15.108  12.540
82582W        W46350  43.825   5.344  10.895
82583W        W46351  10.642  38.985  13.986
82584W        W46352  39.483  30.083   3.676
82585W        W46353   9.180  27.485  14.291
82586W        W46354  27.608   5.725   4.227
82587W        W46355  30.569  40.322   0.839
82588W        W46356  29.492  21.169   0.367
82589W        W46357  11.333  37.491   0.391
82590W        W46358   7.785  12.616   4.191
82591W        W46359  14.209  19.235  10.939
82592W        W46360  38.557   4.361   3.841
82593W        W46361  28.159  15.304  12.394
82594W        W46362  37.413  11.300   4.203
82595W        W46363   5.814  19.734   2.893
82596W        W46364  38.511  11.292   3.687
82597W        W46365  26.961   4.763   4.644
82598W        W46366  39.321  10.138  10.029
82599W        W46367  22.096  40.006  11.530
82600W        W46368  39.427  30.479   4.148
82601W        W46369  24.524   3.368  14.941
82602W        W46370  38.877   3.920   3.317
82603W        W46371  25.199   0.898   4.663
82604W        W46372  29.470  38.560   2.662
82605W        W46373  32.519  27.675  12.476
82606W        W46374   5.815  24.480  14.354
82607W        W46375  26.150  38.866   4.204
82608W        W46376  26.491  37.390  14.493
82609W        W46377  35.544   3.428   0.405
82610W        W46378   8.727  31.059  14.816
82611W        W46379  21.235  40.877   0.377
82612W        W46380  33.006  30.609   0.251
82613W        W46381  17.571  15.212   1.304
82614W        W46382  24.550  15.126   2.240
82615W        W46383  30.539   6.230   2.272
82616W        W46384  38.440  31.641   3.779
82617W        W46385  16.313  43.842  14.277
82618W        W46386  35.478   3.913  10.625
82619W        W46387  27.513  20.550   3.669
82620W        W46388   2.768  39.323   5.307
82621W        W46389  18.772   0.478   1.839
82622W        W46390   3.333   6.199   0.386
82623W        W46391  42.375  39.016   1.263
82624W        W46392  43.896  39.521  13.859
82625W        W46393   4.372  10.796   0.407
82626W        W46394  20.266  29.147  14.852
82627W        W46395  33.119  22.231   3.778
82628W        W46396   4.727  38.038  10.435
82629W        W46397  17.680  44.488   4.624
82630W        W46398  16.300  10.822  14.846
82631W        W46399  35.977  23.569   3.717
82632W        W46400  26.697  39.491  13.952
82633W        W46401  25.110  22.724  13.971
82634W        W46402   1.460  37.542  10.445
82635W        W46403  17.682  32.503  11.014
82636W        W46404  12.622   3.336  13.466
82637W        W46405  35.527  12.352   2.327
82638W        W46406  13.743  30.499   4.795
82639W        W46407  40.544   7.358  10.998
82640W        W46408  43.782   1.299  11.084
82641W        W46409  16.278  20.031  13.933
82642W        W46410  16.267   3.416   1.872
82643W        W46411   3.369  25.533  12.994
82644W        W46412  27.168  26.121   4.817
82645W        W46413   0.252  27.174   2.302
82646W        W46414   7.371  39.917   0.404
82647W        W46415  10.352   9.249   1.798
82648W        W46416  19.284   5.813   0.305
82649W        W46417  41.906   3.420  10.051
82650W        W46418  37.883  37.387  10.606
82651W        W46419  20.614  42.849   3.260
82652W        W46420  27.668  22.534  10.970
82653W        W46421   0.327  33.382  11.981
82654W        W46422  17.743  38.014  11.037
82655W        W46423  36.086  29.605   0.940
82656W        W46424   8.757  13.790   0.299
82657W        W46425  11.743   5.371   4.265
82658W        W46426   9.254  34.961   4.354
82659W        W46427  31.085  36.480  10.897
82660W        W46428  10.379  20.238  11.868
82661W        W46429   5.206  16.778  13.525
82662W        W46430   2.837  35.979   3.762
82663W        W46431   1.308  10.206   4.597
82664W        W46432  37.852  36.047  10.547
82665W        W46433  25.675  10.702   4.283
82666W        W46434   1.747  28.944   2.882
82667W        W46435  29.645  35.468  14.393
82668W        W46436  27.567  17.599  12.071
82669W        W46437  43.793  36.091  10.558
82670W        W46438  23.623  22.180  10.442
82671W        W46439  36.506  34.932  14.436
82672W        W46440   2.460  23.586  12.084
82673W        W46441  36.521  37.441   3.711
82674W        W46442  24.003  26.100   0.962
82675W        W46443  35.580  27.152  14.902
82676W        W46444  40.487   5.325  11.488
82677W        W46445  24.979   0.364  12.884
82678W        W46446  30.122  27.644  13.997
82679W        W46447   2.264  35.475   2.229
82680W        W46448  31.982  41.833   3.336
82681W        W46449  30.030   0.364  11.374
82682W        W46450  23.131  30.005  10.564
82683W        W46451  26.053  10.747  12.386
82684W        W46452  26.665  41.359   9.980
82685W        W46453  23.505  16.716  13.993
82686W        W46454  23.684  12.206  11.121
82687W        W46455  17.265  17.722  10.970
82688W        W46456  13.604  32.427   1.894
82689W        W46457  40.337  30.067   4.315
82690W        W46458  22.143  17.176   0.460
82691W        W46459  42.501   5.364   4.326
82692W        W46460  29.632  33.958  12.420
82693W        W46461   1.927  24.553  10.599
82694W        W46462  19.734  31.554  12.339
82695W        W46463   9.800  19.564  11.481
82696W        W46464  29.170   9.151   0.261
82697W        W46465  42.454  17.307   2.300
82698W        W46466  13.654  15.699  13.317
82699W        W46467   0.346  17.557   4.123
82700W        W46468  11.216  29.040   4.222
82701W        W46469  30.621  17.221  13.809
82702W        W46470  33.094  39.924  13.862
82703W        W46471   5.353   3.756  12.506
82704W        W46472  24.080  17.097   1.904
82705W        W46473   4.829  39.386  14.353
82706W        W46474  22.129   6.201   1.323
82707W        W46475  39.503  33.946  13.849
82708W        W46476  14.103  37.381  11.891
82709W        W46477  41.533  14.727   3.320
82710W        W46478  12.189  15.745  11.922
82711W        W46479   3.718  19.190  14.354
82712W        W46480  16.089  30.050  12.013
82713W        W46481  32.969  12.131  11.975
82714W        W46482   1.821  20.058  12.898
82715W        W46483   4.883  15.299  14.831
82716W        W46484  40.453  34.539   4.695
82717W        W46485  24.695  38.338  14.389
82718W        W46486  18.106  13.840  12.497
82719W        W46487  17.646  30.589   5.168
82720W        W46488  25.589  36.373  11.396
82721W        W46489  13.323  23.661  10.443
82722W        W46490  30.588  43.359  12.974
82723W        W46491  20.556  40.948  11.452
82724W        W46492  44.426  29.588   5.104
82725W        W46493   0.846   5.711  11.127
82726W        W46494   3.378  13.243  13.799
82727W        W46495  21.215  11.863   0.829
82728W        W46496  37.371  21.647  11.516
82729W        W46497  31.625  33.516   2.381
82730W        W46498  42.906  15.130   2.199
82731W        W46499  40.472  14.669  11.970
82732W        W46500   1.252   7.240  12.080
82733W        W46501  28.041  24.641   1.290
82734W        W46502  44.487   1.796  12.068
82735W        W46503  44.779  23.655   0.949
82736W        W46504  39.000  27.639  13.925
82737W        W46505  20.161  37.031   3.656
82738W        W46506   9.318  36.354  12.435
82739W        W46507  35.484   0.407   4.666
82740W        W46508  19.274  38.443  11.383
82741W        W46509  43.416  35.094   1.819
82742W        W46510   5.791  38.371  10.892
82743W        W46511  25.985  37.963  12.448
82744W        W46512  18.727  24.578   5.616
82745W        W46513  17.781   2.245   2.302
82746W        W46514  35.900  33.921   1.754
82747W        W46515   5.832  39.916  11.030
82748W        W46516  27.972  26.966   2.755
82749W        W46517  38.985  17.141  11.574
82750W        W46518  28.477  42.520   0.767
82751W        W46519  31.935   8.354   0.367
82752W        W46520  11.134  15.153   2.403
82753W        W46521   8.900   3.745   4.302
82754W        W46522  18.082  10.142   5.142
82755W        W46523  40.811  21.622  11.445
82756W        W46524  35.472  43.813  11.942
82757W        W46525  10.845  33.450   0.728
82758W        W46526  36.584   3.755   0.375
82759W        W46527   7.780  43.394  10.454
82760W        W46528  28.997   6.782   3.335
82761W        W46529  14.239  35.009   4.139
82762W        W46530   4.776  20.569  12.003
82763W        W46531  19.279  23.719  14.500
82764W        W46532  21.174  42.438   3.808
82765W        W46533  15.181  27.657  13.821
82766W        W46534  29.155  25.965   1.296
82767W        W46535   4.445  31.152  12.551
82768W        W46536   5.901  28.630   1.289
82769W        W46537  37.918  10.746  10.904
82770W        W46538  23.599  23.996  14.871
82771W        W46539   0.988   4.814   0.461
82772W        W46540  23.177  36.897   1.316
82773W        W46541  19.610   5.693   2.233
82774W        W46542   9.789  33.620   2.276
82775W        W46543  30.423   1.423   0.459
82776W        W46544  34.482  17.280   3.222
82777W        W46545  24.646  22.223   4.295
82778W        W46546  25.495  18.074  11.082
82779W        W46547  25.619  22.131  11.938
82780W        W46548  20.595  20.063  11.960
82781W        W46549   7.721  22.693   3.721
82782W        W46550   4.737  38.516  10.463
82783W        W46551  33.545  16.214  13.499
82784W        W46552  14.778  28.028   0.382
82785W        W46553  17.710   7.893   0.765
82786W        W46554  32.970  26.608  12.982
82787W        W46555  41.003  18.696  14.452
82788W        W46556   9.818  34.880  13.017
82789W        W46557  36.076  41.475   3.740
82790W        W46558  25.190   7.398  11.472
82791W        W46559  41.843  32.128  12.085
82792W        W46560  30.031   6.742  13.038
82793W        W46561  28.122  19.147   4.150
82794W        W46562  23.195  30.451  11.375
82795W        W46563  16.119   0.443   0.854
82796W        W46564  42.911  32.962   0.424
82797W        W46565  36.869  36.921  10.975
82798W        W46566  26.619  23.029   2.235
82799W        W46567  38.459   9.370   1.289
82800W        W46568  37.906  10.758  10.149
82801W        W46569  43.332  35.389  13.442
82802W        W46570  31.589  30.054  11.567
82803W        W46571  32.906  24.516   3.707
82804W        W46572  22.107  19.063   3.181
82805W        W46573  13.828  22.008  12.889
82806W        W46574  17.102  38.360  14.443
82807W        W46575  29.585  16.593  12.349
82808W        W46576  25.062   1.749  10.582
82809W        W46577  15.294  21.567  13.806
82810W        W46578  36.578   4.827  13.911
82811W        W46579  21.712  18.731   3.348
82812W        W46580   4.342  41.474   4.174
82813W        W46581  13.231  34.999   0.298
82814W        W46582  36.953  21.647  13.351
82815W        W46583  43.960  30.553   1.759
82816W        W46584  14.247  13.813   2.305
82817W        W46585  41.389   5.827  13.512
82818W        W46586  11.690   4.792  12.028
82819W        W46587  17.175  37.351   2.795
82820W        W46588   8.196  10.364   4.667
82821W        W46589   9.258   5.394   4.628
82822W        W46590  26.552  43.996   3.246
82823W        W46591  35.873  14.127   0.784
82824W        W46592  19.098  37.521  12.089
82825W        W46593   5.267  18.712   3.355
82826W        W46594  34.890   8.711   1.337
82827W        W46595  37.042   0.834  10.509
82828W        W46596  39.487  15.698  13.812
82829W        W46597  14.695  21.684  13.859
82830W        W46598  35.031   9.267   1.249
82831W        W46599  26.626  27.532  10.123
82832W        W46600  17.199  32.405  11.883
82833W        W46601  22.114   6.699  13.804
82834W        W46602  42.401  42.931   2.273
82835W        W46603   9.870  10.822  13.976
82836W        W46604  18.137   7.669  13.975
82837W        W46605  25.203  29.985  11.919
82838W        W46606  24.093  20.652  12.447
82839W        W46607  37.902  36.542   3.183
82840W        W46608  39.553  18.226   2.316
82841W        W46609  18.181  23.556   2.364
82842W        W46610  17.258  10.666  11.973
82843W        W46611   8.713   1.790  12.988
82844W        W46612  35.028  33.523   3.679
82845W        W46613   6.868  21.752   2.339
82846W        W46614  31.922  40.020  11.413
82847W        W46615  20.641  17.736   0.804
82848W        W46616  17.715  25.678  12.833
82849W        W46617   6.297   7.865   2.691
82850W        W46618  38.364  16.086  14.425
82851W        W46619  10.821   7.865   2.754
82852W        W46620  21.727  32.987  14.330
82853W        W46621  43.936  11.769   0.275
82854W        W46622  39.882  26.199   0.919
82855W        W46623  40.395  42.827  13.029
82856W        W46624  17.188   5.430  10.988
82857W        W46625   8.885  31.079   4.341
82858W        W46626  12.846  35.567   1.375
82859W        W46627  18.166  25.196  12.492
82860W        W46628   8.218  28.042  14.426
82861W        W46629  19.039  24.641   1.419
82862W        W46630  34.566  38.392  12.543
82863W        W46631  19.779  40.414  10.482
82864W        W46632   2.915   9.334   2.867
82865W        W46633  31.038  11.148   4.254
82866W        W46634   1.442  39.476   1.805
82867W        W46635  38.040  27.130   0.963
82868W        W46636  31.470  42.461  11.383
82869W        W46637  40.968  35.985  12.967
82870W        W46638  32.636   1.844  14.336
82871W        W46639  26.141  13.801  14.920
82872W        W46640   1.287  36.453   1.445
82873W        W46641  35.422  32.457  14.827
82874W        W46642  32.929  42.896   4.630
82875W        W46643  24.188   4.716  12.088
82876W        W46644  32.935   0.392   3.691
82877W        W46645   7.351  19.761   4.117
82878W        W46646  26.672  21.672  12.883
82879W        W46647  33.056  29.583   0.853
82880W        W46648  38.548  11.679   0.457
82881W        W46649  44.010  44.804   3.334
82882W        W46650  27.114  13.670   1.412
82883W        W46651  23.205  41.787  11.061
82884W        W46652  21.645   6.357  13.472
82885W        W46653  34.433  40.432  13.042
82886W        W46654  36.090   0.256  11.094
82887W        W46655   6.393  15.607  14.336
82888W        W46656  15.298  36.988  12.382
82889W        W46657  20.056  14.759  13.967
82890W        W46658   9.840  35.864  12.026
82891W        W46659  30.438  34.091   3.383
82892W        W46660   0.812  31.991  12.988
82893W        W46661  38.455  29.548   0.372
82894W        W46662  42.908   7.355   3.335
82895W        W46663   6.197  40.464   1.305
82896W        W46664  44.353   2.361   0.318
82897W        W46665  25.586   5.706   4.795
82898W        W46666  20.160  29.941  13.415
82899W        W46667  15.723  25.152  12.352
82900W        W46668  44.296  16.204  13.887
82901W        W46669  42.379  14.095   3.371
82902W        W46670  26.672  32.110   0.321
82903W        W46671  11.181  31.130   0.953
82904W        W46672  20.735  40.430   3.195
82905W        W46673  29.045  43.287   2.275
82906W        W46674  21.095  33.938   0.922
82907W        W46675  15.128  33.594  14.922
82908W        W46676   3.727  37.422   2.894
82909W        W46677  19.537  39.405   0.845
82910W        W46678   0.819  38.957  11.433
82911W        W46679  16.273   4.402  13.942
82912W        W46680  44.890  21.660   1.825
82913W        W46681  39.392  31.040  13.368
82914W        W46682   3.225  43.964   4.158
82915W        W46683   0.343   6.716   1.909
82916W        W46684  38.068  39.530   2.828
82917W        W46685  36.531  22.098   1.306
82918W        W46686  44.460  34.900   9.970
82919W        W46687  23.003  19.129  13.419
82920W        W46688  21.631  42.370  10.536
82921W        W46689  30.495  42.976   2.792
82922W        W46690  30.416   5.350  13.391
82923W        W46691  38.865  25.662  11.984
82924W        W46692  32.396  33.625  14.388
82925W        W46693   8.740  31.429  10.976
82926W        W46694   3.881  21.616   2.301
82927W        W46695  40.027   2.841   3.341
82928W        W46696   9.649   6.367  14.998
82929W        W46697   0.345  24.560   4.114
82930W        W46698   4.367  23.180   2.832
82931W        W46699  12.176  37.057   1.252
82932W        W46700  43.830   3.458   0.483
82933W        W46701  38.362   3.839   4.247
82934W        W46702  22.055  34.447   1.924
82935W        W46703  17.201   8.842   5.235
82936W        W46704  17.709  27.457   2.312
82937W        W46705  20.624  27.506  13.352
82938W        W46706  43.955  22.166  12.523
82939W        W46707   2.769  16.713   0.915
82940W        W46708  11.676  19.240   3.736
82941W        W46709  14.616  32.500   0.888
82942W        W46710  41.859  24.649  14.964
82943W        W46711  15.586   3.884  12.076
82944W        W46712  11.369   6.791  12.052
82945W        W46713  14.307  31.045  12.033
82946W        W46714  40.426  31.633  13.921
82947W        W46715   0.429  44.296   3.323
82948W        W46716   4.220  40.309   4.191
82949W        W46717   9.689  35.898  11.118
82950W        W46718   2.845  19.752   3.678
82951W        W46719   5.436  41.354   3.832
82952W        W46720  16.127  23.199   2.415
82953W        W46721  23.563  37.396  14.331
82954W        W46722  18.682  25.590  11.532
82955W        W46723  17.064   0.837   1.812
82956W        W46724   7.369   3.290   4.792
82957W        W46725  14.825   7.879   3.308
82958W        W46726  37.927  10.741   4.177
82959W        W46727  27.993  25.994  13.941
82960W        W46728  35.051  20.526  14.843
82961W        W46729  34.486  17.217   1.906
82962W        W46730   6.254  22.593  10.034
82963W        W46731  21.635  37.982  13.965
82964W        W46732  35.600   1.868  12.027
82965W        W46733  20.255  43.393  14.891
82966W        W46734  24.108  32.587   2.771
82967W        W46735  26.510  30.086  14.809
82968W        W46736   3.898  15.148   4.259
82969W        W46737  22.666  43.918  10.437
82970W        W46738   4.369  42.436  11.916
82971W        W46739  13.720  21.610   1.853
82972W        W46740   4.821  44.989  11.089
82973W        W46741  21.708  23.578   2.368
82974W        W46742  13.108  19.116   2.332
82975W        W46743  14.621  39.874   4.194
82976W        W46744  25.160   4.780   0.870
82977W        W46745   7.777   3.755  14.367
82978W        W46746  26.566  42.403  14.829
82979W        W46747  20.579  18.726  10.439
82980W        W46748   2.860  29.546   0.886
82981W        W46749  43.435   1.952   9.969
82982W        W46750   9.255  35.475  14.964
82983W        W46751   9.663   4.822  13.418
82984W        W46752  38.353   8.699  12.945
82985W        W46753  42.489  39.321  12.888
82986W        W46754  11.652  13.238   5.113
82987W        W46755  25.539  39.543  13.531
82988W        W46756  24.567   9.773  14.474
82989W        W46757  35.581  20.046  12.471
82990W        W46758  23.655  26.125   4.646
82991W        W46759  35.555   3.412  11.062
82992W        W46760  15.824  32.562  12.024
82993W        W46761  23.184   8.225   0.318
82994W        W46762   1.791  42.354  13.377
82995W        W46763  37.508  19.258  12.975
82996W        W46764  32.115  17.585   3.340
82997W        W46765  24.158  11.692   3.239
82998W        W46766  29.032  10.763  14.322
82999W        W46767  40.923  17.690   2.858
83000W        W46768  27.066  42.513   4.335
83001W        W46769  17.644   4.796  10.138
83002W        W46770  31.594  31.976  14.301
83003W        W46771  16.617  33.002   3.238
83004W        W46772   6.706  40.440  11.039
83005W        W46773  12.751  38.523   4.271
83006W        W46774  27.144  29.452   0.333
83007W        W46775  10.718   4.822  10.116
83008W        W46776  28.525  16.707   0.912
83009W        W46777  28.949  19.241  10.429
83010W        W46778  36.513  42.471  10.935
83011W        W46779   8.171  18.180  14.305
83012W        W46780  30.494  23.541  11.937
83013W        W46781  32.485  36.384   3.861
83014W        W46782  27.179  33.477  13.923
83015W        W46783  44.324  37.384  12.023
83016W        W46784  26.109  19.210   1.769
83017W        W46785  31.577   4.748   0.374
83018W        W46786  32.413  26.651   4.178
83019W        W46787  29.542  17.731   2.227
83020W        W46788  35.009  14.737   4.637
83021W        W46789  34.386  12.211   1.860
83022W        W46790  20.720   8.322  12.984
83023W        W46791  32.957  36.008   3.697
83024W        W46792  15.701  24.520  14.983
83025W        W46793  15.287  27.141   1.294
83026W        W46794  21.624   7.837  11.988
83027W        W46795  30.075  19.188  13.848
83028W        W46796  18.059   1.738   3.842
83029W        W46797  12.806  21.648   1.872
83030W        W46798  31.618   4.279  13.813
83031W        W46799  14.333  41.327   4.740
83032W        W46800   7.753  24.504   2.232
83033W        W46801  37.051  41.864   1.773
83034W        W46802  15.661  43.316   3.708
83035W        W46803  16.605  32.932   2.239
83036W        W46804  28.557  18.641  10.548
83037W        W46805  41.927  14.198   0.440
83038W        W46806   4.369  14.160  13.834
83039W        W46807   6.194  31.525  11.924
83040W        W46808  17.261  14.658  12.073
83041W        W46809  43.803  37.941  11.549
83042W        W46810  25.617  38.956   3.185
83043W        W46811   4.321  29.447   2.360
83044W        W46812  23.510  29.017  10.918
83045W        W46813  26.484  14.608  10.969
83046W        W46814  29.484  29.571   2.881
83047W        W46815  22.550  43.292   0.960
83048W        W46816  23.533  38.897   4.127
83049W        W46817   6.315  10.662   4.820
83050W        W46818   6.401  24.651   0.834
83051W        W46819  18.256  43.441   0.878
83052W        W46820  21.555   9.675   1.788
83053W        W46821  10.300  17.213  14.898
83054W        W46822  36.591  24.230  12.569
83055W        W46823  19.251  12.291  12.491
83056W        W46824   1.434   6.302   3.693
83057W        W46825   6.909  18.068   1.350
83058W        W46826  29.434  30.081   3.728
83059W        W46827  37.415  15.148   0.903
83060W        W46828  36.487   6.231  13.983
83061W        W46829  30.092  25.110   2.894
83062W        W46830  35.410  25.502   1.328
83063W        W46831   7.317  13.194   3.379
83064W        W46832  37.340  30.073   3.376
83065W        W46833  39.481  19.598  14.760
83066W        W46834  26.547   7.378  14.510
83067W        W46835  28.940  27.672  11.599
83068W        W46836  22.732   9.369  12.408
83069W        W46837  33.066  41.012   3.198
83070W        W46838  22.613  25.974   1.787
83071W        W46839  44.812   1.931  12.082
83072W        W46840  44.881   2.370   2.843
83073W        W46841   4.219  29.603  12.010
83074W        W46842  34.015   9.885  14.924
83075W        W46843  34.495  16.797  12.492
83076W        W46844  31.480  12.660  13.427
83077W        W46845  12.305  34.390  10.525
83078W        W46846  18.068  33.593  13.935
83079W        W46847  23.536  14.778   1.818
83080W        W46848  13.735  35.893   4.226
83081W        W46849  21.221  35.896  14.951
83082W        W46850  37.557  36.899  11.521
83083W        W46851  10.201  36.397   2.830
83084W        W46852  44.994  36.929   3.814
83085W        W46853  25.191  42.996   2.325
83086W        W46854  19.615  17.146   2.183
83087W        W46855  18.207   2.792   1.332
83088W        W46856   4.706  28.661   1.924
83089W        W46857  32.627  16.093   4.676
83090W        W46858   2.271  41.518  14.890
83091W        W46859  22.222  19.066   4.235
83092W        W46860  31.613  37.058   4.348
83093W        W46861  28.096  28.019   5.105
83094W        W46862  31.444  16.579   1.371
83095W        W46863  33.097  25.168  11.412
83096W        W46864  44.943  30.097   2.837
83097W        W46865  12.850  33.046  12.942
83098W        W46866  38.860   7.236   2.395
83099W        W46867  10.705  10.857   1.235
83100W        W46868  12.327  28.529  13.870
83101W        W46869  11.222   6.876   2.263
83102W        W46870  14.679  29.985  12.558
83103W        W46871  22.659  44.345   9.957
83104W        W46872  10.665  26.640  13.336
83105W        W46873  13.107  25.122   2.287
83106W        W46874  38.366  37.866   2.790
83107W        W46875  17.176   7.793  13.543
83108W        W46876  13.783  16.144  11.405
83109W        W46877  38.348   0.757   0.827
83110W        W46878  22.030   2.329   0.744
83111W        W46879  41.808  32.076   4.123
83112W        W46880  38.974  29.548  13.802
83113W        W46881  32.480   4.811  11.120
83114W        W46882  37.414  31.146  13.012
83115W        W46883   8.298   8.316  14.304
83116W        W46884   3.419  29.946  12.462
83117W        W46885   2.459   8.369  12.865
83118W        W46886   1.877  29.987   2.736
83119W        W46887  44.412  25.185  14.465
83120W        W46888  31.430  35.386   1.249
83121W        W46889  12.205  27.113  10.534
83122W        W46890  28.458  17.065  11.959
83123W        W46891  28.999  10.820  14.880
83124W        W46892   5.832  12.645  10.419
83125W        W46893  12.675  26.108   2.195
83126W        W46894  26.147  25.995  14.353
83127W        W46895  28.045  25.530   2.883
83128W        W46896   2.891  44.260   4.767
83129W        W46897  27.955  31.982   1.246
83130W        W46898   9.340  21.071  11.528
83131W        W46899  25.157  36.901   5.192
83132W        W46900   5.797  12.851  11.877
83133W        W46901  35.939   5.194  12.524
83134W        W46902  43.931  23.036   2.706
83135W        W46903  24.718  26.997   3.662
83136W        W46904  24.038  42.990  10.107
83137W        W46905  42.460  11.858  14.921
83138W        W46906   2.739  26.555  11.907
83139W        W46907   7.325  20.579   4.254
83140W        W46908  21.142  28.035  13.873
83141W        W46909  10.717  39.378   3.148
83142W        W46910  44.354  19.212  14.896
83143W        W46911  41.016  35.517  10.891
83144W        W46912  36.492   5.767  13.936
83145W        W46913   2.798  37.999  14.919
83146W        W46914  25.547   1.861  11.416
83147W        W46915  31.916   6.786  11.093
83148W        W46916   0.381  44.839   4.253
83149W        W46917  21.029   6.368  14.915
83150W        W46918  21.262  31.510   3.373
83151W        W46919  12.789  12.209  14.442
83152W        W46920   2.362  23.694   3.673
83153W        W46921  23.990  36.486   0.389
83154W        W46922  28.577  12.794  10.483
83155W        W46923  36.848  24.985  13.511
83156W        W46924   9.152  40.401  11.889
83157W        W46925  35.512  16.298  13.946
83158W        W46926  34.874  32.502  13.463
83159W        W46927  25.131  41.895   5.227
83160W        W46928   6.223  10.805   1.763
83161W        W46929   6.232  29.552   3.697
83162W        W46930  34.387  44.766  10.538
83163W        W46931  10.865  18.273  13.453
83164W        W46932   0.407  34.930   1.389
83165W        W46933  26.088   6.183  14.975
83166W        W46934  32.558  13.108  12.977
83167W        W46935  38.523  19.062  12.066
83168W        W46936  25.016   1.925  14.403
83169W        W46937  29.066   9.848   3.210
83170W        W46938  15.812  42.004   0.465
83171W        W46939  37.960   0.366   0.831
83172W        W46940   6.359  35.425   3.639
83173W        W46941  41.383  16.296  13.950
83174W        W46942  39.890  23.204   4.201
83175W        W46943  27.661  21.100   2.892
83176W        W46944  43.782  35.877  11.106
83177W        W46945  25.570  10.316  12.504
83178W        W46946  41.361  17.772   1.324
83179W        W46947  23.087   0.946  14.952
83180W        W46948  44.323   6.275   9.951
83181W        W46949  14.182   4.799  14.426
83182W        W46950  36.380  25.469   3.786
83183W        W46951  27.189  42.960  13.919
83184W        W46952  41.798  42.411   3.336
83185W        W46953  41.014   2.426   0.253
83186W        W46954  20.053  35.406  10.596
83187W        W46955   9.385  19.234   1.292
83188W        W46956   2.405  22.518  12.430
83189W        W46957  42.015   9.737   2.227
83190W        W46958   8.167  13.162   3.633
83191W        W46959  20.752  42.434  14.427
83192W        W46960  34.080  17.259  14.873
83193W        W46961  23.601   8.857  13.045
83194W        W46962  42.330  39.868   1.708
83195W        W46963  12.181  16.156   1.773
83196W        W46964   7.361  41.479  10.510
83197W        W46965  16.117  40.932   0.277
83198W        W46966  41.837  42.419   4.822
83199W        W46967  25.041  22.076  10.930
83200W        W46968  31.106  19.686   3.214
83201W        W46969   9.688  19.118  13.532
83202W        W46970  22.017  22.232  13.814
83203W        W46971  36.481  44.419   0.836
83204W        W46972  20.736  35.906   0.440
83205W        W46973  43.436  42.866   1.393
83206W        W46974   8.728   1.406   3.760
83207W        W46975  35.043   8.216   0.264
83208W        W46976  17.221  12.187   0.337
83209W        W46977  43.868  38.975  14.937
83210W        W46978  11.215  23.992   4.672
83211W        W46979   1.343  31.009   4.634
83212W        W46980   1.882  11.647  14.902
83213W        W46981  10.792  37.077  13.419
83214W        W46982  17.185  25.082  12.561
83215W        W46983  35.531  14.163  13.432
83216W        W46984  33.393  12.233  11.486
83217W        W46985  19.621   7.743  14.872
83218W        W46986  39.831  23.651  12.480
83219W        W46987  38.508  31.082   0.791
83220W        W46988  14.204  29.607   0.864
83221W        W46989   2.800  39.827   4.734
83222W        W46990  29.604  25.690   0.266
83223W        W46991   0.320  18.222   4.745
83224W        W46992  13.147  34.615   1.429
83225W        W46993   2.398  44.933  11.943
83226W        W46994   4.819  15.798   2.759
83227W        W46995   6.761  40.306   1.268
83228W        W46996  40.357  35.604   1.285
83229W        W46997  43.430   4.283  14.278
83230W        W46998   7.296  11.795  10.559
83231W        W46999   1.284  36.915   3.188
83232W        W47000  30.575  26.568  13.359
83233W        W47001  11.829  36.521   2.832
83234W        W47002  22.665   4.364  10.435
83235W        W47003  27.153  27.689  14.429
83236W        W47004  28.494  42.850  11.506
83237W        W47005  41.819  36.520   1.234
83238W        W47006  42.929  38.037   0.256
83239W        W47007  14.213  15.609   2.837
83240W        W47008  38.523  13.684   0.261
83241W        W47009  15.786  26.171   2.298
83242W        W47010   1.761  44.866   2.290
83243W        W47011   5.333  38.061   3.761
83244W        W47012  23.576   9.348  11.526
83245W        W47013  44.336  10.796   1.414
83246W        W47014   7.253  22.524   1.341
83247W        W47015  36.024  10.279  10.106
83248W        W47016  41.013   8.334   2.662
83249W        W47017   9.226  42.339  14.371
83250W        W47018  28.062   0.752   5.131
83251W        W47019  32.423   1.851  13.307
83252W        W47020  16.710   7.224  14.311
83253W        W47021   4.836  16.788  14.369
83254W        W47022  29.921   3.930  14.005
83255W        W47023  38.965  10.764   1.448
83256W        W47024  39.872  39.548  12.346
83257W        W47025  25.135  16.260  12.493
83258W        W47026   6.775  44.430   3.218
83259W        W47027  15.134  31.592   4.147
83260W        W47028   6.372  18.643   0.734
83261W        W47029  29.627  21.175   1.304
83262W        W47030   2.785  24.547   2.707
83263W        W47031   5.804  14.147  13.326
83264W        W47032  21.115   8.677   4.613
83265W        W47033  36.430  44.811  14.328
83266W        W47034   9.250  15.815   1.738
83267W        W47035  32.411  26.099  11.415
83268W        W47036  20.169   5.702   0.304
83269W        W47037  22.660   1.378  11.125
83270W        W47038  16.607  25.597   9.522
83271W        W47039   7.710  10.142  12.578
83272W        W47040  40.875  10.249   2.853
83273W        W47041   0.458  36.457   2.383
83274W        W47042  29.602   8.228  12.578
83275W        W47043  44.836  25.688   2.685
83276W        W47044  38.071  21.062   9.976
83277W        W47045  39.008  39.935  10.068
83278W        W47046  25.678   1.240   4.737
83279W        W47047  43.405  11.718   3.298
83280W        W47048  31.973  18.174  13.523
83281W        W47049  26.522  29.528   1.449
83282W        W47050  10.352   6.814  14.287
83283W        W47051   8.734   1.975   0.851
83284W        W47052  13.280  35.592   2.416
83285W        W47053  10.861   8.318  12.919
83286W        W47054   3.384  24.606  13.379
83287W        W47055  12.350  39.818   2.255
83288W        W47056  20.235   3.783   1.855
83289W        W47057  12.125  18.625   1.889
83290W        W47058   4.793  28.039   4.776
83291W        W47059  13.792   9.709   5.756
83292W        W47060   2.422  31.948  13.455
83293W        W47061  32.497  38.889   3.201
83294W        W47062  13.835  26.143   3.635
83295W        W47063  15.226  42.457  10.514
83296W        W47064   3.891  39.486  12.389
83297W        W47065  41.835   1.869   9.978
83298W        W47066  20.532  32.445   0.766
83299W        W47067   1.271   9.247  13.450
83300W        W47068  15.191   7.731   3.762
83301W        W47069  28.436  27.071  13.042
83302W        W47070  34.978  38.917   2.827
83303W        W47071  43.941  18.573  14.946
83304W        W47072  17.701  11.352  10.952
83305W        W47073  20.050  24.579   0.893
83306W        W47074  16.132  20.609  11.475
83307W        W47075  32.075  33.033  10.998
83308W        W47076  23.026  41.853  10.539
83309W        W47077  24.173  25.134   0.461
83310W        W47078  41.532  17.624   0.825
83311W        W47079   4.441   2.762  13.832
83312W        W47080  10.776  28.100  12.365
83313W        W47081   1.247   3.724  10.937
83314W        W47082  34.012  24.546   3.834
83315W        W47083  41.365  28.580   2.394
83316W        W47084  17.278  39.441  10.503
83317W        W47085  40.454  38.075   4.643
83318W        W47086  37.872   8.798   4.803
83319W        W47087   3.381  28.502   1.363
83320W        W47088   7.202   7.712   0.928
83321W        W47089  30.921  38.390   3.788
83322W        W47090  22.588  34.117  11.093
83323W        W47091  20.267   2.470   3.776
83324W        W47092  17.233  39.425   4.172
83325W        W47093   7.253  16.115   3.173
83326W        W47094  22.682  42.485   2.853
83327W        W47095  41.413  19.662   2.266
83328W        W47096  29.031  34.024  14.860
83329W        W47097   3.712  28.676   3.703
83330W        W47098   5.741  41.460   1.738
83331W        W47099  41.939  16.136  13.023
83332W        W47100  33.935  27.629   4.689
83333W        W47101  31.014  24.532   4.172
83334W        W47102  13.145   7.317   5.150
83335W        W47103  36.060   0.256  12.037
83336W        W47104  39.947  20.529   1.722
83337W        W47105   0.753  21.729  13.896
83338W        W47106  44.768   2.337   4.730
83339W        W47107  20.582  24.035   1.362
83340W        W47108   9.785  18.190   0.736
83341W        W47109  40.937  43.822   2.822
83342W        W47110  33.441  32.496   0.846
83343W        W47111  41.502   0.323   3.826
83344W        W47112   0.890  23.167   0.363
83345W        W47113  30.953   1.402   2.893
83346W        W47114   8.718  40.023  11.052
83347W        W47115  34.602   8.347  10.521
83348W        W47116  22.166  33.538  10.635
83349W        W47117   4.213  41.864  10.551
83350W        W47118  35.594  40.882   1.420
83351W        W47119  21.694  41.326   4.754
83352W        W47120  35.522  23.023   2.790
83353W        W47121  39.335  33.605  12.515
83354W        W47122  19.668  17.185   3.810
83355W        W47123  35.581  26.978   2.376
83356W        W47124  31.059  27.091   1.364
83357W        W47125  27.108   2.249   4.195
83358W        W47126  36.980  26.095   3.266
83359W        W47127  29.145  29.520   3.780
83360W        W47128  21.583   2.418   2.696
83361W        W47129  16.662  12.651   0.459
83362W        W47130  43.963  43.341  11.096
83363W        W47131  20.207  21.670  13.396
83364W        W47132  17.202  18.201  12.373
83365W        W47133   3.889   3.388  10.158
83366W        W47134  32.938  32.965  13.354
83367W        W47135  39.991  35.959  13.038
83368W        W47136  42.288  39.923   2.824
83369W        W47137   8.252  18.097  14.928
83370W        W47138  31.907   6.367   2.338
83371W        W47139  12.624   3.753   3.643
83372W        W47140  24.518  15.627   3.266
83373W        W47141  18.214   2.730  12.930
83374W        W47142  19.672  32.063  13.798
83375W        W47143  12.684  33.103   1.925
83376W        W47144   3.312  28.109  13.793
83377W        W47145  16.185  25.664  11.988
83378W        W47146  13.209  38.530  10.447
83379W        W47147  31.134  27.525  11.517
83380W        W47148  17.145  39.380  12.918
83381W        W47149  16.236  10.697   2.709
83382W        W47150  23.084  44.330  14.962
83383W        W47151  26.608   9.244  12.985
83384W        W47152   7.720  35.585  13.369
83385W        W47153   6.235  24.612  13.469
83386W        W47154   1.275  10.796   2.750
83387W        W47155  12.760  17.206  10.416
83388W        W47156   6.767   1.767   3.154
83389W        W47157  32.417  34.406  14.395
83390W        W47158  10.851  35.110   3.177
83391W        W47159  29.063  37.899   1.729
83392W        W47160  17.600  36.416   1.307
83393W        W47161  14.600  23.166   5.205
83394W        W47162  27.166   4.436  11.011
83395W        W47163  38.413  25.967   1.440
83396W        W47164  18.128  34.393  10.129
83397W        W47165  11.324  29.087  14.493
83398W        W47166   1.951  29.121   1.374
83399W        W47167  10.695  34.485  12.074
83400W        W47168  10.794  40.896   4.203
83401W        W47169   6.245   4.292  14.375
83402W        W47170  42.344   0.453  10.427
83403W        W47171  14.716  39.428  11.513
83404W        W47172  18.692  39.360  12.873
83405W        W47173  42.927  27.186   0.409
83406W        W47174  42.943  37.356  10.449
83407W        W47175  27.000  32.430  11.960
83408W        W47176  38.556  17.212   0.872
83409W        W47177  26.207   7.365   4.811
83410W        W47178  26.461   8.699   1.703
83411W        W47179  17.755   5.888   1.323
83412W        W47180  23.601  29.600   4.159
83413W        W47181   1.260  14.160  14.988
83414W        W47182  29.538   7.283   1.229
83415W        W47183  25.139  11.343   1.413
83416W        W47184   5.843  40.912   2.345
83417W        W47185  27.681   2.858   1.771
83418W        W47186  11.775  41.364   4.270
83419W        W47187  12.141   9.325  12.976
83420W        W47188  12.847   3.420   3.635
83421W        W47189   5.405  22.650  13.888
83422W        W47190  39.987  32.583  13.911
83423W        W47191   3.833  11.323  12.846
83424W        W47192  28.522  11.206   5.181
83425W        W47193  19.585   9.180  12.397
83426W        W47194  44.928   6.791  11.031
83427W        W47195  26.140  10.355   2.256
83428W        W47196  41.292  44.268   0.914
83429W        W47197  18.754  19.758  14.005
83430W        W47198  44.950  12.346  11.404
83431W        W47199  41.397  16.691   4.167
83432W        W47200   0.855  27.177  12.870
83433W        W47201  13.233  33.414  11.056
83434W        W47202   3.450  23.551  11.516
83435W        W47203  24.667  14.283   4.660
83436W        W47204  14.803  42.497  14.872
83437W        W47205  34.520  30.561   4.627
83438W        W47206  37.464  35.898   0.743
83439W        W47207  26.693  35.047  13.839
83440W        W47208  26.578  28.454   0.857
83441W        W47209  43.431   3.865   2.725
83442W        W47210  27.956  22.730  11.504
83443W        W47211  43.403  41.905   3.669
83444W        W47212  26.499  35.492   3.861
83445W        W47213  31.139  39.916  12.534
83446W        W47214  27.623  16.688   4.151
83447W        W47215   0.781  12.703  11.603
83448W        W47216  44.878  25.641   1.867
83449W        W47217  41.965   7.377  12.419
83450W        W47218   2.895   7.229   4.825
83451W        W47219   9.259  27.996  14.941
83452W        W47220  28.158   8.240   3.797
83453W        W47221  13.146  35.412   1.232
83454W        W47222  38.962  36.473   3.338
83455W        W47223  29.583  23.613   0.291
83456W        W47224   3.416  37.510  11.530
83457W        W47225  13.709   0.480   3.824
83458W        W47226  20.608   8.354   0.457
83459W        W47227  25.162  24.013   4.816
83460W        W47228  42.308  15.189   4.802
83461W        W47229  36.590  15.190   2.297
83462W        W47230   7.809   6.351   0.260
83463W        W47231  41.423   3.461   4.680
83464W        W47232  30.080  11.630  13.343
83465W        W47233  17.253   8.232   0.307
83466W        W47234  39.000  25.658   0.272
83467W        W47235  26.700  40.943   2.337
83468W        W47236   5.793   5.239  11.857
83469W        W47237  22.172  15.160   0.872
83470W        W47238  36.464   7.845   3.308
83471W        W47239  35.358  35.464   0.330
83472W        W47240  36.090  42.402  10.553
83473W        W47241  44.924   5.915   4.665
83474W        W47242   2.456  25.988  14.953
83475W        W47243   2.747   0.472   2.278
83476W        W47244  35.952  19.186   1.442
83477W        W47245  42.397  37.502   4.335
83478W        W47246  10.243   5.276  11.072
83479W        W47247  31.143  22.709  14.322
83480W        W47248   9.653   0.921   2.326
83481W        W47249  37.957  39.390   0.319
83482W        W47250  29.129  40.428   3.765
83483W        W47251  23.081  24.217   1.854
83484W        W47252  12.632  15.605   4.319
83485W        W47253  32.941  12.292  12.980
83486W        W47254  36.886  40.036   0.880
83487W        W47255  40.440  11.215  14.979
83488W        W47256  33.059  11.860  14.882
83489W        W47257   9.681  28.636   3.751
83490W        W47258  12.195   9.821   0.814
83491W        W47259  23.575  29.575  10.585
83492W        W47260  35.947  43.788  11.405
83493W        W47261  10.660  13.609   0.749
83494W        W47262  40.305  15.643  14.011
83495W        W47263  42.512  19.204   3.687
83496W        W47264  42.811  36.028   2.368
83497W        W47265  39.520  20.633   2.702
83498W        W47266  21.524  31.538   3.246
83499W        W47267  29.046  37.510  12.499
83500W        W47268  16.660  37.837  14.454
83501W        W47269  27.130  21.513  12.543
83502W        W47270   8.696  25.217  10.098
83503W        W47271  24.092  15.305  11.899
83504W        W47272  41.387  42.786   3.706
83505W        W47273  23.154   5.269   1.294
83506W        W47274  37.010  33.603   2.265
83507W        W47275  23.230  15.739  12.023
83508W        W47276  30.162  44.947  12.926
83509W        W47277  21.232  33.053   2.207
83510W        W47278  15.742  25.079  13.439
83511W        W47279  30.126  36.859  13.006
83512W        W47280  15.259  15.243  12.887
83513W        W47281  24.160  38.072  13.329
83514W        W47282   9.389   6.388  13.014
83515W        W47283  34.009  30.969   4.818
83516W        W47284  25.027  16.614   4.201
83517W        W47285   9.153   5.851  10.999
83518W        W47286   7.233  23.009   2.351
83519W        W47287  25.055  19.269  12.037
83520W        W47288  20.672   5.280   1.765
83521W        W47289  36.540  32.121  12.032
83522W        W47290   7.314  44.985   0.252
83523W        W47291  23.530  14.132  11.955
83524W        W47292  36.461  23.590  14.474
83525W        W47293   2.342  31.918   4.800
83526W        W47294  26.633  16.269   3.631
83527W        W47295  27.459  36.402  11.952
83528W        W47296  10.862  12.290  13.528
83529W        W47297  41.862   8.280  10.894
83530W        W47298  42.804  37.472   2.329
83531W        W47299   8.387  36.038   3.261
83532W        W47300  44.387   7.823  14.897
83533W        W47301  36.862  22.607  11.043
83534W        W47302  24.682  41.923   4.116
83535W        W47303  36.553   4.316   3.699
83536W        W47304  32.956  35.076   3.310
83537W        W47305   0.810  42.308   4.132
83538W        W47306  13.176   4.366  11.595
83539W        W47307  25.010  20.580   4.835
83540W        W47308   6.379  43.359  13.884
83541W        W47309   6.229  27.682  14.331
83542W        W47310   2.233  38.555   2.327
83543W        W47311   7.173  32.600  14.822
83544W        W47312  35.961  38.068   2.298
83545W        W47313  31.551  38.995   2.713
83546W        W47314   1.914  39.940  10.555
83547W        W47315   4.941   1.264   0.876
83548W        W47316   6.869   6.346  13.530
83549W        W47317  14.184  30.119  14.908
83550W        W47318  23.015  18.258   1.302
83551W        W47319  11.127  30.943   2.663
83552W        W47320  11.313  26.168  13.029
83553W        W47321  32.062  38.537   4.603
83554W        W47322  24.035  29.542   3.816
83555W        W47323  17.162  31.053   0.274
83556W        W47324  30.558   7.710   2.725
83557W        W47325  14.591   9.793   4.319
83558W        W47326  15.314  30.508  13.470
83559W        W47327  12.249   5.372  13.487
83560W        W47328   0.854  33.022   3.253
83561W        W47329   4.216  36.091   5.261
83562W        W47330  29.503  16.796   3.761
83563W        W47331  43.863  39.451  14.906
83564W        W47332  40.447  23.725   4.255
83565W        W47333   4.326  32.896   4.642
83566W        W47334  19.055  11.314   3.813
83567W        W47335  19.761   5.868   2.726
83568W        W47336  29.434   2.404  11.883
83569W        W47337  13.771   1.780   2.820
83570W        W47338  23.708  29.996   2.730
83571W        W47339  13.648   3.823   0.963
83572W        W47340  35.422  20.217   2.845
83573W        W47341   7.893  36.422  13.399
83574W        W47342  25.050  13.695   4.688
83575W        W47343  17.745  32.912  11.441
83576W        W47344  35.044   2.313  11.563
83577W        W47345  27.487  26.076  11.519
83578W        W47346  31.506  32.085   0.438
83579W        W47347  29.126  23.605   1.215
83580W        W47348  36.986  41.439   4.621
83581W        W47349   5.329  27.154   1.214
83582W        W47350   9.271  18.724   4.116
83583W        W47351  33.041  23.708  14.294
83584W        W47352  16.198  27.546   2.284
83585W        W47353  19.687   8.857  11.065
83586W        W47354   4.789  39.551  13.864
83587W        W47355  19.555  15.708   0.311
83588W        W47356  12.740  13.711   9.984
83589W        W47357  36.590  29.449  11.543
83590W        W47358   7.386  13.273  12.349
83591W        W47359  13.756  33.954   3.710
83592W        W47360  25.188  36.391  10.934
83593W        W47361  32.971   4.725  14.347
83594W        W47362  15.135  25.033  13.377
83595W        W47363  16.191  11.815  14.760
83596W        W47364   1.884   0.918  11.413
83597W        W47365  44.862   9.334  12.489
83598W        W47366  11.260  44.492   4.744
83599W        W47367   9.235  44.846  11.595
83600W        W47368  37.044  28.640   2.837
83601W        W47369  19.630   7.753  12.983
83602W        W47370  24.105  27.609  13.895
83603W        W47371  34.485   1.754  14.920
83604W        W47372   8.757  28.153   1.322
83605W        W47373  43.397   8.708   3.864
83606W        W47374  18.246  37.880   0.922
83607W        W47375  16.199  26.200   1.888
83608W        W47376  34.994  33.453  13.438
83609W        W47377  32.037   2.761   2.337
83610W        W47378  16.201  19.248   4.232
83611W        W47379  43.945  12.693  13.461
83612W        W47380  43.880  16.594   3.738
83613W        W47381   9.806  44.332  14.382
83614W        W47382  38.038   3.918  14.862
83615W        W47383  35.439  10.167  13.995
83616W        W47384  18.265   9.777  11.976
83617W        W47385  18.161   3.782  12.875
83618W        W47386  19.572   5.232   4.744
83619W        W47387   2.847  41.476  12.425
83620W        W47388  31.978  40.864  14.356
83621W        W47389  37.916   9.826   1.306
83622W        W47390  43.837  43.386  13.851
83623W        W47391  13.664  34.590   4.347
83624W        W47392  32.117   9.292   0.829
83625W        W47393  24.134   6.748   2.253
83626W        W47394  12.824   0.306  14.423
83627W        W47395  43.438  28.115   0.882
83628W        W47396   3.271  43.928  14.365
83629W        W47397  24.632  23.528  13.964
83630W        W47398  23.557  19.541  10.937
83631W        W47399  20.686  37.344  14.760
83632W        W47400  31.469  43.864  12.985
83633W        W47401  10.295  44.480   1.856
83634W        W47402   1.852  33.380   5.150
83635W        W47403  13.234  21.522   0.778
83636W        W47404   9.865   3.428   1.353
83637W        W47405  13.249  38.963  11.038
83638W        W47406   5.391   2.343   0.406
83639W        W47407  14.693  16.704  12.828
83640W        W47408  38.054  33.900  12.933
83641W        W47409  30.922   9.866  14.460
83642W        W47410  32.903  38.821  11.584
83643W        W47411  16.572   0.871  14.914
83644W        W47412  38.413   0.398  11.436
83645W        W47413  31.147  19.757   4.830
83646W        W47414  17.159   1.793  14.901
83647W        W47415   1.295  30.503   4.298
83648W        W47416  22.654  18.203   0.873
83649W        W47417  18.651  10.231  13.908
83650W        W47418  16.570  24.981  14.384
83651W        W47419  37.392   4.209  13.531
83652W        W47420   4.814  29.065  12.077
83653W        W47421  19.153  29.069   0.431
83654W        W47422  42.523  43.388   3.207
83655W        W47423  43.871  27.972   3.274
83656W        W47424  24.227  25.599   4.336
83657W        W47425  37.984  27.022  13.377
83658W        W47426  38.330  33.038  13.410
83659W        W47427  14.129   0.250  10.437
83660W        W47428  25.093  14.168   2.373
83661W        W47429   0.247  42.378  12.963
83662W        W47430  28.532   3.428   2.862
83663W        W47431  29.111  33.541  13.413
83664W        W47432  17.628  35.484  10.458
83665W        W47433  44.424  36.348   3.686
83666W        W47434   6.900   3.461  13.959
83667W        W47435  42.499  32.952  11.516
83668W        W47436  29.555  35.600   3.296
83669W        W47437  33.474  29.626  10.144
83670W        W47438  32.939  19.622  11.872
83671W        W47439  42.994  22.156   1.904
83672W        W47440  26.139  23.999  11.859
83673W        W47441  13.818  15.186  12.553
83674W        W47442  29.659  22.745   3.352
83675W        W47443  18.110   4.376   0.317
83676W        W47444  36.940  19.579  14.864
83677W        W47445  17.779  39.849  11.089
83678W        W47446  42.834   8.248   0.806
83679W        W47447  19.600   7.671  10.495
83680W        W47448   5.849  43.454  10.571
83681W        W47449  32.456  44.921   2.200
83682W        W47450  37.998   4.314  12.536
83683W        W47451   4.244  41.987  13.880
83684W        W47452  25.057  38.905   1.742
83685W        W47453  31.569   8.389   0.312
83686W        W47454   3.812  11.629   0.304
83687W        W47455  41.297  22.222  11.067
83688W        W47456  11.720   0.869   1.290
83689W        W47457  20.271  12.216   4.717
83690W        W47458  40.049  18.129   3.862
83691W        W47459  22.014  41.038  13.864
83692W        W47460  33.418   8.291  14.921
83693W        W47461  26.505  39.022   1.758
83694W        W47462  28.092  21.048   3.178
83695W        W47463   3.260  44.301   1.782
83696W        W47464  30.961   7.860   3.221
83697W        W47465  43.849  19.738   5.110
83698W        W47466  41.435  26.081  11.597
83699W        W47467  20.065  27.986   9.948
83700W        W47468   8.177   5.307   4.607
83701W        W47469  33.044  44.933  12.457
83702W        W47470  38.393  20.162   1.903
83703W        W47471  12.210  21.220  10.633
83704W        W47472  27.484   1.916   1.446
83705W        W47473   4.730  19.147  11.416
83706W        W47474  17.251  29.520  12.415
83707W        W47475  38.934  13.167   5.202
83708W        W47476   0.451  11.343   2.223
83709W        W47477   8.744  15.676  10.067
83710W        W47478  33.081  20.758  13.988
83711W        W47479  24.488  40.802   0.938
83712W        W47480   8.776  15.803   1.400
83713W        W47481   8.365  32.991  13.913
83714W        W47482   3.289  21.153   1.706
83715W        W47483   9.212   8.369  11.886
83716W        W47484   5.436  34.448   0.389
83717W        W47485  10.682  41.817   4.798
83718W        W47486  38.887  22.575  10.429
83719W        W47487  40.466  24.109   3.818
83720W        W47488  31.614  13.234   1.393
83721W        W47489  35.426  28.509   2.380
83722W        W47490  14.301   0.863   3.840
83723W        W47491   2.881  36.007   0.854
83724W        W47492  11.364  37.501  14.989
83725W        W47493  20.233  27.517  12.941
83726W        W47494   8.674   9.315  12.839
83727W        W47495   6.851  26.065   4.693
83728W        W47496  33.472  15.779   2.814
83729W        W47497  13.651  25.617   4.229
83730W        W47498  42.423  18.791   0.307
83731W        W47499  22.529  38.489   1.332
83732W        W47500  10.326  44.793   3.319
83733W        W47501  24.196  26.968   1.250
83734W        W47502  20.644  43.952   2.343
83735W        W47503   0.480  20.638   0.364
83736W        W47504  20.152  12.317   3.188
83737W        W47505  16.118  34.957   3.293
83738W        W47506  40.961  32.455   0.273
83739W        W47507   9.752   4.288  12.942
83740W        W47508  34.066  18.737  14.926
83741W        W47509   9.178  19.058  11.069
83742W        W47510  15.688  27.955  12.923
83743W        W47511  11.859   7.258   2.314
83744W        W47512  30.518  35.380   3.849
83745W        W47513  33.508  35.593   1.888
83746W        W47514  11.740   3.760   0.908
83747W        W47515  41.391  32.009  13.332
83748W        W47516  12.752  26.519   1.335
83749W        W47517   3.215  14.647  11.871
83750W        W47518  20.768  44.816   1.227
83751W        W47519  18.630  14.156   2.384
83752W        W47520  37.067  43.462  10.409
83753W        W47521   7.196   3.856   2.769
83754W        W47522  13.157  21.729  14.417
83755W        W47523  24.679  23.494   2.223
83756W        W47524  41.466   2.330   3.683
83757W        W47525   4.413  35.066  14.983
83758W        W47526  12.723  10.725   4.641
83759W        W47527  19.556  43.835  12.062
83760W        W47528  18.699  10.837   0.904
83761W        W47529  36.061  16.198  12.915
83762W        W47530  25.590   8.240  11.067
83763W        W47531   6.833   3.429   4.258
83764W        W47532  39.911   3.441  13.517
83765W        W47533   5.783  23.233  13.384
83766W        W47534  21.512   7.890  13.833
83767W        W47535  43.968  41.845   1.270
83768W        W47536  17.282  11.652   0.836
83769W        W47537  10.215  36.865  12.404
83770W        W47538  41.393  14.680  12.050
83771W        W47539  22.204  22.068  14.487
83772W        W47540  36.577  39.022   1.829
83773W        W47541  30.079  12.345  14.870
83774W        W47542  27.150  38.563  11.896
83775W        W47543  36.473  27.011   2.205
83776W        W47544  20.674  26.182  14.892
83777W        W47545  36.510  44.428   1.373
83778W        W47546  12.323  21.260   4.833
83779W        W47547  39.402  33.503  11.964
83780W        W47548  41.402  40.472   2.210
83781W        W47549  20.750   6.226  12.919
83782W        W47550  39.944  28.160   3.367
83783W        W47551  29.610  11.164   4.674
83784W        W47552   8.186   7.269   2.792
83785W        W47553  15.232  16.154   3.206
83786W        W47554  35.968  22.597  14.898
83787W        W47555  15.693  37.972  12.470
83788W        W47556  26.639   8.405  14.336
83789W        W47557   3.271  10.141   4.635
83790W        W47558  41.352  25.518   2.214
83791W        W47559  30.064   6.696  12.555
83792W        W47560  42.988  27.066  14.354
83793W        W47561  18.058  22.533  10.919
83794W        W47562  27.521  16.211  13.793
83795W        W47563  14.817  16.124   3.309
83796W        W47564   5.857   3.333   5.247
83797W        W47565  17.600   3.257   3.719
83798W        W47566   2.312  43.476   1.388
83799W        W47567  20.667  13.711   2.743
83800W        W47568  38.067  23.604   2.720
83801W        W47569  23.197   3.878  12.069
83802W        W47570  26.197   2.893  14.348
83803W        W47571  38.960  13.242   1.802
83804W        W47572  22.590   0.397   2.193
83805W        W47573   5.905  35.471  10.471
83806W        W47574  39.989   6.349   2.181
83807W        W47575   6.758  27.545  12.000
83808W        W47576   4.896  14.743   1.738
83809W        W47577  40.504  10.323   4.133
83810W        W47578  41.356  23.696   0.244
83811W        W47579  31.406  12.273  12.389
83812W        W47580  42.879  15.255   4.287
83813W        W47581  10.159   7.743   3.649
83814W        W47582  10.252  23.593   3.209
83815W        W47583  31.607  22.655   2.392
83816W        W47584  39.540  27.183  14.910
83817W        W47585  38.371   5.925  10.917
83818W        W47586  35.913   6.701  10.570
83819W        W47587  17.157  16.677  11.875
83820W        W47588  18.587  16.772   5.262
83821W        W47589   5.888  17.727   2.794
83822W        W47590  34.608  21.114  11.537
83823W        W47591  28.085  23.172  11.565
83824W        W47592  11.258  11.153  14.402
83825W        W47593  26.516  14.638  10.500
83826W        W47594  43.471  16.628   1.316
83827W        W47595   5.243  28.594  13.050
83828W        W47596  24.126  26.605   3.243
83829W        W47597  15.245  37.401   2.181
83830W        W47598  19.248   5.741  12.442
83831W        W47599  37.438  10.172  11.949
83832W        W47600  44.841  31.613  12.510
83833W        W47601   8.292  37.893  11.578
83834W        W47602  35.395  20.094  13.804
83835W        W47603  29.111  38.529   2.829
83836W        W47604  38.009  39.822   2.234
83837W        W47605   6.365   8.705   5.283
83838W        W47606   0.444  19.184   2.307
83839W        W47607   4.327   1.479   2.824
83840W        W47608   3.795  21.065   0.862
83841W        W47609  13.824  18.648   3.148
83842W        W47610  28.604   3.790   2.258
83843W        W47611  18.592   3.813  13.506
83844W        W47612  20.553   7.897  13.322
83845W        W47613  31.407  25.036  12.978
83846W        W47614  16.164   1.794   0.301
83847W        W47615   0.934  34.597  14.825
83848W        W47616  22.244  38.047  13.022
83849W        W47617  40.024   6.921   3.656
83850W        W47618  28.011  16.714   0.248
83851W        W47619  10.329  40.812   2.899
83852W        W47620  21.644  14.180   3.668
83853W        W47621  34.588  14.784  14.966
83854W        W47622  26.036  35.401   5.701
83855W        W47623   8.695  17.611   1.343
83856W        W47624  38.059   0.302  13.000
83857W        W47625  18.103  42.943  11.594
83858W        W47626  42.375  41.972  11.062
83859W        W47627  12.670  33.533  12.442
83860W        W47628  33.051   8.855   4.660
83861W        W47629  40.414  44.496  10.540
83862W        W47630  27.156   7.365   3.742
83863W        W47631   3.791  33.482  13.376
83864W        W47632   5.828  43.942  13.913
83865W        W47633  24.096  30.617   5.081
83866W        W47634  36.493   9.277   2.218
83867W        W47635  18.194  25.603  13.493
83868W        W47636  30.444  16.186  12.404
83869W        W47637  12.761  37.077   2.374
83870W        W47638  12.673   6.714   0.342
83871W        W47639  43.314   1.806   3.817
83872W        W47640  14.151  25.668   0.363
83873W        W47641  10.792  11.801  13.964
83874W        W47642  32.073  30.476   9.974
83875W        W47643  24.115  23.728  11.946
83876W        W47644  30.061  29.023  11.585
83877W        W47645  35.970  40.838   0.436
83878W        W47646  41.323  15.091  14.939
83879W        W47647   5.273  32.984  11.600
83880W        W47648  19.710  31.609   3.186
83881W        W47649  38.007  36.862   3.332
83882W        W47650  27.689   8.222  10.535
83883W        W47651  36.072  43.895   3.823
83884W        W47652  24.587  37.943   2.259
83885W        W47653   3.813  35.576   2.825
83886W        W47654   2.843   3.317  14.304
83887W        W47655  31.055  12.810   2.336
83888W        W47656   1.385  22.060   2.194
83889W        W47657  12.675  44.489   1.930
83890W        W47658   4.849  29.017   2.842
83891W        W47659  32.604   0.743   0.295
83892W        W47660  33.510  25.996   0.767
83893W        W47661   0.349  41.876   4.758
83894W        W47662   3.781  22.505   0.366
83895W        W47663  39.862  23.716  14.807
83896W        W47664   4.934  15.198   4.157
83897W        W47665  42.794  21.044   2.694
83898W        W47666  39.945  35.391   0.253
83899W        W47667  22.702   4.860   1.274
83900W        W47668  37.027  22.664   4.323
83901W        W47669  18.258  44.324  11.127
83902W        W47670  37.340  20.607   0.277
83903W        W47671  36.966  21.234  14.781
83904W        W47672  26.065  14.115   1.439
83905W        W47673   0.962  31.502   2.697
83906W        W47674  26.606  24.486  13.869
83907W        W47675  24.230  38.550  12.561
83908W        W47676  28.138   3.270  13.307
83909W        W47677  31.121  27.685  12.371
83910W        W47678  15.641  32.034   5.307
83911W        W47679   7.322   9.371   4.290
83912W        W47680  13.696  31.641   1.343
83913W        W47681   1.923  26.588   4.206
83914W        W47682  31.915  13.617  11.500
83915W        W47683  12.709   5.715  13.357
83916W        W47684  34.600   8.820   2.781
83917W        W47685  44.408  25.609  13.443
83918W        W47686   3.427  31.557   1.877
83919W        W47687   1.326  34.572   1.859
83920W        W47688  34.418   7.770   0.386
83921W        W47689  29.939  17.189  11.409
83922W        W47690   3.728  18.612   1.862
83923W        W47691  44.915   0.988   2.826
83924W        W47692  10.870  21.566   3.720
83925W        W47693  35.045  14.766   1.755
83926W        W47694  28.488  28.633   2.351
83927W        W47695  17.121  40.830   4.830
83928W        W47696  30.587   3.732   4.737
83929W        W47697  30.421  36.374  13.886
83930W        W47698  35.056  22.517  12.952
83931W        W47699   6.890  32.419  14.883
83932W        W47700  40.812  15.637   4.685
83933W        W47701  42.443  30.023  11.983
83934W        W47702  18.633  18.775   0.439
83935W        W47703   9.185  33.470   4.714
83936W        W47704  12.639   6.268  10.424
83937W        W47705  33.569  15.753  11.864
83938W        W47706  29.956  22.646   2.221
83939W        W47707  17.700  26.676   9.662
83940W        W47708  43.848  20.599   3.827
83941W        W47709  35.008  39.045  13.855
83942W        W47710  40.873  27.619  14.765
83943W        W47711  29.108  42.318  10.929
83944W        W47712  37.415   4.796   3.210
83945W        W47713  41.508  17.560  10.586
83946W        W47714  15.312  18.244  14.302
83947W        W47715  11.191  43.375   1.411
83948W        W47716  11.788  12.340   2.765
83949W        W47717  29.623   9.807  13.455
83950W        W47718  22.153  23.078  11.498
83951W        W47719  41.791  29.492  12.043
83952W        W47720  29.616  39.464  12.925
83953W        W47721   2.866  43.805  13.917
83954W        W47722  39.358  35.466   2.809
83955W        W47723  32.473  23.599  10.553
83956W        W47724   7.340  15.091   1.211
83957W        W47725  20.718   7.276  14.808
83958W        W47726  21.065  38.559   3.211
83959W        W47727   4.891  42.904   0.477
83960W        W47728  41.403  24.056  11.869
83961W        W47729  44.486  21.048   2.855
83962W        W47730   7.768  32.947   2.390
83963W        W47731  29.000   7.295  10.989
83964W        W47732  36.412  39.855  10.622
83965W        W47733  33.004   5.691   1.872
83966W        W47734  24.510  19.693   1.710
83967W        W47735  37.462  40.370   4.135
83968W        W47736   2.304  19.253   3.364
83969W        W47737  10.255  39.831  12.080
83970W        W47738   3.926  23.645  14.285
83971W        W47739  31.089   1.451  12.914
83972W        W47740  14.719  24.512   0.418
83973W        W47741  18.616  32.476   1.836
83974W        W47742  36.573  16.669   4.725
83975W        W47743  29.608  28.147  10.475
83976W        W47744   2.280  28.642   3.307
83977W        W47745  13.681  38.410  12.830
83978W        W47746  11.825  34.565  14.439
83979W        W47747  17.696  42.002  11.126
83980W        W47748  19.661   3.264  13.475
83981W        W47749  13.239  16.318  12.449
83982W        W47750   3.415   4.234  14.804
83983W        W47751  28.666   8.728  14.445
83984W        W47752  25.114  25.600   0.886
83985W        W47753  28.987  44.261  14.427
83986W        W47754  40.486  22.578  14.457
83987W        W47755  30.058  19.207   4.737
83988W        W47756  25.085   0.408   0.279
83989W        W47757  43.356   3.947   3.146
83990W        W47758   5.889  20.575  13.039
83991W        W47759   1.333  12.841   3.179
83992W        W47760  32.604  13.174  14.383
83993W        W47761  31.428  28.991  14.949
83994W        W47762   6.347  34.917   0.930
83995W        W47763  44.876  27.581  10.456
83996W        W47764   9.677  13.268  12.485
83997W        W47765  33.053   2.849   1.776
83998W        W47766  43.502  38.923  14.333
83999W        W47767  38.534  39.866   2.742
84000W        W47768  25.980  26.168   1.782
84001W        W47769  24.197   3.278  12.413
84002W        W47770  26.528  31.614  12.348
84003W        W47771  22.705  37.465   0.887
84004W        W47772  13.609  42.031   1.299
84005W        W47773  12.346   1.279  12.910
84006W        W47774  38.439  28.112  12.361
84007W        W47775  32.909  12.281  14.316
84008W        W47776   4.853  39.829   4.631
84009W        W47777  44.986  36.458  12.854
84010W        W47778  25.596  12.771   0.391
84011W        W47779  17.557   1.857   3.203
84012W        W47780  42.799  43.446  13.902
84013W        W47781  23.514   6.369   4.181
84014W        W47782  31.055   9.321   2.311
84015W        W47783  41.951  33.519  12.886
84016W        W47784   7.417  32.511   1.739
84017W        W47785  21.187  34.444  10.969
84018W        W47786   9.765  16.630   1.324
84019W        W47787  13.691  20.651   1.720
84020W        W47788  30.929   3.710  10.985
84021W        W47789   0.427   6.242   0.481
84022W        W47790  39.871   7.823   1.314
84023W        W47791  13.687   0.855  14.338
84024W        W47792  37.475  36.979  10.604
84025W        W47793   0.864   8.784   5.086
84026W        W47794  12.698  10.155  12.997
84027W        W47795   5.775  36.466   1.856
84028W        W47796  43.878  35.065   3.663
84029W        W47797   7.850  26.581  12.856
84030W        W47798  16.299  21.535   5.601
84031W        W47799  38.041  22.512  13.368
84032W        W47800  20.113  25.159  10.056
84033W        W47801  19.200  14.684   1.340
84034W        W47802   4.419  17.575   2.868
84035W        W47803  38.954  25.632   4.708
84036W        W47804  31.957  26.462   3.689
84037W        W47805   0.479  22.109   4.631
84038W        W47806   4.422  27.685   2.852
84039W        W47807  38.352   3.264  12.952
84040W        W47808   3.805  11.207   3.374
84041W        W47809  28.118  21.561   2.208
84042W        W47810  33.576   9.158  11.924
84043W        W47811  10.208  28.164  11.475
84044W        W47812  34.537   7.172   4.167
84045W        W47813   5.852   1.483  12.460
84046W        W47814  40.429  23.018   2.252
84047W        W47815  33.529  31.063   3.261
84048W        W47816   7.180   3.379   2.903
84049W        W47817  33.967   6.912  12.502
84050W        W47818   2.863  25.644   0.370
84051W        W47819  19.570  29.434   3.260
84052W        W47820  39.937  32.068  12.482
84053W        W47821  39.460   7.694  14.864
84054W        W47822  18.611   1.410  13.000
84055W        W47823   4.325  13.721   2.726
84056W        W47824  26.601  36.042  12.943
84057W        W47825  44.800  31.509  14.505
84058W        W47826   4.293  22.570  11.512
84059W        W47827  25.068  41.947  10.546
84060W        W47828   8.340  15.719   3.261
84061W        W47829   9.780   4.859   0.854
84062W        W47830   3.423  22.118  14.462
84063W        W47831  40.016  32.548   4.619
84064W        W47832  39.847   6.838   2.680
84065W        W47833   7.735  12.275   2.252
84066W        W47834   7.852   7.382  13.447
84067W        W47835  37.896  24.978  13.425
84068W        W47836  27.616  19.104   1.392
84069W        W47837  13.137  29.571  12.835
84070W        W47838  20.069  34.541  14.769
84071W        W47839  14.328  36.928  11.555
84072W        W47840  11.357   0.473   2.774
84073W        W47841  13.794  38.433   0.403
84074W        W47842  10.345   2.940  13.503
84075W        W47843   9.749  16.141   3.638
84076W        W47844  14.312  15.199   2.324
84077W        W47845  22.739   1.326   4.711
84078W        W47846   2.872  28.621   0.304
84079W        W47847   1.338  35.359  14.930
84080W        W47848  39.965  31.037  10.999
84081W        W47849  14.778  44.284  11.914
84082W        W47850  21.726  33.564  10.094
84083W        W47851  33.986  32.392  13.041
84084W        W47852  44.005  18.237  11.489
84085W        W47853  39.042  36.511   0.355
84086W        W47854   3.235   1.371   3.864
84087W        W47855  17.219   2.958   4.607
84088W        W47856   2.790  28.523   3.680
84089W        W47857   5.425  30.591  11.087
84090W        W47858   2.395  27.577  13.796
84091W        W47859  11.336  30.909   3.821
84092W        W47860  19.271   0.396  12.953
84093W        W47861  18.671  43.988   4.303
84094W        W47862  42.427  33.892   1.252
84095W        W47863  35.932  15.658   0.387
84096W        W47864  16.300  12.648  14.779
84097W        W47865  32.988  19.169  13.895
84098W        W47866  39.322  35.898  11.934
84099W        W47867  16.115  40.856  14.411
84100W        W47868  35.109  16.754  12.541
84101W        W47869  16.078   1.950   4.225
84102W        W47870   0.293  30.996  12.042
84103W        W47871  10.254  27.982  10.944
84104W        W47872  12.302   8.314   1.280
84105W        W47873  18.578   2.394  10.950
84106W        W47874  12.819  31.047   4.284
84107W        W47875  26.659   0.916   3.814
84108W        W47876  14.589  26.488  12.072
84109W        W47877  41.882  28.675  11.124
84110W        W47878  40.994  30.040   9.579
84111W        W47879  32.049  21.062   2.727
84112W        W47880   1.381  40.343   3.244
84113W        W47881  44.465  19.717   1.320
84114W        W47882  32.449  14.775  12.901
84115W        W47883   8.405  27.671   1.901
84116W        W47884   2.247  40.497  14.765
84117W        W47885  42.299  36.417  13.458
84118W        W47886  30.482  10.743  13.824
84119W        W47887  17.075  27.455   1.704
84120W        W47888   0.414   7.824  14.369
84121W        W47889  26.651  12.222   1.287
84122W        W47890  29.117  20.634   2.746
84123W        W47891  21.727  17.742   4.273
84124W        W47892  16.080  37.339   5.174
84125W        W47893   9.321   6.401  10.645
84126W        W47894  43.327  31.588  12.903
84127W        W47895  26.586  27.538   3.851
84128W        W47896  40.020   0.909   3.823
84129W        W47897  22.067  12.221   2.221
84130W        W47898  38.430  37.955   2.289
84131W        W47899  32.016  41.815   2.828
84132W        W47900   8.220   9.364   2.419
84133W        W47901  24.613   0.862  11.860
84134W        W47902  27.650   8.672  11.571
84135W        W47903  19.569  43.986  11.391
84136W        W47904  28.610  31.959   4.303
84137W        W47905  25.547  40.818   3.234
84138W        W47906   0.748  31.591  10.985
84139W        W47907  21.643  26.197  11.457
84140W        W47908  34.496  21.049  13.806
84141W        W47909  11.169  37.424   1.723
84142W        W47910  33.942  29.160  12.916
84143W        W47911  38.858  20.271  13.378
84144W        W47912  31.121  15.729   2.860
84145W        W47913  28.961  38.549  12.579
84146W        W47914  16.285  23.241  13.358
84147W        W47915  36.355   6.234   0.785
84148W        W47916  22.741  19.247   4.684
84149W        W47917  27.165  16.786  12.339
84150W        W47918  43.512  18.118  11.523
84151W        W47919  16.300  38.360   1.378
84152W        W47920  34.963  26.079  11.421
84153W        W47921  26.972   8.705  13.968
84154W        W47922  15.604  26.657   2.225
84155W        W47923  42.809  11.683   3.272
84156W        W47924  19.685  30.630   4.835
84157W        W47925  33.515  17.280  13.056
84158W        W47926  27.675  44.480   1.919
84159W        W47927  41.907  27.127  10.610
84160W        W47928  10.658   9.356  11.877
84161W        W47929  18.236  10.692  12.060
84162W        W47930  41.804  14.177   4.693
84163W        W47931  10.826  19.169   1.344
84164W        W47932  12.281  33.887   1.900
84165W        W47933  32.597  25.494  12.534
84166W        W47934   8.335   2.731   0.826
84167W        W47935  17.064  33.452  11.493
84168W        W47936  19.139   4.281   2.700
84169W        W47937  27.555   3.224  11.113
84170W        W47938  36.448   3.361   2.204
84171W        W47939  13.346   3.461  12.524
84172W        W47940  34.570  24.107  14.911
84173W        W47941  28.447  16.084   4.302
84174W        W47942   7.762  42.363  11.061
84175W        W47943  24.534  10.863   4.787
84176W        W47944  10.644  23.175   1.916
84177W        W47945   5.839  16.693   4.187
84178W        W47946  37.925  43.864  12.478
84179W        W47947  24.616  41.389   4.116
84180W        W47948   4.421   1.266  14.799
84181W        W47949   9.395  21.192  14.463
84182W        W47950   0.461  20.588   2.886
84183W        W47951  13.731  29.656   0.815
84184W        W47952  17.258  17.646   4.142
84185W        W47953   8.798  31.530  14.976
84186W        W47954   5.869  10.329   0.821
84187W        W47955   2.390  17.124  13.031
84188W        W47956  11.258  20.052   0.876
84189W        W47957  44.348   9.868   4.237
84190W        W47958   5.310  17.083  14.335
84191W        W47959  35.451  12.311   0.921
84192W        W47960  42.958  29.941   0.871
84193W        W47961  41.339  25.966  14.853
84194W        W47962  44.464  34.021  14.451
84195W        W47963  17.199  20.597   3.240
84196W        W47964   7.349   6.711  12.488
84197W        W47965  38.551   2.410  14.785
84198W        W47966  24.062   9.881  11.118
84199W        W47967  16.786  38.425  10.588
84200W        W47968  10.683  13.661  12.965
84201W        W47969  25.504   6.835  11.872
84202W        W47970  18.696   7.267  11.570
84203W        W47971  27.183  27.640  10.448
84204W        W47972  28.638  27.110   4.828
84205W        W47973   8.188  18.707   0.347
84206W        W47974  43.282   9.757  10.625
84207W        W47975  20.550  37.535  12.434
84208W        W47976  11.341  22.122  13.406
84209W        W47977  41.931  26.952  11.493
84210W        W47978   3.911  25.203  12.453
84211W        W47979   1.422  14.318  11.410
84212W        W47980  27.064   8.788  14.829
84213W        W47981   0.329   6.699  11.578
84214W        W47982  39.506   7.414  11.567
84215W        W47983  17.302  28.543  11.127
84216W        W47984  42.880   4.858  11.903
84217W        W47985  38.532  32.912  14.384
84218W        W47986  23.234   2.449   1.300
84219W        W47987  26.472  18.098  12.419
84220W        W47988  41.030  31.448   4.644
84221W        W47989  44.009  14.262  14.413
84222W        W47990  14.178   7.709  12.894
84223W        W47991   9.204  15.661   0.851
84224W        W47992  31.077  10.873   1.726
84225W        W47993  25.593   4.804  13.378
84226W        W47994  41.822  38.925  14.849
84227W        W47995  21.065  39.538  11.503
84228W        W47996  33.466  41.460  14.878
84229W        W47997  34.369  27.557   3.643
84230W        W47998  34.048  18.081   3.193
84231W        W47999  19.174  15.181   1.270
84232W        W48000   1.832  14.727  13.415
84233W        W48001  39.027   5.763   2.390
84234W        W48002  30.030  11.673  12.461
84235W        W48003  42.413   9.731   2.234
84236W        W48004  32.121  26.489  13.462
84237W        W48005   8.734  25.576  12.441
84238W        W48006  38.415  13.671   1.360
84239W        W48007  31.039  29.171   4.204
84240W        W48008  20.057  23.576  14.001
84241W        W48009  26.004  24.008   0.481
84242W        W48010  12.738  42.960   4.785
84243W        W48011  42.803  19.765   2.893
84244W        W48012  37.018  21.602  12.896
84245W        W48013  31.634  42.788   4.646
84246W        W48014   2.964  23.001   0.347
84247W        W48015  38.485  35.504  12.372
84248W        W48016  39.889  35.381   3.643
84249W        W48017   0.790  14.311   3.271
84250W        W48018  10.781  21.217  11.554
84251W        W48019  19.174  40.024   0.915
84252W        W48020   4.409  42.496  13.446
84253W        W48021   7.208  24.212  14.944
84254W        W48022   3.831  12.824   4.339
84255W        W48023  28.444  26.086   1.698
84256W        W48024  37.871  15.085   0.727
84257W        W48025  27.001  27.549   3.716
84258W        W48026  41.000  44.377  12.346
84259W        W48027  43.454   1.924  11.083
84260W        W48028  13.219  27.978   1.774
84261W        W48029  27.673  29.055  14.844
84262W        W48030  35.559  22.695  11.488
84263W        W48031  12.231  30.110   2.307
84264W        W48032  30.440   5.802   1.353
84265W        W48033  28.597  44.893  13.832
84266W        W48034   5.871  15.737   4.703
84267W        W48035  23.149  28.545   1.341
84268W        W48036   3.847  12.696   0.404
84269W        W48037  17.205  40.528  10.983
84270W        W48038  40.329  16.146  14.958
84271W        W48039   8.207   0.315   2.718
84272W        W48040   7.736   7.698   0.893
84273W        W48041   9.728  41.450  14.485
84274W        W48042  31.410  44.259   0.258
84275W        W48043  42.905  11.770   0.866
84276W        W48044  23.063  14.210  12.529
84277W        W48045  27.465  32.586  10.484
84278W        W48046   3.792  28.656   3.251
84279W        W48047  14.690  20.172  10.406
84280W        W48048  43.452  18.602   1.348
84281W        W48049  16.776  17.785   2.752
84282W        W48050  20.760   4.753   0.478
84283W        W48051  35.552  13.830  14.959
84284W        W48052  39.881  43.896  12.840
84285W        W48053   2.232   4.414  14.763
84286W        W48054   0.974  17.749   2.419
84287W        W48055  43.789  42.014  13.833
84288W        W48056  16.576  26.589  12.027
84289W        W48057   8.717   6.745   1.890
84290W        W48058  19.066  24.618  11.879
84291W        W48059   8.654  37.384   5.200
84292W        W48060  38.544  30.077   2.341
84293W        W48061  14.094   1.820   4.201
84294W        W48062   9.701  44.973   2.193
84295W        W48063  14.135   7.233  13.833
84296W        W48064  22.716  17.666  11.047
84297W        W48065  13.108  37.077   2.819
84298W        W48066  19.089  14.595   0.365
84299W        W48067  26.054   5.367  11.112
84300W        W48068  28.990  25.688   0.849
84301W        W48069  23.195   5.274  12.403
84302W        W48070  20.533  20.665  14.906
84303W        W48071  27.646  20.543  12.357
84304W        W48072  30.114  31.084  14.935
84305W        W48073  28.098  35.453  12.076
84306W        W48074  15.231  29.038  10.540
84307W        W48075  35.047  44.401  14.780
84308W        W48076   9.759  29.560   0.383
84309W        W48077  40.369  34.481  12.523
84310W        W48078  17.101  35.941  13.392
84311W        W48079  42.869  19.270  11.389
84312W        W48080  17.736   1.426   4.803
84313W        W48081   4.430   5.870   1.285
84314W        W48082  43.329   2.327  14.330
84315W        W48083   3.780  29.055   2.209
84316W        W48084  29.605   5.435  12.857
84317W        W48085  41.342  41.417   0.838
84318W        W48086  34.095  32.972   3.186
84319W        W48087   8.729  27.172   3.227
84320W        W48088  18.253  11.271  12.543
84321W        W48089   5.884   2.813  13.003
84322W        W48090   2.772  18.217   0.829
84323W        W48091  22.109  24.200   0.327
84324W        W48092  28.626  11.739   0.798
84325W        W48093  42.393  13.680   2.398
84326W        W48094  37.427  14.708  12.010
84327W        W48095  33.973  42.291   2.195
84328W        W48096  26.120  24.111   1.923
84329W        W48097  18.576  40.402  10.031
84330W        W48098  12.658  16.247  14.891
84331W        W48099  10.207  15.708  11.932
84332W        W48100   3.823   8.167   4.701
84333W        W48101  20.566  18.790   0.300
84334W        W48102  20.707  36.974   2.415
84335W        W48103  15.303   7.673  13.817
84336W        W48104  25.006  32.914   0.883
84337W        W48105  28.956  11.337   2.739
84338W        W48106  21.694  37.364  11.447
84339W        W48107  37.494  30.048  12.079
84340W        W48108  32.541  25.684  13.983
84341W        W48109  33.925  11.798   4.737
84342W        W48110  36.422  10.822  11.071
84343W        W48111  28.544  33.887   4.280
84344W        W48112  29.171  25.171  14.446
84345W        W48113  23.169  30.643  12.827
84346W        W48114  15.265  15.105  11.478
84347W        W48115   7.870   3.826   1.743
84348W        W48116  21.133  41.339   0.756
84349W        W48117   8.701   5.358   3.632
84350W        W48118   3.324  28.153   1.377
84351W        W48119   6.227  41.799  14.454
84352W        W48120  43.837  18.163   0.955
84353W        W48121  34.374   9.874  11.046
84354W        W48122  16.732  40.951   0.478
84355W        W48123   9.294  32.632   2.827
84356W        W48124  32.099   6.413  11.452
84357W        W48125   2.324  10.787   2.890
84358W        W48126  14.733  32.938  13.887
84359W        W48127  13.245   2.359  11.605
84360W        W48128  39.011  42.028  11.536
84361W        W48129  39.497  44.392   4.598
84362W        W48130  40.942  32.032  10.525
84363W        W48131  11.779  23.139  11.425
84364W        W48132  35.985  41.477   1.890
84365W        W48133  32.037  36.959   4.224
84366W        W48134  12.664   0.779  12.883
84367W        W48135  36.947  44.952   3.150
84368W        W48136  20.230  42.378  10.506
84369W        W48137  42.381  44.830  14.466
84370W        W48138  38.831  34.522  14.869
84371W        W48139   9.741  32.014  10.105
84372W        W48140  14.239  22.501  13.464
84373W        W48141  31.108   7.819  13.490
84374W        W48142  39.528   6.827   3.190
84375W        W48143   8.803  18.143  13.314
84376W        W48144  19.086  13.126   0.734
84377W        W48145  23.143  25.605  11.880
84378W        W48146  24.185  42.843   2.204
84379W        W48147  19.770  23.121   4.338
84380W        W48148  31.402   9.267  13.863
84381W        W48149  35.037  33.022  10.585
84382W        W48150   4.251  39.955  10.930
84383W        W48151   4.381   7.851  12.541
84384W        W48152  21.546   7.386  10.625
84385W        W48153  16.682  43.818  11.496
84386W        W48154  27.030  29.170   2.230
84387W        W48155  14.251  13.203   5.208
84388W        W48156  22.509  18.149   3.148
84389W        W48157  27.083  38.886   2.192
84390W        W48158  20.684  26.511  12.878
84391W        W48159  35.857  24.705   3.380
84392W        W48160   5.926  19.193  14.940
84393W        W48161  40.387   2.254  12.071
84394W        W48162  27.997   2.882   4.699
84395W        W48163  36.862  30.465  14.971
84396W        W48164   2.417  39.997  10.969
84397W        W48165  14.640  31.147   0.808
84398W        W48166  41.485  33.539  14.811
84399W        W48167  43.892  31.004   4.311
84400W        W48168   0.263  40.869   1.281
84401W        W48169  13.772  23.701  14.378
84402W        W48170  32.542   1.441  11.074
84403W        W48171   7.171  23.116  10.536
84404W        W48172   0.360  12.699  14.483
84405W        W48173   4.396  33.592   4.833
84406W        W48174  39.015   1.431   1.281
84407W        W48175  23.183   3.722  14.783
84408W        W48176  42.807  16.239  13.040
84409W        W48177  20.040   0.283  12.842
84410W        W48178   5.243  41.931  13.535
84411W        W48179  30.476  22.569  10.406
84412W        W48180   8.706  15.287   3.191
84413W        W48181   7.195  38.375   4.318
84414W        W48182  12.726  15.656   3.344
84415W        W48183   1.779  25.210   0.814
84416W        W48184  35.545  12.267   4.684
84417W        W48185  30.545  31.466  13.956
84418W        W48186  12.146   7.178   1.872
84419W        W48187  15.160  26.590  10.548
84420W        W48188  30.073  22.076  11.973
84421W        W48189   2.866  15.134   3.727
84422W        W48190  18.118  21.711  11.029
84423W        W48191  24.166  30.089  11.467
84424W        W48192  41.916  12.190   3.866
84425W        W48193  19.051  16.732  12.425
84426W        W48194  15.091   5.301  14.000
84427W        W48195  12.286  14.661  13.335
84428W        W48196  28.048   5.907  13.372
84429W        W48197  39.529  34.888   1.210
84430W        W48198  11.789  26.168  14.857
84431W        W48199   4.703  36.966  11.563
84432W        W48200  10.207  27.131  13.526
84433W        W48201  31.645  30.427  13.402
84434W        W48202  33.439  32.555  12.967
84435W        W48203   6.846  30.562   5.238
84436W        W48204  39.485  29.465   2.220
84437W        W48205   5.818  21.087  13.994
84438W        W48206   4.378  29.971  11.477
84439W        W48207  25.552  41.875  13.512
84440W        W48208   5.289  23.009  13.433
84441W        W48209  44.285  13.181  14.977
84442W        W48210   5.896  10.681   4.767
84443W        W48211  36.866  27.575  13.861
84444W        W48212  13.229  34.543   0.382
84445W        W48213  33.121   0.361  11.023
84446W        W48214  43.872   6.819  14.817
84447W        W48215  29.129   0.298  12.440
84448W        W48216  35.035  31.635  12.983
84449W        W48217  12.265  27.053  11.458
84450W        W48218  20.135   3.343   4.253
84451W        W48219   2.857   8.809   3.323
84452W        W48220  22.713  38.852   2.698
84453W        W48221  23.024  35.098   0.859
84454W        W48222  19.608  21.562   2.414
84455W        W48223  21.195  38.523   0.822
84456W        W48224  20.560  34.922  12.955
84457W        W48225   6.708   4.806  12.868
84458W        W48226  30.110  25.099  14.310
84459W        W48227  27.680  37.363   0.286
84460W        W48228  15.148   2.906   3.297
84461W        W48229  37.482  26.516  11.947
84462W        W48230   1.399  28.167   2.699
84463W        W48231   7.230  26.042  11.911
84464W        W48232  11.803  20.142   0.939
84465W        W48233  43.287   7.198   2.790
84466W        W48234   2.238   8.335  11.384
84467W        W48235  41.032  34.370   2.755
84468W        W48236   3.324  38.026   1.445
84469W        W48237  17.715  40.367   3.332
84470W        W48238  19.272  24.173  11.893
84471W        W48239  19.557  43.807   4.119
84472W        W48240  26.965  27.194  11.936
84473W        W48241   2.296  40.366   3.324
84474W        W48242   8.708  11.159   1.718
84475W        W48243  42.966   0.472   0.432
84476W        W48244  11.741  29.953   1.930
84477W        W48245   7.192   3.772   0.951
84478W        W48246   1.958  16.628   4.637
84479W        W48247  12.756  36.438   4.687
84480W        W48248   9.239  24.704   2.298
84481W        W48249  13.738  43.450  10.577
84482W        W48250   7.210  44.403   2.716
84483W        W48251  39.964  19.187   4.310
84484W        W48252  19.584  39.384   3.824
84485W        W48253  11.725  35.927  11.506
84486W        W48254  32.546  36.074   2.272
84487W        W48255   5.283   0.970   4.239
84488W        W48256   5.412  44.916   4.119
84489W        W48257  18.185  37.005  10.611
84490W        W48258  10.879  18.658   0.861
84491W        W48259  41.920  26.510   3.301
84492W        W48260   5.315   0.825   0.304
84493W        W48261  28.013  42.304   3.841
84494W        W48262  19.626  26.985   3.831
84495W        W48263   3.381  36.041  11.475
84496W        W48264  20.047  38.474   3.324
84497W        W48265  25.700  41.888  10.467
84498W        W48266  19.166  34.984  14.276
84499W        W48267  13.607  26.078  14.787
84500W        W48268  14.226   3.835  10.573
84501W        W48269   9.842  33.448   0.316
84502W        W48270   3.809  40.310  10.471
84503W        W48271  30.935  38.565   2.733
84504W        W48272  17.673   6.427  14.794
84505W        W48273   6.829  23.549  13.326
84506W        W48274  42.778  39.356   0.397
84507W        W48275  35.088  33.981  14.900
84508W        W48276  21.243  37.992  13.424
84509W        W48277  14.636   0.757   5.236
84510W        W48278  10.721   3.403   4.158
84511W        W48279   7.702  40.375  12.484
84512W        W48280  25.530  17.574   2.770
84513W        W48281  32.048  12.621   3.251
84514W        W48282  19.243   2.729  11.109
84515W        W48283  36.958  26.157  10.449
84516W        W48284  27.170  13.260   0.460
84517W        W48285  28.934  44.754  14.344
84518W        W48286  31.517   8.368  11.487
84519W        W48287   2.337  31.142   0.859
84520W        W48288  43.292   7.324   0.280
84521W        W48289  26.580   2.786  11.474
84522W        W48290  35.594  41.885  14.997
84523W        W48291  21.051   9.299  13.489
84524W        W48292  33.084  26.201   4.349
84525W        W48293   8.301  41.301  14.401
84526W        W48294  28.972   9.288   1.706
84527W        W48295  35.003  15.701   2.792
84528W        W48296  32.556   5.372   4.768
84529W        W48297  33.900  36.863   4.267
84530W        W48298  32.009  26.114   2.277
84531W        W48299  23.683   9.333  10.641
84532W        W48300  15.136  13.722  14.803
84533W        W48301  27.497  33.448  14.989
84534W        W48302  16.093   2.331   4.251
84535W        W48303  11.768   6.378   2.348
84536W        W48304   7.202  31.499  13.021
84537W        W48305  38.440  39.973   3.716
84538W        W48306   8.747  40.448  11.602
84539W        W48307  30.956  10.790  14.762
84540W        W48308  18.755  18.175   1.860
84541W        W48309   7.334  31.619   3.373
84542W        W48310  25.189  21.201  13.978
84543W        W48311  25.689   9.256   1.761
84544W        W48312   9.758  39.972  13.365
84545W        W48313  13.697  31.075  14.767
84546W        W48314   3.763   7.780   3.242
84547W        W48315  21.626  26.645   0.886
84548W        W48316   3.449   4.353  11.994
84549W        W48317  36.877   5.810  10.128
84550W        W48318  24.602  36.353   0.777
84551W        W48319  36.372  36.572   1.761
84552W        W48320   9.247   6.876  12.470
84553W        W48321  23.605  18.173   4.137
84554W        W48322   7.195   2.258   4.209
84555W        W48323  44.764   0.749  13.820
84556W        W48324  23.566  41.529   2.268
84557W        W48325   4.415  33.440  13.491
84558W        W48326  27.141   5.389  12.903
84559W        W48327  15.109  20.067  13.922
84560W        W48328  26.474   2.372   3.224
84561W        W48329  34.484  17.097   2.390
84562W        W48330  19.682  33.029  12.886
84563W        W48331  42.898  16.658  13.884
84564W        W48332   5.767  25.067   0.790
84565W        W48333  21.139  42.330  10.427
84566W        W48334  42.482  34.963   0.360
84567W        W48335   9.678  35.421  12.993
84568W        W48336  35.515   8.823  10.564
84569W        W48337  14.332  22.180  14.023
84570W        W48338  28.445  16.164   3.219
84571W        W48339  18.624  38.502  12.847
84572W        W48340   3.891  44.932   0.826
84573W        W48341  12.829  31.987  12.494
84574W        W48342   2.423   6.187   1.805
84575W        W48343  38.986  41.432   3.768
84576W        W48344  40.983  37.930   0.784
84577W        W48345   1.753  22.170   2.277
84578W        W48346   1.934  17.595   4.202
84579W        W48347  25.710  34.069   4.338
84580W        W48348  40.454  30.551   3.834
84581W        W48349  36.079  27.516  10.439
84582W        W48350  34.000   9.379  11.923
84583W        W48351  28.501  26.509   1.235
84584W        W48352  25.473  32.099  12.029
84585W        W48353   8.830  21.238  10.052
84586W        W48354   2.458   1.807  10.414
84587W        W48355   8.787  15.170  14.973
84588W        W48356  42.933   0.838   1.235
84589W        W48357  22.577  24.617   1.346
84590W        W48358  14.200  24.169   5.232
84591W        W48359   0.368  21.069   3.704
84592W        W48360  14.809  43.381  13.843
84593W        W48361  15.777  31.580  11.474
84594W        W48362  23.097  28.129  11.039
84595W        W48363  28.941  13.730  14.913
84596W        W48364   3.879  43.275  13.502
84597W        W48365  12.192  21.246  14.792
84598W        W48366  27.040  11.784   5.287
84599W        W48367  33.444  10.314   1.367
84600W        W48368   5.755  35.091   0.815
84601W        W48369  25.027  22.013  11.524
84602W        W48370  22.556  20.720  12.560
84603W        W48371   5.757  22.688  11.409
84604W        W48372   2.360  15.797   5.196
84605W        W48373  23.001   8.235  12.361
84606W        W48374  23.682  37.551   0.453
84607W        W48375   0.456  12.655  13.819
84608W        W48376  14.598  42.403  11.375
84609W        W48377  26.113  11.249  10.134
84610W        W48378  39.865  34.559   0.776
84611W        W48379  10.287  17.185   5.216
84612W        W48380   0.262  17.783   0.433
84613W        W48381  10.878  19.569   0.433
84614W        W48382   5.358  29.642   1.311
84615W        W48383  25.521   2.821   1.314
84616W        W48384   5.927  43.443  12.869
84617W        W48385  35.898  32.094   0.256
84618W        W48386  15.115  39.029  11.565
84619W        W48387  16.297   0.410   2.400
84620W        W48388  41.901   9.675  12.565
84621W        W48389  23.121  41.320  13.950
84622W        W48390  17.608  38.431  14.335
84623W        W48391  34.393   0.374  11.983
84624W        W48392  41.972   2.894   3.867
84625W        W48393  17.119  12.645  10.073
84626W        W48394  23.682   6.772  10.488
84627W        W48395   4.410  16.315  11.953
84628W        W48396  42.000  41.436   5.258
84629W        W48397  32.051  36.509   1.877
84630W        W48398   2.819  38.413  14.362
84631W        W48399  19.146  15.726   0.395
84632W        W48400   8.718  14.761  14.326
84633W        W48401   7.219  30.457   4.691
84634W        W48402  42.305  30.645   0.300
84635W        W48403  23.051  31.060   4.754
84636W        W48404  20.673   3.778  12.896
84637W        W48405  28.590   9.862  11.060
84638W        W48406   2.404  24.188   4.301
84639W        W48407  16.800  15.322  10.607
84640W        W48408  34.551  26.069   0.437
84641W        W48409  40.326  41.292  10.552
84642W        W48410   9.258  36.841   2.222
84643W        W48411  26.487  36.002   3.823
84644W        W48412  36.420  41.344  12.377
84645W        W48413  13.719   5.693   4.289
84646W        W48414  30.103  27.950  10.490
84647W        W48415  20.631  31.931   4.191
84648W        W48416  33.036  32.960   4.197
84649W        W48417   9.749  22.522  11.901
84650W        W48418   0.450  28.668   1.848
84651W        W48419  26.027  26.177  11.401
84652W        W48420   8.889  41.898   3.739
84653W        W48421  36.928  24.501   3.760
84654W        W48422  28.077  26.970  11.388
84655W        W48423  32.991  14.104   1.379
84656W        W48424  44.915   2.315   0.749
84657W        W48425  36.016  20.746  11.083
84658W        W48426  32.613  21.546  12.869
84659W        W48427   6.335  35.407   1.416
84660W        W48428  12.296  41.429  12.963
84661W        W48429   0.255  19.093  14.376
84662W        W48430  21.593  11.321   0.361
84663W        W48431  38.004  42.523   3.275
84664W        W48432  18.719  42.865  14.964
84665W        W48433   8.244  42.971  12.388
84666W        W48434  35.919  43.402  11.083
84667W        W48435  23.199  15.700  11.476
84668W        W48436  37.945  24.552   4.708
84669W        W48437  40.974  20.074  12.554
84670W        W48438  29.167  43.481   4.294
84671W        W48439  40.478  17.288  14.031
84672W        W48440   7.724  29.496  14.290
84673W        W48441  21.109  16.092   0.900
84674W        W48442  21.540  22.080  14.971
84675W        W48443  29.643  32.955  14.884
84676W        W48444   0.471  19.164   1.398
84677W        W48445  39.813  26.055   0.403
84678W        W48446  21.671  29.055   3.808
84679W        W48447  34.592  14.160  10.907
84680W        W48448  32.491  20.190  14.311
84681W        W48449  21.221  29.424  14.451
84682W        W48450  40.054  22.614  12.365
84683W        W48451  29.576  35.874   4.805
84684W        W48452  15.305   7.867  14.987
84685W        W48453  38.992  37.447   3.772
84686W        W48454  31.499   0.857   4.331
84687W        W48455  28.549  11.311  10.559
84688W        W48456  31.506   7.392  11.395
84689W        W48457  42.478  36.992   4.658
84690W        W48458   9.217   5.285   2.416
84691W        W48459  10.258  31.617  11.990
84692W        W48460   6.688  20.734   3.290
84693W        W48461  44.445  16.185   0.468
84694W        W48462   5.786   3.239  12.344
84695W        W48463  12.720  14.192  11.543
84696W        W48464  18.285  24.208  14.305
84697W        W48465  21.105  13.703   3.153
84698W        W48466   8.296  37.497   4.755
84699W        W48467  25.003   8.343  12.929
84700W        W48468  11.621  17.246  14.318
84701W        W48469  27.063  33.430   1.831
84702W        W48470   5.384  18.128   3.686
84703W        W48471  24.697  24.133   0.824
84704W        W48472   1.264  33.075   3.816
84705W        W48473  33.500  35.556  13.430
84706W        W48474  20.668  30.060   0.737
84707W        W48475  21.653   6.251  11.570
84708W        W48476  16.742   6.746  12.011
84709W        W48477   9.716  40.051   1.932
84710W        W48478  42.414   3.861   0.376
84711W        W48479   3.741  21.057  14.006
84712W        W48480  25.109  33.416  13.517
84713W        W48481  37.051  21.117   1.705
84714W        W48482  40.882   6.320   0.333
84715W        W48483   5.225  13.260  10.529
84716W        W48484  44.809  26.052  10.512
84717W        W48485  18.756  18.678  12.554
84718W        W48486  25.210  18.644   0.839
84719W        W48487  41.911  27.192  12.034
84720W        W48488  26.474  19.597   0.382
84721W        W48489  40.481  41.333   0.926
84722W        W48490  26.044  37.885  12.948
84723W        W48491   4.772   6.182   3.356
84724W        W48492  14.781   1.470   3.771
84725W        W48493  34.497  17.789  14.461
84726W        W48494   6.259  23.506  13.345
84727W        W48495  19.045  11.320  13.823
84728W        W48496  10.243  13.177  14.889
84729W        W48497  24.226  25.546  12.425
84730W        W48498   0.945  41.384   4.825
84731W        W48499  22.637  13.115  10.979
84732W        W48500   4.250  44.792  14.920
84733W        W48501  14.778   6.850  12.448
84734W        W48502  26.161  19.221  12.342
84735W        W48503  29.665  11.127   1.276
84736W        W48504  12.787  27.001   3.341
84737W        W48505   4.436  16.238   0.934
84738W        W48506   7.704  34.957   0.319
84739W        W48507  24.526   3.797  14.293
84740W        W48508   7.795  39.390   4.765
84741W        W48509   8.824  31.950   0.274
84742W        W48510   9.753  43.998  14.032
84743W        W48511  26.466  44.343  10.091
84744W        W48512  12.711  35.403  10.613
84745W        W48513  44.412  40.311  10.619
84746W        W48514  39.505  25.684  12.837
84747W        W48515  41.947   0.747  10.550
84748W        W48516  28.155  10.721  14.340
84749W        W48517  36.949  38.362  14.820
84750W        W48518  30.947  26.063  12.064
84751W        W48519  19.261  13.166  11.988
84752W        W48520   6.794  19.094  11.438
84753W        W48521  14.829  35.597   4.796
84754W        W48522  21.711  33.564  13.860
84755W        W48523  42.952  27.495  11.087
84756W        W48524  40.895  35.529   2.193
84757W        W48525  43.300  39.829  11.383
84758W        W48526  38.016  12.785  14.799
84759W        W48527   5.309  26.977   0.768
84760W        W48528  43.514   5.780   1.420
84761W        W48529  28.503  16.640  14.424
84762W        W48530  33.979  29.424   1.329
84763W        W48531  28.020   8.364   0.966
84764W        W48532  34.974  18.125  13.852
84765W        W48533  23.568  15.196  12.943
84766W        W48534   8.861   5.283  11.895
84767W        W48535  30.043  30.952  11.934
84768W        W48536  40.485  21.092   0.279
84769W        W48537  26.625  26.481  13.826
84770W        W48538  28.956  31.522   1.282
84771W        W48539  12.728  29.559  11.574
84772W        W48540  38.943  10.823  10.418
84773W        W48541  40.851  20.256  13.436
84774W        W48542  34.087  11.687   0.482
84775W        W48543  41.910  43.397   4.156
84776W        W48544  22.199  20.096   4.270
84777W        W48545  17.155  22.725  14.474
84778W        W48546  26.105  32.589  11.040
84779W        W48547   8.850  36.368  13.032
84780W        W48548  28.057  38.021   3.216
84781W        W48549  32.991   5.436  14.442
84782W        W48550  43.891  11.361   4.204
84783W        W48551  33.126  32.991  11.910
84784W        W48552  22.181  40.878   0.820
84785W        W48553  10.241  30.928   0.817
84786W        W48554  28.026  23.586   4.807
84787W        W48555  23.215  36.866  14.004
84788W        W48556  13.685  42.460  12.951
84789W        W48557  21.580  30.420  13.510
84790W        W48558  36.890  23.539  14.901
84791W        W48559  32.435   1.962   1.740
84792W        W48560  11.827   1.287   1.927
84793W        W48561  11.297  25.007  10.987
84794W        W48562  17.571  42.854   3.763
84795W        W48563  23.186   8.226  11.442
84796W        W48564  21.226  37.926   3.387
84797W        W48565  27.963  22.144   2.742
84798W        W48566  14.168  22.501  11.549
84799W        W48567  18.701  34.066  13.021
84800W        W48568   9.795  39.351  10.516
84801W        W48569   7.271   9.754   4.713
84802W        W48570  14.718   1.250  14.028
84803W        W48571   4.910  23.499   2.363
84804W        W48572  24.199  41.943  10.451
84805W        W48573  14.758  28.553   3.862
84806W        W48574  33.607  44.420   2.838
84807W        W48575  29.087   4.908   2.371
84808W        W48576  22.711  30.477   1.376
84809W        W48577  38.465  43.486  11.001
84810W        W48578   4.913  22.554   1.897
84811W        W48579  32.006  10.361   4.324
84812W        W48580   0.912  28.582  14.955
84813W        W48581  38.487  24.664   3.745
84814W        W48582  27.052  32.087   4.672
84815W        W48583  10.799  43.443   1.802
84816W        W48584  29.597  24.166  11.878
84817W        W48585   6.722   7.901   4.159
84818W        W48586  28.125  25.584   0.272
84819W        W48587   6.778  16.645   3.176
84820W        W48588   3.267  40.382   4.324
84821W        W48589  26.963  23.537   4.720
84822W        W48590  43.983  10.285  13.858
84823W        W48591  34.520   0.308  13.536
84824W        W48592  26.677  19.755  10.088
84825W        W48593   8.842   9.327  12.445
84826W        W48594  16.728  17.067   0.326
84827W        W48595  11.231  42.364  13.370
84828W        W48596  36.443  43.768  14.028
84829W        W48597  39.329  34.397   0.798
84830W        W48598  16.663   5.290  11.448
84831W        W48599  44.981  35.525   5.591
84832W        W48600  32.454  24.094   4.816
84833W        W48601  37.921   4.777   3.846
84834W        W48602  25.094  30.104   3.377
84835W        W48603   5.368  40.032  14.513
84836W        W48604  30.035   2.359  14.930
84837W        W48605  44.891  25.479  13.972
84838W        W48606  36.399  23.699  11.073
84839W        W48607  15.776  29.546   2.375
84840W        W48608   6.888  26.975  14.984
84841W        W48609  43.506  33.511  10.927
84842W        W48610   2.884  34.413  13.377
84843W        W48611  16.812  35.471   9.496
84844W        W48612  27.545   0.967   1.741
84845W        W48613  13.621  11.270  13.417
84846W        W48614  14.139  44.957   0.370
84847W        W48615  23.012  32.993  10.081
84848W        W48616  38.353  16.192  14.860
84849W        W48617  43.313  15.639  12.460
84850W        W48618  41.997  22.567   5.209
84851W        W48619   8.842   9.886  13.058
84852W        W48620  12.707   1.238   2.887
84853W        W48621  44.779   2.885   0.403
84854W        W48622   6.757   7.182   3.362
84855W        W48623  13.340  31.134  12.011
84856W        W48624  13.800  27.081   1.829
84857W        W48625   4.299  18.244   2.811
84858W        W48626  11.244  11.336   2.670
84859W        W48627   4.912  43.417   1.847
84860W        W48628   3.899  19.621   0.736
84861W        W48629  10.322  26.956   0.952
84862W        W48630  15.226  36.880   4.656
84863W        W48631   3.953  22.184   4.321
84864W        W48632  32.636  15.303  13.926
84865W        W48633   5.264  42.514   2.265
84866W        W48634   8.751   6.298   4.597
84867W        W48635  38.896  17.598  11.511
84868W        W48636  42.392   7.222  12.948
84869W        W48637  11.227   1.249   0.728
84870W        W48638  26.543   1.442  11.902
84871W        W48639  37.485   0.793  14.474
84872W        W48640  12.140  12.313   0.926
84873W        W48641  23.613  33.107   3.187
84874W        W48642   6.759  13.703  13.378
84875W        W48643  29.043  14.659   0.308
84876W        W48644   9.811  35.975   1.432
84877W        W48645  15.775  36.516   2.825
84878W        W48646   4.778   9.247   0.768
84879W        W48647  16.117  41.449   5.112
84880W        W48648  36.399  29.054  11.114
84881W        W48649  42.867  24.141   0.776
84882W        W48650  19.691  34.031   1.315
84883W        W48651  19.545  19.738  10.979
84884W        W48652  33.985  30.585  12.540
84885W        W48653   7.224   2.447   0.825
84886W        W48654  41.483  21.539  14.862
84887W        W48655   3.246  21.037   0.448
84888W        W48656  22.714  35.417   0.401
84889W        W48657  14.655  12.248   3.684
84890W        W48658  33.933  40.470  15.000
84891W        W48659  10.727   2.905  14.842
84892W        W48660  21.211  42.480   3.236
84893W        W48661   3.714  19.191   0.913
84894W        W48662  40.000  14.317   2.677
84895W        W48663   1.324  42.943  11.457
84896W        W48664  30.524  21.562  10.467
84897W        W48665  40.305   2.393  14.764
84898W        W48666  43.343  35.364  13.011
84899W        W48667   7.689  32.559  14.854
84900W        W48668  38.389  16.655   4.262
84901W        W48669  43.851  28.178  11.494
84902W        W48670  42.828   5.336  14.913
84903W        W48671  39.460   9.255  11.609
84904W        W48672   7.270  28.970   1.700
84905W        W48673  10.140  32.127  14.869
84906W        W48674  44.359  35.958   0.385
84907W        W48675  43.803  38.916  11.893
84908W        W48676  30.986  22.557  14.843
84909W        W48677  22.068  30.995  11.091
84910W        W48678  23.141  20.180  10.638
84911W        W48679  22.223  28.484  10.975
84912W        W48680  28.587  16.221   2.870
84913W        W48681  33.905  37.490  11.578
84914W        W48682  39.555  41.450   0.956
84915W        W48683  28.982   0.860   3.213
84916W        W48684  23.595  17.669   2.769
84917W        W48685  12.790  14.233   0.276
84918W        W48686  35.041  21.054  13.526
84919W        W48687  30.018  27.503   0.417
84920W        W48688  18.664  32.041   5.096
84921W        W48689  27.533  22.247  14.849
84922W        W48690  31.137  30.935  10.920
84923W        W48691  39.058  24.201  12.560
84924W        W48692   4.725  24.689   2.219
84925W        W48693  16.157   8.267  12.062
84926W        W48694  37.514  18.604   3.700
84927W        W48695  16.596  16.592   5.217
84928W        W48696   2.336  26.016  11.409
84929W        W48697  18.782  38.832  14.276
84930W        W48698  31.078  11.355  11.608
84931W        W48699  24.223  15.710   2.350
84932W        W48700  10.316   9.316  14.957
84933W        W48701  34.939  17.724  10.597
84934W        W48702  43.995  28.969  11.949
84935W        W48703  29.615   5.787  14.510
84936W        W48704  19.622  11.673  10.525
84937W        W48705  16.244  19.768  14.824
84938W        W48706   4.369   4.833  11.874
84939W        W48707  39.934  20.625   4.627
84940W        W48708  34.445  21.205   0.430
84941W        W48709  25.007  26.526  10.408
84942W        W48710  17.758  38.845  13.544
84943W        W48711  41.958   6.794  14.764
84944W        W48712  14.788  28.009  12.339
84945W        W48713  44.320  41.836   9.987
84946W        W48714  22.055  28.667   3.641
84947W        W48715  24.631  12.128   4.206
84948W        W48716  12.828  24.512  14.285
84949W        W48717   2.262  37.490  12.917
84950W        W48718  28.969  15.806  14.494
84951W        W48719  30.047  26.494  11.885
84952W        W48720  33.489  44.842  12.943
84953W        W48721   8.175  41.011  13.912
84954W        W48722   8.193   4.327  12.065
84955W        W48723  14.126   3.368   5.288
84956W        W48724  24.694  25.108   3.295
84957W        W48725  38.497  20.113   0.842
84958W        W48726  41.827  10.196   4.716
84959W        W48727  32.612  28.098   4.744
84960W        W48728   6.696  16.727   1.933
84961W        W48729  14.590  23.018   9.945
84962W        W48730   3.726   1.851  12.978
84963W        W48731  11.621   6.419   4.738
84964W        W48732  34.612  43.274  13.481
84965W        W48733  39.820  15.820   1.442
84966W        W48734  17.301  37.984   4.729
84967W        W48735  10.711  15.187  13.465
84968W        W48736  27.065  35.529  11.605
84969W        W48737  37.496   4.272   3.282
84970W        W48738  24.499  16.234   4.224
84971W        W48739  39.882  44.349  14.472
84972W        W48740  20.146  26.468  14.789
84973W        W48741  10.310  29.934   1.406
84974W        W48742  44.978  24.076  11.048
84975W        W48743  28.680  20.184  13.861
84976W        W48744  27.466   0.368  12.447
84977W        W48745  17.233  41.850   0.478
84978W        W48746  21.198  34.918  14.860
84979W        W48747  42.018  41.517  11.085
84980W        W48748   3.401  19.627   1.899
84981W        W48749  12.746  21.115   1.321
84982W        W48750  13.613  11.242  12.942
84983W        W48751  21.121  13.267  14.331
84984W        W48752  42.002  21.234   1.828
84985W        W48753  18.574   3.258   0.321
84986W        W48754  32.111   4.806   4.285
84987W        W48755  16.146   4.225  11.594
84988W        W48756  13.267   0.372   1.751
84989W        W48757  22.214  31.053   2.740
84990W        W48758  34.419  29.041  11.021
84991W        W48759  23.156  11.783   4.143
84992W        W48760  23.115   2.449  11.541
84993W        W48761  21.126  38.832  13.967
84994W        W48762   4.420  10.775   0.923
84995W        W48763  40.448  34.003   3.698
84996W        W48764  36.365   9.192   4.746
84997W        W48765  33.569  29.109   1.267
84998W        W48766  34.989  13.322   5.317
84999W        W48767  30.116  13.180   4.317
85000W        W48768   2.394  43.438  13.983
85001W        W48769   7.416  24.551  10.496
85002W        W48770  27.189  41.873  12.425
85003W        W48771  17.186  37.942  11.936
85004W        W48772   4.876  27.655  10.044
85005W        W48773  18.786  26.615  13.375
85006W        W48774  24.166  10.345   3.359
85007W        W48775  10.831  32.559   1.224
85008W        W48776  14.221  10.637  13.328
85009W        W48777  37.413  17.214  11.886
85010W        W48778  34.506  34.374   1.329
85011W        W48779  42.887  38.388   0.902
85012W        W48780   4.926  31.961   4.824
85013W        W48781  37.460   2.732   2.785
85014W        W48782  21.636   2.286   1.822
85015W        W48783  17.661  35.043  11.397
85016W        W48784   8.307  10.245   2.405
85017W        W48785  28.579  27.154   3.686
85018W        W48786   4.408  14.104   2.390
85019W        W48787   2.372   5.859  12.041
85020W        W48788  21.517  14.294  13.802
85021W        W48789  36.419  42.888   1.831
85022W        W48790   3.904  16.092  14.010
85023W        W48791   0.961  24.528   1.345
85024W        W48792  17.193  10.764  10.896
85025W        W48793  26.484  31.977   1.307
85026W        W48794  18.058  30.591   5.286
85027W        W48795  15.591   9.384   2.671
85028W        W48796  28.976   8.382   3.260
85029W        W48797  20.130  32.134   4.239
85030W        W48798  11.182   3.408   2.793
85031W        W48799  27.081  12.707   9.517
85032W        W48800  36.593  11.779  11.993
85033W        W48801  25.556  10.333   1.280
85034W        W48802  24.686  20.529   3.727
85035W        W48803   2.413  23.123   0.325
85036W        W48804  26.516  13.698  14.909
85037W        W48805  15.698  21.145  11.515
85038W        W48806  24.068  24.574  11.033
85039W        W48807  32.599  40.956  12.919
85040W        W48808  24.506  29.615  12.386
85041W        W48809  24.225  13.712   2.184
85042W        W48810  23.235  20.644   2.872
85043W        W48811  30.114  37.057   0.844
85044W        W48812  31.453  41.362   4.689
85045W        W48813  13.213  37.469  14.838
85046W        W48814  25.660  32.959  12.828
85047W        W48815  36.555   2.727  14.956
85048W        W48816  36.014  13.728   0.442
85049W        W48817  19.549  34.416  10.517
85050W        W48818  41.388  24.162   3.249
85051W        W48819  39.416  22.055  13.402
85052W        W48820  23.521  29.650   2.852
85053W        W48821  32.944  23.723   4.787
85054W        W48822  26.656   6.187  11.387
85055W        W48823   9.168   1.307  10.963
85056W        W48824  15.811   5.927   3.295
85057W        W48825  38.891   2.253   4.124
85058W        W48826   1.446   3.230   0.366
85059W        W48827   6.340  33.969   4.307
85060W        W48828   4.343  25.050  14.813
85061W        W48829  27.977   1.336   2.819
85062W        W48830   1.435   5.428  10.539
85063W        W48831  34.094   6.357  14.990
85064W        W48832  39.354  19.215   3.733
85065W        W48833  10.709  20.751  10.531
85066W        W48834   4.760   6.318   2.287
85067W        W48835   9.215  11.647  12.393
85068W        W48836   6.428  28.484   0.297
85069W        W48837   9.797  30.073   4.144
85070W        W48838  28.615   6.284   1.866
85071W        W48839  32.106   0.476   1.439
85072W        W48840  38.389   5.873   1.222
85073W        W48841  23.068  11.766  11.451
85074W        W48842  35.036   4.428   2.416
85075W        W48843   3.887  31.090  14.336
85076W        W48844  23.004  28.456   2.854
85077W        W48845  28.590   6.757  11.414
85078W        W48846  20.620   4.351   2.688
85079W        W48847   5.800  24.165  13.941
85080W        W48848  42.300  18.785   4.668
85081W        W48849   9.270  28.934   1.426
85082W        W48850  43.320  20.047   1.356
85083W        W48851  32.967  22.614  13.482
85084W        W48852  42.485  36.927  11.465
85085W        W48853   5.290   1.751  14.311
85086W        W48854  37.833  42.467   3.657
85087W        W48855  31.038  43.839   3.285
85088W        W48856  25.078  18.645  13.013
85089W        W48857  20.606   7.388  12.431
85090W        W48858  22.212  42.402   3.698
85091W        W48859   6.692  32.636   2.365
85092W        W48860  13.317  18.671  11.993
85093W        W48861  41.929  29.952   2.753
85094W        W48862  30.609  29.457   3.191
85095W        W48863  24.486  21.566  13.900
85096W        W48864   3.808  40.053  11.500
85097W        W48865  24.007  15.327   2.663
85098W        W48866  28.501  19.284   3.643
85099W        W48867   4.394   9.239   2.242
85100W        W48868  34.008   5.396   2.760
85101W        W48869   9.250  11.344  12.857
85102W        W48870   0.867  35.972   1.929
85103W        W48871  11.130  15.684   0.333
85104W        W48872   2.352   9.253  11.045
85105W        W48873  25.007  32.502   2.180
85106W        W48874  19.088   4.219  10.542
85107W        W48875   0.476  29.004   1.860
85108W        W48876  31.106  13.160   0.444
85109W        W48877  32.124   2.260   4.121
85110W        W48878  40.851  38.360   0.918
85111W        W48879   4.842  40.362  14.975
85112W        W48880  14.312  17.756   1.876
85113W        W48881   9.815  25.169  11.084
85114W        W48882  10.632  36.970   1.868
85115W        W48883  25.206  23.140  11.468
85116W        W48884  17.641  41.914  13.064
85117W        W48885  20.090   8.331  14.338
85118W        W48886  30.018  23.701   2.385
85119W        W48887  29.602  15.206   3.318
85120W        W48888  24.158  14.756  10.437
85121W        W48889   1.880  44.823  13.531
85122W        W48890   7.865  34.461   4.322
85123W        W48891   0.273   4.882   0.421
85124W        W48892  42.890  15.232   1.286
85125W        W48893  30.051  14.198  10.911
85126W        W48894   5.389   7.908  10.519
85127W        W48895  29.071   6.412  13.002
85128W        W48896  26.070  11.628  14.309
85129W        W48897  43.793  21.578   2.680
85130W        W48898  16.082  21.679   4.734
85131W        W48899  12.790  34.396  14.380
85132W        W48900  30.075  26.016  11.106
85133W        W48901  27.159  11.688   2.834
85134W        W48902  14.819   2.303  12.484
85135W        W48903  16.193   0.286   2.880
85136W        W48904  21.579  42.007  12.467
85137W        W48905  36.071   8.229  10.160
85138W        W48906  44.499  25.134  12.078
85139W        W48907  36.504  29.933  10.998
85140W        W48908  44.866  22.520   0.324
85141W        W48909  30.559  37.077   1.352
85142W        W48910  37.481  13.682  12.524
85143W        W48911   2.782  23.191  13.509
85144W        W48912  26.063  15.718   1.278
85145W        W48913  26.067  34.958   1.231
85146W        W48914   7.187  40.948   4.220
85147W        W48915  37.567   1.462   3.203
85148W        W48916  32.456  37.535   5.215
85149W        W48917   1.888  10.855   4.275
85150W        W48918  31.460  25.642   1.229
85151W        W48919  14.151  16.599   1.258
85152W        W48920  39.387  32.885  10.510
85153W        W48921   5.818  36.535  13.860
85154W        W48922  43.892   4.305   4.713
85155W        W48923   9.275  15.708   4.641
85156W        W48924  14.714   3.781   2.213
85157W        W48925  24.216  39.910   2.358
85158W        W48926  31.925  40.490   2.741
85159W        W48927  22.038  32.965  12.865
85160W        W48928  38.483  23.050   2.715
85161W        W48929  34.461  37.499   3.312
85162W        W48930   3.822  26.000   3.245
85163W        W48931  39.494  23.181   1.698
85164W        W48932  20.170  31.567  12.487
85165W        W48933   4.777  21.226  11.978
85166W        W48934   3.858  37.456   1.300
85167W        W48935  40.408  27.958   3.831
85168W        W48936  18.168  37.856  13.020
85169W        W48937  21.245   2.865  14.854
85170W        W48938  28.632  43.436  14.514
85171W        W48939  10.769  19.541  11.971
85172W        W48940  24.594  37.446  10.484
85173W        W48941  16.109  20.115  14.330
85174W        W48942  33.994  21.053  12.989
85175W        W48943  15.095  26.145  11.527
85176W        W48944  19.190  16.775   2.329
85177W        W48945   4.884  22.519   3.645
85178W        W48946  44.860  12.153   3.338
85179W        W48947  31.554  33.995  11.995
85180W        W48948  38.428  15.252   0.441
85181W        W48949  12.131  23.507  12.056
85182W        W48950  29.654  21.558  12.915
85183W        W48951  32.619   2.898  13.353
85184W        W48952  37.408  21.082  11.004
85185W        W48953  16.244  38.881  10.438
85186W        W48954  32.615  41.812   2.210
85187W        W48955   7.806   1.885  13.041
85188W        W48956   3.934  24.176  13.363
85189W        W48957  29.041  10.296  13.850
85190W        W48958  31.997  19.693   0.932
85191W        W48959  43.475  13.217   1.404
85192W        W48960  19.196  24.641  10.518
85193W        W48961  36.054  33.398   0.314
85194W        W48962  14.123  42.366  12.398
85195W        W48963  15.581  40.007  10.499
85196W        W48964   7.175  20.585   2.806
85197W        W48965  21.604  37.492   4.123
85198W        W48966  42.280  13.165   3.677
85199W        W48967  24.545  26.009   4.204
85200W        W48968  17.170  39.428   2.840
85201W        W48969   9.729  43.978   3.318
85202W        W48970  33.108  44.385  14.294
85203W        W48971  32.573  44.499  11.449
85204W        W48972  15.652  37.370   2.192
85205W        W48973  17.769  24.134   4.116
85206W        W48974  36.548  41.029   3.857
85207W        W48975  41.477  36.431  10.596
85208W        W48976  22.032   7.343  10.464
85209W        W48977  29.132   0.421  14.921
85210W        W48978  44.988  44.947  14.779
85211W        W48979  20.256  33.106  14.801
85212W        W48980   3.284  22.590  11.535
85213W        W48981  16.802  27.051  12.539
85214W        W48982  34.392  28.985  14.312
85215W        W48983  24.076  44.942  14.766
85216W        W48984   4.259  19.547  11.920
85217W        W48985  24.569  23.184  13.988
85218W        W48986  35.051  44.917   2.297
85219W        W48987  20.266  24.039  14.303
85220W        W48988  28.551  23.601   0.753
85221W        W48989   5.292  36.349   1.353
85222W        W48990  40.364  33.130  12.441
85223W        W48991  17.569  27.170  14.495
85224W        W48992   8.248   7.741  14.765
85225W        W48993  21.721  25.084   3.319
85226W        W48994   1.917  11.770   3.159
85227W        W48995  31.606  35.477  10.966
85228W        W48996   7.301  25.143   2.311
85229W        W48997  13.141  28.951  12.043
85230W        W48998   2.249   0.827   0.246
85231W        W48999  15.304   8.846   4.315
85232W        W49000   3.431   1.345   1.398
85233W        W49001  18.076  21.626  12.430
85234W        W49002  44.389  32.111  10.003
85235W        W49003   1.311  15.300   0.890
85236W        W49004  15.700  34.021  13.513
85237W        W49005   3.937  26.501   0.329
85238W        W49006  20.179   9.196   0.775
85239W        W49007  35.484   4.362  10.980
85240W        W49008  36.077  11.183  12.934
85241W        W49009   5.265  42.978  13.975
85242W        W49010  34.460   4.737  11.546
85243W        W49011  13.641  14.121   4.783
85244W        W49012  28.653  33.611  13.387
85245W        W49013   3.296  12.629  12.017
85246W        W49014   3.949  13.839   2.853
85247W        W49015  24.982   3.418   1.361
85248W        W49016  27.624  40.957  10.998
85249W        W49017  11.322  29.990  13.487
85250W        W49018  35.416  11.273   0.467
85251W        W49019  19.080  17.581   3.350
85252W        W49020   5.209  25.639  14.930
85253W        W49021   1.378   0.767  11.504
85254W        W49022   0.783   5.932   1.274
85255W        W49023  35.876  43.321   4.206
85256W        W49024  42.404  44.280   0.843
85257W        W49025  13.164  30.995   4.708
85258W        W49026  34.556  14.204  13.881
85259W        W49027   7.278  44.351  11.966
85260W        W49028  22.514  14.762   4.169
85261W        W49029  11.133  11.762   4.281
85262W        W49030  19.757  18.600   3.213
85263W        W49031  18.554  15.094   3.341
85264W        W49032  32.143   5.757   1.335
85265W        W49033  43.421  42.930   0.412
85266W        W49034  17.307   0.832   5.153
85267W        W49035  29.994  14.668   1.407
85268W        W49036   3.429  24.092  11.901
85269W        W49037   9.686  34.114  10.963
85270W        W49038  16.746  31.462   1.338
85271W        W49039   8.295  37.444   2.740
85272W        W49040   9.395  41.480  13.921
85273W        W49041   6.745  14.327   3.848
85274W        W49042  21.156  34.971   4.327
85275W        W49043  41.415   0.345   3.330
85276W        W49044  30.112  36.943   4.673
85277W        W49045  23.512   9.331  14.011
85278W        W49046  12.793   6.208  10.909
85279W        W49047  14.641  25.046   2.191
85280W        W49048  12.739  40.049  13.357
85281W        W49049  39.891  41.950  13.830
85282W        W49050  15.764  14.794  11.103
85283W        W49051  36.030  14.665   3.332
85284W        W49052   9.173  40.542  13.429
85285W        W49053   2.279  32.580   1.755
85286W        W49054  18.636  24.129  12.931
85287W        W49055  24.159  26.671  12.891
85288W        W49056  30.136  38.964  12.827
85289W        W49057  31.600   2.242  12.013
85290W        W49058  20.187  11.815  14.785
85291W        W49059  38.972  17.739   4.122
85292W        W49060  14.192  26.560  10.597
85293W        W49061  14.783  13.161  11.602
85294W        W49062   1.976  36.485  14.933
85295W        W49063  44.945  23.171  14.927
85296W        W49064  34.493  40.964  14.968
85297W        W49065  33.061  24.048  11.535
85298W        W49066  10.372  41.889  10.434
85299W        W49067  28.987  10.272   2.719
85300W        W49068   4.209  37.011  14.976
85301W        W49069   4.745  38.997  12.526
85302W        W49070  39.550  43.854   3.684
85303W        W49071  34.539  28.580  12.004
85304W        W49072  43.368  22.630   3.773
85305W        W49073  28.535  20.234  14.350
85306W        W49074  24.672  32.977  14.446
85307W        W49075   4.425  15.095  12.084
85308W        W49076  36.993  12.665  14.408
85309W        W49077  25.484  32.086  10.541
85310W        W49078  35.091  29.052  12.908
85311W        W49079  17.576  23.225   3.746
85312W        W49080  27.961  29.455  14.405
85313W        W49081  15.134   3.237   1.447
85314W        W49082  25.136  19.676   3.824
85315W        W49083  38.904  39.872  10.442
85316W        W49084  13.157  15.222   1.916
85317W        W49085  23.125  35.933   2.789
85318W        W49086  18.196  16.696   2.879
85319W        W49087  20.193  13.620  14.380
85320W        W49088   7.401  25.471   1.904
85321W        W49089  36.033  25.152   5.262
85322W        W49090  10.349  11.172   4.307
85323W        W49091  42.818  12.252   4.217
85324W        W49092  11.625  17.267  12.445
85325W        W49093  32.924   5.750   3.163
85326W        W49094  38.537  22.587  14.373
85327W        W49095  24.106  31.051   3.194
85328W        W49096  35.487   4.426  12.943
85329W        W49097  36.994   8.403   2.271
85330W        W49098  37.478  29.979   0.759
85331W        W49099  31.427  43.509  14.834
85332W        W49100  32.976   7.270  10.978
85333W        W49101  16.108  43.859  11.883
85334W        W49102   6.916  37.565  14.307
85335W        W49103  44.361  32.406   0.380
85336W        W49104  26.601  30.495  10.906
85337W        W49105  28.620  17.296  13.010
85338W        W49106   7.766  35.027   9.978
85339W        W49107  27.612  27.159   2.830
85340W        W49108  20.140  36.522   4.175
85341W        W49109  19.046  25.086  12.826
85342W        W49110  30.531   9.334  13.996
85343W        W49111  25.203  38.373  11.388
85344W        W49112  24.142  22.525  13.859
85345W        W49113  39.848  17.701  13.953
85346W        W49114  34.905  13.832  14.806
85347W        W49115  27.538  16.659  12.541
85348W        W49116  43.413  39.479   1.873
85349W        W49117  19.741  20.255  13.962
85350W        W49118   7.368   0.260  13.334
85351W        W49119   9.817  35.585   1.902
85352W        W49120  32.593   2.378   2.771
85353W        W49121   1.416   9.222   3.290
85354W        W49122  39.352  43.476   0.459
85355W        W49123  34.504  32.521   0.891
85356W        W49124  30.135  28.447   2.783
85357W        W49125  21.580  40.411  12.903
85358W        W49126  29.992  12.139  12.828
85359W        W49127  44.477  40.944  11.404
85360W        W49128  21.057   7.770   2.200
85361W        W49129  42.345  43.466  11.078
85362W        W49130   8.312  11.253  13.509
85363W        W49131  20.129   1.264   1.868
85364W        W49132  38.043  26.983   3.323
85365W        W49133  14.675  12.617   9.504
85366W        W49134  11.734   4.325   3.152
85367W        W49135  31.004  43.925   4.242
85368W        W49136  12.796  33.462   0.327
85369W        W49137   3.418  11.643  11.388
85370W        W49138  27.469   4.897  14.501
85371W        W49139   4.905  35.487   3.255
85372W        W49140  35.470  19.238   0.929
85373W        W49141  28.516   1.774   1.734
85374W        W49142   0.960  36.897  12.362
85375W        W49143  36.385  16.712   0.409
85376W        W49144  34.892   0.898  11.374
85377W        W49145  40.813  43.516  13.364
85378W        W49146   2.846  38.509  13.318
85379W        W49147  15.269   2.812  13.878
85380W        W49148  13.682  10.245   4.717
85381W        W49149  36.993  10.141  14.889
85382W        W49150  23.526  31.442   0.369
85383W        W49151  37.085  26.590  14.386
85384W        W49152  23.988  44.953   1.734
85385W        W49153  43.487   6.205  12.468
85386W        W49154  17.075  31.054  12.477
85387W        W49155  14.135   0.253  12.488
85388W        W49156  16.642  36.581  11.861
85389W        W49157   3.427   3.782   1.314
85390W        W49158  20.710  14.222  10.903
85391W        W49159  22.042  19.660  12.056
85392W        W49160   7.752  44.418   3.727
85393W        W49161  40.833  32.482   3.317
85394W        W49162  37.578  24.646   4.200
85395W        W49163  38.821   1.346   4.788
85396W        W49164   1.833  38.571  12.003
85397W        W49165   3.408  28.606  10.944
85398W        W49166  19.117  18.273   4.302
85399W        W49167  32.513   2.345  10.519
85400W        W49168  38.063  17.273   3.370
85401W        W49169  16.131  43.886   4.248
85402W        W49170   4.447  27.602  11.461
85403W        W49171  34.064  15.130  11.462
85404W        W49172  17.234  17.691  12.971
85405W        W49173  10.255  44.262  12.094
85406W        W49174   7.382  15.229   3.702
85407W        W49175  16.199  42.423   2.256
85408W        W49176   0.772   6.293   0.426
85409W        W49177  16.113  28.949  14.388
85410W        W49178  26.137  29.108   2.867
85411W        W49179  39.515   4.702  13.811
85412W        W49180  30.949  43.363  12.457
85413W        W49181  10.199   8.684  13.436
85414W        W49182  25.714  41.413  14.018
85415W        W49183  38.500  12.359  12.096
85416W        W49184  33.077  20.757  11.398
85417W        W49185  30.006  44.335   2.341
85418W        W49186  19.269  40.851   2.845
85419W        W49187  19.697   3.944   4.326
85420W        W49188  16.283  27.622  12.022
85421W        W49189   1.960  34.384   2.358
85422W        W49190  44.286  34.061   4.625
85423W        W49191  28.578   2.807  13.883
85424W        W49192   4.910   6.787   0.452
85425W        W49193  44.350  14.683   3.323
85426W        W49194  43.894  13.836   0.314
85427W        W49195  35.873  35.358   1.930
85428W        W49196   4.324   0.837   4.221
85429W        W49197  37.872   2.307   1.426
85430W        W49198   8.342  16.617  10.457
85431W        W49199  18.760   2.241  11.381
85432W        W49200  25.577   3.910  13.454
85433W        W49201  25.978  40.917  11.860
85434W        W49202   7.269  42.485  14.383
85435W        W49203  16.710   3.876  10.577
85436W        W49204  40.049   6.725   1.905
85437W        W49205  11.135  27.122   2.198
85438W        W49206  22.716  14.096  13.796
85439W        W49207  37.576   6.711   1.211
85440W        W49208   9.250  35.038  12.463
85441W        W49209   4.740   3.765  11.913
85442W        W49210  44.489  20.261  13.486
85443W        W49211  13.638   1.352   2.875
85444W        W49212  38.542  35.894  11.494
85445W        W49213   1.327  40.444  12.085
85446W        W49214  24.191  32.540   3.723
85447W        W49215  26.961  14.174  10.543
85448W        W49216  16.710  29.557  12.843
85449W        W49217  40.456  11.805   0.463
85450W        W49218  43.463   1.770   4.327
85451W        W49219  19.572   9.200   0.483
85452W        W49220  33.494  24.069  14.795
85453W        W49221   5.302  12.791  11.106
85454W        W49222   2.352  17.743   1.867
85455W        W49223  32.007   3.322  11.558
85456W        W49224  34.386  39.443   2.834
85457W        W49225  28.050  19.737   4.803
85458W        W49226  12.745  13.306   1.765
85459W        W49227  24.225  44.400  12.022
85460W        W49228  40.037  39.882  12.522
85461W        W49229  19.265   3.321  12.854
85462W        W49230   6.854  16.120   1.919
85463W        W49231  42.955   4.766   5.124
85464W        W49232   7.774  36.885   4.629
85465W        W49233  38.538  12.355   1.318
85466W        W49234  13.602  42.286  12.342
85467W        W49235  25.026  11.136  10.005
85468W        W49236  37.945  11.770   9.993
85469W        W49237  26.614  36.027   1.425
85470W        W49238  24.574   9.817  13.340
85471W        W49239  44.291  44.890  14.794
85472W        W49240  14.108  16.230   2.201
85473W        W49241   1.876  42.820  11.418
85474W        W49242  37.406  34.379  14.795
85475W        W49243  24.140   5.253  11.583
85476W        W49244  44.387  36.442  10.012
85477W        W49245   1.451   7.199   4.668
85478W        W49246  34.478  19.565  14.860
85479W        W49247   1.305  15.795   0.266
85480W        W49248  14.154  24.209  10.906
85481W        W49249  12.630  34.042  14.417
85482W        W49250  23.016  37.409   2.673
85483W        W49251  26.565  44.976  13.539
85484W        W49252  10.701  11.259   2.278
85485W        W49253  15.583  32.016  10.915
85486W        W49254  26.589  30.964  11.581
85487W        W49255  12.164  26.967  14.490
85488W        W49256   3.328   2.377  13.063
85489W        W49257  33.625   9.840  11.564
85490W        W49258  37.045  30.930  10.628
85491W        W49259  30.987  37.909   4.648
85492W        W49260  15.621   9.645  12.844
85493W        W49261  18.233  30.963  11.960
85494W        W49262  40.501   2.767   3.788
85495W        W49263   5.771   6.409   1.738
85496W        W49264   9.395  36.077  14.022
85497W        W49265  36.548  29.626  14.948
85498W        W49266   6.700  23.171   4.354
85499W        W49267  35.457  26.465   0.413
85500W        W49268  33.021  44.863  11.963
85501W        W49269   6.329  14.207  12.863
85502W        W49270   8.661   3.261   3.213
85503W        W49271  34.101  31.011   1.719
85504W        W49272  33.075   5.369  11.970
85505W        W49273  19.192   2.881   0.781
85506W        W49274  35.496  26.041  12.541
85507W        W49275  26.056  24.086  13.409
85508W        W49276   3.768  13.657   4.825
85509W        W49277  24.514  32.101   0.336
85510W        W49278  25.197  26.126   2.710
85511W        W49279  39.444  12.180  14.328
85512W        W49280   5.921  30.441   4.770
85513W        W49281  35.524   7.836   2.298
85514W        W49282  10.863  32.439  11.546
85515W        W49283  18.568  16.119   3.180
85516W        W49284  39.510  27.946  10.042
85517W        W49285  40.869  38.044   2.386
85518W        W49286  20.072  30.975   0.336
85519W        W49287  25.170  30.022   2.328
85520W        W49288   8.812  31.419  13.987
85521W        W49289   8.354  42.829  13.852
85522W        W49290   8.663   6.863  11.605
85523W        W49291  28.459   4.803   9.968
85524W        W49292  40.973  28.501   5.585
85525W        W49293  33.978   4.838  10.033
85526W        W49294  43.314  16.744  11.032
85527W        W49295  26.618   8.726   0.822
85528W        W49296  43.322  34.425   3.746
85529W        W49297   3.836  33.597   2.256
85530W        W49298  20.241  27.577  10.437
85531W        W49299  21.087  43.350  12.904
85532W        W49300  30.424  33.450  10.892
85533W        W49301   2.757  41.980   1.235
85534W        W49302  18.200  39.897  10.959
85535W        W49303  28.029  39.014   0.249
85536W        W49304  29.584  37.454  12.960
85537W        W49305  41.858  44.852  10.546
85538W        W49306  25.082  44.448  14.979
85539W        W49307  36.433  34.014  11.020
85540W        W49308   5.749  26.066  11.936
85541W        W49309  11.854  34.039  14.007
85542W        W49310  31.441  14.666   3.304
85543W        W49311  22.581  12.697   4.232
85544W        W49312   5.754   3.248   1.833
85545W        W49313  43.490  41.787   4.271
85546W        W49314  38.510   5.359   2.375
85547W        W49315  40.031   0.804  13.923
85548W        W49316  17.705  37.895   3.310
85549W        W49317  17.263  32.592  14.931
85550W        W49318  17.573  15.115  11.069
85551W        W49319  41.304  41.320  11.960
85552W        W49320   3.217  33.472  12.059
85553W        W49321  11.667   2.348  10.140
85554W        W49322  29.513  33.912  11.048
85555W        W49323  35.968  18.680  12.845
85556W        W49324  14.245  38.417  10.441
85557W        W49325  14.319  27.534  14.886
85558W        W49326  19.072  30.592  13.323
85559W        W49327  30.498  39.955  14.991
85560W        W49328  20.143  24.654   2.702
85561W        W49329   4.776   2.292   1.382
85562W        W49330   8.185  40.798   4.286
85563W        W49331  19.136  43.343   1.709
85564W        W49332  32.608  33.122   0.914
85565W        W49333  28.090  19.195  14.340
85566W        W49334  31.129   3.363   4.163
85567W        W49335   7.394   1.975   3.160
85568W        W49336   6.923  30.961   4.777
85569W        W49337   2.440   4.794  12.340
85570W        W49338   8.239  42.337  10.910
85571W        W49339  25.084  30.634  14.495
85572W        W49340  19.214   8.662  14.285
85573W        W49341   4.827  21.159   4.658
85574W        W49342  41.003   0.857   0.416
85575W        W49343  10.748  39.442  12.427
85576W        W49344  39.938   8.221  13.033
85577W        W49345  31.068  29.435  11.105
85578W        W49346   0.378   3.928   3.300
85579W        W49347  41.971  28.158  11.458
85580W        W49348  35.049  42.857   1.910
85581W        W49349  16.684  37.923  13.882
85582W        W49350   3.922   5.431   2.323
85583W        W49351  26.484  30.592   4.320
85584W        W49352  29.560  25.208  12.465
85585W        W49353   9.209  27.038  13.539
85586W        W49354  16.298  43.467   3.684
85587W        W49355   5.234   1.760   1.377
85588W        W49356  12.270  21.090   1.240
85589W        W49357  15.236  13.121   2.729
85590W        W49358  43.349  17.125   3.295
85591W        W49359   7.394  25.605   3.313
85592W        W49360  23.718  39.459  13.924
85593W        W49361   5.398   3.301   0.901
85594W        W49362  37.041  10.312  13.502
85595W        W49363   6.362  40.012  14.459
85596W        W49364   1.386  33.596   0.458
85597W        W49365   9.291  28.977  10.901
85598W        W49366  42.384   6.335   2.271
85599W        W49367  14.117  26.496   2.892
85600W        W49368   9.778  21.679  10.892
85601W        W49369  33.624   2.776   1.703
85602W        W49370   3.403  19.183  14.802
85603W        W49371  37.922   8.793  12.399
85604W        W49372  13.196  14.646  14.031
85605W        W49373  15.768  23.578  12.832
85606W        W49374  16.793  23.091  10.022
85607W        W49375  16.707  21.546  13.866
85608W        W49376  19.065   2.424  14.843
85609W        W49377  16.289  43.473  12.535
85610W        W49378  19.584  14.812  10.976
85611W        W49379  41.467  27.125   3.375
85612W        W49380  11.290  19.752  11.467
85613W        W49381  38.925   3.931   4.140
85614W        W49382   3.846  34.113   4.261
85615W        W49383  13.138  28.586  13.498
85616W        W49384  12.148  31.024   1.258
85617W        W49385  43.015   3.844   1.851
85618W        W49386  44.493  25.039   1.417
85619W        W49387   3.837   4.288   3.224
85620W        W49388  30.534  37.465  11.893
85621W        W49389  35.926  35.929  10.431
85622W        W49390  17.749  31.993   0.815
85623W        W49391  19.164  26.520  14.964
85624W        W49392  29.091  24.191   0.801
85625W        W49393   5.220   7.816   0.738
85626W        W49394  32.943   8.844   3.246
85627W        W49395  28.651  21.697  12.450
85628W        W49396  18.789   8.877  13.038
85629W        W49397  26.702  33.113   1.314
85630W        W49398  29.476  17.118   0.280
85631W        W49399   2.379   0.829   4.649
85632W        W49400  34.487  15.212   0.430
85633W        W49401  27.606  11.242   4.346
85634W        W49402  28.979  25.566   2.323
85635W        W49403  21.046  28.513   2.306
85636W        W49404  43.509  30.461  11.084
85637W        W49405  12.271   6.745   0.900
85638W        W49406  12.170  19.700   2.773
85639W        W49407  12.711  10.289   3.301
85640W        W49408  12.695   9.746   0.865
85641W        W49409  39.047   0.426   4.345
85642W        W49410  21.596  14.315  13.523
85643W        W49411  43.399   5.230   2.345
85644W        W49412  41.002  38.350   4.633
85645W        W49413  35.400  40.383  11.439
85646W        W49414  37.030  19.759   0.745
85647W        W49415  44.389  11.638   4.273
85648W        W49416  15.082  25.985  14.390
85649W        W49417  31.908  29.129   0.289
85650W        W49418  21.156  22.715  14.418
85651W        W49419  35.359  32.454   0.409
85652W        W49420  34.576  12.211  14.396
85653W        W49421  28.135  36.433  14.344
85654W        W49422  16.217   5.802  14.511
85655W        W49423   0.936  34.907  10.075
85656W        W49424  20.088   0.310   2.742
85657W        W49425  17.104   2.303   2.220
85658W        W49426  33.880   9.836  10.532
85659W        W49427  39.034  23.117  12.990
85660W        W49428   2.335  31.143  12.873
85661W        W49429   7.885  36.502   4.185
85662W        W49430  13.244  29.033  11.526
85663W        W49431  19.247  24.222   0.929
85664W        W49432  19.588  36.397   0.878
85665W        W49433   1.871  38.963  14.332
85666W        W49434  26.618  33.943  13.947
85667W        W49435  27.470   6.779   0.436
85668W        W49436  32.464   0.789   4.311
85669W        W49437  32.109   3.329  10.490
85670W        W49438   0.894  16.167   3.280
85671W        W49439  20.726  39.842  14.305
85672W        W49440  42.854  25.082   1.900
85673W        W49441  33.127   0.406   2.296
85674W        W49442  12.765   9.833  14.793
85675W        W49443  27.018  17.621  14.026
85676W        W49444  26.646  25.701   4.618
85677W        W49445   7.750  27.121  12.892
85678W        W49446  19.253  18.662  11.401
85679W        W49447  21.609  37.072  14.945
85680W        W49448  38.429  35.429  13.852
85681W        W49449   6.688  14.771   1.782
85682W        W49450   2.868  17.650   1.299
85683W        W49451   5.257  43.390  13.063
85684W        W49452   9.225  30.492  14.783
85685W        W49453  25.573  21.535   1.932
85686W        W49454  12.812  10.732   5.189
85687W        W49455  24.702  24.667   1.933
85688W        W49456  27.131   6.309   0.818
85689W        W49457  24.172  36.901   4.804
85690W        W49458   4.808  33.070   1.245
85691W        W49459  31.918  31.971  13.980
85692W        W49460  19.775   6.373   0.930
85693W        W49461  31.402  41.901  14.874
85694W        W49462  22.248  36.001  12.414
85695W        W49463  23.236   1.248  12.904
85696W        W49464  12.711   2.795  11.888
85697W        W49465  43.868  35.443  11.936
85698W        W49466  15.256  23.646  11.910
85699W        W49467   9.686   4.940  11.128
85700W        W49468  27.119  20.216  11.011
85701W        W49469  18.256  19.776  10.993
85702W        W49470  44.473  17.787  12.999
85703W        W49471  40.436  37.459   2.800
85704W        W49472   5.339   5.825   0.886
85705W        W49473  32.999  42.880   3.868
85706W        W49474  26.483  43.295  11.067
85707W        W49475  18.623   2.457   1.801
85708W        W49476  32.525  25.999   4.192
85709W        W49477   2.962  31.025  13.937
85710W        W49478  15.142  41.513   1.760
85711W        W49479  37.944   9.167   1.444
85712W        W49480   6.361  11.631   5.214
85713W        W49481  43.406  28.000   1.329
85714W        W49482  20.099  25.027   5.204
85715W        W49483  44.263  21.599   4.597
85716W        W49484  22.219  40.860   4.193
85717W        W49485   6.267  33.031   1.796
85718W        W49486  26.153  17.572   1.903
85719W        W49487  40.346  15.762   4.721
85720W        W49488  11.275  36.403  12.086
85721W        W49489  26.626  32.532  13.028
85722W        W49490   9.371  18.051   0.454
85723W        W49491   9.337  35.420   2.725
85724W        W49492   3.803  11.675   2.788
85725W        W49493  38.397  43.807   2.366
85726W        W49494   1.964  27.618  12.983
85727W        W49495   8.844  25.685   0.864
85728W        W49496   5.702  44.753   4.670
85729W        W49497  39.868  21.130   0.942
85730W        W49498  16.733  31.030  13.873
85731W        W49499  35.525   6.212  14.502
85732W        W49500  44.779   7.312   4.605
85733W        W49501   5.381  13.263  14.937
85734W        W49502  40.352  39.519  10.534
85735W        W49503  28.672  42.393  12.857
85736W        W49504  26.153  31.909   4.815
85737W        W49505  32.448  32.971  14.368
85738W        W49506   8.680  42.459  11.506
85739W        W49507  34.993   2.738  12.576
85740W        W49508   6.812  21.051   3.169
85741W        W49509  40.347  22.725   2.402
85742W        W49510  27.489   1.735   1.888
85743W        W49511  13.725  42.024  13.864
85744W        W49512   0.969   3.351  11.064
85745W        W49513  26.607  11.250  11.539
85746W        W49514  40.462  19.741  11.373
85747W        W49515  29.172   7.896   1.429
85748W        W49516  17.117  16.757  13.989
85749W        W49517  33.590  35.028   4.610
85750W        W49518  21.723  43.938  11.506
85751W        W49519  40.929  42.935  14.999
85752W        W49520  26.464  21.144  10.551
85753W        W49521  26.477  29.140   0.302
85754W        W49522  19.699   0.293   1.716
85755W        W49523  19.052  31.524   0.792
85756W        W49524  33.904  10.681   2.811
85757W        W49525  15.810  12.799   4.780
85758W        W49526  16.567  34.601   4.677
85759W        W49527  38.359  20.723   2.323
85760W        W49528  36.397   6.205  14.286
85761W        W49529  13.643  32.020   2.868
85762W        W49530  42.802  38.368  11.604
85763W        W49531  14.109  40.452   1.420
85764W        W49532  35.574   6.848   0.373
85765W        W49533   3.812  20.264   3.335
85766W        W49534  33.623  35.570   1.307
85767W        W49535  25.146  26.192   3.870
85768W        W49536  33.041  24.524  11.605
85769W        W49537   6.344  37.539   2.259
85770W        W49538  11.212  24.127  11.055
85771W        W49539  33.581  17.198   2.305
85772W        W49540  17.141  24.683   2.807
85773W        W49541  30.041   2.407  10.992
85774W        W49542  21.664   4.321  13.326
85775W        W49543  31.502  40.899  12.411
85776W        W49544   3.747   1.845   1.829
85777W        W49545   2.873  22.509  12.906
85778W        W49546  27.561   4.278  10.985
85779W        W49547  38.483   9.159  11.517
85780W        W49548  32.000   7.869   1.761
85781W        W49549  23.076  12.696   3.846
85782W        W49550   9.796  43.957  13.058
85783W        W49551  19.278  28.079   4.182
85784W        W49552  22.213   9.819  14.349
85785W        W49553  23.080  38.937   3.324
85786W        W49554   9.672  30.629   0.289
85787W        W49555  25.515  27.026  13.308
85788W        W49556  19.725  14.823   3.369
85789W        W49557  11.133  42.028  10.923
85790W        W49558  25.988  34.074  10.966
85791W        W49559   7.783  22.630   3.256
85792W        W49560   2.423  30.052  11.910
85793W        W49561  24.608  38.412  10.536
85794W        W49562  22.650  33.035   3.185
85795W        W49563   8.779  17.723   2.667
85796W        W49564  29.087  10.754  11.411
85797W        W49565   9.381   2.352   0.251
85798W        W49566  32.123  22.099  12.080
85799W        W49567  19.209   0.784   3.807
85800W        W49568  23.723  29.120  12.409
85801W        W49569  26.018  32.523  14.006
85802W        W49570   6.763  29.124   1.697
85803W        W49571   8.195  34.470   2.706
85804W        W49572  33.566  21.513  13.888
85805W        W49573   8.223  19.152   4.155
85806W        W49574  26.101   2.239  11.410
85807W        W49575  42.453  38.475   2.765
85808W        W49576  10.294   8.172   3.754
85809W        W49577  35.483  39.974  11.599
85810W        W49578  41.469  19.581   0.332
85811W        W49579   5.871  17.230  11.435
85812W        W49580  24.117  22.695   0.448
85813W        W49581  41.449  36.433   4.763
85814W        W49582   8.223  30.518  14.908
85815W        W49583   1.295  20.546  13.444
85816W        W49584   1.243  40.458  14.505
85817W        W49585  15.230  18.676  14.275
85818W        W49586  36.398   6.340  13.058
85819W        W49587   1.769  12.170   2.687
85820W        W49588  27.578   5.767  14.906
85821W        W49589  17.721  38.043  14.781
85822W        W49590  10.665  40.364   1.229
85823W        W49591  18.641  30.968  13.050
85824W        W49592   1.339  19.632  10.446
85825W        W49593  35.882   1.385  12.368
85826W        W49594   2.827  17.728  10.510
85827W        W49595  35.465  20.239  11.431
85828W        W49596  26.952  42.419   0.948
85829W        W49597   1.348  23.019  13.048
85830W        W49598  11.765  32.960   1.345
85831W        W49599  41.334  29.530   0.810
85832W        W49600   2.347   5.920  12.906
85833W        W49601  42.420  27.471   4.623
85834W        W49602  31.138   8.864  12.975
85835W        W49603  19.602  27.465   3.270
85836W        W49604  43.427  31.909   1.359
85837W        W49605  44.932  29.122  13.052
85838W        W49606  41.940  31.464  12.513
85839W        W49607  15.268  34.872  10.587
85840W        W49608  27.994  14.766  10.429
85841W        W49609  34.508  34.114   0.419
85842W        W49610  38.901  12.230  11.101
85843W        W49611   6.779  34.380   3.174
85844W        W49612  40.838  26.638   3.292
85845W        W49613   6.312   5.886   2.760
85846W        W49614  41.321   2.402  14.457
85847W        W49615  18.567  20.218   0.270
85848W        W49616  39.509  15.146   0.444
85849W        W49617   1.896  15.301   1.747
85850W        W49618  43.827   9.194   0.379
85851W        W49619  24.682  17.770  14.339
85852W        W49620  44.487  40.024  10.520
85853W        W49621   5.278  44.835   3.192
85854W        W49622  10.720  11.316  13.492
85855W        W49623  30.657  18.228   1.269
85856W        W49624   6.701  28.675  12.840
85857W        W49625   7.684  35.891   0.921
85858W        W49626  34.610   3.753  13.331
85859W        W49627  32.000   9.650  12.870
85860W        W49628  23.603  31.051  13.546
85861W        W49629  16.787   4.747   2.181
85862W        W49630  27.022   6.320  12.890
85863W        W49631   5.922  40.336   0.886
85864W        W49632  36.857  32.961   0.386
85865W        W49633   4.240  15.090  10.637
85866W        W49634  43.292  18.631  10.083
85867W        W49635  14.696  12.676   1.873
85868W        W49636  21.622  22.669  14.991
85869W        W49637  22.585  14.237   3.698
85870W        W49638  22.043  14.616  10.938
85871W        W49639  24.032  16.568  14.970
85872W        W49640  43.438  42.909  14.800
85873W        W49641   6.835   3.431  10.468
85874W        W49642  42.319  33.624   1.922
85875W        W49643  21.156   7.718   0.367
85876W        W49644  24.167  25.488  13.423
85877W        W49645  34.047  42.810   4.627
85878W        W49646   8.850   4.393  12.572
85879W        W49647  24.711  39.478   0.258
85880W        W49648  24.626  28.141  14.341
85881W        W49649  25.968   6.344   4.220
85882W        W49650   4.735  30.649  13.483
85883W        W49651  42.354  25.981   4.694
85884W        W49652   7.362  41.930   4.339
85885W        W49653   7.707  33.890   2.366
85886W        W49654  22.175  26.459  10.102
85887W        W49655   4.732  11.254  11.941
85888W        W49656   4.851   3.741  14.464
85889W        W49657   4.872  34.900   4.294
85890W        W49658  24.614  21.044  12.539
85891W        W49659  30.011  17.282   2.295
85892W        W49660  42.434  24.046  12.945
85893W        W49661   4.878   7.264  11.929
85894W        W49662  39.329  27.083  11.899
85895W        W49663  40.523  29.428  13.899
85896W        W49664  19.617  34.420   3.753
85897W        W49665  21.727  35.079  11.444
85898W        W49666  34.105  24.069  10.931
85899W        W49667  23.526  14.118   1.800
85900W        W49668  41.805  13.632   0.480
85901W        W49669  12.211  22.191  12.485
85902W        W49670  21.597   1.758  10.635
85903W        W49671   2.332  27.041  13.513
85904W        W49672  10.338   3.286  11.110
85905W        W49673  32.143  10.837  12.920
85906W        W49674  16.078  33.394   1.727
85907W        W49675  35.551  28.092  12.520
85908W        W49676   1.335  14.224  14.371
85909W        W49677  28.059  33.907   4.720
85910W        W49678  16.135  27.602   3.375
85911W        W49679  19.241  32.555   3.830
85912W        W49680  26.972  25.061   0.474
85913W        W49681  35.950   7.184   0.312
85914W        W49682   8.193  42.824   3.642
85915W        W49683  20.686  39.920   4.338
85916W        W49684  23.178  30.633   1.271
85917W        W49685  30.421  15.679  13.945
85918W        W49686  20.546  43.506  14.310
85919W        W49687  35.536   4.761  14.410
85920W        W49688  31.000   4.911  12.522
85921W        W49689  34.490  10.677  10.532
85922W        W49690  34.967  14.234   4.647
85923W        W49691  11.269  39.880  10.547
85924W        W49692  30.966  35.865  11.407
85925W        W49693   7.318   0.922   4.345
85926W        W49694  37.369   3.403   2.718
85927W        W49695  35.072  43.492   1.214
85928W        W49696  28.446  32.060  11.603
85929W        W49697  34.455  27.156   3.811
85930W        W49698  19.121  44.332   2.343
85931W        W49699  42.317  11.249  12.005
85932W        W49700   0.393  27.955  13.034
85933W        W49701  22.666  17.660   0.874
85934W        W49702   0.443   8.829   0.769
85935W        W49703  36.013  24.635  12.055
85936W        W49704   4.420   4.767  12.458
85937W        W49705  36.527  28.955   4.748
85938W        W49706  12.755  40.977   2.193
85939W        W49707  26.621  11.289  10.496
85940W        W49708   2.804  26.523  13.533
85941W        W49709  19.761  42.810   3.183
85942W        W49710  28.656   6.416   4.624
85943W        W49711  12.126  35.959   4.264
85944W        W49712  29.115   9.802   1.438
85945W        W49713  42.393   1.365  13.938
85946W        W49714  44.381  39.370   3.326
85947W        W49715  16.805  10.374  10.928
85948W        W49716   6.370   5.370  10.618
85949W        W49717  31.138  41.954   3.209
85950W        W49718  19.112  14.319  14.814
85951W        W49719  28.169  12.670  10.066
85952W        W49720   8.334  36.523  12.059
85953W        W49721   6.728  44.299   2.899
85954W        W49722  39.965   1.850   2.280
85955W        W49723  32.066  31.099   4.193
85956W        W49724  22.732   3.332   1.299
85957W        W49725  30.081  17.614   3.338
85958W        W49726   1.795   5.746  14.381
85959W        W49727   0.317  36.495  14.924
85960W        W49728  13.810  17.727  11.126
85961W        W49729  36.354   1.933  13.375
85962W        W49730   1.954  40.843  12.873
85963W        W49731  43.468  23.530   0.937
85964W        W49732  31.046   9.864   3.806
85965W        W49733  30.478  16.572  13.947
85966W        W49734   7.858   2.293   1.445
85967W        W49735   3.421  37.357   0.841
85968W        W49736  10.694   2.919  13.423
85969W        W49737  24.715  44.316  11.012
85970W        W49738  34.439  18.786   2.707
85971W        W49739  36.008  39.817   3.328
85972W        W49740   0.939  19.194  12.023
85973W        W49741  40.894  25.597  12.981
85974W        W49742  11.302  32.013  10.421
85975W        W49743  13.297  23.116   1.761
85976W        W49744  26.605  27.488  11.071
85977W        W49745   9.706  23.574  13.317
85978W        W49746  20.029   7.848   0.757
85979W        W49747  43.397  24.655   1.300
85980W        W49748  42.910  31.099  10.592
85981W        W49749   1.399  16.139   3.727
85982W        W49750  39.411  21.034   0.369
85983W        W49751  16.249  34.119   0.367
85984W        W49752  23.216   4.898   1.401
85985W        W49753  34.409  33.893  10.579
85986W        W49754  10.878   0.816  12.091
85987W        W49755  36.470  30.998   4.339
85988W        W49756  34.979  19.722   0.917
85989W        W49757   3.748  25.173  13.796
85990W        W49758  16.156  26.006   1.292
85991W        W49759   8.820  17.591   3.723
85992W        W49760   5.705  38.867   4.232
85993W        W49761  41.020  41.936  12.491
85994W        W49762   4.273  14.592  12.535
85995W        W49763  25.608  43.904  13.909
85996W        W49764  34.087  15.103  11.860
85997W        W49765   9.207  25.023   1.361
85998W        W49766  16.727   0.339   3.682
85999W        W49767  35.566  40.547   2.315
86000W        W49768  11.290   3.797   1.389
86001W        W49769  16.180  25.667  12.975
86002W        W49770  17.205  28.656  11.497
86003W        W49771   7.264   8.167   1.351
86004W        W49772  16.080  16.711   3.278
86005W        W49773   3.869  15.236  14.996
86006W        W49774  17.674  13.279   3.854
86007W        W49775   8.254  18.557   0.966
86008W        W49776  40.852  26.174  13.831
86009W        W49777  18.563  44.299   4.285
86010W        W49778  16.143  22.709  12.878
86011W        W49779  15.155  41.893   1.222
86012W        W49780  10.746   4.261  12.451
86013W        W49781  15.596  14.674   1.918
86014W        W49782  44.412   6.725   0.311
86015W        W49783  39.927  32.465   3.825
86016W        W49784  10.314  38.951  11.593
86017W        W49785   5.218  10.369   3.672
86018W        W49786  36.984  35.960  11.969
86019W        W49787   9.683  31.101   2.855
86020W        W49788   4.275   5.919  11.997
86021W        W49789  17.588  44.313   1.705
86022W        W49790  27.451  27.081  12.531
86023W        W49791  24.642  10.711   5.307
86024W        W49792  13.664  40.345  10.999
86025W        W49793  19.118  31.023   3.631
86026W        W49794  26.528  43.806   4.638
86027W        W49795   9.826   9.657   4.205
86028W        W49796  15.708  26.984  11.063
86029W        W49797  22.236   7.740  10.463
86030W        W49798  11.355  37.984  12.914
86031W        W49799  43.509  25.090  13.936
86032W        W49800  16.286  14.315  14.484
86033W        W49801  11.676  18.649  11.042
86034W        W49802  23.120  12.643  14.431
86035W        W49803   1.742  11.164   3.815
86036W        W49804  23.725  17.170   0.411
86037W        W49805  29.040  37.894   1.370
86038W        W49806  22.239  32.623  10.917
86039W        W49807  39.018   4.930   4.709
86040W        W49808   7.690  44.791  14.395
86041W        W49809  28.166  13.267   9.639
86042W        W49810  36.957  36.423  14.003
86043W        W49811  37.363  28.642   3.159
86044W        W49812  34.584  28.048  11.021
86045W        W49813  36.397  37.453   0.384
86046W        W49814  21.122  27.158   3.745
86047W        W49815  10.186  32.421   3.179
86048W        W49816   1.877  21.685   1.329
86049W        W49817  15.325   5.264   0.310
86050W        W49818  19.752  36.082  13.792
86051W        W49819  42.973  26.463   4.693
86052W        W49820  16.172   6.915   1.851
86053W        W49821  15.112  22.035   5.101
86054W        W49822  24.628  27.095   2.195
86055W        W49823  26.067   1.904   2.237
86056W        W49824  15.717   6.889   4.297
86057W        W49825  31.949  13.830  12.976
86058W        W49826  24.178  42.025   3.715
86059W        W49827  19.703  43.856  13.009
86060W        W49828   7.365  15.610  13.049
86061W        W49829  26.541  23.702  12.918
86062W        W49830  34.482  30.104  13.353
86063W        W49831  24.185  15.124  14.012
86064W        W49832  33.114   4.426  13.389
86065W        W49833  10.659  14.672  13.981
86066W        W49834  13.147  10.712   3.357
86067W        W49835  40.454  44.802   4.198
86068W        W49836  34.898  12.733   9.945
86069W        W49837  16.780  42.324   4.304
86070W        W49838  41.343  42.982   0.907
86071W        W49839   0.823  25.171  13.307
86072W        W49840  42.863  24.187  13.047
86073W        W49841  40.988  43.943   0.841
86074W        W49842  39.848  32.085   4.331
86075W        W49843  21.646   3.283   3.768
86076W        W49844  10.774  43.943   0.757
86077W        W49845   2.352   8.843   0.844
86078W        W49846  15.812  25.515   0.905
86079W        W49847   3.790  12.848   2.199
86080W        W49848  13.714  43.981   1.798
86081W        W49849  10.786  29.665  10.930
86082W        W49850   5.298  11.163  11.442
86083W        W49851  20.134  37.009  14.031
86084W        W49852  23.153  40.801  14.469
86085W        W49853  36.564  35.582  10.618
86086W        W49854  14.123  17.655  11.372
86087W        W49855   0.949  17.723  13.346
86088W        W49856  34.879  42.796   0.366
86089W        W49857  23.180  25.151  14.927
86090W        W49858  33.386  37.578  13.412
86091W        W49859  36.910  26.972  11.018
86092W        W49860  21.713  43.378   4.597
86093W        W49861  16.684  22.660   0.957
86094W        W49862  30.553  33.051  12.570
86095W        W49863   0.855   4.341   0.471
86096W        W49864   6.257   4.933   0.912
86097W        W49865  10.247  16.145  11.380
86098W        W49866  36.991  41.009  11.057
86099W        W49867  14.191  26.082   4.293
86100W        W49868  19.746   0.356  10.913
86101W        W49869  12.845  31.642   0.417
86102W        W49870  40.410  14.210   2.806
86103W        W49871  12.671  44.498   0.963
86104W        W49872  35.531  25.087  10.939
86105W        W49873  37.919  11.358  10.639
86106W        W49874  13.324  23.733   0.844
86107W        W49875  29.052   2.782   0.940
86108W        W49876   5.723   6.884  14.276
86109W        W49877  32.112  37.831  12.084
86110W        W49878  42.875  39.415   3.631
86111W        W49879   7.737  27.530  12.521
86112W        W49880  23.071   8.162   3.301
86113W        W49881   1.847  43.282  13.974
86114W        W49882   4.714  16.639   0.258
86115W        W49883  20.188   6.721  11.874
86116W        W49884  44.856  42.335  11.549
86117W        W49885  36.845  17.671  13.492
86118W        W49886  42.954   7.217  14.990
86119W        W49887  44.259  19.752   1.862
86120W        W49888  26.681  10.635  11.124
86121W        W49889  14.295  20.268   3.838
86122W        W49890  29.098  12.213   4.781
86123W        W49891   8.273   0.296  10.591
86124W        W49892  20.591   0.295   3.723
86125W        W49893  25.039  31.583  13.481
86126W        W49894  27.146   2.870  10.494
86127W        W49895  33.450  15.642   0.383
86128W        W49896   4.421  35.055   5.306
86129W        W49897   8.224  32.065   0.919
86130W        W49898  37.529   8.173  12.354
86131W        W49899   2.470  32.397  11.497
86132W        W49900  34.891  40.339  12.573
86133W        W49901  42.033  26.117   2.843
86134W        W49902  26.493  19.094   2.685
86135W        W49903  30.424  12.737  13.327
86136W        W49904  17.186  27.672  10.153
86137W        W49905  21.048   4.706  13.944
86138W        W49906  11.263   2.321   2.416
86139W        W49907   9.885  20.238   3.828
86140W        W49908  37.402  31.555  11.121
86141W        W49909  38.004  27.508  13.989
86142W        W49910  19.638  15.171   2.681
86143W        W49911  42.827  40.323   2.867
86144W        W49912  34.024  20.202   3.346
86145W        W49913  30.090   7.314   0.903
86146W        W49914  16.588   7.363   1.333
86147W        W49915  20.728   9.676  13.480
86148W        W49916  17.663  25.551   0.823
86149W        W49917  41.468  20.597   1.216
86150W        W49918   9.178  22.121   3.860
86151W        W49919   6.710  43.934   3.326
86152W        W49920   8.780  17.191  12.505
86153W        W49921  30.512  31.546   0.768
86154W        W49922  23.117  38.423   3.660
86155W        W49923  41.351  37.389   2.369
86156W        W49924  27.183  26.180  12.919
86157W        W49925  31.501  13.242  12.542
86158W        W49926  28.946  34.004  11.562
86159W        W49927  10.172  27.537   0.901
86160W        W49928  14.776  38.411  12.440
86161W        W49929  26.595  36.001  10.443
86162W        W49930  33.400  29.435   5.199
86163W        W49931  35.435  12.676  11.897
86164W        W49932  11.769   8.211  13.356
86165W        W49933  36.525  41.471   3.350
86166W        W49934   4.395  41.902  13.063
86167W        W49935   6.793  10.174   2.888
86168W        W49936  25.649  36.946  14.494
86169W        W49937  28.985  19.681  13.790
86170W        W49938   6.282  19.113  12.065
86171W        W49939  14.617  31.044  10.404
86172W        W49940  35.970  18.783   1.806
86173W        W49941  35.964  43.886  11.859
86174W        W49942  26.524  13.274   5.201
86175W        W49943  44.857  37.945   4.280
86176W        W49944  17.268  26.083   4.331
86177W        W49945   2.452  37.077  11.486
86178W        W49946  28.522  43.860   4.310
86179W        W49947  25.099  31.095   5.153
86180W        W49948  32.534  34.611  12.510
86181W        W49949  25.047  14.264   2.798
86182W        W49950   1.290  31.028   1.761
86183W        W49951  14.605  25.011  14.448
86184W        W49952  36.889   8.359  11.452
86185W        W49953  39.344  21.086  14.938
86186W        W49954  23.557   6.818  11.012
86187W        W49955  26.642  22.204  11.564
86188W        W49956  15.641  26.561  12.855
86189W        W49957   1.366  22.680   1.882
86190W        W49958   8.882  28.930  13.358
86191W        W49959  25.192  23.072  10.544
86192W        W49960   1.284  21.154   4.266
86193W        W49961  39.814   3.304  11.866
86194W        W49962   4.212  40.817   3.638
86195W        W49963  19.645  37.927  10.523
86196W        W49964  32.601  25.564   2.388
86197W        W49965   2.757   8.833  13.853
86198W        W49966   3.321  32.097  11.971
86199W        W49967  25.697  27.555  11.937
86200W        W49968   5.202  42.374  10.542
86201W        W49969  31.136  37.562   3.844
86202W        W49970  30.013  35.928   4.285
86203W        W49971  32.099  34.001  11.607
86204W        W49972  11.868  25.108   2.359
86205W        W49973  33.080  31.979   4.233
86206W        W49974  37.953  25.509   4.212
86207W        W49975  40.305  19.063   1.240
86208W        W49976  18.736   5.194   0.459
86209W        W49977  31.630  30.505  12.096
86210W        W49978  39.447  12.825  14.893
86211W        W49979  20.716  34.579  11.557
86212W        W49980  44.986  27.598   1.740
86213W        W49981  38.472  17.181   4.635
86214W        W49982  27.491  35.603  13.502
86215W        W49983  23.572  14.227   3.825
86216W        W49984  21.165   7.290  11.090
86217W        W49985  40.015  44.413  14.013
86218W        W49986  36.920   6.688  14.405
86219W        W49987  23.104   2.262   0.775
86220W        W49988   1.869  19.039  10.954
86221W        W49989  26.537  37.041   1.389
86222W        W49990  31.519  11.670  12.034
86223W        W49991  31.087  13.646  13.504
86224W        W49992  43.357  24.978   2.194
86225W        W49993   7.280  18.552   2.301
86226W        W49994  11.754  36.865   4.126
86227W        W49995   8.769   4.771  10.422
86228W        W49996  32.489   2.337  14.447
86229W        W49997  11.201   4.329  12.044
86230W        W49998  18.640  36.982  11.443
86231W        W49999  27.514   7.683  12.826
86232W        W50000   8.173   1.731  14.349
86233W        W50001  36.056  33.961  11.858
86234W        W50002   8.333  19.158  13.488
86235W        W50003  26.977  39.528  12.013
86236W        W50004  31.492  18.762   1.394
86237W        W50005  33.901  22.724   4.326
86238W        W50006   4.823  43.328  12.427
86239W        W50007  13.800  13.268   5.313
86240W        W50008  37.377  27.944  12.826
86241W        W50009  34.074  32.535  11.440
86242W        W50010  39.024  41.990   1.388
86243W        W50011  18.270  37.581   4.255
86244W        W50012  21.514  10.325  11.064
86245W        W50013  11.718  36.874   0.401
86246W        W50014  25.588  25.110  11.113
86247W        W50015  29.658  24.485   2.274
86248W        W50016  41.463   2.805  11.938
86249W        W50017  10.295   3.834   2.853
86250W        W50018   9.205  31.973  13.334
86251W        W50019  11.645  32.988  10.525
86252W        W50020  39.918   1.740  12.877
86253W        W50021  24.519  28.458  14.818
86254W        W50022  13.662  32.528  14.979
86255W        W50023  36.440  31.078   2.218
86256W        W50024  29.664   8.355   1.389
86257W        W50025  29.160  34.035   3.739
86258W        W50026  31.635  18.564   2.186
86259W        W50027   3.774   0.481  13.383
86260W        W50028  21.125  17.665   1.341
86261W        W50029   9.765  32.607  13.016
86262W        W50030  10.373  41.787   4.608
86263W        W50031  18.742   6.376  10.965
86264W        W50032   5.218  29.429  10.495
86265W        W50033  14.097  20.216   4.286
86266W        W50034  11.632  35.928   4.597
86267W        W50035  40.549  14.638  14.430
86268W        W50036  21.116  20.160  14.821
86269W        W50037  14.307  29.574   3.779
86270W        W50038  15.737  11.292  11.057
86271W        W50039  36.554  29.509   4.685
86272W        W50040  12.761   8.832  12.520
86273W        W50041  17.189  16.098   4.715
86274W        W50042  31.510  28.965   1.806
86275W        W50043  14.235   0.821  12.930
86276W        W50044  30.994  31.100   0.808
86277W        W50045   1.874  31.109  10.939
86278W        W50046  11.653   9.672  11.408
86279W        W50047   9.184  33.063  12.545
86280W        W50048  17.090  31.623   3.649
86281W        W50049  31.001   2.397  11.555
86282W        W50050  31.536   3.268  13.828
86283W        W50051  26.065  24.223   3.679
86284W        W50052  12.336  31.558  10.627
86285W        W50053  11.352  24.985  14.913
86286W        W50054  17.714  25.602   1.717
86287W        W50055  19.066  23.633   2.797
86288W        W50056  32.916   0.845  13.349
86289W        W50057  25.573  24.043  11.520
86290W        W50058  20.680  39.552   0.287
86291W        W50059  29.594  15.291   2.227
86292W        W50060  30.418  41.928   1.746
86293W        W50061  14.214  42.951   4.289
86294W        W50062  10.690   6.400  11.080
86295W        W50063  35.105  38.544  14.029
86296W        W50064  20.261  17.232   1.342
86297W        W50065   3.313   3.418   0.302
86298W        W50066  32.951  43.986   2.347
86299W        W50067  43.451  37.967   3.779
86300W        W50068   3.811  10.293  11.898
86301W        W50069  23.548  24.603   1.339
86302W        W50070  30.447  42.032  10.555
86303W        W50071   4.806  11.176  10.553
86304W        W50072  31.081   5.214  14.758
86305W        W50073   5.362  22.995   3.837
86306W        W50074  43.790  37.061   1.736
86307W        W50075   7.322   8.816   1.243
86308W        W50076  23.719  11.259  10.492
86309W        W50077   4.422  44.792   4.765
86310W        W50078  16.274  42.875   3.821
86311W        W50079  14.605  32.461   4.832
86312W        W50080  43.346  13.667   3.854
86313W        W50081   7.176   7.374  12.360
86314W        W50082  13.774  37.415   4.638
86315W        W50083  18.103   8.837   1.357
86316W        W50084   5.814  20.113  11.607
86317W        W50085   1.278  15.699  13.528
86318W        W50086   0.839  13.769  10.934
86319W        W50087  16.112   8.398  14.338
86320W        W50088  42.474  38.974   2.711
86321W        W50089  38.369  20.626  14.972
86322W        W50090  12.275  24.506  13.378
86323W        W50091   6.349  38.994   1.436
86324W        W50092  37.999  13.250  13.042
86325W        W50093   1.735  34.937  11.077
86326W        W50094  25.506  28.477   1.808
86327W        W50095  31.929  18.680   0.846
86328W        W50096   9.694  31.028   3.352
86329W        W50097  37.499  20.254  14.401
86330W        W50098  34.074  11.773   3.193
86331W        W50099   5.883  41.415   0.903
86332W        W50100  35.532  36.033   0.877
86333W        W50101  40.943  22.083   3.189
86334W        W50102  38.064  30.073  13.974
86335W        W50103   2.341   9.365   1.849
86336W        W50104   2.230  23.633  13.393
86337W        W50105  26.510  20.626  11.019
86338W        W50106  34.534  13.846  11.939
86339W        W50107   1.909  11.145   1.803
86340W        W50108  42.841  23.063   2.290
86341W        W50109  15.721  15.669   0.429
86342W        W50110   7.305  25.021  10.602
86343W        W50111  35.396  30.416   2.377
86344W        W50112   9.383  23.086  10.415
86345W        W50113   9.277  36.958   3.644
86346W        W50114   6.188   1.930  14.408
86347W        W50115   1.366  42.787  10.896
86348W        W50116  11.213  26.048  13.407
86349W        W50117  15.307  12.776   2.841
86350W        W50118   8.302  44.992  14.859
86351W        W50119  19.720  10.822   2.209
86352W        W50120  24.131  22.083   3.344
86353W        W50121   7.753  15.595  12.452
86354W        W50122  25.964   1.916   1.863
86355W        W50123  37.391  21.181   1.859
86356W        W50124  35.481   3.241   4.636
86357W        W50125  17.598  21.598   4.172
86358W        W50126  24.645  43.305  10.475
86359W        W50127  38.485  31.950   3.777
86360W        W50128  24.501   2.460  12.824
86361W        W50129   4.279  18.724   2.855
86362W        W50130  29.934   9.721   4.190
86363W        W50131  43.856  20.214  13.977
86364W        W50132  23.580  28.523   0.961
86365W        W50133  17.143   3.792   9.960
86366W        W50134  41.402   4.809  11.456
86367W        W50135  31.450  33.885  12.413
86368W        W50136  31.544  16.627   3.870
86369W        W50137  10.146  36.364  12.038
86370W        W50138  16.582  28.441   1.833
86371W        W50139  39.063  29.056  13.997
86372W        W50140  24.040  32.132   3.233
86373W        W50141  26.025  32.020   2.396
86374W        W50142  23.040  32.552   3.759
86375W        W50143   3.908  31.112  12.495
86376W        W50144  12.207  40.966   0.920
86377W        W50145  35.035   5.293  14.008
86378W        W50146  25.202  41.864   1.709
86379W        W50147  36.418  24.610   3.155
86380W        W50148  42.368   5.932  14.314
86381W        W50149  16.772  39.933  12.996
86382W        W50150  11.707   0.404  11.964
86383W        W50151  41.424   0.279  12.967
86384W        W50152  14.833  34.985   2.731
86385W        W50153  22.040   6.845  11.082
86386W        W50154  37.552  42.025  14.307
86387W        W50155  18.764  43.403   1.930
86388W        W50156  30.035  42.499  12.980
86389W        W50157  10.147  35.887   1.425
86390W        W50158  31.591   8.674  12.936
86391W        W50159  40.936  33.948   0.351
86392W        W50160  11.362  43.370   3.235
86393W        W50161   0.798  37.522  12.934
86394W        W50162   5.279   8.285   1.835
86395W        W50163  40.967   0.355   2.784
86396W        W50164  18.083  23.655   3.815
86397W        W50165  13.243  16.183  12.974
86398W        W50166  39.928  15.642  12.990
86399W        W50167  11.622  32.484   2.181
86400W        W50168  13.227  10.841  10.016
86401W        W50169  32.910   3.300   4.675
86402W        W50170  29.491  25.071   1.721
86403W        W50171   2.311  34.903   4.144
86404W        W50172  27.605  20.055   4.744
86405W        W50173   8.327  27.628  12.344
86406W        W50174  26.969  24.169  13.999
86407W        W50175  24.189   3.746  14.907
86408W        W50176  23.105  32.066   2.194
86409W        W50177  10.281   8.333   0.370
86410W        W50178  21.241  10.140   4.785
86411W        W50179  28.645  20.035  10.455
86412W        W50180  33.406  17.218   3.770
86413W        W50181  26.671   5.879  13.880
86414W        W50182  10.847  36.434  12.345
86415W        W50183   7.685   9.683  14.502
86416W        W50184  37.383  33.973  14.473
86417W        W50185  44.384  43.501  12.919
86418W        W50186  33.988  17.194   0.898
86419W        W50187   6.919  10.772  12.080
86420W        W50188  32.931  35.506   3.653
86421W        W50189  19.118  19.099   0.749
86422W        W50190   5.805   0.802   4.118
86423W        W50191  38.823  42.360  12.059
86424W        W50192  25.546  33.572   1.827
86425W        W50193   0.250   3.427  10.612
86426W        W50194  13.684  32.054   1.701
86427W        W50195  35.439  19.631   1.330
86428W        W50196  21.073   7.848  10.927
86429W        W50197  10.717  24.195   9.946
86430W        W50198  18.612  41.490   0.254
86431W        W50199  26.597  20.541   3.176
86432W        W50200   0.793   6.773  13.977
86433W        W50201   6.839  42.979   4.628
86434W        W50202  44.501   8.319   2.837
86435W        W50203  10.770   3.416  10.503
86436W        W50204  12.311  34.901  13.378
86437W        W50205  30.162  23.984  11.558
86438W        W50206  16.134   8.707  10.413
86439W        W50207  40.440  28.146  11.587
86440W        W50208   4.793  43.987  14.025
86441W        W50209  36.064  34.441  12.840
86442W        W50210   7.299  26.652  10.935
86443W        W50211  18.726  33.448  12.946
86444W        W50212  21.515  36.357  11.881
86445W        W50213  37.495  20.267  14.835
86446W        W50214  27.037  21.555  14.386
86447W        W50215  24.098  37.529   2.233
86448W        W50216  41.793  26.578  14.293
86449W        W50217  12.325  41.887  11.432
86450W        W50218  29.143   7.240  11.903
86451W        W50219  35.906   1.322   0.799
86452W        W50220  24.602   7.687  13.546
86453W        W50221   4.294  21.239   1.312
86454W        W50222  21.657  35.560   0.866
86455W        W50223  12.211  36.073   3.290
86456W        W50224  32.141  25.057  12.397
86457W        W50225  36.876   7.777  12.864
86458W        W50226  24.229  26.965   2.276
86459W        W50227  13.721  25.631   1.398
86460W        W50228   7.242  29.648  10.982
86461W        W50229  38.457  13.791  14.371
86462W        W50230  17.761  18.111   2.805
86463W        W50231  33.518   5.271  10.897
86464W        W50232  24.623  20.186  14.279
86465W        W50233  14.593  43.514  12.361
86466W        W50234  23.602  39.556   0.897
86467W        W50235  12.775   5.424   2.305
86468W        W50236  22.066  31.095  14.879
86469W        W50237   5.712  25.545  13.872
86470W        W50238  14.320  30.929   0.911
86471W        W50239  42.813  28.569  12.444
86472W        W50240  19.651  20.054  13.518
86473W        W50241  31.107  17.082  14.793
86474W        W50242  32.458  12.127   4.120
86475W        W50243  11.319  36.004  14.871
86476W        W50244  40.945  11.739   0.864
86477W        W50245  43.326  10.253  10.061
86478W        W50246  43.471  20.576  14.484
86479W        W50247  37.989   5.917   3.328
86480W        W50248  11.771  37.468   1.833
86481W        W50249   0.347  44.008   3.660
86482W        W50250   2.773  16.638  13.034
86483W        W50251  24.014  43.490   4.619
86484W        W50252  11.333   7.236   2.718
86485W        W50253  36.889  19.657  14.003
86486W        W50254  24.607   8.258  13.904
86487W        W50255  19.276   6.347   0.400
86488W        W50256  32.926  41.948   4.647
86489W        W50257  29.013  15.201   0.432
86490W        W50258  34.605   5.902  11.112
86491W        W50259   8.252   5.439   1.769
86492W        W50260  17.712  15.296   2.224
86493W        W50261  13.601  33.487  14.420
86494W        W50262  13.225  22.041   1.875
86495W        W50263  26.153  14.222  13.351
86496W        W50264  37.087  37.929   1.317
86497W        W50265   7.760  29.499  14.844
86498W        W50266  12.799  29.647   4.349
86499W        W50267  12.287  40.007   3.328
86500W        W50268  16.072  15.776   9.533
86501W        W50269  28.983  32.940   1.447
86502W        W50270  37.884  40.534   3.798
86503W        W50271  10.144  42.353   3.277
86504W        W50272  33.115  16.721  12.829
86505W        W50273   5.225   6.827  10.972
86506W        W50274  25.115  38.543  13.832
86507W        W50275  28.034  30.049   4.768
86508W        W50276  12.239  13.219   1.402
86509W        W50277  28.562   3.886  14.433
86510W        W50278  44.332  17.293  10.598
86511W        W50279  13.113  29.447   1.723
86512W        W50280  16.638   6.801  11.371
86513W        W50281   1.867  11.234  10.506
86514W        W50282   6.874  43.423   4.152
86515W        W50283  44.974  35.505  11.900
86516W        W50284  27.634   3.301   3.152
86517W        W50285  13.613  20.158  11.089
86518W        W50286   7.701  40.992   1.776
86519W        W50287   4.758  35.880   1.287
86520W        W50288   2.912   3.856   0.359
86521W        W50289  20.225  44.411  10.568
86522W        W50290  14.780  20.758   1.827
86523W        W50291  17.726  21.263   3.661
86524W        W50292  42.917   3.827  11.857
86525W        W50293  38.988  30.034  11.497
86526W        W50294  17.688  28.543  14.303
86527W        W50295  24.002   6.865   1.892
86528W        W50296   0.907  44.324   0.414
86529W        W50297  35.423  35.897   3.731
86530W        W50298   8.285   6.915  10.495
86531W        W50299   5.910   0.274   3.266
86532W        W50300  25.679   6.878   2.233
86533W        W50301  32.506  35.017  14.866
86534W        W50302   3.322  36.858  11.458
86535W        W50303   4.331  40.849   1.789
86536W        W50304  11.673  18.552  13.354
86537W        W50305  11.756  26.113   1.819
86538W        W50306   8.173  34.991  12.522
86539W        W50307  32.061   1.914  11.438
86540W        W50308  40.422  17.273   0.852
86541W        W50309   7.876  16.804  14.994
86542W        W50310  38.843  13.174   3.845
86543W        W50311  23.125  12.659   9.957
86544W        W50312  29.130  27.976   4.731
86545W        W50313  26.090  36.940  12.972
86546W        W50314  33.521  13.819  13.448
86547W        W50315  15.586  11.305  11.971
86548W        W50316   8.390  27.101  12.483
86549W        W50317  16.286  28.513  14.984
86550W        W50318  15.267  16.623   2.340
86551W        W50319  19.694  18.697   5.103
86552W        W50320  40.469  31.950  11.580
86553W        W50321  22.072  20.762  11.021
86554W        W50322   6.831  20.730   1.394
86555W        W50323  11.666  18.725  11.994
86556W        W50324   0.861  36.490   9.637
86557W        W50325  17.588  18.112   9.611
86558W        W50326  35.889   1.319  10.914
86559W        W50327   0.980  41.906  13.307
86560W        W50328  21.046  28.000  11.489
86561W        W50329   4.855  22.644  11.863
86562W        W50330  39.060  10.188  13.799
86563W        W50331   2.346  20.232   3.207
86564W        W50332   6.292   5.763  11.590
86565W        W50333  35.578   0.325  11.561
86566W        W50334  34.572  17.069  11.454
86567W        W50335  14.184  17.683   4.665
86568W        W50336   2.742  32.896   0.277
86569W        W50337   2.769  24.523   4.204
86570W        W50338  35.420  28.097  11.102
86571W        W50339  43.912  32.021   3.275
86572W        W50340  26.543  19.168  11.486
86573W        W50341  16.221  16.098   4.711
86574W        W50342  10.150   3.428   4.140
86575W        W50343  32.966  40.036   2.743
86576W        W50344  24.517  24.146  11.492
86577W        W50345  23.213  42.357  11.534
86578W        W50346  32.930  21.659  11.884
86579W        W50347  37.030  33.058   9.938
86580W        W50348  34.863   3.785   1.293
86581W        W50349  42.480  33.117  13.344
86582W        W50350   3.852  36.848   3.758
86583W        W50351  38.436  17.194   4.149
86584W        W50352  27.157  23.240   2.266
86585W        W50353   6.203  22.131   4.183
86586W        W50354   0.956  20.618  12.867
86587W        W50355  25.509  11.690  11.500
86588W        W50356  39.927  44.802  11.488
86589W        W50357  35.065  11.287   4.119
86590W        W50358  11.359  24.086   3.315
86591W        W50359  30.988   8.361   0.391
86592W        W50360   2.741  22.678   3.204
86593W        W50361  31.048   6.305   1.774
86594W        W50362  27.149  37.900  13.892
86595W        W50363  29.988   4.416  14.886
86596W        W50364   5.881  37.954  11.100
86597W        W50365  10.279  38.471  11.397
86598W        W50366   7.372  30.483  12.907
86599W        W50367  22.056  28.156   2.836
86600W        W50368  14.691   8.697  13.053
86601W        W50369  30.481  30.559   3.845
86602W        W50370  44.380   3.810  11.536
86603W        W50371   5.920  15.108   2.873
86604W        W50372  16.313  19.239  11.607
86605W        W50373   2.368  40.830   1.796
86606W        W50374   3.867  31.133   3.162
86607W        W50375  37.442  24.118   0.750
86608W        W50376  24.036  35.561  12.452
86609W        W50377   8.192  11.796  12.941
86610W        W50378  41.833  39.060  12.489
86611W        W50379   2.230  15.627   4.220
86612W        W50380  11.349   8.765   1.861
86613W        W50381  10.847   3.824  11.569
86614W        W50382  29.056  44.891   0.831
86615W        W50383  14.723  22.623   2.366
86616W        W50384  19.647  14.193  14.346
86617W        W50385  27.941  44.762  12.069
86618W        W50386   4.744  31.034  11.597
86619W        W50387  11.196  33.881   1.703
86620W        W50388  31.033  40.490  12.340
86621W        W50389   8.796  20.656   2.382
86622W        W50390  33.519  18.622   4.183
86623W        W50391  40.406   1.846   2.758
86624W        W50392  41.808  26.667   1.709
86625W        W50393   9.754   5.351   0.361
86626W        W50394  36.963  11.849   1.358
86627W        W50395  24.184  35.590   4.267
86628W        W50396  22.012   0.878   4.688
86629W        W50397  29.630  29.642   1.426
86630W        W50398   3.281   4.913  13.011
86631W        W50399  24.697  23.496   4.278
86632W        W50400  33.430  10.747  14.917
86633W        W50401  33.521  37.908  10.620
86634W        W50402  19.135  22.086  11.877
86635W        W50403  36.402  18.215  13.888
86636W        W50404   3.937  18.103   2.343
86637W        W50405  43.812  30.445  13.870
86638W        W50406   8.230  21.086  14.875
86639W        W50407  16.733   5.787  11.929
86640W        W50408   1.301  39.451  12.928
86641W        W50409  18.579   5.297   0.907
86642W        W50410  25.055  44.955  12.445
86643W        W50411  11.363  43.018  14.884
86644W        W50412  10.253  34.482  11.069
86645W        W50413  30.158  14.747   2.387
86646W        W50414  42.908  14.288   3.324
86647W        W50415   0.332   0.901  11.503
86648W        W50416   2.828   6.805  11.612
86649W        W50417  20.075   1.288   2.178
86650W        W50418  38.454  18.783   0.860
86651W        W50419   3.910  38.326   1.426
86652W        W50420  33.031   8.226  11.001
86653W        W50421  35.444  15.680   2.757
86654W        W50422  42.497  14.662   3.260
86655W        W50423   8.270  22.649  11.873
86656W        W50424  38.876  24.033  10.531
86657W        W50425  20.236  25.513   3.636
86658W        W50426  23.046  19.058  12.381
86659W        W50427   1.896  35.924  13.881
86660W        W50428  23.654  37.941   4.173
86661W        W50429   5.837  23.169  13.833
86662W        W50430  20.750  20.076  13.932
86663W        W50431  21.039  27.091   1.332
86664W        W50432  27.049  39.934  12.529
86665W        W50433  21.680  27.626  11.046
86666W        W50434  43.887  29.078  14.326
86667W        W50435  15.249  14.637   4.152
86668W        W50436  16.683  27.151   4.164
86669W        W50437  31.104  32.417  12.012
86670W        W50438  36.576  37.909   2.355
86671W        W50439  18.156  32.510  10.981
86672W        W50440  40.889  31.959  13.803
86673W        W50441  41.862  30.918   0.244
86674W        W50442  24.087  24.221   3.213
86675W        W50443   1.874  41.889  11.128
86676W        W50444   5.788  16.098  13.867
86677W        W50445   5.861   2.834  11.542
86678W        W50446  37.479  22.546   2.279
86679W        W50447  37.425   0.352  13.467
86680W        W50448   2.253  33.032   4.667
86681W        W50449   9.708  35.887   2.834
86682W        W50450  27.446  24.669  12.484
86683W        W50451   1.247  14.239  13.024
86684W        W50452  40.939  32.942   0.460
86685W        W50453  23.543  25.001  12.561
86686W        W50454  30.593  18.786  12.462
86687W        W50455   0.795  31.095  14.943
86688W        W50456  37.377   6.263  14.410
86689W        W50457   7.692  42.842  11.580
86690W        W50458  23.719  34.088  13.353
86691W        W50459   5.892  17.737   3.205
86692W        W50460  44.782   1.804   4.121
86693W        W50461  37.008   6.238  14.986
86694W        W50462  39.362  13.104  13.401
86695W        W50463  34.996  25.974  12.835
86696W        W50464  29.562  43.332  10.484
86697W        W50465  10.659  30.017   2.824
86698W        W50466  35.948  15.221   1.277
86699W        W50467  13.189   4.247  10.464
86700W        W50468   6.870  16.266   0.371
86701W        W50469  19.086   1.829  12.075
86702W        W50470  44.993  42.348   0.301
86703W        W50471  29.952   9.670   3.727
86704W        W50472   2.872  34.024   0.933
86705W        W50473  29.036   8.264  13.503
86706W        W50474  15.086   7.859   0.394
86707W        W50475  13.746  39.355  13.543
86708W        W50476  24.215   5.350   0.929
86709W        W50477   4.211  43.781   3.816
86710W        W50478  30.562  11.315   0.272
86711W        W50479  43.500  40.406   4.794
86712W        W50480   3.375   9.653  11.517
86713W        W50481  35.902  20.581  14.386
86714W        W50482   2.418   0.331   3.331
86715W        W50483  28.106  34.392   9.929
86716W        W50484  33.920   3.875   0.448
86717W        W50485  14.287  10.805  12.827
86718W        W50486  38.872  42.960   3.855
86719W        W50487  35.574  44.981   3.770
86720W        W50488  10.307  33.499   9.992
86721W        W50489  30.448   7.759   0.959
86722W        W50490  28.436  44.453  11.504
86723W        W50491  26.154  40.358   1.342
86724W        W50492   7.284  24.690  11.913
86725W        W50493  34.012  24.063  11.585
86726W        W50494  10.325  19.600  12.842
86727W        W50495  17.169  13.710   2.704
86728W        W50496   5.364   6.710   3.635
86729W        W50497  43.504  26.483   3.310
86730W        W50498  15.742  31.063  12.031
86731W        W50499  35.939  19.543  11.605
86732W        W50500  40.876  22.108   1.716
86733W        W50501  36.513   0.759  10.927
86734W        W50502  32.931  42.826   2.757
86735W        W50503  10.211  37.055   0.900
86736W        W50504  19.764  35.012   2.833
86737W        W50505  10.307   3.218  14.809
86738W        W50506  40.415  33.132  13.978
86739W        W50507   7.336  10.251   4.794
86740W        W50508  10.216  34.945   5.081
86741W        W50509   2.872  13.304  13.881
86742W        W50510  39.895  28.986  13.000
86743W        W50511  21.566  16.284  14.769
86744W        W50512  30.164  33.104   2.675
86745W        W50513  23.990   5.208  13.986
86746W        W50514   8.203  28.609   2.800
86747W        W50515  21.100  43.844   1.922
86748W        W50516   7.254  25.572  14.800
86749W        W50517  36.364  10.378   1.872
86750W        W50518  33.037  35.527   2.734
86751W        W50519  42.316  15.089   1.845
86752W        W50520   8.199  26.104  11.971
86753W        W50521  11.286  12.695   9.496
86754W        W50522  39.506   3.322  13.964
86755W        W50523  26.139  16.152  10.459
86756W        W50524  30.631   9.303  13.431
86757W        W50525  31.564   3.451  12.863
86758W        W50526  27.024  36.490   3.279
86759W        W50527  22.034  14.105   4.659
86760W        W50528  12.731  28.954  14.514
86761W        W50529  11.706  43.293   1.274
86762W        W50530  42.905  29.620  12.954
86763W        W50531  43.464  24.497   0.800
86764W        W50532  43.825   7.869  13.490
86765W        W50533  21.635  25.635  14.881
86766W        W50534  28.437  28.482  14.469
86767W        W50535   1.849  16.213  12.517
86768W        W50536  42.385  44.384  13.436
86769W        W50537   4.731  41.996  11.492
86770W        W50538  26.514  25.519  11.429
86771W        W50539   8.878   4.223   3.262
86772W        W50540  14.173  22.023  12.564
86773W        W50541  13.725   1.970  11.915
86774W        W50542  26.039  14.795   4.727
86775W        W50543  30.920   0.336   2.220
86776W        W50544   8.699  14.206  11.507
86777W        W50545   3.449   3.925   1.840
86778W        W50546  34.059  25.570   2.192
86779W        W50547  32.606   6.331   4.655
86780W        W50548   5.736  14.664  11.445
86781W        W50549  19.271  40.879   2.205
86782W        W50550  14.826  18.612  11.525
86783W        W50551  44.267  24.608   0.416
86784W        W50552  19.685  13.768  12.499
86785W        W50553  32.911  30.107  11.988
86786W        W50554  20.703   9.822   0.282
86787W        W50555  32.944  11.785  13.476
86788W        W50556  44.434  36.468   1.265
86789W        W50557   2.836  33.497   0.947
86790W        W50558  20.629  15.727   2.236
86791W        W50559  20.155  38.906   1.888
86792W        W50560  13.329  25.483   4.690
86793W        W50561  33.073  36.360  10.525
86794W        W50562  13.793  43.944  13.846
86795W        W50563  10.633   2.285   2.270
86796W        W50564  35.590  18.559  12.412
86797W        W50565   5.688  31.139  14.936
86798W        W50566  22.707  11.806   4.783
86799W        W50567  18.628  17.106   0.941
86800W        W50568  34.053  14.777   2.334
86801W        W50569   0.979  38.044  12.502
86802W        W50570  17.149  33.916   1.309
86803W        W50571  28.519   2.360  12.055
86804W        W50572   0.869  39.480   2.782
86805W        W50573  42.412  13.340  14.485
86806W        W50574  16.711  32.930  12.561
86807W        W50575  29.069  40.314  12.982
86808W        W50576  23.613  33.547   5.265
86809W        W50577  17.290  19.041  11.529
86810W        W50578  34.447  37.493  11.565
86811W        W50579  12.622   1.877  13.910
86812W        W50580  33.083  39.891  12.392
86813W        W50581  40.950  37.405   0.846
86814W        W50582  10.153   9.374  11.876
86815W        W50583  27.566   7.730  12.358
86816W        W50584   3.860  37.417   3.782
86817W        W50585  13.235   6.195  14.994
86818W        W50586  23.131  29.610   0.904
86819W        W50587   7.292  32.904  12.472
86820W        W50588  43.398  21.099  12.869
86821W        W50589  19.180  32.630   0.325
86822W        W50590  13.278  17.202   4.319
86823W        W50591   9.244  31.082  11.506
86824W        W50592  16.145  43.270  12.973
86825W        W50593  14.248   7.883   4.740
86826W        W50594  36.585  35.473   1.341
86827W        W50595   4.849  20.545  11.515
86828W        W50596   3.395  41.834   1.833
86829W        W50597  29.666  22.075   0.263
86830W        W50598  24.575   3.789  11.389
86831W        W50599  27.970   2.945  11.118
86832W        W50600  41.311   0.777   2.838
86833W        W50601  43.369  26.021  10.635
86834W        W50602  17.672   4.712   0.482
86835W        W50603  33.092   4.922  10.482
86836W        W50604  34.874   6.872  10.525
86837W        W50605   1.401  24.092   4.667
86838W        W50606  42.477  13.246   0.403
86839W        W50607   0.459   3.751  13.390
86840W        W50608  17.289  23.509   3.229
86841W        W50609   9.230  21.689   4.167
86842W        W50610  20.051   3.899   4.294
86843W        W50611  17.615  39.893  13.049
86844W        W50612  19.731  10.164   1.931
86845W        W50613  16.138  31.401  12.885
86846W        W50614  29.582  44.367   4.338
86847W        W50615  38.835   0.862  12.002
86848W        W50616  12.271  25.469  12.345
86849W        W50617  25.116   7.871   1.807
86850W        W50618  36.858  17.619   0.404
86851W        W50619   5.728   9.212  10.614
86852W        W50620  24.525  30.467   2.671
86853W        W50621   2.953   2.276   0.811
86854W        W50622  44.421   1.320  12.857
86855W        W50623  40.903   7.244  10.562
86856W        W50624  18.069  10.176  14.875
86857W        W50625  43.895  33.999   4.222
86858W        W50626  42.397   4.305   3.264
86859W        W50627  11.323  44.272   1.810
86860W        W50628   7.730   9.669   3.253
86861W        W50629  39.336   8.664   2.735
86862W        W50630  22.024  10.798   0.322
86863W        W50631  12.677  30.994   3.827
86864W        W50632  19.145  36.593   0.424
86865W        W50633  19.697  21.255  11.476
86866W        W50634  12.739  39.931   1.921
86867W        W50635  33.961   7.791   1.839
86868W        W50636   5.917  44.778  13.345
86869W        W50637  38.438  29.949  11.090
86870W        W50638  27.096  28.072  11.981
86871W        W50639  23.225   7.325  11.045
86872W        W50640  43.506  12.168  14.810
86873W        W50641  41.805  35.101  14.508
86874W        W50642   1.757  15.163   4.632
86875W        W50643  11.804  18.566  11.607
86876W        W50644  37.547   9.294   1.734
86877W        W50645  25.090  19.614  11.492
86878W        W50646   0.876  36.418  14.293
86879W        W50647  42.844  20.226   3.359
86880W        W50648   3.748  11.795  11.999
86881W        W50649  31.134  22.523   2.187
86882W        W50650  25.530   1.924   2.874
86883W        W50651   9.684  33.079   1.283
86884W        W50652   9.369  24.003   3.232
86885W        W50653  24.702  10.245   0.871
86886W        W50654  38.027  39.858  10.458
86887W        W50655  18.237   7.836   0.450
86888W        W50656  28.081  36.489   2.848
86889W        W50657  20.105  37.468   2.387
86890W        W50658  29.121  36.894   4.324
86891W        W50659  20.616  33.496  13.836
86892W        W50660   7.403  31.491  10.515
86893W        W50661  29.640  29.499  13.490
86894W        W50662  37.456  31.440  13.430
86895W        W50663   2.273  22.084   4.168
86896W        W50664  37.351  32.573   1.344
86897W        W50665  33.403  36.446   1.878
86898W        W50666  43.460  10.792  13.811
86899W        W50667   8.176  37.475  11.096
86900W        W50668  39.996  32.026  14.368
86901W        W50669  39.552   6.905   0.424
86902W        W50670  40.799  27.614   4.610
86903W        W50671  35.420  33.518  13.815
86904W        W50672  12.789  17.117  12.062
86905W        W50673  42.969  11.772  12.830
86906W        W50674  34.977  28.180  14.799
86907W        W50675  10.237   6.827  14.997
86908W        W50676  22.240   8.220   1.734
86909W        W50677  36.462  35.077   2.767
86910W        W50678  36.570  32.467  12.920
86911W        W50679   5.819   3.875  13.034
86912W        W50680  32.098  23.031   0.851
86913W        W50681  25.710  33.021  14.449
86914W        W50682  38.522  10.218  13.817
86915W        W50683  36.585  37.977  14.782
86916W        W50684  36.914  42.476   0.732
86917W        W50685   6.308   3.444   0.293
86918W        W50686   0.310  20.045  11.535
86919W        W50687  33.495  14.713  11.526
86920W        W50688  41.297   5.269   4.744
86921W        W50689   2.281  43.842  11.456
86922W        W50690  21.675  41.360   1.371
86923W        W50691  17.754  27.025  13.540
86924W        W50692   5.279  40.329  11.890
86925W        W50693  40.999  18.694   1.308
86926W        W50694   3.776  25.079   1.276
86927W        W50695   7.184  11.284   3.204
86928W        W50696   6.422  29.589  11.456
86929W        W50697  22.107   1.347  11.117
86930W        W50698  18.661  11.728  13.496
86931W        W50699   9.150   4.272  11.988
86932W        W50700  40.847  26.695   4.200
86933W        W50701  39.396  40.451   2.846
86934W        W50702   2.922  38.032  13.991
86935W        W50703  38.570  20.245   2.376
86936W        W50704   9.264  29.991   4.234
86937W        W50705  18.639  29.582  14.860
86938W        W50706  27.992   8.347  10.949
86939W        W50707  10.634  13.609   0.415
86940W        W50708  42.950  29.099   3.768
86941W        W50709  13.219  29.650  11.548
86942W        W50710   3.439  17.701  13.443
86943W        W50711  36.543  10.165   3.748
86944W        W50712  14.230  36.394  12.450
86945W        W50713  33.423  14.150   2.748
86946W        W50714  12.658  21.256   0.399
86947W        W50715  11.196  21.067   3.682
86948W        W50716  31.597  38.451  12.553
86949W        W50717  42.482   8.736  12.843
86950W        W50718   2.390   6.287   2.857
86951W        W50719  17.279  13.788  10.931
86952W        W50720  26.104  29.554  14.793
86953W        W50721  42.363  18.558  12.872
86954W        W50722  21.606  43.349   2.226
86955W        W50723   6.784  31.502  12.371
86956W        W50724   6.328  15.166   4.783
86957W        W50725  22.049  44.802  12.993
86958W        W50726   8.217  22.534   4.740
86959W        W50727  43.793   6.195   1.362
86960W        W50728  41.953   6.388  12.539
86961W        W50729  40.407  35.043   4.778
86962W        W50730  29.935  27.625  14.360
86963W        W50731  42.454  23.997  13.435
86964W        W50732   0.953   8.829   4.719
86965W        W50733  11.790  26.520   1.864
86966W        W50734  13.170   9.276   3.244
86967W        W50735   0.443   5.884   0.429
86968W        W50736  16.095  12.799   3.172
86969W        W50737  12.319  11.774   3.277
86970W        W50738   5.910  21.705  12.549
86971W        W50739  34.981  15.780  11.007
86972W        W50740   7.286   5.751  13.470
86973W        W50741  35.107   3.883   0.470
86974W        W50742  26.986  27.561   3.239
86975W        W50743  28.001   6.715   2.864
86976W        W50744  26.630  44.844   4.210
86977W        W50745  26.974  28.061  10.577
86978W        W50746  28.161  44.479   4.339
86979W        W50747  24.560  12.673  11.594
86980W        W50748  28.946  15.274  13.376
86981W        W50749   5.831  18.653  10.901
86982W        W50750  34.407  42.455   2.301
86983W        W50751  34.492  26.507  14.364
86984W        W50752  11.353  16.207   4.660
86985W        W50753  13.115  38.998   3.802
86986W        W50754  42.001   8.828  10.970
86987W        W50755   2.752  12.216   1.851
86988W        W50756  39.406  43.480  12.365
86989W        W50757  31.103  24.064   3.330
86990W        W50758   8.404  12.154   0.884
86991W        W50759   3.339   8.733  12.911
86992W        W50760  32.606  23.100   4.340
86993W        W50761  25.053  36.372  10.420
86994W        W50762  38.984   4.260  12.011
86995W        W50763  19.710  30.616  14.029
86996W        W50764  41.491  12.635   4.663
86997W        W50765   2.333  32.456   2.240
86998W        W50766  24.005  27.450  11.938
86999W        W50767   4.388  32.961   0.288
87000W        W50768  14.690  19.147   3.340
87001W        W50769  27.572  38.358  10.581
87002W        W50770  30.107  43.449   4.707
87003W        W50771  23.234  20.241   1.407
87004W        W50772  21.083  14.611   2.752
87005W        W50773  33.047  35.518   3.220
87006W        W50774  38.446  18.673  10.499
87007W        W50775  17.601  31.490  10.590
87008W        W50776  44.348   0.381  13.815
87009W        W50777  36.097  34.081  13.964
87010W        W50778  10.851   5.816  12.377
87011W        W50779  36.026  11.137   2.733
87012W        W50780  33.396  27.168   2.324
87013W        W50781  17.644  15.593  13.044
87014W        W50782   0.932  25.170   5.228
87015W        W50783  25.477  40.968  12.514
87016W        W50784  21.662  32.970   3.273
87017W        W50785  27.620  28.510  14.338
87018W        W50786  35.474   0.374   2.737
87019W        W50787   0.371   0.769  12.513
87020W        W50788  12.117  34.992  12.483
87021W        W50789   2.351  44.324  12.077
87022W        W50790  26.196  40.821  11.115
87023W        W50791  10.737  12.161   2.333
87024W        W50792  24.607   8.301  13.544
87025W        W50793  42.359  34.915  11.070
87026W        W50794  37.906   1.909   4.150
87027W        W50795  23.528  41.015  14.018
87028W        W50796  31.975   7.290   0.728
87029W        W50797  37.346   1.977  10.575
87030W        W50798  19.695   1.248   4.334
87031W        W50799  16.655  17.597   2.313
87032W        W50800  16.734  27.006  13.412
87033W        W50801  26.188   3.743  12.404
87034W        W50802  20.569  40.973   1.744
87035W        W50803  27.990  19.732  10.510
87036W        W50804  12.688  26.574   0.340
87037W        W50805  30.521  28.098  12.512
87038W        W50806  29.015  32.442  10.899
87039W        W50807  38.834  33.499  12.343
87040W        W50808  15.296  20.127   4.600
87041W        W50809  37.563  33.097   1.358
87042W        W50810  30.486  23.152  12.519
87043W        W50811  41.462  31.982  11.906
87044W        W50812  29.088  29.047  11.533
87045W        W50813  43.833  30.046  14.958
87046W        W50814  19.715  30.580   4.151
87047W        W50815  41.395  12.742   4.337
87048W        W50816   8.656  19.094  14.475
87049W        W50817  33.380  26.028   2.180
87050W        W50818  30.974   2.959  13.885
87051W        W50819   7.844  40.866   4.156
87052W        W50820  33.009  40.868   0.464
87053W        W50821   8.847  16.144  12.005
87054W        W50822  39.534  22.673  10.587
87055W        W50823  31.012  38.834  12.477
87056W        W50824  12.759   4.810  10.514
87057W        W50825   3.765  41.322   1.924
87058W        W50826   7.668  26.138  10.517
87059W        W50827  43.998   2.728   1.400
87060W        W50828  36.534  21.117   3.743
87061W        W50829  17.727   9.390  13.990
87062W        W50830  36.518  44.304   3.691
87063W        W50831  16.190  28.028  10.407
87064W        W50832  42.824  17.280   1.752
87065W        W50833  23.218  16.128  10.457
87066W        W50834   4.316  44.905   3.675
87067W        W50835  18.191  20.188  14.282
87068W        W50836  23.224   6.794   3.845
87069W        W50837  41.987  25.986  12.031
87070W        W50838  32.069  28.158   5.289
87071W        W50839  17.210  22.009  11.039
87072W        W50840  40.320  30.094   3.234
87073W        W50841   9.232  43.409   1.378
87074W        W50842   5.352  19.044  13.353
87075W        W50843  44.494  21.727   1.915
87076W        W50844   4.735  38.847  10.958
87077W        W50845  38.561   6.787  12.569
87078W        W50846  12.771  35.958  14.291
87079W        W50847  37.913   0.988   4.656
87080W        W50848   4.790  30.609  14.485
87081W        W50849  18.181  13.288  13.944
87082W        W50850  21.022   7.698  13.016
87083W        W50851  20.646  40.459   1.335
87084W        W50852  43.279  25.477   2.665
87085W        W50853  29.452  14.595   3.274
87086W        W50854  16.584  13.270   0.922
87087W        W50855  42.875   9.790  11.015
87088W        W50856  31.932  11.835   4.169
87089W        W50857  41.801  13.773  11.895
87090W        W50858   8.710  18.191  13.849
87091W        W50859  15.628  35.057  14.294
87092W        W50860  32.615  14.340   2.663
87093W        W50861  18.722  25.006  11.109
87094W        W50862  38.345  25.631  14.761
87095W        W50863  20.266   4.865  11.427
87096W        W50864  41.373   4.211  11.869
87097W        W50865   5.353   8.179   4.150
87098W        W50866   1.866   7.815  13.445
87099W        W50867  42.014  32.492  11.124
87100W        W50868  30.654   8.284  13.478
87101W        W50869  28.516  41.007   3.387
87102W        W50870  18.245  12.677  11.550
87103W        W50871  36.880  33.626   4.232
87104W        W50872  35.972  37.028  10.975
87105W        W50873  17.234  24.165  11.549
87106W        W50874   7.264  14.317   0.406
87107W        W50875   6.730   7.242  13.943
87108W        W50876   7.723  38.361  13.359
87109W        W50877  40.413  39.979  13.028
87110W        W50878  24.668   6.328  10.557
87111W        W50879  12.273  41.312   1.324
87112W        W50880  19.618  21.091   2.693
87113W        W50881   5.741  44.872  14.413
87114W        W50882  37.867  31.598  14.769
87115W        W50883  38.417   2.269  13.394
87116W        W50884  20.758  16.128   4.682
87117W        W50885  36.474  39.025  11.388
87118W        W50886  33.980  30.002   1.926
87119W        W50887  41.994  34.069  12.432
87120W        W50888   6.283  42.826  14.913
87121W        W50889  14.280  23.042   5.211
87122W        W50890  22.511  25.506   3.152
87123W        W50891   9.792  34.907   4.717
87124W        W50892  27.463  29.075  12.490
87125W        W50893   0.421   4.825  13.870
87126W        W50894   1.860  34.530   4.814
87127W        W50895  30.163  12.273  13.948
87128W        W50896  41.856  29.152   3.652
87129W        W50897  25.048  25.068   0.930
87130W        W50898  25.183   2.411  12.555
87131W        W50899   1.766  38.459   2.362
87132W        W50900  35.853  23.613   4.646
87133W        W50901   7.885  33.544   1.726
87134W        W50902   1.348  15.619   1.922
87135W        W50903  42.967  11.167  12.474
87136W        W50904   5.910  22.587  12.957
87137W        W50905  11.842  33.534   3.239
87138W        W50906  24.100  11.318   0.956
87139W        W50907   6.256  36.084   1.381
87140W        W50908  11.693  12.652   2.861
87141W        W50909  20.753  11.852  14.507
87142W        W50910  44.336  38.020   4.302
87143W        W50911  12.722  21.144   2.726
87144W        W50912  39.410  31.979  11.594
87145W        W50913   2.950   0.815   2.902
87146W        W50914  14.737  31.455  11.397
87147W        W50915  26.546  31.423   0.966
87148W        W50916  11.782  27.451   3.862
87149W        W50917   5.821  23.040  11.583
87150W        W50918  15.578   1.306  11.926
87151W        W50919  30.151   9.309   1.829
87152W        W50920   7.819   8.738  10.988
87153W        W50921  35.931  28.149   0.373
87154W        W50922  26.177  22.122   3.749
87155W        W50923   6.834  28.095  11.930
87156W        W50924  23.086  19.091   3.225
87157W        W50925  30.418  10.336   4.266
87158W        W50926  32.433  44.865   3.206
87159W        W50927   4.866  17.216   3.825
87160W        W50928  29.031  35.409   0.412
87161W        W50929  24.181  44.269   0.325
87162W        W50930  26.629  38.898  11.578
87163W        W50931   3.243  10.307   2.680
87164W        W50932  18.065   2.432  11.859
87165W        W50933  29.029   9.194  13.948
87166W        W50934   6.379  31.644   0.327
87167W        W50935  22.514  34.562  12.072
87168W        W50936  38.548  22.732   0.829
87169W        W50937   7.179  43.901  10.499
87170W        W50938   9.844  20.147  14.474
87171W        W50939   3.407  40.328   2.384
87172W        W50940  23.230  43.786   3.751
87173W        W50941  33.025  31.511  14.340
87174W        W50942  25.581  28.084   4.272
87175W        W50943  22.011  13.700   1.872
87176W        W50944   0.896  23.158   0.779
87177W        W50945  19.244  35.561  13.336
87178W        W50946  29.509  25.688   4.146
87179W        W50947   5.710  31.922   0.402
87180W        W50948  40.963   5.292   2.701
87181W        W50949   8.306  31.997  12.059
87182W        W50950  21.141   4.750  13.440
87183W        W50951   5.748  29.616  11.597
87184W        W50952   5.742  42.292  12.570
87185W        W50953  37.419  33.421   3.820
87186W        W50954   8.391   8.767  13.463
87187W        W50955  10.317  41.934  13.058
87188W        W50956  16.117  24.168   1.786
87189W        W50957  39.392  11.745   0.833
87190W        W50958  29.136  44.809  11.463
87191W        W50959  12.200  23.519   3.378
87192W        W50960  15.225   8.842   2.832
87193W        W50961  42.813  29.609  11.403
87194W        W50962   7.776  25.027   2.413
87195W        W50963  31.618   9.662  12.826
87196W        W50964  21.072  31.503   4.135
87197W        W50965  12.163  44.766   0.820
87198W        W50966   6.362  14.754  11.858
87199W        W50967   0.817  27.091  12.439
87200W        W50968  13.153  21.067   3.829
87201W        W50969  17.240  29.990  14.823
87202W        W50970  17.090  33.904  13.475
87203W        W50971   9.244  37.845  11.919
87204W        W50972   7.367  36.348  13.868
87205W        W50973  27.621   0.279   3.780
87206W        W50974  13.231  32.624   4.746
87207W        W50975   6.259  26.087   2.727
87208W        W50976  25.557   9.831   3.702
87209W        W50977  23.510   0.270   4.233
87210W        W50978  26.109  21.210   0.475
87211W        W50979  28.645  11.282  14.348
87212W        W50980  28.466   6.862  14.374
87213W        W50981  29.020   3.419  11.103
87214W        W50982   0.767   1.748  11.426
87215W        W50983  25.594   5.880   3.202
87216W        W50984  31.621  33.587   1.908
87217W        W50985  19.098  33.459  12.452
87218W        W50986  17.611  41.873   4.205
87219W        W50987   3.821  41.953   1.833
87220W        W50988  39.528  11.136  11.443
87221W        W50989  10.793  35.575   4.317
87222W        W50990  40.320  24.176  12.538
87223W        W50991   2.908   0.925  14.925
87224W        W50992  43.383  34.057   1.721
87225W        W50993  39.039   4.271  11.063
87226W        W50994  30.445  40.490  12.461
87227W        W50995  17.600  38.508   4.764
87228W        W50996  34.877   6.780  12.346
87229W        W50997  39.515   5.923  13.462
87230W        W50998   3.409  17.722  14.319
87231W        W50999  34.518   0.935   1.814
87232W        W51000  10.751  11.230   1.434
87233W        W51001  33.077  13.110   4.294
87234W        W51002  44.437  12.733  13.458
87235W        W51003  40.947  17.587   2.264
87236W        W51004   5.379  43.348   2.710
87237W        W51005  13.660  17.730  13.383
87238W        W51006  13.336   1.377  13.449
87239W        W51007   4.727  16.237  11.410
87240W        W51008  23.553  15.282   3.723
87241W        W51009  12.258  24.181   3.292
87242W        W51010  17.780   7.680  13.423
87243W        W51011  19.273   9.341   0.385
87244W        W51012  21.732   4.880  13.953
87245W        W51013  14.263  19.736   3.837
87246W        W51014  30.633  40.881  11.504
87247W        W51015  28.951   3.230   4.828
87248W        W51016  43.395  41.982   0.888
87249W        W51017  34.568   5.263  12.834
87250W        W51018   8.307  26.179   1.341
87251W        W51019   8.891  13.288  12.976
87252W        W51020  25.649  13.208   0.471
87253W        W51021  30.086   4.369  11.027
87254W        W51022  22.646  20.084  13.324
87255W        W51023  37.935  15.778   2.834
87256W        W51024  19.768  42.023  11.588
87257W        W51025  33.908  15.686   3.849
87258W        W51026  25.653  37.500   0.438
87259W        W51027  27.624  34.592  11.974
87260W        W51028   1.754   8.284   2.322
87261W        W51029  36.074  22.619  14.402
87262W        W51030  39.886  29.953   4.342
87263W        W51031  23.231  21.710   0.951
87264W        W51032   7.284  27.196  12.471
87265W        W51033   8.401  25.213   3.722
87266W        W51034  25.686  17.602  14.907
87267W        W51035  44.315   4.361  14.360
87268W        W51036  25.614  37.015   3.840
87269W        W51037   8.834  29.517  12.497
87270W        W51038  40.857   2.300   3.339
87271W        W51039  21.650  15.239  11.436
87272W        W51040  26.167  34.402  10.633
87273W        W51041  17.746  41.399  11.596
87274W        W51042   3.711  22.059   3.334
87275W        W51043  12.615  26.526   2.219
87276W        W51044  10.673   6.398  12.388
87277W        W51045  11.334  20.266  13.913
87278W        W51046  22.658  43.839  11.390
87279W        W51047  14.127  32.569   1.393
87280W        W51048  30.967  10.286  11.455
87281W        W51049  27.625  14.645  12.072
87282W        W51050  33.426  38.976   2.240
87283W        W51051  14.809   5.757  14.819
87284W        W51052   5.432  39.847   2.901
87285W        W51053  19.632  10.287   2.680
87286W        W51054  22.125  10.285  13.977
87287W        W51055  22.092  19.566  13.544
87288W        W51056  19.699  38.033  14.462
87289W        W51057  30.636  10.869  11.410
87290W        W51058  10.238  33.445  14.935
87291W        W51059  30.458   0.256   3.207
87292W        W51060   3.394  22.210   4.610
87293W        W51061  19.083  33.903   1.903
87294W        W51062  37.992  30.087   4.247
87295W        W51063   1.446   8.301  12.575
87296W        W51064  22.740  41.945  12.468
87297W        W51065  13.787  42.999   0.846
87298W        W51066  15.671  13.245   2.336
87299W        W51067  28.596  35.067   4.133
87300W        W51068  37.405  18.278   2.789
87301W        W51069  42.492  44.456  12.447
87302W        W51070   6.822   5.807   3.816
87303W        W51071  40.960  17.307  14.323
87304W        W51072  23.645  36.522   4.223
87305W        W51073  36.949  22.192   3.702
87306W        W51074  18.698  13.214   3.233
87307W        W51075  39.963  12.772   4.711
87308W        W51076  22.632   5.749  14.378
87309W        W51077  24.718  13.116  14.430
87310W        W51078   8.202  24.686  13.504
87311W        W51079  18.743  34.584  14.784
87312W        W51080  37.996   1.328  12.880
87313W        W51081  34.473  16.772  10.998
87314W        W51082   3.801  40.801  10.918
87315W        W51083  21.214  27.983   2.365
87316W        W51084  25.051  29.577   1.744
87317W        W51085  36.449  17.635   2.809
87318W        W51086   6.841  30.465  14.843
87319W        W51087  22.706  28.658   2.383
87320W        W51088  42.409  44.410   1.794
87321W        W51089  19.227  20.145  11.502
87322W        W51090  36.459  27.034  11.538
87323W        W51091  14.340  19.583  13.501
87324W        W51092   8.349  20.717   4.330
87325W        W51093  10.306  28.636  12.381
87326W        W51094   5.269   5.282   3.152
87327W        W51095  36.036   9.159   4.641
87328W        W51096  31.029  40.320  14.987
87329W        W51097  19.610   3.901  11.039
87330W        W51098  24.644  18.156   2.329
87331W        W51099  10.751  26.640  11.524
87332W        W51100  44.458   4.323  11.877
87333W        W51101  20.241   9.697   4.620
87334W        W51102  31.088  36.553  10.477
87335W        W51103  43.908  21.229  14.996
87336W        W51104  39.930   1.814   3.297
87337W        W51105  43.964  38.997   2.393
87338W        W51106  36.071   7.281  12.902
87339W        W51107  44.499  30.547   4.600
87340W        W51108   3.400  38.907  12.491
87341W        W51109  33.901  42.399  11.431
87342W        W51110  26.156  27.124  14.380
87343W        W51111  21.235  42.322   0.384
87344W        W51112   2.300   6.407   4.145
87345W        W51113  29.124  33.592  14.918
87346W        W51114  26.069  22.092   4.820
87347W        W51115  12.840  23.543   4.663
87348W        W51116  14.831  23.157  14.789
87349W        W51117   0.301  43.910   2.855
87350W        W51118   4.334  41.373   0.824
87351W        W51119  32.618  10.872  10.946
87352W        W51120  24.535  39.871  10.452
87353W        W51121  30.474  23.596   3.822
87354W        W51122  11.818  44.952  11.001
87355W        W51123  24.159  26.637  10.476
87356W        W51124  17.688  30.424  13.052
87357W        W51125   6.214  24.510  14.795
87358W        W51126  28.019   2.333   2.210
87359W        W51127   4.428  30.514   3.665
87360W        W51128   2.750  37.499   2.203
87361W        W51129  30.946  14.709  11.920
87362W        W51130  23.989   9.155  13.425
87363W        W51131   6.253  20.190  14.348
87364W        W51132  39.512  16.633   0.774
87365W        W51133  33.909  27.084  14.420
87366W        W51134  10.257  23.136  10.452
87367W        W51135  36.353  28.583  13.002
87368W        W51136   5.897  14.766  12.030
87369W        W51137  44.262  24.125   0.877
87370W        W51138  41.319   0.955  13.457
87371W        W51139   5.846  11.628   1.300
87372W        W51140   1.305  21.683   3.751
87373W        W51141  10.174  43.984   0.955
87374W        W51142  15.296  43.424   2.881
87375W        W51143  21.673  38.375  12.910
87376W        W51144  30.495  17.709   2.415
87377W        W51145  24.031  42.329   0.470
87378W        W51146  22.148  16.298  14.015
87379W        W51147  22.221  31.544   0.376
87380W        W51148  27.036  14.784   0.390
87381W        W51149  19.173  44.483   4.197
87382W        W51150  13.158  35.055   5.088
87383W        W51151  39.477  35.504   3.350
87384W        W51152   4.272   5.237   4.781
87385W        W51153  22.675  32.537   1.703
87386W        W51154  24.195  27.560  11.480
87387W        W51155  30.507  16.667  11.931
87388W        W51156   5.311  21.686   2.417
87389W        W51157   5.850  15.788   2.324
87390W        W51158   9.369  13.743  12.081
87391W        W51159   6.301  38.953  12.532
87392W        W51160   7.288  23.986   2.236
87393W        W51161  40.397  14.338   0.330
87394W        W51162  21.028  24.170  10.902
87395W        W51163  23.646  10.287   4.331
87396W        W51164   8.354  29.021  12.030
87397W        W51165   2.405  43.449   0.431
87398W        W51166  39.357  16.229  11.010
87399W        W51167  21.511  23.122  14.884
87400W        W51168   5.731  19.122   3.217
87401W        W51169  17.219   4.924   4.324
87402W        W51170  19.685  16.786  12.936
87403W        W51171  19.538   7.402  14.508
87404W        W51172  16.759   9.869   4.292
87405W        W51173  12.204  22.557  12.477
87406W        W51174  40.377  44.947   4.771
87407W        W51175  35.579  12.217  11.611
87408W        W51176  12.228   0.381   2.783
87409W        W51177  19.770  34.931  13.326
87410W        W51178  17.568  23.579  12.979
87411W        W51179   3.822  26.117  11.436
87412W        W51180  41.925  36.918   4.838
87413W        W51181  38.957  40.318   0.459
87414W        W51182  41.833   2.472   4.806
87415W        W51183  29.583  43.286  11.921
87416W        W51184  36.977  29.935   4.778
87417W        W51185   0.943  10.704  12.841
87418W        W51186   7.244  13.128  13.500
87419W        W51187  21.183  17.300  12.089
87420W        W51188   3.721  28.521   4.828
87421W        W51189  21.593  28.672  12.512
87422W        W51190  41.935  37.842  12.487
87423W        W51191  18.647  31.151  14.876
87424W        W51192   1.392  15.685   2.411
87425W        W51193  16.749   7.817  13.386
87426W        W51194  11.866   8.258  10.903
87427W        W51195  41.529  30.544  10.517
87428W        W51196  16.612  27.580   3.646
87429W        W51197   2.784  33.607   0.443
87430W        W51198  33.507  34.530   4.653
87431W        W51199   0.356  16.117  14.025
87432W        W51200  31.432  20.750  14.404
87433W        W51201  13.172  31.148  13.422
87434W        W51202   5.774   3.341   4.835
87435W        W51203  19.132  11.792   0.262
87436W        W51204   1.245  22.541   4.751
87437W        W51205  34.985   6.896  14.912
87438W        W51206  25.024  36.378   1.787
87439W        W51207  32.110  23.730  14.361
87440W        W51208  27.157  35.986  12.979
87441W        W51209  40.519  27.186  12.051
87442W        W51210  39.917  40.985   2.332
87443W        W51211  26.095   9.182  10.941
87444W        W51212  21.522  44.887  12.855
87445W        W51213  34.374   9.772   1.420
87446W        W51214   3.901   4.941  11.862
87447W        W51215  13.621  21.524  12.540
87448W        W51216  41.001   3.379   1.285
87449W        W51217  26.650  31.420   2.384
87450W        W51218  16.197  44.763  10.970
87451W        W51219  22.529   8.787  14.407
87452W        W51220   6.904  41.966   4.634
87453W        W51221  41.358  21.755  11.927
87454W        W51222  41.916  35.970   3.827
87455W        W51223   9.847  11.668  11.901
87456W        W51224  26.107  16.785   4.269
87457W        W51225  33.557  30.154  13.817
87458W        W51226  20.051  15.153   2.189
87459W        W51227  38.022  29.137   4.323
87460W        W51228  39.062  36.088  10.484
87461W        W51229  21.091  11.800   0.351
87462W        W51230  34.107   4.324  12.372
87463W        W51231  42.791  28.596   0.266
87464W        W51232  41.303  10.194  12.452
87465W        W51233  27.522   6.220  11.498
87466W        W51234  13.670  27.562  13.939
87467W        W51235  32.922  21.715   0.273
87468W        W51236  19.069  18.636   2.250
87469W        W51237  43.327  20.152   0.832
87470W        W51238   7.811  32.017   2.254
87471W        W51239  38.022   1.814  10.913
87472W        W51240  22.214  17.669  14.844
87473W        W51241  20.542  35.603   9.534
87474W        W51242  13.637   3.828  13.820
87475W        W51243  25.001  33.035   4.634
87476W        W51244  11.683  18.199  10.041
87477W        W51245  31.007  21.749  12.057
87478W        W51246  43.879  23.585   4.139
87479W        W51247  29.938  43.331  13.428
87480W        W51248  44.848  20.742  11.550
87481W        W51249  24.562  24.187  13.004
87482W        W51250  42.327   8.663  13.980
87483W        W51251  29.457  16.145   2.330
87484W        W51252  33.112  35.502  11.563
87485W        W51253   3.269  13.782  14.491
87486W        W51254  35.859  17.707   2.391
87487W        W51255  31.964  24.188  14.349
87488W        W51256  29.937  11.356  14.979
87489W        W51257   0.414  29.106  13.447
87490W        W51258  11.749  24.493   2.795
87491W        W51259  26.504  38.332   4.346
87492W        W51260  39.319   7.718   3.812
87493W        W51261  36.391   5.932  11.425
87494W        W51262  22.057  26.468   0.274
87495W        W51263  13.134  18.284  10.507
87496W        W51264  29.041  17.575  12.036
87497W        W51265  32.456  33.483  12.441
87498W        W51266  38.996  21.674   0.271
87499W        W51267   3.849  39.028  12.364
87500W        W51268   7.775   4.204   0.420
87501W        W51269   7.789  43.004   3.365
87502W        W51270  12.644   0.454   3.782
87503W        W51271  35.568   5.248  14.311
87504W        W51272  43.271  42.363  12.462
87505W        W51273  22.604  23.670  12.849
87506W        W51274  41.379  35.872   3.803
87507W        W51275  16.735  41.855  13.528
87508W        W51276   9.184  43.958   1.275
87509W        W51277  14.700  24.602  12.550
87510W        W51278  27.614  34.472   2.327
87511W        W51279  30.151  20.209  11.415
87512W        W51280  21.575  41.478  14.904
87513W        W51281  16.097  31.434   0.821
87514W        W51282  43.505  23.224  13.321
87515W        W51283   2.424  10.213  10.591
87516W        W51284   2.863  30.482   4.253
87517W        W51285  12.349  20.666  13.976
87518W        W51286  31.587  38.527   0.451
87519W        W51287  39.457   6.836   0.768
87520W        W51288  43.920  16.171  13.990
87521W        W51289  12.293  12.312   0.326
87522W        W51290  43.831  39.987  11.044
87523W        W51291  40.951  38.926  14.759
87524W        W51292  34.531   8.193   3.664
87525W        W51293   2.908  28.165   0.778
87526W        W51294   1.874  44.318   2.681
87527W        W51295  28.114  14.167  14.430
87528W        W51296  21.610  12.121  13.835
87529W        W51297   3.741  21.546   1.441
87530W        W51298  30.548  12.304  12.843
87531W        W51299  15.106   8.777  13.408
87532W        W51300   3.744  36.011  14.763
87533W        W51301  17.076   0.482  13.522
87534W        W51302  21.190   3.309   1.834
87535W        W51303   4.916   6.263  12.494
87536W        W51304  11.367  19.099  14.829
87537W        W51305   3.909  40.998  12.464
87538W        W51306  12.205   0.781   4.764
87539W        W51307   1.934  20.232  14.820
87540W        W51308   3.292  30.568   2.689
87541W        W51309   0.391  31.001   1.885
87542W        W51310   6.263  40.874  14.964
87543W        W51311  27.105   0.820  10.452
87544W        W51312  31.098  29.441   2.833
87545W        W51313   2.798   7.416   2.403
87546W        W51314  23.541  34.416  14.333
87547W        W51315  38.029   6.295  11.449
87548W        W51316  22.504  12.242   9.668
87549W        W51317  31.603  31.963   2.302
87550W        W51318  43.459  26.199   1.722
87551W        W51319  23.237   8.267   2.196
87552W        W51320  30.146  24.099   2.331
87553W        W51321  21.703   1.774   1.421
87554W        W51322  31.421  38.067   3.864
87555W        W51323  24.204   2.458   4.115
87556W        W51324  28.574  15.739  10.944
87557W        W51325   4.238  15.585  12.999
87558W        W51326  44.829  42.346  12.382
87559W        W51327  29.980  43.768  11.923
87560W        W51328  37.989   1.315   2.252
87561W        W51329  20.269  17.270   2.407
87562W        W51330   4.314  30.503   0.786
87563W        W51331  10.197  21.079  10.944
87564W        W51332  40.354  29.940  12.036
87565W        W51333  31.410  43.309  10.445
87566W        W51334  20.604   2.898  13.875
87567W        W51335  36.002  11.362   2.378
87568W        W51336   0.488  18.629   3.240
87569W        W51337  43.894  23.230   1.806
87570W        W51338  12.645  16.748   2.902
87571W        W51339   1.883   6.787  15.000
87572W        W51340  34.385  33.970  12.482
87573W        W51341   7.708  19.563   0.416
87574W        W51342  15.297  21.735   0.869
87575W        W51343  31.065  40.463  10.619
87576W        W51344  12.648  33.021  14.314
87577W        W51345  27.076  19.160  10.528
87578W        W51346  13.617  33.589   1.762
87579W        W51347  34.566  24.545  14.828
87580W        W51348  23.113  25.677  12.534
87581W        W51349  26.050  38.474  11.371
87582W        W51350  16.104  41.422  11.395
87583W        W51351   3.295   9.164   1.301
87584W        W51352  43.917  36.420  12.020
87585W        W51353   5.246   0.779  13.405
87586W        W51354  30.483  24.646  14.023
87587W        W51355  25.587  33.097   5.162
87588W        W51356  22.568  14.333  10.915
87589W        W51357  16.142  28.577  13.358
87590W        W51358   3.259  42.489  12.475
87591W        W51359   7.295  25.127  12.032
87592W        W51360  43.318   6.813   3.863
87593W        W51361  24.641   2.804   4.701
87594W        W51362  11.173  19.734  14.782
87595W        W51363   4.875   7.810  10.444
87596W        W51364  12.171  31.617   0.819
87597W        W51365  28.462  31.502   4.307
87598W        W51366  13.207  28.112   3.368
87599W        W51367  39.432  17.683  10.620
87600W        W51368  33.495   5.785   0.399
87601W        W51369  10.716   1.294   2.822
87602W        W51370  22.523  34.932  12.569
87603W        W51371  10.159   7.732   3.240
87604W        W51372  31.076  17.731   4.272
87605W        W51373  21.026   0.268   3.684
87606W        W51374  25.091  10.724   9.942
87607W        W51375  21.728   5.383   1.792
87608W        W51376  34.973  35.505  13.847
87609W        W51377  31.980  29.431   4.178
87610W        W51378  34.068   5.906  11.465
87611W        W51379  24.136  38.533  11.105
87612W        W51380  43.890  18.688   4.724
87613W        W51381  39.872  23.646   1.800
87614W        W51382  39.324  14.118  13.516
87615W        W51383   8.703  32.559   0.432
87616W        W51384  34.421  28.989   0.368
87617W        W51385   4.711  33.426  11.884
87618W        W51386  34.425  43.901  10.541
87619W        W51387  23.010  15.605   1.896
87620W        W51388  18.697  42.469   0.334
87621W        W51389  20.686  22.089  13.975
87622W        W51390  41.415   2.857   0.331
87623W        W51391   2.929  40.870   1.397
87624W        W51392  29.095   9.860  13.398
87625W        W51393  37.935  20.134  14.821
87626W        W51394  12.845  12.652  11.455
87627W        W51395  33.081  43.914  11.455
87628W        W51396  15.306  42.971   0.348
87629W        W51397  17.769   0.788   4.721
87630W        W51398  33.499  32.498  13.821
87631W        W51399   0.339  35.982   2.394
87632W        W51400  21.739  18.084  13.866
87633W        W51401  36.533  10.302   4.749
87634W        W51402  42.883  29.656  11.089
87635W        W51403  32.995   9.336   2.782
87636W        W51404  24.493  11.667  10.956
87637W        W51405  22.181  29.476   0.763
87638W        W51406  10.693  44.863  14.826
87639W        W51407   8.812  22.631   2.198
87640W        W51408  16.647  40.379   0.799
87641W        W51409  18.250  17.210   0.802
87642W        W51410  13.820  10.200  13.821
87643W        W51411  20.104  22.008   2.726
87644W        W51412  37.511  11.359   3.660
87645W        W51413  19.057  16.138   4.274
87646W        W51414  16.316   6.343  11.881
87647W        W51415  42.296   0.389  12.555
87648W        W51416   1.357   4.335   0.867
87649W        W51417  28.134  33.493  12.072
87650W        W51418  20.713  29.484  10.618
87651W        W51419   3.271   4.254   2.749
87652W        W51420   7.200   7.193  11.004
87653W        W51421   2.861   1.361  13.546
87654W        W51422  26.494   0.911   1.421
87655W        W51423  42.284   2.272   1.797
87656W        W51424   7.360  32.025  12.399
87657W        W51425   4.395   4.325   3.844
87658W        W51426  28.036   1.433   4.160
87659W        W51427  28.101   6.302  12.919
87660W        W51428  28.524  10.218  10.640
87661W        W51429  43.980  43.834   2.297
87662W        W51430  12.199  33.527  10.039
87663W        W51431  18.088  40.393   0.410
87664W        W51432  16.601  40.948  14.339
87665W        W51433  27.492  12.650  14.414
87666W        W51434  25.059  40.440  11.400
87667W        W51435  28.103  38.340  14.387
87668W        W51436  28.531   0.356   2.319
87669W        W51437  28.561  38.054   3.329
87670W        W51438  36.003  29.650  14.811
87671W        W51439  27.034  30.511  12.024
87672W        W51440  41.496  33.504   0.401
87673W        W51441  16.612  17.147  14.822
87674W        W51442  37.503  44.498  12.058
87675W        W51443  18.060  10.212   4.599
87676W        W51444  38.008  14.605  10.954
87677W        W51445  15.141  17.155  13.797
87678W        W51446  13.287  41.451   1.323
87679W        W51447  23.026  10.699   1.849
87680W        W51448  26.197  44.791   1.284
87681W        W51449  22.207  22.008  10.504
87682W        W51450  35.380  33.897   2.182
87683W        W51451   6.829  33.413  10.941
87684W        W51452  37.896   3.440   2.737
87685W        W51453   7.721  25.135  10.458
87686W        W51454   6.892  33.901   1.918
87687W        W51455  24.979  32.480   5.185
87688W        W51456  41.490  23.110  10.440
87689W        W51457  35.575  36.845   3.793
87690W        W51458   3.348   7.786   1.223
87691W        W51459  41.030  24.202  13.958
87692W        W51460  33.002  15.711   1.761
87693W        W51461  20.555  23.631  12.045
87694W        W51462   0.785   3.842  12.391
87695W        W51463  16.101  11.844   1.761
87696W        W51464  21.713   3.414   4.266
87697W        W51465   7.190  37.510   4.209
87698W        W51466  29.102  21.218  12.833
87699W        W51467  20.102  41.919   0.466
87700W        W51468  12.228   1.881   2.371
87701W        W51469  14.668   9.667   0.353
87702W        W51470  43.414  31.512   0.845
87703W        W51471  32.498  22.626   2.377
87704W        W51472  40.968  26.010   0.308
87705W        W51473  33.107   4.785   0.789
87706W        W51474  38.450  11.862  12.532
87707W        W51475  23.734  38.058   0.960
87708W        W51476  31.464  12.783  11.410
87709W        W51477  22.557  34.411  11.002
87710W        W51478  35.506  14.250   3.331
87711W        W51479  24.208  16.204  11.875
87712W        W51480   6.695  17.798  14.507
87713W        W51481  25.164  39.316   2.720
87714W        W51482  43.989   9.734  10.481
87715W        W51483  26.098  18.630   3.835
87716W        W51484  17.169  43.493  11.571
87717W        W51485  30.164  38.450  13.464
87718W        W51486   4.235   0.797  12.563
87719W        W51487  39.553  34.975   3.825
87720W        W51488   6.909  16.132   3.693
87721W        W51489  19.104  22.009  12.867
87722W        W51490   5.224  28.613  13.859
87723W        W51491   2.730  12.628   3.815
87724W        W51492  40.390  24.995   3.776
87725W        W51493  14.232  20.587   0.844
87726W        W51494  34.037  15.135  13.927
87727W        W51495  24.160  10.679   0.828
87728W        W51496  10.661   5.257  13.048
87729W        W51497  44.826  21.222   3.325
87730W        W51498  20.030  17.100  14.971
87731W        W51499  12.267  25.481   3.264
87732W        W51500  22.537   3.449  11.992
87733W        W51501  31.976  34.589  14.514
87734W        W51502   9.160  11.719  14.947
87735W        W51503  19.757   9.193   4.694
87736W        W51504  28.656  26.545   0.892
87737W        W51505  31.075  20.538   4.666
87738W        W51506  18.595  40.441   0.420
87739W        W51507  13.234   6.269   2.857
87740W        W51508  10.375  16.753   3.232
87741W        W51509  36.359  13.687  14.980
87742W        W51510   9.793  12.708  12.487
87743W        W51511   5.795  35.418   2.791
87744W        W51512   2.757  25.969   4.139
87745W        W51513   0.477   2.462  13.059
87746W        W51514  18.749  15.090   3.842
87747W        W51515  16.617  39.829  12.398
87748W        W51516  34.081  29.654   4.123
87749W        W51517  42.526  26.156   0.743
87750W        W51518  42.027  38.338  14.931
87751W        W51519  34.558  40.855  12.421
87752W        W51520   7.190  42.900  12.089
87753W        W51521  15.177  44.966  14.796
87754W        W51522  15.811   2.348   3.342
87755W        W51523  26.140  38.875  12.383
87756W        W51524  14.599  21.193  14.360
87757W        W51525  42.938   0.756   3.159
87758W        W51526  24.641  13.629   1.749
87759W        W51527  15.313  31.027  13.436
87760W        W51528  37.940  33.096  10.974
87761W        W51529  33.532  25.067   9.954
87762W        W51530  35.877  35.577  12.067
87763W        W51531  35.448  19.164  11.461
87764W        W51532   6.804  30.069   2.287
87765W        W51533  18.606  32.083   1.216
87766W        W51534  13.717  22.217   4.345
87767W        W51535  23.196  12.169  11.935
87768W        W51536  43.449   4.907  10.569
87769W        W51537   1.321  20.258   2.362
87770W        W51538  24.716  22.692   4.719
87771W        W51539   8.389  44.370   4.630
87772W        W51540  15.226   1.767  12.568
87773W        W51541  40.408  16.108   0.915
87774W        W51542  27.093  25.655   2.261
87775W        W51543  10.697   2.791   1.313
87776W        W51544  43.433   8.173   1.884
87777W        W51545  38.983  35.565  10.460
87778W        W51546  44.920  20.552  13.964
87779W        W51547  26.572   8.866   3.814
87780W        W51548   5.277  38.496  11.375
87781W        W51549  16.086  22.099  11.028
87782W        W51550  24.059  42.900   4.718
87783W        W51551   3.772   6.865   4.313
87784W        W51552  30.047  38.511  14.427
87785W        W51553  14.295  12.802  11.960
87786W        W51554  15.710  34.576  13.891
87787W        W51555  10.823   6.709   2.412
87788W        W51556  27.484  33.886   0.483
87789W        W51557  13.617   6.692  12.845
87790W        W51558  12.188  30.122  14.343
87791W        W51559  29.071   5.787  13.349
87792W        W51560  32.547  31.152  11.003
87793W        W51561  40.492  19.758   0.821
87794W        W51562  38.865  44.294   0.834
87795W        W51563  13.764  44.461   2.700
87796W        W51564  23.232  37.945  10.591
87797W        W51565  35.071  17.127  13.810
87798W        W51566   1.949  19.259   0.447
87799W        W51567  24.085  15.120   4.780
87800W        W51568  12.286  28.594  14.378
87801W        W51569  14.305  36.948   3.725
87802W        W51570  39.883   1.434   1.383
87803W        W51571   7.374   4.319   0.868
87804W        W51572   5.778   3.771  12.491
87805W        W51573  12.334  25.699  12.951
87806W        W51574  31.065  41.948  12.991
87807W        W51575  35.536  15.651   3.757
87808W        W51576  41.907  41.876   3.713
87809W        W51577  40.305  15.195   2.411
87810W        W51578   2.847  24.087  13.932
87811W        W51579   1.805  15.216   3.803
87812W        W51580   3.252  22.677  12.456
87813W        W51581  42.895  27.981  14.794
87814W        W51582  42.992   6.358  10.405
87815W        W51583  17.626  15.729  14.446
87816W        W51584  44.292  43.450  10.606
87817W        W51585  29.552  42.286   0.962
87818W        W51586  24.188   8.394  12.046
87819W        W51587  18.091  41.027   3.772
87820W        W51588  15.243   6.684  14.817
87821W        W51589  39.487  24.724  11.407
87822W        W51590  11.347  30.504  14.489
87823W        W51591  27.990  40.030   4.121
87824W        W51592  20.270  31.914  10.593
87825W        W51593  31.991  33.473  13.824
87826W        W51594   9.310  29.568   1.761
87827W        W51595   9.236  20.745   3.731
87828W        W51596  21.076  35.417   4.773
87829W        W51597  11.858  27.550   0.290
87830W        W51598  40.922  44.999  13.905
87831W        W51599  41.828  26.574  11.523
87832W        W51600  15.221  29.457   2.394
87833W        W51601  25.559  26.640   2.360
87834W        W51602   1.459  24.484  13.381
87835W        W51603  17.726  37.955  12.875
87836W        W51604  41.482  16.793   3.742
87837W        W51605  31.107  35.909   1.394
87838W        W51606   3.735  43.960   2.228
87839W        W51607  23.119  39.483  10.890
87840W        W51608  38.857  35.913   0.816
87841W        W51609  30.994   8.762   1.751
87842W        W51610  21.164   4.780  11.539
87843W        W51611  33.580  12.302   3.852
87844W        W51612  29.485  13.656  10.439
87845W        W51613  14.320   1.851  14.925
87846W        W51614   0.934  31.143  10.603
87847W        W51615  35.519  39.057   3.796
87848W        W51616  10.149  32.626   3.693
87849W        W51617   6.807  38.420  12.520
87850W        W51618  17.706  16.288   4.682
87851W        W51619  14.714  24.647  11.008
87852W        W51620   7.701  14.816  12.494
87853W        W51621  40.028   5.362   2.278
87854W        W51622   5.319  37.450   4.164
87855W        W51623  34.980  26.493  14.507
87856W        W51624  39.969   8.277  12.489
87857W        W51625  34.409  13.120  13.931
87858W        W51626  37.383  38.403  13.865
87859W        W51627   0.844  19.543  13.524
87860W        W51628  18.708  26.046   3.681
87861W        W51629  21.083  13.174   4.344
87862W        W51630   1.894  33.554  13.470
87863W        W51631   7.358  42.865  10.949
87864W        W51632  14.178   1.242   1.321
87865W        W51633  25.171  35.908  11.541
87866W        W51634  30.012   8.214   1.700
87867W        W51635  29.669  40.956  10.950
87868W        W51636  42.370   7.294  12.082
87869W        W51637   2.352  17.625  12.349
87870W        W51638  34.056  26.082  14.384
87871W        W51639  38.012   0.812  13.036
87872W        W51640  24.026   7.322   4.246
87873W        W51641  37.998  30.612   1.876
87874W        W51642   6.753  15.715   1.383
87875W        W51643   8.253  40.425  13.456
87876W        W51644  39.454  17.169   2.325
87877W        W51645  12.357   7.726  11.549
87878W        W51646  22.174   5.876   4.653
87879W        W51647   1.853   4.409   0.790
87880W        W51648  30.437  16.710   1.726
87881W        W51649   6.743   6.217   1.313
87882W        W51650  26.572  35.039  11.055
87883W        W51651  38.543  33.614   2.736
87884W        W51652  20.275   8.696  14.457
87885W        W51653  15.121  35.453  12.511
87886W        W51654   1.748  35.001   4.184
87887W        W51655  16.222  15.682  13.545
87888W        W51656   2.953   0.757  11.489
87889W        W51657  42.864  25.136   0.877
87890W        W51658  21.648  25.512   2.353
87891W        W51659   7.859  33.620  13.518
87892W        W51660  26.073  36.868   3.297
87893W        W51661  13.775   8.900   2.787
87894W        W51662  42.909  12.655   4.611
87895W        W51663   2.920   8.697  14.842
87896W        W51664  42.356  34.095  14.361
87897W        W51665  27.995   1.835   0.926
87898W        W51666  24.129  28.162   0.843
87899W        W51667  21.626  32.961  10.959
87900W        W51668  22.654  11.819  14.795
87901W        W51669  16.077  18.787   2.776
87902W        W51670   2.756  16.730   3.237
87903W        W51671   1.398   7.795  14.901
87904W        W51672  33.946  13.606   4.774
87905W        W51673   6.240  30.983   3.263
87906W        W51674  41.855   5.356   3.809
87907W        W51675   2.443  12.836  14.927
87908W        W51676  32.108  28.542   1.403
87909W        W51677   8.165  34.458   3.172
87910W        W51678  31.456  37.857   0.917
87911W        W51679  31.940  15.329  10.912
87912W        W51680  43.346  16.811   1.796
87913W        W51681  26.170  34.530  13.058
87914W        W51682  31.552   7.893  12.420
87915W        W51683  22.571  10.688  10.546
87916W        W51684  38.843   0.842  10.612
87917W        W51685   9.680  29.987  13.461
87918W        W51686  22.055  20.727   2.249
87919W        W51687   9.706  16.778  12.090
87920W        W51688   4.715  41.328   4.127
87921W        W51689  25.468   9.795  14.454
87922W        W51690  35.939  12.172  12.554
87923W        W51691  32.515  33.041  12.372
87924W        W51692  28.612   4.414   3.641
87925W        W51693   6.221   0.905   4.158
87926W        W51694  44.283  44.364   4.286
87927W        W51695  24.659  29.516  14.927
87928W        W51696   7.393  38.889  12.558
87929W        W51697  44.469  19.165   0.292
87930W        W51698  38.525  21.079   3.751
87931W        W51699  14.701  20.252   2.882
87932W        W51700  14.769   1.888   4.722
87933W        W51701  24.028   3.830  11.122
87934W        W51702   6.802  35.495  13.005
87935W        W51703  20.067  28.568  13.059
87936W        W51704  24.592   8.836  13.455
87937W        W51705  22.585  34.962   3.680
87938W        W51706  30.511   4.209   4.184
87939W        W51707  30.159   9.383   4.759
87940W        W51708   4.936   9.800  11.581
87941W        W51709  40.449  26.514  13.831
87942W        W51710  25.120  26.467  13.847
87943W        W51711  39.954  24.602   3.689
87944W        W51712  15.741  28.142  11.010
87945W        W51713  21.163  33.530   4.764
87946W        W51714  17.706  26.536  13.315
87947W        W51715  15.206   7.369  11.567
87948W        W51716  10.260  35.450  12.493
87949W        W51717   9.345  36.973   1.696
87950W        W51718  25.510  19.048  12.477
87951W        W51719   4.842  23.110  12.895
87952W        W51720  40.404  12.717  12.050
87953W        W51721  27.002  44.353  12.040
87954W        W51722  28.998   2.872   2.755
87955W        W51723  27.022   0.385   3.281
87956W        W51724  28.042  32.985   4.284
87957W        W51725   7.383   6.327   3.240
87958W        W51726  21.052  28.617  12.972
87959W        W51727  26.486  34.614  14.377
87960W        W51728  44.273  44.963   1.228
87961W        W51729   9.359   7.311   5.231
87962W        W51730  36.404  17.691   3.716
87963W        W51731  38.822   0.759  12.573
87964W        W51732  17.216  14.691  11.606
87965W        W51733   8.386  15.735  14.913
87966W        W51734  40.047  16.701  13.484
87967W        W51735  34.489  17.762  11.473
87968W        W51736  35.072   8.849   1.889
87969W        W51737  30.008  22.148  14.508
87970W        W51738  15.775   7.340  13.041
87971W        W51739   2.822  41.818   3.821
87972W        W51740  44.286   7.409  10.921
87973W        W51741   0.415  10.652  13.310
87974W        W51742   0.895   9.818   1.809
87975W        W51743  39.364   7.905   9.592
87976W        W51744  25.136  27.604  14.992
87977W        W51745  24.703  23.032  12.965
87978W        W51746  35.576  18.672  12.896
87979W        W51747  21.678  12.242   3.209
87980W        W51748  16.568  19.751  13.959
87981W        W51749  27.160   3.856  12.004
87982W        W51750  17.247  19.582  13.541
87983W        W51751  33.027   7.204   3.672
87984W        W51752  17.795   5.898   4.320
87985W        W51753  16.652   3.785   2.767
87986W        W51754  20.543  19.631  12.876
87987W        W51755  13.137   0.920   1.436
87988W        W51756  11.799  40.052   1.882
87989W        W51757  19.241  32.936   2.702
87990W        W51758   7.845   3.910  11.609
87991W        W51759   0.841  22.595   1.411
87992W        W51760  41.925   2.895  13.495
87993W        W51761  20.604  18.275  13.867
87994W        W51762  29.098  11.262  11.042
87995W        W51763  36.032  10.171  13.059
87996W        W51764  17.185  36.455  13.028
87997W        W51765  24.055  26.518  11.505
87998W        W51766  14.249  34.452   4.240
87999W        W51767  39.011  34.568  12.886
88000W        W51768  44.946   4.359   2.844
88001W        W51769  41.490  30.570   2.737
88002W        W51770  34.525  40.325   1.219
88003W        W51771   4.702   0.766   2.825
88004W        W51772   0.850   6.294   2.766
88005W        W51773  33.473  16.259   0.768
88006W        W51774  33.958  14.199  13.884
88007W        W51775   0.494  17.687  11.461
88008W        W51776   1.911  27.055  14.308
88009W        W51777  42.346  42.512   1.241
88010W        W51778  14.644  33.965  11.118
88011W        W51779  44.922  17.582  10.901
88012W        W51780  31.044  30.599   4.664
88013W        W51781  37.465   9.763  14.905
88014W        W51782   4.735  25.102  12.570
88015W        W51783   1.291  33.518   2.256
88016W        W51784   7.810  44.817   3.789
88017W        W51785  36.072  27.083  11.897
88018W        W51786  12.211  19.098  11.518
88019W        W51787  23.134  39.844  12.090
88020W        W51788  10.257  11.323  12.831
88021W        W51789  32.410  39.836   4.708
88022W        W51790  44.366  33.055   3.287
88023W        W51791   9.325   0.293   0.899
88024W        W51792  19.620  24.227   5.785
88025W        W51793   4.211  34.078   2.902
88026W        W51794  35.460  24.719  13.985
88027W        W51795  21.554  13.791  14.488
88028W        W51796  39.428  43.020  12.064
88029W        W51797   3.900  27.454   3.279
88030W        W51798   3.374  13.808  13.838
88031W        W51799  20.688  40.338  13.355
88032W        W51800  34.470  16.737  13.421
88033W        W51801  21.212  39.535   3.361
88034W        W51802  20.200   8.314  13.393
88035W        W51803  44.266  13.343  11.864
88036W        W51804  44.980  31.407  11.455
88037W        W51805   7.772  33.520  11.919
88038W        W51806  41.500  12.334  14.366
88039W        W51807  38.566  10.877   1.727
88040W        W51808  44.499  28.623   5.265
88041W        W51809  20.028  39.936   0.933
88042W        W51810  33.469   8.187   4.158
88043W        W51811  37.930  34.952  11.599
88044W        W51812  41.938  40.008  12.918
88045W        W51813  32.894  23.715  11.536
88046W        W51814   7.352  15.263  11.450
88047W        W51815  12.621  19.055   0.359
88048W        W51816  40.415   3.229   0.904
88049W        W51817   2.821  41.424   2.265
88050W        W51818  37.386  31.430   4.336
88051W        W51819  43.305  43.896   3.355
88052W        W51820  12.331  23.180   3.723
88053W        W51821  27.980  44.366   0.777
88054W        W51822   1.391  15.746  11.456
88055W        W51823   7.896  28.613   0.928
88056W        W51824  38.957   8.249   0.761
88057W        W51825  26.571  26.584  14.380
88058W        W51826   2.847  39.348  11.077
88059W        W51827  16.677  29.470  11.604
88060W        W51828  19.048   2.903   3.354
88061W        W51829   7.376  29.448   3.732
88062W        W51830  27.186   8.400  14.388
88063W        W51831  22.642  10.678  11.004
88064W        W51832  35.516  42.479  11.999
88065W        W51833  11.867  27.965  12.966
88066W        W51834  20.533  14.150  11.918
88067W        W51835  40.881  24.603  14.358
88068W        W51836  42.838  16.785  12.986
88069W        W51837  20.188   8.187  10.470
88070W        W51838   7.864   4.775   3.361
88071W        W51839  36.891  34.015  12.050
88072W        W51840  27.026  38.542  12.492
88073W        W51841  27.178  32.424  14.475
88074W        W51842  42.884  35.990   0.924
88075W        W51843   0.492  24.130  12.341
88076W        W51844  39.848  24.693  12.085
88077W        W51845   8.791   9.380   5.136
88078W        W51846  25.587  37.895  10.127
88079W        W51847  28.998  35.876  12.517
88080W        W51848  39.881  27.149  10.894
88081W        W51849  22.666   6.417  14.406
88082W        W51850   0.400  26.589  13.952
88083W        W51851  44.792  33.952  13.511
88084W        W51852   9.743  33.554   4.339
88085W        W51853  27.099   0.268   0.377
88086W        W51854   4.700  42.512  11.904
88087W        W51855  16.305   5.335  12.351
88088W        W51856  20.718  31.040  14.854
88089W        W51857  32.577  16.182  13.465
88090W        W51858  10.309  22.648  11.005
88091W        W51859  40.051  12.260  14.018
88092W        W51860   7.172  36.973   2.238
88093W        W51861   7.903   4.896   3.780
88094W        W51862  39.003  25.534  14.968
88095W        W51863  43.278  14.803  14.910
88096W        W51864  16.232  13.133   2.676
88097W        W51865  32.069   3.324   2.394
88098W        W51866  21.751   6.314   3.773
88099W        W51867  31.555   2.796  13.450
88100W        W51868  43.484  14.621   4.185
88101W        W51869   7.286   4.770  13.831
88102W        W51870  17.131  10.220  11.871
88103W        W51871   6.328   6.360   4.665
88104W        W51872  24.485   8.669   0.889
88105W        W51873  25.477  23.041   1.325
88106W        W51874   0.755  42.321   1.757
88107W        W51875   5.319  44.488   0.806
88108W        W51876  20.648  35.985   4.615
88109W        W51877  42.810  21.028  11.917
88110W        W51878  36.887  16.740  12.371
88111W        W51879  40.001  22.224  11.568
88112W        W51880   4.856   4.411   2.404
88113W        W51881  19.234  10.765  11.390
88114W        W51882  30.522  18.615   2.788
88115W        W51883  20.096   5.311  13.910
88116W        W51884   4.805  32.047  13.919
88117W        W51885   1.264  43.850  14.024
88118W        W51886  20.585  14.112   1.352
88119W        W51887  31.549  17.275  12.537
88120W        W51888  13.763  36.071  14.397
88121W        W51889  41.357  17.688  12.005
88122W        W51890   3.216  44.892   1.797
88123W        W51891   2.953  20.183   2.830
88124W        W51892  32.428  39.858  12.828
88125W        W51893  28.645  11.346  13.349
88126W        W51894  20.103   6.893   4.136
88127W        W51895  36.925  23.509   2.317
88128W        W51896  19.181  13.250   4.722
88129W        W51897  34.460  40.353   2.419
88130W        W51898  27.196  14.335   1.328
88131W        W51899  40.928  10.822   1.211
88132W        W51900  15.644  43.893   2.692
88133W        W51901  30.100  36.429  13.832
88134W        W51902  32.463  38.032  11.566
88135W        W51903  29.160  12.140   1.422
88136W        W51904  18.274  13.838   1.737
88137W        W51905  34.962  12.190  11.567
88138W        W51906  12.770   6.207  14.469
88139W        W51907  17.660   5.438  12.488
88140W        W51908   0.312  30.484   3.729
88141W        W51909   5.195  33.090  14.832
88142W        W51910  23.152   2.901  13.996
88143W        W51911  19.268  18.124   1.278
88144W        W51912  39.866   7.250   3.301
88145W        W51913  21.190   8.781  11.435
88146W        W51914  21.172   3.331  14.446
88147W        W51915   4.344  31.500  10.518
88148W        W51916  42.805   0.343  11.560
88149W        W51917  38.035  22.115   1.375
88150W        W51918  40.535  15.192   3.743
88151W        W51919  39.343  25.698  13.845
88152W        W51920  21.654   9.246  10.468
88153W        W51921  20.075  12.253   2.415
88154W        W51922   1.857  15.733   3.711
88155W        W51923  44.813  32.408  12.394
88156W        W51924  35.451  16.265   4.294
88157W        W51925  44.267   3.421  12.566
88158W        W51926   1.914  30.465  10.435
88159W        W51927  14.620  42.868  10.047
88160W        W51928  44.771  41.965  12.399
88161W        W51929  17.196   9.268  12.442
88162W        W51930   4.896  10.651  11.570
88163W        W51931  38.989  27.452   3.274
88164W        W51932   9.365  37.376  14.468
88165W        W51933  24.654   4.390   0.406
88166W        W51934  17.718  22.090   1.774
88167W        W51935  27.004  34.528   1.255
88168W        W51936  27.156   3.222   9.963
88169W        W51937  36.071  26.578   0.468
88170W        W51938  15.258  15.140   2.407
88171W        W51939  36.347  32.921  11.074
88172W        W51940  29.463  15.593   2.348
88173W        W51941  40.016  33.124   4.796
88174W        W51942  26.685  31.461   1.373
88175W        W51943  23.237  22.138   3.310
88176W        W51944  19.117  20.191  14.874
88177W        W51945  23.196  34.500   2.833
88178W        W51946  32.607   2.386   4.214
88179W        W51947  29.002  10.796   3.169
88180W        W51948  28.960  16.181   3.658
88181W        W51949   3.927  17.597   1.385
88182W        W51950  40.811  37.490   4.828
88183W        W51951  19.185   7.408  14.396
88184W        W51952   2.758  16.638   4.327
88185W        W51953  43.886  19.621   0.758
88186W        W51954  41.833  38.865   3.712
88187W        W51955  22.205  22.197   0.745
88188W        W51956  39.819  35.441   0.752
88189W        W51957   8.205  31.575   4.816
88190W        W51958   9.197   6.364   1.376
88191W        W51959   7.318  21.216  13.365
88192W        W51960   0.827  35.442  14.393
88193W        W51961  11.800  12.144  14.966
88194W        W51962  20.715  17.589   4.658
88195W        W51963   8.782  32.946  13.957
88196W        W51964  14.592  11.862   3.343
88197W        W51965  41.836  27.008   2.685
88198W        W51966  20.152  31.510  14.977
88199W        W51967   0.466  30.023   4.726
88200W        W51968  16.150  34.384   4.262
88201W        W51969  33.957   2.321   0.312
88202W        W51970  21.169  11.320  14.322
88203W        W51971  43.867   7.299  14.977
88204W        W51972   8.722   4.765   1.839
88205W        W51973  21.551  36.924   0.247
88206W        W51974  33.467  35.587  14.441
88207W        W51975   1.767  12.684  14.886
88208W        W51976  10.184  30.095  10.549
88209W        W51977  26.631  40.868  10.934
88210W        W51978  22.168   5.848   3.736
88211W        W51979   0.864  41.405   2.263
88212W        W51980  23.695  31.144  14.986
88213W        W51981  30.994  21.701  11.541
88214W        W51982  22.708  38.912  11.073
88215W        W51983  34.550   4.939  13.352
88216W        W51984  20.544   4.833   4.270
88217W        W51985  38.950  15.724  14.942
88218W        W51986  22.744  35.005  11.977
88219W        W51987  11.867   4.782  14.788
88220W        W51988  39.401  29.983  10.978
88221W        W51989  10.763  30.451  11.589
88222W        W51990  10.190  21.659  10.531
88223W        W51991  31.035   9.357   3.827
88224W        W51992   9.158  41.341   4.148
88225W        W51993  18.725  12.630  13.914
88226W        W51994  32.554  10.634  13.951
88227W        W51995  22.576  23.511  11.423
88228W        W51996   3.888  21.082   4.305
88229W        W51997  22.048  14.291  13.490
88230W        W51998  38.399   6.310  12.876
88231W        W51999  13.212  37.078   1.281
88232W        W52000  34.385  15.705   4.299
88233W        W52001   7.787   0.806   3.671
88234W        W52002  23.145  29.566   2.266
88235W        W52003  27.062  38.904  13.352
88236W        W52004  24.220  36.484   4.228
88237W        W52005   4.205  30.615  13.790
88238W        W52006  16.700   8.277  12.538
88239W        W52007  10.822  30.154  14.406
88240W        W52008  31.136   8.717  12.095
88241W        W52009  39.876  13.207   3.217
88242W        W52010  31.605  28.441   0.329
88243W        W52011  14.151   9.738   3.711
88244W        W52012  37.872  36.519   0.464
88245W        W52013  14.675  39.357   3.831
88246W        W52014  39.863  19.149   3.281
88247W        W52015  19.601  10.671  11.437
88248W        W52016  27.044  34.573   3.647
88249W        W52017  28.584  44.915  13.474
88250W        W52018   1.928   3.260   2.689
88251W        W52019   3.298  33.903   0.351
88252W        W52020  29.100  18.103   9.937
88253W        W52021  30.603  43.296   4.244
88254W        W52022  43.953  12.311  13.901
88255W        W52023  38.988  26.180   0.303
88256W        W52024  39.052  10.330  14.410
88257W        W52025  30.141  17.798   0.801
88258W        W52026   6.276  11.208   1.442
88259W        W52027  30.147  39.938   1.277
88260W        W52028  34.943  35.593  11.476
88261W        W52029  15.246  19.162   0.451
88262W        W52030  10.825   2.424   1.301
88263W        W52031  25.999   9.788   2.203
88264W        W52032  22.741  31.969  14.360
88265W        W52033   5.790  41.933   3.265
88266W        W52034  43.892  12.249  10.899
88267W        W52035  37.551  28.591   1.401
88268W        W52036  43.270  19.602  11.083
88269W        W52037   0.433  34.039   1.776
88270W        W52038  43.469  21.250  13.953
88271W        W52039  41.967  25.489   0.392
88272W        W52040   4.791  37.367  11.956
88273W        W52041  14.660  18.055   1.711
88274W        W52042  37.840  19.159  10.969
88275W        W52043  14.243  37.881  14.764
88276W        W52044  33.448   6.379   2.702
88277W        W52045   4.383  34.031   3.741
88278W        W52046  17.301  21.203   3.226
88279W        W52047   2.291  40.883   2.903
88280W        W52048  40.893  25.105   4.675
88281W        W52049  26.672   7.311   4.656
88282W        W52050  39.861  33.879   1.928
88283W        W52051   0.275  14.247  13.367
88284W        W52052  28.440  14.129  13.495
88285W        W52053   4.858  25.005   4.114
88286W        W52054  41.910   8.187   3.245
88287W        W52055  44.438  22.672   2.675
88288W        W52056  32.416  24.604   3.681
88289W        W52057  43.438  32.539   2.410
88290W        W52058   6.790  20.617  12.518
88291W        W52059   3.429  18.593   0.851
88292W        W52060  24.694  16.092   2.290
88293W        W52061  36.435  19.118  14.397
88294W        W52062  33.591   9.208  12.837
88295W        W52063  20.736  31.961  10.610
88296W        W52064  30.981  37.426   0.327
88297W        W52065  18.678   6.817   4.128
88298W        W52066   7.272   6.195  12.008
88299W        W52067  25.480  21.038  11.951
88300W        W52068  13.817  39.054  11.052
88301W        W52069  31.576  27.532   3.707
88302W        W52070  44.008  39.862  13.808
88303W        W52071  37.514  35.984  11.577
88304W        W52072  20.068  43.303  10.518
88305W        W52073  31.497  44.756   3.283
88306W        W52074  20.538  37.444   4.675
88307W        W52075  40.853  44.953   3.718
88308W        W52076  24.050   7.755  11.373
88309W        W52077  16.653  37.428   3.236
88310W        W52078  10.858  42.936   1.886
88311W        W52079  26.596  12.704   0.417
88312W        W52080  26.193  31.486   5.204
88313W        W52081  40.835  39.538   3.364
88314W        W52082  43.848  35.883   1.839
88315W        W52083  19.736  37.932   4.308
88316W        W52084   3.347  44.009  12.829
88317W        W52085  22.589   0.942  13.335
88318W        W52086  11.183  17.281   2.698
88319W        W52087  15.592  32.400  11.081
88320W        W52088  13.136   1.296   4.306
88321W        W52089   1.970  30.133  14.932
88322W        W52090   6.326  33.590   2.875
88323W        W52091   5.335  18.274   2.694
88324W        W52092  21.663  15.236   1.703
88325W        W52093  11.229  17.795   2.821
88326W        W52094  31.108   4.886  10.072
88327W        W52095   1.472  44.325   4.247
88328W        W52096   4.440  12.355  11.963
88329W        W52097  42.352  22.651  13.472
88330W        W52098  43.398  34.046  12.912
88331W        W52099  29.158  20.760  14.014
88332W        W52100  44.271  35.033  10.953
88333W        W52101   1.857   6.338   1.298
88334W        W52102  11.141  36.876   4.704
88335W        W52103  38.366   8.232  12.897
88336W        W52104   3.793  17.717   0.265
88337W        W52105  29.935   4.335  10.617
88338W        W52106  17.281  20.187  12.469
88339W        W52107  37.066  11.208   0.451
88340W        W52108   5.342  41.521  13.929
88341W        W52109  40.316  40.464  10.507
88342W        W52110   4.399  36.865  13.050
88343W        W52111   9.692  41.370   0.331
88344W        W52112  15.729  35.029  12.563
88345W        W52113   9.377  44.851   4.715
88346W        W52114   6.264  44.803  11.988
88347W        W52115  41.852   4.707  12.415
88348W        W52116   4.272  32.048   1.335
88349W        W52117  35.087  21.600   4.292
88350W        W52118  11.867  40.827   2.385
88351W        W52119   7.386  10.689   2.669
88352W        W52120  22.562  37.527  11.026
88353W        W52121  35.035  30.527  11.390
88354W        W52122  20.163  13.169  12.528
88355W        W52123  16.607  44.867   3.766
88356W        W52124  19.165  40.034  11.024
88357W        W52125  43.827  26.049  10.505
88358W        W52126   3.928  36.922   2.731
88359W        W52127  24.125   8.656   4.754
88360W        W52128   1.861  18.166   1.264
88361W        W52129  27.161  34.464   2.818
88362W        W52130  10.878  28.944   3.676
88363W        W52131   7.271  33.410   4.273
88364W        W52132  25.018   1.257   2.311
88365W        W52133  18.161  26.989  10.588
88366W        W52134  23.633  23.622   2.298
88367W        W52135  21.140  44.418  11.419
88368W        W52136   3.802   5.345  12.963
88369W        W52137  26.701  41.451  11.951
88370W        W52138  23.563  18.622   1.884
88371W        W52139  38.825  35.437   4.121
88372W        W52140  15.704  17.107   0.458
88373W        W52141   7.324  34.562  10.604
88374W        W52142  21.250  31.545  12.475
88375W        W52143  33.931  39.824  11.968
88376W        W52144  26.596  38.417  11.434
88377W        W52145  13.166   2.889  11.900
88378W        W52146  13.615   0.339   2.702
88379W        W52147  40.315   7.763  12.032
88380W        W52148  14.212   6.716   2.269
88381W        W52149  10.788   3.372  11.586
88382W        W52150  40.467  18.257  11.125
88383W        W52151  41.790  20.061  13.032
88384W        W52152  38.401   7.725   0.410
88385W        W52153   8.160  15.309  11.011
88386W        W52154  20.036   1.856  14.438
88387W        W52155  37.518  22.571  11.128
88388W        W52156   5.824  23.650   1.346
88389W        W52157  41.296  38.975  12.952
88390W        W52158  19.127  27.530   3.738
88391W        W52159  12.284  24.120   2.252
88392W        W52160  22.667  26.615  14.457
88393W        W52161  12.340  41.871  10.506
88394W        W52162  13.606  40.349   4.231
88395W        W52163  36.059   2.315   0.859
88396W        W52164   0.248  24.191  14.888
88397W        W52165  17.660   3.372  12.554
88398W        W52166  26.053   7.231   1.319
88399W        W52167   4.245  15.675  14.315
88400W        W52168  11.252  42.797   4.182
88401W        W52169  37.474   5.436  10.612
88402W        W52170  21.055   0.291  14.354
88403W        W52171  43.477  17.117  14.982
88404W        W52172  23.048  28.945  11.514
88405W        W52173   6.791  22.687  13.509
88406W        W52174  41.825  18.712   3.253
88407W        W52175  31.530  18.673   1.853
88408W        W52176  32.121  36.849  12.451
88409W        W52177  12.190  33.417  13.924
88410W        W52178  14.711  39.884   3.352
88411W        W52179  18.588  16.182  13.913
88412W        W52180  23.540   4.269  12.432
88413W        W52181  15.738   7.287   0.382
88414W        W52182  32.023  10.157  13.003
88415W        W52183  32.542  38.521   1.437
88416W        W52184  30.502  44.302   2.342
88417W        W52185  31.483  26.155   1.441
88418W        W52186   6.226  10.745   3.346
88419W        W52187  26.574  12.204  11.459
88420W        W52188  19.543  23.657  14.943
88421W        W52189  43.440  13.331   2.267
88422W        W52190  32.124   3.384   4.788
88423W        W52191  27.072  44.474   1.218
88424W        W52192  17.737  40.360   1.346
88425W        W52193  37.541  21.196   2.873
88426W        W52194  20.732  18.245   0.761
88427W        W52195  33.055  35.988  14.356
88428W        W52196   4.348   8.684   3.148
88429W        W52197  13.804  40.845   1.239
88430W        W52198  44.862  23.234   3.806
88431W        W52199  30.636  28.466   4.256
88432W        W52200  25.216   3.443   2.329
88433W        W52201   0.987   1.269  13.833
88434W        W52202   1.352   0.902   4.711
88435W        W52203   1.971  17.307  14.338
88436W        W52204  25.206  40.038   0.826
88437W        W52205  36.490  21.224  14.418
88438W        W52206   3.389  24.587   2.876
88439W        W52207  13.731  37.378  10.910
88440W        W52208  44.834  20.689   2.841
88441W        W52209  29.602  32.889   2.830
88442W        W52210  25.495  36.925  13.383
88443W        W52211  28.667   4.252  11.530
88444W        W52212  25.651  34.462   0.411
88445W        W52213  19.650   0.358   4.223
88446W        W52214  33.604  44.310  12.916
88447W        W52215   2.756  28.552  10.431
88448W        W52216  24.209  20.737  14.399
88449W        W52217  28.103   7.762   3.310
88450W        W52218  35.104  33.939  14.365
88451W        W52219  37.865   0.458   3.634
88452W        W52220  39.430  28.993   3.183
88453W        W52221  29.552  20.141  12.503
88454W        W52222   6.321  28.084   0.753
88455W        W52223  33.489  33.470   5.205
88456W        W52224  23.101  11.134   2.899
88457W        W52225  41.851  17.086   3.802
88458W        W52226   2.402  22.593  14.460
88459W        W52227  26.487  20.260  13.910
88460W        W52228   6.278   8.265  13.346
88461W        W52229  43.927   0.251   3.638
88462W        W52230  21.613  43.324  11.070
88463W        W52231  20.109  22.679  14.364
88464W        W52232  20.063   5.274   2.902
88465W        W52233  41.517  40.435   4.179
88466W        W52234  25.970  16.579  13.024
88467W        W52235  28.033  35.880  10.609
88468W        W52236  21.757   6.771  14.894
88469W        W52237  27.120  12.178  13.546
88470W        W52238  21.155   1.385  14.374
88471W        W52239  11.343   8.799   9.977
88472W        W52240  30.156   4.384   2.399
88473W        W52241  11.298  31.119  12.346
88474W        W52242   8.330  19.657   1.388
88475W        W52243  37.381  22.225  13.442
88476W        W52244  36.014  27.529   3.644
88477W        W52245   7.264  38.881  11.470
88478W        W52246  12.717  26.196  14.401
88479W        W52247  11.299  16.148  13.974
88480W        W52248  36.946   0.817  12.508
88481W        W52249  33.443  19.099   3.290
88482W        W52250  12.250  42.865   1.851
88483W        W52251  23.239  26.695  14.290
88484W        W52252  23.055  30.481   0.363
88485W        W52253  32.481  25.683   3.712
88486W        W52254  20.619  21.635  13.932
88487W        W52255  13.110  34.032  10.578
88488W        W52256  22.169   7.211  12.987
88489W        W52257  38.837  27.586   4.145
88490W        W52258  33.928  34.498  13.940
88491W        W52259  35.550  15.589   4.624
88492W        W52260  20.205  34.392  11.526
88493W        W52261  16.703  28.021  12.061
88494W        W52262  44.385  27.032  14.797
88495W        W52263  14.106   1.336   0.738
88496W        W52264  12.328  28.507  12.343
88497W        W52265  24.581   8.830   2.213
88498W        W52266  44.889  36.889   2.829
88499W        W52267  26.487   0.865   0.389
88500W        W52268  40.984  36.542   3.211
88501W        W52269  32.887  15.666   2.381
88502W        W52270   5.204  17.260  11.041
88503W        W52271  27.134  15.209  12.006
88504W        W52272  27.683  34.085   2.871
88505W        W52273  36.370   8.818   3.763
88506W        W52274  31.524   3.771  11.573
88507W        W52275   9.653  12.188  13.933
88508W        W52276  26.486  44.420  11.947
88509W        W52277  27.689  35.106   0.311
88510W        W52278  33.600  17.772  11.437
88511W        W52279   2.321  27.682   3.147
88512W        W52280  33.904  14.216  11.438
88513W        W52281   9.742  20.662   0.797
88514W        W52282  34.077  24.029  13.546
88515W        W52283  24.706   9.367   2.773
88516W        W52284  36.002  42.293   2.900
88517W        W52285   1.301   1.963  12.063
88518W        W52286  36.948  40.872  12.957
88519W        W52287  24.043  13.700  12.911
88520W        W52288  22.602  32.034  12.074
88521W        W52289  18.295  41.332   0.936
88522W        W52290  31.937   0.363  12.077
88523W        W52291  39.510   2.878  10.630
88524W        W52292  34.997  23.677  10.579
88525W        W52293  44.450   9.657  10.942
88526W        W52294  38.866  22.147   0.840
88527W        W52295  41.870  42.851   1.809
88528W        W52296  39.967   4.788  11.588
88529W        W52297   6.318  30.578  12.341
88530W        W52298  29.547  28.076  12.932
88531W        W52299  16.240  31.916  11.033
88532W        W52300  16.178  25.647  14.303
88533W        W52301  13.238  33.924   0.875
88534W        W52302  22.552   5.378   4.164
88535W        W52303  15.734  22.587   0.420
88536W        W52304  43.508  28.042   0.266
88537W        W52305  34.033  28.175  11.594
88538W        W52306  19.595  10.737   4.235
88539W        W52307   0.763   4.750   1.386
88540W        W52308  11.257   8.215   2.734
88541W        W52309  19.535   7.185   1.876
88542W        W52310   3.222   3.839   0.860
88543W        W52311  27.945   5.746  11.067
88544W        W52312  12.623  21.611  11.005
88545W        W52313  35.033  40.859  11.400
88546W        W52314  33.057  42.878  14.461
88547W        W52315  22.590  12.362   5.565
88548W        W52316  26.591  31.965  12.485
88549W        W52317  25.471  18.708   1.820
88550W        W52318  27.060  15.095   3.367
88551W        W52319  28.117  17.582   0.432
88552W        W52320  15.683  42.033   0.884
88553W        W52321  15.219  26.000  13.520
88554W        W52322   4.751  31.446  11.586
88555W        W52323   1.413  10.853   4.220
88556W        W52324   1.843  29.117   0.384
88557W        W52325   1.788  34.583  10.616
88558W        W52326  44.295  42.015   1.360
88559W        W52327   6.254   4.850  10.026
88560W        W52328  25.501  34.462   4.328
88561W        W52329  36.979  39.463   0.347
88562W        W52330  32.086  19.149  10.552
88563W        W52331  30.476   8.872   0.457
88564W        W52332  13.607  39.976  12.913
88565W        W52333  33.619  19.774  11.403
88566W        W52334  19.629  16.647   0.373
88567W        W52335  15.627  30.145  14.994
88568W        W52336   9.392  21.559  14.914
88569W        W52337  36.360  19.755  10.619
88570W        W52338  33.531  42.526   2.245
88571W        W52339  38.942  29.553   3.180
88572W        W52340  21.185  44.948  14.985
88573W        W52341  11.645   4.390   0.928
88574W        W52342   4.870   6.796   2.902
88575W        W52343   4.853  41.003  13.005
88576W        W52344  21.052  32.486   0.325
88577W        W52345  33.087  43.780   1.235
88578W        W52346   4.395  36.348   4.240
88579W        W52347  15.784  33.490  10.973
88580W        W52348  43.370   2.385  11.480
88581W        W52349  22.021   6.784  13.510
88582W        W52350  16.104  30.479   4.334
88583W        W52351  10.818  44.919   2.285
88584W        W52352  38.011   4.258   0.786
88585W        W52353  43.875  11.200   3.729
88586W        W52354  38.930  35.544  11.921
88587W        W52355  10.273  18.127   2.797
88588W        W52356  36.530   8.221  14.963
88589W        W52357  31.523  43.910   2.328
88590W        W52358  42.484  37.401  14.857
88591W        W52359  28.124  30.122   0.942
88592W        W52360  26.656  44.374   2.287
88593W        W52361  19.665  30.606  14.438
88594W        W52362  10.139   6.212  12.516
88595W        W52363  19.609  41.032   4.601
88596W        W52364   6.268  17.709  13.313
88597W        W52365   6.906  33.879  14.495
88598W        W52366  40.529  42.888  11.958
88599W        W52367  25.607  32.117  11.423
88600W        W52368  34.608  23.611   3.732
88601W        W52369   2.334   2.814   2.304
88602W        W52370  29.966  22.539  14.009
88603W        W52371   6.414  42.820  13.804
88604W        W52372  33.598   9.283  14.455
88605W        W52373  44.764  10.728  11.457
88606W        W52374  39.553  11.155  14.828
88607W        W52375   7.277   8.398  11.609
88608W        W52376  13.722  23.189  11.043
88609W        W52377  34.049  43.847   2.669
88610W        W52378  35.415   1.740   0.797
88611W        W52379  34.032  35.854   1.355
88612W        W52380  24.115  17.722   4.670
88613W        W52381  14.313  13.657  11.125
88614W        W52382  14.286  17.229  12.904
88615W        W52383  26.162  33.052  14.344
88616W        W52384  15.132  10.787  14.509
88617W        W52385  21.133  27.687  13.821
88618W        W52386   1.974  16.161   1.255
88619W        W52387  25.029   5.439   0.346
88620W        W52388  44.787  44.307  10.036
88621W        W52389  30.522  31.995  14.948
88622W        W52390  19.095  13.147  13.446
88623W        W52391  14.153  44.297   3.832
88624W        W52392   6.840  36.553   4.807
88625W        W52393  29.064  27.528  13.519
88626W        W52394  11.768  13.783   4.748
88627W        W52395  10.642  39.400   1.279
88628W        W52396   2.468  40.539  12.829
88629W        W52397  30.622  43.416  14.430
88630W        W52398   6.778  17.255  13.993
88631W        W52399  26.086  11.201  10.934
88632W        W52400  36.046  31.637  10.056
88633W        W52401   8.847   4.287  12.086
88634W        W52402  29.037  35.976  10.599
88635W        W52403  41.867   5.386  13.889
88636W        W52404  30.515  29.063  12.922
88637W        W52405   2.464  21.125   4.701
88638W        W52406  30.944  14.204   4.637
88639W        W52407   4.781  19.731  12.060
88640W        W52408   5.832  36.562   4.607
88641W        W52409  30.488  17.225   4.137
88642W        W52410  37.040   9.872  14.898
88643W        W52411  24.580  34.886  14.358
88644W        W52412  10.772  24.987   4.209
88645W        W52413   7.772   2.903   0.882
88646W        W52414  42.499  30.920   2.245
88647W        W52415  23.674   1.458   0.365
88648W        W52416  21.589  22.214   4.188
88649W        W52417  37.985  24.639   3.864
88650W        W52418   5.361  37.023   9.450
88651W        W52419  28.175  21.248  13.363
88652W        W52420   0.257  33.103   3.384
88653W        W52421  27.169  36.075   1.716
88654W        W52422  39.421   4.332  13.507
88655W        W52423  35.868  29.115   1.213
88656W        W52424  25.218  22.060  12.946
88657W        W52425  40.317  13.839   0.779
88658W        W52426  36.864  26.553  10.927
88659W        W52427  20.059  35.382  11.956
88660W        W52428  44.940  19.595   1.778
88661W        W52429   4.711  25.121  12.915
88662W        W52430   5.312  35.471  11.019
88663W        W52431   9.687  21.180   3.202
88664W        W52432  13.278  16.284   2.903
88665W        W52433  20.135  19.170  10.979
88666W        W52434  42.793  31.487  11.040
88667W        W52435  27.476   0.388  12.871
88668W        W52436   7.859   6.898   1.317
88669W        W52437   7.694  16.171   2.730
88670W        W52438   3.888  41.020   3.731
88671W        W52439  14.760  29.933  11.563
88672W        W52440   5.846   6.329   0.476
88673W        W52441   6.818  26.077  12.884
88674W        W52442  14.695  27.118   3.858
88675W        W52443   1.948   9.370  11.407
88676W        W52444  12.347  20.136  11.859
88677W        W52445  36.456  10.766   2.181
88678W        W52446  44.332  41.316   2.237
88679W        W52447  42.516  20.137   1.758
88680W        W52448   6.892  16.294  11.988
88681W        W52449   9.792   6.312   1.788
88682W        W52450   3.738  22.008  12.033
88683W        W52451   1.814  12.178   4.634
88684W        W52452  11.275  32.496   2.841
88685W        W52453  14.295  36.452   1.358
88686W        W52454  26.003   3.769  14.864
88687W        W52455  18.128  39.847  13.392
88688W        W52456   4.786  13.816   2.189
88689W        W52457   5.797  21.245  14.399
88690W        W52458  37.023   5.352  11.983
88691W        W52459  26.590  28.061   1.852
88692W        W52460  29.467   6.765  12.857
88693W        W52461   9.830  23.691  14.417
88694W        W52462  28.001  26.489   1.355
88695W        W52463   2.376  37.887  10.531
88696W        W52464  11.724  17.587   2.298
88697W        W52465   2.263  12.288   0.272
88698W        W52466  13.337  28.169  14.493
88699W        W52467   5.919  36.907  12.500
88700W        W52468   4.417  22.120   2.665
88701W        W52469  16.253  30.116   1.252
88702W        W52470  27.616  44.844   1.271
88703W        W52471  10.277  22.573   0.734
88704W        W52472   1.807   0.338   0.863
88705W        W52473  26.015   9.166   3.212
88706W        W52474  11.323  17.064  13.008
88707W        W52475  33.084   9.769   4.720
88708W        W52476  15.150   2.367  13.854
88709W        W52477  35.046  18.145  10.537
88710W        W52478   7.372  26.970  12.057
88711W        W52479  32.610  34.102  12.512
88712W        W52480   5.283   6.722   2.346
88713W        W52481   4.715  33.076   3.250
88714W        W52482   0.378  28.178   2.417
88715W        W52483   0.944  17.180   2.663
88716W        W52484  19.132  12.706   4.344
88717W        W52485  42.991  19.553  13.471
88718W        W52486   9.167  18.122  13.911
88719W        W52487  40.486  32.941   0.748
88720W        W52488  34.439   9.771   0.339
88721W        W52489  42.813  22.729   4.123
88722W        W52490  11.225  44.332  11.001
88723W        W52491   0.418  43.451  13.492
88724W        W52492   6.754  11.831  14.441
88725W        W52493  17.782  18.629  14.502
88726W        W52494  24.498   1.298  11.579
88727W        W52495  19.610   5.797  13.353
88728W        W52496  12.617   7.686   1.275
88729W        W52497  28.981  23.605   2.666
88730W        W52498  22.231  30.480   1.834
88731W        W52499  19.160  33.442   2.735
88732W        W52500   2.903  27.649  14.761
88733W        W52501   5.307  20.554  14.858
88734W        W52502  41.411  14.235  14.954
88735W        W52503  10.300  15.812  14.364
88736W        W52504   1.800   4.762   2.759
88737W        W52505  21.714  33.949   5.682
88738W        W52506  10.679  19.205   2.302
88739W        W52507  22.037  39.947   0.950
88740W        W52508  35.531  39.351  12.464
88741W        W52509  32.432   3.303   4.826
88742W        W52510   0.968   0.981  10.498
88743W        W52511  15.800  44.803  13.017
88744W        W52512  14.758  14.104   3.219
88745W        W52513  41.808  15.812   1.238
88746W        W52514   9.371  30.124  12.404
88747W        W52515  34.088  41.534  14.806
88748W        W52516  12.620   8.673  13.454
88749W        W52517   0.461   6.713  13.949
88750W        W52518  23.230  21.528  12.369
88751W        W52519  18.118  25.121   3.288
88752W        W52520  28.115  30.995  12.853
88753W        W52521   8.382  32.489   4.670
88754W        W52522  30.104   8.707   0.931
88755W        W52523   2.818  19.680  12.459
88756W        W52524  25.115  19.645  14.934
88757W        W52525  31.945  29.662  14.768
88758W        W52526   4.374  20.523   1.840
88759W        W52527   6.205   7.799   4.204
88760W        W52528   6.726  42.826   3.704
88761W        W52529  29.523   4.379  10.586
88762W        W52530  10.328  10.366   0.867
88763W        W52531  43.506  44.976   1.348
88764W        W52532  26.206   4.778  12.340
88765W        W52533  31.087  27.046   0.843
88766W        W52534  27.047   1.249   3.855
88767W        W52535  10.846  17.289  12.352
88768W        W52536  16.293   5.333  10.526
88769W        W52537  42.342  18.117  11.438
88770W        W52538  22.632  30.004   0.880
88771W        W52539  31.139  44.765   0.281
88772W        W52540   9.293  10.846   1.360
88773W        W52541  13.160   4.792   0.456
88774W        W52542  36.078  31.554   0.289
88775W        W52543  29.951  15.744   2.249
88776W        W52544  39.004  14.131  13.824
88777W        W52545  25.164  27.474   4.772
88778W        W52546  22.033  42.371   4.701
88779W        W52547  41.523   9.157   3.288
88780W        W52548   0.765  23.046  12.847
88781W        W52549  40.834  36.967   2.796
88782W        W52550  28.111  16.204  12.869
88783W        W52551  41.367  25.076  12.943
88784W        W52552  31.604  39.491  14.785
88785W        W52553  33.037  33.067  14.910
88786W        W52554  28.435  24.119  11.073
88787W        W52555   9.171  44.423   3.788
88788W        W52556  34.934   2.783  12.957
88789W        W52557  32.593  31.481  13.341
88790W        W52558  41.941  29.454  12.899
88791W        W52559  24.187   9.320  11.407
88792W        W52560  10.840  32.897   1.885
88793W        W52561  17.112   2.771   1.303
88794W        W52562   6.311  29.099   2.208
88795W        W52563  24.974  19.085  13.315
88796W        W52564  12.809  15.799  11.032
88797W        W52565  25.980  16.155   2.874
88798W        W52566  28.012   9.739  12.042
88799W        W52567  20.186  11.254  13.900
88800W        W52568  28.978  36.043  11.446
88801W        W52569   1.445  39.380  14.899
88802W        W52570  25.970   5.920  12.997
88803W        W52571  30.002  17.751  11.438
88804W        W52572  23.215  41.031   3.185
88805W        W52573  20.767  12.771   2.276
88806W        W52574  17.160  32.061  11.442
88807W        W52575  42.013  19.252   0.263
88808W        W52576  42.433  21.035  11.105
88809W        W52577  43.852  44.322   0.484
88810W        W52578  43.274  28.090  11.488
88811W        W52579   4.294  14.137  10.963
88812W        W52580   2.940  13.754  12.449
88813W        W52581  31.943  34.922   1.705
88814W        W52582   5.916  21.098   1.818
88815W        W52583   5.224  25.016  11.970
88816W        W52584  14.826   6.241  10.138
88817W        W52585  41.794  39.436   3.150
88818W        W52586   7.368  40.966   3.647
88819W        W52587  33.964  20.621  12.462
88820W        W52588   8.793  39.039  13.488
88821W        W52589  18.115  26.526  13.416
88822W        W52590   9.166  36.399   4.718
88823W        W52591  41.805  29.463  11.431
88824W        W52592  35.964  32.088   9.457
88825W        W52593  31.556  22.543  14.368
88826W        W52594   0.828  42.786   3.377
88827W        W52595  27.085   6.841   4.332
88828W        W52596  38.485  31.101  14.859
88829W        W52597   2.383  30.928   1.359
88830W        W52598  10.292  37.926   4.209
88831W        W52599  18.751  23.673  10.890
88832W        W52600  16.641  33.530  12.028
88833W        W52601  33.034  31.614   3.665
88834W        W52602  38.341  31.454  10.924
88835W        W52603  30.415  34.073   0.367
88836W        W52604  35.856   9.846  13.354
88837W        W52605  33.090   8.754   2.856
88838W        W52606  13.782  17.123  12.873
88839W        W52607   8.876  25.151  12.457
88840W        W52608   7.304  26.003  10.583
88841W        W52609  27.187  25.126   4.718
88842W        W52610  36.553  34.091   0.282
88843W        W52611  17.162  36.998   1.922
88844W        W52612  38.018  39.556   0.936
88845W        W52613  22.534  18.136  10.918
88846W        W52614  24.093   2.772  11.028
88847W        W52615  15.101  12.676   4.739
88848W        W52616  29.566  15.230   2.781
88849W        W52617  40.346   8.359  13.397
88850W        W52618  38.891   6.357   3.844
88851W        W52619  22.571  10.352  12.087
88852W        W52620  23.645  36.406   1.308
88853W        W52621  34.048  25.483   3.658
88854W        W52622  32.021   3.364   3.800
88855W        W52623  42.028  32.998   1.823
88856W        W52624  30.025  23.538  13.899
88857W        W52625  39.474   3.746  11.544
88858W        W52626  44.386  19.183  11.077
88859W        W52627  21.098  29.169  14.334
88860W        W52628  10.855  11.868   3.387
88861W        W52629  19.237  42.778  10.584
88862W        W52630  42.351  12.802  13.521
88863W        W52631  11.184  15.762   3.847
88864W        W52632   6.195   7.389  11.590
88865W        W52633  40.952  34.908  12.561
88866W        W52634  33.425  11.353   4.674
88867W        W52635  12.731   6.871  12.472
88868W        W52636  12.185  22.035  13.340
88869W        W52637  19.769  19.557   1.274
88870W        W52638  13.788  13.682  14.874
88871W        W52639   0.363  44.788  10.408
88872W        W52640  35.895  40.334   1.733
88873W        W52641  30.494  14.299  13.433
88874W        W52642  26.982  23.603   0.365
88875W        W52643  35.029  40.485  11.032
88876W        W52644  44.800   1.815   3.830
88877W        W52645  39.934  26.465  14.354
88878W        W52646  14.645  14.736   0.929
88879W        W52647  21.163   8.720   3.677
88880W        W52648  27.184   7.698  11.394
88881W        W52649   6.701   6.718  12.525
88882W        W52650  17.703   6.364  11.570
88883W        W52651  17.736  13.602  11.455
88884W        W52652   3.714  12.754   5.249
88885W        W52653  15.199  14.203  12.941
88886W        W52654   1.425  26.589   0.728
88887W        W52655  27.598  20.709  13.429
88888W        W52656   7.791  36.992   4.144
88889W        W52657  27.105  37.867  14.947
88890W        W52658   0.939  28.074  11.092
88891W        W52659  44.325  30.642  11.377
88892W        W52660  25.098  26.642  14.438
88893W        W52661  17.776  31.597  13.061
88894W        W52662  25.474   7.258  13.840
88895W        W52663  24.075   7.730  13.841
88896W        W52664  17.247  27.662  10.461
88897W        W52665  21.730  43.962  13.823
88898W        W52666  23.618  14.664   5.121
88899W        W52667  32.540  40.034  12.052
88900W        W52668  43.320  30.049   1.706
88901W        W52669  44.356  35.448  12.884
88902W        W52670  15.158  22.191   0.272
88903W        W52671  35.569  28.033   4.152
88904W        W52672  11.758  32.519  14.295
88905W        W52673  36.051  29.025  10.108
88906W        W52674  38.546   1.262   4.196
88907W        W52675  34.104   2.843  12.566
88908W        W52676  10.183  20.608   2.764
88909W        W52677   8.206  38.871  14.022
88910W        W52678  30.047  27.570  13.024
88911W        W52679  37.405  12.722  13.021
88912W        W52680   4.797  25.605   2.234
88913W        W52681  16.307  25.080  11.073
88914W        W52682  14.266  38.899  12.511
88915W        W52683  36.574  16.785   4.208
88916W        W52684  43.857  31.432  11.901
88917W        W52685  28.658  36.039   4.253
88918W        W52686  42.896  31.987  13.325
88919W        W52687   4.257  37.885   2.352
88920W        W52688  14.815  14.118  13.869
88921W        W52689  34.031  11.196   0.253
88922W        W52690  34.070  11.293   1.781
88923W        W52691  38.027  40.955   1.697
88924W        W52692  32.025  33.921   2.855
88925W        W52693  28.027  33.546   2.336
88926W        W52694  21.153   6.401   3.825
88927W        W52695   5.304  34.911  13.054
88928W        W52696   1.774  17.306   0.816
88929W        W52697  17.080  42.916  14.793
88930W        W52698  10.762  42.328   2.727
88931W        W52699  27.652   4.244  12.842
88932W        W52700  15.759  35.906  11.895
88933W        W52701  43.891  16.566  13.478
88934W        W52702   6.748  18.776  10.888
88935W        W52703  26.546  14.781  13.414
88936W        W52704  41.499  12.117  11.376
88937W        W52705  35.398  25.484   4.622
88938W        W52706  13.253  15.717  14.390
88939W        W52707   1.306  29.040  13.419
88940W        W52708  42.865  35.859  13.901
88941W        W52709  27.019   9.723   3.195
88942W        W52710  31.103  14.192  13.407
88943W        W52711  10.285  19.770  14.887
88944W        W52712   0.771   1.458   4.329
88945W        W52713  18.195   0.849   4.119
88946W        W52714   1.400  33.002  14.020
88947W        W52715  26.624  20.219   1.318
88948W        W52716  25.488  43.497  11.025
88949W        W52717  14.266   3.800  14.910
88950W        W52718   1.302  13.705   2.757
88951W        W52719  40.382  38.467  11.591
88952W        W52720  29.017  34.943  10.604
88953W        W52721  39.481  31.939  13.354
88954W        W52722  14.771   3.736   3.818
88955W        W52723  32.550   1.802  11.076
88956W        W52724   3.900  25.559   3.261
88957W        W52725  34.049  19.727  11.935
88958W        W52726  41.365  41.372  11.466
88959W        W52727   3.872  33.934   2.901
88960W        W52728  38.354  15.154  13.981
88961W        W52729  34.028  24.540   3.245
88962W        W52730  33.059  18.671   3.228
88963W        W52731  19.283  18.768  14.796
88964W        W52732   3.954  20.599  14.007
88965W        W52733  32.390  28.622  11.554
88966W        W52734   0.313  24.625  11.988
88967W        W52735  26.056  31.132   0.787
88968W        W52736  15.210   0.987  12.072
88969W        W52737  27.584  41.954   0.377
88970W        W52738  38.957  35.052  11.558
88971W        W52739  31.919  15.103   9.474
88972W        W52740   7.190   1.977   4.351
88973W        W52741  23.548   0.415  12.389
88974W        W52742  28.522  24.005   2.345
88975W        W52743  33.463   5.889   2.835
88976W        W52744  27.514  42.372   3.676
88977W        W52745  22.538   5.341   1.344
88978W        W52746  23.091  22.656  14.944
88979W        W52747  30.080  32.405  12.877
88980W        W52748  15.315  17.710  12.074
88981W        W52749  18.187  28.606   2.233
88982W        W52750  28.013  31.998  13.980
88983W        W52751  31.974  22.570  10.471
88984W        W52752  16.747  22.615   2.828
88985W        W52753  35.421   0.799  10.922
88986W        W52754  34.373   9.853   3.853
88987W        W52755  28.162  12.806  13.947
88988W        W52756  26.083  14.681   4.211
88989W        W52757  23.064  17.196   3.374
88990W        W52758  13.347  19.598  10.521
88991W        W52759  22.646  41.527  10.607
88992W        W52760  37.888  29.963   0.790
88993W        W52761  39.959  16.082   4.149
88994W        W52762  25.621   2.770  14.985
88995W        W52763   9.342   1.907   1.319
88996W        W52764  22.704  44.907  11.124
88997W        W52765  26.471  40.431   0.880
88998W        W52766  32.067  10.793   2.813
88999W        W52767  32.619  41.456   4.695
89000W        W52768  43.959  40.985  11.117
89001W        W52769  22.720   0.364  10.022
89002W        W52770  40.825  22.629  14.274
89003W        W52771  14.743  43.448  12.956
89004W        W52772  33.625   8.386   0.758
89005W        W52773   4.413  27.610  12.868
89006W        W52774  20.625  36.371  11.127
89007W        W52775  17.728   5.910   0.750
89008W        W52776  29.989  12.323  11.855
89009W        W52777  13.612   2.842  13.895
89010W        W52778  38.496  22.504  12.984
89011W        W52779  11.274  33.062   1.715
89012W        W52780  16.298   0.462   0.424
89013W        W52781  13.122  18.266   0.806
89014W        W52782   4.208  21.175  13.338
89015W        W52783  35.064  31.938  10.954
89016W        W52784  19.751  30.067   3.818
89017W        W52785  22.230  12.222   2.840
89018W        W52786  20.095   6.863   1.248
89019W        W52787  30.988  37.391  13.489
89020W        W52788  42.930   7.322   3.810
89021W        W52789  25.596   2.903   1.860
89022W        W52790  22.698  32.971   1.317
89023W        W52791  19.175   4.393  11.895
89024W        W52792  31.045  12.130   3.264
89025W        W52793  23.987  23.000  11.091
89026W        W52794   7.195  10.765  14.328
89027W        W52795   7.714  28.582   3.787
89028W        W52796  12.324  24.010   4.141
89029W        W52797  16.315  41.984  11.516
89030W        W52798   3.723   9.682  12.482
89031W        W52799  38.912   9.264  12.847
89032W        W52800  34.903  12.127  13.952
89033W        W52801   0.822   5.889   2.386
89034W        W52802  20.766  44.302   1.902
89035W        W52803  27.189   8.678   4.301
89036W        W52804  36.999  36.891  14.015
89037W        W52805   1.421  34.070  12.008
89038W        W52806   2.801  13.168  11.093
89039W        W52807  11.733  14.099   4.314
89040W        W52808  18.677  30.042  12.385
89041W        W52809  22.093  16.617  12.399
89042W        W52810  37.470  42.927  11.089
89043W        W52811   9.737  14.182   1.261
89044W        W52812  31.617   9.779  13.381
89045W        W52813   2.452  43.903  13.890
89046W        W52814  13.310   6.318   1.255
89047W        W52815   3.725  19.163  14.928
89048W        W52816  32.994  39.027   2.353
89049W        W52817  18.545   1.916   3.355
89050W        W52818   8.726  27.999  10.477
89051W        W52819  12.351  12.198   1.858
89052W        W52820  24.545  21.134   1.799
89053W        W52821  11.777  28.465   4.748
89054W        W52822  43.822  41.880   4.323
89055W        W52823  17.653  44.946   1.357
89056W        W52824  22.184  15.296   2.681
89057W        W52825  13.117  24.990  13.893
89058W        W52826  23.989  36.591  11.593
89059W        W52827   9.219  17.715  10.605
89060W        W52828  20.620  23.052  11.040
89061W        W52829   1.356  25.989  14.910
89062W        W52830  27.082  16.138  13.475
89063W        W52831   9.824   1.339   0.477
89064W        W52832   7.812   1.946  10.489
89065W        W52833  21.723  10.149  12.888
89066W        W52834  11.757  28.165  10.982
89067W        W52835  42.898  30.465  10.645
89068W        W52836   4.281   3.377  10.563
89069W        W52837  37.375  40.839   1.401
89070W        W52838  36.014  22.016   1.903
89071W        W52839   6.768  37.842  13.960
89072W        W52840  12.841  21.021   4.165
89073W        W52841  33.456  41.375   4.161
89074W        W52842  21.604  33.597  13.001
89075W        W52843  38.906   7.377  14.779
89076W        W52844  30.652  16.291  12.919
89077W        W52845   6.795  39.389   3.195
89078W        W52846   8.271  38.486   0.947
89079W        W52847  37.049  43.845   2.678
89080W        W52848  32.497  34.895  12.829
89081W        W52849  43.925  13.800  11.063
89082W        W52850  34.583  10.147   1.279
89083W        W52851   3.332   6.725  12.913
89084W        W52852  14.244  30.469  10.954
89085W        W52853   6.738   9.669   2.250
89086W        W52854   0.353   4.891   0.945
89087W        W52855  18.748  40.531  12.056
89088W        W52856   9.165  27.046   0.475
89089W        W52857  41.488   0.797   0.360
89090W        W52858  44.489   4.222   2.228
89091W        W52859  43.329   6.852   4.756
89092W        W52860  10.765  29.433   0.344
89093W        W52861  18.590  12.846   0.438
89094W        W52862   2.961  38.051  11.020
89095W        W52863  36.480  37.946   0.883
89096W        W52864  25.108  12.308   2.767
89097W        W52865  43.973  28.649   0.253
89098W        W52866  19.662  19.250   0.362
89099W        W52867  41.490  43.877  10.639
89100W        W52868   5.930   2.352  10.621
89101W        W52869  44.462  25.612   2.815
89102W        W52870  34.884  22.721   2.804
89103W        W52871  38.052  18.063   0.371
89104W        W52872  30.525  37.855  10.422
89105W        W52873  20.551  13.680   1.723
89106W        W52874   9.699  44.952  13.353
89107W        W52875   5.428   6.412   3.382
89108W        W52876  21.183  16.784   0.958
89109W        W52877  27.476  18.576  14.969
89110W        W52878  20.692  39.038   4.123
89111W        W52879  26.067   9.787  13.509
89112W        W52880  19.158  24.113   2.210
89113W        W52881  26.178  42.929   1.847
89114W        W52882  16.131  36.068   3.764
89115W        W52883  29.012  33.081  10.534
89116W        W52884  24.600  19.069  11.995
89117W        W52885  17.613  26.601   3.638
89118W        W52886  35.445  43.335   0.898
89119W        W52887   7.400  38.442   2.198
89120W        W52888  12.611  10.269   1.225
89121W        W52889   2.435   7.233  12.504
89122W        W52890   1.460  44.427  12.027
89123W        W52891  29.535  11.220  11.946
89124W        W52892   1.976  33.423   4.266
89125W        W52893  39.043  28.957   2.273
89126W        W52894  15.276  33.998   0.951
89127W        W52895  16.312  13.771  12.936
89128W        W52896  21.525  29.649  10.644
89129W        W52897  35.080   6.323  14.844
89130W        W52898  24.184   8.295  13.894
89131W        W52899   6.747  42.012  13.052
89132W        W52900  29.653  18.131  12.447
89133W        W52901  29.154   4.380   3.292
89134W        W52902  44.881  41.819  10.455
89135W        W52903  25.209  15.118   0.406
89136W        W52904  35.022  10.668  11.425
89137W        W52905  27.538  25.114   2.379
89138W        W52906  31.084  31.042   4.140
89139W        W52907  30.058  26.597   1.829
89140W        W52908  19.658  37.437  13.322
89141W        W52909  19.259  17.676   0.956
89142W        W52910  38.831  23.145   0.786
89143W        W52911  38.951  37.847  13.407
89144W        W52912   8.181  32.616   1.906
89145W        W52913  27.015  35.084   2.245
89146W        W52914  33.095  31.509  13.021
89147W        W52915   3.876   5.766   1.908
89148W        W52916  20.731   0.891   3.831
89149W        W52917   9.873  14.138  12.877
89150W        W52918  29.023  36.473  13.024
89151W        W52919  18.103  31.503   3.769
89152W        W52920  17.631  43.010  12.526
89153W        W52921   5.259  24.565  13.413
89154W        W52922  32.529  39.827   1.742
89155W        W52923  29.124  44.374  12.860
89156W        W52924   9.389  10.255  14.336
89157W        W52925  33.055  38.495  10.568
89158W        W52926  25.550  16.193   1.371
89159W        W52927  18.772   3.277  11.069
89160W        W52928  32.575  42.845   0.410
89161W        W52929  32.507  11.721  12.550
89162W        W52930  37.576  25.013   3.202
89163W        W52931   1.409   1.251   4.709
89164W        W52932  27.030  40.322   3.287
89165W        W52933  24.013   1.898   0.459
89166W        W52934  27.625  39.329   3.229
89167W        W52935   7.851  27.480   3.220
89168W        W52936  24.229  17.607  11.412
89169W        W52937  14.752  25.649   0.808
89170W        W52938   2.355  39.044   1.753
89171W        W52939   4.207   0.403  13.325
89172W        W52940  42.794   6.328   0.860
89173W        W52941   6.394  42.856  11.863
89174W        W52942   5.785  10.655  12.475
89175W        W52943  30.523  19.677  13.995
89176W        W52944  20.175  21.651   4.648
89177W        W52945  39.926  11.170   0.295
89178W        W52946   7.752  33.058  10.637
89179W        W52947  18.654  14.674  10.911
89180W        W52948  24.680  32.478   1.819
89181W        W52949   9.693  43.419  14.879
89182W        W52950  20.707   6.208  14.365
89183W        W52951  32.083  24.511  14.334
89184W        W52952  42.814   5.706   1.917
89185W        W52953  44.767  43.917   0.843
89186W        W52954  29.144  11.277  14.346
89187W        W52955   9.162   6.740  13.011
89188W        W52956  25.126  22.657  10.973
89189W        W52957  12.742  34.056  12.987
89190W        W52958   5.887  25.522   1.854
89191W        W52959  16.090  38.351  10.910
89192W        W52960  16.189  23.534   2.267
89193W        W52961   7.847   9.266   0.863
89194W        W52962  12.640   2.809   1.915
89195W        W52963  12.189  31.431  12.048
89196W        W52964  21.247  40.406   1.775
89197W        W52965  42.943   0.766  13.388
89198W        W52966  18.276  13.646   4.613
89199W        W52967   2.803  37.831   3.721
89200W        W52968   0.804  35.549  12.390
89201W        W52969  29.624  44.476   4.701
89202W        W52970  39.361  21.216   1.755
89203W        W52971   9.280  17.561   3.720
89204W        W52972  23.641  38.427   3.736
89205W        W52973   9.865  11.668  13.440
89206W        W52974  15.618  11.251   4.201
89207W        W52975  36.079  32.392   0.819
89208W        W52976  42.897  42.851  12.895
89209W        W52977  20.142  40.812  11.606
89210W        W52978  18.072  21.254   3.803
89211W        W52979  21.116  32.060  14.423
89212W        W52980  10.229  36.466   4.660
89213W        W52981  24.166  35.575   3.168
89214W        W52982  27.635   8.732   2.417
89215W        W52983   2.951  43.289   0.415
89216W        W52984  22.733  38.075   1.802
89217W        W52985  15.627  30.540   0.426
89218W        W52986   3.869  42.386   4.133
89219W        W52987  28.985  26.066  14.430
89220W        W52988   2.390  39.927  11.860
89221W        W52989  16.656  34.377  14.021
89222W        W52990   8.663   7.796  11.459
89223W        W52991  35.455   3.780  12.578
89224W        W52992  40.872  18.601  10.984
89225W        W52993  15.316  40.362  13.538
89226W        W52994  36.404   5.257  12.465
89227W        W52995   2.385  33.889  10.502
89228W        W52996  23.180  41.973  14.022
89229W        W52997  36.034  11.285  13.981
89230W        W52998  13.753  42.508  11.027
89231W        W52999  40.948  23.510  10.941
89232W        W53000   2.301  19.566   3.838
89233W        W53001   4.368   4.838   0.292
89234W        W53002  40.364   2.855   0.810
89235W        W53003  21.518   3.397   0.797
89236W        W53004  37.899   9.810   5.253
89237W        W53005  10.648  30.105   2.386
89238W        W53006  28.054   9.343   4.813
89239W        W53007  32.945  38.547  11.023
89240W        W53008  42.516  23.023  13.840
89241W        W53009  34.597  32.588   4.233
89242W        W53010  44.765   1.814  10.441
89243W        W53011  27.595  43.351  11.875
89244W        W53012   2.230  21.551  13.059
89245W        W53013  35.997  35.901  11.473
89246W        W53014  42.385  11.830   4.632
89247W        W53015  23.224  36.926   4.266
89248W        W53016  14.240  23.018   3.724
89249W        W53017   1.837  25.992  11.072
89250W        W53018  31.035   1.855  12.355
89251W        W53019  32.909  44.979   1.252
89252W        W53020  44.796   7.693  13.927
89253W        W53021  43.942  12.277  14.492
89254W        W53022  11.807  32.895   0.744
89255W        W53023   0.429  27.460  11.409
89256W        W53024  15.137   0.868   4.608
89257W        W53025  18.264  28.070   2.755
89258W        W53026  20.615  30.933  11.067
89259W        W53027  30.129  26.659  11.535
89260W        W53028  24.720  14.736   3.287
89261W        W53029  12.719  42.891   5.260
89262W        W53030  10.709  35.895  13.442
89263W        W53031  16.118   9.678   4.719
89264W        W53032  13.680  10.638   4.796
89265W        W53033  10.863  17.085  14.821
89266W        W53034  36.051   5.809   2.717
89267W        W53035   4.341  11.724   2.201
89268W        W53036  37.943  34.493   3.694
89269W        W53037  23.016  24.604   2.183
89270W        W53038  41.367   0.979   2.208
89271W        W53039  24.211   9.270  12.954
89272W        W53040  27.473  28.004  12.372
89273W        W53041  36.390   9.883  12.030
89274W        W53042  15.214  11.349   1.797
89275W        W53043  11.140  12.281   1.723
89276W        W53044  32.900  32.059   3.343
89277W        W53045  43.501  31.492   0.346
89278W        W53046  14.243  39.932  12.556
89279W        W53047  33.127  40.048   4.768
89280W        W53048  17.652  21.061   2.309
89281W        W53049  41.920  11.237   4.266
89282W        W53050   0.889  16.728   1.921
89283W        W53051  32.404  16.299   0.452
89284W        W53052  15.693  26.537   4.708
89285W        W53053  16.164   9.804  14.403
89286W        W53054  32.031  29.570   0.372
89287W        W53055  17.687  13.297  11.472
89288W        W53056  39.412  33.016  13.928
89289W        W53057  12.260   7.691   3.261
89290W        W53058  36.075  11.192   1.341
89291W        W53059  29.974  44.492  12.023
89292W        W53060  41.000  24.691  12.965
89293W        W53061  16.588  11.686  10.500
89294W        W53062  13.252  29.623   3.352
89295W        W53063  42.780   8.671   3.725
89296W        W53064  12.319  40.469  12.454
89297W        W53065  44.763  29.176  11.021
89298W        W53066  30.152  41.364  10.523
89299W        W53067  32.401  21.657   3.653
89300W        W53068   2.746  32.007   2.751
89301W        W53069  30.976   4.930  14.402
89302W        W53070   9.201  33.000  14.461
89303W        W53071  43.896  30.544  14.352
89304W        W53072  34.398  35.451   1.731
89305W        W53073  44.473  13.602   4.665
89306W        W53074  25.640  42.423   1.302
89307W        W53075  27.666   3.906   4.153
89308W        W53076  32.085  25.611   0.316
89309W        W53077  38.974  37.033  11.465
89310W        W53078  13.805  36.350  11.395
89311W        W53079   2.903  35.885  12.849
89312W        W53080   7.400  20.034   2.784
89313W        W53081   6.274  35.515   2.880
89314W        W53082  43.798  20.740   4.263
89315W        W53083  34.400  40.967   0.855
89316W        W53084  33.957   6.417  10.944
89317W        W53085  19.760   8.292   4.738
89318W        W53086  15.088  42.792  11.577
89319W        W53087  26.112  13.620  11.412
89320W        W53088  41.331  33.964   3.656
89321W        W53089  16.750  38.971  11.609
89322W        W53090   1.445  19.765   1.801
89323W        W53091  40.378  26.677   3.234
89324W        W53092  11.864  42.414  14.277
89325W        W53093   5.282  25.028   2.851
89326W        W53094  25.069  42.850   4.716
89327W        W53095  11.819  33.622   2.250
89328W        W53096  15.322   0.422  11.072
89329W        W53097  41.403   8.729  11.423
89330W        W53098  30.069  19.204   1.276
89331W        W53099  19.232  29.083   2.773
89332W        W53100   2.422  30.067  12.343
89333W        W53101  29.636  31.463   0.484
89334W        W53102  15.156  23.153  14.440
89335W        W53103   1.838  43.929   0.458
89336W        W53104  39.472   1.357  12.454
89337W        W53105  44.771  31.466   2.711
89338W        W53106  41.954   9.833   4.284
89339W        W53107  15.139  24.161  10.905
89340W        W53108   2.803  18.181  12.385
89341W        W53109  35.499  36.942  10.540
89342W        W53110  25.007  19.576   0.368
89343W        W53111  20.554  32.508   9.670
89344W        W53112  33.390  38.076  13.963
89345W        W53113  30.956   8.289   2.300
89346W        W53114  20.180  23.989  13.992
89347W        W53115  29.119  15.300  13.882
89348W        W53116   0.492   4.758  13.049
89349W        W53117  34.995  29.930   0.321
89350W        W53118  12.855   9.648  12.896
89351W        W53119  15.624  27.621  12.936
89352W        W53120  13.163  18.079   9.991
89353W        W53121  44.419  36.869   4.296
89354W        W53122  26.996   9.277  13.916
89355W        W53123   3.235  20.142   4.202
89356W        W53124  36.061   4.362  14.929
89357W        W53125  25.565   2.329  14.301
89358W        W53126  25.549  26.530  13.435
89359W        W53127   8.785  40.394  13.363
89360W        W53128  34.548  24.686   1.921
89361W        W53129  41.449  21.726  10.953
89362W        W53130  30.437   9.816   2.400
89363W        W53131  34.110  28.089  10.982
89364W        W53132  24.997  29.511   4.689
89365W        W53133  19.260  17.778   1.296
89366W        W53134   6.867   5.339   1.809
89367W        W53135   7.334   6.265  13.464
89368W        W53136  25.186  35.383  14.403
89369W        W53137  23.510  24.714  12.012
89370W        W53138  27.627  22.169   1.802
89371W        W53139  43.935  35.562   2.264
89372W        W53140  43.931   1.803   0.298
89373W        W53141   5.235  44.327   4.197
89374W        W53142   4.393  37.878  14.007
89375W        W53143  26.693   4.336  12.348
89376W        W53144  32.399   3.921   3.257
89377W        W53145  31.953  44.267   2.326
89378W        W53146  20.638  23.528   0.269
89379W        W53147   4.766  17.647   2.828
89380W        W53148  25.551  39.511  11.107
89381W        W53149  24.500  40.539   2.378
89382W        W53150  23.495  33.451   4.136
89383W        W53151  22.205  20.231   1.270
89384W        W53152   4.307  21.165   9.950
89385W        W53153  37.581  42.476   0.393
89386W        W53154   9.765  18.619  11.855
89387W        W53155  24.209   6.393   0.438
89388W        W53156  41.309  15.586  10.955
89389W        W53157   8.821   6.320   5.290
89390W        W53158   9.855  22.651   1.828
89391W        W53159   5.852  11.626   4.123
89392W        W53160  17.674  30.993   4.637
89393W        W53161  22.192  37.988  10.450
89394W        W53162  40.830  28.019   3.382
89395W        W53163  42.335   7.187   1.258
89396W        W53164  34.386  18.146  10.926
89397W        W53165  15.292  28.485   3.781
89398W        W53166   5.215  39.024  13.025
89399W        W53167  12.282   8.768  10.001
89400W        W53168  31.930   3.441   2.769
89401W        W53169  10.671  14.736  11.496
89402W        W53170  12.680  10.775  11.006
89403W        W53171   0.936  30.555   1.713
89404W        W53172   5.334   5.756   4.310
89405W        W53173   5.883  31.058  14.318
89406W        W53174   6.407   6.230   3.813
89407W        W53175  33.890  22.560   1.750
89408W        W53176  25.653  37.435   9.994
89409W        W53177  42.919  37.994  13.323
89410W        W53178  40.404  39.417   0.361
89411W        W53179  29.586  15.803   9.924
89412W        W53180   8.862  28.971   2.410
89413W        W53181  42.949  29.025  12.874
89414W        W53182  28.553  34.421  14.497
89415W        W53183   1.817   1.383   3.377
89416W        W53184  20.051  41.834  14.327
89417W        W53185  25.207  19.275   3.758
89418W        W53186  16.240   3.771  11.603
89419W        W53187  26.028  38.042  10.900
89420W        W53188  42.867  17.598   4.680
89421W        W53189  41.932  25.647  12.377
89422W        W53190   9.279  39.494  12.444
89423W        W53191  21.237   2.371  13.911
89424W        W53192  32.937  22.160   4.332
89425W        W53193  10.176  12.362  13.508
89426W        W53194  31.600   4.227  12.033
89427W        W53195  29.533  37.415  13.883
89428W        W53196  15.746  35.444   3.748
89429W        W53197   9.649  43.452  10.532
89430W        W53198   7.863  19.147  11.524
89431W        W53199  42.305   6.255  14.003
89432W        W53200  21.041  31.991  10.614
89433W        W53201  10.332  41.996   3.721
89434W        W53202  44.887  38.505  10.950
89435W        W53203  38.889  19.216  13.900
89436W        W53204   8.884  42.445  14.024
89437W        W53205  33.897   1.462   4.153
89438W        W53206  44.484  27.050  12.485
89439W        W53207  36.082  11.312  14.972
89440W        W53208  32.108   3.844   0.921
89441W        W53209   2.967  44.846   3.751
89442W        W53210  38.028   6.876  13.379
89443W        W53211  36.457  14.131  10.424
89444W        W53212  35.894  30.450   1.832
89445W        W53213  20.139  30.637  10.937
89446W        W53214   2.896  38.525  10.942
89447W        W53215  24.185  39.020  11.099
89448W        W53216  40.513  24.689  13.058
89449W        W53217  27.506  39.532   2.222
89450W        W53218  12.266  12.315   2.875
89451W        W53219  21.611  38.349  13.448
89452W        W53220  20.738  40.019   2.192
89453W        W53221  11.790  18.125  12.921
89454W        W53222   0.316   4.413   3.637
89455W        W53223  32.046  25.615  13.859
89456W        W53224   2.281  39.344  10.440
89457W        W53225  38.012  15.193   0.345
89458W        W53226   1.842  42.879   4.648
89459W        W53227   9.324  16.628  13.933
89460W        W53228  37.388  28.951   4.290
89461W        W53229  19.776   1.265  10.531
89462W        W53230  44.412  13.256   4.345
89463W        W53231  21.032  20.687  13.996
89464W        W53232  30.439  10.807  14.363
89465W        W53233   5.294  24.064  10.078
89466W        W53234  10.732  30.940   2.286
89467W        W53235   1.240  30.123  12.946
89468W        W53236  11.327   2.800   1.774
89469W        W53237   3.804  40.901   3.219
89470W        W53238  35.077  16.311   4.258
89471W        W53239  33.015  35.997   3.168
89472W        W53240   7.876   6.249  12.012
89473W        W53241  12.257  40.339   4.709
89474W        W53242  31.411   1.421  11.920
89475W        W53243  41.465  42.849   1.735
89476W        W53244  30.548   8.359  10.915
89477W        W53245  10.764  18.182   2.279
89478W        W53246   3.222  22.633   4.726
89479W        W53247  42.898  39.830  11.461
89480W        W53248  24.026   5.813   2.219
89481W        W53249   3.318  24.698   4.191
89482W        W53250  13.301   9.789  10.417
89483W        W53251  26.666  40.398  10.414
89484W        W53252  16.781  11.741   4.250
89485W        W53253  44.333  21.566  14.911
89486W        W53254  35.956  41.491   4.621
89487W        W53255  22.062  36.384  14.981
89488W        W53256   8.275  11.242   4.634
89489W        W53257  34.468  19.231   3.812
89490W        W53258  22.622  13.631   4.777
89491W        W53259   8.668  18.107   1.819
89492W        W53260   6.400   5.213   1.239
89493W        W53261   0.782  11.196  11.029
89494W        W53262  42.952  18.117   1.888
89495W        W53263   1.397   7.221   0.413
89496W        W53264  13.691  41.828   1.770
89497W        W53265  14.631  20.621  12.885
89498W        W53266  25.096  35.537  12.953
89499W        W53267  10.217  26.976  13.869
89500W        W53268  33.398   3.837  13.957
89501W        W53269  32.475  35.467  11.040
89502W        W53270   0.878  20.651  11.506
89503W        W53271  30.062  29.118  13.359
89504W        W53272  17.198  32.408   4.710
89505W        W53273   1.779   2.781  12.043
89506W        W53274  39.897  42.508   1.863
89507W        W53275  17.752  25.508  12.448
89508W        W53276   2.727   7.764   0.466
89509W        W53277   6.857  36.085  10.999
89510W        W53278  42.986  18.275   0.415
89511W        W53279  26.551  27.088   0.933
89512W        W53280  33.612  39.879  12.393
89513W        W53281  39.351  44.769   4.800
89514W        W53282  33.026  41.964   1.447
89515W        W53283  36.920   9.794   1.876
89516W        W53284  34.519  34.880   2.899
89517W        W53285  14.252   1.869   3.862
89518W        W53286  24.180  38.462  14.833
89519W        W53287  28.117  21.635  10.447
89520W        W53288  44.970  29.497  12.949
89521W        W53289  40.027  37.031  12.058
89522W        W53290  14.611  30.583   1.242
89523W        W53291  18.117  24.076   2.307
89524W        W53292  11.636  22.521  11.423
89525W        W53293   2.881  30.112  12.053
89526W        W53294   7.276  40.054   3.160
89527W        W53295  15.709  24.689  13.015
89528W        W53296  42.008  17.181  11.465
89529W        W53297  11.835   5.810   1.448
89530W        W53298  35.963  39.836  11.461
89531W        W53299  35.862  35.398  11.541
89532W        W53300  12.252   4.812   0.810
89533W        W53301  22.161  35.438   0.746
89534W        W53302  31.902  30.992   2.371
89535W        W53303  15.233  27.466   1.450
89536W        W53304   0.434  24.215  11.940
89537W        W53305   2.447  40.366   4.345
89538W        W53306  39.525  43.019   4.195
89539W        W53307  17.722  15.246   4.607
89540W        W53308  33.613  19.672  10.607
89541W        W53309  24.711   9.163   0.883
89542W        W53310  32.984   5.729   3.722
89543W        W53311  17.611   9.753   4.237
89544W        W53312  16.234  15.674  10.990
89545W        W53313  38.441  16.089   1.332
89546W        W53314  36.495  20.645   1.302
89547W        W53315  26.663  13.307  10.031
89548W        W53316  28.665  13.715  13.933
89549W        W53317  37.854  17.297  14.781
89550W        W53318  21.561  11.167   1.806
89551W        W53319  11.167  39.524   2.880
89552W        W53320  14.300  17.177   0.837
89553W        W53321  20.599   0.892  13.489
89554W        W53322  10.706  23.196   3.191
89555W        W53323  39.317  44.803   1.222
89556W        W53324  19.178  33.044   3.346
89557W        W53325  41.362  34.077   0.847
89558W        W53326  16.779  31.470   5.202
89559W        W53327  30.997  27.063   4.722
89560W        W53328   7.730  39.957   1.335
89561W        W53329  38.539  43.503   1.753
89562W        W53330   4.733  38.546   3.856
89563W        W53331  22.058  41.967  11.568
89564W        W53332  12.129   6.888  11.445
89565W        W53333  43.877   7.233  12.054
89566W        W53334  27.106  14.812  10.999
89567W        W53335  21.094  40.506  11.911
89568W        W53336  12.649  32.126  11.596
89569W        W53337  26.680  37.477  11.105
89570W        W53338  11.334  19.635   4.251
89571W        W53339   3.396  40.036  13.332
89572W        W53340  12.686  15.252  11.549
89573W        W53341  25.679  23.162   4.256
89574W        W53342  30.436   6.724  11.057
89575W        W53343  16.670  27.665  13.533
89576W        W53344  15.258  15.747   2.856
89577W        W53345   7.204  33.554  10.453
89578W        W53346  15.243   2.901   1.377
89579W        W53347  10.633  41.033  13.863
89580W        W53348   3.943  20.069   0.326
89581W        W53349   3.360  25.018   0.463
89582W        W53350  17.275  37.000  13.477
89583W        W53351  10.871  10.682  11.542
89584W        W53352  33.420   4.794   3.668
89585W        W53353  23.088  27.039   3.692
89586W        W53354  34.562  12.615   3.720
89587W        W53355  11.715   5.861  13.840
89588W        W53356  24.140  23.147   4.215
89589W        W53357  44.296  35.517   4.712
89590W        W53358  34.074  37.907   2.871
89591W        W53359  29.164  29.652  14.921
89592W        W53360  23.564  16.691   2.282
89593W        W53361   0.363  15.250   3.792
89594W        W53362  19.053  44.883  11.521
89595W        W53363  19.042  21.751  14.320
89596W        W53364  30.980  17.062  11.547
89597W        W53365  33.875  35.544  12.014
89598W        W53366  28.947  22.538  10.425
89599W        W53367  33.445  17.230  13.542
89600W        W53368   7.907  42.928   0.260
89601W        W53369   5.750  26.972   0.379
89602W        W53370  15.770   1.307   1.799
89603W        W53371   4.219  36.092  14.471
89604W        W53372  39.036  38.964  12.986
89605W        W53373  13.665  44.861  12.451
89606W        W53374  35.027   8.841   5.236
89607W        W53375   7.304  16.226   0.747
89608W        W53376   3.812   3.437   4.644
89609W        W53377  34.445   3.785   0.358
89610W        W53378  37.369  38.068  13.315
89611W        W53379   8.283  21.093  11.891
89612W        W53380  17.160  40.023   1.851
89613W        W53381   1.958  38.553   3.832
89614W        W53382   5.893  26.565   4.602
89615W        W53383   5.212  21.171   3.184
89616W        W53384   0.834  37.352   2.407
89617W        W53385  42.917  28.626   4.292
89618W        W53386  40.985   4.848  10.606
89619W        W53387  11.348  37.572   2.847
89620W        W53388  31.904  41.969  11.006
89621W        W53389  36.021  14.695  11.930
89622W        W53390  25.529   3.413  13.049
89623W        W53391  42.860   2.907   1.226
89624W        W53392  30.919  10.302   0.387
89625W        W53393  10.305   5.205  12.551
89626W        W53394   7.277  19.698  14.336
89627W        W53395  11.176   3.374  14.339
89628W        W53396  27.602  26.117   4.286
89629W        W53397  37.061   6.778  14.969
89630W        W53398  20.755   5.690  11.455
89631W        W53399  14.661  35.499  13.346
89632W        W53400  12.652  11.142  14.295
89633W        W53401   2.318  18.785   2.301
89634W        W53402  14.163   1.338   4.835
89635W        W53403  12.710  19.170   2.295
89636W        W53404  42.451  42.366  14.981
89637W        W53405  23.120   9.792   4.159
89638W        W53406   1.913   1.933  14.380
89639W        W53407  12.683  37.870   2.882
89640W        W53408   2.274  43.471  12.853
89641W        W53409  27.113  28.563  10.616
89642W        W53410  35.410  43.316  13.426
89643W        W53411  43.514  24.205  14.346
89644W        W53412   2.363   2.958   0.266
89645W        W53413   1.246  24.617  10.484
89646W        W53414  10.868   8.242  10.573
89647W        W53415  29.981   9.659  12.922
89648W        W53416  24.029  41.477   0.897
89649W        W53417   3.926  25.030   5.300
89650W        W53418   5.384  39.429   1.254
89651W        W53419  13.107   8.876   1.743
89652W        W53420  38.033   0.818  11.561
89653W        W53421  23.585   7.259  14.944
89654W        W53422  30.439   4.222   2.788
89655W        W53423   4.763  43.938  12.840
89656W        W53424   2.826  36.349  13.985
89657W        W53425  28.626  20.268  11.484
89658W        W53426  44.866  25.194  13.367
89659W        W53427  22.680  18.226   4.766
89660W        W53428  20.246   7.686  13.472
89661W        W53429  34.047  40.447   3.752
89662W        W53430  26.032  21.071  14.470
89663W        W53431  41.401  27.156   1.827
89664W        W53432  17.274  22.056   3.643
89665W        W53433  39.869   7.286   0.900
89666W        W53434   5.903  11.825   3.778
89667W        W53435  14.758  24.641  12.923
89668W        W53436  10.869  44.843  10.595
89669W        W53437  41.872  37.876  11.912
89670W        W53438   5.797  25.185   3.235
89671W        W53439  34.058  14.607   4.332
89672W        W53440  32.010  33.054  14.930
89673W        W53441  17.633  36.372   4.259
89674W        W53442  20.197  32.995   3.216
89675W        W53443   2.778  26.652   5.239
89676W        W53444  44.438  44.782   3.194
89677W        W53445  21.522  43.403   3.162
89678W        W53446   9.365  41.423   0.353
89679W        W53447  20.707  42.004  11.592
89680W        W53448  16.196  31.898  10.049
89681W        W53449  36.374  33.440  13.446
89682W        W53450   8.261   0.331   0.380
89683W        W53451  34.121  16.682   9.530
89684W        W53452   9.735  42.810  14.455
89685W        W53453   3.825  32.478  11.609
89686W        W53454  17.220  42.960   3.177
89687W        W53455  35.397  37.483  10.058
89688W        W53456  38.834  15.120  14.509
89689W        W53457   7.706   2.757  12.939
89690W        W53458   3.231  21.751  10.478
89691W        W53459  23.990  17.609  12.557
89692W        W53460  24.160   4.320   1.722
89693W        W53461  18.291  15.710   4.283
89694W        W53462  20.148  30.998  14.481
89695W        W53463  29.441  21.669   1.780
89696W        W53464   9.776  42.412   2.297
89697W        W53465  31.066  35.906   2.776
89698W        W53466  35.358  11.206  14.783
89699W        W53467  41.520  18.544   0.290
89700W        W53468  11.730  14.822  12.523
89701W        W53469   0.811  28.989  10.636
89702W        W53470  35.533   2.894   0.261
89703W        W53471  34.053   8.800  10.521
89704W        W53472   7.758   7.754  12.429
89705W        W53473  12.824  18.664   2.335
89706W        W53474  17.203  29.529  14.324
89707W        W53475  38.331  30.054   0.848
89708W        W53476   5.723  37.086  11.401
89709W        W53477   8.314  22.641  10.917
89710W        W53478   8.401  27.506  10.599
89711W        W53479  22.595  32.056  10.564
89712W        W53480  22.096  22.095   2.845
89713W        W53481  11.299  24.985   4.138
89714W        W53482  13.794  12.790   1.295
89715W        W53483  41.461  29.111   3.232
89716W        W53484   0.818   0.329  11.910
89717W        W53485   5.292  16.286   4.714
89718W        W53486   5.395  33.625   3.672
89719W        W53487   1.269  21.713   2.759
89720W        W53488  25.656  19.690  12.081
89721W        W53489   4.795   1.733  11.530
89722W        W53490  34.885  34.495   0.418
89723W        W53491  35.453  25.001   1.925
89724W        W53492  40.952  34.886  14.494
89725W        W53493  31.575  13.262   3.807
89726W        W53494  12.308  32.941  12.874
89727W        W53495  12.647  39.035  11.442
89728W        W53496  38.454  12.170  13.948
89729W        W53497  35.093  43.848   4.194
89730W        W53498  24.004  36.564   2.779
89731W        W53499  41.381  23.611   2.244
89732W        W53500  24.058  16.693  14.320
89733W        W53501   8.761  44.827  10.922
89734W        W53502  23.714   0.931  13.815
89735W        W53503  36.576   8.745   1.303
89736W        W53504  26.009  37.480   0.259
89737W        W53505  44.315  25.074  12.975
89738W        W53506  24.534  16.187   0.340
89739W        W53507  27.612  32.059  11.856
89740W        W53508  36.863   8.795  13.841
89741W        W53509   5.852  42.418  14.004
89742W        W53510  38.520  12.199  14.297
89743W        W53511   4.257  33.428  13.949
89744W        W53512   2.872   1.878  12.360
89745W        W53513  24.223  29.060   0.871
89746W        W53514  13.841  22.014  14.422
89747W        W53515  35.066  13.203  13.379
89748W        W53516  29.643  24.595  12.862
89749W        W53517  38.525  10.329   2.202
89750W        W53518  31.048  11.732  14.903
89751W        W53519   4.317  12.279  12.967
89752W        W53520  17.702  41.313  10.624
89753W        W53521   7.853  28.149   5.193
89754W        W53522  34.554  11.795   0.880
89755W        W53523  12.624  32.036  13.542
89756W        W53524  21.729  32.571   2.351
89757W        W53525  29.104  11.722  14.446
89758W        W53526  29.922  22.237  10.624
89759W        W53527  40.388  32.618   0.757
89760W        W53528  24.578   8.786   2.836
89761W        W53529   6.793  33.581   3.784
89762W        W53530  11.179  40.926  13.955
89763W        W53531  25.175  40.905   3.243
89764W        W53532   5.206  31.981   0.481
89765W        W53533  22.170  42.971   4.137
89766W        W53534  40.399   8.893   3.645
89767W        W53535  27.449  25.993   1.421
89768W        W53536   9.327  18.262  12.553
89769W        W53537  30.484  26.184   0.763
89770W        W53538  31.618   9.150  13.042
89771W        W53539  15.140  25.116   2.810
89772W        W53540  23.147  30.500   2.667
89773W        W53541  25.619  43.307   0.902
89774W        W53542   4.889  22.602   4.673
89775W        W53543  39.508  18.093  10.557
89776W        W53544  17.658  10.723  14.495
89777W        W53545  22.221  13.791  14.004
89778W        W53546  33.129   2.442  13.906
89779W        W53547   6.282  16.195   3.761
89780W        W53548  28.951  36.516   3.835
89781W        W53549  12.660   9.243   0.759
89782W        W53550  42.336   0.427   4.785
89783W        W53551  18.249  37.938  12.527
89784W        W53552  43.983  15.688   1.764
89785W        W53553  11.356  41.307   4.190
89786W        W53554  30.012  33.070  13.315
89787W        W53555  24.134  16.688   1.798
89788W        W53556   5.252  25.153  12.408
89789W        W53557  28.995  21.672  11.883
89790W        W53558  19.062  10.191  14.350
89791W        W53559  43.303   4.812   2.775
89792W        W53560  38.910  20.627   2.257
89793W        W53561   9.174  36.085   1.917
89794W        W53562   2.401  25.172   3.748
89795W        W53563  39.502   6.399  10.923
89796W        W53564  39.507  26.015   0.391
89797W        W53565  40.384  29.001   3.633
89798W        W53566  39.997  37.855   1.218
89799W        W53567  41.327  36.573  14.929
89800W        W53568   9.184   2.290   5.179
89801W        W53569  23.591  43.344   3.722
89802W        W53570  19.680   5.329   0.941
89803W        W53571   7.666  22.234   1.345
89804W        W53572  23.650  16.761  14.491
89805W        W53573   5.230  41.459  14.339
89806W        W53574  44.353  12.138  11.899
89807W        W53575  22.515  14.668  10.927
89808W        W53576   8.234  43.452   0.358
89809W        W53577  33.456   6.909  13.894
89810W        W53578  39.976  10.322  14.822
89811W        W53579  22.042   8.332  13.057
89812W        W53580  39.333  41.908   0.332
89813W        W53581  39.362  24.652  11.093
89814W        W53582  32.032  35.368  12.996
89815W        W53583  15.121  22.584  10.607
89816W        W53584  18.587   3.443   0.931
89817W        W53585  33.588  14.159   0.290
89818W        W53586  22.572  17.794  12.850
89819W        W53587  39.548  13.118   4.250
89820W        W53588  26.607   4.380  13.807
89821W        W53589   9.226  17.644  14.007
89822W        W53590  13.217  44.972   0.283
89823W        W53591  21.671  15.146  13.369
89824W        W53592  39.503  26.081   4.735
89825W        W53593  21.731   9.238   0.815
89826W        W53594  36.517  11.164  14.356
89827W        W53595  38.923  16.670  13.546
89828W        W53596   1.884  33.438   2.863
89829W        W53597  14.174   8.276   0.892
89830W        W53598   0.928  30.606   2.705
89831W        W53599  13.746   0.930  10.999
89832W        W53600  38.040  42.395  12.063
89833W        W53601  25.188  13.254  11.123
89834W        W53602  22.081  35.880  11.508
89835W        W53603   6.705  37.343   9.968
89836W        W53604  43.842   9.831   2.663
89837W        W53605  37.083  17.645  10.589
89838W        W53606  33.978  18.670  10.500
89839W        W53607   2.446   5.719  14.349
89840W        W53608  29.169  13.837   0.875
89841W        W53609   0.757   1.321   1.253
89842W        W53610  23.184  12.228  14.341
89843W        W53611  12.767  18.058   4.682
89844W        W53612  38.892  18.567   0.366
89845W        W53613  12.737  42.469   0.842
89846W        W53614  37.073  23.526  10.613
89847W        W53615  33.579  44.432  10.504
89848W        W53616  14.330  37.408   4.611
89849W        W53617  15.804  42.027  10.625
89850W        W53618  22.180  12.250  14.492
89851W        W53619   8.204   6.384   0.455
89852W        W53620  40.024  23.218  10.603
89853W        W53621  17.247  36.876  13.905
89854W        W53622  20.229  30.999  12.481
89855W        W53623  25.979  39.404  13.480
89856W        W53624   5.703   7.336   0.831
89857W        W53625  44.501  29.642  11.117
89858W        W53626  14.738  42.435   0.305
89859W        W53627   3.840   4.388  14.943
89860W        W53628  28.659  31.497  11.452
89861W        W53629  23.500   6.829  11.511
89862W        W53630  22.230  33.387   0.249
89863W        W53631  10.851  31.409   4.272
89864W        W53632  18.758  29.022   2.268
89865W        W53633  20.668  24.044  11.418
89866W        W53634  14.179   4.871  13.020
89867W        W53635  16.623   4.776   0.944
89868W        W53636  42.489  35.416  13.798
89869W        W53637   8.342  22.025  11.439
89870W        W53638  35.375  25.492   2.821
89871W        W53639  12.166  11.200  13.823
89872W        W53640  22.175  44.277  11.113
89873W        W53641   5.436  15.190  14.868
89874W        W53642  40.934   7.869   4.207
89875W        W53643   3.798  18.264  13.034
89876W        W53644   9.211  28.935  11.564
89877W        W53645  37.525  23.035   1.758
89878W        W53646  17.717  37.347  10.043
89879W        W53647  33.024   1.854  13.976
89880W        W53648  25.629  26.144   0.463
89881W        W53649   0.903  19.706   0.779
89882W        W53650  41.452  20.625   3.332
89883W        W53651  17.168  31.092   3.715
89884W        W53652  17.124  15.797   2.180
89885W        W53653  43.021  16.608  11.398
89886W        W53654  19.161  16.703  11.053
89887W        W53655   2.363  43.475   1.909
89888W        W53656  15.781  13.324  11.900
89889W        W53657  23.117  35.484   0.777
89890W        W53658  22.604  18.574   4.328
89891W        W53659   7.372   5.688   0.481
89892W        W53660  21.687   0.295  10.411
89893W        W53661  38.377  32.065   0.918
89894W        W53662  20.152  28.128  11.596
89895W        W53663  31.050  43.359   4.806
89896W        W53664   9.223  16.766  12.054
89897W        W53665  40.958  14.809  14.786
89898W        W53666  25.505   5.905   2.273
89899W        W53667   7.752  20.121   2.720
89900W        W53668  25.041  12.175   4.774
89901W        W53669  44.861  18.223  13.952
89902W        W53670  41.459  19.628  12.037
89903W        W53671  18.219  17.207   1.401
89904W        W53672  44.354  42.453  14.445
89905W        W53673  41.510  33.050  13.316
89906W        W53674   2.805   7.249  12.970
89907W        W53675   6.427  35.420  11.065
89908W        W53676  23.620   5.828   4.717
89909W        W53677  26.479  24.678  12.524
89910W        W53678  40.534  34.535  11.571
89911W        W53679  13.326  12.833  14.826
89912W        W53680  42.905  24.488  13.392
89913W        W53681   6.766  26.652   1.340
89914W        W53682  28.936  37.510   1.773
89915W        W53683   8.697  28.576   4.666
89916W        W53684  43.369  43.425  13.537
89917W        W53685   1.957  34.898  12.355
89918W        W53686  23.730   9.877  12.940
89919W        W53687  20.543  30.073  13.049
89920W        W53688  11.629  29.125   0.939
89921W        W53689  27.611  31.562   4.252
89922W        W53690  16.654   6.392  12.428
89923W        W53691  15.248  12.230   4.676
89924W        W53692  27.035  18.625  13.988
89925W        W53693  36.469  14.672  11.072
89926W        W53694   3.339   5.212  11.447
89927W        W53695   0.261  44.807   2.223
89928W        W53696   5.366  40.384  14.944
89929W        W53697  40.491  15.736   3.757
89930W        W53698   3.859  42.495  13.885
89931W        W53699  16.593  28.127  11.566
89932W        W53700  16.616   7.411  11.899
89933W        W53701  36.455   6.711   5.320
89934W        W53702  23.711  20.600  14.827
89935W        W53703   9.345  24.224  10.894
89936W        W53704  38.489  42.852   3.721
89937W        W53705  25.473   3.221  10.617
89938W        W53706  19.154  25.661   3.344
89939W        W53707  31.633  13.219   2.721
89940W        W53708  24.673  12.755   3.805
89941W        W53709  30.909  22.061   1.441
89942W        W53710  27.489  34.024  13.448
89943W        W53711  39.894   0.939  12.390
89944W        W53712  35.571   5.816   0.395
89945W        W53713  35.066  41.350   9.980
89946W        W53714  40.444  38.002   1.835
89947W        W53715  34.022   1.430  10.934
89948W        W53716  39.438  23.687  12.549
89949W        W53717  42.433  23.503   0.918
89950W        W53718   8.383  16.766  14.942
89951W        W53719  15.304  26.586   4.674
89952W        W53720  27.480  38.450  12.828
89953W        W53721  37.500  34.569  10.487
89954W        W53722  33.531  44.894   3.168
89955W        W53723   8.892  34.032  11.384
89956W        W53724  36.512  34.958  10.914
89957W        W53725  36.487   5.312  10.512
89958W        W53726  32.520  25.508   2.790
89959W        W53727  11.748   0.281  11.595
89960W        W53728  21.032  31.624  10.518
89961W        W53729  22.697  30.497  13.012
89962W        W53730  28.597  36.845  12.473
89963W        W53731  30.060  22.151   3.638
89964W        W53732  24.117   8.281  12.525
89965W        W53733  33.518  41.943   3.759
89966W        W53734  34.994  33.566   2.861
89967W        W53735   0.444  20.130   4.645
89968W        W53736   8.243   1.342  10.611
89969W        W53737  15.641  18.142  12.076
89970W        W53738  33.398  26.689   1.794
89971W        W53739  20.532   1.961  10.903
89972W        W53740  35.462  16.119   3.289
89973W        W53741  36.571   4.266  13.378
89974W        W53742  42.962   7.330  12.477
89975W        W53743  40.914  14.605  14.509
89976W        W53744  39.815  31.031   3.837
89977W        W53745  38.935  19.285   4.231
89978W        W53746  17.668  37.896  12.013
89979W        W53747  16.624  23.197   0.449
89980W        W53748  28.987  40.825  10.635
89981W        W53749  37.009   2.720   4.348
89982W        W53750  35.407   7.907   1.695
89983W        W53751  30.445  22.070   1.211
89984W        W53752  23.495  26.170   0.886
89985W        W53753  35.533  29.483   0.248
89986W        W53754   7.691   7.274  13.966
89987W        W53755  44.498  40.364  10.918
89988W        W53756  32.428  25.686  11.868
89989W        W53757  28.644  21.167  10.080
89990W        W53758  22.726  31.504   0.393
89991W        W53759  42.904   5.381   1.780
89992W        W53760  23.217  12.694  12.568
89993W        W53761   7.733  15.711  12.089
89994W        W53762  44.839  22.673   4.686
89995W        W53763  23.636  41.867   3.701
89996W        W53764  23.581  31.946  10.035
89997W        W53765  16.256  24.674  12.005
89998W        W53766  29.655  22.053  12.504
89999W        W53767  25.698   3.895   0.341
90000W        W53768  38.945  41.808  12.473
90001W        W53769   9.882  18.215  12.543
90002W        W53770  12.704  34.902  12.556
90003W        W53771  43.790  31.597   2.885
90004W        W53772  30.597  26.996  12.412
90005W        W53773   4.872  29.088  13.502
90006W        W53774  38.857  21.577  10.951
90007W        W53775   0.870  40.519  10.543
90008W        W53776  36.069  39.469   2.318
90009W        W53777  28.034  28.168   3.344
90010W        W53778   5.921  40.362  14.483
90011W        W53779  11.129   4.929   3.641
90012W        W53780  41.939  19.659   3.258
90013W        W53781   4.422  12.231   1.263
90014W        W53782  23.572   7.732  11.459
90015W        W53783  16.154  27.038   2.669
90016W        W53784  21.152  13.129  11.084
90017W        W53785  34.091   7.288  10.599
90018W        W53786  40.844  21.557   1.921
90019W        W53787   2.412   2.925   2.804
90020W        W53788  33.044  38.395  13.799
90021W        W53789  36.877  32.901   1.429
90022W        W53790  41.823  29.425   3.743
90023W        W53791  22.240  24.223   4.207
90024W        W53792  12.724   4.223  11.863
90025W        W53793  25.621  18.675  10.534
90026W        W53794  43.287  10.140   3.733
90027W        W53795  38.000  14.330   1.767
90028W        W53796  22.570  25.109  11.088
90029W        W53797   1.939  26.978   4.262
90030W        W53798  26.136  32.069  12.058
90031W        W53799  27.032  14.671   0.762
90032W        W53800  37.019  27.136   1.210
90033W        W53801   5.905  41.446  14.938
90034W        W53802  13.275  35.856   0.250
90035W        W53803   7.828  24.670   3.278
90036W        W53804  30.982  21.140  13.403
90037W        W53805  32.394  21.516   1.226
90038W        W53806  10.815  29.953  11.926
90039W        W53807  31.063  30.579   3.339
90040W        W53808  31.947  25.182   2.337
90041W        W53809   0.809  11.373  14.388
90042W        W53810  39.892  35.905  12.044
90043W        W53811   5.822  13.632  13.034
90044W        W53812  20.121   4.733   4.244
90045W        W53813  37.343  27.493   1.404
90046W        W53814  12.714  13.731   0.876
90047W        W53815  18.562   5.779  13.027
90048W        W53816  10.766  10.326  14.912
90049W        W53817  19.125   5.247  13.467
90050W        W53818   0.251  44.952   3.335
90051W        W53819  27.138   3.899  11.576
90052W        W53820  44.431  11.774  12.513
90053W        W53821  10.212  16.248   1.293
90054W        W53822  25.218  36.931   0.925
90055W        W53823  14.796  26.982   2.309
90056W        W53824  33.594   3.324   3.157
90057W        W53825  31.945   3.822  14.762
90058W        W53826  41.856  44.887   1.880
90059W        W53827  22.592  27.964   0.858
90060W        W53828  26.134  31.992  11.094
90061W        W53829  23.990  32.094   1.296
90062W        W53830  26.544  34.504   2.208
90063W        W53831  30.944  27.528  10.513
90064W        W53832  10.680  28.462   1.798
90065W        W53833  44.492  41.013  13.046
90066W        W53834   4.708   3.765  11.408
90067W        W53835  31.089  15.638   0.298
90068W        W53836  43.405  39.945   1.818
90069W        W53837  10.776  33.924   3.275
90070W        W53838  39.342  20.657   0.749
90071W        W53839  29.427  12.264  13.856
90072W        W53840  44.959  14.208  11.108
90073W        W53841  24.049  44.480  12.855
90074W        W53842  27.070  31.979  12.499
90075W        W53843  41.848  16.782  10.622
90076W        W53844  26.081  42.986  13.989
90077W        W53845   6.278  11.687  11.430
90078W        W53846  18.077  30.149   1.441
90079W        W53847  16.566  19.159  11.437
90080W        W53848   5.420  29.931  11.409
90081W        W53849  22.629   0.289  14.484
90082W        W53850   3.408  11.307  10.111
90083W        W53851  43.018  36.517  10.933
90084W        W53852  24.038  26.465   2.729
90085W        W53853   0.468  36.979   0.872
90086W        W53854  39.988  11.783  12.464
90087W        W53855   7.228  26.530   2.286
90088W        W53856  42.515  37.857  13.518
90089W        W53857  23.497  10.325   4.778
90090W        W53858   9.307  33.390   1.238
90091W        W53859  42.520   5.413  14.424
90092W        W53860  36.406   0.864  10.137
90093W        W53861  26.493  41.814  12.070
90094W        W53862   2.238  24.075   1.747
90095W        W53863  27.650  16.262  11.514
90096W        W53864  17.305   6.920   2.825
90097W        W53865  32.023  22.651   1.833
90098W        W53866  14.236  25.196   2.410
90099W        W53867  21.671  16.104  13.863
90100W        W53868  26.660  28.181   3.784
90101W        W53869  32.962  43.878   2.827
90102W        W53870  13.721  33.610   4.146
90103W        W53871  13.638  18.784   0.883
90104W        W53872  16.613  35.525  12.454
90105W        W53873   9.290  40.836  10.907
90106W        W53874   0.862  15.806  14.791
90107W        W53875  40.045  18.636   4.299
90108W        W53876   6.262  44.807  14.834
90109W        W53877  39.539  22.158   0.363
90110W        W53878  27.162   3.300   4.694
90111W        W53879  26.623  10.168  11.104
90112W        W53880  28.113  18.679   4.166
90113W        W53881  39.551  18.129   4.317
90114W        W53882  16.116  43.377  14.789
90115W        W53883   0.868  23.103   3.341
90116W        W53884  32.097   6.413  13.436
90117W        W53885  13.762  21.709  13.933
90118W        W53886   8.759  35.416   2.739
90119W        W53887   8.355   0.806   0.935
90120W        W53888  22.063   1.799  14.773
90121W        W53889  11.247  32.095  13.003
90122W        W53890   8.854  18.056   3.803
90123W        W53891  21.078  15.582   1.774
90124W        W53892  29.005  16.777  13.845
90125W        W53893  14.725  31.027   2.300
90126W        W53894  30.484  30.147   4.144
90127W        W53895  35.995  26.527   4.648
90128W        W53896  13.719  22.120  13.414
90129W        W53897  43.790  41.810  14.860
90130W        W53898  14.802  13.679   4.282
90131W        W53899   6.196  14.331  14.990
90132W        W53900   8.316  31.415  11.877
90133W        W53901   5.216   0.956   3.330
90134W        W53902  35.422  42.452   2.197
90135W        W53903  28.590  25.693   2.709
90136W        W53904   3.843  31.438  14.966
90137W        W53905  39.454  18.699  11.378
90138W        W53906  36.049   1.438   3.306
90139W        W53907  27.953  29.626  12.368
90140W        W53908   6.884  26.149  11.049
90141W        W53909   9.653   1.870   3.808
90142W        W53910   3.225   8.896  11.421
90143W        W53911   3.399  34.113   1.890
90144W        W53912  10.759  31.540   1.320
90145W        W53913  40.358   9.264  10.411
90146W        W53914  24.988   6.261  10.447
90147W        W53915  38.824  37.025   2.876
90148W        W53916  38.022  32.461   1.330
90149W        W53917  15.243  43.861  13.430
90150W        W53918  39.554  28.069  12.438
90151W        W53919  26.661   1.850   3.208
90152W        W53920  30.484  12.719   4.219
90153W        W53921  41.988  16.147   2.263
90154W        W53922   1.884  32.594   1.885
90155W        W53923  37.533  22.739  13.037
90156W        W53924  31.967  36.369   4.285
90157W        W53925   4.356  26.000  13.986
90158W        W53926   0.335  18.551   1.324
90159W        W53927   6.346  32.078  10.109
90160W        W53928  32.040  26.555  12.038
90161W        W53929   0.751  40.903   2.887
90162W        W53930  23.123   0.849   1.315
90163W        W53931  39.845  24.070  12.573
90164W        W53932  10.262  25.668   0.404
90165W        W53933  16.163  10.719   3.853
90166W        W53934   1.947  23.735  14.385
90167W        W53935   4.342  44.922  11.930
90168W        W53936  19.721  20.268  11.485
90169W        W53937  33.010  19.658  14.358
90170W        W53938  27.567  40.515  13.316
90171W        W53939  39.500   9.162  11.923
90172W        W53940  35.583  23.603  13.864
90173W        W53941  37.066  26.524  10.488
90174W        W53942  22.729  33.939   0.875
90175W        W53943  42.336   7.892   2.299
90176W        W53944  38.519   0.429  11.881
90177W        W53945  33.102  30.909   4.224
90178W        W53946  24.009  27.128  11.862
90179W        W53947  10.744  16.295  14.367
90180W        W53948  16.661  39.368   0.786
90181W        W53949   6.857  16.606  13.052
90182W        W53950  30.543  13.300   0.783
90183W        W53951  37.501  21.082  10.044
90184W        W53952  20.680  21.719  14.331
90185W        W53953  34.426  11.228   0.776
90186W        W53954  36.905  12.676   3.850
90187W        W53955  16.221  34.438  14.345
90188W        W53956  14.695  35.373   2.720
90189W        W53957   6.336  19.281  11.371
90190W        W53958  24.594  37.473   4.217
90191W        W53959  38.405  34.571  14.822
90192W        W53960  17.138  23.146  10.546
90193W        W53961   7.331   3.221  10.536
90194W        W53962  35.377  43.994  13.458
90195W        W53963  17.566  20.087   3.739
90196W        W53964  20.103   6.323  14.880
90197W        W53965  13.183  34.974   0.771
90198W        W53966  14.307  23.097  12.411
90199W        W53967   0.831   0.807   0.446
90200W        W53968  11.255  20.647  13.472
90201W        W53969  24.105  43.835   2.396
90202W        W53970  43.386   5.830   4.754
90203W        W53971  39.873  38.557   4.282
90204W        W53972  14.223  41.997  10.985
90205W        W53973   4.276  15.800   2.319
90206W        W53974   2.341  43.360  12.340
90207W        W53975  27.961  36.924   1.238
90208W        W53976  35.075  29.030   3.702
90209W        W53977  37.357   6.347  11.979
90210W        W53978  21.521  15.640   2.728
90211W        W53979  36.400  27.458   0.424
90212W        W53980   5.395   3.847   0.380
90213W        W53981  22.704  14.834   1.868
90214W        W53982   9.246  10.666   0.303
90215W        W53983  42.985   7.263   4.276
90216W        W53984   3.279   3.777   0.453
90217W        W53985  12.324  40.509   1.731
90218W        W53986  11.723  19.568   4.143
90219W        W53987  26.965   0.750   0.929
90220W        W53988   9.199  33.928  12.402
90221W        W53989  28.533  43.972  10.908
90222W        W53990  21.702   5.724   2.695
90223W        W53991  20.734  27.995  11.010
90224W        W53992  40.320  32.418   2.836
90225W        W53993   1.930   7.726   3.674
90226W        W53994  28.109  43.997  11.079
90227W        W53995  22.680   8.731   5.118
90228W        W53996  25.604   7.862   0.844
90229W        W53997  41.481  10.145   4.254
90230W        W53998  10.763  29.117  12.011
90231W        W53999   2.895  41.429   1.251
90232W        W54000  29.433  24.222  11.086
90233W        W54001  35.915  30.140  14.942
90234W        W54002  35.032  28.092   4.788
90235W        W54003   3.890  11.630   3.761
90236W        W54004  30.643  35.971   0.347
90237W        W54005  23.180  12.232  13.312
90238W        W54006  15.723  11.264   2.282
90239W        W54007   4.801   8.239  11.858
90240W        W54008   9.242  34.061  12.039
90241W        W54009   7.393  19.569   0.815
90242W        W54010  31.066   2.349  10.517
90243W        W54011   6.232  31.615  11.415
90244W        W54012  20.593  42.994  14.029
90245W        W54013   6.314  11.145   4.623
90246W        W54014  13.620  21.674   3.346
90247W        W54015  16.741  31.908  14.490
90248W        W54016  40.830  11.148  14.304
90249W        W54017  39.037   0.744  11.383
90250W        W54018   1.858  21.160   2.268
90251W        W54019  11.751  23.696   1.927
90252W        W54020  36.076  27.623  14.780
90253W        W54021  39.997  20.246  10.612
90254W        W54022  15.711  28.571  10.911
90255W        W54023  31.117   2.329  14.839
90256W        W54024  11.227  20.158  11.448
90257W        W54025  30.442  15.182  11.372
90258W        W54026  13.184  41.443   2.821
90259W        W54027  22.635  31.435   3.239
90260W        W54028  21.561   5.264  10.575
90261W        W54029  39.998  21.571   2.343
90262W        W54030  37.417  34.878   4.691
90263W        W54031  40.948  44.982   2.753
90264W        W54032   6.337  27.012  13.418
90265W        W54033  10.367  28.174   0.805
90266W        W54034  29.118  41.922   0.913
90267W        W54035  13.675   3.833   4.263
90268W        W54036  30.022  13.796  14.468
90269W        W54037  21.690  37.505   0.948
90270W        W54038   8.848  12.308   4.288
90271W        W54039  24.057  41.301   1.417
90272W        W54040  14.695  33.408  14.413
90273W        W54041   4.918  39.964   1.767
90274W        W54042  18.110  33.963   5.214
90275W        W54043  34.025  43.369   4.236
90276W        W54044  26.024  10.158  13.942
90277W        W54045  15.732  20.165   2.871
90278W        W54046  23.154  27.002  12.048
90279W        W54047  32.902  23.517  13.031
90280W        W54048  30.555   6.389   2.682
90281W        W54049   0.395  31.008   0.827
90282W        W54050   6.881  32.101   2.851
90283W        W54051  34.415  17.153   2.800
90284W        W54052  43.964  33.407  11.911
90285W        W54053  42.956  16.175  11.072
90286W        W54054  32.461  24.119   0.853
90287W        W54055  24.064  10.298  12.955
90288W        W54056  39.442  26.608   0.914
90289W        W54057  28.487   4.802  13.966
90290W        W54058  40.836  35.511   1.844
90291W        W54059  29.114  30.946  14.342
90292W        W54060   3.409  39.980  12.926
90293W        W54061  14.603  19.699  14.011
90294W        W54062  11.271  41.899   1.702
90295W        W54063  15.669  37.928  13.925
90296W        W54064   8.362  16.725   0.933
90297W        W54065  25.483  37.001  10.559
90298W        W54066  18.707  13.764  13.389
90299W        W54067  42.362  40.932  14.883
90300W        W54068   7.813  26.634  10.469
90301W        W54069  27.967   8.800   3.232
90302W        W54070  38.466  18.178  11.025
90303W        W54071  36.532   1.291  14.426
90304W        W54072   0.965  43.479   1.843
90305W        W54073   0.392   4.376   2.252
90306W        W54074  17.697  31.540   3.366
90307W        W54075  30.609  11.792  10.428
90308W        W54076  12.296  25.622  13.818
90309W        W54077  24.052  24.480  14.976
90310W        W54078  14.664  44.391   0.272
90311W        W54079  16.688  24.705  10.964
90312W        W54080  22.134  17.615   1.331
90313W        W54081  39.017  21.169   0.759
90314W        W54082  24.666  14.103  14.282
90315W        W54083  16.182   9.247  11.469
90316W        W54084  29.525  18.154  11.006
90317W        W54085  36.859  26.553  12.892
90318W        W54086  30.615  31.623  12.430
90319W        W54087  24.580  37.004   2.296
90320W        W54088  34.057  27.633   2.888
90321W        W54089  12.832   9.327  14.921
90322W        W54090  36.544  25.702   0.368
90323W        W54091  41.874  14.822  11.554
90324W        W54092  14.697  22.637   4.604
90325W        W54093   2.793  17.724  10.933
90326W        W54094  12.213  25.596   2.775
90327W        W54095  34.553  19.060  12.002
90328W        W54096  21.056  23.134   0.243
90329W        W54097  34.449  22.571   3.235
90330W        W54098   4.919   3.455  10.095
90331W        W54099  20.540   9.233  14.281
90332W        W54100  24.657   2.286   2.758
90333W        W54101  10.293   6.704   0.385
90334W        W54102   1.313  29.489  14.428
90335W        W54103  32.602  31.973  12.389
90336W        W54104  34.089  18.289   2.379
90337W        W54105  39.983   0.250   3.702
90338W        W54106  33.080  17.109  13.028
90339W        W54107  11.357  17.637  13.802
90340W        W54108  22.501  23.083   4.778
90341W        W54109  11.218  36.980  14.325
90342W        W54110  36.479  17.205  13.062
90343W        W54111   0.389  18.092   2.719
90344W        W54112   3.233  16.106  12.507
90345W        W54113   7.285  15.779   4.173
90346W        W54114  24.543  22.188  12.451
90347W        W54115  17.068  14.685   1.383
90348W        W54116  12.215  32.611   3.210
90349W        W54117   3.264  30.479   0.860
90350W        W54118   4.328  37.871  14.865
90351W        W54119  42.319  36.848   3.742
90352W        W54120  40.023  14.337   4.825
90353W        W54121  41.950  34.485  14.278
90354W        W54122   9.172  22.248  13.500
90355W        W54123   1.828   4.371  12.912
90356W        W54124  20.562  22.088   0.757
90357W        W54125  27.149   3.775   3.785
90358W        W54126  28.011  16.781  12.532
90359W        W54127  31.904  33.568  12.510
90360W        W54128  33.624  10.867  12.848
90361W        W54129  14.291  41.036  11.512
90362W        W54130  15.693  13.331   1.731
90363W        W54131   7.833  29.082  11.512
90364W        W54132  27.486  42.940   1.787
90365W        W54133  25.538  29.028   3.218
90366W        W54134   7.671   8.297  13.337
90367W        W54135  12.665  40.957  13.409
90368W        W54136  30.536  18.679   0.739
90369W        W54137  14.140  18.703   2.877
90370W        W54138  40.816  11.822  14.288
90371W        W54139  12.660  32.898   2.825
90372W        W54140   2.907   3.281  12.845
90373W        W54141  43.913   2.760  12.833
90374W        W54142  14.755  24.526  11.533
90375W        W54143   0.255  10.347   0.318
90376W        W54144  34.387  41.007   3.238
90377W        W54145   9.291  34.444   0.290
90378W        W54146  31.972  22.149   3.289
90379W        W54147  20.050   6.897  11.549
90380W        W54148  31.911  38.329   4.235
90381W        W54149  35.085  30.016  11.915
90382W        W54150  34.559  22.612  11.121
90383W        W54151  24.076   6.221   1.280
90384W        W54152   8.878  44.999   3.776
90385W        W54153  28.538  28.491   1.925
90386W        W54154  24.989  11.762   3.830
90387W        W54155  18.162   1.746  14.892
90388W        W54156  35.994  11.767  13.019
90389W        W54157  44.870  27.445   2.838
90390W        W54158   7.714  38.400  13.948
90391W        W54159  14.233  33.975   0.910
90392W        W54160  13.270  23.117  14.484
90393W        W54161  36.530  38.506   3.840
90394W        W54162   5.769  40.019   1.896
90395W        W54163   1.337  31.621  11.421
90396W        W54164  13.316   2.295  11.857
90397W        W54165  44.380  25.083   2.797
90398W        W54166  25.585   0.863  13.840
90399W        W54167  16.770   6.756  14.315
90400W        W54168  28.148  30.430   4.127
90401W        W54169   4.775  21.734  14.500
90402W        W54170  28.063  30.495  14.511
90403W        W54171  31.536  37.437  11.078
90404W        W54172  35.595  13.701   1.439
90405W        W54173  37.487  37.857  12.515
90406W        W54174   9.673  19.054  13.808
90407W        W54175  16.612  34.503   0.289
90408W        W54176  33.499   5.432  12.339
90409W        W54177  41.865  11.150   0.438
90410W        W54178  13.799  30.121   1.754
90411W        W54179  43.940   2.252  12.007
90412W        W54180  13.726  16.757  14.333
90413W        W54181  43.768   4.887   4.750
90414W        W54182  15.619  32.438   9.986
90415W        W54183  40.307  26.144  10.955
90416W        W54184  33.937   5.247   3.320
90417W        W54185  13.782  21.531   3.749
90418W        W54186   2.767   6.786  12.521
90419W        W54187  12.170  44.846   0.311
90420W        W54188  23.641   3.861  11.381
90421W        W54189   4.432  43.926   1.815
90422W        W54190   2.899  27.627   4.330
90423W        W54191  14.336  37.877   2.266
90424W        W54192  28.549  22.053  12.072
90425W        W54193  35.421  20.618   4.180
90426W        W54194  29.661  16.614  13.423
90427W        W54195  37.834   6.740  10.935
90428W        W54196  30.068  18.121   2.352
90429W        W54197  11.350  40.038   3.770
90430W        W54198  12.215  12.660   1.391
90431W        W54199  15.812  23.096  12.952
90432W        W54200  37.001  14.127   1.337
90433W        W54201  26.021   4.942   3.757
90434W        W54202   1.920  13.107   4.780
90435W        W54203  29.633  38.042   0.921
90436W        W54204  33.119   4.219   4.711
90437W        W54205  36.099  32.501  10.406
90438W        W54206   7.184  34.959  12.460
90439W        W54207  15.708  30.484  10.157
90440W        W54208  19.626  34.094   4.142
90441W        W54209  33.875  44.841  12.926
90442W        W54210  34.586  41.409   2.411
90443W        W54211  38.538  33.883   1.872
90444W        W54212  31.521  25.557  11.420
90445W        W54213   4.759  35.085  11.958
90446W        W54214  27.657   0.342  13.850
90447W        W54215  31.968  39.487   1.783
90448W        W54216  40.515  41.823  13.496
90449W        W54217  31.603  41.485  11.406
90450W        W54218  21.068  20.701   3.333
90451W        W54219  18.549  23.040   4.810
90452W        W54220  12.209  11.199   2.801
90453W        W54221  26.133  30.502  12.924
90454W        W54222  36.531   2.749  14.399
90455W        W54223  41.883   9.680   3.313
90456W        W54224  28.520  24.050   0.902
90457W        W54225  11.677   2.923   3.658
90458W        W54226  18.108  35.452   3.345
90459W        W54227   4.767   1.922  12.512
90460W        W54228  27.142  13.801  12.035
90461W        W54229  42.460  43.856  10.497
90462W        W54230  38.973  13.614  13.891
90463W        W54231  43.860  41.478   3.684
90464W        W54232  32.040  17.205  12.393
90465W        W54233  26.619  17.164  11.056
90466W        W54234  27.080  31.413  13.851
90467W        W54235  10.197  13.314   3.263
90468W        W54236  21.679  28.026  11.927
90469W        W54237  17.568  24.571   1.870
90470W        W54238   2.306  29.482   3.371
90471W        W54239   4.312  27.479  10.533
90472W        W54240  42.862  22.234   0.934
90473W        W54241  40.008   6.867   2.419
90474W        W54242  43.303   7.343   3.368
90475W        W54243  12.200  31.408   3.795
90476W        W54244  18.110  34.952  10.019
90477W        W54245  33.036  17.766   1.776
90478W        W54246  41.828  20.571   3.745
90479W        W54247  20.722  22.233   4.725
90480W        W54248   5.807   7.261   0.400
90481W        W54249  40.503   4.305   2.710
90482W        W54250  23.999  25.062   3.731
90483W        W54251   6.703  23.672  10.510
90484W        W54252  16.657  16.216   2.700
90485W        W54253   6.304  21.721   3.850
90486W        W54254   8.831  17.611  14.392
90487W        W54255   1.316  12.336   2.305
90488W        W54256  19.733   4.727   4.266
90489W        W54257   6.189  14.228  14.377
90490W        W54258  41.008   9.272  14.325
90491W        W54259  31.105  14.740   2.745
90492W        W54260   6.362  38.524  14.347
90493W        W54261  18.766  28.061  10.999
90494W        W54262   3.800   1.378  12.835
90495W        W54263  13.163  42.313  11.472
90496W        W54264   9.236   8.694   1.451
90497W        W54265  18.217   2.923  11.933
90498W        W54266  26.499  16.314  12.400
90499W        W54267  11.850  24.016  14.822
90500W        W54268  33.402  10.688   4.123
90501W        W54269  40.856  20.692   0.739
90502W        W54270  17.063  32.030  14.511
90503W        W54271  11.866   8.722   4.253
90504W        W54272  28.451  22.715  12.376
90505W        W54273  26.543  24.563   2.357
90506W        W54274  12.170  41.014  11.526
90507W        W54275  28.619  30.623   1.365
90508W        W54276  26.172  15.642  13.397
90509W        W54277  24.490  18.608   4.295
90510W        W54278  36.023  20.611   3.743
90511W        W54279  15.797  36.863   2.760
90512W        W54280   2.278  32.431  12.460
90513W        W54281  40.007  38.885  13.501
90514W        W54282  40.887  34.477  13.360
90515W        W54283   3.254   7.907  12.497
90516W        W54284  31.956  36.988   3.380
90517W        W54285  11.624   0.329   0.748
90518W        W54286  13.842  24.676   2.180
90519W        W54287  27.460  17.273   2.279
90520W        W54288  44.410  42.973   4.690
90521W        W54289  14.617  38.015   0.764
90522W        W54290  20.080  30.598   3.226
90523W        W54291  17.254   1.816   2.694
90524W        W54292  30.950   0.791   4.779
90525W        W54293   6.703  19.738   4.766
90526W        W54294  38.874  17.239  12.863
90527W        W54295  10.785   2.767   0.934
90528W        W54296  19.072  13.689  10.581
90529W        W54297  38.536   0.869  12.478
90530W        W54298  37.368   0.283  12.950
90531W        W54299  39.878  24.133   3.295
90532W        W54300  30.643   0.848   2.690
90533W        W54301  23.634  43.784  11.411
90534W        W54302   1.831  22.688  12.848
90535W        W54303   6.739  40.823   1.833
90536W        W54304  21.537  12.825  10.495
90537W        W54305  24.171  18.237   4.719
90538W        W54306  18.759   6.197   1.395
90539W        W54307  30.568  36.442  11.555
90540W        W54308  30.415  13.726   2.332
90541W        W54309  44.294   9.315  12.911
90542W        W54310   2.301   6.814   3.199
90543W        W54311  34.472   1.814   3.182
90544W        W54312  30.010   7.183  12.076
90545W        W54313  35.487  23.222   3.240
90546W        W54314  37.006  38.995   2.796
90547W        W54315   8.283  17.780   0.340
90548W        W54316  13.621  17.273  10.537
90549W        W54317  16.134  10.790  12.360
90550W        W54318  30.137  11.659  13.953
90551W        W54319   2.432   3.798   2.731
90552W        W54320  16.172  38.510   4.206
90553W        W54321  40.833   0.969   3.371
90554W        W54322  12.732  38.829  11.907
90555W        W54323   6.299  37.381  11.881
90556W        W54324  39.471  35.564  11.378
90557W        W54325  10.206  42.835   9.971
90558W        W54326   7.224   8.197  13.810
90559W        W54327  12.701  13.107  11.449
90560W        W54328  40.494  32.025  12.446
90561W        W54329  32.011  32.056  11.951
90562W        W54330   8.797  32.540  12.457
90563W        W54331  18.747   8.367   0.277
90564W        W54332  30.469   0.365  11.859
90565W        W54333  10.213  16.618   2.340
90566W        W54334   6.397  26.645  10.495
90567W        W54335  26.552  31.975  10.961
90568W        W54336   4.345  36.073   9.995
90569W        W54337  22.635   0.307   0.933
90570W        W54338   9.328   3.911   0.814
90571W        W54339  32.542  41.854   4.658
90572W        W54340   5.201   5.836  12.829
90573W        W54341  30.502  11.259   4.616
90574W        W54342  43.906  15.786   3.321
90575W        W54343  32.511  30.603   4.747
90576W        W54344  44.266  24.042   1.414
90577W        W54345  14.324  14.801   0.763
90578W        W54346   4.790  33.457   1.752
90579W        W54347  20.171  13.624  12.073
90580W        W54348  21.617  26.570   3.163
90581W        W54349  26.107  16.304  13.409
90582W        W54350  11.293   5.736   4.809
90583W        W54351  31.633  42.364  12.398
90584W        W54352   6.365   7.910  12.860
90585W        W54353  27.053  37.879  10.898
90586W        W54354  29.436   3.223   1.393
90587W        W54355  37.518  33.487   5.109
90588W        W54356  27.119   9.153  11.399
90589W        W54357  14.233  25.623  11.377
90590W        W54358  21.721  34.101  13.466
90591W        W54359   7.856  41.919  14.490
90592W        W54360  30.535   8.353  12.365
90593W        W54361   2.792   9.268   3.785
90594W        W54362  15.116  25.183   2.240
90595W        W54363   9.257  11.342   4.822
90596W        W54364  32.569   2.263   0.356
90597W        W54365  22.007   5.384  11.051
90598W        W54366  41.978  43.839  10.997
90599W        W54367  20.612  24.495   2.752
90600W        W54368  15.595  30.457  14.370
90601W        W54369  31.937  27.067   2.667
90602W        W54370  18.578  22.242   5.307
90603W        W54371   3.761  14.644  11.502
90604W        W54372  41.882  40.898  11.925
90605W        W54373  32.444   2.735  14.429
90606W        W54374  31.494  43.924   1.333
90607W        W54375   6.877  29.992  13.847
90608W        W54376  15.329   9.267   3.836
90609W        W54377  38.886  22.607  12.371
90610W        W54378  29.537   7.678   3.795
90611W        W54379  27.132   4.780  12.959
90612W        W54380  21.228  38.918   2.200
90613W        W54381  14.606  33.493  12.967
90614W        W54382  40.426   0.840   0.763
90615W        W54383  44.885  24.224  11.901
90616W        W54384  24.987  30.088  10.907
90617W        W54385  26.193  23.489  12.345
90618W        W54386  30.559  21.758  11.862
90619W        W54387  18.061  37.520  12.953
90620W        W54388  36.531   8.725   2.861
90621W        W54389   4.347  42.948   2.684
90622W        W54390   9.772  44.933  12.482
90623W        W54391  17.221  15.225   4.274
90624W        W54392  26.170  38.417   0.869
90625W        W54393   4.863  23.019   3.358
90626W        W54394  38.513  17.081   1.826
90627W        W54395  36.948  23.648   0.277
90628W        W54396   5.225   2.403  11.045
90629W        W54397  29.952  22.996  14.011
90630W        W54398   6.187  31.089   0.811
90631W        W54399   4.932  35.557   4.834
90632W        W54400  43.378  16.287   4.660
90633W        W54401  10.806   8.181  14.486
90634W        W54402  43.822   4.877   3.645
90635W        W54403  39.544   2.468   0.413
90636W        W54404  40.460   9.796  12.565
90637W        W54405  32.509  27.160  11.991
90638W        W54406   8.687   1.750  11.585
90639W        W54407  29.538  14.271   0.338
90640W        W54408   3.765  21.740   4.184
90641W        W54409  25.000  26.137   2.419
90642W        W54410  35.016   2.372   0.482
90643W        W54411   5.287  26.584   0.414
90644W        W54412  16.617  28.160  14.993
90645W        W54413  35.011   6.325   4.702
90646W        W54414  38.963  19.180   1.715
90647W        W54415  25.022   2.938   2.779
90648W        W54416  15.277  16.619   3.247
90649W        W54417   1.930  30.099  10.477
90650W        W54418  23.528  37.047   3.848
90651W        W54419  21.116  32.583  13.834
90652W        W54420  18.589   8.309   3.864
90653W        W54421  29.558  21.141   2.386
90654W        W54422  43.901  21.209  13.022
90655W        W54423  16.582  30.078   3.365
90656W        W54424  17.570  32.011  11.961
90657W        W54425  31.607  25.511  13.840
90658W        W54426  41.819   7.228  14.483
90659W        W54427  33.468  14.794  11.888
90660W        W54428  21.694  19.066  12.944
90661W        W54429   5.339   9.836   1.828
90662W        W54430  13.245   2.273   1.312
90663W        W54431  10.874  12.800   4.784
90664W        W54432  22.655   0.471   1.746
90665W        W54433  31.148  30.519  13.964
90666W        W54434  12.824  28.678  12.000
90667W        W54435  28.635  33.001  12.922
90668W        W54436  26.036  40.475  12.888
90669W        W54437  13.766  13.808  12.039
90670W        W54438  23.048   4.340  10.931
90671W        W54439  41.961   5.850  12.950
90672W        W54440   5.912   7.281   1.813
90673W        W54441  18.160  23.693  11.478
90674W        W54442  40.438  26.020  14.873
90675W        W54443   2.385   6.918  12.944
90676W        W54444  30.104   2.820  14.309
90677W        W54445  35.107  41.344   1.434
90678W        W54446  11.155  37.544   4.132
90679W        W54447  11.771  41.961  10.564
90680W        W54448  22.168   1.434   4.268
90681W        W54449  11.323  17.083   4.246
90682W        W54450  34.094  39.484   3.836
90683W        W54451   2.827  32.031  11.866
90684W        W54452  26.646  28.567   1.365
90685W        W54453  17.153  38.880   0.373
90686W        W54454  12.628  41.460   3.203
90687W        W54455  28.038  39.859  10.939
90688W        W54456  39.484  12.198   2.331
90689W        W54457  21.657   2.348   4.172
90690W        W54458   5.892   4.299   1.230
90691W        W54459  36.550   9.772   1.890
90692W        W54460  21.125  27.165   4.116
90693W        W54461  40.547  41.463  10.068
90694W        W54462  38.960   9.361  13.975
90695W        W54463  25.167   1.773   0.930
90696W        W54464  15.223  31.096  10.565
90697W        W54465  19.075   7.322   2.818
90698W        W54466  18.786  34.435  12.888
90699W        W54467   5.289  14.669  13.017
90700W        W54468  39.832  15.256   3.717
90701W        W54469  26.678   8.293   1.924
90702W        W54470  39.815  35.087  13.480
90703W        W54471  19.255  41.329  11.500
90704W        W54472  30.627  38.069   4.622
90705W        W54473   3.267  44.933  12.520
90706W        W54474  29.487   2.288  13.989
90707W        W54475  21.738   5.216  11.979
90708W        W54476  26.644  31.496  14.940
90709W        W54477  11.289  17.723   1.327
90710W        W54478  42.437   7.327   1.865
90711W        W54479  31.971  14.161   3.193
90712W        W54480  15.230  10.162  13.425
90713W        W54481  11.640   2.461   0.820
90714W        W54482  25.053  11.214   3.713
90715W        W54483  43.345  19.580   0.841
90716W        W54484  31.639  20.093  13.913
90717W        W54485  33.002   9.698   0.781
90718W        W54486   2.944  16.728   1.271
90719W        W54487  37.936   2.282   3.209
90720W        W54488  41.798  35.010  10.579
90721W        W54489  19.048   7.382   0.955
90722W        W54490  11.316  36.098  11.541
90723W        W54491  40.387  35.972   0.733
90724W        W54492  16.759  31.922   3.167
90725W        W54493   4.434  20.577  12.364
90726W        W54494  19.237  19.547   3.248
90727W        W54495  39.010  28.013  13.855
90728W        W54496  41.377  44.266  14.926
90729W        W54497  32.436  14.197   1.735
90730W        W54498   8.317  24.521  11.974
90731W        W54499   1.277  40.522   4.155
90732W        W54500  40.323  29.533  10.029
90733W        W54501  33.028   1.281  13.421
90734W        W54502  44.951   3.310   4.728
90735W        W54503   9.889   0.813   2.808
90736W        W54504  22.148  31.518  13.319
90737W        W54505  32.096   8.396   1.701
90738W        W54506  15.762  17.751  14.024
90739W        W54507  31.418  32.434  11.102
90740W        W54508  42.977  37.066  14.947
90741W        W54509  26.505  24.073   3.634
90742W        W54510   0.298  21.202  12.340
90743W        W54511  34.876   0.838   4.642
90744W        W54512  18.771  10.342  14.814
90745W        W54513  29.176  17.255   4.636
90746W        W54514  39.814  14.807  11.586
90747W        W54515  27.623  12.660   5.103
90748W        W54516  12.710  24.125  12.931
90749W        W54517   8.308   9.652   3.357
90750W        W54518  28.608  30.128   4.290
90751W        W54519  19.613  23.664   1.213
90752W        W54520  25.079  41.533   1.418
90753W        W54521   2.892  10.352   2.344
90754W        W54522  17.704   5.388   3.344
90755W        W54523  21.126  40.368   3.262
90756W        W54524  29.924  22.580   4.248
90757W        W54525   9.345  36.002  13.398
90758W        W54526  32.069  30.907  11.947
90759W        W54527  28.564  19.154  10.894
90760W        W54528   1.756  43.769   2.730
90761W        W54529   4.241  23.100   2.210
90762W        W54530  26.031  30.522   1.820
90763W        W54531  32.015   1.237   4.791
90764W        W54532  22.084  25.045  13.502
90765W        W54533   4.373   2.934   4.349
90766W        W54534  24.617  10.191   1.396
90767W        W54535  35.454  27.132  11.513
90768W        W54536   8.175  16.631   3.662
90769W        W54537   0.341   9.665   4.188
90770W        W54538   9.250   4.847   3.815
90771W        W54539   9.648   2.392  11.036
90772W        W54540   0.309  28.036   3.830
90773W        W54541  39.064  21.059   3.673
90774W        W54542   5.236  26.980  13.033
90775W        W54543  29.589  43.356   2.406
90776W        W54544   4.440   7.887   3.681
90777W        W54545  41.983  16.746   4.798
90778W        W54546  21.070   5.914  14.367
90779W        W54547  36.961  28.613   2.196
90780W        W54548  14.732  32.017   3.263
90781W        W54549   7.868   7.256  12.852
90782W        W54550  38.397  44.982  13.843
90783W        W54551   7.894  34.598   1.399
90784W        W54552  14.157  44.778   4.318
90785W        W54553  27.150  22.049   2.758
90786W        W54554  25.170  26.542  12.469
90787W        W54555  39.880   7.191  12.063
90788W        W54556  20.712  41.023  13.421
90789W        W54557  11.788  23.564  14.913
90790W        W54558  20.631  44.381  13.335
90791W        W54559   6.229  22.640   1.395
90792W        W54560  41.953   7.305  13.334
90793W        W54561  21.255  27.691   2.740
90794W        W54562  26.573  36.943   9.960
90795W        W54563  41.483  25.650   3.684
90796W        W54564  32.140  15.154  13.022
90797W        W54565  18.697  21.557   3.731
90798W        W54566  16.191  20.076   5.124
90799W        W54567  34.522  30.093   2.249
90800W        W54568   7.752  44.411   2.198
90801W        W54569  42.793  29.568   1.421
90802W        W54570  41.474  14.214   4.802
90803W        W54571  41.829  15.657  12.373
90804W        W54572   6.808   9.344   1.734
90805W        W54573  28.567  36.975  12.935
90806W        W54574  14.684  44.472  12.353
90807W        W54575  39.046  35.452   1.212
90808W        W54576  30.579  19.111   4.688
90809W        W54577  38.073  13.699  12.935
90810W        W54578  29.152  28.944  14.855
90811W        W54579   0.963  22.182   4.833
90812W        W54580  28.465   6.738   0.405
90813W        W54581  17.616  22.224   1.410
90814W        W54582   1.810   9.668  14.347
90815W        W54583  30.435   4.811   3.361
90816W        W54584  27.953  41.508  14.411
90817W        W54585   1.760  18.574  10.424
90818W        W54586  25.186  39.338  13.943
90819W        W54587   1.776  41.335   0.299
90820W        W54588  32.110  11.187   4.142
90821W        W54589  16.130  22.129   5.312
90822W        W54590  23.022  21.190   0.457
90823W        W54591   6.757  42.319  12.901
90824W        W54592  43.358  10.641  11.925
90825W        W54593  17.690   2.925  11.587
90826W        W54594   8.655  37.882  14.454
90827W        W54595  41.457  16.311  10.572
90828W        W54596  11.173  31.903  12.397
90829W        W54597  32.943   3.805   3.870
90830W        W54598  42.407  11.136  13.873
90831W        W54599  43.469  32.045   2.263
90832W        W54600  33.039  38.860   3.834
90833W        W54601  15.196  13.663   9.625
90834W        W54602  12.694  43.848  14.333
90835W        W54603   7.224  25.981  12.927
90836W        W54604  20.654  36.994  13.495
90837W        W54605  13.203   5.348  13.936
90838W        W54606  39.460  29.638   0.881
90839W        W54607  28.061  11.195  10.600
90840W        W54608  24.102  36.525  12.869
90841W        W54609   9.245   1.382  13.910
90842W        W54610  13.829  40.507   2.214
90843W        W54611  28.085  13.681   1.394
90844W        W54612   8.669  40.817   4.597
90845W        W54613  21.166  19.258   0.439
90846W        W54614  44.260  27.078   3.248
90847W        W54615  10.146   4.431  11.405
90848W        W54616  35.484   4.426   0.365
90849W        W54617  30.420  40.029  11.567
90850W        W54618  25.526  27.187  11.484
90851W        W54619  13.664  36.037  10.600
90852W        W54620   6.336   5.303  12.361
90853W        W54621  24.219  40.974  13.862
90854W        W54622  29.949  16.147  10.075
90855W        W54623  19.097   4.376   3.378
90856W        W54624  24.668  40.303  13.471
90857W        W54625   5.720  13.244  12.519
90858W        W54626  17.579  28.984  11.531
90859W        W54627  12.689  14.326  11.963
90860W        W54628  31.508   1.854   0.900
90861W        W54629  35.934   4.917  14.896
90862W        W54630   5.215  43.514  12.501
90863W        W54631  18.644  24.718  13.322
90864W        W54632  41.865   7.693  12.365
90865W        W54633  31.109  30.474   0.840
90866W        W54634  24.629  38.354   0.418
90867W        W54635  27.601  13.773   0.350
90868W        W54636  38.365  10.698  13.437
90869W        W54637  43.888   0.293  10.985
90870W        W54638  41.040  21.611   3.284
90871W        W54639  16.234   8.741  13.405
90872W        W54640  30.032  12.216   4.754
90873W        W54641   5.270   3.242   4.221
90874W        W54642  44.381   5.699   3.809
90875W        W54643  11.130  29.591   1.779
90876W        W54644  21.755  42.496   0.363
90877W        W54645   0.797  14.333  11.058
90878W        W54646  14.157   3.256   0.407
90879W        W54647  40.892  19.592  13.014
90880W        W54648   2.356   9.724  14.762
90881W        W54649  44.405  38.013  12.539
90882W        W54650  14.695  34.544  13.852
90883W        W54651  18.732  15.238   2.335
90884W        W54652   6.760  19.171   1.371
90885W        W54653  35.056  30.064  12.354
90886W        W54654  31.569  33.583  11.867
90887W        W54655  14.121  42.809  11.859
90888W        W54656  33.560   4.745  14.486
90889W        W54657  10.761   1.749   1.721
90890W        W54658  41.948  35.571  11.576
90891W        W54659  38.890   1.782  10.502
90892W        W54660  35.502  38.551   2.369
90893W        W54661  36.061  24.609  10.472
90894W        W54662   3.447  20.536   2.239
90895W        W54663  41.537  22.626   2.306
90896W        W54664  25.514  43.357   3.714
90897W        W54665  26.663  18.247   1.763
90898W        W54666  26.469   0.365   3.282
90899W        W54667  35.978  22.554   3.198
90900W        W54668  27.136  19.627   3.294
90901W        W54669  30.956   4.890   1.700
90902W        W54670  25.130  35.416   1.285
90903W        W54671  12.214  41.291   3.383
90904W        W54672   8.753  11.290   4.304
90905W        W54673  42.391  33.387   0.844
90906W        W54674   4.838  25.217  13.313
90907W        W54675  32.934   3.437  11.553
90908W        W54676  38.375  34.050   2.305
90909W        W54677   8.313  33.005   3.158
90910W        W54678  31.608  31.564   0.881
90911W        W54679  24.149  25.646  11.992
90912W        W54680  42.395  24.515  13.352
90913W        W54681   7.835  40.045   2.718
90914W        W54682  21.086   8.744   4.347
90915W        W54683  25.664   7.183  14.988
90916W        W54684  31.476   0.884  13.381
90917W        W54685   9.875  34.035  12.046
90918W        W54686  36.056  10.733  10.639
90919W        W54687   0.328  27.519   0.878
90920W        W54688  43.473  23.665  11.406
90921W        W54689  35.437  41.309  12.954
90922W        W54690   8.377  33.559  13.036
90923W        W54691  15.272  25.542   4.764
90924W        W54692  12.749  16.183  13.929
90925W        W54693  26.131  27.971  13.454
90926W        W54694  11.796   4.435   2.370
90927W        W54695  12.146   8.700   0.372
90928W        W54696  19.186  24.521  11.063
90929W        W54697  31.439  21.515   1.323
90930W        W54698  11.155  11.778   0.800
90931W        W54699   9.736  24.034  10.535
90932W        W54700  13.623  18.169   4.622
90933W        W54701  36.946   5.916   1.740
90934W        W54702  10.180   2.462  11.573
90935W        W54703  16.799   4.312  12.073
90936W        W54704  22.645  25.692   1.448
90937W        W54705  37.842  41.029  13.017
90938W        W54706  36.936  44.474   2.397
90939W        W54707  16.792   8.200   4.215
90940W        W54708  37.387  26.698   3.778
90941W        W54709  21.725  35.422  12.918
90942W        W54710  41.436  16.782   3.168
90943W        W54711   9.643   0.366   4.688
90944W        W54712  43.384  12.150   4.163
90945W        W54713  31.604  11.320   2.827
90946W        W54714   7.726   2.886  12.450
90947W        W54715  38.065  16.278  11.967
90948W        W54716  28.615  15.714  12.511
90949W        W54717  22.253   9.714  14.849
90950W        W54718  27.148  14.306   2.803
90951W        W54719  23.125  35.444   3.704
90952W        W54720  36.425   5.370   4.817
90953W        W54721  33.569  17.768   0.913
90954W        W54722  39.372   7.353   9.439
90955W        W54723  42.975   6.405  11.419
90956W        W54724  36.923  38.990   4.189
90957W        W54725  32.902  15.662   0.252
90958W        W54726  44.391  36.521  13.915
90959W        W54727   3.886  12.651   2.892
90960W        W54728  24.162  17.181  13.921
90961W        W54729  26.591   5.925  12.022
90962W        W54730   5.718   0.355  14.891
90963W        W54731  29.556  28.535   4.155
90964W        W54732  42.783  23.179  14.849
90965W        W54733  13.134  17.276  10.153
90966W        W54734  12.196   9.152  14.478
90967W        W54735   2.418  22.615   2.326
90968W        W54736  41.309   3.749   2.857
90969W        W54737  29.602  38.969   1.251
90970W        W54738  27.586  24.213  10.622
90971W        W54739  26.628  35.518   3.231
90972W        W54740   1.862  26.074  13.423
90973W        W54741  12.310  10.844   9.587
90974W        W54742   4.717  13.191   3.172
90975W        W54743  12.718  15.678  13.902
90976W        W54744  13.339  19.537  10.923
90977W        W54745  29.150  36.389   4.638
90978W        W54746   0.382   9.646  11.926
90979W        W54747  39.324   9.266   2.758
90980W        W54748  38.025  31.074   3.717
90981W        W54749  11.685  26.166  13.352
90982W        W54750  18.285   4.206   2.399
90983W        W54751  20.689  43.515   2.715
90984W        W54752  12.671  13.275  14.473
90985W        W54753  44.980   6.869  10.633
90986W        W54754   3.751  13.257   0.273
90987W        W54755  39.476   2.742  12.444
90988W        W54756   7.351  38.987   1.750
90989W        W54757  11.324  22.670   2.394
90990W        W54758  24.182  43.859  12.523
90991W        W54759  38.925  26.080  12.061
90992W        W54760  43.964  13.349  13.474
90993W        W54761  23.062  33.517   0.419
90994W        W54762  44.010  26.595   2.319
90995W        W54763  26.472   2.878   0.810
90996W        W54764  16.717   0.478  13.326
90997W        W54765   6.922   7.760   4.639
90998W        W54766  29.649   0.459   1.875
90999W        W54767  10.661  21.194   3.824
91000W        W54768   2.386  39.553  11.487
91001W        W54769  27.151   7.791  14.838
91002W        W54770  27.151   8.707   3.306
91003W        W54771   9.801  32.620   0.755
91004W        W54772  28.653  17.244   3.262
91005W        W54773   9.804   2.964   4.291
91006W        W54774  14.312  42.300  14.466
91007W        W54775  13.695  19.286  11.562
91008W        W54776  36.980  38.565  11.609
91009W        W54777  21.743  13.829  13.821
91010W        W54778   0.956  31.067   0.877
91011W        W54779  24.632  20.235   1.336
91012W        W54780  40.922   6.384  12.964
91013W        W54781  35.582  17.089   0.789
91014W        W54782  43.420   1.917  14.870
91015W        W54783  37.031   4.392  14.999
91016W        W54784   2.839   5.349   3.294
91017W        W54785  40.024  22.681  10.526
91018W        W54786  24.193   3.949   0.756
91019W        W54787  32.395  11.255  13.424
91020W        W54788  37.513  17.608   0.326
91021W        W54789  22.039   3.292  12.915
91022W        W54790  33.609  44.268   4.808
91023W        W54791   1.936   5.712  11.583
91024W        W54792  41.454   2.763  10.462
91025W        W54793  32.995  43.826   0.795
91026W        W54794  24.096  34.963  12.849
91027W        W54795   5.254  30.585   1.783
91028W        W54796   3.354  20.195  13.884
91029W        W54797  29.071   2.314  11.550
91030W        W54798  39.836  13.156   3.701
91031W        W54799   7.842  21.752   2.704
91032W        W54800  22.690  35.963   1.781
91033W        W54801  36.919   1.286   0.356
91034W        W54802  39.930  27.114   4.295
91035W        W54803  35.923  22.126  14.439
91036W        W54804  41.916  33.523  11.512
91037W        W54805  42.446   1.443   0.946
91038W        W54806  21.691  34.921  11.076
91039W        W54807  23.730  23.586  11.871
91040W        W54808  44.774  39.987   4.243
91041W        W54809  17.126  21.521  14.924
91042W        W54810  40.522   2.928  14.331
91043W        W54811  23.057  35.096   1.829
91044W        W54812  43.499  34.371  14.968
91045W        W54813  29.634  23.032  13.986
91046W        W54814   1.771  35.472  11.107
91047W        W54815  37.341  30.601  12.523
91048W        W54816   4.737  19.061  13.941
91049W        W54817  36.410  17.094  10.948
91050W        W54818   4.751  34.032  11.403
91051W        W54819   5.200   1.378  13.984
91052W        W54820  18.126  34.887   2.344
91053W        W54821  40.844  18.239  11.443
91054W        W54822  13.669  26.589  12.900
91055W        W54823   9.701  21.233  12.041
91056W        W54824   9.162  26.571   4.791
91057W        W54825  15.244  15.223   2.787
91058W        W54826  23.028  10.758  11.040
91059W        W54827   7.320  21.722  14.477
91060W        W54828  26.674   5.854   0.346
91061W        W54829  36.095  39.368  12.347
91062W        W54830  28.954  16.721   3.209
91063W        W54831  20.078   6.376   3.212
91064W        W54832  12.657  39.007   3.196
91065W        W54833  25.523   0.801   0.865
91066W        W54834  42.377  32.602   2.249
91067W        W54835  31.500  11.174   0.881
91068W        W54836  36.523  43.511  12.863
91069W        W54837   9.158  18.551  13.958
91070W        W54838  22.240  20.684  14.386
91071W        W54839   4.397  26.051   2.345
91072W        W54840  42.806  27.533   9.963
91073W        W54841  42.305  19.140   3.343
91074W        W54842  29.665  12.690   1.870
91075W        W54843   9.263  10.275  13.002
91076W        W54844  33.431  37.570   1.734
91077W        W54845  29.017  39.024  10.977
91078W        W54846  10.220  13.757  13.985
91079W        W54847   8.881  39.402  10.914
91080W        W54848  41.937   5.398  13.377
91081W        W54849  11.220   9.694   5.792
91082W        W54850   6.352  40.451  13.544
91083W        W54851   2.399  30.527  10.916
91084W        W54852   2.848  44.452  13.897
91085W        W54853  30.139  34.026  11.017
91086W        W54854  11.366  39.400  10.464
91087W        W54855  12.663  41.901   0.394
91088W        W54856  10.150  11.357   1.220
91089W        W54857   1.435  32.596  10.583
91090W        W54858  26.676  25.179  13.314
91091W        W54859  10.231   6.330  13.324
91092W        W54860  32.580  28.671  11.978
91093W        W54861  19.185  10.632  14.821
91094W        W54862   5.832   6.255  13.350
91095W        W54863  31.950  24.628   3.310
91096W        W54864   5.849  15.667  14.967
91097W        W54865   7.361  33.602  13.416
91098W        W54866  15.673   1.748  13.820
91099W        W54867   2.841   4.261   3.734
91100W        W54868  20.172  12.637   9.953
91101W        W54869  35.105  38.987   4.325
91102W        W54870  15.591  22.686  11.435
91103W        W54871   0.876  12.752  12.483
91104W        W54872  11.759  35.505   2.860
91105W        W54873  31.074  18.650   2.335
91106W        W54874  33.460   2.465   0.408
91107W        W54875  17.772  41.013  12.834
91108W        W54876  29.061  39.824  13.816
91109W        W54877  42.863  34.438   2.288
91110W        W54878   4.929  43.512  10.535
91111W        W54879   5.771   4.868  11.885
91112W        W54880  29.424  39.922  13.865
91113W        W54881  17.700  17.618  14.487
91114W        W54882   2.358   3.436  13.048
91115W        W54883   0.881  33.947  11.402
91116W        W54884  39.957  36.934   0.944
91117W        W54885  20.572   9.243  13.481
91118W        W54886  29.654  10.693   2.207
91119W        W54887  17.742  26.568   4.713
91120W        W54888   7.716  30.160   3.857
91121W        W54889   1.335  29.535  11.962
91122W        W54890  14.142  25.515   2.761
91123W        W54891   8.792  28.622   4.256
91124W        W54892  16.720  16.106  13.340
91125W        W54893  15.769   9.241  13.434
91126W        W54894  18.765  10.751   1.277
91127W        W54895  42.823  35.062  14.923
91128W        W54896  27.503  42.320   3.373
91129W        W54897   6.192   6.327  10.473
91130W        W54898  34.056   0.286   3.726
91131W        W54899  14.658  36.982   4.138
91132W        W54900   2.298  33.997   2.872
91133W        W54901  11.671  24.633  13.048
91134W        W54902  27.105   6.779  11.002
91135W        W54903  29.661  26.951   1.786
91136W        W54904   8.309   5.284  11.380
91137W        W54905  38.848  20.253   4.290
91138W        W54906  44.414   1.346  12.054
91139W        W54907   1.442   9.801   4.254
91140W        W54908  31.502  14.298  12.437
91141W        W54909  40.931   5.293  13.992
91142W        W54910   7.202  20.707  10.906
91143W        W54911  18.609  18.273  12.910
91144W        W54912  24.076  44.942  12.847
91145W        W54913  20.629  36.570   4.759
91146W        W54914  13.766  31.525  12.573
91147W        W54915  10.828   0.985   0.295
91148W        W54916  19.241   8.273   4.338
91149W        W54917  37.957   2.257  11.469
91150W        W54918  25.633  11.280  13.359
91151W        W54919   9.829  36.935  12.871
91152W        W54920  31.574  29.128  13.015
91153W        W54921  29.016   8.858   3.755
91154W        W54922  32.124  33.124   1.811
91155W        W54923   4.889  27.032  12.848
91156W        W54924  21.098   7.302  12.453
91157W        W54925  19.183  32.394   2.277
91158W        W54926   2.365  14.660   0.857
91159W        W54927  35.100  25.532   0.327
91160W        W54928   8.388   2.859  10.958
91161W        W54929   5.225   4.384  10.533
91162W        W54930   4.766  28.647   0.755
91163W        W54931  22.531   0.409   2.876
91164W        W54932  18.777  44.798   3.794
91165W        W54933  15.765  19.174  11.937
91166W        W54934  35.596  16.579  13.438
91167W        W54935  26.613  20.117   4.319
91168W        W54936  44.353  35.894  13.037
91169W        W54937  40.370  35.076  12.411
91170W        W54938  43.387  26.052  14.433
91171W        W54939   4.210  41.295  10.937
91172W        W54940   2.426  10.763  10.523
91173W        W54941  25.601   8.374   1.836
91174W        W54942  27.953  26.128  12.080
91175W        W54943  17.135   9.868  13.359
91176W        W54944  32.485   3.817  12.020
91177W        W54945   7.753  13.260  12.848
91178W        W54946  33.578  13.799   0.273
91179W        W54947  36.415  21.673   1.373
91180W        W54948   7.212  10.209  11.974
91181W        W54949   3.923  27.049  12.910
91182W        W54950  28.602  39.944  11.557
91183W        W54951  35.486  13.816   1.907
91184W        W54952  27.657   9.191   2.888
91185W        W54953  31.477   0.303  10.514
91186W        W54954  37.507  30.566  13.030
91187W        W54955  43.990  12.610   0.766
91188W        W54956  38.063  33.914   1.353
91189W        W54957  36.360  29.942   2.371
91190W        W54958  15.652  32.087  10.094
91191W        W54959  20.095  22.179  14.789
91192W        W54960  18.295  35.363   1.382
91193W        W54961  27.028  37.052  14.020
91194W        W54962  20.591   0.978  12.088
91195W        W54963   7.680   8.734  14.877
91196W        W54964   0.282  43.912   4.627
91197W        W54965  10.257  39.982  14.468
91198W        W54966  35.012   1.864   0.763
91199W        W54967  10.874  44.854  12.883
91200W        W54968  29.041  20.116  13.030
91201W        W54969   4.424  37.026   5.288
91202W        W54970  32.069  26.107  10.538
91203W        W54971  28.051  31.998   1.919
91204W        W54972  25.073  39.046  14.350
91205W        W54973  21.168  13.631  12.373
91206W        W54974  30.552  11.290  12.356
91207W        W54975  41.417   9.792   4.230
91208W        W54976   2.264  41.868   2.227
91209W        W54977  41.399  27.102  10.537
91210W        W54978   2.800   2.409  12.399
91211W        W54979  38.446   4.698  12.513
91212W        W54980  37.404   8.694   3.751
91213W        W54981  26.056  32.027   4.342
91214W        W54982   1.353  34.378   0.787
91215W        W54983   7.375  20.115   0.943
91216W        W54984  23.115  43.423  12.032
91217W        W54985  18.664   1.868   0.769
91218W        W54986  24.089   1.748  11.441
91219W        W54987   9.373  20.124   0.818
91220W        W54988  44.497  18.141   4.182
91221W        W54989  23.201  16.154   2.219
91222W        W54990  29.654  20.050   3.367
91223W        W54991   9.653  36.431   0.891
91224W        W54992  32.598  41.812  11.450
91225W        W54993  21.121  28.609   1.402
91226W        W54994  43.454  20.048   0.408
91227W        W54995  28.103  37.557   4.628
91228W        W54996  39.993  11.706  13.489
91229W        W54997  17.558  40.998  10.541
91230W        W54998  39.821  15.172  10.623
91231W        W54999   7.854  14.209   2.201
91232W        W55000  44.435  13.243  11.498
91233W        W55001  44.902  43.893  13.447
91234W        W55002  15.622   0.490  13.029
91235W        W55003  28.679  31.898   0.328
91236W        W55004  34.035  11.648  13.337
91237W        W55005  33.940  37.407  10.418
91238W        W55006  28.635  42.293   3.299
91239W        W55007  13.206   0.965  12.450
91240W        W55008   3.841  12.683  10.920
91241W        W55009  31.989  20.028  14.022
91242W        W55010  30.642  18.754  13.966
91243W        W55011   4.784  31.425   2.872
91244W        W55012  38.506  32.028   4.791
91245W        W55013  21.675  12.256   1.423
91246W        W55014   2.906  15.590   4.788
91247W        W55015  14.330  42.367   2.838
91248W        W55016  44.835   9.854  10.954
91249W        W55017  27.095  33.541  11.053
91250W        W55018  31.535   1.731  10.512
91251W        W55019  16.279  35.934   2.714
91252W        W55020  19.108  33.466  14.775
91253W        W55021  33.533  32.480   4.640
91254W        W55022  21.081  35.483   2.322
91255W        W55023   6.910  35.501   3.806
91256W        W55024  37.466   8.201   0.410
91257W        W55025  33.875  22.589   0.264
91258W        W55026  14.235  16.313   0.958
91259W        W55027  35.520  37.484   1.764
91260W        W55028  39.872  18.100  11.022
91261W        W55029   6.292  36.993   0.250
91262W        W55030  42.364  19.756  10.590
91263W        W55031   4.304  39.333  14.899
91264W        W55032  16.142  10.781   3.341
91265W        W55033  14.211  43.480   5.286
91266W        W55034  16.614  30.959   0.740
91267W        W55035  13.223  38.857   4.670
91268W        W55036  27.619  20.132  12.437
91269W        W55037   7.369  15.222  10.573
91270W        W55038  30.562  38.869  11.599
91271W        W55039   4.861   2.248   3.648
91272W        W55040  40.914  28.484  14.911
91273W        W55041   8.854  12.709   0.275
91274W        W55042  35.540  41.323   0.321
91275W        W55043  17.108  24.004  14.436
91276W        W55044   1.260  18.746   4.231
91277W        W55045  40.905  24.179   2.670
91278W        W55046   5.247  22.672  12.879
91279W        W55047  10.362  40.957   0.806
91280W        W55048  21.675   3.305  11.959
91281W        W55049  12.199  12.137   1.316
91282W        W55050  42.009  28.046  10.058
91283W        W55051  13.744  42.435  13.920
91284W        W55052  37.453  14.661  10.976
91285W        W55053  14.241  16.591   2.205
91286W        W55054  17.131  33.014  11.576
91287W        W55055   3.940  18.615  14.494
91288W        W55056  30.482   2.923   0.387
91289W        W55057  27.025  28.975  12.048
91290W        W55058  18.753  28.571   2.346
91291W        W55059  29.541  39.997  14.848
91292W        W55060  27.554  20.239  14.288
91293W        W55061   9.802   9.800   2.287
91294W        W55062  26.955  12.213   2.842
91295W        W55063  18.277  37.366  12.044
91296W        W55064  15.805  25.663  12.075
91297W        W55065  37.956  37.453  14.361
91298W        W55066  10.825   4.246  13.486
91299W        W55067  14.724  32.908   3.676
91300W        W55068  14.756  26.468  14.012
91301W        W55069  31.953  37.366  13.015
91302W        W55070  13.121   1.303  10.621
91303W        W55071  35.579  34.904   2.344
91304W        W55072   9.776   2.724  13.027
91305W        W55073   6.722  32.134  12.899
91306W        W55074  31.929  30.421  11.082
91307W        W55075  18.187  19.538   4.147
91308W        W55076   8.296  41.812  13.940
91309W        W55077  42.416  27.660  11.993
91310W        W55078  18.638  36.843   2.332
91311W        W55079   2.269  19.639   3.385
91312W        W55080  27.448  37.971  12.083
91313W        W55081  12.664  21.694  13.000
91314W        W55082  35.897  18.204   1.431
91315W        W55083  27.686  30.561   0.463
91316W        W55084  41.830  34.986   4.800
91317W        W55085  14.128  40.043   4.299
91318W        W55086  11.720  39.852   2.764
91319W        W55087   5.903   3.387  10.584
91320W        W55088  32.053   9.204  12.985
91321W        W55089  39.810  16.702  11.402
91322W        W55090  37.416  27.672   0.763
91323W        W55091   2.398  21.093   0.773
91324W        W55092  22.093  14.662   2.697
91325W        W55093  40.975  31.425   3.650
91326W        W55094  18.722   7.873  13.401
91327W        W55095  11.711   3.815   2.393
91328W        W55096  30.625  33.971  13.463
91329W        W55097  12.356  27.619  12.447
91330W        W55098  21.540  44.762   2.718
91331W        W55099  18.239  37.948   3.370
91332W        W55100  20.044  37.491  11.868
91333W        W55101  26.172  43.437   1.241
91334W        W55102  15.315  12.720   3.638
91335W        W55103  40.878  25.578   2.310
91336W        W55104  16.096  10.199  12.053
91337W        W55105  13.289  42.288  14.853
91338W        W55106  17.746  28.005   3.757
91339W        W55107   1.797  35.093  14.296
91340W        W55108   8.807  11.754   3.356
91341W        W55109  37.421  15.152  14.912
91342W        W55110   8.213  22.081  10.576
91343W        W55111  35.890  42.377  14.831
91344W        W55112  21.071  30.986  10.566
91345W        W55113  28.485  29.616  12.046
91346W        W55114  13.350  22.652  12.917
91347W        W55115  40.869  23.142  10.618
91348W        W55116  37.538  31.407  12.941
91349W        W55117  37.361   5.354   0.471
91350W        W55118   1.937  30.053   0.459
91351W        W55119   1.267  29.947   4.762
91352W        W55120   8.667  24.985   3.350
91353W        W55121  37.836  26.579   3.831
91354W        W55122  10.294  24.116   1.434
91355W        W55123  22.072   7.835  10.908
91356W        W55124  40.502   0.850  12.869
91357W        W55125  26.534  29.482  13.461
91358W        W55126  40.835   3.425  10.457
91359W        W55127   3.857  26.545   1.705
91360W        W55128  42.013  28.585  11.597
91361W        W55129  30.117  42.783   3.680
91362W        W55130   6.270   0.984   0.437
91363W        W55131  10.221   1.826   3.350
91364W        W55132  41.376   0.804   3.824
91365W        W55133  14.626   0.966   2.727
91366W        W55134  31.917  14.732   5.250
91367W        W55135   5.892   7.287  13.535
91368W        W55136   4.780  15.585   1.310
91369W        W55137  20.053   0.867   0.408
91370W        W55138  43.394  34.073  14.807
91371W        W55139  15.258  25.506   1.382
91372W        W55140   1.945  44.946  14.512
91373W        W55141  41.829  15.685  11.920
91374W        W55142   4.778   2.741  12.911
91375W        W55143   0.430  26.135   4.658
91376W        W55144  17.074  32.106   9.559
91377W        W55145  28.009   9.845   3.276
91378W        W55146  30.114   0.777   1.736
91379W        W55147  20.606  36.925   3.244
91380W        W55148   3.401  30.037   2.665
91381W        W55149  33.394  27.023   0.281
91382W        W55150  42.952   1.403  10.408
91383W        W55151  30.964  13.740  13.835
91384W        W55152  22.722  35.972   4.316
91385W        W55153  16.104  31.971   2.224
91386W        W55154  35.935  32.962  14.900
91387W        W55155  36.390  40.903   2.674
91388W        W55156  35.387  37.831  10.897
91389W        W55157  36.852  10.823  13.939
91390W        W55158  15.678  27.467   1.267
91391W        W55159  35.874  41.974   0.873
91392W        W55160  44.340  32.495   2.311
91393W        W55161  28.435  22.141   3.336
91394W        W55162   0.948  27.639  10.524
91395W        W55163  36.389  16.134  13.794
91396W        W55164  29.049  28.516  10.589
91397W        W55165   8.789  34.436   3.847
91398W        W55166  38.830  30.600   1.281
91399W        W55167  34.398  20.721   3.798
91400W        W55168  17.112  19.687   3.801
91401W        W55169  40.537  18.208  13.358
91402W        W55170  30.447  20.045   4.708
91403W        W55171  25.063   9.673   5.285
91404W        W55172  22.203  10.220   0.834
91405W        W55173  27.062  41.831   3.731
91406W        W55174  37.883  12.270   2.310
91407W        W55175   0.263  36.381  10.899
91408W        W55176  41.419  19.252  11.947
91409W        W55177   6.710   0.294  12.898
91410W        W55178  40.520  41.481   1.881
91411W        W55179  43.890  44.947  13.394
91412W        W55180  40.857  38.519   1.708
91413W        W55181  37.558  29.650  13.311
91414W        W55182   8.829   2.439   0.306
91415W        W55183   1.399  11.755   1.726
91416W        W55184  19.673  26.187  12.867
91417W        W55185  36.587  22.697   2.313
91418W        W55186  38.378  35.398   4.199
91419W        W55187  41.944  20.210   3.189
91420W        W55188   9.380   9.303  14.497
91421W        W55189   4.227  18.283   4.172
91422W        W55190  30.109  15.238  14.445
91423W        W55191  20.264  25.588   1.281
91424W        W55192  42.358  26.120  12.054
91425W        W55193   2.367  36.543  14.929
91426W        W55194   0.429  36.945   0.339
91427W        W55195  26.092  12.178  13.326
91428W        W55196  10.818   9.751   0.883
91429W        W55197  19.546   0.943   4.260
91430W        W55198  38.985  16.155   3.238
91431W        W55199  11.833  16.231   1.791
91432W        W55200   0.757   0.832   0.949
91433W        W55201  27.999  42.353  11.547
91434W        W55202  11.648  13.284  13.372
91435W        W55203  44.494  44.758   4.276
91436W        W55204  42.031  15.281  12.577
91437W        W55205   1.752  34.481   0.864
91438W        W55206   8.890   1.432   0.929
91439W        W55207  16.761  38.932   0.773
91440W        W55208   0.405  25.049   0.296
91441W        W55209  26.144  18.264   0.396
91442W        W55210  15.782  39.904   5.091
91443W        W55211  43.776  31.123   0.830
91444W        W55212   3.345  27.190  11.037
91445W        W55213  36.056  37.067  14.013
91446W        W55214  34.087   2.368  12.481
91447W        W55215  39.554  38.022   3.804
91448W        W55216  41.954  10.637   2.702
91449W        W55217   4.220  18.154  10.496
91450W        W55218  32.522  38.353   0.729
91451W        W55219  26.107  40.012   0.763
91452W        W55220  41.297   9.387   4.747
91453W        W55221  12.266   3.350  10.901
91454W        W55222  28.564  20.635   0.432
91455W        W55223  16.756  18.653   0.245
91456W        W55224  20.593   3.293  12.342
91457W        W55225  21.685  16.174  14.297
91458W        W55226  37.979  31.640   1.223
91459W        W55227  24.610  43.456  11.861
91460W        W55228  42.866  24.997  10.057
91461W        W55229  39.427  31.939  14.848
91462W        W55230   8.260  40.986   3.808
91463W        W55231   9.754  21.237   2.886
91464W        W55232   0.336  23.522  13.822
91465W        W55233   5.863  30.654  14.497
91466W        W55234  11.133  31.553   4.340
91467W        W55235  17.605  35.540   0.879
91468W        W55236  21.220   1.329  14.006
91469W        W55237  37.507  20.264   0.893
91470W        W55238  36.469   2.413   3.355
91471W        W55239   8.834  15.664  13.405
91472W        W55240  27.056  15.735   3.635
91473W        W55241  20.628  39.546  10.644
91474W        W55242  31.506  30.611   0.350
91475W        W55243  36.905  16.676  13.366
91476W        W55244  16.310  13.287   4.307
91477W        W55245   8.352   9.728   3.655
91478W        W55246  12.741  17.078   2.743
91479W        W55247  10.231  37.945  13.826
91480W        W55248   1.327  32.428   0.744
91481W        W55249  42.300  32.470   3.272
91482W        W55250  12.768  14.096  14.901
91483W        W55251  26.616  22.615  10.418
91484W        W55252  29.949  20.652   4.651
91485W        W55253  19.601  22.745  10.593
91486W        W55254  40.899   0.742   3.647
91487W        W55255  25.193  32.447   2.880
91488W        W55256  23.995  19.223   2.264
91489W        W55257  35.031   2.862  10.905
91490W        W55258  32.919  13.283   0.405
91491W        W55259  42.803  15.739   2.381
91492W        W55260  18.685   5.293   3.863
91493W        W55261  21.223  26.206  12.560
91494W        W55262  37.517  10.156   3.820
91495W        W55263  21.683  36.870   2.856
91496W        W55264  30.154  29.046   0.339
91497W        W55265   4.924   6.271  10.900
91498W        W55266  33.487  28.515   0.894
91499W        W55267   3.404  13.309   2.226
91500W        W55268   6.348  30.048  11.925
91501W        W55269  11.776  44.296   0.780
91502W        W55270  32.059  41.025   0.846
91503W        W55271  39.955  18.769  12.835
91504W        W55272  19.238  44.806  13.983
91505W        W55273  10.161  16.753  10.524
91506W        W55274  23.601  24.219   2.683
91507W        W55275  30.081   6.341   4.353
91508W        W55276  34.498   3.322   4.242
91509W        W55277  10.812  42.365  11.478
91510W        W55278  42.339  37.936  12.992
91511W        W55279   0.975  42.909  12.518
91512W        W55280  42.437   0.461   2.780
91513W        W55281  13.152  19.151  14.788
91514W        W55282  36.970  31.065   4.601
91515W        W55283  37.914  38.423   2.751
91516W        W55284   7.740  41.006  13.350
91517W        W55285  15.809  44.821  11.595
91518W        W55286  39.894  29.039  10.531
91519W        W55287  33.535  16.242   3.731
91520W        W55288   8.835  11.168   1.403
91521W        W55289  29.103  12.762  13.458
91522W        W55290  41.322  20.594  12.365
91523W        W55291  13.325   9.148   3.849
91524W        W55292  25.512  37.515  14.343
91525W        W55293   5.886  16.637  13.372
91526W        W55294  38.422  44.801   4.147
91527W        W55295  31.031  31.061   2.247
91528W        W55296  28.588   5.331  11.011
91529W        W55297  38.935   9.802   4.295
91530W        W55298  43.315  27.630   2.383
91531W        W55299   0.776  42.787  10.558
91532W        W55300  30.489  27.117   2.379
91533W        W55301  30.579  11.222   2.669
91534W        W55302  37.390   5.374   1.785
91535W        W55303  28.551  38.898  13.370
91536W        W55304  14.163  43.480  12.372
91537W        W55305  11.252  17.185   1.701
91538W        W55306  40.008  14.717   3.273
91539W        W55307   0.913   9.665   4.687
91540W        W55308  26.606  13.260   0.837
91541W        W55309   0.366   6.787  13.526
91542W        W55310  34.919  38.039  13.831
91543W        W55311  35.505  21.654   3.222
91544W        W55312  27.185   5.362  14.970
91545W        W55313  29.655  16.723   9.539
91546W        W55314  19.721  33.875   3.367
91547W        W55315   9.705  43.965  11.891
91548W        W55316  34.088  33.430   3.652
91549W        W55317   7.874  18.242   0.451
91550W        W55318  18.612   2.401  13.548
91551W        W55319  42.904  17.070   0.864
91552W        W55320   7.767   0.825   1.348
91553W        W55321  18.720  35.385  11.042
91554W        W55322  37.504  34.918   2.414
91555W        W55323  27.966   6.721   0.274
91556W        W55324  20.197  40.943   4.642
91557W        W55325  38.015  18.573   3.206
91558W        W55326  44.308   6.265  11.125
91559W        W55327  37.516  27.577   4.146
91560W        W55328  32.016  27.472   2.204
91561W        W55329  24.715   7.879   4.211
91562W        W55330  39.368  34.070   1.749
91563W        W55331  18.658  40.370  12.393
91564W        W55332  21.576  32.951   4.251
91565W        W55333  42.942  44.290  13.370
91566W        W55334  31.538  23.729   4.616
91567W        W55335  28.486  23.679   0.423
91568W        W55336  10.640   5.295   4.659
91569W        W55337  40.029   8.870  12.044
91570W        W55338  25.508   9.658  13.812
91571W        W55339  26.457   6.685   4.627
91572W        W55340  16.697  27.652  13.928
91573W        W55341  20.614  12.249  12.078
91574W        W55342  39.984  34.892  13.941
91575W        W55343  15.811   8.838   3.171
91576W        W55344  20.659   3.713  12.044
91577W        W55345  43.270  13.716  13.057
91578W        W55346  10.160  16.634   0.948
91579W        W55347  26.124   7.239   3.177
91580W        W55348  29.553   3.424   4.209
91581W        W55349  29.086  11.674   2.247
91582W        W55350  22.626   0.340   5.245
91583W        W55351  19.625  38.513  11.560
91584W        W55352  23.736   4.314   0.312
91585W        W55353  14.167   9.204   1.849
91586W        W55354  35.534  34.886  11.985
91587W        W55355  20.581  39.324   3.234
91588W        W55356  44.953   8.365  12.935
91589W        W55357   1.964  43.902   4.816
91590W        W55358  19.151   2.272  12.421
91591W        W55359  43.515   3.878   1.846
91592W        W55360  21.047  16.608   1.292
91593W        W55361  43.334  35.407  10.551
91594W        W55362  21.050  11.723   1.374
91595W        W55363  30.476  17.579   0.373
91596W        W55364  43.388  30.970  13.032
91597W        W55365  38.373  27.150   1.408
91598W        W55366   0.344   3.296  11.944
91599W        W55367  22.026  38.912  11.405
91600W        W55368   5.219   9.326   0.482
91601W        W55369  21.032  30.948   2.719
91602W        W55370  36.052   0.304   3.292
91603W        W55371  22.558  25.156  12.493
91604W        W55372  25.681  13.267  13.406
91605W        W55373   8.295  13.118  13.061
91606W        W55374   5.909  24.047  12.359
91607W        W55375   9.700  19.631  14.513
91608W        W55376  43.362   2.375   0.447
91609W        W55377  36.864  26.632   0.359
91610W        W55378  43.345  18.680  11.950
91611W        W55379  11.746  10.287  13.868
91612W        W55380   3.797  18.778   3.773
91613W        W55381  14.675  23.723   1.800
91614W        W55382  29.473   3.728   3.241
91615W        W55383  44.288  12.269  11.003
91616W        W55384   7.785  34.589  11.544
91617W        W55385  22.605  24.000   1.847
91618W        W55386  25.134  20.612   2.870
91619W        W55387  30.099  16.241   3.347
91620W        W55388   6.409  27.016   4.155
91621W        W55389  38.417  39.460   4.301
91622W        W55390  38.848   0.829   3.846
91623W        W55391  35.029  42.321  14.310
91624W        W55392  20.199  39.880  13.332
91625W        W55393  38.871  19.736   4.328
91626W        W55394  13.197  39.995  12.862
91627W        W55395  36.064  19.113  10.946
91628W        W55396  36.074  20.169  10.474
91629W        W55397  12.744  28.131  13.994
91630W        W55398  31.999  41.831  13.047
91631W        W55399   3.265  39.413   4.301
91632W        W55400  35.530   8.251  11.055
91633W        W55401  10.732  32.064   0.306
91634W        W55402  27.153  14.741   2.866
91635W        W55403  20.658  32.549   4.740
91636W        W55404  39.443  20.731  12.892
91637W        W55405  17.636  36.065   1.799
91638W        W55406  26.151  30.021  12.542
91639W        W55407  32.914  17.618   0.821
91640W        W55408  37.370  37.074   4.762
91641W        W55409  26.154  32.983  13.526
91642W        W55410  14.257  28.093  12.004
91643W        W55411  24.640  40.342  11.508
91644W        W55412  39.449  38.556  13.818
91645W        W55413  26.092  42.419  10.542
91646W        W55414  14.683  17.112  11.106
91647W        W55415   6.680  44.988  10.570
91648W        W55416  35.025  18.706  10.037
91649W        W55417  16.109  38.073   0.757
91650W        W55418  28.990   8.282  13.007
91651W        W55419   9.352  38.404  14.990
91652W        W55420  30.102   8.257  12.417
91653W        W55421  27.482  12.189  13.845
91654W        W55422  13.226  19.201  11.107
91655W        W55423   2.915   2.738  11.570
91656W        W55424  22.130  15.298  11.401
91657W        W55425  29.428  35.869   2.807
91658W        W55426  43.814  41.366  14.969
91659W        W55427  41.941   7.190   0.382
91660W        W55428  27.506  12.768  12.535
91661W        W55429  26.989  41.478  11.427
91662W        W55430   7.189  12.635   2.283
91663W        W55431  32.595  15.316  10.504
91664W        W55432  40.804  16.811   4.116
91665W        W55433  22.699   6.373  13.347
91666W        W55434  41.359   9.316   0.305
91667W        W55435  22.535  16.154   2.822
91668W        W55436  13.717   9.703   1.374
91669W        W55437  25.211  22.249  13.406
91670W        W55438   9.826  21.112   3.758
91671W        W55439   2.254  23.055  13.442
91672W        W55440  36.499  32.984   2.248
91673W        W55441  28.078  19.677   0.932
91674W        W55442  35.571  22.722   1.272
91675W        W55443  35.432  18.290   2.371
91676W        W55444  10.365   6.768   3.731
91677W        W55445   5.273  15.648  14.306
91678W        W55446  43.990  43.876  14.814
91679W        W55447  10.189   2.871  14.434
91680W        W55448  25.191  42.007  14.328
91681W        W55449  19.173  36.568  10.913
91682W        W55450   6.816  32.119   0.821
91683W        W55451  16.249  43.808   3.693
91684W        W55452   8.397   0.902  12.393
91685W        W55453  30.040  26.193   2.193
91686W        W55454  42.989  16.668   2.768
91687W        W55455  39.954  33.003   0.870
91688W        W55456  14.669  40.911   1.280
91689W        W55457  31.588   8.215   3.378
91690W        W55458   7.285  41.008  13.340
91691W        W55459  22.038  26.672  11.411
91692W        W55460   4.868  13.844  14.296
91693W        W55461  44.403  40.892   2.263
91694W        W55462   0.926  20.113   0.802
91695W        W55463   4.437  39.411  13.946
91696W        W55464  27.502  23.055   3.183
91697W        W55465  25.543  21.656   4.127
91698W        W55466  15.623  12.140   3.678
91699W        W55467  29.066   0.878   0.850
91700W        W55468  14.808  31.954   2.390
91701W        W55469  11.278  24.230   1.336
91702W        W55470  21.619  25.007   5.292
91703W        W55471  33.105  22.690   4.763
91704W        W55472   1.758  28.163   2.860
91705W        W55473  32.107  14.659  13.943
91706W        W55474  43.793  18.155   3.240
91707W        W55475   2.325   3.908   1.415
91708W        W55476  27.634  23.604   1.810
91709W        W55477   8.720   1.761   2.299
91710W        W55478   7.206  15.136  13.313
91711W        W55479  15.243   0.494  12.553
91712W        W55480  31.465  16.287  13.846
91713W        W55481  42.776   9.646  13.867
91714W        W55482  29.034   5.390   4.764
91715W        W55483  13.826   7.391   0.941
91716W        W55484  28.182  27.974   4.119
91717W        W55485   5.347  36.850  14.470
91718W        W55486  22.569  36.867   0.420
91719W        W55487  42.000  42.450  11.604
91720W        W55488  34.105  21.252   0.803
91721W        W55489  16.639  20.605   3.205
91722W        W55490  36.076  40.951  13.487
91723W        W55491  24.505  16.248  13.980
91724W        W55492   2.236  19.111   1.313
91725W        W55493  36.943  34.927  12.038
91726W        W55494  10.217  38.878  10.554
91727W        W55495   0.375   0.311  13.528
91728W        W55496  21.146  29.945   1.776
91729W        W55497   2.913  40.510   2.402
91730W        W55498  41.985  20.673   0.947
91731W        W55499  37.569  34.413  13.510
91732W        W55500  10.774   1.448   1.879
91733W        W55501   6.273  12.275   2.226
91734W        W55502  13.211  44.427   3.850
91735W        W55503  13.776  17.713  11.490
91736W        W55504   9.302   3.898   3.782
91737W        W55505  32.909   2.286   0.458
91738W        W55506   6.344   7.406   9.988
91739W        W55507  30.915  30.507  14.342
91740W        W55508  41.937   6.704   4.700
91741W        W55509  42.910  29.950   3.828
91742W        W55510  28.504  22.508  10.489
91743W        W55511  41.365  25.058   2.419
91744W        W55512  32.997  32.407   3.211
91745W        W55513  31.940  41.520  12.371
91746W        W55514   7.242  37.443   4.671
91747W        W55515  15.254  28.098   1.821
91748W        W55516  16.609  37.512  10.425
91749W        W55517   5.888   2.307  13.335
91750W        W55518  11.301   9.790  14.511
91751W        W55519  30.972  25.107   2.780
91752W        W55520  29.612  39.012   3.243
91753W        W55521  21.753  19.776  11.494
91754W        W55522  39.315  10.726   1.830
91755W        W55523  21.111  37.965   1.244
91756W        W55524  19.575   7.902   3.199
91757W        W55525  26.148  10.141   1.450
91758W        W55526  32.466  20.089   0.390
91759W        W55527  40.802  11.167  11.573
91760W        W55528  44.385  21.220   5.222
91761W        W55529  18.593  14.288   5.274
91762W        W55530   0.284  12.742  14.806
91763W        W55531   2.784  14.209  11.955
91764W        W55532  42.808  44.778   1.872
91765W        W55533  30.107   9.722  11.515
91766W        W55534  23.535  21.654  12.891
91767W        W55535  35.919  33.460   2.747
91768W        W55536   5.709  26.635   3.807
91769W        W55537  12.311  23.161   4.135
91770W        W55538  21.692  28.642   4.186
91771W        W55539  24.552  25.528   2.395
91772W        W55540  29.964  11.854   4.307
91773W        W55541  15.090   3.416   2.815
91774W        W55542  40.376   6.882  13.880
91775W        W55543  10.792  35.906   3.853
91776W        W55544  19.226  31.004  11.105
91777W        W55545  12.736  31.000   2.184
91778W        W55546  16.232  28.672   0.273
91779W        W55547  25.197  34.610  14.394
91780W        W55548  16.567  42.868   3.250
91781W        W55549   5.882  18.786  12.574
91782W        W55550  43.360  15.124   1.786
91783W        W55551  26.039   0.757   3.690
91784W        W55552   8.386  39.059   1.833
91785W        W55553  44.949  20.273  14.387
91786W        W55554  34.460   6.876  13.348
91787W        W55555  19.764  37.065  10.001
91788W        W55556  38.467  18.226  10.513
91789W        W55557  13.217  21.154  10.479
91790W        W55558  18.710  28.527  11.569
91791W        W55559  30.957   4.378   0.377
91792W        W55560  20.077  25.691   5.296
91793W        W55561   4.734  19.587   0.762
91794W        W55562  20.531   6.253   1.363
91795W        W55563  34.437  14.672   0.943
91796W        W55564  18.635  40.912   4.146
91797W        W55565  11.275  24.134  14.277
91798W        W55566  43.956   1.251   1.321
91799W        W55567  18.207   3.235   1.814
91800W        W55568  23.662  14.716   1.322
91801W        W55569  38.937  21.572  13.822
91802W        W55570   7.319   6.375  14.934
91803W        W55571  37.060  35.367  11.532
91804W        W55572   4.775  21.613  13.524
91805W        W55573  12.843  43.380   1.850
91806W        W55574  18.746  24.148   3.154
91807W        W55575  33.438  44.909   4.831
91808W        W55576  11.325  18.137  13.517
91809W        W55577  11.213   3.762  12.577
91810W        W55578  29.600  32.985  12.398
91811W        W55579  24.678   3.261   3.159
91812W        W55580   5.360  10.871   2.878
91813W        W55581  11.332  41.951   3.386
91814W        W55582  23.061  21.060   4.688
91815W        W55583  38.931   0.978   5.184
91816W        W55584  18.586  36.524   3.737
91817W        W55585  26.517  13.621  11.056
91818W        W55586  25.023  13.716  14.821
91819W        W55587   8.768   4.745  10.960
91820W        W55588  40.000  17.653   4.212
91821W        W55589  17.299   6.798  12.955
91822W        W55590  23.118  16.199  14.321
91823W        W55591  17.623  17.676   1.410
91824W        W55592  15.624   4.435   1.915
91825W        W55593  42.936   4.436  13.432
91826W        W55594  43.509   9.835   4.675
91827W        W55595  41.407   5.418   4.273
91828W        W55596  15.721  23.660  10.891
91829W        W55597  21.573  14.215   1.850
91830W        W55598  37.918  20.721   2.894
91831W        W55599  16.179   4.758  14.839
91832W        W55600  37.470  43.496  12.373
91833W        W55601  33.592   2.461   0.803
91834W        W55602   3.339  35.925   4.159
91835W        W55603   2.821  23.548  14.769
91836W        W55604  28.027  13.736  14.940
91837W        W55605  43.396  28.167   4.674
91838W        W55606   5.796  27.996   3.289
91839W        W55607  20.238   0.751  13.347
91840W        W55608  35.105  31.018  14.449
91841W        W55609  29.670  23.031   1.711
91842W        W55610  36.398  43.934  10.597
91843W        W55611   9.883  20.067  13.850
91844W        W55612  28.021   7.823  12.063
91845W        W55613  28.025  39.513  13.311
91846W        W55614  19.085  24.509   9.458
91847W        W55615  39.438  42.932  14.829
91848W        W55616  28.157  33.999   0.322
91849W        W55617  33.123  10.645  14.453
91850W        W55618  42.834  18.694  12.889
91851W        W55619  41.836  16.573   3.788
91852W        W55620   1.955  33.026  11.528
91853W        W55621  23.003  28.518  14.276
91854W        W55622  40.387   7.406   2.827
91855W        W55623   4.874  34.491   4.763
91856W        W55624   6.329  43.423   2.769
91857W        W55625   1.937   0.479  13.807
91858W        W55626  19.183   7.781   0.912
91859W        W55627  27.167  23.992  14.885
91860W        W55628   2.295  40.952  14.440
91861W        W55629  10.768   3.338  13.997
91862W        W55630  14.802  12.117  10.580
91863W        W55631  10.707  41.009   3.644
91864W        W55632  33.418  23.133  12.090
91865W        W55633  34.538  19.533  11.859
91866W        W55634  44.862  15.217  13.458
91867W        W55635  32.407  28.121   0.323
91868W        W55636   7.856  27.477  10.986
91869W        W55637   6.340  44.478   2.856
91870W        W55638  38.070  18.566   0.768
91871W        W55639   2.756  43.867   0.854
91872W        W55640  44.346  10.179   2.182
91873W        W55641   8.812   7.857   4.245
91874W        W55642  42.857  20.570   2.275
91875W        W55643   4.381  19.242   1.422
91876W        W55644  35.370   5.327  13.483
91877W        W55645  24.485   2.946  10.924
91878W        W55646  35.368  18.628   2.841
91879W        W55647  21.619  32.482  13.052
91880W        W55648  44.265  31.554  12.423
91881W        W55649  20.711  26.117  13.373
91882W        W55650  16.740  10.827  11.519
91883W        W55651  24.620  34.538  13.047
91884W        W55652   6.838  40.521  10.429
91885W        W55653  34.044  20.769   3.307
91886W        W55654  33.456   5.808   3.633
91887W        W55655  14.295   8.294   4.798
91888W        W55656  23.732  16.128  14.501
91889W        W55657  15.794  39.060   0.888
91890W        W55658  41.352  15.781   2.665
91891W        W55659  32.633  37.405  11.903
91892W        W55660  11.174  39.373  14.803
91893W        W55661  34.453  43.383   2.260
91894W        W55662  22.007  19.148  12.885
91895W        W55663  15.673  26.673  10.965
91896W        W55664  38.484  30.523   3.153
91897W        W55665  13.176  33.103   2.340
91898W        W55666  35.569  32.081  13.401
91899W        W55667  30.105  11.174   3.290
91900W        W55668  28.588   8.833   3.672
91901W        W55669  26.117  10.761   2.390
91902W        W55670  38.473  37.064  11.387
91903W        W55671  40.526   0.385   1.404
91904W        W55672   5.731   9.241   0.855
91905W        W55673   7.250  42.335   1.805
91906W        W55674   9.183   4.226   2.845
91907W        W55675   0.299   2.777   4.778
91908W        W55676   8.320   1.368  11.039
91909W        W55677  30.991  10.346   4.734
91910W        W55678  33.491  40.490  14.842
91911W        W55679  38.014  21.703   4.667
91912W        W55680  39.011   4.829   0.774
91913W        W55681  32.530  21.681   2.331
91914W        W55682  38.983  28.587   3.309
91915W        W55683  24.479  11.284  12.077
91916W        W55684   8.670  18.789   5.154
91917W        W55685   5.687  26.457  10.900
91918W        W55686  34.885  18.545   2.846
91919W        W55687  19.165  25.544  11.959
91920W        W55688   1.864  31.007  12.387
91921W        W55689  11.868   9.307  14.327
91922W        W55690  26.676  28.491  11.380
91923W        W55691   7.812  20.031   1.842
91924W        W55692  32.061  33.407  13.315
91925W        W55693  26.106   3.377   1.297
91926W        W55694  27.580  21.747  10.520
91927W        W55695  12.728  19.059   4.207
91928W        W55696  14.821  28.434   4.711
91929W        W55697   3.459  19.776  14.363
91930W        W55698  26.150   3.823   2.402
91931W        W55699  38.537  27.165   0.463
91932W        W55700  28.452   7.792  10.561
91933W        W55701  12.286  13.823  10.108
91934W        W55702   7.347  37.579  13.314
91935W        W55703  18.069  11.728  13.808
91936W        W55704   9.757  34.383  12.980
91937W        W55705  15.711  37.072   1.899
91938W        W55706   0.326  22.527   3.230
91939W        W55707  28.185  15.795  10.094
91940W        W55708   3.846  27.521   4.786
91941W        W55709  22.039  35.420  14.778
91942W        W55710  17.115  22.549   2.203
91943W        W55711  14.097  14.190  14.308
91944W        W55712  18.763   6.285  10.453
91945W        W55713  19.106  11.757   1.712
91946W        W55714  17.713  30.038   5.127
91947W        W55715  37.874  11.234   0.951
91948W        W55716   8.682  17.141   2.885
91949W        W55717  41.464  14.673   2.183
91950W        W55718  22.121  16.582  12.906
91951W        W55719   4.364   9.337   0.388
91952W        W55720  17.572  24.178   3.161
91953W        W55721   0.365  15.254  13.426
91954W        W55722  16.681  44.007   2.700
91955W        W55723  18.657  39.938   4.143
91956W        W55724   5.764  26.641   0.927
91957W        W55725  22.569   2.868  13.332
91958W        W55726   0.953  19.602   2.879
91959W        W55727   4.343  31.439  11.013
91960W        W55728   5.806  35.568   4.351
91961W        W55729   9.217   0.770  14.794
91962W        W55730  20.649   4.262  10.979
91963W        W55731   1.841  43.366   1.823
91964W        W55732   7.898  29.653   3.844
91965W        W55733   3.948  39.886  12.031
91966W        W55734  42.841  38.953  14.882
91967W        W55735  23.006  17.562  11.018
91968W        W55736  12.640  40.017  12.421
91969W        W55737  12.252  29.442   1.927
91970W        W55738  36.948  32.965  11.125
91971W        W55739  20.686  33.878  14.970
91972W        W55740  33.890   9.702   2.800
91973W        W55741  31.141  10.878   2.772
91974W        W55742  19.748  31.580   1.279
91975W        W55743  17.165  44.969   3.381
91976W        W55744   9.351  43.307  14.347
91977W        W55745  21.150  29.970  10.911
91978W        W55746  14.776  15.643   4.616
91979W        W55747  28.005  34.373  11.405
91980W        W55748   7.208   6.355  11.512
91981W        W55749   5.265  17.244   2.311
91982W        W55750  27.053  33.987  12.426
91983W        W55751  29.500  42.998  10.942
91984W        W55752  13.202  33.128   4.601
91985W        W55753  13.207  14.730  10.419
91986W        W55754  17.140  16.142  10.530
91987W        W55755  25.198  30.068  12.951
91988W        W55756  38.836   7.800  10.948
91989W        W55757  20.067  17.208  14.351
91990W        W55758   7.259   8.864  14.773
91991W        W55759  14.232  19.145   3.842
91992W        W55760  18.688   1.848   4.821
91993W        W55761  42.333  14.235  12.039
91994W        W55762  40.387  22.637   0.850
91995W        W55763  18.201  17.207  14.872
91996W        W55764  26.527  24.137  11.114
91997W        W55765  23.492  12.745  14.337
91998W        W55766  39.493  24.162  11.118
91999W        W55767   7.812  30.106  12.077
92000W        W55768  29.037  27.569  12.373
92001W        W55769  21.585  40.966  12.444
92002W        W55770  14.634   4.714   0.825
92003W        W55771  26.681  19.675   4.790
92004W        W55772  43.407  12.822  11.115
92005W        W55773   9.168  36.390   2.850
92006W        W55774  23.535   5.271   4.113
92007W        W55775  14.213  38.880  10.415
92008W        W55776  10.697  17.066   0.908
92009W        W55777  31.952  44.923  10.967
92010W        W55778  27.113   0.806  14.764
92011W        W55779  40.002  13.730  11.111
92012W        W55780  18.716  20.655  11.026
92013W        W55781  28.095  43.286   4.770
92014W        W55782  27.572  31.431   2.303
92015W        W55783  19.148   2.790   4.728
92016W        W55784  35.547  24.230  11.923
92017W        W55785  34.008  26.512   2.239
92018W        W55786   2.297  34.434   2.322
92019W        W55787   3.349  26.204  13.890
92020W        W55788  42.901  44.770  13.815
92021W        W55789  33.934   5.706   4.266
92022W        W55790  20.127  23.092  10.583
92023W        W55791  27.680  21.215   4.758
92024W        W55792  40.947  25.681  12.446
92025W        W55793  21.610   2.885   0.828
92026W        W55794  44.279   6.210   2.790
92027W        W55795  34.398  38.326   3.841
92028W        W55796  32.443  29.596   1.885
92029W        W55797   5.852  19.218  13.418
92030W        W55798  22.724  20.178  14.924
92031W        W55799  30.125  29.484  14.471
92032W        W55800  41.897   4.450   4.786
92033W        W55801  22.022  34.521  11.992
92034W        W55802  29.519  27.648  13.398
92035W        W55803   4.386  42.800  13.969
92036W        W55804  13.119  14.808   3.256
92037W        W55805  35.091  29.132  13.970
92038W        W55806  18.112  16.687   4.720
92039W        W55807  28.600  15.725   3.241
92040W        W55808  41.447  34.064   4.310
92041W        W55809  44.822  40.831  11.099
92042W        W55810  44.450  17.226   3.343
92043W        W55811  35.860  37.389   1.362
92044W        W55812  33.040  32.132   2.285
92045W        W55813   0.962  35.545   4.188
92046W        W55814  20.610  37.834  11.082
92047W        W55815  26.062  37.363  12.542
92048W        W55816  28.137  17.802  10.913
92049W        W55817  13.690  24.674   0.372
92050W        W55818  18.783  44.421  13.059
92051W        W55819  29.662  22.060  13.947
92052W        W55820  39.037   1.739   2.673
92053W        W55821  39.883  40.942   1.298
92054W        W55822   8.733   9.690  11.421
92055W        W55823  15.668  34.020  12.844
92056W        W55824  28.463  35.073   0.473
92057W        W55825   6.917   9.173   4.649
92058W        W55826  42.447  15.233   2.220
92059W        W55827  30.427   8.354   0.809
92060W        W55828  10.833  37.069   0.768
92061W        W55829  36.892  16.610   3.154
92062W        W55830  12.288  13.260  12.571
92063W        W55831  39.987   9.819  14.510
92064W        W55832  24.056  20.105  12.982
92065W        W55833  30.142   2.742  12.474
92066W        W55834  20.071  11.369   4.180
92067W        W55835  35.438  39.005   0.752
92068W        W55836  32.091  31.534  13.470
92069W        W55837  13.310  22.710  14.996
92070W        W55838   8.686  34.040   4.351
92071W        W55839  12.755   0.912   4.293
92072W        W55840  27.033  40.962   4.144
92073W        W55841  27.522  30.961   3.813
92074W        W55842  42.328  27.610   2.390
92075W        W55843  41.519  18.577   0.779
92076W        W55844   5.223  12.198   4.796
92077W        W55845  12.727  40.812  11.920
92078W        W55846   8.227  27.029   2.883
92079W        W55847   5.323   3.421  12.063
92080W        W55848  26.537  27.689   0.803
92081W        W55849  18.077  16.696  12.849
92082W        W55850  37.440   1.787   0.415
92083W        W55851   9.831  39.419  13.022
92084W        W55852   9.189  30.428   5.090
92085W        W55853  32.935   6.271  13.350
92086W        W55854  19.220  30.023  10.983
92087W        W55855  39.914  26.509  11.595
92088W        W55856  33.466   0.279  13.024
92089W        W55857  29.080   3.305  14.452
92090W        W55858  23.526  34.537   3.699
92091W        W55859  25.055   1.288  11.871
92092W        W55860  18.287  41.437   2.793
92093W        W55861   2.438   8.789  11.981
92094W        W55862  36.002   5.412   1.373
92095W        W55863  27.109  16.614   2.808
92096W        W55864  13.154  30.907   2.259
92097W        W55865  13.265  44.767   0.891
92098W        W55866  15.698  17.661  11.097
92099W        W55867  22.222  42.885  14.001
92100W        W55868  39.834   9.388   5.109
92101W        W55869  19.260  35.048  14.935
92102W        W55870  22.156   0.762  12.459
92103W        W55871  42.374  23.218  10.589
92104W        W55872  12.134  35.417  10.644
92105W        W55873   5.401   4.853   2.308
92106W        W55874  32.414  10.678  14.835
92107W        W55875  13.179  38.940  12.883
92108W        W55876  24.066  33.496  10.035
92109W        W55877  36.531  30.443   4.623
92110W        W55878  40.010  44.279   2.365
92111W        W55879  15.641  37.965   3.212
92112W        W55880   8.769  42.884  14.832
92113W        W55881  17.569  27.551  12.427
92114W        W55882  22.227  28.539   1.333
92115W        W55883  21.117  18.569  14.013
92116W        W55884   8.838   6.775   2.352
92117W        W55885   1.870  27.572   0.956
92118W        W55886  26.164  44.914  13.328
92119W        W55887  22.637  37.425  12.860
92120W        W55888  40.493  31.061  11.430
92121W        W55889  38.491  13.196  13.513
92122W        W55890   5.815  30.590   2.794
92123W        W55891  24.496  41.995   1.237
92124W        W55892  34.884  26.118   0.891
92125W        W55893  34.096   1.830  13.525
92126W        W55894  36.574  39.829   4.742
92127W        W55895   6.809  37.960  14.319
92128W        W55896   8.293  38.984   2.414
92129W        W55897  44.815  16.700   1.897
92130W        W55898   1.462  39.954   1.287
92131W        W55899  22.681  23.995   3.222
92132W        W55900  42.907  24.218  14.463
92133W        W55901  39.928  34.990   4.193
92134W        W55902   0.858  31.058  11.951
92135W        W55903  38.929  24.602  13.378
92136W        W55904  21.196  38.820   5.258
92137W        W55905  37.925  26.662   4.195
92138W        W55906  43.814  20.729   0.357
92139W        W55907  41.429  10.851   3.645
92140W        W55908  17.173  13.289   2.851
92141W        W55909  34.403  28.184   4.336
92142W        W55910  43.859  23.700  14.877
92143W        W55911  34.477   2.759  13.018
92144W        W55912  42.336  15.676   0.739
92145W        W55913  30.580  42.407   3.259
92146W        W55914  15.213  33.083   0.789
92147W        W55915  39.553   9.281  14.422
92148W        W55916  21.175  42.854   2.364
92149W        W55917  31.901   2.788   0.447
92150W        W55918  16.635  19.583  10.973
92151W        W55919   7.407  13.656  11.377
92152W        W55920  32.052  36.407   3.656
92153W        W55921   8.160   9.178   1.696
92154W        W55922  23.093  35.448  10.083
92155W        W55923   3.324  38.946   5.251
92156W        W55924   2.792  23.007   4.728
92157W        W55925  41.792  44.380  11.091
92158W        W55926  35.512   7.673  12.843
92159W        W55927  27.185   6.323   4.338
92160W        W55928  13.139  40.909  10.431
92161W        W55929  22.716  34.094   3.163
92162W        W55930  37.985   6.868  13.899
92163W        W55931  20.622  27.465   0.285
92164W        W55932  40.042  25.521  14.801
92165W        W55933  26.105  41.507  11.374
92166W        W55934  24.680   3.350   2.196
92167W        W55935   8.796  33.024  11.550
92168W        W55936  27.606   2.354   3.212
92169W        W55937  11.852  16.605   3.662
92170W        W55938  37.357  38.331  14.846
92171W        W55939  40.965  21.230  11.022
92172W        W55940  34.090  44.279  11.543
92173W        W55941  31.624  38.056  12.545
92174W        W55942  33.093  24.549   2.199
92175W        W55943  21.033   0.885   2.691
92176W        W55944  43.932   0.355  10.425
92177W        W55945  22.193   4.351  11.395
92178W        W55946  33.578  29.462  11.112
92179W        W55947   5.256  29.609  12.554
92180W        W55948  14.166  14.684   0.426
92181W        W55949  34.599  25.089  11.532
92182W        W55950  10.790  15.276  14.330
92183W        W55951  15.697  36.556   0.851
92184W        W55952  44.461   2.789   3.706
92185W        W55953   3.933  40.312   2.388
92186W        W55954  10.140  34.489  12.470
92187W        W55955  23.730  11.777  11.876
92188W        W55956  21.048  39.385  13.399
92189W        W55957  31.485  23.119   2.787
92190W        W55958   0.911  23.154  13.338
92191W        W55959  10.191  20.087   2.763
92192W        W55960  37.037  18.098  13.457
92193W        W55961  26.495   0.783  13.813
92194W        W55962  22.615  31.448  12.839
92195W        W55963  12.346  35.508   1.246
92196W        W55964  11.158   8.896   4.173
92197W        W55965  10.683  18.101   3.852
92198W        W55966  23.702   6.186   1.835
92199W        W55967  32.114   6.919  14.349
92200W        W55968  26.189  28.574  12.525
92201W        W55969  36.381  20.650  11.975
92202W        W55970  43.412  35.049  12.090
92203W        W55971  20.128  40.317  13.325
92204W        W55972  21.734  41.969   3.777
92205W        W55973  11.701  14.826   3.183
92206W        W55974   0.376   2.765   3.776
92207W        W55975  21.122  26.541   2.236
92208W        W55976  43.488   6.318   9.994
92209W        W55977  37.082  26.038  12.396
92210W        W55978  39.057  24.577   3.740
92211W        W55979  11.236  24.627  10.943
92212W        W55980  14.191   5.795  12.996
92213W        W55981  39.432   4.793  14.382
92214W        W55982  34.016   9.194  12.956
92215W        W55983  23.111  34.097   2.240
92216W        W55984  29.981  29.057   1.362
92217W        W55985  26.041  28.951  12.389
92218W        W55986  25.571   5.314  13.414
92219W        W55987  16.719   2.261  14.378
92220W        W55988  15.672  39.867   1.855
92221W        W55989  17.073  20.052  11.121
92222W        W55990  16.081   9.747   3.275
92223W        W55991  35.518  33.014   3.869
92224W        W55992  13.749  26.604  14.790
92225W        W55993  40.995   4.801   1.242
92226W        W55994   6.793  27.138   1.792
92227W        W55995  32.512  11.193  11.059
92228W        W55996  12.694   8.836  12.911
92229W        W55997  29.601  20.114  11.893
92230W        W55998  35.454  28.180   0.828
92231W        W55999  27.486  39.350   0.911
92232W        W56000  43.918  34.474  14.902
92233W        W56001  22.688  38.437  12.065
92234W        W56002   2.433  10.180   2.190
92235W        W56003  34.404  23.685  11.064
92236W        W56004   9.257  34.019  11.522
92237W        W56005  38.492  43.270  10.552
92238W        W56006  15.703  40.319  11.452
92239W        W56007   7.762  29.475  12.081
92240W        W56008  43.931  37.015  12.566
92241W        W56009  26.012  42.383   4.754
92242W        W56010  33.006   1.271  14.426
92243W        W56011  25.586  42.006  14.278
92244W        W56012  42.395  38.442   3.640
92245W        W56013  10.234  14.589   0.829
92246W        W56014  44.850  44.929   1.347
92247W        W56015  30.951  35.033  14.489
92248W        W56016  20.041   1.756  12.555
92249W        W56017  36.450  34.591  11.932
92250W        W56018   5.817  35.381  11.486
92251W        W56019   5.769  40.981  12.512
92252W        W56020   2.230  27.587   0.792
92253W        W56021  25.022  29.130  12.471
92254W        W56022  44.315  25.207   4.607
92255W        W56023  40.414   5.836  13.346
92256W        W56024   8.255  15.324  13.547
92257W        W56025   8.827  19.538   4.763
92258W        W56026   0.268   7.285   2.256
92259W        W56027  18.096  25.595  12.405
92260W        W56028   1.314   0.464  11.866
92261W        W56029  14.115  12.285   4.242
92262W        W56030  24.645  30.607  10.891
92263W        W56031   6.242  36.976  12.416
92264W        W56032   9.391  39.417  13.933
92265W        W56033  44.870   6.899   1.713
92266W        W56034  10.759  19.154  12.382
92267W        W56035   2.940  43.311   4.601
92268W        W56036  44.801  40.484   3.716
92269W        W56037  14.203  18.220  12.565
92270W        W56038  35.987  39.475   1.439
92271W        W56039  32.885  10.221  10.419
92272W        W56040  11.332  15.778  13.361
92273W        W56041   9.761  31.955   4.825
92274W        W56042  39.396  17.102  11.115
92275W        W56043  28.971  16.221   0.823
92276W        W56044  24.122   2.862   3.803
92277W        W56045  44.877  29.064   2.803
92278W        W56046  32.958   1.801  13.057
92279W        W56047  27.982  13.683   4.265
92280W        W56048  35.464   6.201  10.563
92281W        W56049  34.371   6.406   1.370
92282W        W56050  18.621  29.564  13.022
92283W        W56051   5.887  43.374   3.667
92284W        W56052  21.662   7.189   0.928
92285W        W56053  30.132  18.276   1.820
92286W        W56054   9.202  27.070  13.037
92287W        W56055  42.926  32.412   3.758
92288W        W56056  17.255  30.147  12.078
92289W        W56057  11.790   7.724  11.047
92290W        W56058  19.251  29.940   1.327
92291W        W56059  12.653  44.974  10.513
92292W        W56060  40.857  26.580   2.391
92293W        W56061  18.546  27.560  13.796
92294W        W56062   1.783   8.827   1.720
92295W        W56063  24.041  12.825  11.915
92296W        W56064  35.929   9.683  13.958
92297W        W56065   0.256  12.836   0.942
92298W        W56066  10.184  28.115  11.918
92299W        W56067  10.818  41.456  12.891
92300W        W56068   0.463   0.436  12.911
92301W        W56069  25.541  23.104  14.978
92302W        W56070  31.922  35.879  13.798
92303W        W56071   2.462  16.226  13.871
92304W        W56072  34.505  31.647  13.925
92305W        W56073  39.354  23.713  10.947
92306W        W56074  20.757   2.926  11.560
92307W        W56075  39.449   3.307  12.441
92308W        W56076   3.276  20.527  14.004
92309W        W56077  38.524  17.568  10.523
92310W        W56078  22.700  16.207  14.326
92311W        W56079  39.917  14.168  10.438
92312W        W56080  12.269  20.135  12.355
92313W        W56081   9.671  37.082  11.051
92314W        W56082  16.198   5.929   1.858
92315W        W56083   5.436  18.119  12.830
92316W        W56084  14.790  13.108  13.814
92317W        W56085   5.813  35.582  10.946
92318W        W56086  11.725   8.216   1.355
92319W        W56087  31.466  36.430   1.830
92320W        W56088   4.212  13.700   2.344
92321W        W56089   5.414  24.079   3.287
92322W        W56090  27.465   5.425   0.963
92323W        W56091  43.324   7.679  14.327
92324W        W56092  33.921  27.140  13.374
92325W        W56093  17.136  19.154  10.461
92326W        W56094  21.165  22.016   3.374
92327W        W56095   0.876  44.305  10.980
92328W        W56096  44.985   9.692  11.923
92329W        W56097  21.202  22.627   3.670
92330W        W56098  43.468   7.180  10.938
92331W        W56099  23.025   0.931   1.754
92332W        W56100  12.184  26.596  14.771
92333W        W56101   2.418  36.550   4.136
92334W        W56102  32.084   0.324  12.417
92335W        W56103   4.890  42.429  10.911
92336W        W56104  43.342  43.782  12.420
92337W        W56105   8.160  11.285   0.407
92338W        W56106  20.252  27.187   2.303
92339W        W56107   5.204  18.771   1.378
92340W        W56108   8.311   5.437  13.483
92341W        W56109  32.100  25.166   1.858
92342W        W56110  27.083  41.806  10.632
92343W        W56111   1.462   4.760   0.457
92344W        W56112   0.361  28.121  12.413
92345W        W56113  14.760   1.839  10.506
92346W        W56114  32.926  39.533   2.280
92347W        W56115  43.943  35.875   3.322
92348W        W56116   3.834  16.218  12.386
92349W        W56117  31.524  36.058   2.318
92350W        W56118  13.297  23.647   4.788
92351W        W56119  25.063   7.361  14.345
92352W        W56120  22.582   7.332  14.947
92353W        W56121   9.173  21.611   0.481
92354W        W56122  18.106  23.642   1.230
92355W        W56123  11.646  19.234   4.308
92356W        W56124  19.070  34.554  14.412
92357W        W56125  43.939  40.949  12.047
92358W        W56126  44.956   2.838  13.922
92359W        W56127   7.215  25.568   4.668
92360W        W56128   0.267  17.592  12.544
92361W        W56129  26.092   0.799   0.746
92362W        W56130  17.179   7.676   3.370
92363W        W56131  14.607  30.949  11.985
92364W        W56132  12.818  18.553  14.307
92365W        W56133   7.196  11.139  12.496
92366W        W56134  13.145  32.948  13.846
92367W        W56135  40.931  37.876  11.119
92368W        W56136  41.483  26.582   0.268
92369W        W56137   8.729  29.440   1.903
92370W        W56138  13.605  17.079   3.341
92371W        W56139  10.726  36.016   3.252
92372W        W56140  27.046  43.450  12.553
92373W        W56141   5.698  36.379  12.465
92374W        W56142  43.865  29.116   2.307
92375W        W56143  22.696  16.633   4.617
92376W        W56144  23.049   4.710   4.315
92377W        W56145  44.790  44.829  14.515
92378W        W56146  33.426  31.151   2.679
92379W        W56147  22.134  34.428  14.990
92380W        W56148   6.193  24.588  11.503
92381W        W56149  18.700  37.957   2.881
92382W        W56150  18.125  41.020   4.185
92383W        W56151  24.163   6.860  14.447
92384W        W56152  43.352  10.810  12.506
92385W        W56153   5.705  38.515  13.516
92386W        W56154  32.024  31.629   0.802
92387W        W56155  33.886   8.396   4.670
92388W        W56156   3.296  43.798  13.966
92389W        W56157  28.660  24.145  13.523
92390W        W56158  38.960   5.312   1.435
92391W        W56159  25.519  29.438   4.617
92392W        W56160  39.973  19.641  10.952
92393W        W56161  32.888  35.106  13.424
92394W        W56162  13.237  31.449  14.902
92395W        W56163  42.334  44.808  11.010
92396W        W56164  17.732  21.140   4.607
92397W        W56165  26.570  21.708   2.260
92398W        W56166   1.403  12.855   0.350
92399W        W56167  17.284  11.146  13.835
92400W        W56168  25.008  33.002   2.881
92401W        W56169  41.016   6.836   1.805
92402W        W56170   7.249  21.530   4.309
92403W        W56171  13.640  17.193   1.767
92404W        W56172   7.191  21.669   1.709
92405W        W56173  44.794  37.358   2.289
92406W        W56174  12.243  30.444   2.888
92407W        W56175  12.161   0.814   1.229
92408W        W56176   3.226  28.537  12.384
92409W        W56177  27.538   8.884   1.232
92410W        W56178  23.648  41.432  12.349
92411W        W56179  37.375  28.976   1.339
92412W        W56180  38.387  36.578  11.477
92413W        W56181  28.043  42.387   0.850
92414W        W56182  29.145   5.756   1.715
92415W        W56183  35.073  32.073   2.205
92416W        W56184   8.732   9.315   0.948
92417W        W56185  40.974  13.145   2.329
92418W        W56186  40.864  31.487  12.972
92419W        W56187   3.251  20.226  11.559
92420W        W56188  13.146   1.454  12.825
92421W        W56189  10.728  15.767   2.392
92422W        W56190  25.196   6.423  14.935
92423W        W56191   7.403  10.750   1.844
92424W        W56192  43.822  35.429   1.889
92425W        W56193  14.116  18.100   9.466
92426W        W56194   3.767  23.131  10.980
92427W        W56195  33.603  43.868   3.330
92428W        W56196  21.733  42.033  14.819
92429W        W56197  24.984  12.176  10.490
92430W        W56198  23.702  41.480   2.878
92431W        W56199  19.064  36.928   4.307
92432W        W56200  33.991  25.187  10.900
92433W        W56201  30.010  23.665   3.809
92434W        W56202  41.915  31.585   4.773
92435W        W56203  10.836   4.441  13.016
92436W        W56204  30.123   7.395  13.022
92437W        W56205   0.355  17.594  14.960
92438W        W56206  43.283  13.816  11.908
92439W        W56207  25.583  32.515   1.773
92440W        W56208  27.138  11.831  11.496
92441W        W56209  12.698  23.534  14.855
92442W        W56210  29.027  35.520   2.333
92443W        W56211  15.645   4.821   3.147
92444W        W56212  30.064   7.867   1.733
92445W        W56213  38.533  14.648  13.387
92446W        W56214   1.389  41.334   4.731
92447W        W56215  20.759  22.243  12.380
92448W        W56216  23.036  41.824   2.685
92449W        W56217   0.440  17.776  14.484
92450W        W56218   6.818   8.828   4.288
92451W        W56219  20.124   8.785  12.360
92452W        W56220  44.275  12.237   4.195
92453W        W56221  18.196  33.063   2.380
92454W        W56222  43.011  32.044   3.713
92455W        W56223  10.796  38.547  11.915
92456W        W56224  13.665  33.983   0.920
92457W        W56225   0.376  28.940   4.133
92458W        W56226  36.850  35.991   2.202
92459W        W56227  41.440   1.940  13.410
92460W        W56228   1.356  44.432  10.526
92461W        W56229  43.911   0.808   3.824
92462W        W56230  36.945  36.493   0.430
92463W        W56231  36.504  42.965   0.876
92464W        W56232   0.908   2.413   3.729
92465W        W56233  15.642  28.074  12.358
92466W        W56234  14.164   1.255   3.204
92467W        W56235  42.826  44.853   3.843
92468W        W56236   6.884  38.530   1.789
92469W        W56237  26.108   0.421  13.480
92470W        W56238  25.068  20.120  14.965
92471W        W56239  20.662  23.031  14.833
92472W        W56240  22.137  10.263  10.480
92473W        W56241  28.987  42.032   2.755
92474W        W56242  35.438   7.266   4.245
92475W        W56243  24.206   0.416   2.387
92476W        W56244   8.324   6.391   4.694
92477W        W56245  34.031  42.987  12.847
92478W        W56246  18.054  25.205  12.869
92479W        W56247  36.352  35.920   2.406
92480W        W56248  33.020   7.312   1.362
92481W        W56249  36.924  32.122   1.447
92482W        W56250   9.169   4.903   3.306
92483W        W56251  18.294   0.339  11.885
92484W        W56252  39.817  32.104   2.197
92485W        W56253   5.350   0.390   4.689
92486W        W56254  35.528   0.282   1.338
92487W        W56255  43.482  40.367  10.155
92488W        W56256  35.864  25.189   3.160
92489W        W56257   2.879  19.095  14.812
92490W        W56258  22.204   8.309  11.907
92491W        W56259  24.570  34.042   1.858
92492W        W56260  13.230   6.329  13.946
92493W        W56261  39.370  20.121   1.884
92494W        W56262  33.879  17.193  11.399
92495W        W56263   5.228  13.776   2.219
92496W        W56264  12.126  35.547   3.636
92497W        W56265  29.485   1.914  12.925
92498W        W56266  39.422   9.710  11.096
92499W        W56267  27.607   5.273   0.325
92500W        W56268  36.385  30.050  13.887
92501W        W56269  24.052  36.488   3.793
92502W        W56270  36.364  39.922  11.081
92503W        W56271  36.940  17.233   3.373
92504W        W56272   0.886  29.087  13.524
92505W        W56273  17.792  23.115  13.866
92506W        W56274  36.439  41.328   5.322
92507W        W56275  39.832   1.892  12.549
92508W        W56276  42.016  34.503  10.913
92509W        W56277  32.978  10.209   3.221
92510W        W56278  18.607   6.729  14.321
92511W        W56279  18.270   6.294  11.965
92512W        W56280  35.076  25.534  11.917
92513W        W56281  18.064  30.649  10.602
92514W        W56282   8.293  39.889   0.798
92515W        W56283  19.258  39.391  11.572
92516W        W56284  43.455   9.390   0.335
92517W        W56285   0.260  20.576  12.429
92518W        W56286  30.453  19.233   9.630
92519W        W56287   9.850  37.442  11.562
92520W        W56288  44.999  40.859   2.680
92521W        W56289   9.711  37.025  11.608
92522W        W56290  16.633  16.571   3.714
92523W        W56291   3.717  15.603  14.304
92524W        W56292  16.784  12.626   0.910
92525W        W56293  10.775  42.860  10.979
92526W        W56294   4.944   4.739   3.309
92527W        W56295  15.246  23.712   1.924
92528W        W56296   9.650  31.467  13.327
92529W        W56297  13.765  23.226   2.278
92530W        W56298  38.051  40.862  11.116
92531W        W56299  42.450  25.181  11.983
92532W        W56300  32.629   8.846   4.234
92533W        W56301  40.433   7.713   3.653
92534W        W56302  43.310  22.707  14.990
92535W        W56303  10.251   3.918   1.844
92536W        W56304  13.149   8.752  14.293
92537W        W56305   3.897  19.549   2.772
92538W        W56306  30.658  40.838   3.639
92539W        W56307  29.043   5.819  14.767
92540W        W56308  32.989  28.642  14.979
92541W        W56309   9.689   3.279  11.381
92542W        W56310  22.501  22.521   4.811
92543W        W56311  28.104  38.922  12.885
92544W        W56312  24.157  26.099  11.994
92545W        W56313  33.568  43.389  13.359
92546W        W56314   2.250   4.278   0.483
92547W        W56315  28.438  43.802  11.600
92548W        W56316  27.056  31.639   1.443
92549W        W56317   3.289  17.757  10.476
92550W        W56318  27.540  17.555  11.040
92551W        W56319  15.683  12.844   1.428
92552W        W56320  41.978  36.926   4.173
92553W        W56321  40.305   0.758   5.293
92554W        W56322  27.184  10.676   0.414
92555W        W56323   2.774  40.318   3.641
92556W        W56324   8.160  19.265   0.761
92557W        W56325   8.878  24.519   1.213
92558W        W56326   9.195  42.500   2.357
92559W        W56327  14.253  43.474   3.701
92560W        W56328  24.084  37.539   3.803
92561W        W56329  28.673  43.414  13.033
92562W        W56330  38.950  40.421   2.778
92563W        W56331  43.945  16.674  11.888
92564W        W56332   0.271  25.659  12.371
92565W        W56333  35.877  37.844  11.486
92566W        W56334  25.534  18.722   5.266
92567W        W56335   4.428  42.485   0.860
92568W        W56336  30.984   5.328  12.516
92569W        W56337  38.911  23.222   2.849
92570W        W56338  11.853  37.564  11.021
92571W        W56339  36.591   9.666   4.265
92572W        W56340  38.845  40.540   0.910
92573W        W56341   8.754  12.840  12.364
92574W        W56342  39.900  23.729   2.225
92575W        W56343  40.350  21.692   1.387
92576W        W56344  13.756  42.854   2.353
92577W        W56345  22.608  19.110  11.052
92578W        W56346  25.098  10.879  13.866
92579W        W56347  13.124  24.492  13.460
92580W        W56348  14.680  37.551   2.186
92581W        W56349  18.160  25.209  13.530
92582W        W56350   0.914  20.191  10.602
92583W        W56351  27.543  22.243  10.425
92584W        W56352  21.111   5.715   3.154
92585W        W56353  27.663  23.192   0.424
92586W        W56354  26.976  28.562   3.706
92587W        W56355  33.011  28.495   3.797
92588W        W56356   1.440  14.230   0.474
92589W        W56357   2.446  28.528  10.516
92590W        W56358  42.504  29.947  14.368
92591W        W56359   6.273  31.039  12.007
92592W        W56360   6.367   9.379   3.721
92593W        W56361   0.306  11.745   0.734
92594W        W56362   8.328  30.063  11.922
92595W        W56363  26.072  27.453  14.291
92596W        W56364  39.377  17.174  12.035
92597W        W56365   6.427   7.413  10.915
92598W        W56366  17.795  36.995  10.918
92599W        W56367   8.355  20.560  13.043
92600W        W56368   6.197  39.515  11.987
92601W        W56369  24.573  21.516  14.274
92602W        W56370  15.694  22.033  12.429
92603W        W56371  21.634  34.579  11.456
92604W        W56372  41.371  12.726  10.508
92605W        W56373  37.433  34.613   1.845
92606W        W56374  27.590   6.186   0.304
92607W        W56375  26.148  30.122   3.210
92608W        W56376  43.444  32.929   1.365
92609W        W56377  40.031  38.897  10.409
92610W        W56378  28.496  23.650  12.039
92611W        W56379  20.575  10.817  11.483
92612W        W56380   2.435  23.161  11.058
92613W        W56381  11.825   1.766  14.943
92614W        W56382   3.341  44.404   3.325
92615W        W56383  29.508   8.677  13.940
92616W        W56384   2.799  16.686  12.085
92617W        W56385  17.557   0.392   0.371
92618W        W56386  44.463  39.015   5.138
92619W        W56387  17.202  39.893   5.237
92620W        W56388  17.716  19.719  10.521
92621W        W56389  11.237  35.928  12.993
92622W        W56390  15.655   4.282  10.540
92623W        W56391   1.267   7.805  11.567
92624W        W56392  44.759   9.720  13.904
92625W        W56393   6.264   3.824  14.463
92626W        W56394  34.035  31.450  11.470
92627W        W56395   3.296   1.470  10.495
92628W        W56396  36.854   1.441  12.877
92629W        W56397  20.586  24.490   0.801
92630W        W56398  10.756  20.715   4.598
92631W        W56399  30.504  41.507  14.418
92632W        W56400  36.932  43.470  11.388
92633W        W56401  41.850  16.773   0.821
92634W        W56402  39.989  27.567   2.355
92635W        W56403  11.189  43.940   4.329
92636W        W56404  13.140  20.085   1.371
92637W        W56405  29.941  10.255   2.855
92638W        W56406  38.826  35.921   4.201
92639W        W56407  23.699  14.335   2.842
92640W        W56408  10.140  42.896  11.381
92641W        W56409  13.286  21.618  13.824
92642W        W56410   2.906  34.488  13.986
92643W        W56411  13.819  18.749  11.987
92644W        W56412  14.659  44.265  13.902
92645W        W56413  24.486  33.502  13.840
92646W        W56414  28.485   3.382  14.462
92647W        W56415  27.091   1.386  11.993
92648W        W56416  40.495  31.457  12.837
92649W        W56417  24.094   1.310  13.468
92650W        W56418  43.915  32.982  14.905
92651W        W56419  35.382  39.875   2.372
92652W        W56420  18.785  32.979  12.571
92653W        W56421   4.901  36.886  10.115
92654W        W56422  18.203   2.885   3.780
92655W        W56423  16.623  38.381  11.501
92656W        W56424  12.357  34.053  13.360
92657W        W56425  26.654  11.625   1.405
92658W        W56426  36.354   0.401  14.454
92659W        W56427  44.396  41.812   5.085
92660W        W56428  44.346   1.749  10.147
92661W        W56429  31.029  33.962  13.055
92662W        W56430  16.209   9.836  11.915
92663W        W56431  29.586  27.484  13.943
92664W        W56432  36.066  21.143  13.825
92665W        W56433  39.838  20.076  14.804
92666W        W56434  40.361  44.323  12.485
92667W        W56435  13.673   0.840   2.254
92668W        W56436  39.436  32.514   0.735
92669W        W56437  11.266  10.748   5.161
92670W        W56438  37.477   4.793   0.455
92671W        W56439  12.836  30.450  12.528
92672W        W56440  32.400  43.931  12.086
92673W        W56441  43.380  11.359   3.643
92674W        W56442  14.786  12.136  13.996
92675W        W56443  21.640   2.861   2.258
92676W        W56444  15.102  26.516   3.281
92677W        W56445  16.216   5.905   3.840
92678W        W56446   9.766  42.833  10.959
92679W        W56447  29.529  29.538   4.313
92680W        W56448  31.138  32.491   2.357
92681W        W56449  28.522  25.184  11.957
92682W        W56450  43.831   3.748  14.440
92683W        W56451  22.232  38.361   4.185
92684W        W56452  38.930  10.216  10.020
92685W        W56453  12.651  34.504  13.371
92686W        W56454  34.005  26.098   4.284
92687W        W56455  18.739  23.495  13.405
92688W        W56456   6.759  19.230   4.795
92689W        W56457  22.504   5.837   3.166
92690W        W56458  34.096  38.458   3.810
92691W        W56459  35.955  25.495   3.312
92692W        W56460  23.503  19.570  14.999
92693W        W56461  16.182   5.352  13.947
92694W        W56462   8.872  34.460   1.811
92695W        W56463  40.028  23.731   2.899
92696W        W56464   4.395  22.561  12.896
92697W        W56465  26.479  43.371   2.732
92698W        W56466   0.929  22.602  10.610
92699W        W56467  40.974  30.966  13.834
92700W        W56468   0.354  23.212  11.894
92701W        W56469  20.147   2.862  12.370
92702W        W56470  35.413  41.911   1.285
92703W        W56471   6.815  39.915  12.508
92704W        W56472  14.656  13.148  14.482
92705W        W56473   6.428  22.647  14.899
92706W        W56474  28.048  29.008  14.499
92707W        W56475  35.576   9.787   4.755
92708W        W56476  20.120  43.007  12.442
92709W        W56477   7.353  39.869  14.365
92710W        W56478  24.127  30.102  13.503
92711W        W56479  29.662   8.387  14.371
92712W        W56480  43.329  37.342  13.832
92713W        W56481  23.150   5.692   0.386
92714W        W56482  24.684  13.204  14.760
92715W        W56483  16.576  28.467   3.816
92716W        W56484  44.971  40.533  11.420
92717W        W56485  17.147  13.782  12.943
92718W        W56486  23.993  36.413   1.920
92719W        W56487  25.052  27.539   2.883
92720W        W56488  40.462  30.499  12.889
92721W        W56489  43.820  35.477   2.863
92722W        W56490  39.882   8.800   5.081
92723W        W56491  20.077  11.228   0.328
92724W        W56492  24.049  21.615   4.734
92725W        W56493  10.197  20.061  11.097
92726W        W56494  42.406  24.532  12.995
92727W        W56495   2.275   2.366   0.398
92728W        W56496  15.742   6.840   1.426
92729W        W56497  10.650  41.533   0.456
92730W        W56498  28.536  41.981  11.094
92731W        W56499   9.179   7.414   3.310
92732W        W56500  29.924  26.975   1.311
92733W        W56501  25.071  38.386   3.375
92734W        W56502  11.240  29.937   1.292
92735W        W56503  42.410   4.370  13.531
92736W        W56504   1.783  31.970  12.870
92737W        W56505  24.048  43.994   4.289
92738W        W56506   7.269  13.347   2.404
92739W        W56507   4.877  10.745   3.306
92740W        W56508  44.796  33.887   2.277
92741W        W56509  36.516   2.257   1.789
92742W        W56510   4.918  24.697   1.290
92743W        W56511  21.572   7.802  14.376
92744W        W56512  40.002  18.582  14.473
92745W        W56513  22.207  23.189   0.914
92746W        W56514  39.854  12.642  12.521
92747W        W56515  21.258   2.458  14.334
92748W        W56516  27.578  20.552  13.882
92749W        W56517  16.092   4.439   0.301
92750W        W56518  23.540   7.712   4.173
92751W        W56519  15.230  31.060   1.711
92752W        W56520  30.546  21.112  10.983
92753W        W56521  17.776  38.484   4.165
92754W        W56522  29.478  26.138  14.800
92755W        W56523   3.436   2.392  12.501
92756W        W56524  41.509  41.944   4.760
92757W        W56525  21.116  26.532  10.107
92758W        W56526  31.556  13.769  11.397
92759W        W56527  18.615  38.944  12.034
92760W        W56528  19.607   2.740  12.891
92761W        W56529  10.715  18.229   4.598
92762W        W56530  17.633  19.734   0.255
92763W        W56531   6.264   1.244  13.029
92764W        W56532  25.604  19.234  14.353
92765W        W56533  11.138  16.639   4.779
92766W        W56534  38.946   0.429   3.298
92767W        W56535   9.176  21.170   1.257
92768W        W56536  10.368  30.519  13.992
92769W        W56537  15.727  13.253  12.548
92770W        W56538  39.880  29.022   3.803
92771W        W56539   3.777  40.354  14.993
92772W        W56540  25.534   0.771  11.003
92773W        W56541  16.083  32.906  12.082
92774W        W56542   6.203  32.572  10.470
92775W        W56543  12.671  10.850  13.030
92776W        W56544  15.707  22.172   0.856
92777W        W56545  42.000   5.427   2.695
92778W        W56546  17.073  35.863   3.387
92779W        W56547  37.856   7.174  11.411
92780W        W56548  43.297  23.699   3.697
92781W        W56549  12.689   2.226  10.563
92782W        W56550  15.760  30.048   4.724
92783W        W56551   8.700  16.722   1.905
92784W        W56552  10.747  44.418  12.999
92785W        W56553  34.967   9.795  12.367
92786W        W56554  35.922  18.294   3.753
92787W        W56555  33.616  37.914  14.409
92788W        W56556   8.271   0.756  11.433
92789W        W56557  17.677  17.090   1.392
92790W        W56558  32.103   8.275   3.668
92791W        W56559  36.443  41.914   4.272
92792W        W56560  27.059  40.815  12.469
92793W        W56561  22.186  40.521  10.891
92794W        W56562  15.817  29.659  12.503
92795W        W56563  38.993  18.160   2.215
92796W        W56564  40.799  11.190   4.168
92797W        W56565   0.426  38.364  13.443
92798W        W56566  14.301  10.751   4.262
92799W        W56567   0.346   5.333  11.890
92800W        W56568  36.954  18.169   4.684
92801W        W56569   4.766   8.719  12.020
92802W        W56570  27.025  42.465   2.858
92803W        W56571  17.801  14.319   1.770
92804W        W56572  41.400  17.638   1.824
92805W        W56573   7.372  18.760   3.384
92806W        W56574  11.357  12.360  14.502
92807W        W56575   2.454  19.148   3.765
92808W        W56576  14.126  14.673   9.947
92809W        W56577   1.928   7.228   1.925
92810W        W56578  26.962  23.696   1.723
92811W        W56579  30.470  21.565   1.734
92812W        W56580   8.186  22.231   4.252
92813W        W56581  38.887  24.648   3.224
92814W        W56582  28.003  43.312   1.801
92815W        W56583  38.824  33.619   1.807
92816W        W56584  22.676  25.641   0.329
92817W        W56585  18.181  14.144  14.342
92818W        W56586  21.222  19.245  12.994
92819W        W56587   4.756  34.876  13.805
92820W        W56588  20.247   1.345  12.069
92821W        W56589  33.514  41.823   4.124
92822W        W56590  34.537  15.240  12.387
92823W        W56591  10.282  15.685   5.249
92824W        W56592  39.830  14.211   0.822
92825W        W56593  12.258  20.662   2.334
92826W        W56594  35.453  44.759  13.461
92827W        W56595  27.082  42.927   3.353
92828W        W56596  26.967  36.017   3.842
92829W        W56597  37.051  28.573   1.810
92830W        W56598  16.234   0.942   4.717
92831W        W56599  34.979  36.092   5.267
92832W        W56600  19.678  22.172   4.728
92833W        W56601  35.360  11.712  12.070
92834W        W56602   0.792  17.716  13.052
92835W        W56603  25.128  24.049   1.287
92836W        W56604  27.175  35.928   2.866
92837W        W56605  14.683  42.494  12.890
92838W        W56606  20.708  36.523   1.824
92839W        W56607  19.105  19.213  11.573
92840W        W56608  37.033   9.743   3.373
92841W        W56609  37.509  14.216   2.287
92842W        W56610  13.732   6.800   0.463
92843W        W56611  14.803  10.728  11.857
92844W        W56612   5.821  18.198   0.302
92845W        W56613  43.361  37.862   4.632
92846W        W56614  10.191  23.726   1.429
92847W        W56615  30.031  28.542  12.366
92848W        W56616  10.178  19.675   1.829
92849W        W56617   1.788  32.110  10.131
92850W        W56618  28.964   1.874   3.785
92851W        W56619  44.011  23.022  11.911
92852W        W56620  20.170  31.011   1.912
92853W        W56621  39.844  35.965   1.733
92854W        W56622  22.552  23.511   5.237
92855W        W56623  43.789   0.473   2.277
92856W        W56624  23.726  18.760   2.686
92857W        W56625  29.163   8.353   4.664
92858W        W56626  12.330  11.762  14.800
92859W        W56627  27.638  16.251  12.975
92860W        W56628  25.206  40.499   4.669
92861W        W56629  31.621  37.930   0.249
92862W        W56630  27.140  32.020  12.854
92863W        W56631   4.879  19.063   1.335
92864W        W56632  27.497  35.500   1.367
92865W        W56633  38.822   7.178   3.794
92866W        W56634  19.724  37.022  12.978
92867W        W56635  12.848   4.729  12.088
92868W        W56636  22.067   6.428   4.292
92869W        W56637  42.509   3.388  10.954
92870W        W56638   1.284  41.935   3.842
92871W        W56639  37.992   9.775  11.474
92872W        W56640  29.600   2.942   0.286
92873W        W56641   8.683  13.170   4.827
92874W        W56642  24.509  23.159   1.414
92875W        W56643  11.334  33.620  11.884
92876W        W56644  44.761  41.913  13.931
92877W        W56645  22.621   7.680  14.355
92878W        W56646  27.055  33.056   1.740
92879W        W56647   1.807  19.097   4.214
92880W        W56648  40.465  23.606  13.913
92881W        W56649   5.857  37.517   4.673
92882W        W56650  11.363  15.164   4.679
92883W        W56651   3.893  13.330  14.776
92884W        W56652   3.792  20.250  11.410
92885W        W56653  29.021  35.025  13.878
92886W        W56654  27.464  11.857  14.494
92887W        W56655  44.469  15.193  10.433
92888W        W56656   0.817  28.092  14.960
92889W        W56657  16.678  16.280  11.406
92890W        W56658  10.638  34.372   1.344
92891W        W56659  31.478  43.845   4.316
92892W        W56660  24.128  16.223  12.462
92893W        W56661  43.405  38.439   2.796
92894W        W56662  38.363  11.189  14.881
92895W        W56663  44.474  29.426   9.968
92896W        W56664  28.576  33.590   0.788
92897W        W56665  31.467  21.052  13.980
92898W        W56666   9.682  42.510   2.785
92899W        W56667  43.312  11.670   1.404
92900W        W56668  16.792   9.844   2.213
92901W        W56669  14.099   1.934  14.460
92902W        W56670  23.623  17.708   1.856
92903W        W56671  42.427   8.667  14.910
92904W        W56672  30.552  43.782   2.788
92905W        W56673  19.122  19.628  11.868
92906W        W56674   0.844   0.336  10.490
92907W        W56675   2.239  37.502  11.120
92908W        W56676   4.259  14.588  12.945
92909W        W56677   2.795   1.408  14.326
92910W        W56678  27.978  13.685  11.063
92911W        W56679   5.888   4.875   4.150
92912W        W56680  22.249   1.794  13.852
92913W        W56681  26.566  16.694  12.467
92914W        W56682  31.425   8.777   1.769
92915W        W56683  18.744  41.920   4.316
92916W        W56684  21.575  16.122   3.851
92917W        W56685   2.382   8.202  12.066
92918W        W56686  10.242   6.726  12.890
92919W        W56687  43.787  31.510   1.712
92920W        W56688  26.979  34.962  12.413
92921W        W56689  44.480  29.579   0.443
92922W        W56690  34.908   9.236   5.110
92923W        W56691   9.885   1.478  10.441
92924W        W56692  19.064  33.539  11.482
92925W        W56693  13.723  25.476  11.553
92926W        W56694  43.272   0.462   3.218
92927W        W56695  29.109  43.848  11.456
92928W        W56696  41.954  27.519   2.902
92929W        W56697  42.916  11.352   4.642
92930W        W56698  32.011   3.849   3.712
92931W        W56699   9.832  27.539   3.289
92932W        W56700  32.913  31.599   4.828
92933W        W56701  21.530  42.999   1.750
92934W        W56702  35.954  28.046  11.894
92935W        W56703  20.720  24.654  12.835
92936W        W56704   0.334  27.981   4.203
92937W        W56705  25.579   6.233   3.829
92938W        W56706  31.038  28.461   3.733
92939W        W56707  31.642  27.464   2.817
92940W        W56708   9.326   5.319  11.573
92941W        W56709  20.746  29.474  11.870
92942W        W56710  32.493   8.823  11.474
92943W        W56711  39.063  30.152   5.245
92944W        W56712  39.006   4.313  12.858
92945W        W56713  36.931  31.081  13.487
92946W        W56714  30.648   1.335  13.050
92947W        W56715  36.452   0.915   0.257
92948W        W56716   3.824  12.671   0.860
92949W        W56717  17.739  28.167  13.866
92950W        W56718  27.130   0.267   4.679
92951W        W56719  12.659  30.527  13.481
92952W        W56720  11.187  35.576   1.775
92953W        W56721   0.325  19.744  10.997
92954W        W56722  11.243   9.826  13.977
92955W        W56723  11.134  21.210  11.016
92956W        W56724  38.444  43.516   2.206
92957W        W56725  35.963  29.451   3.853
92958W        W56726   2.416  12.267   4.713
92959W        W56727  26.590  29.109   0.805
92960W        W56728  17.137  12.340   0.942
92961W        W56729  33.019  21.606  12.461
92962W        W56730  16.156  36.072  14.828
92963W        W56731  40.978  28.542  10.618
92964W        W56732   1.851  15.159  11.933
92965W        W56733  43.989   8.231   1.694
92966W        W56734  12.305   6.346   2.341
92967W        W56735  40.873  21.561   0.875
92968W        W56736  41.934   8.375  14.028
92969W        W56737  30.602  16.625   4.129
92970W        W56738  28.596  22.165   3.836
92971W        W56739  18.119  15.750  11.040
92972W        W56740   7.390  33.422   0.350
92973W        W56741  15.660  36.099  10.598
92974W        W56742  25.995   9.648   2.830
92975W        W56743  27.991  30.584  11.611
92976W        W56744  21.091  30.615   4.764
92977W        W56745  34.607  41.331  13.380
92978W        W56746   8.234   4.286   3.725
92979W        W56747  29.428   6.783   0.318
92980W        W56748  27.078  23.062   4.682
92981W        W56749  27.581  16.786  14.017
92982W        W56750  11.337  39.875   4.773
92983W        W56751  43.376   1.834   0.736
92984W        W56752  44.474  42.844  14.944
92985W        W56753  32.620  15.646   0.736
92986W        W56754   3.368  11.754  10.458
92987W        W56755   0.789  41.456   5.182
92988W        W56756  22.190  12.258   4.205
92989W        W56757  23.601  28.094   1.829
92990W        W56758   0.748  16.757  11.517
92991W        W56759  19.270  43.431   3.672
92992W        W56760   7.863  15.133   1.234
92993W        W56761  44.494  28.067  13.967
92994W        W56762   1.790  37.932   1.720
92995W        W56763  18.623  30.647   0.289
92996W        W56764  35.924  13.108   2.295
92997W        W56765  38.447  43.303  14.503
92998W        W56766   1.832  25.713   3.743
92999W        W56767  21.659  26.570  10.568
93000W        W56768   2.279  12.666   1.925
93001W        W56769  20.748  14.706   0.780
93002W        W56770  41.312  18.106   0.367
93003W        W56771   7.794   6.388  13.434
93004W        W56772  12.358  17.693  11.925
93005W        W56773  28.464  21.634   4.329
93006W        W56774  39.440  13.769   3.738
93007W        W56775  14.682  44.311  10.980
93008W        W56776   1.328  27.036   1.775
93009W        W56777  20.726  39.452   0.750
93010W        W56778  10.242  44.008  11.008
93011W        W56779  28.680  41.409  14.327
93012W        W56780  20.065  16.691  10.426
93013W        W56781  44.291   4.867   0.410
93014W        W56782  20.062  23.186  12.381
93015W        W56783  22.737  15.161   2.714
93016W        W56784  44.471  18.157  12.385
93017W        W56785  12.680  13.147   1.339
93018W        W56786  20.731   2.807   0.746
93019W        W56787  40.880  25.198  11.897
93020W        W56788  38.014   1.870  11.544
93021W        W56789   6.272  17.275  13.486
93022W        W56790  21.681  36.000  10.506
93023W        W56791  42.992   8.381   0.395
93024W        W56792  20.597   3.379   3.253
93025W        W56793  30.656  36.893  12.081
93026W        W56794  22.177  44.772  13.805
93027W        W56795   9.177  25.128  11.039
93028W        W56796   5.860  13.706   2.741
93029W        W56797  10.236  26.998  12.967
93030W        W56798  16.580  38.537  11.118
93031W        W56799  38.413  32.010   5.219
93032W        W56800  42.433  29.469   3.201
93033W        W56801   5.877   3.829   1.762
93034W        W56802  21.535  35.483   4.616
93035W        W56803   7.907  39.822  13.863
93036W        W56804  37.896  13.760   4.800
93037W        W56805  23.160  37.503  10.511
93038W        W56806  35.970  15.740   2.368
93039W        W56807   1.826  37.950   2.307
93040W        W56808   2.860   8.821  11.611
93041W        W56809  12.663   7.184   3.724
93042W        W56810  11.654  25.972  11.958
93043W        W56811  41.789  27.032  14.880
93044W        W56812  23.660   1.374   4.334
93045W        W56813  13.788  24.661  14.434
93046W        W56814  37.429  42.506   3.696
93047W        W56815  10.236   1.457   0.253
93048W        W56816  29.969   5.282   2.372
93049W        W56817  31.926  16.673   4.135
93050W        W56818  11.262  10.288   4.673
93051W        W56819   8.785  41.901   0.298
93052W        W56820   8.681  11.353   2.801
93053W        W56821  44.412  29.527   3.243
93054W        W56822  38.940   4.334  12.453
93055W        W56823  41.039   5.321  14.503
93056W        W56824   0.749  15.669   0.750
93057W        W56825  43.859  20.084   3.740
93058W        W56826  18.750  23.081  13.000
93059W        W56827  40.383  43.463   0.282
93060W        W56828  20.551  32.992   3.376
93061W        W56829  42.867  39.841  12.093
93062W        W56830  27.025  41.804   2.757
93063W        W56831  34.951  34.112   4.131
93064W        W56832  36.589  38.896   2.380
93065W        W56833  12.825  15.708   4.699
93066W        W56834   4.382  37.899  10.543
93067W        W56835   3.259  12.719  13.913
93068W        W56836  14.178  23.147  11.007
93069W        W56837   1.399  18.259   0.846
93070W        W56838  38.486   3.277   3.207
93071W        W56839  22.647  22.039  11.430
93072W        W56840  16.157  20.057  12.417
93073W        W56841   6.775  34.873  10.931
93074W        W56842   7.384  42.833   0.264
93075W        W56843  28.006   1.418  12.036
93076W        W56844  18.209  18.630   2.842
93077W        W56845   1.841  24.574  13.041
93078W        W56846  28.461  37.974  13.447
93079W        W56847  28.034   9.696   0.888
93080W        W56848  39.416  25.653  13.436
93081W        W56849  37.400  25.107  13.022
93082W        W56850  24.586   7.893  12.963
93083W        W56851   9.873  20.567   4.831
93084W        W56852   3.261   2.889   1.244
93085W        W56853  17.111  38.995  12.923
93086W        W56854  33.926  37.863  14.447
93087W        W56855  14.162  15.292  14.802
93088W        W56856   2.414  38.007   3.197
93089W        W56857  23.526  38.533   0.277
93090W        W56858   6.685  20.043   2.180
93091W        W56859  24.659  14.178  14.761
93092W        W56860  13.241  40.904   4.170
93093W        W56861  23.214  41.346  13.456
93094W        W56862  44.921   4.288   2.361
93095W        W56863  38.437  36.903  11.885
93096W        W56864  43.828  35.476  11.593
93097W        W56865  43.373  10.852  13.440
93098W        W56866   2.944  31.142  11.410
93099W        W56867  31.030  37.984   2.276
93100W        W56868  20.653   4.835  10.933
93101W        W56869   8.667   0.975  13.970
93102W        W56870  38.048  14.651  11.411
93103W        W56871  17.141  30.609   2.411
93104W        W56872  20.029   7.260  10.922
93105W        W56873  12.302  40.962   4.758
93106W        W56874  20.716  13.743  11.087
93107W        W56875  11.176   7.369  11.910
93108W        W56876  32.022   8.216   4.810
93109W        W56877  25.055   6.360   0.865
93110W        W56878  27.685  26.488   4.175
93111W        W56879   4.206   2.825  13.354
93112W        W56880   4.869  31.932  11.405
93113W        W56881  28.562  34.079  12.383
93114W        W56882  15.798  39.357  13.902
93115W        W56883  26.067   4.867  13.860
93116W        W56884  43.510  27.688   3.345
93117W        W56885  39.473  17.156   1.392
93118W        W56886   5.897  43.872   3.636
93119W        W56887  28.560  19.202   2.352
93120W        W56888  40.434  29.125  12.473
93121W        W56889  28.077  31.931  11.035
93122W        W56890   4.426  12.754  11.490
93123W        W56891  35.548  11.655  12.396
93124W        W56892  28.617  11.707  10.575
93125W        W56893  30.045   6.358   2.286
93126W        W56894  31.561  13.742   0.245
93127W        W56895  43.809  25.129  12.018
93128W        W56896  18.746  34.430  12.025
93129W        W56897  19.551  16.101  12.482
93130W        W56898  44.478  22.083   3.148
93131W        W56899   7.245  19.552  12.857
93132W        W56900  42.806   5.387   1.324
93133W        W56901  41.526  44.794  13.955
93134W        W56902  27.180  22.572  10.080
93135W        W56903  29.548   0.928   3.149
93136W        W56904  28.962  26.110  11.497
93137W        W56905  10.239  26.694   1.908
93138W        W56906  35.865  41.899   1.748
93139W        W56907   8.840  36.919   4.127
93140W        W56908  17.292   6.909   3.854
93141W        W56909   3.807   3.907  14.897
93142W        W56910   9.376   9.756  14.446
93143W        W56911  30.464  33.584   4.184
93144W        W56912  20.556   6.261  11.429
93145W        W56913  36.976   6.735  11.951
93146W        W56914  17.644   0.279   1.413
93147W        W56915  21.230  35.881  10.987
93148W        W56916  36.924  35.501  12.997
93149W        W56917   9.663  12.165   1.811
93150W        W56918  16.146  38.868   4.793
93151W        W56919  16.237  40.853   4.617
93152W        W56920   9.760   4.411  12.421
93153W        W56921  36.443  38.462   4.176
93154W        W56922  18.604  23.998   4.185
93155W        W56923  26.034   2.925  13.926
93156W        W56924   4.909  36.564   1.345
93157W        W56925  12.805  36.351  14.907
93158W        W56926  11.695  22.150   1.384
93159W        W56927  41.874  35.871   1.329
93160W        W56928   1.304  37.930  12.831
93161W        W56929   1.280  24.200   2.885
93162W        W56930  43.480  22.109   4.277
93163W        W56931  25.543  40.492  14.896
93164W        W56932  39.478   8.781   0.774
93165W        W56933  30.941  14.332  13.011
93166W        W56934  13.292  27.003   0.732
93167W        W56935   7.331  42.882   1.758
93168W        W56936   9.390  10.164  10.602
93169W        W56937  36.043  20.193   3.691
93170W        W56938   9.204  33.930  14.919
93171W        W56939   6.418  15.312   0.463
93172W        W56940   1.748   9.882  13.051
93173W        W56941  28.983   6.188   4.304
93174W        W56942  20.627  36.354  11.487
93175W        W56943   3.895  27.574   3.648
93176W        W56944  18.608  22.193   4.243
93177W        W56945  17.114  19.703  11.061
93178W        W56946  12.161  26.063  13.438
93179W        W56947  43.327  44.819   4.149
93180W        W56948  13.325  37.040  10.601
93181W        W56949  20.051   5.719   4.243
93182W        W56950  29.489  12.642   4.139
93183W        W56951   7.398  32.123  14.984
93184W        W56952  33.947  41.341  13.357
93185W        W56953  16.720  18.073   1.256
93186W        W56954   4.309  38.458   1.831
93187W        W56955   6.776   0.857  12.527
93188W        W56956  14.702  26.137  10.986
93189W        W56957  35.963   5.384  12.018
93190W        W56958   1.439  25.027  11.472
93191W        W56959  21.018  34.456   4.718
93192W        W56960  13.169  24.978   4.209
93193W        W56961  40.543  12.671  10.551
93194W        W56962  21.101   5.711   4.191
93195W        W56963  15.323  18.653  10.146
93196W        W56964  23.073  14.765   4.142
93197W        W56965   1.970  23.599   2.312
93198W        W56966  22.154  22.526  14.313
93199W        W56967   2.773  12.825  14.375
93200W        W56968  28.970  38.917   4.313
93201W        W56969   9.156  31.008  13.509
93202W        W56970  36.016  13.164  10.998
93203W        W56971  12.788  27.103   2.718
93204W        W56972  22.137  31.417   2.797
93205W        W56973  44.381  40.415  12.012
93206W        W56974  29.655  28.042  12.068
93207W        W56975   6.363  29.075   4.628
93208W        W56976  20.241  30.033   2.299
93209W        W56977   2.387   9.284   2.677
93210W        W56978  28.057  22.227   4.759
93211W        W56979  13.225   1.820   4.725
93212W        W56980  34.953   0.798   5.314
93213W        W56981  31.147   7.736   2.229
93214W        W56982  33.399  19.060  11.062
93215W        W56983  10.873  35.904  13.024
93216W        W56984  36.960  16.312   0.457
93217W        W56985  43.007  27.686  14.426
93218W        W56986   6.317   5.844  13.354
93219W        W56987  37.421  37.400  11.903
93220W        W56988  42.323  32.969  14.312
93221W        W56989  29.463  14.793   0.767
93222W        W56990  11.239   2.445   4.220
93223W        W56991  44.305   1.432   2.795
93224W        W56992  19.065   3.365  13.934
93225W        W56993  44.754   1.335  12.095
93226W        W56994  41.913  36.941  14.906
93227W        W56995  33.483  42.419  13.027
93228W        W56996   2.762  44.367  12.549
93229W        W56997   4.923  35.949   4.322
93230W        W56998  36.946  37.544  11.999
93231W        W56999   9.282  14.692   3.723
93232W        W57000   9.337  29.578  11.918
93233W        W57001   7.775  36.378   1.232
93234W        W57002   7.785   1.927  11.967
93235W        W57003  26.596  14.278   3.778
93236W        W57004  38.922   9.783   1.369
93237W        W57005  20.626  23.680   4.316
93238W        W57006   4.283  42.808   0.912
93239W        W57007   2.380  23.540  10.040
93240W        W57008  19.273  27.091   0.254
93241W        W57009  26.107   3.771  11.080
93242W        W57010   8.723   7.743   0.899
93243W        W57011  24.052  35.903  14.323
93244W        W57012  17.575  19.540  13.977
93245W        W57013  13.779  29.054   1.374
93246W        W57014  17.688  42.379  12.453
93247W        W57015  21.647  34.890  11.984
93248W        W57016  35.028  34.416   1.883
93249W        W57017  36.879   6.897   3.219
93250W        W57018  21.628  37.030  14.335
93251W        W57019  28.095  22.131  10.094
93252W        W57020  15.687  20.592  12.452
93253W        W57021  10.239   6.332   4.234
93254W        W57022   8.687   7.356  13.376
93255W        W57023  41.809  36.429  14.928
93256W        W57024   7.342  41.389   2.679
93257W        W57025  16.639  38.898   1.872
93258W        W57026  44.946  27.607   3.772
93259W        W57027  41.818  36.486   0.956
93260W        W57028  15.213  24.543   1.775
93261W        W57029   8.371  10.632   2.664
93262W        W57030   9.394   9.695  10.895
93263W        W57031  29.086  29.156   1.710
93264W        W57032   9.321  32.095   5.233
93265W        W57033   8.719  37.516  13.028
93266W        W57034  29.558  30.518  14.924
93267W        W57035  40.530  11.308   0.286
93268W        W57036  32.618  40.807  13.484
93269W        W57037  40.858   4.796  14.342
93270W        W57038  26.559  42.890  12.825
93271W        W57039  25.064  11.647  12.375
93272W        W57040  27.156  21.749  12.825
93273W        W57041  34.591   2.873  10.530
93274W        W57042  31.563  41.372  14.865
93275W        W57043  23.597  37.458   5.091
93276W        W57044  40.034  17.587  11.098
93277W        W57045  37.502  23.543   1.381
93278W        W57046  15.203  14.320  14.495
93279W        W57047   7.267  22.709  14.015
93280W        W57048  23.175  24.136   0.888
93281W        W57049  36.991  40.437  10.438
93282W        W57050  28.154  13.220  10.894
93283W        W57051   4.931   7.279   1.756
93284W        W57052  12.172  12.279  14.005
93285W        W57053  30.067  36.088   2.686
93286W        W57054  15.653   6.266  13.366
93287W        W57055  13.131  28.111  11.061
93288W        W57056  42.814  33.993   0.443
93289W        W57057  10.741  32.992  12.511
93290W        W57058  30.014   4.264   0.829
93291W        W57059   4.778   7.891  12.913
93292W        W57060  32.090  17.306   4.792
93293W        W57061   7.687  41.854   3.373
93294W        W57062  12.138   8.864  12.037
93295W        W57063  22.552   9.330  14.008
93296W        W57064  22.523  22.706  11.477
93297W        W57065  35.578  26.083  10.459
93298W        W57066   1.780  37.938   9.972
93299W        W57067  42.912   1.299  13.865
93300W        W57068   5.411  41.447  10.544
93301W        W57069   7.203  44.444   2.289
93302W        W57070  40.443   6.278   2.331
93303W        W57071  27.951  18.765   1.894
93304W        W57072   7.840  29.114  14.495
93305W        W57073   4.710  23.026  10.524
93306W        W57074   6.349   2.833   1.851
93307W        W57075   9.829  19.114   4.122
93308W        W57076  16.801  37.939  12.877
93309W        W57077  23.591   3.714   2.233
93310W        W57078   5.731   6.788   2.728
93311W        W57079   4.335  30.543   3.179
93312W        W57080  32.605  29.111  14.793
93313W        W57081  28.091   8.687   5.133
93314W        W57082  11.857  15.145   0.357
93315W        W57083  39.996   5.415   0.468
93316W        W57084  34.085   3.316   1.307
93317W        W57085  34.947  15.584   1.310
93318W        W57086  37.565   7.319   2.779
93319W        W57087  11.807  31.644   4.625
93320W        W57088  25.057  28.987   4.673
93321W        W57089  12.287  14.323  14.295
93322W        W57090  14.242  18.251  11.887
93323W        W57091  36.032  28.615  14.410
93324W        W57092  35.075  18.609   5.135
93325W        W57093   0.459  38.983  13.435
93326W        W57094   3.269  16.268   4.818
93327W        W57095  31.412  30.589  12.985
93328W        W57096  38.457  28.659  12.920
93329W        W57097  22.647  23.013  10.947
93330W        W57098  37.561  44.307   3.697
93331W        W57099  43.290  43.393  10.485
93332W        W57100   7.809  20.102   1.407
93333W        W57101   6.896  26.590   0.450
93334W        W57102  31.498  18.067  10.924
93335W        W57103   3.736  11.706   1.327
93336W        W57104   8.276   0.842  14.450
93337W        W57105  29.050  37.533   2.352
93338W        W57106   9.188  27.968   2.809
93339W        W57107   5.242  23.595   0.919
93340W        W57108  42.785  42.425   2.814
93341W        W57109   3.772  18.132   5.184
93342W        W57110   9.687  17.647   2.738
93343W        W57111   6.906  21.241  13.898
93344W        W57112  39.879  28.652  13.458
93345W        W57113  24.588  37.502   3.309
93346W        W57114   0.344  42.453  11.485
93347W        W57115  34.902  12.809   1.768
93348W        W57116  20.098  35.460   4.236
93349W        W57117  35.986  14.189   2.875
93350W        W57118  34.459  13.626  14.289
93351W        W57119  24.033  44.275   1.297
93352W        W57120   0.252   0.817   1.760
93353W        W57121  29.563  40.357   4.167
93354W        W57122  33.570  10.780  11.528
93355W        W57123  23.710  13.194  11.928
93356W        W57124   0.807  39.856  11.512
93357W        W57125  44.276  42.464  13.327
93358W        W57126   5.796  26.996   2.811
93359W        W57127  32.527  20.701  14.862
93360W        W57128  14.689  38.508  13.987
93361W        W57129  29.648  10.222  10.424
93362W        W57130  32.989  18.625  11.069
93363W        W57131  41.347  15.216   2.790
93364W        W57132   7.694  37.932  14.020
93365W        W57133  38.327   8.205  14.967
93366W        W57134  44.859  16.784  14.351
93367W        W57135  20.613  43.405  12.370
93368W        W57136  15.207  43.879   0.438
93369W        W57137  21.177  44.498   2.204
93370W        W57138  40.503  16.185  12.073
93371W        W57139  27.641  22.724   3.235
93372W        W57140  23.567  17.802  13.446
93373W        W57141   1.442  17.270  13.818
93374W        W57142  21.081  35.468   0.756
93375W        W57143  28.570  21.598  14.304
93376W        W57144  26.125  15.231  11.121
93377W        W57145  16.164  32.055  12.437
93378W        W57146  21.667  38.378  10.616
93379W        W57147  40.519  33.483  11.482
93380W        W57148  26.117  22.213  12.520
93381W        W57149  22.037  16.669   4.734
93382W        W57150  34.391  32.982  10.966
93383W        W57151  37.561  43.002   0.779
93384W        W57152  16.288  20.154   5.693
93385W        W57153  22.165   7.891  14.973
93386W        W57154   5.404  15.594  11.086
93387W        W57155  30.061  36.091   1.364
93388W        W57156  11.212  37.873   4.150
93389W        W57157   0.948  15.243  12.353
93390W        W57158  26.583   9.260   4.659
93391W        W57159  33.477  34.922  10.593
93392W        W57160  22.596  27.457  11.414
93393W        W57161   3.217  19.250   1.898
93394W        W57162   7.769  35.027   3.208
93395W        W57163   6.375  33.989   2.329
93396W        W57164   3.305  27.012   0.453
93397W        W57165  31.598  28.664  13.532
93398W        W57166   2.457   2.413   2.334
93399W        W57167   6.803  30.561  14.502
93400W        W57168  34.055  20.209   0.833
93401W        W57169  32.087  21.129   3.243
93402W        W57170  27.486   9.227   0.967
93403W        W57171   1.901  40.974   3.314
93404W        W57172   6.287  30.133   4.187
93405W        W57173  23.115  22.559  11.516
93406W        W57174  43.356  12.701   3.710
93407W        W57175  35.037  10.874   1.716
93408W        W57176   7.834  39.951   4.807
93409W        W57177  28.963  20.661   4.323
93410W        W57178  26.195  37.537   3.383
93411W        W57179  10.817  31.062  12.446
93412W        W57180  40.022  16.094   0.927
93413W        W57181  37.886  40.878  12.370
93414W        W57182  32.120  13.344   2.345
93415W        W57183  28.080  13.139  14.987
93416W        W57184  20.651   8.318  13.876
93417W        W57185  31.963  34.075  14.310
93418W        W57186  27.128   3.245   4.318
93419W        W57187   1.336  10.746   0.854
93420W        W57188  31.909  34.000   3.747
93421W        W57189  39.438   3.766   1.315
93422W        W57190  33.553  16.604   1.257
93423W        W57191  31.092  24.505  14.833
93424W        W57192  17.260   5.928   0.252
93425W        W57193  12.615  15.168   1.862
93426W        W57194  11.244  16.308  13.541
93427W        W57195  19.663  30.566  12.864
93428W        W57196  17.256  30.585  10.982
93429W        W57197  39.332   4.432   1.854
93430W        W57198  21.694  11.194   2.274
93431W        W57199  16.590  20.744  12.980
93432W        W57200  24.487   4.312   0.938
93433W        W57201   2.467  26.139   1.251
93434W        W57202  14.821  18.546   5.313
93435W        W57203  33.598  28.134   2.804
93436W        W57204  17.774  30.001   4.669
93437W        W57205   0.843  44.985  13.433
93438W        W57206  15.224   5.885  14.491
93439W        W57207  35.585  27.588   1.294
93440W        W57208  38.947  24.982  12.389
93441W        W57209  12.301  18.225   4.210
93442W        W57210  37.430   6.822   5.157
93443W        W57211  14.612  34.102   3.660
93444W        W57212  27.997   9.324   0.393
93445W        W57213  32.409  27.630  11.402
93446W        W57214  30.535  38.332  12.042
93447W        W57215  19.131  40.851  13.480
93448W        W57216   9.189  31.472  12.950
93449W        W57217   1.903  30.533  14.489
93450W        W57218   6.226  15.146  12.489
93451W        W57219  32.461  19.739   4.705
93452W        W57220  34.574   0.972  12.376
93453W        W57221  40.549  25.683   4.297
93454W        W57222  14.193   7.393  11.111
93455W        W57223  33.416  23.532  13.061
93456W        W57224  40.976  26.512  14.953
93457W        W57225   6.757  11.166   4.758
93458W        W57226  23.592  21.101  10.597
93459W        W57227  19.172  28.055   1.816
93460W        W57228   3.296   5.843   3.817
93461W        W57229  43.485  34.902  11.429
93462W        W57230  42.934  28.964  10.559
93463W        W57231  17.152  25.651   5.294
93464W        W57232   3.243  35.923  14.409
93465W        W57233  16.804  36.551  14.837
93466W        W57234  31.089  30.456   2.684
93467W        W57235  41.864  13.820   4.212
93468W        W57236  38.453   9.842   4.619
93469W        W57237  23.678  38.930  13.825
93470W        W57238   4.914   7.346   4.150
93471W        W57239  17.184   9.852  12.979
93472W        W57240  23.074   1.834  13.544
93473W        W57241  38.512  28.069   0.330
93474W        W57242  11.860   0.892   2.794
93475W        W57243  39.416  20.150  14.909
93476W        W57244  44.457   7.780  13.402
93477W        W57245  14.098  35.995   3.785
93478W        W57246  22.150  24.622   0.429
93479W        W57247  15.157  19.083   3.193
93480W        W57248  35.571  16.192  14.494
93481W        W57249  26.585   4.791  10.631
93482W        W57250   8.350  15.299   2.736
93483W        W57251  30.426  12.262  11.399
93484W        W57252   3.903  25.609  14.773
93485W        W57253   2.895  32.982   0.944
93486W        W57254  25.579  40.896  14.002
93487W        W57255  12.118  22.123   2.187
93488W        W57256  30.532  33.103  10.451
93489W        W57257  21.153  33.004  10.621
93490W        W57258   0.411  38.510   3.359
93491W        W57259  42.893  43.339   4.236
93492W        W57260  20.673  32.629  12.413
93493W        W57261  37.398  24.089  12.362
93494W        W57262  33.903  12.221  11.377
93495W        W57263  13.650   6.919  13.340
93496W        W57264  28.649  12.661   3.205
93497W        W57265  30.562  32.552   2.700
93498W        W57266  37.539   0.494  10.405
93499W        W57267  36.856  34.878  14.029
93500W        W57268  22.158   6.741  14.783
93501W        W57269  21.554  36.995  12.446
93502W        W57270  39.047  15.662  12.420
93503W        W57271  22.532   8.363  12.920
93504W        W57272   9.155  25.699   2.271
93505W        W57273  28.124  33.478  12.456
93506W        W57274  14.106  44.871   2.863
93507W        W57275  40.447  19.757   1.859
93508W        W57276   3.844  29.041   4.829
93509W        W57277  18.708  17.724  13.017
93510W        W57278   3.944  12.716  10.442
93511W        W57279  15.293  44.390   1.442
93512W        W57280  27.034  10.222  12.074
93513W        W57281   8.868  43.493   4.271
93514W        W57282  13.762  25.967   0.846
93515W        W57283  43.311  26.151   3.678
93516W        W57284  16.746  35.426   2.393
93517W        W57285   0.264  35.489  12.933
93518W        W57286  41.359   1.830   4.239
93519W        W57287  36.948  19.644  12.995
93520W        W57288  11.260  42.988  10.446
93521W        W57289  32.942  30.102   4.305
93522W        W57290   8.356  23.582   4.737
93523W        W57291  38.444  13.296  12.554
93524W        W57292  33.905  16.241  12.044
93525W        W57293  44.497  33.426   3.302
93526W        W57294  37.913   6.751  11.531
93527W        W57295  13.708   2.793  13.512
93528W        W57296  25.990  12.287   0.367
93529W        W57297   4.819  38.958  13.899
93530W        W57298   6.783  20.037   3.768
93531W        W57299  36.039  42.292   3.803
93532W        W57300  44.762   8.335  11.977
93533W        W57301  33.016  34.441   4.604
93534W        W57302  33.523  27.670   0.439
93535W        W57303  19.249  39.054   3.346
93536W        W57304   4.810  36.852  14.425
93537W        W57305  10.863  25.980   0.782
93538W        W57306  11.269  33.945  11.036
93539W        W57307  32.932  15.123   2.348
93540W        W57308  40.369   6.882  12.087
93541W        W57309  24.594  15.684   1.309
93542W        W57310  21.099  15.225  11.577
93543W        W57311  40.031  30.482   2.792
93544W        W57312  42.521   2.344  12.936
93545W        W57313  23.148  13.693  14.965
93546W        W57314  35.518   9.210  11.937
93547W        W57315  39.927   7.305  12.385
93548W        W57316  28.679  25.585   3.644
93549W        W57317   0.412  13.808  14.032
93550W        W57318   6.799  41.441   3.287
93551W        W57319  28.996  22.171   4.265
93552W        W57320   3.310  38.336  13.912
93553W        W57321   1.333  17.247   0.747
93554W        W57322  43.798  36.392  13.872
93555W        W57323   1.380   2.355   0.317
93556W        W57324  19.171   9.852  10.950
93557W        W57325   4.813  25.984   1.875
93558W        W57326  13.146  11.209   0.429
93559W        W57327  36.015  38.055   3.356
93560W        W57328  43.939  15.581  14.824
93561W        W57329  34.924   0.493  13.040
93562W        W57330  43.366  21.068  12.556
93563W        W57331  20.701  21.103   3.804
93564W        W57332  41.832  34.106  12.006
93565W        W57333  24.657  37.945  10.415
93566W        W57334  18.053   9.736   0.782
93567W        W57335  18.234  29.502  11.981
93568W        W57336  31.520  12.170   3.844
93569W        W57337  23.558  39.489   2.281
93570W        W57338  16.182  40.829   2.700
93571W        W57339  25.623  19.698  10.538
93572W        W57340  21.536  35.943  13.001
93573W        W57341  43.963  16.170   1.860
93574W        W57342  41.385   5.893  14.785
93575W        W57343  16.125  21.573   1.211
93576W        W57344   7.912  21.513   0.794
93577W        W57345  33.588  18.218   4.713
93578W        W57346  39.442  41.463   2.344
93579W        W57347  30.419  37.353   5.240
93580W        W57348  29.169  18.567  10.994
93581W        W57349  17.169  31.101  10.569
93582W        W57350  13.255   0.890  10.525
93583W        W57351  12.131  40.313   3.699
93584W        W57352  17.705   8.828  11.855
93585W        W57353  38.830   9.289  12.513
93586W        W57354  18.775  32.027   4.695
93587W        W57355  34.510  10.335  12.357
93588W        W57356  34.099  43.999  10.509
93589W        W57357  44.499  37.459   0.417
93590W        W57358  32.937  43.963  10.466
93591W        W57359  23.240  29.015  11.051
93592W        W57360  40.907  13.626  14.350
93593W        W57361   4.773   0.286  10.080
93594W        W57362  41.932  21.166   2.857
93595W        W57363   5.738  35.856  14.515
93596W        W57364  23.063  34.017  11.993
93597W        W57365  16.296  27.678   4.740
93598W        W57366  29.635  12.300  11.861
93599W        W57367  40.466  40.549   0.918
93600W        W57368  21.594   5.195  11.086
93601W        W57369  42.500  39.451  14.369
93602W        W57370  11.838  32.958  13.437
93603W        W57371  42.875  43.316   2.263
93604W        W57372  41.387  31.506   1.906
93605W        W57373  18.565  41.523  12.025
93606W        W57374  15.770  34.092  12.534
93607W        W57375  21.562   1.837   2.246
93608W        W57376  31.017  36.376   2.378
93609W        W57377   5.400  27.047   3.781
93610W        W57378  21.681  17.250  11.895
93611W        W57379   1.926  31.065   2.694
93612W        W57380  11.632  42.460   1.358
93613W        W57381  14.821  17.749   9.484
93614W        W57382  20.645  30.930   2.184
93615W        W57383  35.993  14.191   3.346
93616W        W57384  11.634  41.511   5.178
93617W        W57385  35.468  44.270  13.016
93618W        W57386  37.086   2.466  14.446
93619W        W57387  15.093  20.559  12.571
93620W        W57388  23.604  19.747   1.367
93621W        W57389  29.116  30.492   4.650
93622W        W57390  30.932   0.800  14.497
93623W        W57391  32.396  17.218  13.364
93624W        W57392   6.681  37.384  13.796
93625W        W57393  34.074  23.545   3.210
93626W        W57394   9.374  16.180  13.909
93627W        W57395  33.943   1.239  10.578
93628W        W57396   8.772  23.235  13.792
93629W        W57397  34.095  36.566   4.324
93630W        W57398  23.714  33.111  11.107
93631W        W57399  44.803   8.796   4.772
93632W        W57400  19.644   2.721  13.870
93633W        W57401  21.034  42.440  14.989
93634W        W57402  22.505  40.508  12.478
93635W        W57403  28.667  15.710  14.295
93636W        W57404  24.068  24.993   2.888
93637W        W57405   2.835   1.738   3.773
93638W        W57406  40.849   4.792  12.563
93639W        W57407  43.816   6.231   4.713
93640W        W57408   9.350   2.861  11.045
93641W        W57409  37.077   6.189  12.414
93642W        W57410  20.597  16.304   3.790
93643W        W57411  21.129  37.068  12.424
93644W        W57412   2.759  41.900  11.045
93645W        W57413   2.281   5.333  12.403
93646W        W57414  30.046  17.777   2.867
93647W        W57415  43.480  42.420  13.523
93648W        W57416  11.652  18.239  14.432
93649W        W57417   6.363  11.773   1.419
93650W        W57418  10.217  43.376   0.756
93651W        W57419  19.651  17.239  12.960
93652W        W57420  42.436  19.594   2.840
93653W        W57421  43.875  40.866  12.383
93654W        W57422  44.886  18.608   0.760
93655W        W57423   3.741  34.384   3.704
93656W        W57424  40.030  18.131  14.820
93657W        W57425  14.111  17.153  11.480
93658W        W57426  28.152  23.500   0.285
93659W        W57427  36.384  36.533   0.284
93660W        W57428  12.631   0.466   0.764
93661W        W57429   9.282  44.954  11.041
93662W        W57430  33.081   2.299   1.210
93663W        W57431  26.523  41.492  14.371
93664W        W57432  37.505  15.754   1.915
93665W        W57433  21.058   0.338  13.437
93666W        W57434   2.811  18.092   3.735
93667W        W57435  22.721  29.002  13.387
93668W        W57436   2.310   1.907   0.895
93669W        W57437   7.878   0.844  10.596
93670W        W57438  37.449  12.132  14.854
93671W        W57439  42.973  18.624  13.403
93672W        W57440  43.435   9.878  14.892
93673W        W57441  20.032   7.278   3.826
93674W        W57442   3.361  26.655   1.412
93675W        W57443  43.478   0.760   4.780
93676W        W57444  23.168  35.989  13.001
93677W        W57445  18.174  36.979   4.185
93678W        W57446  20.054  34.906   3.838
93679W        W57447  17.615   3.752   2.288
93680W        W57448   7.817  44.275  10.511
93681W        W57449  14.603  12.762   1.231
93682W        W57450  24.108  27.022   3.153
93683W        W57451   7.701  29.011   4.352
93684W        W57452   7.325   2.721   1.857
93685W        W57453  22.512  14.769   0.295
93686W        W57454   8.870  25.521  14.025
93687W        W57455  21.064   2.925   0.408
93688W        W57456  20.059  43.285  11.415
93689W        W57457  32.885  21.200  13.320
93690W        W57458  37.046  10.779  14.308
93691W        W57459  27.546  31.588   3.216
93692W        W57460  24.609  36.548  13.834
93693W        W57461   5.216   6.739  13.374
93694W        W57462  12.277  15.751   3.842
93695W        W57463  42.483  15.664   3.195
93696W        W57464  19.135  36.444  10.013
93697W        W57465  12.626   5.881   1.290
93698W        W57466  39.987  10.689   2.389
93699W        W57467  37.891  29.492  12.454
93700W        W57468   0.893  13.754  12.935
93701W        W57469  27.180   3.304  12.989
93702W        W57470  20.126  31.916  12.909
93703W        W57471  35.913   0.900   0.859
93704W        W57472  19.628  39.486   0.411
93705W        W57473  14.339  14.095   3.231
93706W        W57474  38.397  43.916   4.598
93707W        W57475   8.778   8.893  13.342
93708W        W57476  11.638  18.625   2.877
93709W        W57477  36.994  42.829   4.697
93710W        W57478   0.429  23.528   4.758
93711W        W57479  17.758  41.036   0.930
93712W        W57480  19.588  37.414  14.295
93713W        W57481  31.450  32.426   4.640
93714W        W57482   3.417  28.615  12.963
93715W        W57483  39.055  34.463   3.744
93716W        W57484   0.801  30.976   1.436
93717W        W57485  26.084   7.688   3.816
93718W        W57486  10.301  20.701   0.412
93719W        W57487  20.244   6.717  12.980
93720W        W57488  34.104  18.671  11.385
93721W        W57489  16.733  17.092  11.102
93722W        W57490   0.839   6.764  10.582
93723W        W57491  31.449  29.011   1.245
93724W        W57492  37.032  13.644  11.986
93725W        W57493  21.637  29.541   2.210
93726W        W57494  16.704  21.592  14.322
93727W        W57495  40.871  35.584  13.340
93728W        W57496  27.993  19.047  12.939
93729W        W57497  31.092  16.267  10.440
93730W        W57498  38.880  41.418  13.000
93731W        W57499  39.039   2.887  13.031
93732W        W57500  26.993  33.483  14.988
93733W        W57501  24.010  39.439  12.006
93734W        W57502  43.486  31.939  13.315
93735W        W57503  37.990  34.379   4.612
93736W        W57504  14.787  11.646   1.418
93737W        W57505   6.321  38.858   3.714
93738W        W57506   5.815  19.537  13.438
93739W        W57507  19.612  20.693   2.278
93740W        W57508  21.068   6.872   4.631
93741W        W57509  32.542  33.955  13.492
93742W        W57510  41.350  37.861  13.378
93743W        W57511   8.791  40.370  12.993
93744W        W57512  35.589  34.056   0.383
93745W        W57513  20.589  39.017   3.733
93746W        W57514   7.387  42.980  13.882
93747W        W57515  19.762  23.134   1.777
93748W        W57516  15.640  31.042   1.912
93749W        W57517  33.528  27.518  11.082
93750W        W57518  20.567  12.839   0.953
93751W        W57519   5.706  43.793  14.770
93752W        W57520   2.762   6.845   2.759
93753W        W57521  23.526  34.372   0.730
93754W        W57522  35.594  25.645  10.947
93755W        W57523   8.674   8.397  11.401
93756W        W57524   3.329   2.755   1.775
93757W        W57525  23.240  25.054   1.891
93758W        W57526  34.375  11.145   0.262
93759W        W57527  42.518  40.351   2.415
93760W        W57528  28.020  14.143  13.504
93761W        W57529  36.986  25.000   3.672
93762W        W57530  27.107   6.246   1.808
93763W        W57531   5.919  21.636  10.603
93764W        W57532  13.148   1.952  10.102
93765W        W57533  43.885  38.026  12.063
93766W        W57534   9.237  18.151  14.306
93767W        W57535   2.247  30.430  10.497
93768W        W57536   7.274   8.715   5.128
93769W        W57537  21.607  10.363   1.350
93770W        W57538  13.735  12.817  14.393
93771W        W57539  18.646  20.079  10.143
93772W        W57540  16.767  10.833   3.251
93773W        W57541  40.884  26.080  11.044
93774W        W57542   4.875  10.207  13.059
93775W        W57543  28.172  13.819  14.296
93776W        W57544  17.136   1.799   2.197
93777W        W57545  23.516  18.213  14.871
93778W        W57546   3.260  33.096   0.735
93779W        W57547  38.852   0.813   1.795
93780W        W57548   6.726   9.790  11.106
93781W        W57549  18.637  41.412   0.787
93782W        W57550  12.680  38.548  12.569
93783W        W57551  15.815   6.205   0.438
93784W        W57552  39.444   2.395  11.483
93785W        W57553  39.013  22.510  13.492
93786W        W57554  33.451  15.256   1.745
93787W        W57555  18.729   0.871   2.201
93788W        W57556  19.694   4.247   1.798
93789W        W57557  38.529  21.755  13.326
93790W        W57558  33.122  33.409  12.918
93791W        W57559  31.096  15.220   3.164
93792W        W57560  22.221  20.600   3.168
93793W        W57561  40.308  43.307  14.943
93794W        W57562  28.064   7.261  11.574
93795W        W57563   7.812  31.000   3.233
93796W        W57564   4.869  20.654  12.366
93797W        W57565  43.284  23.048   2.295
93798W        W57566  16.757  14.241   3.695
93799W        W57567  17.304  43.393   2.663
93800W        W57568  37.955   2.885   0.245
93801W        W57569   1.792  26.995   2.725
93802W        W57570   6.388   4.921  10.435
93803W        W57571  28.544  33.002   1.840
93804W        W57572  39.329  30.516  12.465
93805W        W57573  36.524   1.463   1.305
93806W        W57574  28.084  34.032  10.139
93807W        W57575  13.654   3.733   2.767
93808W        W57576  42.515  40.042   3.349
93809W        W57577  33.547  13.687  10.475
93810W        W57578   6.336   2.379  10.930
93811W        W57579  20.596   2.772   1.763
93812W        W57580  43.973  23.157   4.306
93813W        W57581  38.849  34.904   3.772
93814W        W57582   5.799   7.807   2.298
93815W        W57583  38.995  14.640  14.486
93816W        W57584   4.339   6.230   3.233
93817W        W57585   8.765   0.872   3.755
93818W        W57586  14.629  14.768  14.796
93819W        W57587  17.654  20.524  13.345
93820W        W57588  38.854  26.080  11.597
93821W        W57589  40.822  32.399   5.804
93822W        W57590   1.812  30.009  11.076
93823W        W57591  30.126  24.641   1.399
93824W        W57592  44.343  16.242  12.387
93825W        W57593  15.145   2.763   4.226
93826W        W57594  38.524  28.659  10.593
93827W        W57595  21.144  41.370   2.288
93828W        W57596  16.143  42.327  11.091
93829W        W57597  38.541  41.326  14.886
93830W        W57598  15.245  33.534   0.416
93831W        W57599  30.954  29.484  14.030
93832W        W57600  39.053  36.995   1.851
93833W        W57601  34.915  36.588   2.806
93834W        W57602  11.659  29.994  11.541
93835W        W57603   1.748   4.763  12.029
93836W        W57604  35.592  36.004  12.898
93837W        W57605  41.522   3.293  12.986
93838W        W57606   1.310  13.708   0.378
93839W        W57607  27.978   0.834   2.696
93840W        W57608  41.463  36.079   1.250
93841W        W57609  29.124  37.897   4.159
93842W        W57610  27.545   1.872   3.257
93843W        W57611  19.724  27.620  10.472
93844W        W57612  34.074  19.282   2.274
93845W        W57613  37.383  24.167   3.867
93846W        W57614   2.305  17.079   4.702
93847W        W57615   3.761  29.641  14.416
93848W        W57616  16.703  20.147   4.335
93849W        W57617   5.394   0.267   3.317
93850W        W57618  16.112  44.775   0.454
93851W        W57619  37.851  44.006   2.832
93852W        W57620  21.587  19.147  14.330
93853W        W57621  22.743   8.867   0.959
93854W        W57622  33.988  29.611   4.751
93855W        W57623  33.594  21.161   1.295
93856W        W57624  34.079  27.685  11.384
93857W        W57625  38.517  34.369   0.470
93858W        W57626  29.461  21.149   3.323
93859W        W57627  33.509  15.583  12.932
93860W        W57628  33.002  43.338  12.561
93861W        W57629  33.924  11.688  12.831
93862W        W57630  36.505   9.243  13.876
93863W        W57631  15.155  12.846  10.097
93864W        W57632  32.514   9.749   3.336
93865W        W57633  35.593   5.689   2.709
93866W        W57634   9.388  15.278  13.894
93867W        W57635  30.530  12.162   3.241
93868W        W57636  32.976  20.115  14.497
93869W        W57637  19.754  25.651   2.769
93870W        W57638  26.135  26.694  12.941
93871W        W57639  19.740   9.800   1.381
93872W        W57640   3.331  33.973   0.821
93873W        W57641  10.209  12.643  14.423
93874W        W57642  27.520  37.935   3.210
93875W        W57643  28.543  19.619   1.373
93876W        W57644  38.345  25.555   2.264
93877W        W57645  30.912   4.268   1.212
93878W        W57646  30.467   4.386  12.914
93879W        W57647  39.448  17.104   0.287
93880W        W57648   4.744  17.631   2.231
93881W        W57649  43.901  38.527   0.439
93882W        W57650  34.465  12.807   4.197
93883W        W57651  37.854   2.256   2.753
93884W        W57652  24.999  32.892  14.957
93885W        W57653  35.082  29.982   4.665
93886W        W57654   5.844  10.336   2.731
93887W        W57655  29.028  26.069  13.915
93888W        W57656  16.295  36.502  11.449
93889W        W57657  18.129  31.498  10.895
93890W        W57658  28.475  42.390  11.379
93891W        W57659  10.234  10.842   1.379
93892W        W57660   2.456  20.244  14.364
93893W        W57661  39.375   1.781  14.885
93894W        W57662  27.593  25.663   4.680
93895W        W57663  32.500   6.364   1.789
93896W        W57664   2.356  41.990   3.839
93897W        W57665   0.428  38.442   0.434
93898W        W57666   1.770  25.521  13.993
93899W        W57667  43.841  18.588  12.527
93900W        W57668  22.102  44.812   3.754
93901W        W57669  27.455   2.369  10.542
93902W        W57670  10.652  12.708   2.186
93903W        W57671  23.516  13.155  10.454
93904W        W57672  28.465  11.853   2.739
93905W        W57673  10.168   7.220  13.829
93906W        W57674  26.568  17.720  14.873
93907W        W57675  42.827   9.300  14.844
93908W        W57676   1.358  11.862  11.599
93909W        W57677   2.266  25.663   1.820
93910W        W57678   9.884  10.775   2.878
93911W        W57679   2.339  23.624  14.825
93912W        W57680   9.800  14.169   3.234
93913W        W57681  11.208   8.308  12.380
93914W        W57682   3.917  40.393   2.861
93915W        W57683  14.812   6.681  11.564
93916W        W57684  34.054  43.284   2.178
93917W        W57685  17.565   6.869  14.901
93918W        W57686  26.200   2.361  13.964
93919W        W57687  10.258  10.864  10.577
93920W        W57688  30.511  20.689   4.244
93921W        W57689  31.545  34.432   0.832
93922W        W57690  34.009   0.413   4.707
93923W        W57691  32.031   3.317  14.360
93924W        W57692  33.597   5.253  13.540
93925W        W57693  29.163   1.346   1.284
93926W        W57694  28.114  36.527  12.078
93927W        W57695   0.935   8.301  12.879
93928W        W57696   1.460   5.780   3.704
93929W        W57697   6.920   7.261   4.285
93930W        W57698  42.917   2.422   4.723
93931W        W57699  43.866  13.797  14.832
93932W        W57700   9.647  40.823   1.321
93933W        W57701   4.330  40.362  10.626
93934W        W57702   8.368  15.277  11.431
93935W        W57703   4.823  40.322  12.402
93936W        W57704  26.534  11.808   0.420
93937W        W57705  39.859   8.895  14.510
93938W        W57706   5.768  38.365   3.347
93939W        W57707   0.871  11.673   2.178
93940W        W57708  18.746   0.771  10.588
93941W        W57709   3.429  26.199  11.538
93942W        W57710  40.910  32.900   4.774
93943W        W57711  35.028  42.009  13.435
93944W        W57712  19.772  26.474   0.441
93945W        W57713  27.674   8.683   2.679
93946W        W57714  20.680   8.714   4.210
93947W        W57715  21.683  17.295   0.326
93948W        W57716  12.637  25.108  11.007
93949W        W57717  25.696  33.923   2.282
93950W        W57718   7.282  15.725  13.897
93951W        W57719  36.350  43.970   1.800
93952W        W57720  42.421  27.948   1.794
93953W        W57721  18.778  32.999   4.833
93954W        W57722  42.281  38.326   0.450
93955W        W57723  33.884  22.653  12.053
93956W        W57724  28.438  30.567  11.499
93957W        W57725  27.960   7.719  13.840
93958W        W57726  19.265  34.479   5.573
93959W        W57727   3.881  42.452  14.345
93960W        W57728  15.612   5.270  13.319
93961W        W57729  40.818  10.211  13.974
93962W        W57730   7.868  42.881  13.417
93963W        W57731   1.275  39.860   3.687
93964W        W57732   0.937  26.620   0.763
93965W        W57733  33.124  41.956  13.472
93966W        W57734  12.294   7.240   0.852
93967W        W57735  34.385  25.109   4.146
93968W        W57736  21.636  25.079  14.913
93969W        W57737  36.969  30.925   4.257
93970W        W57738  21.617  14.796   3.339
93971W        W57739   6.909  19.170   2.393
93972W        W57740   1.739  41.435   1.881
93973W        W57741  28.455  21.073  11.109
93974W        W57742  30.589   0.768   1.913
93975W        W57743   3.347  25.484  11.038
93976W        W57744  39.034  42.949   2.739
93977W        W57745  10.306   9.660  14.292
93978W        W57746  12.668  11.146   0.786
93979W        W57747  44.947  38.359   1.292
93980W        W57748  37.557  19.535   3.246
93981W        W57749  13.610  21.639  14.420
93982W        W57750  31.619  43.472   2.778
93983W        W57751  10.815  34.497  10.558
93984W        W57752  35.964   4.430   2.220
93985W        W57753  39.381  22.544  12.481
93986W        W57754  18.054  32.942  12.515
93987W        W57755  35.984  41.436   1.359
93988W        W57756  39.906  33.005  13.846
93989W        W57757  17.775  18.746   1.766
93990W        W57758  11.351  39.498  12.891
93991W        W57759  13.335  11.728  11.502
93992W        W57760  21.183   9.383   1.913
93993W        W57761   7.702   7.749   2.794
93994W        W57762  19.093   0.250   2.223
93995W        W57763   8.235  41.505   3.788
93996W        W57764  18.598  16.185   1.347
93997W        W57765  22.735  35.394  10.135
93998W        W57766  17.244  17.696  11.477
93999W        W57767  41.412  25.689  14.996
94000W        W57768  18.137   3.748  14.332
94001W        W57769  18.746  44.367  12.580
94002W        W57770  23.996  23.111   4.613
94003W        W57771  27.652  18.625  12.929
94004W        W57772  27.084   5.798  12.481
94005W        W57773  23.183   3.224   3.753
94006W        W57774   2.263  14.131  10.508
94007W        W57775  18.296  31.016  11.053
94008W        W57776  25.657   9.764  12.371
94009W        W57777  37.932  24.572  14.337
94010W        W57778  14.607   5.711   3.720
94011W        W57779   4.409  13.653  10.909
94012W        W57780  11.310   6.917  11.532
94013W        W57781   9.789  31.100   4.182
94014W        W57782  16.135  13.265   0.902
94015W        W57783   0.958  34.430  12.892
94016W        W57784  28.545  14.704  12.986
94017W        W57785  30.627  28.666  13.360
94018W        W57786  21.047  28.031   3.182
94019W        W57787  22.655   4.842  12.521
94020W        W57788   0.409  38.998  12.502
94021W        W57789   6.867  13.665  12.435
94022W        W57790  33.015  40.929   4.141
94023W        W57791  30.548   7.267   2.221
94024W        W57792   3.889  31.063  13.869
94025W        W57793   9.730  13.660   3.701
94026W        W57794  17.798  14.296   2.705
94027W        W57795   0.821  25.019  14.910
94028W        W57796   7.847  12.309  13.469
94029W        W57797  42.831  33.019  14.344
94030W        W57798  41.908  41.485  10.003
94031W        W57799  11.841  44.848  11.945
94032W        W57800  16.656  34.450   4.251
94033W        W57801  39.496   9.382  10.514
94034W        W57802  20.573  15.617   5.203
94035W        W57803  10.836  36.583  13.900
94036W        W57804  23.036   6.364  12.420
94037W        W57805  30.505  14.125   1.333
94038W        W57806  27.597  27.086  14.486
94039W        W57807  25.189  25.049   2.870
94040W        W57808  37.554  22.121   2.313
94041W        W57809  33.453  10.857   3.670
94042W        W57810  15.296  23.626   4.227
94043W        W57811  15.594  17.086   3.195
94044W        W57812  29.069  11.668  14.924
94045W        W57813  18.553  10.201   4.120
94046W        W57814   5.237   5.754  13.928
94047W        W57815  36.352  11.773   1.435
94048W        W57816  16.215  33.110  13.499
94049W        W57817  34.979  36.525  10.460
94050W        W57818  17.559  40.531   4.261
94051W        W57819  43.491  25.986  10.988
94052W        W57820  22.511  42.022   4.599
94053W        W57821   2.420  29.158   2.298
94054W        W57822  30.492  34.892   0.956
94055W        W57823   4.704  41.350   5.154
94056W        W57824  40.427  34.918   0.966
94057W        W57825  13.649   0.760  10.600
94058W        W57826   8.749   2.873   3.709
94059W        W57827  21.572  39.880  12.845
94060W        W57828  41.817  36.511   2.689
94061W        W57829  35.543  42.924  10.620
94062W        W57830  30.426  37.448  13.438
94063W        W57831  24.166  25.494   1.406
94064W        W57832   5.775   2.320   3.255
94065W        W57833  33.489  22.662  11.596
94066W        W57834   7.796  14.273  10.928
94067W        W57835  24.094  24.166  11.607
94068W        W57836  28.477  29.030   4.759
94069W        W57837  12.314  33.034   1.931
94070W        W57838  11.638  42.928   3.380
94071W        W57839  39.469  38.893   0.912
94072W        W57840  28.585  15.220   2.809
94073W        W57841  17.603  15.220   1.695
94074W        W57842   0.782   4.270   3.282
94075W        W57843   7.406   1.763  14.774
94076W        W57844  14.159   5.434   0.314
94077W        W57845   0.873  25.496   2.864
94078W        W57846   5.287   6.718   0.322
94079W        W57847   6.349  34.931   1.305
94080W        W57848  20.079   5.899  13.448
94081W        W57849  21.190  41.306   2.811
94082W        W57850  15.773  19.238   0.295
94083W        W57851  11.629  42.914  11.913
94084W        W57852   4.261  27.526   0.308
94085W        W57853  37.888   2.775   2.185
94086W        W57854  27.146  41.023  13.513
94087W        W57855  31.923  29.110  11.606
94088W        W57856  24.139   8.863   0.419
94089W        W57857  18.669   3.235   5.268
94090W        W57858   6.348  40.443   0.296
94091W        W57859  19.271  30.035   3.184
94092W        W57860   1.394  39.386   3.290
94093W        W57861  22.103  32.534   4.785
94094W        W57862  29.605  10.222  13.841
94095W        W57863  21.071  36.988   4.717
94096W        W57864  27.992  22.643   3.180
94097W        W57865   8.821  16.756   3.346
94098W        W57866  28.037  35.381   2.765
94099W        W57867  26.007  41.391   4.156
94100W        W57868  11.217  19.687   5.259
94101W        W57869  30.619  41.458   1.309
94102W        W57870  22.530  25.634  13.312
94103W        W57871  11.308   5.772   1.927
94104W        W57872  42.392   5.213   3.730
94105W        W57873  42.480   8.396  13.327
94106W        W57874  17.106  19.594   3.272
94107W        W57875  16.149  42.516   0.862
94108W        W57876  32.586  44.308  11.983
94109W        W57877  25.180  16.200   4.698
94110W        W57878  15.219  31.071   4.170
94111W        W57879  17.704   9.837   1.932
94112W        W57880  43.326  18.254   2.320
94113W        W57881   9.727   0.261  11.587
94114W        W57882  20.652  43.479   0.755
94115W        W57883  15.774  34.969  13.999
94116W        W57884  10.186  17.177   3.813
94117W        W57885  19.703  10.857  12.896
94118W        W57886  43.440  26.554  10.908
94119W        W57887  41.519  40.525  14.446
94120W        W57888  20.206  40.970  13.855
94121W        W57889   7.286   6.319   0.863
94122W        W57890  13.806  30.163  10.615
94123W        W57891   1.435  17.104   0.284
94124W        W57892  16.749   3.861   4.139
94125W        W57893   3.279  16.618   1.798
94126W        W57894  31.550  36.056  11.954
94127W        W57895  14.281  25.477   9.633
94128W        W57896  41.532  13.111   2.710
94129W        W57897   1.239  21.056  13.435
94130W        W57898  20.047  32.141  13.504
94131W        W57899  38.359  16.113  11.875
94132W        W57900  24.703   1.455   1.819
94133W        W57901  10.258   7.385   4.155
94134W        W57902  22.128  24.066   0.736
94135W        W57903   9.888   2.902   0.424
94136W        W57904  26.157  39.883  10.958
94137W        W57905   7.296  28.594   0.834
94138W        W57906  30.421  11.210  13.821
94139W        W57907  28.063   2.737   3.740
94140W        W57908  12.773  21.052  14.942
94141W        W57909   3.225  20.040  12.568
94142W        W57910  33.480  36.464  13.877
94143W        W57911  20.532   4.395   2.314
94144W        W57912  12.794   6.367   1.787
94145W        W57913  17.658  17.576   3.833
94146W        W57914  16.807  28.507   2.378
94147W        W57915  18.595  14.733  13.323
94148W        W57916  15.654   9.718  13.502
94149W        W57917  24.079  28.678  13.877
94150W        W57918  43.977  34.562   3.640
94151W        W57919  44.986  23.687  14.846
94152W        W57920  13.180   6.916   0.796
94153W        W57921   6.363   2.253  14.889
94154W        W57922  37.459   7.382   4.292
94155W        W57923  16.714  20.610  11.506
94156W        W57924  27.658  12.828  14.993
94157W        W57925  10.784  13.194   3.223
94158W        W57926  18.202  14.609  11.038
94159W        W57927  23.053  13.283  13.038
94160W        W57928   0.326   7.789  13.878
94161W        W57929  18.087  20.141   4.626
94162W        W57930   1.769   8.187   3.193
94163W        W57931  17.647  17.248  11.040
94164W        W57932  32.516  10.326  10.418
94165W        W57933  35.402  33.463   3.802
94166W        W57934  15.622  39.387   3.671
94167W        W57935  34.036   3.870  12.079
94168W        W57936  37.558  41.451   2.840
94169W        W57937  35.454  31.450  13.791
94170W        W57938  12.846   4.386   1.275
94171W        W57939  26.523  24.549   1.839
94172W        W57940   0.329  40.504  11.982
94173W        W57941  26.665   0.852   2.733
94174W        W57942  12.750  14.814   1.906
94175W        W57943  33.018  11.251   2.732
94176W        W57944  44.356   3.288   1.714
94177W        W57945  12.310  30.066   0.334
94178W        W57946  10.782  43.458   1.400
94179W        W57947  34.599  23.022   0.393
94180W        W57948  35.952   8.403  13.926
94181W        W57949  38.959  30.466  13.925
94182W        W57950  30.543  19.625  10.583
94183W        W57951  26.478  18.658   1.233
94184W        W57952   9.868  28.625  13.436
94185W        W57953  30.056  44.803  13.976
94186W        W57954  18.707  23.033   1.338
94187W        W57955  35.459  31.471  11.008
94188W        W57956  11.297  38.549  13.378
94189W        W57957   1.455  31.623  12.850
94190W        W57958  43.899  36.526  14.368
94191W        W57959  20.532  15.116   0.814
94192W        W57960  40.961  20.057   3.745
94193W        W57961   3.306  38.884  10.998
94194W        W57962  23.705  41.019  13.522
94195W        W57963  11.268  14.787  12.840
94196W        W57964   9.164  14.131  13.924
94197W        W57965   4.861  25.596  12.406
94198W        W57966  21.631  41.308  11.997
94199W        W57967  34.612   0.942   2.278
94200W        W57968  37.970  29.002  11.890
94201W        W57969  19.727  43.984  14.321
94202W        W57970  26.601  11.250   0.256
94203W        W57971  26.061  44.785  12.086
94204W        W57972   5.434  14.159  11.569
94205W        W57973   2.908   3.776  14.989
94206W        W57974   6.399   1.825   0.447
94207W        W57975  21.050   0.968  13.836
94208W        W57976  40.393  33.988  14.501
94209W        W57977  25.165  41.012   2.344
94210W        W57978  19.695  32.552   0.920
94211W        W57979  39.519   0.293  14.822
94212W        W57980  23.667  16.155  11.114
94213W        W57981  21.559  29.112   1.869
94214W        W57982   7.878  16.569   3.754
94215W        W57983  28.168   2.308  14.365
94216W        W57984  28.965  13.345  14.400
94217W        W57985   5.773  24.543  11.560
94218W        W57986   0.355  36.997   4.632
94219W        W57987  33.065  27.624  10.411
94220W        W57988  41.937   4.380   0.465
94221W        W57989   8.806  11.669  12.482
94222W        W57990  34.103   6.693  10.621
94223W        W57991  40.961  29.423  13.062
94224W        W57992  22.571  28.136  10.913
94225W        W57993  35.927   6.685  14.014
94226W        W57994   3.900   3.909  13.000
94227W        W57995   7.248   0.424  10.477
94228W        W57996  11.816  26.644   4.232
94229W        W57997  24.568  13.142  12.824
94230W        W57998   6.773  38.968  13.385
94231W        W57999  38.043  40.927  14.345
94232W        W58000   1.770  36.380   3.358
94233W        W58001   3.941  19.055  11.956
94234W        W58002  28.681  20.588  11.536
94235W        W58003   0.460  22.101   1.328
94236W        W58004  11.666  36.972  11.997
94237W        W58005  27.498  13.719   3.248
94238W        W58006  35.552  16.297  10.993
94239W        W58007  37.921  26.110   3.281
94240W        W58008  42.013  41.815   3.366
94241W        W58009  20.247  40.316  11.506
94242W        W58010  12.775  29.095   4.614
94243W        W58011  10.677   6.353  13.864
94244W        W58012  44.479  19.114  13.954
94245W        W58013  14.634  39.346  13.496
94246W        W58014  13.284  35.537  14.825
94247W        W58015  38.819  12.788   2.215
94248W        W58016  16.717  27.486  14.449
94249W        W58017  33.494  29.057  14.311
94250W        W58018  39.859  10.750  12.891
94251W        W58019  12.282  39.977  11.978
94252W        W58020  42.526  32.892  11.876
94253W        W58021  27.165  43.929  10.495
94254W        W58022  12.685   5.715   4.345
94255W        W58023  22.018  22.518  12.071
94256W        W58024  33.523  44.906  13.965
94257W        W58025   2.444   0.952  10.432
94258W        W58026  38.921  19.142  14.865
94259W        W58027  41.938  21.573  11.055
94260W        W58028  42.823  32.109  10.404
94261W        W58029  30.481  39.911  11.026
94262W        W58030   6.195   3.355  11.523
94263W        W58031  27.109   2.885  14.426
94264W        W58032  31.996  14.247  13.546
94265W        W58033  26.156  37.837   4.652
94266W        W58034  11.787  30.418  11.121
94267W        W58035  34.963  19.144  12.490
94268W        W58036  23.606  42.840   1.329
94269W        W58037  16.753  42.408   2.670
94270W        W58038  22.129  11.811   1.435
94271W        W58039  22.547  43.417  12.555
94272W        W58040  40.868  17.083   3.802
94273W        W58041  27.120  14.735   9.611
94274W        W58042   1.473  35.000   3.854
94275W        W58043  43.851  28.004  14.275
94276W        W58044   2.416   7.717  14.025
94277W        W58045  27.008  29.143  14.509
94278W        W58046  37.477  43.314  10.425
94279W        W58047  10.188   9.389  11.034
94280W        W58048  44.811  32.951  12.536
94281W        W58049  44.500  17.741   2.884
94282W        W58050   6.377  31.939   5.265
94283W        W58051  26.185   5.331   2.358
94284W        W58052  20.029  42.378   4.245
94285W        W58053  29.946  37.901   4.240
94286W        W58054   8.742  33.550   0.359
94287W        W58055   9.796  19.170  11.935
94288W        W58056  10.789  16.752   3.347
94289W        W58057  23.191   8.804  13.311
94290W        W58058  42.030  39.518  10.527
94291W        W58059  21.689  21.686   1.896
94292W        W58060  29.036  16.208   1.243
94293W        W58061  17.752  37.467  12.358
94294W        W58062   5.712   0.907  13.409
94295W        W58063   7.749  20.767  13.983
94296W        W58064  24.700   9.385  13.919
94297W        W58065  33.458  37.512  14.478
94298W        W58066  34.998   8.728  13.935
94299W        W58067  24.152  33.513   1.300
94300W        W58068  32.549  28.653   2.827
94301W        W58069  29.124  20.765  13.315
94302W        W58070  27.642  44.876  11.396
94303W        W58071   0.459  38.861   5.185
94304W        W58072  43.487  36.980  14.978
94305W        W58073  36.900  12.852  13.398
94306W        W58074  23.109  34.494  11.554
94307W        W58075  12.188  19.578  11.436
94308W        W58076   9.750  44.871   2.823
94309W        W58077  27.194  16.275   4.158
94310W        W58078   4.292   7.911   0.778
94311W        W58079  20.125  14.608  14.424
94312W        W58080   4.854  19.065  14.808
94313W        W58081  10.700  42.882   3.284
94314W        W58082   6.837  43.354   1.905
94315W        W58083  39.463   1.273  12.824
94316W        W58084  40.305   5.753  10.421
94317W        W58085   1.758  31.640   4.203
94318W        W58086   6.890  34.054  12.561
94319W        W58087  30.426   3.362   4.205
94320W        W58088  38.368  28.165  12.894
94321W        W58089  11.340  20.057  14.494
94322W        W58090   2.392  33.029   2.892
94323W        W58091  38.820   9.673  13.823
94324W        W58092  28.942  10.229  11.594
94325W        W58093  31.450   5.899   4.769
94326W        W58094   9.322  12.731   2.294
94327W        W58095  19.633  12.248   3.651
94328W        W58096  32.417  18.274   0.839
94329W        W58097  20.219  29.070   2.307
94330W        W58098  43.997  44.800   1.768
94331W        W58099  24.994  35.503   5.182
94332W        W58100  13.777  28.596  13.873
94333W        W58101   5.218  31.648  14.955
94334W        W58102  26.465  10.198   0.786
94335W        W58103  15.734  29.045  10.082
94336W        W58104  22.078   9.710   0.967
94337W        W58105   4.894  36.524  13.980
94338W        W58106   5.428  44.820   0.847
94339W        W58107  23.608  10.176  11.906
94340W        W58108  18.151   3.710   0.378
94341W        W58109  19.650  40.374  14.513
94342W        W58110  41.387  37.410  14.781
94343W        W58111  14.311  30.129   0.464
94344W        W58112  18.570  25.199  14.285
94345W        W58113  24.497  35.031  11.979
94346W        W58114   3.764  21.217  10.061
94347W        W58115  13.841  34.924   2.830
94348W        W58116  28.442  13.638  11.868
94349W        W58117   8.782  14.706  11.092
94350W        W58118  28.064  41.027   2.335
94351W        W58119  24.061   8.809  10.952
94352W        W58120   7.200  29.107  13.326
94353W        W58121  29.431  12.647  12.580
94354W        W58122   3.894  44.333   4.713
94355W        W58123  43.851  36.564   1.786
94356W        W58124  16.247   0.770   3.793
94357W        W58125  38.460   6.774   2.697
94358W        W58126  40.911  33.081   4.354
94359W        W58127  24.701   7.369  10.410
94360W        W58128  28.486  42.848   1.412
94361W        W58129   6.746  13.345  13.932
94362W        W58130   4.789  26.540   1.326
94363W        W58131  36.351  36.533   3.783
94364W        W58132   7.374   3.916   4.703
94365W        W58133  29.530  36.980  11.553
94366W        W58134  24.211  32.076  10.935
94367W        W58135  30.115  13.837   2.320
94368W        W58136  13.261  32.472  13.976
94369W        W58137  11.708  18.106   0.433
94370W        W58138  43.827  11.129  12.994
94371W        W58139  38.013  23.234   2.194
94372W        W58140  17.702  22.522  12.885
94373W        W58141   4.777   7.681  14.840
94374W        W58142  15.270  19.593  13.031
94375W        W58143  25.469  12.350   2.244
94376W        W58144  33.952  38.507   4.203
94377W        W58145  28.970  16.775   2.314
94378W        W58146   3.867  19.769   2.230
94379W        W58147  25.655  40.957  11.119
94380W        W58148  18.638  13.830  11.082
94381W        W58149  29.494  34.015  10.636
94382W        W58150  17.599  37.078  14.936
94383W        W58151  33.955   2.348   1.849
94384W        W58152  41.468  27.184   1.329
94385W        W58153  41.954  42.782   3.870
94386W        W58154  14.322   7.826  13.925
94387W        W58155   0.281  10.824   2.315
94388W        W58156  32.011  18.261  11.398
94389W        W58157   5.857   5.384   2.312
94390W        W58158  32.926   2.930  14.454
94391W        W58159   6.257   3.279   2.665
94392W        W58160  32.594  26.010   0.728
94393W        W58161  19.588  39.866   0.295
94394W        W58162  35.936   3.733   1.437
94395W        W58163   5.400  31.012   1.709
94396W        W58164  12.197   3.714  11.435
94397W        W58165  25.208  16.125  10.989
94398W        W58166  20.193  25.574   0.854
94399W        W58167   8.314  14.223   3.225
94400W        W58168  23.659  30.639  10.483
94401W        W58169  19.072  44.901  14.275
94402W        W58170  14.617  16.586  14.449
94403W        W58171   0.399  13.842   2.415
94404W        W58172   3.737  43.330  12.034
94405W        W58173   1.288  27.966   0.827
94406W        W58174  10.319  21.159  13.947
94407W        W58175  10.634  33.944   2.896
94408W        W58176   0.847  41.880  11.907
94409W        W58177  39.412  27.686  10.609
94410W        W58178  11.140  29.151  13.033
94411W        W58179  36.485  42.000   4.750
94412W        W58180  12.633  36.981   0.894
94413W        W58181  40.830   7.736   3.157
94414W        W58182  25.033   8.754  14.505
94415W        W58183  11.212   0.355  14.012
94416W        W58184  35.950  33.091  14.348
94417W        W58185  26.088  15.098   9.948
94418W        W58186  30.520  41.465   0.348
94419W        W58187  29.156  43.858   4.126
94420W        W58188  19.705  33.470  11.598
94421W        W58189  27.094  17.700  10.512
94422W        W58190  26.635  29.545  12.013
94423W        W58191   3.411  13.123   3.781
94424W        W58192  40.431  25.097  10.028
94425W        W58193  33.049  21.657  13.915
94426W        W58194  11.264  31.423  12.856
94427W        W58195   3.419  41.396   0.301
94428W        W58196  26.572  15.097  12.492
94429W        W58197   3.270   2.372  11.556
94430W        W58198   7.376  19.552   4.831
94431W        W58199   5.778  19.138  14.005
94432W        W58200   9.395  41.933   0.838
94433W        W58201  39.341  14.220   2.790
94434W        W58202  34.950  27.086  14.792
94435W        W58203   2.755  18.677   2.291
94436W        W58204   6.817  25.028  11.484
94437W        W58205   6.244   6.731   0.765
94438W        W58206  43.787   8.852  11.108
94439W        W58207  13.622  15.234  13.870
94440W        W58208  18.194   8.178   4.762
94441W        W58209   0.291   8.404   1.729
94442W        W58210  32.964  23.513   0.784
94443W        W58211  36.524  22.054   2.692
94444W        W58212  28.091  27.564  14.289
94445W        W58213  30.128  14.811  11.581
94446W        W58214  24.568  21.106  14.799
94447W        W58215  32.074  30.521   1.432
94448W        W58216  31.416  43.394  13.984
94449W        W58217  11.836  39.518   0.919
94450W        W58218  34.901  15.094   1.252
94451W        W58219  35.530  28.590   1.292
94452W        W58220  19.115  21.254   2.338
94453W        W58221  19.214   3.889  14.385
94454W        W58222  15.088  34.545  13.359
94455W        W58223  41.940  30.466  10.439
94456W        W58224  28.158  13.652  10.575
94457W        W58225  12.846  44.821  12.489
94458W        W58226  22.115   2.253  13.470
94459W        W58227  15.655  26.169   3.194
94460W        W58228  33.075  38.032   3.150
94461W        W58229  27.462   9.703   0.415
94462W        W58230   0.463  15.783  14.854
94463W        W58231   0.253  22.737   0.785
94464W        W58232   6.415   4.828   3.760
94465W        W58233   6.915  29.102   4.227
94466W        W58234  30.922  32.919   2.860
94467W        W58235   3.932  44.304   4.250
94468W        W58236  14.685  35.108  13.999
94469W        W58237  38.016   1.251  14.031
94470W        W58238   9.272  30.657  12.079
94471W        W58239  41.852  37.024  12.532
94472W        W58240   9.214  42.353   1.796
94473W        W58241  14.277  39.446  14.314
94474W        W58242  21.528   4.835   2.682
94475W        W58243   2.251  39.448  12.917
94476W        W58244  42.354   3.951   1.262
94477W        W58245  42.281  22.062  13.998
94478W        W58246  10.737  26.528  14.834
94479W        W58247  13.228   9.194   5.755
94480W        W58248  27.110  15.280   0.475
94481W        W58249   8.830  27.124   0.967
94482W        W58250  34.968  24.711  13.836
94483W        W58251  11.342  11.800   1.757
94484W        W58252   5.820  42.929  11.080
94485W        W58253  22.066  11.766   0.281
94486W        W58254  21.562   3.390  13.334
94487W        W58255  37.490  26.970   0.276
94488W        W58256   1.767  19.564   0.297
94489W        W58257   8.390  25.973  13.963
94490W        W58258  11.311  29.570  10.510
94491W        W58259  17.611  20.218  10.510
94492W        W58260  12.654  21.039   0.923
94493W        W58261  24.094  35.867  13.441
94494W        W58262  14.102  17.713  12.026
94495W        W58263  10.663  31.969  12.031
94496W        W58264   2.875  31.402   3.705
94497W        W58265  30.031   8.741  11.463
94498W        W58266  24.205   9.870   3.153
94499W        W58267  16.090  11.691  11.428
94500W        W58268  41.503  18.207  14.406
94501W        W58269  33.434   9.887   4.696
94502W        W58270  36.524  42.794   4.154
94503W        W58271  41.382  10.728  13.845
94504W        W58272   4.349   7.689  13.991
94505W        W58273   1.326  17.246  10.990
94506W        W58274  40.954  39.526  14.331
94507W        W58275  30.161   1.238   3.843
94508W        W58276  24.723  32.480   4.796
94509W        W58277   7.184  23.035  11.510
94510W        W58278  35.455  41.299   1.834
94511W        W58279  15.702  26.146  14.998
94512W        W58280  11.838  37.440   0.475
94513W        W58281  38.953  36.888  14.021
94514W        W58282  32.420  34.568  13.826
94515W        W58283  16.174  25.608  14.759
94516W        W58284   2.422  13.237   0.937
94517W        W58285  38.375  24.550   4.681
94518W        W58286  26.969  37.530  13.896
94519W        W58287  13.679  40.906  10.624
94520W        W58288  37.039  29.623  11.461
94521W        W58289   0.782  37.379  12.011
94522W        W58290  21.161  20.683   2.278
94523W        W58291  38.440  26.468  12.856
94524W        W58292  15.628  43.990   9.938
94525W        W58293  25.576  21.016   4.755
94526W        W58294  24.517  39.537   4.302
94527W        W58295  24.203  41.989  11.499
94528W        W58296   0.875  11.854  12.831
94529W        W58297  25.534  28.480   1.210
94530W        W58298   0.880  19.723   2.337
94531W        W58299  29.079  30.657   0.746
94532W        W58300  23.007  36.516  12.565
94533W        W58301  12.832   7.214  14.766
94534W        W58302  16.577   7.750   3.283
94535W        W58303  18.189   8.288  11.870
94536W        W58304   5.419  38.845  11.435
94537W        W58305  10.787  29.647  13.966
94538W        W58306  33.976  33.619  12.019
94539W        W58307  29.026  30.614   2.744
94540W        W58308   3.902  33.468   3.869
94541W        W58309   0.893  26.533  14.390
94542W        W58310  23.043  28.940   0.856
94543W        W58311  30.650  12.745   1.311
94544W        W58312  28.571   4.828  12.902
94545W        W58313  25.471  17.656  10.901
94546W        W58314   7.279  33.025   2.274
94547W        W58315  34.964  33.542   1.378
94548W        W58316  35.544  19.252   2.239
94549W        W58317   8.803  20.728   1.828
94550W        W58318   0.334   2.779   0.768
94551W        W58319  14.712  25.607  11.052
94552W        W58320  10.178  30.982   4.685
94553W        W58321  32.092  15.122  14.328
94554W        W58322  10.869   0.368  10.621
94555W        W58323  38.393  16.629  14.895
94556W        W58324   2.274  41.529  11.606
94557W        W58325  28.958  32.989  10.898
94558W        W58326   8.277  28.934  10.613
94559W        W58327   2.899   7.670   0.927
94560W        W58328  16.229  31.629   9.974
94561W        W58329   0.936  24.182  14.329
94562W        W58330  32.930  44.827   3.763
94563W        W58331  28.079  36.934  10.535
94564W        W58332  41.794   9.817   0.369
94565W        W58333   8.690  41.376  10.574
94566W        W58334  44.892  20.758   3.750
94567W        W58335  44.388  27.158   1.326
94568W        W58336  21.259  35.921   0.362
94569W        W58337  39.046  27.676  14.758
94570W        W58338  21.570  41.381  13.884
94571W        W58339  19.108  38.567   4.121
94572W        W58340  20.766  29.617   2.861
94573W        W58341  31.454  27.043  14.923
94574W        W58342   2.416  11.672  11.085
94575W        W58343   8.688  27.183   0.471
94576W        W58344   2.465  31.529   4.697
94577W        W58345   0.858   8.312  12.459
94578W        W58346  20.217  41.814   3.234
94579W        W58347  12.244  30.943  14.914
94580W        W58348  31.572  26.990  14.339
94581W        W58349   9.830  14.693  14.405
94582W        W58350  15.606  10.229  13.478
94583W        W58351  39.030   7.248   3.305
94584W        W58352  15.233  34.562  10.431
94585W        W58353   6.365  27.680   4.734
94586W        W58354   0.816  28.116   0.899
94587W        W58355  22.586  21.686  14.495
94588W        W58356  16.703   1.314   0.406
94589W        W58357  40.987  31.942  12.906
94590W        W58358  20.113  13.222   2.704
94591W        W58359  23.618  43.876   1.747
94592W        W58360   8.789  15.791  11.962
94593W        W58361   1.950   6.742   0.476
94594W        W58362   1.822   8.724   4.696
94595W        W58363  20.090  22.672   4.134
94596W        W58364  28.657  26.983  11.589
94597W        W58365  37.571  16.740  13.905
94598W        W58366  14.106  29.045  11.097
94599W        W58367  35.569   6.290   5.210
94600W        W58368  14.798  10.381  14.462
94601W        W58369  10.296  24.112  11.925
94602W        W58370  42.978  26.121   3.860
94603W        W58371  24.560  20.582   0.337
94604W        W58372  38.974   6.740   5.599
94605W        W58373  18.237   1.298  10.925
94606W        W58374  41.005   2.762  12.509
94607W        W58375  26.987  16.277  12.422
94608W        W58376  13.612  26.635  13.797
94609W        W58377  34.022  23.089   3.224
94610W        W58378   8.764  26.044   1.254
94611W        W58379  39.523  30.543  12.908
94612W        W58380  25.709  38.515   0.796
94613W        W58381   4.431  36.866   3.297
94614W        W58382  32.537   9.333  14.026
94615W        W58383  39.009  19.776   0.263
94616W        W58384   5.301  24.030  10.983
94617W        W58385  33.048  38.363  14.390
94618W        W58386   2.408  32.587  10.943
94619W        W58387  15.718  25.054   1.420
94620W        W58388   3.393  13.638   4.811
94621W        W58389  41.986  38.456  11.483
94622W        W58390  44.879  24.666  10.906
94623W        W58391  25.978   7.224   0.351
94624W        W58392   1.383  19.752  11.444
94625W        W58393  35.538  26.700  12.350
94626W        W58394  28.977  20.541   1.421
94627W        W58395  10.837  42.355   3.700
94628W        W58396   0.298   7.724  13.441
94629W        W58397  22.746  29.572   3.274
94630W        W58398  20.581  36.419   3.763
94631W        W58399  12.124   6.409   3.327
94632W        W58400  17.647   9.320  11.039
94633W        W58401  33.525  34.090   2.242
94634W        W58402  25.040  13.790  11.517
94635W        W58403  32.891  11.339  12.469
94636W        W58404  22.239  29.625  13.902
94637W        W58405  18.633  11.855  11.522
94638W        W58406  40.901  19.151   0.859
94639W        W58407  33.524  26.197  11.400
94640W        W58408  19.197  31.041   3.346
94641W        W58409   0.470  13.611  13.479
94642W        W58410   9.671   1.278   4.245
94643W        W58411  35.515  34.924   3.240
94644W        W58412  19.687  38.424  12.573
94645W        W58413  39.421   1.399   1.414
94646W        W58414   5.321  24.135   3.754
94647W        W58415  12.847  44.932   3.286
94648W        W58416  18.225  23.516   2.867
94649W        W58417  11.694   0.462   2.850
94650W        W58418  14.180  11.657  14.016
94651W        W58419  38.823   7.668   4.259
94652W        W58420   9.206  37.451  13.851
94653W        W58421  38.889   6.875  12.027
94654W        W58422  36.975  33.388  13.423
94655W        W58423  37.422  44.261  13.032
94656W        W58424  36.094  33.903   3.806
94657W        W58425  31.410  35.550  14.328
94658W        W58426  13.226  37.555   3.641
94659W        W58427  14.621  21.098   0.338
94660W        W58428  19.108  41.373  12.475
94661W        W58429  37.884  21.758  13.873
94662W        W58430   1.954  18.203  12.391
94663W        W58431  41.387  40.019  11.928
94664W        W58432   1.273  23.072   1.891
94665W        W58433  16.670  33.607   1.887
94666W        W58434  35.438  16.279   1.918
94667W        W58435  42.854  22.703  12.448
94668W        W58436  10.185  17.788   2.736
94669W        W58437  19.142  22.083   4.180
94670W        W58438  40.856  28.956   2.683
94671W        W58439  13.193  14.746   5.154
94672W        W58440  36.015  35.459   0.758
94673W        W58441  16.720   3.380  14.835
94674W        W58442  30.015  16.616   1.807
94675W        W58443  34.533  44.959   0.838
94676W        W58444  17.722   4.776  10.981
94677W        W58445  13.185  32.033   1.297
94678W        W58446  40.532   3.719  14.017
94679W        W58447   0.931  26.204  11.908
94680W        W58448  41.868  44.412   3.703
94681W        W58449  21.201   0.271  10.510
94682W        W58450  27.166  35.006   1.263
94683W        W58451  43.772   0.302  11.440
94684W        W58452  38.032  27.484  11.570
94685W        W58453   4.383  19.280  13.414
94686W        W58454  31.614  10.301   4.736
94687W        W58455   5.751  38.420   3.649
94688W        W58456  16.700  15.252   0.756
94689W        W58457  40.954  21.582   2.346
94690W        W58458  35.081  42.515   0.413
94691W        W58459   0.479  13.167  14.871
94692W        W58460  15.088  12.230  11.868
94693W        W58461   0.826  18.592  14.825
94694W        W58462  11.713  18.077   2.336
94695W        W58463   6.200  28.542  11.083
94696W        W58464  18.249  14.240  11.875
94697W        W58465   8.344   4.383  11.600
94698W        W58466  39.838  30.021   2.300
94699W        W58467  38.064   8.680  11.963
94700W        W58468  14.775  25.588   2.374
94701W        W58469   2.259  44.373  14.437
94702W        W58470  20.671  16.136  12.386
94703W        W58471  26.582  20.564  11.521
94704W        W58472   5.331  25.123   5.152
94705W        W58473  33.524   8.212   3.787
94706W        W58474   6.414   6.301   0.751
94707W        W58475  42.944  16.162   3.259
94708W        W58476   3.782  32.115  11.860
94709W        W58477  40.867  41.840  10.425
94710W        W58478   9.814  26.016  13.519
94711W        W58479  12.801  36.076   3.656
94712W        W58480  29.049  10.213  10.517
94713W        W58481  43.491  42.987   2.725
94714W        W58482  30.118  39.378  13.437
94715W        W58483  24.647  19.627  13.383
94716W        W58484   3.726   7.225   2.755
94717W        W58485  10.375  14.207   9.920
94718W        W58486  37.430  16.257  11.411
94719W        W58487  38.355   7.214  13.865
94720W        W58488  19.553  23.080   1.244
94721W        W58489  14.736  29.920  13.522
94722W        W58490  23.602   1.833  11.896
94723W        W58491  26.476  44.782  11.043
94724W        W58492   9.361   3.452   1.266
94725W        W58493   9.862  26.489  11.014
94726W        W58494  22.686  22.180   3.242
94727W        W58495  35.092  31.917  10.150
94728W        W58496   2.772  27.612   0.759
94729W        W58497  13.128  37.557   3.262
94730W        W58498  21.196   5.846  11.123
94731W        W58499   5.781  26.647  13.362
94732W        W58500  19.629   2.886   4.699
94733W        W58501  30.919  38.829   9.948
94734W        W58502  23.591  44.331   1.347
94735W        W58503  29.936  13.694   0.477
94736W        W58504  12.327   8.788  13.019
94737W        W58505   9.750   2.766  11.123
94738W        W58506  14.623  26.971   0.929
94739W        W58507   4.794  33.916   4.259
94740W        W58508   8.359  34.552  13.440
94741W        W58509  31.469  17.208   2.777
94742W        W58510   6.890   8.763   1.778
94743W        W58511  33.578  38.554   3.187
94744W        W58512   9.669  24.549   4.200
94745W        W58513  32.140  28.943   3.317
94746W        W58514  34.957  36.560   4.337
94747W        W58515  44.446   3.790  12.534
94748W        W58516  14.708  43.823   3.870
94749W        W58517  13.175   8.327   1.274
94750W        W58518  44.764  34.444  11.499
94751W        W58519  25.155   7.260   2.298
94752W        W58520  13.326  28.974   2.256
94753W        W58521  23.661  27.456  10.527
94754W        W58522  13.821  43.835  14.400
94755W        W58523   5.884   3.443  13.482
94756W        W58524  44.760  13.668  14.350
94757W        W58525  19.085  30.039  13.057
94758W        W58526  28.088  24.048   5.082
94759W        W58527   6.910  37.011  14.436
94760W        W58528  29.438  40.830   0.887
94761W        W58529  40.503  11.847  12.963
94762W        W58530  27.568   4.291  14.927
94763W        W58531   3.461  33.612   4.240
94764W        W58532  29.136  42.399   0.894
94765W        W58533  37.859   9.203   3.866
94766W        W58534  44.263  41.299  14.867
94767W        W58535   6.793  13.141  10.982
94768W        W58536   4.905  17.093   1.703
94769W        W58537   8.848   3.388  13.399
94770W        W58538  16.159  41.328   4.774
94771W        W58539  10.850   0.914   1.859
94772W        W58540  12.707  44.441  10.475
94773W        W58541  17.581  30.484   2.277
94774W        W58542  35.461  19.126   3.199
94775W        W58543   9.668   6.384  14.498
94776W        W58544  23.697  25.523   4.679
94777W        W58545   0.249  27.117  12.436
94778W        W58546  11.220  32.091  10.959
94779W        W58547  19.653  38.916   1.821
94780W        W58548  34.594  25.475   0.310
94781W        W58549  28.465  17.186   0.956
94782W        W58550  37.944  32.612  11.564
94783W        W58551  40.967  32.035   1.699
94784W        W58552  18.145  19.195   4.816
94785W        W58553  31.521   7.179  13.450
94786W        W58554  17.613   2.775   3.251
94787W        W58555  21.572   1.781  14.772
94788W        W58556  39.059   9.347   0.392
94789W        W58557  34.943  35.516   4.241
94790W        W58558   4.309  19.242   3.805
94791W        W58559  38.964  25.513   1.904
94792W        W58560  30.065   7.758  12.021
94793W        W58561   1.402  19.274  10.941
94794W        W58562  24.674  28.605   3.635
94795W        W58563  28.184  24.585   2.782
94796W        W58564  19.273  30.082  12.570
94797W        W58565   4.259   8.371  10.523
94798W        W58566  37.519  17.084   1.354
94799W        W58567  19.687  38.852   4.167
94800W        W58568  29.094  43.871  11.128
94801W        W58569   8.870  36.883   1.856
94802W        W58570   2.354  25.478   3.772
94803W        W58571   6.314  11.366  10.997
94804W        W58572  28.613  25.062  11.560
94805W        W58573  10.190  30.039  14.893
94806W        W58574   1.835  42.015   2.406
94807W        W58575   7.857  41.515   4.621
94808W        W58576  38.340   9.674  13.870
94809W        W58577  43.379   8.242  12.853
94810W        W58578  36.882   9.825  11.862
94811W        W58579  42.498   2.426  14.841
94812W        W58580  18.631  10.733  14.335
94813W        W58581  32.540   4.324  11.566
94814W        W58582  32.479  26.616   3.781
94815W        W58583   6.412   8.864  14.450
94816W        W58584   5.822   2.778   1.425
94817W        W58585  30.119  16.260   1.791
94818W        W58586   2.794  13.166   1.333
94819W        W58587  30.439  12.753  14.888
94820W        W58588  23.057   1.902   3.173
94821W        W58589  24.089  38.509  14.011
94822W        W58590   3.853  25.514   2.800
94823W        W58591  21.017  38.412  11.443
94824W        W58592  20.186  20.253   4.171
94825W        W58593  11.782  24.073  13.481
94826W        W58594   5.845  41.487  13.837
94827W        W58595  39.409  33.015   3.181
94828W        W58596  35.590  40.521   1.786
94829W        W58597  31.931  13.698   0.917
94830W        W58598  27.592  23.220  12.541
94831W        W58599  36.057  43.984   3.328
94832W        W58600  34.106  42.967   2.747
94833W        W58601   5.932  33.528   1.382
94834W        W58602  24.663  24.079  13.867
94835W        W58603  23.140  26.071  11.016
94836W        W58604  32.427   3.880   2.748
94837W        W58605  33.076  15.637  13.990
94838W        W58606  14.264  25.204  14.804
94839W        W58607  36.065   5.725  13.419
94840W        W58608  40.337  27.499  12.344
94841W        W58609  15.321  28.465  10.465
94842W        W58610   9.767  22.246  13.948
94843W        W58611  25.145  27.061  11.606
94844W        W58612  38.482  22.045   4.621
94845W        W58613  44.918  44.431  10.988
94846W        W58614  29.172  23.727  13.971
94847W        W58615  40.918   1.251  11.482
94848W        W58616  37.387  10.148  13.451
94849W        W58617  18.089  19.582  12.519
94850W        W58618  44.277  42.975   1.397
94851W        W58619  39.812  35.874   2.727
94852W        W58620  27.585  32.945  11.014
94853W        W58621  24.666  11.207   3.744
94854W        W58622  19.074  17.125   4.306
94855W        W58623   0.794   6.359   3.716
94856W        W58624  39.925  44.774   0.729
94857W        W58625  11.160  22.690  11.875
94858W        W58626  31.469  17.611  13.496
94859W        W58627  31.926   0.943  11.007
94860W        W58628  10.299  43.477  14.463
94861W        W58629  18.169   8.880  10.637
94862W        W58630  23.549  14.214   3.382
94863W        W58631   4.702  29.468   1.777
94864W        W58632   8.214  30.070  12.381
94865W        W58633  36.958  19.206   0.937
94866W        W58634  10.369  14.685  12.365
94867W        W58635  16.148   7.208  13.514
94868W        W58636  18.680  21.619  13.543
94869W        W58637  24.198  30.560   3.847
94870W        W58638   7.219  36.901   3.374
94871W        W58639  33.431  32.919  13.064
94872W        W58640  44.476  41.463  10.982
94873W        W58641  17.090  23.211   0.860
94874W        W58642  43.888  42.805   4.295
94875W        W58643  18.223   0.808  14.504
94876W        W58644  37.342   2.952  12.491
94877W        W58645   0.258  16.576  14.923
94878W        W58646  32.046  25.668   3.215
94879W        W58647  28.949  39.949  13.022
94880W        W58648  15.779  11.206  10.011
94881W        W58649  24.189   0.879  13.985
94882W        W58650  33.944  26.101  13.379
94883W        W58651  31.432  11.839  11.063
94884W        W58652  21.231  44.329   5.176
94885W        W58653  10.179  37.439   5.274
94886W        W58654  33.131  12.680   1.750
94887W        W58655  17.789  30.452  10.979
94888W        W58656   8.729  42.290   4.714
94889W        W58657  18.747  21.159  11.963
94890W        W58658   4.241  10.262  12.381
94891W        W58659  22.646  32.978  11.087
94892W        W58660   0.921  36.958   1.440
94893W        W58661  38.567   2.938   4.710
94894W        W58662   6.419  43.315   0.897
94895W        W58663  20.598  10.674   4.632
94896W        W58664  36.962  26.073   2.238
94897W        W58665  17.609  14.707  10.563
94898W        W58666  19.681   8.836  10.632
94899W        W58667  24.172  25.486   1.731
94900W        W58668  13.192  13.116  12.864
94901W        W58669  23.009  40.825   1.224
94902W        W58670   9.314  32.511   3.203
94903W        W58671  40.816  25.080  14.315
94904W        W58672   3.889  29.537   0.855
94905W        W58673   8.692  22.109   3.207
94906W        W58674  16.073  26.595   4.837
94907W        W58675  10.345   9.155  14.306
94908W        W58676   3.864   8.264   3.243
94909W        W58677  32.416  17.699   1.845
94910W        W58678   8.351   9.737  11.458
94911W        W58679  23.689  31.624   2.236
94912W        W58680  18.612  29.483   3.216
94913W        W58681  20.603  20.036  12.439
94914W        W58682  38.919  13.297  14.934
94915W        W58683  40.969  34.942   3.340
94916W        W58684  43.419  44.812   3.846
94917W        W58685  43.336  25.192  12.341
94918W        W58686  22.160  14.277   1.369
94919W        W58687  33.895   0.468   1.754
94920W        W58688  35.391   4.240   1.806
94921W        W58689  42.398  39.361   1.816
94922W        W58690  13.226  30.960  12.403
94923W        W58691  29.446  13.183   4.799
94924W        W58692   1.919  30.494  11.028
94925W        W58693  22.729  15.232  12.415
94926W        W58694  44.497  27.475   2.867
94927W        W58695  35.366   6.206  12.903
94928W        W58696  15.287  10.216   1.232
94929W        W58697  41.480  31.940  11.404
94930W        W58698  26.194  30.961  11.027
94931W        W58699   1.754   9.183   2.869
94932W        W58700  18.063  29.015   2.791
94933W        W58701  20.610  13.246  11.012
94934W        W58702  43.304  34.587   0.465
94935W        W58703  15.187  11.658   3.779
94936W        W58704   8.836  27.662  12.089
94937W        W58705  26.501  36.923  13.472
94938W        W58706   1.367  44.976  14.959
94939W        W58707  13.192  29.500   2.810
94940W        W58708   6.733  18.089  12.459
94941W        W58709  21.090  42.504   4.647
94942W        W58710  44.887  33.915  10.907
94943W        W58711   6.364  21.166   3.151
94944W        W58712  28.080  30.429  10.933
94945W        W58713  26.987  41.786  11.006
94946W        W58714  21.221  15.818   9.929
94947W        W58715  26.173   9.881  13.934
94948W        W58716  31.057  24.504  11.019
94949W        W58717  43.396  39.938   4.280
94950W        W58718  17.285  35.037   1.802
94951W        W58719  36.055  36.512   3.766
94952W        W58720  12.167  29.485  12.534
94953W        W58721  28.175  38.413  14.780
94954W        W58722  27.125  29.441  14.784
94955W        W58723   1.322  33.543  13.329
94956W        W58724  17.301  39.320  10.967
94957W        W58725   6.320  31.424   2.759
94958W        W58726  40.952  35.066  10.422
94959W        W58727  28.621  33.518  12.465
94960W        W58728  14.675  17.731  11.023
94961W        W58729  26.596  17.212   1.417
94962W        W58730  35.983   3.794  11.977
94963W        W58731  42.792  44.319  10.432
94964W        W58732  36.870  37.068   1.916
94965W        W58733  41.011  24.121  14.484
94966W        W58734   0.795  38.398  13.501
94967W        W58735  41.864   9.383  11.031
94968W        W58736  26.063  11.326  14.411
94969W        W58737   2.295  41.400  13.328
94970W        W58738  38.470   7.720  12.552
94971W        W58739  30.941   2.352   0.869
94972W        W58740  25.682   5.879  13.002
94973W        W58741  44.805  25.570   3.815
94974W        W58742   5.826  27.644  11.000
94975W        W58743  34.464  13.234   0.319
94976W        W58744  22.737  21.207   5.158
94977W        W58745   1.886  18.146   2.756
94978W        W58746  11.727   8.813   0.360
94979W        W58747  34.895  22.235  14.450
94980W        W58748  24.570  24.637  14.945
94981W        W58749  21.590  11.646   3.722
94982W        W58750   1.348  13.684  13.882
94983W        W58751  34.964  26.701   4.118
94984W        W58752  42.028  43.880   4.757
94985W        W58753  29.467  44.283  12.011
94986W        W58754  37.344  12.800  11.975
94987W        W58755  27.152  32.992   2.870
94988W        W58756  43.789  17.791  12.339
94989W        W58757  33.604  19.070   2.182
94990W        W58758  43.513   1.266  11.068
94991W        W58759  36.938  43.825   3.786
94992W        W58760  25.033  25.087   3.663
94993W        W58761  44.942  12.254   4.838
94994W        W58762  28.178  10.868  14.994
94995W        W58763  13.625   6.813   4.289
94996W        W58764  19.250  26.206   0.808
94997W        W58765  22.188  26.194   4.697
94998W        W58766   0.489   4.438  12.002
94999W        W58767   0.479  40.799  12.031
95000W        W58768  33.880  32.623  14.029
95001W        W58769  29.994  27.464   4.736
95002W        W58770  41.365  29.981  10.627
95003W        W58771  44.959  11.738  13.883
95004W        W58772  42.328  16.628  11.014
95005W        W58773  33.032  17.078   1.833
95006W        W58774  12.202   5.273   4.661
95007W        W58775  22.571  25.469  12.457
95008W        W58776  36.983   0.936  13.909
95009W        W58777  30.117  18.688  14.481
95010W        W58778  20.730   4.224   4.220
95011W        W58779  18.735  23.008  10.045
95012W        W58780   4.332   6.714   1.299
95013W        W58781   3.346  28.573   0.916
95014W        W58782  44.464   2.884   0.364
95015W        W58783  19.217  27.095  12.457
95016W        W58784  15.314  36.882   4.300
95017W        W58785  19.668  19.733   1.803
95018W        W58786  28.058  25.195   2.241
95019W        W58787  21.705  13.214   3.270
95020W        W58788  42.912  41.957  11.397
95021W        W58789  29.963   0.418  10.421
95022W        W58790   1.454  38.880  11.016
95023W        W58791  11.203  39.326  10.928
95024W        W58792  25.541  26.039  13.031
95025W        W58793  29.531  14.304   4.211
95026W        W58794  25.983  18.143  11.895
95027W        W58795  43.313  12.700   2.314
95028W        W58796  43.433  10.269   4.165
95029W        W58797  34.949  41.531  13.791
95030W        W58798  14.279  19.158   2.291
95031W        W58799  33.581  24.574   4.615
95032W        W58800   0.378   2.783   1.423
95033W        W58801  36.087  27.632   2.236
95034W        W58802  31.633  42.822  13.466
95035W        W58803  31.406  19.591   1.280
95036W        W58804   1.289  38.507  13.367
95037W        W58805   5.267   7.751   4.755
95038W        W58806  19.129   7.784  14.388
95039W        W58807  44.896  39.458  11.064
95040W        W58808  15.719  32.945   2.255
95041W        W58809   4.221  38.934  13.419
95042W        W58810  30.039  40.477  14.291
95043W        W58811  19.189  24.040  12.340
95044W        W58812  33.399  40.798   1.716
95045W        W58813  26.630  10.214   3.309
95046W        W58814  38.463  31.597  13.848
95047W        W58815  27.522  17.566   2.863
95048W        W58816  19.264  32.023  14.409
95049W        W58817  27.109  28.959   5.277
95050W        W58818  17.688  40.845  13.836
95051W        W58819  32.137  42.479   2.215
95052W        W58820  32.486   7.782   2.828
95053W        W58821  20.741  33.126  11.916
95054W        W58822  41.522  33.119  11.562
95055W        W58823  16.638  40.335   0.251
95056W        W58824  42.354  16.758   1.267
95057W        W58825  39.962   4.897   2.372
95058W        W58826  43.827  12.349   2.311
95059W        W58827   1.879  36.356  13.838
95060W        W58828  21.231  30.982  11.481
95061W        W58829  10.766  10.801  10.455
95062W        W58830  41.803  43.388  10.492
95063W        W58831   9.683  30.525  10.431
95064W        W58832   2.735  32.608  12.891
95065W        W58833  43.014  25.017   2.777
95066W        W58834  28.940  37.988   4.760
95067W        W58835  10.143  25.998   1.697
95068W        W58836  21.512   4.439   2.846
95069W        W58837  18.281  25.109   0.282
95070W        W58838  25.708  16.169  14.448
95071W        W58839  30.561  44.318   1.437
95072W        W58840  26.566  11.229   1.390
95073W        W58841  35.017  38.484  13.400
95074W        W58842  44.302  39.370   4.815
95075W        W58843  14.748  42.309   1.412
95076W        W58844  38.009  41.326   4.318
95077W        W58845   3.320  35.895   3.862
95078W        W58846  15.240  26.204   4.788
95079W        W58847  25.631   7.373   1.726
95080W        W58848  41.388  30.486   3.709
95081W        W58849   3.918   6.298   0.832
95082W        W58850   6.213  37.917   3.666
95083W        W58851  20.691   2.460   3.197
95084W        W58852  42.811  24.628  12.006
95085W        W58853  29.951  42.303  14.013
95086W        W58854  31.458  38.418  14.488
95087W        W58855  43.901  19.738  13.396
95088W        W58856  16.802  13.179  12.875
95089W        W58857  20.059   0.474  11.595
95090W        W58858  28.965  12.783  14.997
95091W        W58859  35.412  29.153   2.329
95092W        W58860  14.799   6.379  12.027
95093W        W58861  30.012   2.866  13.417
95094W        W58862  25.166   6.730   1.738
95095W        W58863   9.220  17.688  14.278
95096W        W58864  14.225   8.729   1.355
95097W        W58865  44.419  14.802   2.300
95098W        W58866  16.091  12.629  13.912
95099W        W58867  36.018   4.398  11.575
95100W        W58868  13.842  44.434   1.790
95101W        W58869   0.441  22.096  14.869
95102W        W58870  15.666  28.129  14.490
95103W        W58871   2.958  16.283   4.216
95104W        W58872  38.383   3.788  13.937
95105W        W58873  35.447   9.394  13.473
95106W        W58874  10.831   0.463  12.544
95107W        W58875  19.645   7.866   2.893
95108W        W58876  24.510  23.172   0.943
95109W        W58877  33.989  36.393   1.887
95110W        W58878  14.631   6.269  10.497
95111W        W58879  26.621  14.778   0.450
95112W        W58880  33.505  24.622  14.812
95113W        W58881  42.351  34.444   2.372
95114W        W58882   6.694   3.402  11.556
95115W        W58883   5.339   2.430   1.323
95116W        W58884  38.902  18.189  13.855
95117W        W58885  33.039  19.722   0.786
95118W        W58886  12.339  36.389  13.322
95119W        W58887  36.500  36.049  10.066
95120W        W58888  44.904   5.302   2.384
95121W        W58889  18.584   8.730  10.593
95122W        W58890   4.863  33.565  14.851
95123W        W58891  20.718   1.958  12.386
95124W        W58892  28.958  16.779   2.876
95125W        W58893  25.599  42.331   3.854
95126W        W58894  33.615   4.283   3.831
95127W        W58895  30.108  15.145  12.451
95128W        W58896  36.553  15.118   0.341
95129W        W58897  37.835  36.543   1.410
95130W        W58898  32.448   0.881  12.494
95131W        W58899   2.371   7.313   4.284
95132W        W58900   0.929  42.376  12.517
95133W        W58901   3.228  27.983  10.572
95134W        W58902  44.970  13.200   2.286
95135W        W58903  41.839  13.804  10.929
95136W        W58904   5.797   3.305   1.360
95137W        W58905   8.895  16.697  12.975
95138W        W58906  14.776  36.543  10.542
95139W        W58907   7.182  14.834   3.738
95140W        W58908  28.173  11.739   1.795
95141W        W58909   3.806  18.216  13.380
95142W        W58910  34.985  38.396   1.874
95143W        W58911  44.799  39.401   2.409
95144W        W58912  11.344  13.796  10.899
95145W        W58913  38.442  41.438   4.265
95146W        W58914  15.203   6.791  12.853
95147W        W58915  33.964   1.290   2.377
95148W        W58916   2.857  10.348   1.857
95149W        W58917   9.750  29.557   1.346
95150W        W58918  10.181  28.561   1.297
95151W        W58919  10.256  41.958   1.445
95152W        W58920  21.054   4.340   2.194
95153W        W58921  30.613  32.451  14.863
95154W        W58922  22.517  23.516  11.104
95155W        W58923  44.488  21.550  10.913
95156W        W58924   1.793  19.100  12.060
95157W        W58925  38.534  14.133   4.742
95158W        W58926  10.695  24.174   1.274
95159W        W58927  44.814  39.886  14.964
95160W        W58928  40.938  43.959  11.500
95161W        W58929  20.090  27.946  14.434
95162W        W58930  35.099  30.467  13.518
95163W        W58931  44.470  22.043  13.352
95164W        W58932  11.349  25.090  14.447
95165W        W58933   0.883  10.815   2.390
95166W        W58934  35.579  36.471  14.830
95167W        W58935  10.150  41.897   4.161
95168W        W58936  10.783  24.604   3.645
95169W        W58937  37.845   4.376   0.295
95170W        W58938  36.061  16.729  14.321
95171W        W58939  18.053  25.102   9.974
95172W        W58940  26.000  40.517   4.177
95173W        W58941  30.116  24.648   2.236
95174W        W58942  20.241   2.235  14.843
95175W        W58943  24.069   9.372  10.511
95176W        W58944  27.144   2.375  10.996
95177W        W58945  16.668  41.043  12.356
95178W        W58946  44.972  26.503  12.539
95179W        W58947  43.466   8.695   0.432
95180W        W58948  39.857   6.382  14.956
95181W        W58949  28.043  41.481  14.920
95182W        W58950  24.637  16.593   3.772
95183W        W58951  19.056  36.417  14.430
95184W        W58952   5.231  43.274   1.335
95185W        W58953  34.480   9.191  14.400
95186W        W58954  14.161   6.370   0.446
95187W        W58955  24.637  31.527   2.184
95188W        W58956   0.961  10.311   2.309
95189W        W58957  10.764   8.169  13.431
95190W        W58958   6.834  15.807  14.450
95191W        W58959   3.277  24.500  14.395
95192W        W58960  24.182  44.385   4.308
95193W        W58961   5.736  41.425  11.440
95194W        W58962   0.425   1.481   4.162
95195W        W58963  27.094  10.794   4.629
95196W        W58964  23.055  40.352  12.973
95197W        W58965  28.950  40.804  13.979
95198W        W58966  20.136  14.277  10.449
95199W        W58967   6.734  21.177  12.461
95200W        W58968  25.050  10.223  11.122
95201W        W58969  17.063  22.668  11.897
95202W        W58970   2.846  41.503  14.479
95203W        W58971  12.325  20.224   0.337
95204W        W58972  31.525  42.308   4.190
95205W        W58973  13.666  10.283  14.450
95206W        W58974  16.213  36.898  14.953
95207W        W58975  30.016   1.831   2.873
95208W        W58976  30.100  35.858   3.282
95209W        W58977   8.219  32.457  12.504
95210W        W58978  14.148  22.603   3.252
95211W        W58979  20.269  14.286   0.742
95212W        W58980  27.528  35.454   2.382
95213W        W58981   1.301  39.401   3.776
95214W        W58982  32.014  38.402  11.041
95215W        W58983  27.655  30.429   4.340
95216W        W58984  14.184  28.112   0.339
95217W        W58985  12.353   9.345  14.968
95218W        W58986  19.182  41.349  13.062
95219W        W58987   2.443  42.806  10.037
95220W        W58988  23.535  27.453   2.358
95221W        W58989  11.669  35.476   4.213
95222W        W58990  14.687   3.383   3.340
95223W        W58991   0.761  34.919   5.697
95224W        W58992  25.975  26.523   0.340
95225W        W58993  40.356  28.593   2.856
95226W        W58994  12.233  13.815  14.395
95227W        W58995  34.900   0.825   3.684
95228W        W58996  36.010  34.396   0.274
95229W        W58997  16.666  10.328  13.796
95230W        W58998  38.424  24.534   3.191
95231W        W58999  14.234   9.745   3.282
95232W        W59000  21.042  36.002  13.821
95233W        W59001   8.205  31.538  14.876
95234W        W59002  25.054   5.830   3.339
95235W        W59003  27.679  18.229  10.484
95236W        W59004  33.910  43.008   0.729
95237W        W59005  37.949  17.662  13.315
95238W        W59006  20.524  21.590   1.411
95239W        W59007  23.141  35.889   9.572
95240W        W59008  36.993  32.941   1.922
95241W        W59009  12.222   9.790   4.119
95242W        W59010  28.967  22.025   3.146
95243W        W59011  34.098  30.966   0.835
95244W        W59012   7.797   5.309  12.356
95245W        W59013   5.332  11.157  13.421
95246W        W59014  19.765  18.238  10.044
95247W        W59015  25.634   9.150   3.285
95248W        W59016  17.572  37.075   2.212
95249W        W59017   2.237  35.922   2.903
95250W        W59018  41.512  24.695  14.966
95251W        W59019  16.637  22.668   4.802
95252W        W59020  21.057   1.858  10.894
95253W        W59021  38.987  27.572   1.880
95254W        W59022  27.007  40.914  11.006
95255W        W59023  19.671  37.525   0.371
95256W        W59024   2.404  16.117   2.268
95257W        W59025  41.874   4.426   3.243
95258W        W59026  34.062  19.634   1.446
95259W        W59027  43.277   3.232  13.799
95260W        W59028  18.772  11.753   1.711
95261W        W59029  31.935  29.118  13.949
95262W        W59030  38.861  36.535   1.878
95263W        W59031  13.178  21.611  14.880
95264W        W59032  30.461  24.673  13.361
95265W        W59033  10.724  33.068   2.282
95266W        W59034  35.412  18.618   1.233
95267W        W59035  14.234   4.294   4.771
95268W        W59036  34.118  13.746   1.240
95269W        W59037  14.269  17.643  13.010
95270W        W59038  27.142  12.799   2.372
95271W        W59039  31.555  20.251   4.644
95272W        W59040   7.314  21.726   3.200
95273W        W59041  38.999  24.572  14.338
95274W        W59042  36.085  12.699   3.651
95275W        W59043   3.951  29.164  10.644
95276W        W59044  15.666  22.059  11.990
95277W        W59045   0.917  21.664  12.091
95278W        W59046  34.963   8.305  14.789
95279W        W59047  14.292   6.226  14.426
95280W        W59048  34.475  26.518   1.894
95281W        W59049   6.242  41.803   2.360
95282W        W59050   1.831  27.488  12.541
95283W        W59051  29.047  32.631  14.836
95284W        W59052  26.058  32.404  13.351
95285W        W59053  31.446  30.576   4.612
95286W        W59054  30.531  29.072  12.089
95287W        W59055  26.141  28.995  10.942
95288W        W59056  38.850  25.208  12.831
95289W        W59057  23.520  24.647  13.462
95290W        W59058   6.813   6.885  13.447
95291W        W59059  39.925  43.315   3.192
95292W        W59060  26.575  23.513   1.314
95293W        W59061  24.480  39.321   4.721
95294W        W59062  19.727  37.377  13.833
95295W        W59063  37.937  22.165   2.692
95296W        W59064   9.818  13.806  14.474
95297W        W59065  11.836  38.480   3.356
95298W        W59066  38.434   1.353  14.759
95299W        W59067  15.245  36.441   4.339
95300W        W59068  32.105  36.437  12.826
95301W        W59069  18.694  22.068   3.244
95302W        W59070  42.010   7.303   1.824
95303W        W59071  40.848  31.633  13.969
95304W        W59072  22.696  42.444   1.846
95305W        W59073  27.076  38.039   3.734
95306W        W59074  37.391   9.198  13.888
95307W        W59075  37.873  38.399   3.274
95308W        W59076  26.596  27.665   1.241
95309W        W59077  24.040  30.651   0.246
95310W        W59078  32.505  38.823  13.862
95311W        W59079   7.729   5.259  12.852
95312W        W59080   1.779   6.787   1.817
95313W        W59081  15.150  41.878   3.745
95314W        W59082  14.325  34.981  12.086
95315W        W59083  26.956  39.456  13.416
95316W        W59084  44.780   2.279   0.465
95317W        W59085  25.188  11.203  12.371
95318W        W59086  41.299   3.460  11.928
95319W        W59087  22.578  43.462  12.956
95320W        W59088  23.001  15.291   0.439
95321W        W59089  36.501   6.878   5.599
95322W        W59090  17.067  31.986  10.139
95323W        W59091  20.760  40.970  10.523
95324W        W59092  41.440   5.759   0.377
95325W        W59093  34.410  20.082  14.883
95326W        W59094  34.610  14.272  11.600
95327W        W59095  36.383  17.113   5.254
95328W        W59096  43.983  44.846  14.497
95329W        W59097  29.451  31.449   1.738
95330W        W59098  44.438  20.057  10.077
95331W        W59099  32.998  43.434   0.828
95332W        W59100   0.886   5.383  14.988
95333W        W59101  18.693   2.321   3.359
95334W        W59102   6.346  35.459  11.483
95335W        W59103  44.908   8.689  12.480
95336W        W59104  31.472   0.423   0.740
95337W        W59105  27.556   7.277  14.821
95338W        W59106  39.478  40.531  12.398
95339W        W59107  15.215  32.985   3.791
95340W        W59108  20.547  38.408   4.834
95341W        W59109  34.926  28.476   0.243
95342W        W59110  40.544   4.261   4.183
95343W        W59111  15.758   3.852  14.285
95344W        W59112  10.762  22.075  10.931
95345W        W59113  38.025  30.125  14.785
95346W        W59114  29.442  42.294   0.360
95347W        W59115  18.253   8.209  10.451
95348W        W59116  17.571  43.006  10.421
95349W        W59117  14.768  14.303   4.165
95350W        W59118   3.725  15.120  12.457
95351W        W59119   9.761  31.122  14.301
95352W        W59120  26.594  37.372  12.838
95353W        W59121  42.432   1.328   3.683
95354W        W59122  42.883  17.709   4.305
95355W        W59123  14.165   2.903   4.773
95356W        W59124  17.169  19.541  12.456
95357W        W59125  12.760  33.072  13.469
95358W        W59126   4.871  30.543   1.224
95359W        W59127  18.545  16.100   0.463
95360W        W59128  27.171  35.035  11.973
95361W        W59129  13.747  44.469  11.925
95362W        W59130  36.895   7.268   0.857
95363W        W59131  10.299  26.457   3.711
95364W        W59132  32.473  39.371  14.811
95365W        W59133  29.569   4.703   0.926
95366W        W59134  38.411  10.320   4.811
95367W        W59135  19.740  34.452  14.304
95368W        W59136  12.839  37.377  10.464
95369W        W59137  10.219  25.075  13.340
95370W        W59138  31.530  34.971   0.285
95371W        W59139   5.436  33.598  14.381
95372W        W59140  22.249   5.870   0.833
95373W        W59141  33.048   0.276  14.833
95374W        W59142   0.330  11.190   4.283
95375W        W59143   1.872  40.021  13.841
95376W        W59144  17.188  29.140  14.913
95377W        W59145   7.177  27.111   0.835
95378W        W59146   9.881  19.126   1.406
95379W        W59147  43.503  39.342  10.946
95380W        W59148  22.695   7.248  12.431
95381W        W59149  31.993  20.705  10.522
95382W        W59150   3.283  24.721   0.890
95383W        W59151  18.558  29.460  11.382
95384W        W59152  40.347  41.833   4.632
95385W        W59153  27.519  13.797  13.034
95386W        W59154  38.827  38.442   3.770
95387W        W59155  17.090  34.119   3.639
95388W        W59156  24.556   1.477   2.730
95389W        W59157  21.599  10.671   0.898
95390W        W59158  15.169   9.322  13.338
95391W        W59159  34.430  17.153   0.360
95392W        W59160  36.367  23.637   9.995
95393W        W59161  38.046  21.620  11.093
95394W        W59162  13.149  13.793  14.991
95395W        W59163  20.709  18.565  11.416
95396W        W59164  43.963  26.165  12.093
95397W        W59165  22.237  39.425   0.245
95398W        W59166   5.417  34.496   3.640
95399W        W59167  18.673  27.498   2.817
95400W        W59168  34.069  31.609   3.221
95401W        W59169  33.071   9.835   4.254
95402W        W59170  12.640   7.254  11.951
95403W        W59171  15.271  20.185   5.135
95404W        W59172  29.568   0.257  10.055
95405W        W59173  24.703  18.277  12.516
95406W        W59174  28.034  35.579   1.390
95407W        W59175  40.907  25.969  11.484
95408W        W59176  33.022  14.218  12.504
95409W        W59177  29.173   1.449  11.372
95410W        W59178  42.921   5.741  12.971
95411W        W59179   6.408  30.643  10.125
95412W        W59180  31.482   5.768  14.341
95413W        W59181   5.797  40.358  10.425
95414W        W59182  15.635  29.942  11.928
95415W        W59183  34.047  28.530  12.355
95416W        W59184  30.082   2.789  14.020
95417W        W59185  24.609  37.889  14.441
95418W        W59186  21.256   3.218  11.864
95419W        W59187  27.468  26.689   2.740
95420W        W59188  11.363   5.720  14.317
95421W        W59189   2.920  29.638  10.540
95422W        W59190  31.984  35.885  10.083
95423W        W59191  19.722  18.061   2.842
95424W        W59192  34.925  14.748  14.311
95425W        W59193  14.113   6.247   2.340
95426W        W59194   4.851   0.301   1.697
95427W        W59195   3.766   4.382   1.314
95428W        W59196  20.124  36.859   2.352
95429W        W59197   9.380  14.769  13.008
95430W        W59198  12.725   9.376  10.095
95431W        W59199  34.401  16.252   2.900
95432W        W59200  21.704  19.571  13.858
95433W        W59201  25.167  20.759  13.047
95434W        W59202   9.206  31.129  14.990
95435W        W59203  42.433   0.906   0.781
95436W        W59204   1.451   2.861  14.833
95437W        W59205  18.747  37.832   0.927
95438W        W59206  30.923  19.614  10.551
95439W        W59207  28.953  12.834  12.573
95440W        W59208  38.907  33.026  12.358
95441W        W59209  31.928  34.571  10.601
95442W        W59210   0.851  25.131   1.710
95443W        W59211   6.812  13.734   4.709
95444W        W59212  42.409  28.181   4.779
95445W        W59213  23.690  37.943   1.808
95446W        W59214  43.786  10.806   4.167
95447W        W59215  20.089  42.403   1.400
95448W        W59216  23.134   9.684   0.843
95449W        W59217  40.420  32.084   0.275
95450W        W59218  23.193  43.292  13.053
95451W        W59219  14.157  27.120  14.961
95452W        W59220   4.253  28.555  13.001
95453W        W59221  11.774  20.219  14.933
95454W        W59222  12.269  22.088  10.555
95455W        W59223  13.754  25.011  12.481
95456W        W59224  30.652  43.863  10.572
95457W        W59225  11.342  29.464   3.705
95458W        W59226   8.721  24.200  12.514
95459W        W59227   3.322  22.728  12.012
95460W        W59228  39.039  38.964   1.320
95461W        W59229  14.727  40.035  10.537
95462W        W59230  27.951  21.066   2.728
95463W        W59231  17.297  33.480   5.599
95464W        W59232  27.186  12.220  12.422
95465W        W59233  12.695  37.411  13.404
95466W        W59234   5.228  13.769   1.780
95467W        W59235   1.738  10.832   0.388
95468W        W59236   3.438  44.985  11.001
95469W        W59237  38.973  34.868  11.899
95470W        W59238   9.266  21.162  10.602
95471W        W59239  19.275  11.842   3.747
95472W        W59240   4.277  41.851   1.776
95473W        W59241  33.611  18.619  11.863
95474W        W59242  19.071  18.683  10.060
95475W        W59243  20.140   9.886   3.747
95476W        W59244  27.181   7.712   3.221
95477W        W59245   3.909   5.738  14.836
95478W        W59246  16.669  36.591  12.909
95479W        W59247   6.371  35.597   2.201
95480W        W59248   6.211  39.456   1.419
95481W        W59249   4.295  30.954   3.229
95482W        W59250  29.980  10.234  10.935
95483W        W59251  24.167  41.332   9.972
95484W        W59252  15.693  11.772  12.537
95485W        W59253  39.828  33.449  10.416
95486W        W59254  38.969   4.413   5.129
95487W        W59255   9.228   0.410   1.370
95488W        W59256  15.119   5.730  13.039
95489W        W59257  17.078  27.041  11.070
95490W        W59258   9.358  44.421  11.522
95491W        W59259   1.385  33.011   4.828
95492W        W59260  29.592  20.546   0.273
95493W        W59261   7.227  12.852  14.311
95494W        W59262  25.967  25.511  10.433
95495W        W59263  13.114  19.056   2.794
95496W        W59264   1.962   6.266  12.427
95497W        W59265  20.253  29.585   4.350
95498W        W59266  38.471   4.920   0.457
95499W        W59267  20.039  10.796   3.227
95500W        W59268  14.171  25.123  11.888
95501W        W59269  23.565   2.821   3.755
95502W        W59270  36.566  38.370   2.292
95503W        W59271  37.040  30.608  11.977
95504W        W59272   6.195   2.386  13.873
95505W        W59273   5.336   6.310  11.580
95506W        W59274  10.358  17.631  12.876
95507W        W59275  11.357  37.465  12.466
95508W        W59276  19.579  42.488  14.008
95509W        W59277   1.376   1.270  12.076
95510W        W59278  19.044  36.066   9.655
95511W        W59279  10.284  23.062   3.213
95512W        W59280  17.581  21.111  11.992
95513W        W59281  32.536   2.831  12.890
95514W        W59282  23.731  30.043   4.169
95515W        W59283  10.343   5.891  11.900
95516W        W59284  41.439  30.477  13.802
95517W        W59285  27.956   1.745   5.170
95518W        W59286  26.508   3.761  11.423
95519W        W59287  27.034  28.983   3.655
95520W        W59288  10.270  16.740  14.953
95521W        W59289  28.504   1.460   1.736
95522W        W59290   1.372  11.851  14.340
95523W        W59291  25.078  21.542  14.788
95524W        W59292  41.863   4.799   2.212
95525W        W59293  20.123  34.543   3.382
95526W        W59294  17.592  24.701  12.909
95527W        W59295  36.949  36.067  14.761
95528W        W59296  12.642  28.452   3.359
95529W        W59297  18.653  13.720  14.997
95530W        W59298  43.449  37.431  14.407
95531W        W59299  34.426  27.496  10.433
95532W        W59300   6.878  12.733   2.805
95533W        W59301  41.453  36.087   4.248
95534W        W59302  27.025  10.820   0.779
95535W        W59303  37.012  14.197   4.634
95536W        W59304  41.382  36.951   1.891
95537W        W59305  13.713   1.396   4.114
95538W        W59306  41.480  39.920  12.877
95539W        W59307  19.595   9.685   4.257
95540W        W59308   3.316  30.627  14.501
95541W        W59309   8.704  40.935  11.984
95542W        W59310   6.184  10.328   3.716
95543W        W59311  28.015   4.431   2.737
95544W        W59312  23.713  41.035  14.916
95545W        W59313   6.322  28.053  14.848
95546W        W59314  19.621  41.880  12.917
95547W        W59315  40.505  34.896  11.893
95548W        W59316  36.096  14.279   4.780
95549W        W59317  10.736  37.977  12.501
95550W        W59318  22.692  16.154   0.383
95551W        W59319  39.831   2.451  13.909
95552W        W59320  17.701  41.340  12.424
95553W        W59321  15.745  18.780  10.972
95554W        W59322  36.567  15.206   3.778
95555W        W59323  32.420  24.101   2.395
95556W        W59324  16.681  42.899  12.990
95557W        W59325  18.070  22.593  14.369
95558W        W59326  28.665  20.241  11.865
95559W        W59327  30.000  21.200  10.065
95560W        W59328   1.469  16.721  13.308
95561W        W59329  35.047  24.569  13.493
95562W        W59330   6.709  20.620   0.757
95563W        W59331  26.465  26.070   1.917
95564W        W59332  42.830  40.498  13.527
95565W        W59333  38.897  40.490   1.363
95566W        W59334  19.695  42.432  14.758
95567W        W59335  43.851  37.973  14.853
95568W        W59336  35.444  38.439   1.839
95569W        W59337  21.119  27.476   3.775
95570W        W59338  29.164  30.960  13.882
95571W        W59339   8.393  32.939   2.795
95572W        W59340  25.501  43.942   1.809
95573W        W59341  36.454  40.441   3.720
95574W        W59342   6.189  35.953  10.966
95575W        W59343   1.467  39.832  10.442
95576W        W59344   9.289  26.004   1.364
95577W        W59345  22.243  15.215   2.218
95578W        W59346  42.811  15.178  13.537
95579W        W59347  23.721  31.934  12.355
95580W        W59348   3.444  43.949   3.333
95581W        W59349  43.876  14.175   3.237
95582W        W59350  30.928  21.234  12.397
95583W        W59351  26.623  26.594  11.509
95584W        W59352  42.987  13.147  14.878
95585W        W59353  44.859  19.089   1.299
95586W        W59354   3.412  26.648  14.888
95587W        W59355  44.267  42.336  10.900
95588W        W59356  35.603  31.087   0.857
95589W        W59357  28.542  39.508   4.756
95590W        W59358  14.639  11.793   2.398
95591W        W59359  26.465  30.996  10.470
95592W        W59360  32.471  43.988   1.433
95593W        W59361  37.508  44.366   4.243
95594W        W59362  27.635  27.475  13.827
95595W        W59363  34.418  33.124   0.279
95596W        W59364  30.115   0.873  14.467
95597W        W59365  39.315  33.466  13.490
95598W        W59366  35.977  31.529   1.812
95599W        W59367  10.215  23.663  13.417
95600W        W59368  17.085  44.858   2.856
95601W        W59369   8.277  17.204  11.098
95602W        W59370  22.217  31.431  13.064
95603W        W59371   9.732  19.621  13.793
95604W        W59372  12.334   6.345  12.487
95605W        W59373  10.714  12.302   2.667
95606W        W59374   7.206  20.231  14.903
95607W        W59375   8.365   0.284  12.022
95608W        W59376   4.815  22.251  10.158
95609W        W59377  40.835   0.368  10.419
95610W        W59378  36.959  12.201  11.420
95611W        W59379  30.514  29.516  11.493
95612W        W59380  30.459  20.569  12.567
95613W        W59381  28.945  31.489   0.342
95614W        W59382  27.071   9.704  12.875
95615W        W59383  37.376  28.132   3.188
95616W        W59384  13.286  44.802   2.850
95617W        W59385  23.658  13.655   4.292
95618W        W59386  19.123  29.494  13.819
95619W        W59387  12.354  38.949  14.906
95620W        W59388  24.513  35.479  12.380
95621W        W59389  39.026  40.929  12.953
95622W        W59390  34.596  27.957  14.312
95623W        W59391  40.430  10.148   3.184
95624W        W59392  44.993  37.396   0.966
95625W        W59393  11.184  27.192   1.739
95626W        W59394  32.433  15.616  14.004
95627W        W59395  34.932  11.732   1.219
95628W        W59396  19.606   5.430  13.334
95629W        W59397  32.475   2.791   2.216
95630W        W59398  22.118  14.197  14.988
95631W        W59399  26.636  15.121  12.889
95632W        W59400  24.616   1.862   0.479
95633W        W59401  32.612  37.410  11.487
95634W        W59402   8.793  42.466   1.433
95635W        W59403   0.881  10.239   0.773
95636W        W59404   1.830  30.557   2.239
95637W        W59405  25.009  31.480  10.920
95638W        W59406  42.332  27.681   3.311
95639W        W59407   7.266  35.067   0.818
95640W        W59408  20.623  34.462  12.862
95641W        W59409  42.328  41.524  12.501
95642W        W59410  21.706  21.187  11.591
95643W        W59411  15.807   3.410  11.601
95644W        W59412  41.838  23.112  14.292
95645W        W59413  24.503  31.953   1.416
95646W        W59414  44.910  27.963  10.478
95647W        W59415   9.394  19.604  14.933
95648W        W59416  23.637   7.271   0.918
95649W        W59417  19.255  32.045  11.944
95650W        W59418  35.413  35.054  12.514
95651W        W59419  14.330  24.640  10.971
95652W        W59420  44.933  28.639  12.395
95653W        W59421   3.935  15.083   2.329
95654W        W59422  38.568  32.461   0.845
95655W        W59423  17.774   6.733  11.109
95656W        W59424  41.984   7.250  14.776
95657W        W59425  24.651  35.059  13.918
95658W        W59426  32.603  12.646  11.002
95659W        W59427  37.438  11.230  12.351
95660W        W59428  38.012  14.178  12.397
95661W        W59429   9.787  31.519   2.689
95662W        W59430  41.368  13.751   1.363
95663W        W59431  32.589  27.452  10.471
95664W        W59432  38.064  25.004  10.408
95665W        W59433  31.621  17.174   0.348
95666W        W59434   6.382  20.673   0.420
95667W        W59435  30.118  43.908   3.290
95668W        W59436  31.545  15.741   1.794
95669W        W59437  43.896  44.934  12.546
95670W        W59438  24.107  40.994  12.420
95671W        W59439  23.183  39.382  14.334
95672W        W59440  42.006  38.824  13.830
95673W        W59441   7.281  42.812  14.920
95674W        W59442  34.992  29.000   1.772
95675W        W59443  38.424  14.256   2.246
95676W        W59444  12.742  13.290   4.220
95677W        W59445  15.261  42.318  13.868
95678W        W59446  28.499  42.387  10.556
95679W        W59447  21.229  23.609  14.841
95680W        W59448  34.567   7.359  13.052
95681W        W59449  31.555  36.436   3.863
95682W        W59450  42.340   9.224  14.948
95683W        W59451  19.192  23.078  11.927
95684W        W59452  36.529  37.565  13.012
95685W        W59453  38.530  30.088  12.483
95686W        W59454  12.782   9.179   1.797
95687W        W59455  38.991  10.788   0.844
95688W        W59456  30.531  40.357   2.302
95689W        W59457  13.786  22.675  10.611
95690W        W59458  19.629  22.215   2.800
95691W        W59459  39.354  39.330   2.814
95692W        W59460   1.755  30.151   3.764
95693W        W59461  37.403  33.075   4.626
95694W        W59462  24.980  41.478  10.600
95695W        W59463  21.594   9.329  14.463
95696W        W59464   1.323  33.996  12.389
95697W        W59465  21.152  25.040  11.401
95698W        W59466  42.333  34.606   0.472
95699W        W59467  38.046  10.810   0.757
95700W        W59468  11.299  30.531   0.915
95701W        W59469  24.132  42.324   3.355
95702W        W59470  16.258   4.430  10.457
95703W        W59471   4.785  30.578  14.004
95704W        W59472  25.548  10.340  14.341
95705W        W59473  42.304   1.839   1.258
95706W        W59474   5.321  35.984   4.251
95707W        W59475  44.895   5.918  14.860
95708W        W59476  11.780   5.752   4.766
95709W        W59477   3.395   1.756   3.243
95710W        W59478   0.745  21.679  10.952
95711W        W59479  13.667  17.606   0.446
95712W        W59480  41.388   8.822  14.855
95713W        W59481   9.311  43.516   3.747
95714W        W59482  44.478  10.359   1.792
95715W        W59483  19.039  25.545   1.883
95716W        W59484  34.571  24.521   4.248
95717W        W59485  23.676  42.332  10.561
95718W        W59486   5.706   3.320   3.871
95719W        W59487  36.509  17.723   3.161
95720W        W59488  24.717  15.799   2.894
95721W        W59489  22.726  41.927   3.218
95722W        W59490  33.532  10.843   0.762
95723W        W59491  42.928  12.662  14.970
95724W        W59492  12.785  11.180   0.393
95725W        W59493  14.617  44.958  10.916
95726W        W59494  27.079  11.732   3.355
95727W        W59495  27.587  44.901  14.989
95728W        W59496  22.038   4.790   3.709
95729W        W59497  27.611  34.378  12.450
95730W        W59498   5.281   9.764  12.343
95731W        W59499   0.455  39.055   3.198
95732W        W59500  19.204   3.786   0.873
95733W        W59501  18.568  32.610   1.402
95734W        W59502   4.822   9.166  13.907
95735W        W59503  42.453  33.614   4.171
95736W        W59504  42.814  31.440   2.846
95737W        W59505  25.094  44.900   3.853
95738W        W59506  10.307  32.088  11.100
95739W        W59507  38.499  16.183  12.419
95740W        W59508  37.024   5.764  14.491
95741W        W59509  33.492  20.130  10.034
95742W        W59510  18.589  20.089  13.818
95743W        W59511  13.736   4.714  14.431
95744W        W59512  34.886  30.963  11.954
95745W        W59513   1.774  39.513  11.410
95746W        W59514  23.601  39.904   3.319
95747W        W59515  14.162   0.946  10.540
95748W        W59516  42.871  37.882   4.642
95749W        W59517  10.675  33.597  14.511
95750W        W59518  31.127   7.178  11.475
95751W        W59519  12.320  32.410  12.475
95752W        W59520  27.485  35.482  12.486
95753W        W59521  17.694   3.914  14.017
95754W        W59522  44.278   2.279  11.900
95755W        W59523  13.345  19.584  13.933
95756W        W59524  38.424  33.947   5.284
95757W        W59525  12.168  21.200   1.708
95758W        W59526  36.466  20.545   3.146
95759W        W59527   7.819  22.181   4.801
95760W        W59528  15.702  16.110   4.800
95761W        W59529   5.245  15.674  13.847
95762W        W59530  34.927  36.552  11.526
95763W        W59531  34.898  10.283  11.557
95764W        W59532  23.664  23.108  10.983
95765W        W59533  18.738   1.329  12.501
95766W        W59534  34.886   7.818   4.611
95767W        W59535  26.631  44.940  14.973
95768W        W59536  11.708   5.749   4.326
95769W        W59537  41.519  42.467   1.344
95770W        W59538  33.412   7.719   4.281
95771W        W59539  31.436  40.927  11.606
95772W        W59540  37.835  38.984  13.871
95773W        W59541  14.739  44.797  11.880
95774W        W59542  41.955  39.328   0.918
95775W        W59543   4.754  22.039   2.355
95776W        W59544  15.264  43.914  11.981
95777W        W59545  23.631   9.756  13.974
95778W        W59546  36.049  43.289  11.997
95779W        W59547  17.796   1.934   0.448
95780W        W59548  29.156  27.646   2.254
95781W        W59549  26.559  25.157  14.880
95782W        W59550  30.155  37.496   1.431
95783W        W59551  37.874  19.587   3.780
95784W        W59552  17.159  19.762  14.866
95785W        W59553  31.500  33.926   3.775
95786W        W59554  21.106  42.905   3.154
95787W        W59555  12.120  40.867  14.506
95788W        W59556  14.121  39.365   3.659
95789W        W59557  25.500  26.678  12.900
95790W        W59558  41.329  16.302   4.710
95791W        W59559  32.008  35.363  11.910
95792W        W59560  26.147  12.724   3.671
95793W        W59561  11.795  43.773   0.426
95794W        W59562  26.076  23.089   2.859
95795W        W59563   1.796   1.286   2.828
95796W        W59564   8.654   5.740  10.583
95797W        W59565  37.927  29.609   2.852
95798W        W59566   0.815  40.945  14.344
95799W        W59567  32.080  24.070   0.383
95800W        W59568  15.318  12.621   0.345
95801W        W59569  40.952  25.471  10.959
95802W        W59570  28.022  14.095  12.993
95803W        W59571  38.897  30.080   3.297
95804W        W59572   3.911  27.005   3.184
95805W        W59573   3.929  36.518   1.265
95806W        W59574   4.807  41.346   1.855
95807W        W59575  29.995  27.029  13.464
95808W        W59576  10.654  27.164  11.072
95809W        W59577   1.372   6.192   2.737
95810W        W59578  16.138  28.455   1.926
95811W        W59579  15.677   4.272   1.417
95812W        W59580   4.391   6.415  12.040
95813W        W59581  34.049  11.672  14.823
95814W        W59582  42.803  34.010   4.316
95815W        W59583   8.266  36.957  11.925
95816W        W59584  22.517  26.671   3.707
95817W        W59585   6.324  44.785   1.934
95818W        W59586   5.739  36.088   2.868
95819W        W59587  20.127  26.507   5.291
95820W        W59588   7.370   4.758   3.739
95821W        W59589  10.157  13.244  10.553
95822W        W59590   0.282   5.736  10.552
95823W        W59591  29.133  31.541  10.421
95824W        W59592  30.541  13.828  14.502
95825W        W59593  36.061   1.810  10.554
95826W        W59594  32.507   3.229   1.736
95827W        W59595  19.579  20.140   2.324
95828W        W59596  32.588   6.909   4.219
95829W        W59597  21.604  21.558   3.706
95830W        W59598  36.529   0.836  12.468
95831W        W59599  21.222  36.849  10.539
95832W        W59600  13.248  28.680  13.980
95833W        W59601  12.713  26.195   0.430
95834W        W59602  42.473  22.021  11.452
95835W        W59603  17.175  36.891  14.299
95836W        W59604   2.469  21.537  14.914
95837W        W59605  33.418  20.191  10.600
95838W        W59606  38.986   3.247   1.778
95839W        W59607  35.942  19.212  14.423
95840W        W59608  26.506  36.913  13.976
95841W        W59609  28.463  26.046   0.749
95842W        W59610   0.279  42.523   1.414
95843W        W59611  30.627  31.091   5.271
95844W        W59612  15.749  21.150   1.759
95845W        W59613  38.341  11.740  14.413
95846W        W59614  39.951  44.801  10.912
95847W        W59615   8.684   1.865  14.802
95848W        W59616  24.182  12.703   2.241
95849W        W59617   3.749  34.012   3.204
95850W        W59618   3.808  24.708   2.693
95851W        W59619  18.602   1.801   3.848
95852W        W59620  31.091  24.130   1.795
95853W        W59621  29.128  14.647   1.703
95854W        W59622  43.995  16.571  11.385
95855W        W59623   2.344  21.189  14.968
95856W        W59624  43.328  15.127  10.966
95857W        W59625  31.409  31.984   1.742
95858W        W59626  30.630  12.320   2.381
95859W        W59627  22.649  12.827   1.404
95860W        W59628  11.646  24.680   1.716
95861W        W59629  12.154  37.024   2.273
95862W        W59630  33.048  20.214   5.758
95863W        W59631   3.316  14.736  10.540
95864W        W59632  29.064  12.650  11.921
95865W        W59633  36.515  20.660  14.007
95866W        W59634  30.077  30.423  10.457
95867W        W59635   4.290  24.597  13.919
95868W        W59636  22.745  41.988  14.376
95869W        W59637  23.584  37.044   0.862
95870W        W59638  36.354  14.207   4.724
95871W        W59639  42.011   0.924  11.572
95872W        W59640  34.015   6.402   0.426
95873W        W59641  43.963  41.013   4.623
95874W        W59642   8.209   2.900   4.737
95875W        W59643  34.545  19.276   0.363
95876W        W59644  34.589  11.182   1.833
95877W        W59645   8.395   8.160  11.497
95878W        W59646   2.845  10.325  13.043
95879W        W59647  21.166  39.919  11.955
95880W        W59648  26.610  22.202   2.898
95881W        W59649  44.789  36.019   2.901
95882W        W59650  18.561  29.022  14.908
95883W        W59651  42.381  20.265   3.272
95884W        W59652  12.132  27.020  14.924
95885W        W59653  36.478  23.007   0.406
95886W        W59654   5.855  27.128  11.458
95887W        W59655  14.222  16.143  14.373
95888W        W59656  31.492  12.760   2.804
95889W        W59657   6.356   5.361   4.737
95890W        W59658  11.722   3.459  14.007
95891W        W59659  11.850  28.647  13.529
95892W        W59660  44.776  12.787  13.877
95893W        W59661  30.614  23.664  11.083
95894W        W59662   8.179  39.382   3.165
95895W        W59663  23.124  13.315  14.001
95896W        W59664  24.132  35.876   0.938
95897W        W59665   1.398  21.264  10.923
95898W        W59666  14.769  26.621   9.975
95899W        W59667   1.417  35.492   4.162
95900W        W59668  24.144  35.870   1.734
95901W        W59669  21.033  15.774   4.716
95902W        W59670  16.637  17.634   4.282
95903W        W59671  36.885  13.278  11.999
95904W        W59672  15.707   0.912  12.493
95905W        W59673  14.722  32.129  13.809
95906W        W59674  32.511  42.333  14.770
95907W        W59675  14.809  15.326   1.435
95908W        W59676   7.677  43.449  13.371
95909W        W59677  40.965  11.238   4.608
95910W        W59678  12.145  14.278  11.503
95911W        W59679   9.364  30.995  10.585
95912W        W59680   8.169  44.295   2.290
95913W        W59681  43.296  32.468   1.327
95914W        W59682  28.953  44.873  13.838
95915W        W59683   7.412  22.097   1.907
95916W        W59684   7.810  20.068   3.354
95917W        W59685  41.839  38.010  12.950
95918W        W59686   1.252  30.652   0.460
95919W        W59687   4.435  25.544  11.900
95920W        W59688   0.826  41.983   4.282
95921W        W59689  39.929  10.699  11.495
95922W        W59690  16.718  35.855   4.133
95923W        W59691  29.480  14.120   5.117
95924W        W59692   2.731  15.092  10.616
95925W        W59693  24.574  29.130   2.719
95926W        W59694   0.971  35.947   0.856
95927W        W59695   5.830  18.238  12.883
95928W        W59696  27.126   7.349  13.961
95929W        W59697  22.082   7.906   1.298
95930W        W59698   4.816   1.259  12.438
95931W        W59699  43.931  11.687   4.190
95932W        W59700   0.799  27.951  10.523
95933W        W59701  29.007   8.872  12.493
95934W        W59702   5.393   4.843  11.906
95935W        W59703  18.249   7.761  14.984
95936W        W59704   9.843  15.242  14.961
95937W        W59705   7.680  28.120   1.407
95938W        W59706  23.688  35.370  14.886
95939W        W59707  21.201  43.280  12.455
95940W        W59708  44.854  10.205   2.222
95941W        W59709  27.050  10.366  14.764
95942W        W59710  23.170  23.001  11.962
95943W        W59711  21.119  41.292  12.992
95944W        W59712   0.472   3.284  11.129
95945W        W59713  34.865  40.319   2.311
95946W        W59714  25.499  16.164   0.430
95947W        W59715   3.410  36.584  12.455
95948W        W59716  15.230   1.337  10.410
95949W        W59717  18.091  25.116   1.334
95950W        W59718  25.653  35.578   5.270
95951W        W59719  18.610  10.306  12.997
95952W        W59720  21.159  43.793  11.482
95953W        W59721  40.475  27.059  10.502
95954W        W59722  13.296  19.204   1.403
95955W        W59723   4.923   3.900  12.346
95956W        W59724  39.460  14.266  14.903
95957W        W59725   0.430  31.915  13.425
95958W        W59726  35.602  37.421  12.563
95959W        W59727  16.758   7.246   0.847
95960W        W59728  25.484  37.941  14.004
95961W        W59729  31.003  28.070  11.102
95962W        W59730   7.882  31.921  14.779
95963W        W59731  31.413  42.379   1.440
95964W        W59732  11.202  26.600   3.836
95965W        W59733   2.266  14.284  10.954
95966W        W59734  29.525  26.553  14.308
95967W        W59735  20.629  12.631  12.935
95968W        W59736  30.431  15.257   3.684
95969W        W59737  41.019  28.063  14.858
95970W        W59738  42.856  33.979  13.326
95971W        W59739  15.137   2.412  11.031
95972W        W59740  34.116  17.577  14.845
95973W        W59741  28.080  20.039   3.313
95974W        W59742  33.435  33.109   0.822
95975W        W59743  23.532   4.799  14.892
95976W        W59744  24.695  44.865  10.418
95977W        W59745  30.582  28.978   1.310
95978W        W59746  44.266  38.873   0.267
95979W        W59747  44.270  39.349  10.426
95980W        W59748  41.992  29.583  14.366
95981W        W59749   8.763  44.902  14.396
95982W        W59750  35.464  29.055   0.395
95983W        W59751  28.679   2.751   3.261
95984W        W59752  31.984   9.231   3.630
95985W        W59753  11.703  41.381  10.054
95986W        W59754   8.691  44.970  10.483
95987W        W59755   7.394  34.937  11.919
95988W        W59756   1.882  23.998   2.662
95989W        W59757  12.706  20.590   0.793
95990W        W59758   0.847   3.264  14.376
95991W        W59759  17.076  28.528   1.237
95992W        W59760   5.924  11.663  13.525
95993W        W59761  14.326  27.467   1.383
95994W        W59762  41.862  33.503   1.922
95995W        W59763   7.266  16.718   2.371
95996W        W59764  24.156  44.850  13.859
95997W        W59765   3.314   6.299   5.228
95998W        W59766  36.499  42.519   2.222
95999W        W59767  30.430  41.527   2.413
96000W        W59768  12.831  42.807   0.371
96001W        W59769  14.770  11.149   5.317
96002W        W59770  10.281   0.832   4.760
96003W        W59771  17.796  10.177   0.930
96004W        W59772  16.632  31.148  13.404
96005W        W59773  20.180   7.695   2.406
96006W        W59774   8.396  15.675  12.068
96007W        W59775  35.947  14.112  13.413
96008W        W59776  13.270  14.134  14.955
96009W        W59777  34.427  29.153   3.788
96010W        W59778  24.588  40.353  10.936
96011W        W59779  20.618  24.207  12.383
96012W        W59780  40.016  35.914   1.412
96013W        W59781  27.113  37.406   1.714
96014W        W59782  14.223   6.344  11.611
96015W        W59783  16.183  39.361   2.257
96016W        W59784  37.058  33.602   5.106
96017W        W59785   1.309  20.136  14.842
96018W        W59786  21.697  24.174   1.383
96019W        W59787  41.791  22.189  13.972
96020W        W59788  18.621  38.988  14.857
96021W        W59789  41.363  14.261   0.851
96022W        W59790  19.106   3.460   1.869
96023W        W59791  10.248  38.063  11.585
96024W        W59792   2.964  43.919   4.686
96025W        W59793  43.282  32.977  10.621
96026W        W59794   4.786  34.000  11.924
96027W        W59795   3.880  35.464  14.341
96028W        W59796  13.778  42.008  14.477
96029W        W59797  30.518  24.226   4.719
96030W        W59798  44.315   0.779   1.833
96031W        W59799  23.209  16.239  11.445
96032W        W59800   2.740   0.938   1.842
96033W        W59801  19.747  44.941  11.878
96034W        W59802  10.715  38.457   1.718
96035W        W59803   3.429  14.691   1.712
96036W        W59804  26.987  21.547  10.413
96037W        W59805  39.929  17.643  13.476
96038W        W59806  24.634  41.425  12.531
96039W        W59807  41.903  14.708   1.799
96040W        W59808  41.493   5.339  12.464
96041W        W59809  41.965  16.106  12.412
96042W        W59810   0.851  10.686  10.991
96043W        W59811  27.048   4.710   4.259
96044W        W59812  40.042  26.961   1.399
96045W        W59813   4.719  17.136   2.828
96046W        W59814   3.245  14.097  11.045
96047W        W59815  28.544  39.328   0.871
96048W        W59816  41.874   8.893   4.818
96049W        W59817  40.009  29.436  14.384
96050W        W59818  14.816   3.377  13.040
96051W        W59819  10.139  43.803   3.278
96052W        W59820  21.118   8.858  14.963
96053W        W59821  26.958  41.852   3.248
96054W        W59822  39.055   6.859   9.515
96055W        W59823  14.634  34.454  14.338
96056W        W59824  39.362  32.015  10.068
96057W        W59825  39.989  17.115   0.314
96058W        W59826  36.528   3.272  14.368
96059W        W59827  15.171  44.766   0.256
96060W        W59828  35.046  32.506  11.095
96061W        W59829  38.959  43.836  11.025
96062W        W59830  33.907   5.286  12.379
96063W        W59831   7.774  16.184  10.538
96064W        W59832  42.801   8.748   1.312
96065W        W59833  35.932  23.101   1.907
96066W        W59834  24.211   2.878  14.320
96067W        W59835   5.229  13.296  13.522
96068W        W59836  10.829  31.512   2.862
96069W        W59837   2.791  15.732  10.068
96070W        W59838   0.414  18.711  12.908
96071W        W59839  29.111  17.097  14.895
96072W        W59840   9.863  43.352  10.899
96073W        W59841  44.814  16.293  11.425
96074W        W59842  30.526  18.068  13.934
96075W        W59843  36.997  34.900   3.285
96076W        W59844  29.150  38.886  12.999
96077W        W59845  15.626  41.886  14.440
96078W        W59846   6.287  14.121   1.712
96079W        W59847  20.661   5.749   2.389
96080W        W59848   7.208  41.318  14.879
96081W        W59849  28.994  12.760   1.750
96082W        W59850   0.777  36.381   3.382
96083W        W59851  35.379  33.951   3.375
96084W        W59852  38.363   6.734  11.058
96085W        W59853   8.714   9.849   1.911
96086W        W59854  19.566  14.107   0.890
96087W        W59855  39.483  32.606  11.610
96088W        W59856  44.998  40.932   0.900
96089W        W59857  16.225  10.257  14.364
96090W        W59858  34.979  27.133   0.817
96091W        W59859  12.701  30.481  11.498
96092W        W59860  41.965  40.934  11.563
96093W        W59861  36.927  31.436  13.931
96094W        W59862  32.139  15.296   1.335
96095W        W59863  39.353   1.467   4.175
96096W        W59864  35.414  28.655  11.063
96097W        W59865  32.934  16.221   1.365
96098W        W59866  15.726  40.303   3.259
96099W        W59867  39.868  25.040   3.650
96100W        W59868  30.028   7.322   4.211
96101W        W59869  36.463  24.226  14.839
96102W        W59870   1.811  22.562  13.441
96103W        W59871  28.142  22.712   1.381
96104W        W59872  26.019   3.951  14.011
96105W        W59873  38.351  16.733   1.711
96106W        W59874  34.539  14.593  11.928
96107W        W59875  14.611  36.351   3.189
96108W        W59876  39.475  27.654   5.682
96109W        W59877   6.820  44.269   3.839
96110W        W59878  11.156  31.043   2.406
96111W        W59879  30.618  13.758  13.039
96112W        W59880   3.237  13.750  11.389
96113W        W59881  31.148  44.322   4.818
96114W        W59882   5.875  13.675  10.897
96115W        W59883  16.166  36.376   4.244
96116W        W59884   0.400  32.555  10.616
96117W        W59885  43.340  42.789   3.275
96118W        W59886   4.815  28.135   0.911
96119W        W59887  15.667  21.198   2.180
96120W        W59888  30.139   9.231  12.986
96121W        W59889  25.677  27.486  11.555
96122W        W59890  13.134  27.470   4.819
96123W        W59891  35.492  16.314   0.911
96124W        W59892  32.493  22.666   0.262
96125W        W59893  12.295  10.683   2.860
96126W        W59894  43.339   1.389  10.631
96127W        W59895  23.073  11.283   9.975
96128W        W59896   2.778  18.130  10.438
96129W        W59897  31.126  17.170   1.757
96130W        W59898   5.856   0.455  13.820
96131W        W59899  34.610  23.548  10.629
96132W        W59900  32.476  26.516  13.515
96133W        W59901  30.607  14.593   0.965
96134W        W59902   6.743  36.351  13.309
96135W        W59903   6.278  26.969  14.921
96136W        W59904  31.040  38.027   1.241
96137W        W59905  17.080  14.775   2.203
96138W        W59906  11.224  12.243   0.942
96139W        W59907  44.954   6.693  13.810
96140W        W59908  14.148  20.084   2.809
96141W        W59909  27.016  40.903   3.351
96142W        W59910  37.859  23.149  13.915
96143W        W59911   1.480  34.386   3.789
96144W        W59912  18.291  28.075  12.956
96145W        W59913  38.069  41.362   3.277
96146W        W59914  42.927  33.394  10.920
96147W        W59915   2.407  43.417  10.561
96148W        W59916   6.904   3.720   4.837
96149W        W59917  11.231  35.916   3.225
96150W        W59918  39.916  33.118   2.199
96151W        W59919  22.157  19.641  10.497
96152W        W59920  24.207  21.601  12.472
96153W        W59921  23.205  24.061  12.870
96154W        W59922   1.879  40.368  13.835
96155W        W59923   9.344  19.603   2.266
96156W        W59924  28.520   4.884   0.753
96157W        W59925  17.075   4.833   1.924
96158W        W59926   9.264   3.840  13.988
96159W        W59927  24.153  12.287  12.377
96160W        W59928  14.661  16.247   4.827
96161W        W59929  27.666  23.005   3.828
96162W        W59930  17.626  32.895   0.368
96163W        W59931  36.370  43.324   4.717
96164W        W59932  15.669  38.367   0.738
96165W        W59933  11.321  36.356   0.337
96166W        W59934  12.276  23.194  13.485
96167W        W59935   2.721  15.620   1.256
96168W        W59936  43.509  16.752   0.430
96169W        W59937  21.542  17.093  13.035
96170W        W59938  17.185  33.921  11.409
96171W        W59939  11.779  17.072   4.180
96172W        W59940   7.233  10.322  12.513
96173W        W59941  30.648  28.126  14.788
96174W        W59942  19.752  25.180   1.927
96175W        W59943  27.149  39.929   0.296
96176W        W59944  31.623   7.223  14.333
96177W        W59945  41.397  41.993  12.494
96178W        W59946  18.553   9.878  14.921
96179W        W59947  28.567  14.297   1.840
96180W        W59948  38.071  34.920   3.265
96181W        W59949   5.695  12.232  10.583
96182W        W59950  26.978   2.894   1.861
96183W        W59951  15.761   0.858   4.804
96184W        W59952  25.537  40.478   1.325
96185W        W59953  28.532  36.349   2.778
96186W        W59954  44.863  18.120   2.213
96187W        W59955  28.468  30.960  13.427
96188W        W59956  20.205  31.897   2.670
96189W        W59957  39.826  14.273  14.475
96190W        W59958  13.309  18.125   5.137
96191W        W59959  13.302  12.635   3.797
96192W        W59960   0.860  36.485   5.780
96193W        W59961  11.779  29.514  12.504
96194W        W59962   8.193  22.636  12.513
96195W        W59963   6.313  21.551   1.273
96196W        W59964  21.522  34.012  12.425
96197W        W59965  30.518   7.250   3.629
96198W        W59966   0.747  36.983   5.125
96199W        W59967  23.176  18.134  13.815
96200W        W59968  40.829  17.272   4.155
96201W        W59969  23.575  43.941   4.200
96202W        W59970  19.258  43.954  14.438
96203W        W59971  29.633  28.438   0.752
96204W        W59972  19.748  40.339   1.247
96205W        W59973  42.423   4.819  13.909
96206W        W59974  11.639  33.475   4.219
96207W        W59975  39.427   5.870   3.180
96208W        W59976   3.813  25.995   0.468
96209W        W59977   3.423  35.023  10.927
96210W        W59978  22.161  11.200  10.450
96211W        W59979   3.772  43.495   0.900
96212W        W59980   5.293   0.830   2.756
96213W        W59981   9.828  31.593   4.297
96214W        W59982  14.770  11.167  12.080
96215W        W59983  12.804  30.149  12.524
96216W        W59984  13.656  27.518   3.321
96217W        W59985  12.288  33.084  12.525
96218W        W59986   6.198  22.080   0.927
96219W        W59987  24.518  11.159  13.526
96220W        W59988  42.008  22.707  11.394
96221W        W59989  43.922  34.076   4.792
96222W        W59990  44.445  38.467   0.945
96223W        W59991   0.475  12.342   0.741
96224W        W59992  44.442  41.833   0.805
96225W        W59993  21.255  18.702   2.346
96226W        W59994  21.155  20.094   3.200
96227W        W59995  24.021  11.731   0.452
96228W        W59996  42.908   7.345  11.416
96229W        W59997  44.852   4.840  11.401
96230W        W59998   9.294  11.811   3.183
96231W        W59999   2.276  25.196  10.444
96232W        W60000  43.431  28.024   3.211
96233W        W60001  41.794   8.836   4.271
96234W        W60002  12.134   3.330  12.402
96235W        W60003  20.740  35.012   5.221
96236W        W60004  31.901  31.489  14.949
96237W        W60005   9.211   8.386  11.430
96238W        W60006  34.397   9.709  14.954
96239W        W60007  20.084  18.698   1.381
96240W        W60008  29.471  44.875   0.457
96241W        W60009  21.128  33.523  11.412
96242W        W60010  28.988   6.852   2.751
96243W        W60011  40.032  31.470  14.013
96244W        W60012  17.084  27.459  11.576
96245W        W60013  23.613   7.393  10.994
96246W        W60014  22.049  35.083  12.449
96247W        W60015   0.362  11.851  12.487
96248W        W60016  20.574  44.930   0.869
96249W        W60017   8.789  38.363  12.986
96250W        W60018  24.200  11.668  12.538
96251W        W60019  21.561  41.325  12.387
96252W        W60020   5.327   7.297  11.987
96253W        W60021  16.119   6.401  11.429
96254W        W60022   9.297   7.326   1.250
96255W        W60023   0.384  15.121   0.424
96256W        W60024  32.978  29.070   0.335
96257W        W60025  12.645  39.463   0.832
96258W        W60026  11.755  26.979  11.886
96259W        W60027  37.417  17.120  10.500
96260W        W60028  33.901   6.228   2.706
96261W        W60029  14.621  35.567   0.467
96262W        W60030   4.842  23.094  14.815
96263W        W60031  44.487  16.615  14.941
96264W        W60032  14.144   5.395  11.478
96265W        W60033  18.086  12.359   1.211
96266W        W60034   4.817  22.691   2.336
96267W        W60035  30.020  11.677  11.940
96268W        W60036  29.430   4.755  14.937
96269W        W60037  35.562  27.066  12.985
96270W        W60038  37.961  14.592  14.928
96271W        W60039   8.335   7.679   0.880
96272W        W60040  21.180  35.885   1.831
96273W        W60041  23.078  35.893   2.359
96274W        W60042  38.935   7.410   1.238
96275W        W60043   5.799  16.165   3.257
96276W        W60044  40.982  31.605   2.410
96277W        W60045  20.679  19.239   0.840
96278W        W60046  22.118   7.876   3.789
96279W        W60047  41.981  17.092   1.449
96280W        W60048   1.393  29.103   1.243
96281W        W60049  14.325  15.799   1.430
96282W        W60050  44.429   9.330   2.376
96283W        W60051  34.999  39.353   4.745
96284W        W60052  17.631  23.089  12.834
96285W        W60053  35.380  37.006   0.479
96286W        W60054  32.954  28.155  10.989
96287W        W60055  32.545  29.537  11.070
96288W        W60056  14.825  22.615  11.985
96289W        W60057  38.940  22.095  12.026
96290W        W60058  10.229  43.797   3.694
96291W        W60059  41.407  10.318   0.457
96292W        W60060  19.193  31.524   2.239
96293W        W60061  25.659  36.003  10.446
96294W        W60062  39.022  39.553   3.185
96295W        W60063  14.708  37.994  10.497
96296W        W60064   4.254   7.874  10.617
96297W        W60065  32.593   5.860  13.463
96298W        W60066  31.613  37.432   3.797
96299W        W60067  35.899  42.489   0.899
96300W        W60068  12.761   1.324   1.822
96301W        W60069  18.787  38.845  13.925
96302W        W60070  36.884  24.995  14.786
96303W        W60071  39.521   7.798   0.255
96304W        W60072   1.403  25.108  12.381
96305W        W60073  21.033  36.501  12.056
96306W        W60074  25.073   9.814  14.506
96307W        W60075  23.512  23.697  12.981
96308W        W60076  39.968  18.653  10.527
96309W        W60077   6.348  32.051  12.938
96310W        W60078  20.639   2.740  12.387
96311W        W60079  23.187  42.441   4.273
96312W        W60080  26.635   0.838  10.515
96313W        W60081  44.761  38.850   1.369
96314W        W60082  26.607  30.103  12.341
96315W        W60083  13.307  14.779   1.341
96316W        W60084  17.703   3.803   0.455
96317W        W60085   7.331  39.893  11.006
96318W        W60086   9.791  13.188   9.968
96319W        W60087  12.124   3.828   2.180
96320W        W60088  25.051  33.418  13.908
96321W        W60089  29.619   4.723   9.971
96322W        W60090  39.494  25.178   3.631
96323W        W60091  16.766   9.170  12.899
96324W        W60092  14.655   0.423   0.438
96325W        W60093  24.071   1.276  14.916
96326W        W60094  11.186  40.470  12.829
96327W        W60095  38.917  27.020  13.386
96328W        W60096   5.855  39.884  11.383
96329W        W60097  21.098  31.109  11.095
96330W        W60098  10.867  40.427   4.832
96331W        W60099  33.414  18.077  10.919
96332W        W60100   2.926  19.185   4.350
96333W        W60101  26.085  24.518   2.393
96334W        W60102   0.384  16.748  10.485
96335W        W60103  15.162  19.729   4.216
96336W        W60104  18.578  26.619   0.394
96337W        W60105  14.133  12.137  12.929
96338W        W60106  16.682  24.080   0.892
96339W        W60107   5.230  43.421  13.507
96340W        W60108  16.698   6.834   1.447
96341W        W60109  37.578   1.936   0.802
96342W        W60110  27.982  11.663  12.830
96343W        W60111  43.361   4.798  11.125
96344W        W60112  11.814  24.490  14.950
96345W        W60113   0.798  33.958   1.921
96346W        W60114  37.919  11.249   1.231
96347W        W60115  38.325  10.215  11.002
96348W        W60116  22.200  35.071  11.476
96349W        W60117   4.289  30.939   4.598
96350W        W60118  42.423  43.796  11.096
96351W        W60119  41.946   5.714   0.455
96352W        W60120  32.483  44.427  13.424
96353W        W60121   5.857  30.629  13.479
96354W        W60122   8.729  29.110   1.418
96355W        W60123   5.278   8.274   2.203
96356W        W60124  33.027  35.532  11.091
96357W        W60125  19.141  35.994  12.908
96358W        W60126   6.292  44.335   4.348
96359W        W60127  36.898   5.216  10.103
96360W        W60128  14.153  21.717   0.481
96361W        W60129  21.158  32.596   9.499
96362W        W60130   1.480  30.516   4.617
96363W        W60131  20.682   8.362  14.378
96364W        W60132  34.384  30.569   1.851
96365W        W60133   4.772  40.421  10.581
96366W        W60134  12.613  22.168   4.628
96367W        W60135   1.898   1.392   2.348
96368W        W60136  30.046  19.564  13.477
96369W        W60137   6.240   9.240  12.380
96370W        W60138  16.195  22.661  10.569
96371W        W60139  27.006  40.979  14.822
96372W        W60140  36.919   5.839   5.268
96373W        W60141  24.135  10.307   4.835
96374W        W60142   7.813  28.095  13.432
96375W        W60143  39.879   9.707   0.365
96376W        W60144  22.116  30.638   2.765
96377W        W60145  22.078  37.460  12.408
96378W        W60146  32.465  32.450  11.489
96379W        W60147  30.658  15.760  14.865
96380W        W60148   3.415  35.428  11.938
96381W        W60149  21.046  25.636  13.319
96382W        W60150   8.276   2.420   3.238
96383W        W60151   3.244  38.919   3.375
96384W        W60152   6.318  27.551   3.664
96385W        W60153  24.197  18.772   0.442
96386W        W60154  12.675  34.388  10.585
96387W        W60155  43.852  19.604  11.493
96388W        W60156  34.532  44.954  13.501
96389W        W60157   1.768  28.122  12.050
96390W        W60158  22.516  20.241  13.872
96391W        W60159   2.462  41.321   0.825
96392W        W60160  16.797  25.549  11.374
96393W        W60161  38.842  41.941  11.926
96394W        W60162  13.321  38.566  11.864
96395W        W60163   1.753   0.464   0.313
96396W        W60164  34.426  26.622  11.991
96397W        W60165   3.782   5.839   0.915
96398W        W60166  13.327  36.072   2.322
96399W        W60167  20.690  37.009   4.830
96400W        W60168  24.995  42.323   3.383
96401W        W60169  36.395   5.380  13.853
96402W        W60170   2.377  36.513   3.721
96403W        W60171  12.650  33.589   2.801
96404W        W60172  33.430  30.088   4.237
96405W        W60173  37.936  11.293  14.321
96406W        W60174  26.571  16.774  12.842
96407W        W60175  37.456   3.267  11.495
96408W        W60176  28.100  29.632   9.977
96409W        W60177  11.697  29.579  13.968
96410W        W60178  11.735  18.683  14.406
96411W        W60179   7.894  22.576   0.812
96412W        W60180  19.219   9.733  14.910
96413W        W60181  20.122  14.832  12.511
96414W        W60182  25.077  26.160   1.853
96415W        W60183  41.899  26.150  13.005
96416W        W60184  43.782   4.726  13.371
96417W        W60185  39.443  19.091  11.486
96418W        W60186  35.016  33.951   4.663
96419W        W60187  26.548  23.732   4.259
96420W        W60188  10.728   5.437  14.989
96421W        W60189  29.432  28.634  13.351
96422W        W60190  27.456   7.293   1.399
96423W        W60191  26.584  35.934  13.502
96424W        W60192  10.149  36.389   4.298
96425W        W60193  41.941  33.989  13.521
96426W        W60194   7.753  39.855   1.701
96427W        W60195  27.514  43.385  13.459
96428W        W60196  14.211  23.162   9.987
96429W        W60197   5.329   7.220   2.778
96430W        W60198  43.351  18.730  10.974
96431W        W60199  18.568  30.533   2.732
96432W        W60200  39.462   5.218   3.725
96433W        W60201   7.894   6.378  11.028
96434W        W60202   4.837  38.429  11.453
96435W        W60203  24.678  28.624   1.235
96436W        W60204  34.972  32.946   1.333
96437W        W60205  18.589  31.930  10.529
96438W        W60206  43.274   6.250  11.105
96439W        W60207  35.980  31.489   4.837
96440W        W60208  12.168  36.404  10.493
96441W        W60209  21.511  26.973   2.404
96442W        W60210  43.824  24.121   0.769
96443W        W60211  12.151  33.051  10.543
96444W        W60212  14.205  24.099  10.537
96445W        W60213  21.702  24.493  13.792
96446W        W60214  42.987  17.072  12.974
96447W        W60215  37.546   9.771   3.752
96448W        W60216  29.015  40.513   0.818
96449W        W60217  37.973  12.694   4.306
96450W        W60218   0.422  31.620  12.942
96451W        W60219  23.727  36.350   2.903
96452W        W60220  11.260  40.378   1.310
96453W        W60221  12.240  42.324   2.228
96454W        W60222  32.090  39.916   0.398
96455W        W60223  31.097  40.919   1.838
96456W        W60224  38.358  38.942   4.705
96457W        W60225  28.040  41.431  13.417
96458W        W60226  31.013   1.330   4.214
96459W        W60227   8.869   9.729  12.004
96460W        W60228   7.736  19.270  14.348
96461W        W60229   0.955  44.801  11.930
96462W        W60230  43.946  13.250   2.415
96463W        W60231  43.384  29.007  13.817
96464W        W60232   8.884  16.288  10.915
96465W        W60233  36.418  14.247   3.762
96466W        W60234  19.141  31.953   0.395
96467W        W60235  39.979  35.441   3.286
96468W        W60236  43.423  39.925  12.533
96469W        W60237  42.313  30.571   4.116
96470W        W60238   5.823  12.713   2.814
96471W        W60239  36.915  27.101   3.707
96472W        W60240  24.627  19.632   2.855
96473W        W60241  13.773  32.036   2.224
96474W        W60242  19.658  41.323   2.885
96475W        W60243  22.591  10.731   4.623
96476W        W60244  36.054  30.450  12.846
96477W        W60245  10.799  27.584   2.729
96478W        W60246  23.714  19.552   4.833
96479W        W60247  17.187  37.085   0.912
96480W        W60248  40.512  16.223   0.397
96481W        W60249   5.233   8.713  12.362
96482W        W60250  31.110  20.562   4.241
96483W        W60251  17.064  34.038  11.036
96484W        W60252  26.526  16.590  13.999
96485W        W60253  15.770   1.888  11.549
96486W        W60254  23.561  39.897  12.829
96487W        W60255  39.417  40.019   4.338
96488W        W60256  28.515  37.035   0.833
96489W        W60257  20.685   8.782   2.285
96490W        W60258  38.872  43.007  13.369
96491W        W60259   2.429  25.025  14.290
96492W        W60260   4.262  13.306  12.402
96493W        W60261  44.896  44.423   3.182
96494W        W60262  41.833  35.070  12.518
96495W        W60263   0.824  40.435   4.612
96496W        W60264   3.352   8.675   0.942
96497W        W60265  42.834  43.967   4.287
96498W        W60266   0.284   7.908   2.772
96499W        W60267  39.005  21.034  13.358
96500W        W60268  30.601  11.864  14.356
96501W        W60269  41.344  17.613  13.963
96502W        W60270  41.377  42.006   0.886
96503W        W60271   3.286  28.617   4.185
96504W        W60272  16.738  15.301   1.417
96505W        W60273  17.152  23.089   2.328
96506W        W60274   3.799  12.193  10.523
96507W        W60275  41.337  18.594   4.665
96508W        W60276  41.817  43.359   0.417
96509W        W60277  44.445   8.395  13.307
96510W        W60278  23.556  36.380   3.355
96511W        W60279  39.874  33.898  10.534
96512W        W60280  25.559  17.676  11.495
96513W        W60281  18.762  39.845   4.633
96514W        W60282  32.436   7.900   2.242
96515W        W60283   7.861  14.793   0.942
96516W        W60284  32.570  22.219  12.393
96517W        W60285  16.706  41.328  13.370
96518W        W60286  20.547  21.711  11.497
96519W        W60287  18.082  14.144  11.568
96520W        W60288  28.542  22.190   1.390
96521W        W60289  15.620  35.948   2.338
96522W        W60290  13.613   9.748  10.627
96523W        W60291  12.186  38.987   0.329
96524W        W60292  32.949   8.770  14.818
96525W        W60293  29.137  17.570  12.928
96526W        W60294  28.001   4.735  13.802
96527W        W60295   7.821  10.738   4.703
96528W        W60296   8.210   8.199   3.697
96529W        W60297   3.894   3.319   1.920
96530W        W60298  24.992  39.001   2.717
96531W        W60299  11.355   9.795  11.435
96532W        W60300  40.855  15.273   4.800
96533W        W60301  17.180  11.793   2.269
96534W        W60302  31.080  27.644   4.153
96535W        W60303  15.745  22.543  11.019
96536W        W60304  12.800  19.777  12.927
96537W        W60305  32.027  43.458  12.393
96538W        W60306  38.010  18.666   1.820
96539W        W60307  42.956   2.908   0.808
96540W        W60308  42.446  11.198  10.444
96541W        W60309   7.843   4.241  12.391
96542W        W60310  20.218  31.622  10.563
96543W        W60311  18.606  21.670  14.022
96544W        W60312  22.578  19.238  13.342
96545W        W60313   7.848   1.818   2.251
96546W        W60314  15.110  23.148  13.428
96547W        W60315  32.046  16.233  10.472
96548W        W60316  23.572  20.268  12.932
96549W        W60317  44.841  24.200   3.248
96550W        W60318   0.309  40.362  11.018
96551W        W60319   9.323   5.926   3.644
96552W        W60320  44.353  38.064  11.433
96553W        W60321  17.560  27.995   4.132
96554W        W60322  43.427  18.292   0.953
96555W        W60323  34.100  17.132  13.484
96556W        W60324  37.028  23.670   0.947
96557W        W60325  42.021  20.686  13.543
96558W        W60326  25.562  39.816   4.162
96559W        W60327  20.142  14.727  14.930
96560W        W60328  10.359   3.274   9.983
96561W        W60329  43.398  32.891  13.425
96562W        W60330  43.367  14.614   2.346
96563W        W60331  24.480  43.900   2.696
96564W        W60332   5.912   5.312  11.021
96565W        W60333  25.474  42.904   2.765
96566W        W60334  18.083  43.441  11.978
96567W        W60335  31.940  33.382  14.313
96568W        W60336   7.246  15.247   0.254
96569W        W60337  21.162  10.232   1.857
96570W        W60338   7.184  40.346   1.791
96571W        W60339  31.917  20.682   3.250
96572W        W60340  13.154  10.204  12.855
96573W        W60341  38.935  24.197   3.645
96574W        W60342  42.016   2.441   2.179
96575W        W60343   8.778  22.591   4.778
96576W        W60344  39.557  31.935  11.106
96577W        W60345  42.919   5.751  11.555
96578W        W60346  28.522  19.078  13.409
96579W        W60347  36.888  24.708  14.448
96580W        W60348  41.857  22.618  14.786
96581W        W60349  34.997   0.790  12.906
96582W        W60350  17.672  38.891  12.042
96583W        W60351  12.310  12.611   0.745
96584W        W60352  16.153  12.639   0.794
96585W        W60353  19.559  10.766   3.172
96586W        W60354  18.579  24.101   3.815
96587W        W60355  22.222   7.372  13.346
96588W        W60356  41.486  30.554  14.895
96589W        W60357   6.313   7.229  10.594
96590W        W60358   1.349  36.915  14.344
96591W        W60359   5.284   1.259  12.552
96592W        W60360  14.203   4.245   1.934
96593W        W60361   5.882   9.157   1.241
96594W        W60362  27.068  27.480  13.316
96595W        W60363  30.961  29.112   2.740
96596W        W60364  35.872   7.811   1.764
96597W        W60365  17.580  17.640  12.401
96598W        W60366  33.905   8.244   2.298
96599W        W60367  40.985  16.635  14.450
96600W        W60368   9.170   8.210  13.397
96601W        W60369   2.336  32.899   3.827
96602W        W60370  41.536  31.075   0.243
96603W        W60371   1.429   8.847  13.355
96604W        W60372  35.484  30.615  14.860
96605W        W60373  21.694  18.589   4.816
96606W        W60374  22.129  16.182   3.157
96607W        W60375  24.140   8.262   4.295
96608W        W60376  39.447  27.601  10.015
96609W        W60377  16.311  32.598   4.148
96610W        W60378  36.488   4.787   2.705
96611W        W60379  38.999  31.992  10.940
96612W        W60380  10.217  14.183   0.354
96613W        W60381  27.673  28.621   1.367
96614W        W60382  10.632  21.662   2.200
96615W        W60383  23.563  14.216  14.390
96616W        W60384  18.631  31.533  10.552
96617W        W60385   0.782  23.136   2.251
96618W        W60386  39.494  11.736  14.998
96619W        W60387  28.558  33.028   9.980
96620W        W60388  14.217  31.598   4.148
96621W        W60389  14.603  14.304   2.188
96622W        W60390   3.743  32.921  14.768
96623W        W60391  36.963  24.164   3.650
96624W        W60392  34.404  22.538   2.755
96625W        W60393  17.176   1.479   4.175
96626W        W60394  14.714  19.723   0.909
96627W        W60395  10.261  30.061  13.372
96628W        W60396  30.101   8.370  11.437
96629W        W60397  25.638   8.259  11.498
96630W        W60398   9.313  38.865  10.621
96631W        W60399  18.101  18.698  14.759
96632W        W60400  17.194  38.033  14.883
96633W        W60401  33.000   9.876  13.368
96634W        W60402   1.295  35.073  14.766
96635W        W60403  30.607  28.657   4.790
96636W        W60404  16.646  43.909  10.945
96637W        W60405   8.182  35.925  10.974
96638W        W60406   5.823  41.804  10.441
96639W        W60407  15.231  38.074  11.889
96640W        W60408  18.227  21.599   1.776
96641W        W60409  27.120  34.591  10.999
96642W        W60410  44.760   5.786   1.334
96643W        W60411   5.396  23.001  12.493
96644W        W60412  11.638  28.499   0.754
96645W        W60413  43.766  25.671  12.852
96646W        W60414   9.347  31.019   3.164
96647W        W60415  28.612  14.820   3.747
96648W        W60416  13.200   8.814   3.636
96649W        W60417  22.229  26.047   0.405
96650W        W60418  37.844   9.206   3.339
96651W        W60419  28.011  33.402   5.173
96652W        W60420  29.488  20.560   4.706
96653W        W60421   0.969  41.303  13.854
96654W        W60422  18.761  41.856   3.287
96655W        W60423  21.562  35.017   1.721
96656W        W60424   8.165  27.061  13.817
96657W        W60425  35.413  41.323   2.279
96658W        W60426  39.467  21.715   0.789
96659W        W60427  40.549   0.756   1.215
96660W        W60428   1.847  35.450  11.926
96661W        W60429   7.679  11.848  11.873
96662W        W60430   2.798   3.798  14.429
96663W        W60431  15.628  37.913  11.510
96664W        W60432  31.585  30.504  11.475
96665W        W60433  30.486  33.559   1.231
96666W        W60434  34.917   1.899  11.085
96667W        W60435  44.962   3.289   5.087
96668W        W60436  43.440  44.865   0.823
96669W        W60437   1.482  23.630   1.330
96670W        W60438  22.602  10.699   1.222
96671W        W60439   8.371  16.295   3.718
96672W        W60440  17.763  22.044   0.454
96673W        W60441  43.347  13.110  12.887
96674W        W60442  11.311  29.634   0.828
96675W        W60443  21.689   5.769   0.921
96676W        W60444  22.059  27.153  13.316
96677W        W60445  28.505  26.476  11.541
96678W        W60446  32.930   0.914  11.046
96679W        W60447  17.252   7.286  12.421
96680W        W60448  43.812   0.894  10.601
96681W        W60449  13.619  22.741   0.920
96682W        W60450   1.735  21.123  10.423
96683W        W60451  11.336  15.248  11.600
96684W        W60452  42.399  10.253  10.041
96685W        W60453  20.726  24.075   4.175
96686W        W60454   4.713   9.742   4.673
96687W        W60455  11.816   3.384  11.377
96688W        W60456  19.675   2.802   2.773
96689W        W60457   3.870   5.413   4.210
96690W        W60458  26.020  38.385   2.260
96691W        W60459  33.889  21.166  12.486
96692W        W60460  44.438  32.470  12.841
96693W        W60461   9.874   8.172   4.310
96694W        W60462  37.466  28.047  12.518
96695W        W60463   6.767  11.134  13.058
96696W        W60464  41.368  30.097  13.486
96697W        W60465   9.826   2.878  13.313
96698W        W60466  27.607  23.212  13.944
96699W        W60467  28.437  35.403   2.330
96700W        W60468  10.799  32.054  12.861
96701W        W60469   9.837  14.243  13.861
96702W        W60470  34.524   3.290   1.233
96703W        W60471  28.648   2.860   2.859
96704W        W60472  29.079  38.822  10.447
96705W        W60473  25.581  38.570  14.990
96706W        W60474  20.215  24.568  10.989
96707W        W60475   6.693  19.254   3.841
96708W        W60476   6.835  25.113   3.772
96709W        W60477  18.136  30.958  13.969
96710W        W60478  44.901   5.421  14.836
96711W        W60479  37.412   0.430  12.046
96712W        W60480  41.793  27.594  13.823
96713W        W60481  10.721  26.631  14.296
96714W        W60482  30.588  34.475   4.262
96715W        W60483  18.237  34.074   3.735
96716W        W60484   2.311  39.510  14.339
96717W        W60485  11.847  15.247   0.908
96718W        W60486   8.741   6.821  14.885
96719W        W60487  33.420  24.138   4.641
96720W        W60488   1.878  42.891  14.956
96721W        W60489  35.965   0.253   1.713
96722W        W60490  17.587  28.478   0.879
96723W        W60491  35.883  18.594  13.326
96724W        W60492  13.756  21.576   2.835
96725W        W60493  43.803  17.623  12.087
96726W        W60494  22.109   7.908   0.466
96727W        W60495  34.962  37.413   1.222
96728W        W60496  19.626  35.916   0.313
96729W        W60497  42.975  20.139   1.840
96730W        W60498  32.924  28.062  12.350
96731W        W60499   1.959  43.314   2.383
96732W        W60500  43.017  38.345   3.718
96733W        W60501  30.992   7.336  13.982
96734W        W60502  36.514  22.090   0.340
96735W        W60503  20.041  17.751  13.850
96736W        W60504   3.829  10.860  12.428
96737W        W60505  21.594  18.266   2.301
96738W        W60506   8.358   5.355  12.990
96739W        W60507  18.773   2.738  13.817
96740W        W60508  17.118  13.837  10.411
96741W        W60509  17.231  11.803  13.546
96742W        W60510  32.612   7.175  11.607
96743W        W60511  39.852  16.585  11.106
96744W        W60512  42.374  41.450  11.379
96745W        W60513  26.983  14.661  14.962
96746W        W60514  26.635  37.435   4.694
96747W        W60515  34.875   5.353  14.390
96748W        W60516   7.744  30.617   2.840
96749W        W60517   8.289  22.242  13.485
96750W        W60518  16.805  30.618   9.955
96751W        W60519  19.675   1.765  11.374
96752W        W60520   6.758  28.531   3.211
96753W        W60521  43.375  30.974  10.602
96754W        W60522   3.853  20.216   3.840
96755W        W60523   3.217  36.411  11.975
96756W        W60524  24.582  14.784  14.942
96757W        W60525  24.165   7.292  11.562
96758W        W60526  35.516  33.513   1.792
96759W        W60527  11.131  12.682   3.349
96760W        W60528  25.491  30.107  12.490
96761W        W60529  29.955  21.650  12.419
96762W        W60530  42.463   8.747  11.561
96763W        W60531   6.408  14.145   4.654
96764W        W60532   7.721  41.483   9.933
96765W        W60533  38.537  42.915  14.285
96766W        W60534  19.053   9.808  12.518
96767W        W60535  38.002  36.038  13.477
96768W        W60536  10.878  42.298  14.906
96769W        W60537  13.642  21.564   1.280
96770W        W60538  10.813  33.933   4.693
96771W        W60539  28.150  26.530   1.859
96772W        W60540  21.226  35.495   4.178
96773W        W60541  42.360  38.944   3.153
96774W        W60542  18.250  30.041   4.754
96775W        W60543  43.846  14.138  14.025
96776W        W60544  10.805   5.278   3.694
96777W        W60545  11.760  41.795   1.291
96778W        W60546  42.820   8.862   0.840
96779W        W60547  14.107   0.895   1.312
96780W        W60548   9.655  19.723  10.541
96781W        W60549  11.313   7.899  12.386
96782W        W60550   7.210  14.205  13.494
96783W        W60551  13.640  20.100   2.876
96784W        W60552  19.776  30.579   2.212
96785W        W60553  30.501   8.818   1.929
96786W        W60554  34.394   3.786   1.717
96787W        W60555  34.598  16.708  12.851
96788W        W60556  15.172  39.519   3.324
96789W        W60557   3.385  35.604  13.049
96790W        W60558  42.524   9.312   0.324
96791W        W60559  40.441  38.459   1.912
96792W        W60560  29.013  38.977   2.722
96793W        W60561  29.574  34.485  10.592
96794W        W60562  23.501  43.278  11.902
96795W        W60563   7.256  30.635  14.473
96796W        W60564   5.932  25.590  12.987
96797W        W60565   0.901  12.201  14.391
96798W        W60566  32.994  19.686   3.687
96799W        W60567  34.077  34.450  13.494
96800W        W60568   2.802   3.337  12.468
96801W        W60569   6.693  39.532   0.413
96802W        W60570  13.155  17.115   2.692
96803W        W60571  14.134  24.178   1.723
96804W        W60572  13.678  40.322   0.921
96805W        W60573  42.959  34.951  11.002
96806W        W60574   3.865   6.330   3.742
96807W        W60575  33.495   3.242   0.811
96808W        W60576  28.572  35.566   4.348
96809W        W60577   5.696  33.535   4.800
96810W        W60578  25.029  39.049   2.346
96811W        W60579  16.664  20.142  10.035
96812W        W60580  38.835  40.017  14.301
96813W        W60581  25.641  42.949   1.361
96814W        W60582   2.417  18.214  10.600
96815W        W60583   1.387  30.483   3.270
96816W        W60584  25.210   3.227   0.253
96817W        W60585  23.047  14.771   9.572
96818W        W60586  39.952  32.457   4.266
96819W        W60587  29.153   7.685  13.840
96820W        W60588  31.033  31.440   2.379
96821W        W60589  24.589  14.748   4.234
96822W        W60590  24.056  17.176  13.463
96823W        W60591  26.017  43.858  11.584
96824W        W60592  25.131  20.768   0.329
96825W        W60593  28.161   1.270   1.929
96826W        W60594  38.890  44.348   2.275
96827W        W60595  31.406   4.428  11.031
96828W        W60596  15.277  27.532  12.075
96829W        W60597   0.305  10.874   3.744
96830W        W60598  37.522  29.495   1.338
96831W        W60599  20.601  39.060  10.573
96832W        W60600  40.978   3.249   3.286
96833W        W60601  44.483  29.656  14.915
96834W        W60602   2.816  25.990   0.411
96835W        W60603  44.302   8.664  11.941
96836W        W60604  41.998  40.879  14.389
96837W        W60605  32.411  32.600  13.534
96838W        W60606  42.936   7.826   3.792
96839W        W60607  15.659  28.508  13.059
96840W        W60608  28.072  33.891  12.883
96841W        W60609  24.974  39.901  13.416
96842W        W60610   9.708  13.737   9.562
96843W        W60611   9.295  32.933   4.668
96844W        W60612   4.901  13.782   2.685
96845W        W60613  31.125  39.494  11.549
96846W        W60614   7.195   7.845   0.298
96847W        W60615   6.877   5.831   2.744
96848W        W60616  44.361  43.881   3.774
96849W        W60617  37.554  16.084   2.750
96850W        W60618  11.196  37.945   1.826
96851W        W60619  25.182  29.509  13.878
96852W        W60620  26.114  25.698  11.503
96853W        W60621  35.942  27.984   2.240
96854W        W60622  32.563  23.010   2.254
96855W        W60623   8.899  25.520   4.735
96856W        W60624  28.033  19.691   0.481
96857W        W60625  20.188  11.630   0.428
96858W        W60626  36.926  42.998   0.916
96859W        W60627  43.769  17.114  10.418
96860W        W60628  38.558  35.499   2.865
96861W        W60629  13.831   1.899   0.305
96862W        W60630  37.406   2.732  11.585
96863W        W60631   2.447   7.859   4.309
96864W        W60632  22.585  17.215   0.385
96865W        W60633  28.140  27.661  12.015
96866W        W60634   7.679  39.898  12.048
96867W        W60635  17.558  44.400  12.551
96868W        W60636  23.009  33.513  10.492
96869W        W60637  43.508  22.570  12.532
96870W        W60638   8.248  13.774   1.931
96871W        W60639  39.016   5.905   1.282
96872W        W60640  43.772  17.126  13.470
96873W        W60641  10.684  39.370  14.364
96874W        W60642  27.983  25.029  12.974
96875W        W60643  29.936  40.472   2.902
96876W        W60644   8.698   7.830   4.631
96877W        W60645  43.334  25.646  13.409
96878W        W60646  18.558  34.527   3.712
96879W        W60647  23.107  43.355   0.829
96880W        W60648   4.795  35.926   0.263
96881W        W60649  34.040   4.886  13.519
96882W        W60650  39.825   6.189  14.277
96883W        W60651  12.288  18.229   3.816
96884W        W60652  22.226  32.992  14.895
96885W        W60653  22.193  11.814   3.288
96886W        W60654  41.853  29.426  14.932
96887W        W60655  41.986  17.556   1.283
96888W        W60656  30.022  18.571   1.238
96889W        W60657   8.738  24.156   3.195
96890W        W60658  20.110  21.081  13.428
96891W        W60659  35.039  25.119  12.846
96892W        W60660  40.038  14.656  13.416
96893W        W60661  42.927  19.701  14.985
96894W        W60662  27.010  21.181   4.328
96895W        W60663  15.100  37.506   1.930
96896W        W60664  39.460  21.140   1.254
96897W        W60665  22.229  41.856  12.946
96898W        W60666  13.260   1.764   1.881
96899W        W60667  18.251  25.640   3.844
96900W        W60668  14.171  37.877   0.420
96901W        W60669  15.121  39.025   1.397
96902W        W60670   9.279  27.987   1.419
96903W        W60671   7.709  37.336   1.420
96904W        W60672  23.676  13.622  10.641
96905W        W60673  19.076  18.151  14.005
96906W        W60674  40.958   5.915   0.727
96907W        W60675   0.746  11.136  11.976
96908W        W60676  12.631  38.893  10.561
96909W        W60677  36.045   5.402  13.431
96910W        W60678  27.091  38.334   1.788
96911W        W60679  43.511  24.116   0.795
96912W        W60680  13.840  20.606  13.521
96913W        W60681  17.267  28.632   2.355
96914W        W60682  29.104  14.299   2.867
96915W        W60683  13.278   1.743  12.083
96916W        W60684  14.711   4.769   2.780
96917W        W60685  32.058  12.192  14.947
96918W        W60686   9.766   0.940   3.210
96919W        W60687  32.473  31.981   2.300
96920W        W60688  14.671  41.366  12.400
96921W        W60689   0.469  43.772  13.000
96922W        W60690  16.679   4.809  13.388
96923W        W60691  14.159  28.156  10.616
96924W        W60692  13.819   7.774  11.539
96925W        W60693  30.147  32.536   1.375
96926W        W60694  25.973  21.591   2.255
96927W        W60695   6.910   2.784   1.251
96928W        W60696  17.112   9.695  12.033
96929W        W60697   2.954  18.134  14.467
96930W        W60698  21.178  13.662  12.861
96931W        W60699  40.045  27.670  11.566
96932W        W60700  39.912  23.071   0.862
96933W        W60701  23.651  12.191   2.867
96934W        W60702  35.032  13.197  12.559
96935W        W60703   3.456  41.800  13.385
96936W        W60704  32.987  41.441   3.671
96937W        W60705   0.448  25.577  13.949
96938W        W60706  41.028  40.817  14.979
96939W        W60707  33.008  15.673  14.465
96940W        W60708  15.642   3.709   1.381
96941W        W60709  31.897   4.852   0.315
96942W        W60710   1.309  20.673   3.712
96943W        W60711   9.765  22.042   4.650
96944W        W60712  40.419  27.468  14.490
96945W        W60713  28.984   9.169  11.551
96946W        W60714   3.866  30.589   3.317
96947W        W60715   6.237  31.930   3.704
96948W        W60716  23.645  40.325   0.849
96949W        W60717  32.620  15.770   3.364
96950W        W60718   0.379  19.224  13.004
96951W        W60719  35.052  31.536  14.304
96952W        W60720  31.044   1.973   4.762
96953W        W60721  41.961  30.134  11.065
96954W        W60722  10.355  32.526  11.947
96955W        W60723  16.609  12.299   0.785
96956W        W60724   5.722  11.204  13.971
96957W        W60725  39.537  42.357  10.560
96958W        W60726  14.599  44.371   3.744
96959W        W60727  41.302  12.179   1.347
96960W        W60728  41.995  41.533  14.835
96961W        W60729   2.770  10.678  11.894
96962W        W60730   9.256   6.322  11.062
96963W        W60731  38.023  32.060  11.888
96964W        W60732   1.456  44.857   2.307
96965W        W60733   9.354   0.377  14.954
96966W        W60734  28.993   6.859  12.432
96967W        W60735  10.749  43.314   2.206
96968W        W60736  18.598   0.371  10.984
96969W        W60737  43.958  32.958  10.431
96970W        W60738  26.141  32.058   5.717
96971W        W60739  14.191  34.453   2.705
96972W        W60740   1.239   7.318   1.722
96973W        W60741  11.285   3.461   2.284
96974W        W60742  24.095  36.537  10.975
96975W        W60743   8.828  13.131  11.969
96976W        W60744  23.092  26.040  10.601
96977W        W60745  38.883  39.026   1.922
96978W        W60746  43.846   0.385   1.788
96979W        W60747  21.101  36.577   4.837
96980W        W60748  19.169  16.793   5.119
96981W        W60749  35.861  24.074  13.828
96982W        W60750  19.576  38.436   0.933
96983W        W60751  19.175  24.063   3.188
96984W        W60752  14.593   2.889   2.226
96985W        W60753  11.148  19.269   3.824
96986W        W60754  21.563  16.785   2.830
96987W        W60755  20.553  39.922   4.746
96988W        W60756  43.334   7.816   0.965
96989W        W60757  23.215   8.836   0.924
96990W        W60758  11.811   9.205   1.221
96991W        W60759   0.770  28.087  11.463
96992W        W60760   0.432  29.427  14.300
96993W        W60761  13.786   1.788  14.506
96994W        W60762  17.736   1.268  12.849
96995W        W60763   3.812  44.781   4.760
96996W        W60764  11.172  22.587  11.435
96997W        W60765  12.133   1.819   0.455
96998W        W60766   9.715  43.813   4.696
96999W        W60767  21.635  39.518   1.223
97000W        W60768   7.839  25.493  14.982
97001W        W60769  38.335   1.970   3.203
97002W        W60770  19.674  11.326   0.856
97003W        W60771  13.831  33.418  12.420
97004W        W60772   0.866  29.975  12.522
97005W        W60773  29.650  17.069  12.542
97006W        W60774  36.346  21.198  10.421
97007W        W60775  32.136  37.034  11.047
97008W        W60776   0.404  17.636  13.018
97009W        W60777  42.993   5.393   4.764
97010W        W60778  40.942   6.408   0.846
97011W        W60779  44.780   7.766   1.450
97012W        W60780  43.782  30.113   1.737
97013W        W60781  17.560  37.438   1.358
97014W        W60782  17.616  34.050  14.970
97015W        W60783  18.589  29.098   1.907
97016W        W60784  24.676  19.057   4.346
97017W        W60785   8.187   4.797  14.928
97018W        W60786  17.270   4.708  13.810
97019W        W60787  18.642  25.963   0.351
97020W        W60788  41.860  23.223  12.460
97021W        W60789  32.529  20.082  12.925
97022W        W60790  29.569  25.970  12.074
97023W        W60791  15.188  20.167   3.179
97024W        W60792  34.050  21.201   0.351
97025W        W60793   5.835  43.340  14.276
97026W        W60794  44.989  29.050   2.201
97027W        W60795  33.017  22.084   1.307
97028W        W60796  42.340  10.332  14.012
97029W        W60797  35.053  18.692   0.395
97030W        W60798  43.451   5.332  14.939
97031W        W60799   9.728  13.245   2.239
97032W        W60800   6.191  25.968  11.976
97033W        W60801   1.802  28.001   4.338
97034W        W60802   2.896  16.164   3.223
97035W        W60803  41.882  37.972   4.801
97036W        W60804  39.387  21.526   1.355
97037W        W60805  38.426  34.959  14.927
97038W        W60806   3.815  22.715   2.803
97039W        W60807   0.250  14.271  11.936
97040W        W60808  21.721  31.046   1.801
97041W        W60809   8.237  23.076   3.301
97042W        W60810  34.505  20.683   3.386
97043W        W60811  27.127  15.714  13.919
97044W        W60812  36.073  39.456  12.055
97045W        W60813  42.843   8.255  11.495
97046W        W60814  27.994   2.871  11.977
97047W        W60815   8.859  31.950  11.988
97048W        W60816   4.811   3.849   1.899
97049W        W60817  12.662   9.806   1.794
97050W        W60818   5.931   8.253   0.914
97051W        W60819  23.619  43.334  10.476
97052W        W60820  21.695  13.206  14.450
97053W        W60821  18.664   8.829  14.506
97054W        W60822  29.969   9.768   2.309
97055W        W60823  17.608  14.665   3.804
97056W        W60824  19.062  44.934  11.946
97057W        W60825   9.739  15.214   3.683
97058W        W60826  35.868  31.591  14.374
97059W        W60827  42.784   5.380   4.148
97060W        W60828   0.373  22.159   2.343
97061W        W60829  38.905   4.705  10.460
97062W        W60830  19.215  20.566   3.161
97063W        W60831  24.077  10.183  13.979
97064W        W60832  13.196  21.133  12.973
97065W        W60833   7.311  26.071   1.775
97066W        W60834  41.882   4.766   0.392
97067W        W60835  34.112  21.677  10.576
97068W        W60836  10.683   1.440   1.424
97069W        W60837  23.228  32.009   2.816
97070W        W60838  21.605  20.666  10.644
97071W        W60839   1.251  17.580  10.570
97072W        W60840   9.826   8.850  14.301
97073W        W60841   7.221  18.149   2.189
97074W        W60842  28.121  19.133   0.272
97075W        W60843  43.343   4.443   4.745
97076W        W60844  40.838  43.909  13.825
97077W        W60845  41.476  41.805  11.441
97078W        W60846  12.288  25.530  11.599
97079W        W60847  26.160  33.390  11.608
97080W        W60848  13.244  32.429   0.901
97081W        W60849   4.703  32.460   1.436
97082W        W60850   1.861   6.717   3.166
97083W        W60851  37.964  41.925   4.342
97084W        W60852  35.460  27.066  14.317
97085W        W60853  34.018   6.393   1.865
97086W        W60854   7.744   1.755   5.163
97087W        W60855  43.310  11.862  12.873
97088W        W60856  40.396  29.984  14.450
97089W        W60857   9.159  26.548  14.868
97090W        W60858  29.658  43.978  13.440
97091W        W60859  39.376  28.567   5.174
97092W        W60860   9.657   3.850   1.291
97093W        W60861  12.752   5.420   1.409
97094W        W60862   8.350  33.535  14.291
97095W        W60863  17.207  25.582  12.407
97096W        W60864   0.360   3.789  13.812
97097W        W60865   3.882  36.860   0.374
97098W        W60866  29.049  24.004  12.454
97099W        W60867   4.789  15.174   0.805
97100W        W60868  29.158  24.725   4.738
97101W        W60869  43.453  41.379  11.941
97102W        W60870  24.037  22.547   2.338
97103W        W60871  16.123  25.668  11.097
97104W        W60872  12.618  29.013   0.734
97105W        W60873  31.480  11.802   0.810
97106W        W60874  43.796  34.088  11.033
97107W        W60875   3.236  13.244  12.912
97108W        W60876   1.865   8.770  12.995
97109W        W60877  36.072  37.046   0.959
97110W        W60878  28.161  40.877   0.797
97111W        W60879  11.786  38.912   4.709
97112W        W60880   8.757  30.598   5.197
97113W        W60881  11.287  39.946  11.379
97114W        W60882  33.432  13.275  10.562
97115W        W60883  28.485  14.149  10.637
97116W        W60884   1.276   0.493  14.883
97117W        W60885   1.930  18.602   0.823
97118W        W60886   2.310   8.748   5.136
97119W        W60887   0.372  33.955   4.238
97120W        W60888   0.864  33.943  10.898
97121W        W60889  42.516   4.810   3.695
97122W        W60890  43.288  40.427  11.490
97123W        W60891   0.759  24.563  13.350
97124W        W60892  20.235  15.816   3.651
97125W        W60893  17.601   0.432   3.317
97126W        W60894  23.190  30.035  11.536
97127W        W60895  36.511  21.165   0.415
97128W        W60896   0.436   3.889   1.789
97129W        W60897  41.370  32.973   0.928
97130W        W60898  18.068  14.806   4.680
97131W        W60899  23.203  13.165  13.353
97132W        W60900  19.737  36.409   3.264
97133W        W60901  25.056   9.711  11.900
97134W        W60902   8.235  32.886   1.721
97135W        W60903  42.299   4.348  10.450
97136W        W60904  21.076  40.832  13.948
97137W        W60905   9.246   4.769  13.319
97138W        W60906  21.554   9.269  12.567
97139W        W60907   3.812   1.243   0.353
97140W        W60908  21.738  16.617  14.334
97141W        W60909  21.672  23.539  10.435
97142W        W60910  41.886  23.514   4.810
97143W        W60911  12.229  27.633   1.324
97144W        W60912  32.939   0.419   1.284
97145W        W60913  10.794   4.281   1.363
97146W        W60914   4.716  18.177   4.226
97147W        W60915   6.876  29.486   1.717
97148W        W60916  25.656  28.935  11.093
97149W        W60917  33.877   4.822  10.910
97150W        W60918   8.830   2.841   2.762
97151W        W60919  32.561  17.738   0.396
97152W        W60920  43.989  42.525   4.336
97153W        W60921  33.543  29.990   0.397
97154W        W60922  28.093  18.188  10.137
97155W        W60923  43.778  41.357   0.342
97156W        W60924  19.155  30.554   2.235
97157W        W60925  12.118  25.988   0.854
97158W        W60926  32.982  20.745   4.726
97159W        W60927  38.819   0.760  11.074
97160W        W60928   5.762  37.459   1.915
97161W        W60929   8.758   8.670   4.290
97162W        W60930  24.690  40.373  11.897
97163W        W60931  34.004  22.180   2.303
97164W        W60932  14.104  26.494   4.769
97165W        W60933  34.407  20.109  11.440
97166W        W60934  26.623  43.366   0.870
97167W        W60935  35.460  26.154  13.341
97168W        W60936  43.860  38.535   4.252
97169W        W60937   0.805  15.614  11.542
97170W        W60938  13.728   9.244  11.918
97171W        W60939   7.373  17.794  10.478
97172W        W60940  20.644  22.035   1.447
97173W        W60941  29.074  35.083   4.196
97174W        W60942  16.776  28.665   0.826
97175W        W60943  39.005  12.825  13.063
97176W        W60944  21.733  44.816  14.817
97177W        W60945   2.335  29.587  14.492
97178W        W60946  43.879  24.029   4.138
97179W        W60947  33.001  26.200   2.186
97180W        W60948  23.686  10.211   3.187
97181W        W60949   6.193  23.086  13.836
97182W        W60950  13.161  18.585   1.887
97183W        W60951  16.252   4.434  11.003
97184W        W60952  29.571   0.431  13.458
97185W        W60953  33.956  23.133  12.371
97186W        W60954   3.808   6.269   1.728
97187W        W60955  42.288  44.918   0.442
97188W        W60956  28.053   1.868   2.243
97189W        W60957  19.086   6.734  14.283
97190W        W60958  14.760   2.369   1.358
97191W        W60959  27.078   0.301  14.455
97192W        W60960  24.182  26.656   0.910
97193W        W60961   6.260  28.613   3.239
97194W        W60962  13.236   8.756   4.761
97195W        W60963  34.058  36.489  10.441
97196W        W60964  22.175   1.313  12.569
97197W        W60965   0.486   4.364   3.230
97198W        W60966  21.165  17.187   1.869
97199W        W60967  15.712  28.044   1.719
97200W        W60968   5.818   5.897  12.978
97201W        W60969  34.498   9.810  10.624
97202W        W60970  19.271  14.183   3.271
97203W        W60971  35.882  18.719  12.578
97204W        W60972  17.107   2.267  13.016
97205W        W60973  12.352  44.884   1.440
97206W        W60974  15.693   0.374   0.405
97207W        W60975  36.021  27.652   0.307
97208W        W60976  10.858   7.887   0.946
97209W        W60977  14.292   1.819  12.935
97210W        W60978  32.561  12.819   1.405
97211W        W60979  17.592  10.245   2.855
97212W        W60980  17.662  24.003  11.029
97213W        W60981  43.272  23.630  14.845
97214W        W60982   9.156   3.442  13.803
97215W        W60983  11.223  16.582  10.964
97216W        W60984  31.975  15.650  12.977
97217W        W60985   6.405  30.446  11.015
97218W        W60986  37.414   2.354   0.951
97219W        W60987  40.942  27.502   3.699
97220W        W60988   0.773  30.147   4.635
97221W        W60989  26.649  25.040   4.192
97222W        W60990   5.864  35.990  14.776
97223W        W60991  23.120   5.352   0.355
97224W        W60992  33.966  35.486  14.475
97225W        W60993  34.988  12.168   2.309
97226W        W60994  41.790  15.637   3.810
97227W        W60995  27.447  25.141   3.846
97228W        W60996  33.023  30.631   0.881
97229W        W60997  11.282  37.481   0.807
97230W        W60998  39.064  28.995  12.514
97231W        W60999  44.824  31.506   3.852
97232W        W61000  18.174   9.838   4.200
97233W        W61001  25.000   0.870  12.529
97234W        W61002  24.018  15.143  14.454
97235W        W61003  28.471  37.511  10.538
97236W        W61004   6.812  43.785  10.480
97237W        W61005   2.839  38.367  10.515
97238W        W61006  25.090  22.010   1.914
97239W        W61007   8.297   8.228  13.993
97240W        W61008  16.721  31.979   0.834
97241W        W61009  33.579  28.107  14.379
97242W        W61010  37.047   3.943   0.961
97243W        W61011  26.487  29.479  12.858
97244W        W61012  32.903  13.260  10.890
97245W        W61013  13.750  41.846  11.434
97246W        W61014  27.144  12.159   3.373
97247W        W61015   1.851  41.333  14.490
97248W        W61016  15.084  18.208  12.906
97249W        W61017  18.622  23.105   3.715
97250W        W61018  17.559   6.262   2.889
97251W        W61019  39.505  10.802   0.808
97252W        W61020  28.053  17.270   3.271
97253W        W61021  24.087   1.770   3.816
97254W        W61022  31.636  10.151  10.412
97255W        W61023  25.137  41.319  11.979
97256W        W61024  32.618   5.251  11.606
97257W        W61025   1.787  33.507  12.360
97258W        W61026  15.611  24.119  13.425
97259W        W61027  39.825  35.403   2.255
97260W        W61028  29.927  20.234  14.013
97261W        W61029  25.522  10.652  11.469
97262W        W61030  20.259  23.197  13.313
97263W        W61031  35.856   5.397   0.817
97264W        W61032  11.774  25.147   2.875
97265W        W61033  23.634  20.722   1.276
97266W        W61034  11.744  39.331  13.044
97267W        W61035  10.653   0.815  12.419
97268W        W61036  31.016  37.058   1.785
97269W        W61037  36.064  23.632   0.860
97270W        W61038  10.232   9.759  14.917
97271W        W61039   6.355  42.353   3.733
97272W        W61040  25.094  30.121   3.775
97273W        W61041  24.493   2.344  10.437
97274W        W61042   0.404   6.870   0.336
97275W        W61043  41.518  23.128   3.641
97276W        W61044  39.866  23.644   4.801
97277W        W61045  34.398   8.767   3.314
97278W        W61046  29.450   6.766   2.226
97279W        W61047  11.693  37.073   3.831
97280W        W61048  39.981   0.475  14.850
97281W        W61049   9.770  21.249  13.460
97282W        W61050  38.448  13.608   3.822
97283W        W61051  32.113  36.562   2.311
97284W        W61052  28.015  33.026  12.909
97285W        W61053  33.877   9.773  12.905
97286W        W61054  38.975  12.309   2.195
97287W        W61055  42.459  10.167  10.595
97288W        W61056  29.921   8.713   3.314
97289W        W61057  37.079  36.430  13.423
97290W        W61058  22.207  12.219   9.525
97291W        W61059  24.578   3.859  13.046
97292W        W61060  18.621  11.800  11.874
97293W        W61061  34.514  21.694  11.986
97294W        W61062  25.125  31.077   1.348
97295W        W61063  31.146  40.974  10.991
97296W        W61064  37.367  15.633   3.321
97297W        W61065  14.148  24.070   3.348
97298W        W61066  10.361  39.364  10.537
97299W        W61067  32.926  19.658   3.248
97300W        W61068  29.088   2.882   1.825
97301W        W61069  28.089  25.044   5.269
97302W        W61070  39.443  25.610   0.894
97303W        W61071  13.626  13.633   0.731
97304W        W61072  43.362  32.885   3.160
97305W        W61073  16.752  21.210   5.236
97306W        W61074   7.876   8.883  13.538
97307W        W61075   1.794   7.202  13.322
97308W        W61076  16.168  10.659   1.868
97309W        W61077  38.852  36.360   4.182
97310W        W61078  38.507  13.122   3.685
97311W        W61079  41.474  16.129   1.769
97312W        W61080   1.893  14.622   1.721
97313W        W61081  30.964  16.228   4.292
97314W        W61082  10.657  21.610   2.704
97315W        W61083  20.166  20.695   0.416
97316W        W61084  40.429   8.366   0.351
97317W        W61085   9.233  18.603   4.655
97318W        W61086  12.297  33.108  11.375
97319W        W61087  24.701   6.308   2.347
97320W        W61088  40.032  43.470  14.843
97321W        W61089  37.847  19.076   1.235
97322W        W61090  10.299   4.355  10.548
97323W        W61091  15.806  21.129   4.235
97324W        W61092  18.751  37.070   0.473
97325W        W61093   2.889  19.046   0.897
97326W        W61094   8.783  12.779   2.329
97327W        W61095  19.664  24.108  11.128
97328W        W61096  39.029  44.430   3.855
97329W        W61097   6.270  23.031  14.865
97330W        W61098  37.942  19.267  14.331
97331W        W61099  43.323  43.814   2.208
97332W        W61100  42.893  23.559  13.902
97333W        W61101  42.452   1.378   3.299
97334W        W61102   3.258  39.431   0.901
97335W        W61103  40.437   1.954   4.819
97336W        W61104   4.289  16.696  12.565
97337W        W61105  40.368  20.119  11.583
97338W        W61106  33.068   6.294   1.446
97339W        W61107   0.970  13.720   1.707
97340W        W61108  12.164  18.561  14.938
97341W        W61109  38.411  21.673   2.259
97342W        W61110  19.110   3.226  11.578
97343W        W61111  21.193   3.284   4.196
97344W        W61112  12.328  35.853   0.429
97345W        W61113  41.396  27.196   0.938
97346W        W61114   7.408   0.790   2.800
97347W        W61115  18.767   6.352  11.918
97348W        W61116  37.035  38.460   4.164
97349W        W61117  35.051  44.794  11.857
97350W        W61118  32.947  13.665  13.799
97351W        W61119  24.197  27.092  11.128
97352W        W61120  22.628  27.562  14.830
97353W        W61121   6.382   6.851  10.556
97354W        W61122  44.265  18.621   5.274
97355W        W61123  23.630  17.658  12.002
97356W        W61124  30.497  10.366   0.438
97357W        W61125   0.742  22.076  13.035
97358W        W61126  30.160  12.358   2.673
97359W        W61127  20.696  39.359   1.815
97360W        W61128  11.314  31.981  14.961
97361W        W61129  40.407  41.322  11.957
97362W        W61130   0.308  25.089   2.888
97363W        W61131  15.108   1.483   0.249
97364W        W61132   1.472  30.148   1.769
97365W        W61133  13.802   4.245   3.638
97366W        W61134   1.889  30.123  12.049
97367W        W61135  22.213   9.221   0.827
97368W        W61136  30.095  31.446  11.894
97369W        W61137  33.474   1.357  12.401
97370W        W61138  20.214   0.372  14.481
97371W        W61139  37.874  22.030   0.246
97372W        W61140  22.730   7.819   4.330
97373W        W61141   9.228   5.793   0.849
97374W        W61142   4.314  34.550   5.216
97375W        W61143  20.708   5.410  13.506
97376W        W61144  42.417  40.344  11.449
97377W        W61145  35.992  33.103  13.343
97378W        W61146  43.378  14.296   4.320
97379W        W61147  10.655   2.415   3.828
97380W        W61148   9.296  29.996  10.500
97381W        W61149  33.476  22.665   3.712
97382W        W61150  32.032  16.721  11.076
97383W        W61151  32.474  11.195  13.853
97384W        W61152  12.118  36.493   0.916
97385W        W61153  33.552  29.542   3.303
97386W        W61154  10.301  19.586   4.349
97387W        W61155  35.901  22.192   3.735
97388W        W61156   4.841  38.478  11.998
97389W        W61157  28.512  37.564   4.286
97390W        W61158   2.302   5.773  11.565
97391W        W61159  27.018  31.605  12.561
97392W        W61160  32.409  30.515   3.868
97393W        W61161  32.437  28.101  11.922
97394W        W61162  36.041  34.533   0.855
97395W        W61163  32.112   6.817   3.631
97396W        W61164   6.842  24.188  14.416
97397W        W61165   3.273  40.339   3.676
97398W        W61166  18.050  14.606  11.875
97399W        W61167  15.157  36.079   1.215
97400W        W61168  35.382  20.674   2.401
97401W        W61169  11.347  39.031   2.246
97402W        W61170  28.118  10.357  14.339
97403W        W61171  19.138  16.644  14.334
97404W        W61172  23.116  15.757  10.636
97405W        W61173  31.973  15.279   0.840
97406W        W61174  33.388   1.815  10.500
97407W        W61175  39.809  40.485  14.500
97408W        W61176  12.727  17.634  11.495
97409W        W61177  21.649  42.798   2.809
97410W        W61178  39.041  21.246   1.824
97411W        W61179   1.287  11.671   3.320
97412W        W61180  23.042  35.457  13.405
97413W        W61181  10.215   0.406  12.853
97414W        W61182   6.785  31.563  10.614
97415W        W61183  20.052   5.699   0.916
97416W        W61184  25.038   9.833  13.467
97417W        W61185  35.481  42.296  12.485
97418W        W61186  26.161  28.044   1.760
97419W        W61187  42.346  17.689   3.810
97420W        W61188  33.038  26.623   0.360
97421W        W61189  18.263  44.351   2.704
97422W        W61190  33.510  20.203  12.419
97423W        W61191   8.857  27.046  14.461
97424W        W61192  12.690  16.164  13.362
97425W        W61193  17.608   2.788   1.375
97426W        W61194   3.777   7.849   2.842
97427W        W61195  30.583  24.227  11.940
97428W        W61196  10.336  14.622  13.888
97429W        W61197  35.552   1.906  14.436
97430W        W61198  19.560  41.497   1.332
97431W        W61199  40.810  27.024   4.701
97432W        W61200  42.951  29.560   3.256
97433W        W61201   1.346  12.190  14.903
97434W        W61202  10.760   5.842   1.746
97435W        W61203  14.328   2.414   4.686
97436W        W61204  20.572  37.464   1.897
97437W        W61205  20.558  27.632   0.771
97438W        W61206  41.417  27.065  14.335
97439W        W61207  23.026  28.449  11.595
97440W        W61208  23.132   8.871   3.837
97441W        W61209  37.509  29.077   2.696
97442W        W61210  42.961  36.963   1.728
97443W        W61211   3.441  29.110  11.055
97444W        W61212  17.705  30.059   9.544
97445W        W61213   7.900  38.441   3.204
97446W        W61214  31.440  11.141   4.659
97447W        W61215  27.065  15.596  13.531
97448W        W61216   3.737  25.047   1.724
97449W        W61217  38.379  44.872   1.337
97450W        W61218  41.470  41.888   4.135
97451W        W61219  19.085  17.275  13.812
97452W        W61220  17.626  37.381   0.345
97453W        W61221  29.530  14.129   2.281
97454W        W61222   1.458  26.676   4.331
97455W        W61223   1.929   0.482   3.744
97456W        W61224  36.045  20.678  12.427
97457W        W61225   2.240  23.566  11.491
97458W        W61226  38.439  32.963  10.130
97459W        W61227  13.619  41.351  11.020
97460W        W61228   4.375  42.304   2.292
97461W        W61229  14.779   5.378   2.888
97462W        W61230  37.464  28.991   2.338
97463W        W61231  27.490  15.313   2.182
97464W        W61232   2.284  35.012  12.837
97465W        W61233  11.312  38.530  11.886
97466W        W61234   9.375   6.810   2.386
97467W        W61235  15.814  14.213   0.771
97468W        W61236  16.788  10.661   1.421
97469W        W61237   3.764  11.373   0.470
97470W        W61238  22.632   8.710  12.411
97471W        W61239  42.447  32.556   0.353
97472W        W61240  37.057   1.751   0.280
97473W        W61241  42.980  15.784  10.923
97474W        W61242   7.842   1.283   0.342
97475W        W61243   1.887  39.427  14.020
97476W        W61244  18.227  12.777   0.286
97477W        W61245  22.731  10.218  14.397
97478W        W61246   7.411  31.908   0.799
97479W        W61247   8.365  37.062  14.855
97480W        W61248  39.329  12.729   2.739
97481W        W61249  11.783  25.635   0.371
97482W        W61250  34.873   3.900  11.600
97483W        W61251  34.117  29.430  11.126
97484W        W61252   9.268  12.207   1.759
97485W        W61253  23.192  34.404  11.876
97486W        W61254  34.018  31.131  11.957
97487W        W61255  38.541  21.044  10.935
97488W        W61256   0.361  30.156  12.542
97489W        W61257  23.643  28.471  10.454
97490W        W61258  38.334  16.730  11.876
97491W        W61259  26.585  13.109  13.479
97492W        W61260  26.580  40.322   4.648
97493W        W61261   5.716  22.033  11.877
97494W        W61262   4.381  32.113   4.701
97495W        W61263  10.361  28.135  12.393
97496W        W61264  41.336   6.368  14.781
97497W        W61265  44.773  17.306  14.955
97498W        W61266  20.177  11.158  13.309
97499W        W61267  38.396   2.334  10.998
97500W        W61268  41.788  12.318   4.192
97501W        W61269  13.828   6.412   2.182
97502W        W61270   4.229  16.693  14.831
97503W        W61271  39.335  11.865  12.898
97504W        W61272  28.633  27.544  13.378
97505W        W61273  40.810  33.585  13.456
97506W        W61274  16.144  17.083  14.384
97507W        W61275   5.193  24.161   4.656
97508W        W61276   4.943   5.225   1.219
97509W        W61277  10.739   7.781   3.721
97510W        W61278  24.645  34.449   3.823
97511W        W61279  17.627  31.623   5.147
97512W        W61280  12.217  22.691   1.876
97513W        W61281  15.651  25.052   9.951
97514W        W61282  30.040  33.383  14.451
97515W        W61283  24.026  37.574  13.325
97516W        W61284  28.624  34.418  10.137
97517W        W61285  39.451  10.644  11.883
97518W        W61286  32.041  10.185  11.993
97519W        W61287   0.316  34.470  13.331
97520W        W61288  40.521  22.081   2.340
97521W        W61289  13.599  15.632  10.462
97522W        W61290  16.079  38.006   4.816
97523W        W61291  19.535  27.079  13.465
97524W        W61292  21.044   5.933   3.838
97525W        W61293   2.286   2.883   1.779
97526W        W61294  32.491   1.755  13.797
97527W        W61295  36.948   7.210   2.294
97528W        W61296  20.553  28.950   4.794
97529W        W61297  10.224  34.581  10.608
97530W        W61298  17.580  32.560   0.791
97531W        W61299  11.774  28.636   4.330
97532W        W61300  12.254  35.438   2.383
97533W        W61301   8.811  33.110   0.427
97534W        W61302  21.722   3.844   4.652
97535W        W61303  18.685  41.392   9.966
97536W        W61304  23.195  31.921  13.972
97537W        W61305  12.625  16.571  13.536
97538W        W61306  35.972   3.843  10.598
97539W        W61307  17.184  30.145  13.966
97540W        W61308  30.444  25.618  11.039
97541W        W61309  30.000  39.529   4.217
97542W        W61310   0.407  37.543   4.606
97543W        W61311  10.145   5.858   4.818
97544W        W61312  40.907  25.470   4.762
97545W        W61313  11.647  20.263  12.937
97546W        W61314  16.810  33.441   9.634
97547W        W61315   4.819  38.899   0.865
97548W        W61316   2.373   2.231   1.831
97549W        W61317  11.260  43.839  13.485
97550W        W61318   8.314  22.095   4.742
97551W        W61319  22.658  30.635   3.204
97552W        W61320  28.108   9.284   1.890
97553W        W61321  18.269  35.956  11.103
97554W        W61322  43.881  42.372   2.687
97555W        W61323  40.852  26.555   0.928
97556W        W61324  21.181  41.301   1.225
97557W        W61325   8.329  16.173  14.427
97558W        W61326  34.505  32.527   3.160
97559W        W61327  22.201  35.963   2.356
97560W        W61328  35.522  33.057  11.503
97561W        W61329  21.049  34.972   5.239
97562W        W61330  19.109  35.502  10.560
97563W        W61331  23.097  17.108   3.679
97564W        W61332   8.785  40.905   1.210
97565W        W61333  33.050   5.886   4.654
97566W        W61334  15.617  13.292   5.172
97567W        W61335  34.872   5.814   4.131
97568W        W61336  42.846  15.118  14.005
97569W        W61337  13.215   8.390   0.262
97570W        W61338   7.800  15.642   4.736
97571W        W61339  30.092   3.284   4.169
97572W        W61340  39.875   0.305   4.151
97573W        W61341   6.394  38.385  10.488
97574W        W61342   5.307   9.867   1.374
97575W        W61343  23.211  33.427  12.050
97576W        W61344  27.528   1.441   3.383
97577W        W61345   9.802  43.393   0.294
97578W        W61346   8.779  37.490  13.310
97579W        W61347  25.489  39.546   1.796
97580W        W61348  35.386  44.463  12.015
97581W        W61349  32.025  33.051   3.357
97582W        W61350  30.090  24.089  13.060
97583W        W61351  28.929  43.379  11.108
97584W        W61352  20.756  10.331   3.385
97585W        W61353  23.020  44.460   0.844
97586W        W61354   5.401  34.093  13.509
97587W        W61355  15.750  34.102   4.808
97588W        W61356  15.291  35.992   4.728
97589W        W61357  14.821  35.941  11.881
97590W        W61358  34.492  21.049   3.710
97591W        W61359  32.089  38.562  11.466
97592W        W61360  42.912  44.754  12.344
97593W        W61361   6.769  31.130   0.907
97594W        W61362  24.984  11.755   1.698
97595W        W61363  33.905  29.105   1.906
97596W        W61364   6.777  13.301   0.392
97597W        W61365   0.251  12.678  12.042
97598W        W61366  25.578   5.717  12.560
97599W        W61367  18.269  29.062   3.302
97600W        W61368  12.749  39.428   2.309
97601W        W61369  25.064  43.370   3.265
97602W        W61370  29.658  26.173   3.843
97603W        W61371   8.374  31.930  14.997
97604W        W61372  23.146  28.023   4.617
97605W        W61373  31.909  21.165  14.763
97606W        W61374  32.122  28.481   2.189
97607W        W61375  30.600  36.373  13.410
97608W        W61376  19.695  33.888   0.440
97609W        W61377  32.953  37.530  14.429
97610W        W61378  36.550  38.428   2.711
97611W        W61379  12.839   5.229  11.529
97612W        W61380   5.762  37.063   3.186
97613W        W61381  43.339   8.752   1.429
97614W        W61382  16.185  38.379  12.354
97615W        W61383  41.036   9.161   0.908
97616W        W61384  10.827   3.756   3.196
97617W        W61385  37.843   3.910  12.967
97618W        W61386   1.789  36.506   3.841
97619W        W61387  39.407   3.222   4.668
97620W        W61388  42.030  35.423  13.336
97621W        W61389  31.982  24.655  11.031
97622W        W61390  15.611  34.943   2.257
97623W        W61391   2.814  18.216   1.815
97624W        W61392  32.470  22.182   1.881
97625W        W61393  26.099  44.304   1.931
97626W        W61394  24.982  44.906   2.384
97627W        W61395  29.548  16.610  10.440
97628W        W61396   2.363  11.651  14.417
97629W        W61397  30.970   1.748  12.036
97630W        W61398  20.135  23.594   1.405
97631W        W61399  40.440  26.629   3.683
97632W        W61400  15.260  12.625  12.859
97633W        W61401  29.577  32.038  10.602
97634W        W61402  42.917  18.559  12.407
97635W        W61403  30.415  34.951  10.498
97636W        W61404  41.900  17.746  13.387
97637W        W61405  34.025  28.467  10.637
97638W        W61406  43.817  12.336   0.464
97639W        W61407   9.383  11.180  10.938
97640W        W61408  29.935  36.060   0.965
97641W        W61409   9.297   7.738  14.316
97642W        W61410   6.792  36.568   1.418
97643W        W61411  41.933  17.068   0.955
97644W        W61412   9.736   4.271   1.434
97645W        W61413  29.616  13.258  11.037
97646W        W61414  20.546  37.015  14.467
97647W        W61415  29.498  30.427  11.002
97648W        W61416  32.543  16.260   3.361
97649W        W61417   4.217   5.216  14.392
97650W        W61418  36.999  26.172   4.148
97651W        W61419  33.963  18.737  13.990
97652W        W61420  39.950  14.597  12.056
97653W        W61421  38.564   7.319   3.291
97654W        W61422  14.590  30.519   2.190
97655W        W61423  33.886  21.250   2.728
97656W        W61424  33.968   5.764   1.431
97657W        W61425  43.968  28.626   1.444
97658W        W61426  11.182  26.007   4.309
97659W        W61427  31.438  43.364   0.833
97660W        W61428  19.635   3.443  13.058
97661W        W61429   2.431  35.414  13.025
97662W        W61430  15.589  13.707   4.247
97663W        W61431   8.319  33.565  13.430
97664W        W61432  26.566  19.147  12.049
97665W        W61433  39.378   8.689   4.834
97666W        W61434  18.660  28.593   0.903
97667W        W61435   1.777  28.172   2.345
97668W        W61436  12.782  17.721  13.495
97669W        W61437   1.765  10.183  12.969
97670W        W61438   9.311  23.127  13.847
97671W        W61439  33.105  25.602   3.151
97672W        W61440  30.426  20.067   2.239
97673W        W61441  19.704  21.572   4.642
97674W        W61442   5.414  14.103   4.724
97675W        W61443  28.091  19.567   5.153
97676W        W61444  29.636  42.793   1.697
97677W        W61445  27.944   9.656   0.246
97678W        W61446  24.126  29.469   9.973
97679W        W61447  18.635   9.750  14.420
97680W        W61448  18.722  21.640   1.765
97681W        W61449  26.002  41.935   2.196
97682W        W61450  19.745  29.634   2.687
97683W        W61451  16.293  28.043   3.385
97684W        W61452  11.137  22.168  11.108
97685W        W61453   0.828   1.391  14.337
97686W        W61454  42.793  40.946   0.419
97687W        W61455  20.213  39.053  14.433
97688W        W61456   6.920  39.391  13.359
97689W        W61457  30.436  10.804   1.394
97690W        W61458  32.492  11.190   0.768
97691W        W61459  32.500  19.223  12.544
97692W        W61460  25.081   0.772   2.177
97693W        W61461  11.865  19.598  11.864
97694W        W61462  25.543  11.700  14.348
97695W        W61463  23.499  15.628   0.427
97696W        W61464   7.826  33.094   4.622
97697W        W61465  11.141  14.134   4.803
97698W        W61466  42.318   7.835   3.208
97699W        W61467   9.747   8.219   0.395
97700W        W61468  36.846  12.338   1.802
97701W        W61469  21.252  17.272  14.944
97702W        W61470  21.247  40.398   4.252
97703W        W61471  15.248  10.286  11.609
97704W        W61472   7.710  26.652   1.736
97705W        W61473  21.583   8.757   0.372
97706W        W61474   9.866   6.729  14.290
97707W        W61475  32.547   1.904  12.402
97708W        W61476  10.338   0.982  12.063
97709W        W61477  18.784   6.687   3.735
97710W        W61478   9.868  12.618   0.405
97711W        W61479  24.216  12.274  12.977
97712W        W61480  16.739  34.492  14.284
97713W        W61481  20.710  26.135  10.549
97714W        W61482  23.579   8.831   4.125
97715W        W61483  44.418   5.861   9.927
97716W        W61484  39.426  37.388  12.419
97717W        W61485  43.314  21.052   4.340
97718W        W61486  11.157   8.256  11.452
97719W        W61487  31.519  44.399  12.966
97720W        W61488  16.679  40.974  11.118
97721W        W61489  11.189  19.169  13.944
97722W        W61490  40.014  44.455  13.331
97723W        W61491  25.712  31.095  13.020
97724W        W61492  44.313  10.710  11.114
97725W        W61493   5.419  11.314   4.150
97726W        W61494  34.874  12.812  12.972
97727W        W61495  39.899  16.628  10.616
97728W        W61496   0.872  17.694  11.917
97729W        W61497  20.630   1.241   1.738
97730W        W61498  12.296   8.675   2.804
97731W        W61499  17.634  36.406  14.449
97732W        W61500   0.830  11.786  13.514
97733W        W61501  25.195  27.090   4.641
97734W        W61502   1.752   0.987   4.156
97735W        W61503   7.693  17.657   1.768
97736W        W61504  23.677   9.163   4.697
97737W        W61505   6.289   3.409   1.331
97738W        W61506  29.094  31.020   1.402
97739W        W61507  34.872  30.648  14.480
97740W        W61508  19.565  17.232  14.400
97741W        W61509  22.655  12.849  14.767
97742W        W61510  16.599  34.024  11.597
97743W        W61511  38.948   9.777   4.633
97744W        W61512  16.646   5.308   0.921
97745W        W61513  40.529  22.233   1.216
97746W        W61514  42.417  17.114   1.274
97747W        W61515  18.272  11.313  14.938
97748W        W61516  15.765  27.968  11.882
97749W        W61517  14.188   4.739   4.127
97750W        W61518  20.245  42.998   4.647
97751W        W61519   1.265  29.435   4.291
97752W        W61520  31.913  44.454  12.881
97753W        W61521  10.781  14.206  13.492
97754W        W61522  20.742  23.194  11.515
97755W        W61523  41.951  13.307   2.809
97756W        W61524   3.301   2.755  14.371
97757W        W61525  27.136  25.136   4.324
97758W        W61526  22.222  14.745   4.352
97759W        W61527   8.844  15.730   0.879
97760W        W61528  17.641  25.577   3.212
97761W        W61529  20.141  12.168   4.223
97762W        W61530  27.196  30.926  12.895
97763W        W61531   9.187  22.013  10.563
97764W        W61532  10.772  42.486   1.867
97765W        W61533  15.269  21.147   4.676
97766W        W61534  21.026  27.581  12.966
97767W        W61535  30.517   6.693   3.146
97768W        W61536   0.849   8.246  11.526
97769W        W61537  37.552  27.600   2.397
97770W        W61538  18.692  12.766   2.212
97771W        W61539  31.953  21.056  13.325
97772W        W61540  14.288   1.775   0.947
97773W        W61541   1.905  28.045   4.817
97774W        W61542  40.411  35.918  11.002
97775W        W61543  41.991  27.623   4.646
97776W        W61544  15.809  27.193   2.328
97777W        W61545  20.549   7.726  11.549
97778W        W61546  30.151  25.703  13.987
97779W        W61547  44.979  26.560  10.972
97780W        W61548  35.413   7.339   2.867
97781W        W61549   8.861  36.098   2.361
97782W        W61550  22.703  21.682  13.354
97783W        W61551  33.928   2.373  11.452
97784W        W61552  23.207  37.878   1.734
97785W        W61553  10.269  44.280   3.718
97786W        W61554   2.434  20.113   1.362
97787W        W61555  24.674  16.740   4.147
97788W        W61556  15.102  32.595   0.281
97789W        W61557  13.172   5.896   1.694
97790W        W61558  38.465   7.226  14.924
97791W        W61559  27.584  40.420  10.889
97792W        W61560  18.765  34.509   9.569
97793W        W61561   0.841  20.751   1.392
97794W        W61562  41.956  34.435  11.544
97795W        W61563   3.892  42.363  11.122
97796W        W61564   4.897  38.410   1.923
97797W        W61565  28.549  38.998   3.867
97798W        W61566   3.743  23.604  12.081
97799W        W61567  26.484  12.713   3.350
97800W        W61568  40.381  35.434   3.867
97801W        W61569   1.874  19.539  14.015
97802W        W61570  34.516   0.416   1.823
97803W        W61571  21.748  40.893  14.468
97804W        W61572   1.300  17.660   2.785
97805W        W61573  12.266  35.563  13.984
97806W        W61574   1.944  24.629   3.187
97807W        W61575  42.387  31.633  13.942
97808W        W61576  28.143  25.178  13.343
97809W        W61577  22.553  30.164   2.274
97810W        W61578   5.316   4.832  13.052
97811W        W61579  43.993  25.146  14.319
97812W        W61580  36.519  12.776   3.297
97813W        W61581  44.374   8.312   0.362
97814W        W61582  18.131  33.879  12.880
97815W        W61583  25.517  16.794  13.441
97816W        W61584  34.897  18.256   2.819
97817W        W61585  34.982  25.128  12.053
97818W        W61586   6.871  42.993   0.759
97819W        W61587  13.676   7.174   1.883
97820W        W61588   1.952  24.226   3.776
97821W        W61589   7.907  34.056  11.941
97822W        W61590  29.136  26.123  10.418
97823W        W61591  43.828  37.573  13.043
97824W        W61592  29.593   1.798  11.542
97825W        W61593  33.103  37.961  11.417
97826W        W61594  24.092  42.007   3.263
97827W        W61595   9.393  34.482   1.719
97828W        W61596  25.156  31.904   2.781
97829W        W61597  23.718  39.432  13.462
97830W        W61598  20.031  43.347   3.650
97831W        W61599  40.411   3.915   0.937
97832W        W61600  34.597  25.161   1.238
97833W        W61601  35.972   5.424  13.987
97834W        W61602  26.683  32.551   3.860
97835W        W61603  12.136  28.546   1.787
97836W        W61604  41.874   8.175  14.948
97837W        W61605   4.364  20.755   2.362
97838W        W61606  34.564  36.958   0.254
97839W        W61607  29.503  35.894  12.435
97840W        W61608   7.667  27.524  14.380
97841W        W61609  35.973   6.820   9.991
97842W        W61610  12.811  32.613  10.625
97843W        W61611  29.519   2.940   1.425
97844W        W61612  10.264  37.999  10.511
97845W        W61613  10.681   6.262   3.171
97846W        W61614   9.700  36.523   1.420
97847W        W61615  17.720  22.505   0.315
97848W        W61616  35.409  18.293   9.932
97849W        W61617  28.536   3.275  13.033
97850W        W61618  31.029  33.384   4.801
97851W        W61619  11.241  19.536  11.899
97852W        W61620   2.925  37.987   4.634
97853W        W61621  21.573  36.063   4.736
97854W        W61622  24.995  38.401  14.278
97855W        W61623   3.887   8.251   2.881
97856W        W61624  23.013  21.075  14.811
97857W        W61625  28.009  21.083   1.316
97858W        W61626  44.854   2.769   3.220
97859W        W61627  30.964  12.631  13.957
97860W        W61628  18.545  11.261   2.802
97861W        W61629  34.445   9.271   0.853
97862W        W61630  26.991  13.287   1.886
97863W        W61631   5.210  20.658   1.832
97864W        W61632   6.367  28.441   2.858
97865W        W61633   8.744   8.196   1.394
97866W        W61634  41.371  37.468   5.127
97867W        W61635   1.753   2.809   0.481
97868W        W61636  35.580  35.594  13.828
97869W        W61637  38.880  32.510  11.466
97870W        W61638   3.422  39.550   2.210
97871W        W61639   6.724  21.218   1.866
97872W        W61640  14.188  24.008  12.017
97873W        W61641   2.310   6.771  13.871
97874W        W61642  12.832  39.448  14.810
97875W        W61643  38.992  14.759   3.160
97876W        W61644  10.331  20.671  13.431
97877W        W61645  34.907  19.158   1.282
97878W        W61646  29.114  41.396   3.275
97879W        W61647   5.803  16.286  12.546
97880W        W61648   0.798  44.448   1.398
97881W        W61649  26.958  11.803  10.107
97882W        W61650   6.676  25.180  14.792
97883W        W61651  36.471  34.082   0.808
97884W        W61652  15.127  36.466  12.396
97885W        W61653   3.373  22.613  11.113
97886W        W61654   9.773  10.241   3.187
97887W        W61655  20.726  43.014  14.341
97888W        W61656  16.290  32.422   0.287
97889W        W61657   0.832  18.146   3.747
97890W        W61658  21.523  17.567  13.961
97891W        W61659   0.356  37.528   0.404
97892W        W61660   7.815  20.690   2.255
97893W        W61661  33.477   9.377   2.376
97894W        W61662  12.647  13.689  12.514
97895W        W61663   3.761  37.376  10.924
97896W        W61664  27.024  29.139   0.909
97897W        W61665  35.396  24.569  14.913
97898W        W61666  28.543  26.653   3.298
97899W        W61667   7.333  25.488   2.762
97900W        W61668  20.158  30.538   0.875
97901W        W61669  16.192  26.012  13.368
97902W        W61670  17.733   1.840   4.728
97903W        W61671  31.000   2.288   3.717
97904W        W61672  14.123  27.597  14.373
97905W        W61673  16.639  13.147  14.019
97906W        W61674  24.160  33.559  10.987
97907W        W61675   0.321  25.623   4.239
97908W        W61676  21.175  31.647  14.405
97909W        W61677  34.569  10.166  14.822
97910W        W61678  30.636  22.705  13.365
97911W        W61679   0.299   5.783  12.532
97912W        W61680  14.778  29.079   1.409
97913W        W61681   5.723  40.903  14.763
97914W        W61682   8.866   3.345   1.228
97915W        W61683  30.573   6.906  11.875
97916W        W61684  10.296  24.998   0.919
97917W        W61685  31.079  42.290   1.361
97918W        W61686  17.170  32.465   2.851
97919W        W61687  29.137  35.036   2.833
97920W        W61688  25.184  12.212   1.895
97921W        W61689  38.468  21.752  11.888
97922W        W61690   3.819  29.147   0.437
97923W        W61691  18.084  12.242   2.793
97924W        W61692  18.687  17.675   2.747
97925W        W61693  20.093  15.740  11.021
97926W        W61694  42.029  16.192   0.888
97927W        W61695  20.700  23.603  14.849
97928W        W61696  36.045  13.663   1.244
97929W        W61697  15.132  33.447   3.272
97930W        W61698  16.171  32.603   2.680
97931W        W61699  30.496  40.513   4.662
97932W        W61700  30.515  14.202   4.651
97933W        W61701   6.386  32.053   2.188
97934W        W61702  30.431  22.061   3.262
97935W        W61703  39.821  36.522   0.306
97936W        W61704  36.566  36.918  11.026
97937W        W61705  40.842  24.581   0.802
97938W        W61706  19.240  27.463   1.362
97939W        W61707  41.973  13.112   2.183
97940W        W61708  25.624  20.614  12.514
97941W        W61709  40.946  21.025   3.702
97942W        W61710  16.214  12.754   2.243
97943W        W61711  10.818  10.213   0.335
97944W        W61712  28.073  34.062  10.421
97945W        W61713  30.595   7.239   1.260
97946W        W61714  37.830  34.441  13.506
97947W        W61715  36.439  30.494  10.896
97948W        W61716  31.577  24.512  13.535
97949W        W61717  17.213   6.698   0.416
97950W        W61718   7.303  43.460   4.229
97951W        W61719  37.555   0.481  14.938
97952W        W61720  42.010  15.659  12.826
97953W        W61721  16.792   1.445   1.755
97954W        W61722  43.856   3.365   1.699
97955W        W61723  31.546  11.311  14.920
97956W        W61724   4.341   5.382   0.963
97957W        W61725  40.473  36.944   2.225
97958W        W61726  38.040  25.612  14.022
97959W        W61727  33.543  36.022  13.050
97960W        W61728  17.622  16.743  14.935
97961W        W61729  18.739  14.656   3.377
97962W        W61730  37.055  13.826   3.764
97963W        W61731   7.798  25.645   4.694
97964W        W61732  39.042  22.651   3.222
97965W        W61733  28.649  15.112   2.389
97966W        W61734  44.383  12.844   4.783
97967W        W61735  43.514   1.817   1.431
97968W        W61736  24.581  40.037   4.289
97969W        W61737  26.967   8.320  11.918
97970W        W61738  30.049  28.011   4.301
97971W        W61739  17.240  42.383   2.890
97972W        W61740  41.809  30.930   4.658
97973W        W61741  26.670  41.476   4.740
97974W        W61742  30.933  12.786  10.436
97975W        W61743  34.953  43.989   4.794
97976W        W61744   9.773  24.094  11.997
97977W        W61745  26.502   5.200   4.657
97978W        W61746   8.179  13.205  11.464
97979W        W61747   1.330  31.106  14.862
97980W        W61748  40.326  28.618   3.701
97981W        W61749  13.776  44.412   0.811
97982W        W61750  38.985  11.322   9.998
97983W        W61751  14.802  25.178  10.052
97984W        W61752   4.317  38.872   1.374
97985W        W61753   6.796  13.660   2.786
97986W        W61754  20.652  12.817  10.432
97987W        W61755  18.711  15.800   4.796
97988W        W61756  30.628  40.410  10.459
97989W        W61757  36.971   9.223   2.285
97990W        W61758  17.066  44.980   0.408
97991W        W61759   5.906   3.433   3.147
97992W        W61760   0.425  14.300  13.985
97993W        W61761   6.876  29.435   0.453
97994W        W61762  22.053  15.708   4.638
97995W        W61763  20.639  15.230   4.156
97996W        W61764  12.300  10.253   1.742
97997W        W61765  18.143  40.985   2.386
97998W        W61766  17.071   4.858   2.184
97999W        W61767  27.629  16.250   4.118
98000W        W61768  35.584   2.380   0.316
98001W        W61769  14.161   3.760  14.460
98002W        W61770  28.962  25.565   3.789
98003W        W61771  31.519   5.931   1.234
98004W        W61772  37.354   2.840  12.015
98005W        W61773  42.962   1.301   4.175
98006W        W61774  38.009   6.199   2.694
98007W        W61775  11.258   8.703   1.304
98008W        W61776  16.661  24.500   1.722
98009W        W61777  29.944  16.103  14.406
98010W        W61778  23.646  30.028  11.945
98011W        W61779  18.757  38.911   1.830
98012W        W61780  13.344  13.810   3.244
98013W        W61781  44.490  15.160  12.580
98014W        W61782  14.805   5.810   4.656
98015W        W61783  31.997  24.151  10.497
98016W        W61784  44.859   1.814  10.905
98017W        W61785  28.470  43.802  12.483
98018W        W61786  40.919  32.052   3.149
98019W        W61787  41.021  40.997   3.857
98020W        W61788  32.487  22.633  11.977
98021W        W61789  38.047  43.862  14.770
98022W        W61790  23.655  24.492   4.288
98023W        W61791  40.893  25.664   1.319
98024W        W61792  41.815  34.405   1.400
98025W        W61793   3.333  18.191  11.429
98026W        W61794  18.732  25.634  12.576
98027W        W61795  12.815  20.205   1.293
98028W        W61796  23.140  14.753   0.256
98029W        W61797  37.941  12.230   2.778
98030W        W61798  17.602  32.916   2.196
98031W        W61799   0.763  21.263  12.085
98032W        W61800   0.802  37.946  10.580
98033W        W61801  14.768  23.632   4.644
98034W        W61802  13.686   7.323  10.462
98035W        W61803  43.411   7.911  11.442
98036W        W61804  37.516  24.993   2.669
98037W        W61805  41.955  27.504  12.955
98038W        W61806  33.098  13.184   1.403
98039W        W61807  16.315  40.353  13.842
98040W        W61808  16.199  26.115   2.226
98041W        W61809   2.849  17.264   1.267
98042W        W61810  32.413   6.416   2.669
98043W        W61811  13.125  38.419  14.413
98044W        W61812  22.514   4.917   0.411
98045W        W61813   1.898  36.373   0.816
98046W        W61814  35.439  37.050   3.296
98047W        W61815  22.598   0.982  10.581
98048W        W61816  32.929   9.352  12.476
98049W        W61817  43.929  23.198  12.911
98050W        W61818  17.620  42.362  11.441
98051W        W61819  31.089  44.884  14.858
98052W        W61820   0.276  30.537   1.802
98053W        W61821  32.026  43.916  11.532
98054W        W61822  22.551  22.122  10.420
98055W        W61823  28.514   8.898   2.772
98056W        W61824   0.771  38.928   3.191
98057W        W61825  32.910   1.973  10.432
98058W        W61826  21.749  20.148   0.423
98059W        W61827  10.224  34.051  13.878
98060W        W61828  41.350  10.718  12.450
98061W        W61829  38.362  41.459  12.890
98062W        W61830   7.829  40.041  13.459
98063W        W61831  26.595  30.482   2.701
98064W        W61832  14.127  28.577  14.279
98065W        W61833  33.502   0.894  14.859
98066W        W61834  25.602  14.232   2.873
98067W        W61835  22.740  31.554  11.392
98068W        W61836   3.423  14.768  13.995
98069W        W61837   4.211  41.042  10.582
98070W        W61838  22.530  29.172  11.112
98071W        W61839  36.060  29.587  11.999
98072W        W61840  24.180  38.388   1.323
98073W        W61841  30.557  10.807   2.737
98074W        W61842  19.551  23.691  11.036
98075W        W61843  27.466  13.731   1.228
98076W        W61844   1.331  21.700  10.419
98077W        W61845   1.357  36.953  13.329
98078W        W61846   9.697  34.925  14.455
98079W        W61847  13.275  42.876   0.367
98080W        W61848  16.211  29.438   2.759
98081W        W61849  33.598  27.057  12.954
98082W        W61850  24.680  22.179  13.890
98083W        W61851  34.076   1.242   3.645
98084W        W61852  28.174  30.143  11.092
98085W        W61853  19.275  24.720  11.465
98086W        W61854   1.369  19.598   3.686
98087W        W61855   4.793  16.083  14.762
98088W        W61856  25.043  39.508  13.333
98089W        W61857  27.587  25.617  10.513
98090W        W61858  14.244  38.885  12.027
98091W        W61859   8.762   6.909   4.318
98092W        W61860  14.144  23.578   9.533
98093W        W61861  14.134  10.638  13.868
98094W        W61862   2.433  20.764  11.942
98095W        W61863   9.837  36.865  12.544
98096W        W61864  10.258  25.199  13.043
98097W        W61865  23.157  26.519   1.274
98098W        W61866  36.471   3.724   3.815
98099W        W61867  15.817  16.701  13.979
98100W        W61868  14.806  15.629   1.382
98101W        W61869  13.721  14.315  13.008
98102W        W61870  11.245  38.979   4.609
98103W        W61871  18.260  32.518   2.288
98104W        W61872  39.055  16.733  10.014
98105W        W61873  17.221   4.815  11.028
98106W        W61874  20.526  34.503  13.319
98107W        W61875  19.583  21.699  13.432
98108W        W61876   7.283  22.581   3.708
98109W        W61877  20.633  36.436  14.351
98110W        W61878   6.388  28.160  11.529
98111W        W61879  43.980  31.584   3.170
98112W        W61880  29.092  30.010  12.435
98113W        W61881  25.141  15.180  14.761
98114W        W61882  33.936  39.965  12.501
98115W        W61883  19.108   3.447   1.403
98116W        W61884  21.579  30.551  11.026
98117W        W61885  30.004  12.338  13.544
98118W        W61886  19.182  11.790  12.404
98119W        W61887  13.334   0.389  10.993
98120W        W61888  13.753  31.948  10.908
98121W        W61889  14.736  25.507   5.136
98122W        W61890  33.979  44.880   3.355
98123W        W61891  16.240  15.708   4.201
98124W        W61892  30.136   2.339   3.856
98125W        W61893  13.748  36.998   2.771
98126W        W61894  30.071  38.068   2.761
98127W        W61895   6.278   8.660  13.814
98128W        W61896  41.791   0.906   9.991
98129W        W61897  42.978   7.339   2.761
98130W        W61898   9.178   5.340  13.336
98131W        W61899  39.516  24.985   5.236
98132W        W61900   4.781  33.441  10.567
98133W        W61901  30.444  14.193  12.370
98134W        W61902  23.675  23.177  13.930
98135W        W61903  29.505   6.186   2.230
98136W        W61904   5.370  41.908   3.205
98137W        W61905  29.547  30.070  13.004
98138W        W61906  30.042  32.458  14.349
98139W        W61907  12.721  28.529   2.212
98140W        W61908  12.302  20.117  11.382
98141W        W61909  10.159  22.167   4.254
98142W        W61910  14.314  29.013   1.303
98143W        W61911  21.586  41.925   1.726
98144W        W61912  14.211  36.386  10.571
98145W        W61913  44.758  13.162  11.514
98146W        W61914   0.413   4.267  13.843
98147W        W61915  10.309  41.345   1.225
98148W        W61916  11.848  22.670   3.726
98149W        W61917  35.941  23.993  13.363
98150W        W61918  12.237  35.922  11.999
98151W        W61919   7.345   8.846   0.477
98152W        W61920  16.275  31.633  10.888
98153W        W61921   2.425  36.589  12.031
98154W        W61922  37.576  11.367   2.824
98155W        W61923  42.492   9.809  11.952
98156W        W61924   7.334  44.268   1.445
98157W        W61925  21.159  21.680   3.647
98158W        W61926  42.855  21.703   4.733
98159W        W61927  13.206  39.460   4.186
98160W        W61928   7.787  36.451   4.698
98161W        W61929  23.161   9.336  10.442
98162W        W61930  26.157  37.506  11.086
98163W        W61931  24.552  20.617   2.267
98164W        W61932  38.360  34.097   3.202
98165W        W61933  37.408  37.387   1.771
98166W        W61934  31.123  36.983   3.675
98167W        W61935  18.123  13.829   3.731
98168W        W61936  36.843  13.842  14.423
98169W        W61937  28.969  32.494   3.175
98170W        W61938  20.547   2.338   3.645
98171W        W61939  13.106  27.482  13.500
98172W        W61940  12.782  11.367   3.774
98173W        W61941  29.462  40.046   1.739
98174W        W61942  38.026  17.148   0.282
98175W        W61943  10.813  20.651   3.332
98176W        W61944  26.667  30.486   3.815
98177W        W61945   8.797   2.833  12.409
98178W        W61946  15.286  16.651   4.127
98179W        W61947  41.892  34.993   2.261
98180W        W61948  33.391  38.981  13.900
98181W        W61949   8.181  29.039  14.802
98182W        W61950  22.527  44.975  14.844
98183W        W61951  28.130  32.626  11.454
98184W        W61952  31.540  42.015  13.339
98185W        W61953  19.564  24.601   1.885
98186W        W61954   0.865   2.913   3.846
98187W        W61955  43.510  43.439   0.741
98188W        W61956  14.240  13.315  13.880
98189W        W61957  22.190  27.622   2.216
98190W        W61958   9.699  12.794   5.237
98191W        W61959  33.049  18.280   0.871
98192W        W61960  37.362  44.896   1.281
98193W        W61961  36.491  32.019   2.395
98194W        W61962  14.148  42.919   3.678
98195W        W61963  41.492  38.359   3.239
98196W        W61964   7.203  43.395  10.590
98197W        W61965   0.744  39.999  14.411
98198W        W61966  40.473  40.423   0.450
98199W        W61967  17.075  38.873   4.743
98200W        W61968   3.293  40.840  14.945
98201W        W61969  37.538  13.721  11.593
98202W        W61970  13.821  27.644   0.313
98203W        W61971  31.967  43.968  10.948
98204W        W61972  39.021  34.534  13.312
98205W        W61973  23.712  13.310   4.662
98206W        W61974   6.405  14.809   2.810
98207W        W61975   3.431   9.211   0.895
98208W        W61976  16.158   7.803   3.356
98209W        W61977  11.642  35.092  12.443
98210W        W61978  14.643  12.619  14.022
98211W        W61979  19.690   9.702   3.644
98212W        W61980  14.637  19.097  13.013
98213W        W61981   8.716  33.526   5.282
98214W        W61982  21.747   6.722  11.012
98215W        W61983  37.874  37.904  11.865
98216W        W61984  37.915  11.699   0.414
98217W        W61985  40.800  23.523   0.740
98218W        W61986  17.113  40.354   2.369
98219W        W61987   6.684  36.396   0.423
98220W        W61988  28.552  10.633   1.908
98221W        W61989  40.905  13.299  13.926
98222W        W61990  43.880  20.642   1.886
98223W        W61991  28.643  31.600   0.422
98224W        W61992   1.374   2.444   1.700
98225W        W61993  35.411  36.481   4.266
98226W        W61994  27.058  24.644  11.097
98227W        W61995  42.779  42.804  12.541
98228W        W61996   3.910  44.927  12.491
98229W        W61997  15.315   1.354  11.397
98230W        W61998  30.638   5.897   0.259
98231W        W61999   7.794  16.147   0.360
98232W        W62000  22.530  12.254   4.821
98233W        W62001  31.081  41.314   9.958
98234W        W62002   8.314   6.258   2.738
98235W        W62003   3.335  42.315   2.902
98236W        W62004   3.274   1.366   3.317
98237W        W62005   5.401   2.423  12.426
98238W        W62006   7.705  32.915  13.058
98239W        W62007  32.603  10.830   3.688
98240W        W62008  18.119  42.513   0.790
98241W        W62009  41.455  36.532   0.930
98242W        W62010   7.740   3.407  10.594
98243W        W62011  36.427  44.405  11.048
98244W        W62012   9.787  23.053   0.429
98245W        W62013  25.181  31.108  11.022
98246W        W62014  19.187  20.547   0.258
98247W        W62015   8.182  19.573  11.019
98248W        W62016   5.277  29.061  14.289
98249W        W62017   5.335   6.838  14.293
98250W        W62018   7.678  16.149  13.538
98251W        W62019  31.462  28.169   4.814
98252W        W62020  39.333  27.015  11.534
98253W        W62021  28.999  20.032  14.851
98254W        W62022   8.684  26.474   9.975
98255W        W62023   2.815  42.304  12.502
98256W        W62024   6.714   4.788  10.644
98257W        W62025  11.230   1.325  11.489
98258W        W62026  16.658  25.533   3.716
98259W        W62027   2.783  23.728  12.952
98260W        W62028  38.819  25.120   0.925
98261W        W62029  39.491  35.981   3.838
98262W        W62030  30.126   4.437   0.316
98263W        W62031  30.468  35.040   2.762
98264W        W62032   9.862  42.526   1.794
98265W        W62033  23.720  18.110  12.571
98266W        W62034  10.822  31.522  14.815
98267W        W62035  20.196  30.621   1.766
98268W        W62036   6.418   6.355  12.437
98269W        W62037   7.402  31.911  14.476
98270W        W62038  42.979   8.228  14.342
98271W        W62039  17.143  37.507   2.254
98272W        W62040  34.974  28.566  14.349
98273W        W62041  17.074   0.904  14.872
98274W        W62042  15.634  18.717   0.355
98275W        W62043   2.951  14.248   3.181
98276W        W62044  15.652  24.218   0.424
98277W        W62045  15.698  23.992  14.374
98278W        W62046  44.867   1.258  11.496
98279W        W62047   7.910  43.004   4.197
98280W        W62048  19.244   2.352  11.502
98281W        W62049  44.400  40.926  13.432
98282W        W62050  35.946  31.925   4.831
98283W        W62051   7.293  19.041  14.355
98284W        W62052   4.908  23.570  11.985
98285W        W62053   5.846  40.967   3.363
98286W        W62054  29.157  32.001  13.505
98287W        W62055  31.029   1.858   2.899
98288W        W62056  41.480  24.055   4.237
98289W        W62057   4.348  33.091   2.227
98290W        W62058  26.582  39.458   3.265
98291W        W62059  41.411   1.848  11.986
98292W        W62060  20.203  24.606   3.796
98293W        W62061  25.022  33.907   0.284
98294W        W62062  19.725   3.379   1.315
98295W        W62063   0.315   7.234   3.671
98296W        W62064  29.622   4.365  13.425
98297W        W62065   1.238  37.458  13.894
98298W        W62066  23.586  17.622   1.293
98299W        W62067  17.089  42.412  13.447
98300W        W62068  42.498  10.802   1.313
98301W        W62069   5.220  20.573  10.633
98302W        W62070  39.383  36.422   3.324
98303W        W62071   4.760   3.929   3.333
98304W        W62072  19.233  36.420  10.574
98305W        W62073  37.535  29.100   3.317
98306W        W62074   4.369  16.754   2.281
98307W        W62075  23.146  25.657  12.911
98308W        W62076  23.011  17.736   2.807
98309W        W62077  25.034  25.157  14.427
98310W        W62078  34.389  10.829   3.673
98311W        W62079  40.046  38.059  13.416
98312W        W62080  30.509  21.227   0.828
98313W        W62081   2.376  17.706   4.213
98314W        W62082  13.800  17.063   2.224
98315W        W62083  28.468  19.618  10.539
98316W        W62084  10.646  33.579  14.818
98317W        W62085  32.623  26.551  12.360
98318W        W62086  28.554   3.742  12.553
98319W        W62087  34.915  44.835  13.333
98320W        W62088  23.096  15.682   3.317
98321W        W62089  12.719  42.957  14.284
98322W        W62090  27.183  10.803  11.396
98323W        W62091  22.083   4.834  10.433
98324W        W62092  22.504  26.188   1.419
98325W        W62093   9.304  18.554  11.390
98326W        W62094  23.644  42.005   2.216
98327W        W62095  29.612  13.198  14.319
98328W        W62096   8.890  25.549  10.474
98329W        W62097  38.330  14.154  12.056
98330W        W62098  33.451  28.047  11.051
98331W        W62099  10.243  25.974   2.394
98332W        W62100   6.769  36.454   4.330
98333W        W62101  10.321  43.331  13.910
98334W        W62102  19.608   0.853   2.287
98335W        W62103  15.809  28.129   2.248
98336W        W62104  24.068  17.587   0.375
98337W        W62105  16.729  35.564  13.420
98338W        W62106  31.528  33.917  14.883
98339W        W62107  30.559  26.029  10.624
98340W        W62108  11.271  16.752  13.364
98341W        W62109  43.805  33.418   0.958
98342W        W62110  29.109  41.453  11.966
98343W        W62111  10.793  33.884   3.638
98344W        W62112  15.717  39.382  13.528
98345W        W62113  20.667   7.171  14.453
98346W        W62114  10.210  19.628   5.142
98347W        W62115  25.215  36.058  14.808
98348W        W62116  26.957   5.739   3.633
98349W        W62117  35.986   9.250   2.746
98350W        W62118  22.586  23.714  14.490
98351W        W62119  15.090  15.248  10.417
98352W        W62120   6.217  35.099  13.448
98353W        W62121  17.204  17.277   1.800
98354W        W62122  16.700   0.319   1.305
98355W        W62123   8.345  35.439  10.937
98356W        W62124   0.865  39.836  13.042
98357W        W62125  14.204  28.608  12.417
98358W        W62126   2.843  20.651  10.429
98359W        W62127  32.065  26.658   1.823
98360W        W62128  25.549  29.979   1.889
98361W        W62129   5.255   9.850   2.387
98362W        W62130  34.026  15.288  13.336
98363W        W62131  42.961  40.903  11.575
98364W        W62132  42.424  21.746  11.862
98365W        W62133  32.482  36.912  14.011
98366W        W62134  15.153  29.161   1.696
98367W        W62135  38.378  17.086   1.269
98368W        W62136  41.440  30.165  12.037
98369W        W62137  19.765  43.496  14.936
98370W        W62138  17.170  42.940   4.601
98371W        W62139  19.654   3.328  14.940
98372W        W62140  29.604   3.429   0.864
98373W        W62141  24.606  33.913   0.469
98374W        W62142   0.486  21.165   1.388
98375W        W62143   4.225  13.212   0.410
98376W        W62144   5.836  44.323   0.738
98377W        W62145  22.073  12.637  13.510
98378W        W62146  32.543  38.326  13.328
98379W        W62147  37.961  18.277  12.832
98380W        W62148  29.509   7.725  10.957
98381W        W62149  36.056  30.440   4.804
98382W        W62150  26.025  38.512  11.891
98383W        W62151  26.011  16.679  10.539
98384W        W62152   2.360   9.197   3.664
98385W        W62153  36.856  17.112   2.363
98386W        W62154  19.283  25.037   1.888
98387W        W62155  10.272   3.837  13.970
98388W        W62156   7.393  12.831  13.992
98389W        W62157  11.221  37.467   3.763
98390W        W62158   7.393  34.405  13.401
98391W        W62159  15.622  40.336  12.830
98392W        W62160   3.423  19.686  10.529
98393W        W62161  44.339  19.708   2.846
98394W        W62162  36.973  37.943  11.605
98395W        W62163  43.845  24.115  12.526
98396W        W62164   4.377   0.482  11.556
98397W        W62165  28.643  17.620   1.375
98398W        W62166  30.026  24.674   3.815
98399W        W62167  39.540  39.472  13.490
98400W        W62168  39.479  36.938   0.958
98401W        W62169   7.792  13.157  14.465
98402W        W62170  13.264   2.453   4.819
98403W        W62171   7.721  16.588   4.786
98404W        W62172  26.683   9.759   2.760
98405W        W62173  28.960   6.323  11.112
98406W        W62174  35.088   9.689   2.668
98407W        W62175  15.656  35.095  10.160
98408W        W62176  25.679  38.896  11.504
98409W        W62177  24.038  22.618   3.731
98410W        W62178  25.142  44.794  14.439
98411W        W62179  33.562  18.650   1.260
98412W        W62180  38.019  25.200   2.212
98413W        W62181  14.643  18.660   1.709
98414W        W62182   8.372  33.424   4.183
98415W        W62183  22.106  22.662   3.267
98416W        W62184  38.991  14.240  10.527
98417W        W62185   2.938  17.666  14.408
98418W        W62186   5.335  13.328  14.460
98419W        W62187  29.059  38.523   0.409
98420W        W62188   5.921  19.718  12.014
98421W        W62189  25.090   3.808   3.723
98422W        W62190  31.420  38.931  11.436
98423W        W62191  18.108  19.060   3.362
98424W        W62192  39.919   8.780   2.719
98425W        W62193  35.927  22.104  13.938
98426W        W62194  17.061  36.356  11.596
98427W        W62195   6.230   0.894  12.413
98428W        W62196  40.509  11.651   1.289
98429W        W62197   8.749  11.134  13.908
98430W        W62198  31.518  13.192   4.154
98431W        W62199  22.052  28.952   4.806
98432W        W62200   3.845  15.798  14.886
98433W        W62201  33.129  25.028  10.898
98434W        W62202  40.395   6.704  12.498
98435W        W62203   6.286  39.963   3.268
98436W        W62204   0.309  10.838  14.764
98437W        W62205   8.701  21.551  13.871
98438W        W62206  34.468  31.970  10.949
98439W        W62207   3.923  22.009  13.825
98440W        W62208  12.730  28.588   4.127
98441W        W62209  28.074  20.595   2.183
98442W        W62210   8.758  36.435   0.359
98443W        W62211  43.483   6.739  14.780
98444W        W62212   3.735  36.992  11.091
98445W        W62213  36.355  18.753   0.918
98446W        W62214  12.263  11.291  12.435
98447W        W62215   5.411  40.417   3.827
98448W        W62216  33.476  28.610   1.425
98449W        W62217   7.252  21.146  12.355
98450W        W62218  40.953  20.573   0.275
98451W        W62219  10.241  20.585   4.610
98452W        W62220  18.651  34.469  10.450
98453W        W62221   9.664  44.838   4.632
98454W        W62222  19.692  28.115   3.736
98455W        W62223  22.526   6.234   2.211
98456W        W62224  37.383  11.334   2.372
98457W        W62225  36.002  16.733  13.934
98458W        W62226  29.011  36.402  14.469
98459W        W62227  40.531   0.754   4.220
98460W        W62228  23.503  35.377   1.288
98461W        W62229   4.758   4.726  11.504
98462W        W62230  16.724  10.842  13.320
98463W        W62231  33.521  13.201   0.247
98464W        W62232  17.800  39.370   3.190
98465W        W62233  44.304  14.649  10.419
98466W        W62234  28.101  37.539  10.531
98467W        W62235  20.675   7.865  14.852
98468W        W62236   3.269   9.723   0.403
98469W        W62237   3.923  31.049  13.411
98470W        W62238  10.830  44.309   1.315
98471W        W62239  35.105  18.236   0.252
98472W        W62240  27.075  36.012  13.318
98473W        W62241  21.069  31.642   2.289
98474W        W62242  23.230  27.052   0.739
98475W        W62243   2.723  17.260  12.570
98476W        W62244   3.939   3.788   0.919
98477W        W62245   5.322  43.789   3.283
98478W        W62246  43.835  43.310   2.356
98479W        W62247  12.146   4.816   4.262
98480W        W62248  13.252  23.582  12.997
98481W        W62249  37.032   5.210   3.384
98482W        W62250   4.915   1.281   1.861
98483W        W62251  32.003  24.998  14.982
98484W        W62252   8.322  23.985   3.740
98485W        W62253  12.835  12.846  11.982
98486W        W62254  40.860  32.435   1.821
98487W        W62255  19.084  23.580  10.031
98488W        W62256  11.199  24.625   0.789
98489W        W62257  23.996  36.956  12.378
98490W        W62258  31.065  36.848  14.945
98491W        W62259  44.813  37.886   2.340
98492W        W62260   5.331  37.373   1.397
98493W        W62261   1.445  35.389  13.516
98494W        W62262  35.516  12.775   2.349
98495W        W62263   4.778  34.471  11.888
98496W        W62264   5.705   8.749   0.392
98497W        W62265   4.730  40.471   1.792
98498W        W62266   1.371   8.774  13.958
98499W        W62267  10.677  37.008   3.724
98500W        W62268   7.900  23.062  14.304
98501W        W62269   2.244  28.008  12.511
98502W        W62270  16.684  41.970  11.024
98503W        W62271  18.102  31.128   2.677
98504W        W62272  16.571  13.758  13.433
98505W        W62273  32.022  21.751  12.343
98506W        W62274  31.998  41.992   5.083
98507W        W62275  11.759  22.122  13.020
98508W        W62276  17.605  22.055  12.385
98509W        W62277  42.825  36.391  12.545
98510W        W62278  18.615  35.904   1.352
98511W        W62279  35.003  10.148   0.836
98512W        W62280   0.888  34.508   4.282
98513W        W62281   2.721  16.790   3.863
98514W        W62282  20.059  14.197  13.054
98515W        W62283  37.070  27.570  10.436
98516W        W62284  42.455  38.549   4.181
98517W        W62285  16.236   8.898   2.206
98518W        W62286   6.809  40.366  14.870
98519W        W62287  30.434   5.719  13.956
98520W        W62288  28.177   2.256   4.815
98521W        W62289  35.037  33.430  11.417
98522W        W62290  34.949   7.331  13.327
98523W        W62291   0.307  35.021  10.961
98524W        W62292   2.938  21.048   3.810
98525W        W62293  44.841   3.452   0.822
98526W        W62294  34.368  38.913  11.936
98527W        W62295  32.048  13.172   1.885
98528W        W62296   8.774  30.111   0.379
98529W        W62297  10.778   5.875   0.435
98530W        W62298  29.989  38.536  11.376
98531W        W62299  19.735  21.120   3.230
98532W        W62300  22.555  25.045  14.331
98533W        W62301  32.568  41.361  11.551
98534W        W62302  11.636  26.468   4.756
98535W        W62303  21.194  16.727  10.497
98536W        W62304   4.371  16.196   2.257
98537W        W62305  37.473  14.746   1.317
98538W        W62306  27.666  10.158   2.183
98539W        W62307  37.401  12.630  12.468
98540W        W62308  31.557  19.579   3.644
98541W        W62309  19.674  38.405  10.944
98542W        W62310  25.600  26.196  10.891
98543W        W62311   2.461   2.377  14.798
98544W        W62312  17.669  19.131   5.187
98545W        W62313  43.926  43.389  12.849
98546W        W62314   9.151  28.068  10.928
98547W        W62315  34.573  26.058  14.293
98548W        W62316  31.461  20.199  12.396
98549W        W62317  26.647  12.147  14.829
98550W        W62318  10.637   8.824   0.775
98551W        W62319  28.043  29.559  13.019
98552W        W62320  29.176  43.005  13.006
98553W        W62321  20.631  28.613   3.866
98554W        W62322  30.637  18.630   2.253
98555W        W62323  34.560  42.963  13.402
98556W        W62324  10.245  22.738   1.236
98557W        W62325  39.902  14.831  14.810
98558W        W62326   6.326  16.313  14.418
98559W        W62327  27.965  28.163  14.373
98560W        W62328  34.613  35.400   3.264
98561W        W62329  20.032  42.960  11.501
98562W        W62330   6.697  37.336   1.758
98563W        W62331  41.919   7.245  10.120
98564W        W62332  39.530  14.169  12.578
98565W        W62333  17.207   1.745  11.020
98566W        W62334  34.481  15.232  10.545
98567W        W62335  30.482  20.589  14.767
98568W        W62336  44.262  44.455   3.827
98569W        W62337  44.477   6.294   1.236
98570W        W62338   2.776  44.402  12.004
98571W        W62339  30.487  20.190   1.833
98572W        W62340  28.999  36.996  11.061
98573W        W62341  31.995  19.577  12.482
98574W        W62342  22.645  42.518  10.451
98575W        W62343   7.877  23.067   0.321
98576W        W62344  25.076  40.309   1.334
98577W        W62345  32.011  24.156  14.911
98578W        W62346  28.055  14.326   4.638
98579W        W62347  30.586  39.323   0.287
98580W        W62348  37.869  14.250   5.302
98581W        W62349  25.987  11.820  12.921
98582W        W62350  16.653  10.190   3.865
98583W        W62351  17.145  23.136   3.328
98584W        W62352  33.042  23.005  13.818
98585W        W62353   3.804  39.951   0.902
98586W        W62354  31.424  31.040  11.577
98587W        W62355   1.759  17.727   3.151
98588W        W62356   8.829  28.932   0.395
98589W        W62357   2.817   8.858   1.918
98590W        W62358  38.031   7.698  10.454
98591W        W62359  11.659   1.783   2.844
98592W        W62360  35.538  38.539  12.498
98593W        W62361  31.611  15.753   0.886
98594W        W62362  36.877  22.689  12.052
98595W        W62363   8.289  44.902   0.843
98596W        W62364  17.166  19.083   4.274
98597W        W62365   5.716  19.697   1.394
98598W        W62366  29.563  33.576  11.961
98599W        W62367  22.006  42.878  14.874
98600W        W62368  37.394  33.118  10.130
98601W        W62369  25.089  29.515   4.274
98602W        W62370  42.843   9.732  11.601
98603W        W62371  26.006  27.159   2.178
98604W        W62372  33.456  25.613   2.375
98605W        W62373  22.233  34.060  13.907
98606W        W62374  15.746  33.068   1.273
98607W        W62375  26.107   2.447  14.936
98608W        W62376   9.313   4.939  13.919
98609W        W62377  39.430  31.543   0.844
98610W        W62378   9.664  17.595   3.735
98611W        W62379   4.245  10.188  11.024
98612W        W62380   6.832  39.053  14.304
98613W        W62381  13.682   5.279   4.720
98614W        W62382  37.521  17.063  14.350
98615W        W62383  11.717  13.773   0.832
98616W        W62384  44.331  40.973  11.859
98617W        W62385  39.016  11.158   3.759
98618W        W62386  22.510  31.515   3.794
98619W        W62387   0.248   6.299  13.401
98620W        W62388  22.542  41.007   4.652
98621W        W62389  33.973  25.968  13.994
98622W        W62390  39.322  29.592  11.541
98623W        W62391  20.753  31.029   1.381
98624W        W62392  30.940  21.141   2.313
98625W        W62393  21.754   2.436   2.317
98626W        W62394   0.916   1.759   0.338
98627W        W62395  38.492  13.109   0.870
98628W        W62396  18.789  41.438   1.268
98629W        W62397  21.713  15.728   1.790
98630W        W62398  16.128  26.618   2.762
98631W        W62399  17.113   6.247   0.890
98632W        W62400  21.088   4.309   0.845
98633W        W62401  42.853   4.799  14.784
98634W        W62402  17.744   6.368  14.360
98635W        W62403  25.699  40.813  12.997
98636W        W62404  38.906  14.779  14.908
98637W        W62405   3.799  16.761  11.586
98638W        W62406  23.053  27.655  13.315
98639W        W62407  32.391   0.840   0.955
98640W        W62408   8.858  13.726  13.985
98641W        W62409  10.731  11.740   0.297
98642W        W62410  37.011   0.313   0.884
98643W        W62411  24.093  27.042   4.227
98644W        W62412  11.231  26.957  12.875
98645W        W62413   3.378  37.948  12.542
98646W        W62414   7.299   4.721  14.277
98647W        W62415  33.456  22.124  13.528
98648W        W62416  29.539  24.721   4.145
98649W        W62417  35.093  13.728   3.693
98650W        W62418  24.545  41.325  14.391
98651W        W62419  39.372   9.197   2.357
98652W        W62420   7.901  29.993   1.809
98653W        W62421  44.356  44.354   0.946
98654W        W62422   9.329   7.686  13.440
98655W        W62423  22.630  22.126   0.914
98656W        W62424  27.512  39.888  11.496
98657W        W62425  10.678  25.157  11.533
98658W        W62426  22.128  18.227  12.993
98659W        W62427  18.587  27.478   1.426
98660W        W62428  14.311  18.130  13.049
98661W        W62429   9.658  13.811   4.820
98662W        W62430  24.000  15.638  10.131
98663W        W62431  22.683  29.170  12.013
98664W        W62432  13.801  15.212  11.576
98665W        W62433   2.783   2.445   1.394
98666W        W62434  29.544  41.030  11.900
98667W        W62435  34.396  36.053   1.311
98668W        W62436  12.186  27.618  14.462
98669W        W62437  23.032  24.534  14.935
98670W        W62438  33.481   4.243  12.897
98671W        W62439  23.728  13.309   3.760
98672W        W62440  18.775  14.588  12.491
98673W        W62441  30.085  38.821   2.372
98674W        W62442  10.219   0.355   5.133
98675W        W62443  35.400   4.926   4.618
98676W        W62444  32.130   2.820   1.891
98677W        W62445  14.300  13.840   5.218
98678W        W62446  37.497  41.507   4.132
98679W        W62447   1.454   4.789  10.931
98680W        W62448  14.331  17.625  11.065
98681W        W62449  38.367  40.540   3.258
98682W        W62450   6.698  10.339  13.409
98683W        W62451   2.795  35.398   0.843
98684W        W62452  12.641  42.901   0.811
98685W        W62453  19.533  28.461   0.383
98686W        W62454  21.710  12.309  13.514
98687W        W62455  36.980  36.097   1.426
98688W        W62456  39.335  17.744  12.886
98689W        W62457  32.991  35.042  12.352
98690W        W62458  11.846  31.958  12.560
98691W        W62459  40.933  33.064  11.502
98692W        W62460  10.821   5.918   4.658
98693W        W62461  21.613  41.895   4.778
98694W        W62462  40.343  29.450  12.092
98695W        W62463   9.363   1.351   2.898
98696W        W62464  39.420  21.733  13.455
98697W        W62465  31.494  20.048  13.049
98698W        W62466  30.577  37.874  13.849
98699W        W62467  21.255  28.124   0.407
98700W        W62468   2.471  40.519  11.042
98701W        W62469  10.146  26.141  10.642
98702W        W62470  35.376  12.781  13.810
98703W        W62471  20.120  24.670   1.731
98704W        W62472  21.602  33.049   0.942
98705W        W62473  28.601  28.011   4.136
98706W        W62474  15.319  32.411  10.459
98707W        W62475  22.577  28.109   2.306
98708W        W62476  37.550   4.784   4.620
98709W        W62477  43.445  10.165   0.318
98710W        W62478  43.925   8.684  10.424
98711W        W62479   3.749  15.243  10.643
98712W        W62480   0.460  29.460   4.795
98713W        W62481  40.513  26.647   4.150
98714W        W62482  25.162  38.060  12.394
98715W        W62483   1.380  39.870   3.309
98716W        W62484  25.589   6.851  14.008
98717W        W62485  22.046  12.741   1.233
98718W        W62486   4.732  43.789   1.731
98719W        W62487  28.182  13.234   4.156
98720W        W62488  11.760   0.978   3.731
98721W        W62489  31.130  32.527   2.769
98722W        W62490  38.391   3.339   5.178
98723W        W62491  18.757   3.827   2.750
98724W        W62492   8.701  41.800   0.776
98725W        W62493  33.976  27.690  13.906
98726W        W62494  28.462  41.347  13.359
98727W        W62495   4.853  29.424   0.764
98728W        W62496  35.999  32.618  11.462
98729W        W62497  11.220  39.405   0.268
98730W        W62498  22.588  44.428  10.633
98731W        W62499  11.238  21.667   2.747
98732W        W62500  43.306  36.069   2.271
98733W        W62501  38.406  26.549   1.749
98734W        W62502  19.707  24.583  14.399
98735W        W62503  13.709  26.691   3.714
98736W        W62504   2.464  40.806  12.920
98737W        W62505  23.681   4.735   0.759
98738W        W62506  43.920  15.813  13.454
98739W        W62507  18.678  17.187   4.211
98740W        W62508   7.693  26.593   3.250
98741W        W62509  22.149  22.524  12.902
98742W        W62510  39.390  13.651   4.217
98743W        W62511  30.996  24.026   4.224
98744W        W62512  36.062  21.565   4.682
98745W        W62513  23.538  28.984  12.913
98746W        W62514  29.623  44.823  14.771
98747W        W62515  37.489  32.104  10.560
98748W        W62516  21.084   3.851   4.262
98749W        W62517  32.456  19.144  13.824
98750W        W62518  43.505   5.769   2.784
98751W        W62519   4.356  12.248  14.808
98752W        W62520   4.735  17.108  13.412
98753W        W62521  25.601   8.330   4.837
98754W        W62522  25.153  11.274   0.774
98755W        W62523  20.205  31.460   0.250
98756W        W62524  26.577  36.989   3.681
98757W        W62525  31.992   1.443   3.329
98758W        W62526   3.376  25.543   2.342
98759W        W62527   2.428  13.264   0.420
98760W        W62528  42.959  44.387   3.792
98761W        W62529  22.197  24.632   2.727
98762W        W62530  38.411  44.802   2.863
98763W        W62531  40.889  14.227   1.868
98764W        W62532  12.299  26.584   0.832
98765W        W62533  23.106  23.543  12.971
98766W        W62534   3.297   9.855   1.760
98767W        W62535  10.247   7.392  11.543
98768W        W62536  10.239  11.675  14.855
98769W        W62537  32.508  11.663  14.852
98770W        W62538  35.532  44.959  10.448
98771W        W62539  36.445  13.147  11.608
98772W        W62540  36.935  31.425   1.698
98773W        W62541  42.010  39.966  13.489
98774W        W62542  44.914  30.064  11.879
98775W        W62543  11.848   0.840  12.979
98776W        W62544  15.738  41.528  10.980
98777W        W62545  39.380  37.832   1.890
98778W        W62546   8.663   2.446  13.488
98779W        W62547   2.410  35.498  13.498
98780W        W62548  38.404   1.389   4.792
98781W        W62549   9.791  19.613  11.979
98782W        W62550  31.127  30.630  12.870
98783W        W62551  42.327  15.718  14.819
98784W        W62552   3.876   9.268  11.567
98785W        W62553  23.096   9.729   4.703
98786W        W62554  32.417  42.497   3.665
98787W        W62555  40.473  29.936   0.742
98788W        W62556  38.934   2.872   4.620
98789W        W62557  39.401  31.471   0.462
98790W        W62558  21.552  38.040   3.260
98791W        W62559  26.609  14.121  11.932
98792W        W62560   9.305  25.214   0.956
98793W        W62561  20.034  42.885   0.751
98794W        W62562  43.882   4.937  12.404
98795W        W62563  29.130  41.808   1.820
98796W        W62564  19.581   8.212   2.781
98797W        W62565  18.640   4.862   3.183
98798W        W62566  40.885  21.179   0.769
98799W        W62567  12.658  10.247  11.559
98800W        W62568  10.825   6.869   1.855
98801W        W62569  30.512   5.858  11.020
98802W        W62570  41.907  27.610   1.912
98803W        W62571  14.679   9.675   2.752
98804W        W62572  16.646  38.556   2.741
98805W        W62573  39.426  44.973   1.855
98806W        W62574   3.239  34.917  13.890
98807W        W62575  33.540  13.229   3.769
98808W        W62576  41.855  38.523  11.995
98809W        W62577  30.079  21.535   4.341
98810W        W62578   7.201   6.783  13.535
98811W        W62579  34.546  24.229   1.236
98812W        W62580   0.347  41.534  14.467
98813W        W62581  28.119  30.134  14.342
98814W        W62582  23.672  39.866   4.348
98815W        W62583  19.734  10.723  12.005
98816W        W62584  22.644  43.890   4.198
98817W        W62585   2.786  19.583   1.357
98818W        W62586  31.913   9.868   0.345
98819W        W62587  29.518  20.560   3.324
98820W        W62588  21.070  16.747  14.497
98821W        W62589  20.738   6.874   3.195
98822W        W62590  26.041   3.923  13.022
98823W        W62591  40.407   1.462  12.881
98824W        W62592  18.584  31.152  12.428
98825W        W62593   7.282  37.938   0.348
98826W        W62594  40.895   6.775  12.955
98827W        W62595  12.122  19.551  13.063
98828W        W62596   9.236  23.546  12.037
98829W        W62597  37.564  36.470  10.478
98830W        W62598  24.178   9.688  11.902
98831W        W62599  38.917  30.925  10.124
98832W        W62600  31.579  28.542  13.897
98833W        W62601  41.035  41.512   4.307
98834W        W62602  39.874   1.379   1.728
98835W        W62603   6.807  31.005  13.880
98836W        W62604  37.468  18.561   5.285
98837W        W62605  19.136  42.336   0.760
98838W        W62606  37.940  40.968  11.606
98839W        W62607  33.930  41.492  13.951
98840W        W62608  27.608   1.276  14.281
98841W        W62609  24.678  27.946   3.708
98842W        W62610  27.196  33.391   0.276
98843W        W62611  21.514  22.570   4.737
98844W        W62612  44.402  24.504   2.310
98845W        W62613  29.634  16.681  14.941
98846W        W62614  30.522   9.667  10.946
98847W        W62615  29.115   3.392  11.384
98848W        W62616  35.525  34.093   1.251
98849W        W62617  29.083  34.050   0.871
98850W        W62618  27.509  11.857  13.325
98851W        W62619  17.679  13.205  11.863
98852W        W62620  20.121  37.049   4.608
98853W        W62621  24.660   2.812   4.198
98854W        W62622   0.299  23.683   1.815
98855W        W62623  27.628  44.296   3.820
98856W        W62624   5.267  38.497  14.410
98857W        W62625  24.535   0.484  13.061
98858W        W62626  11.171  31.632   0.313
98859W        W62627  31.531  18.255  10.084
98860W        W62628  21.592   1.927  11.572
98861W        W62629  44.849   0.341   3.761
98862W        W62630  17.714   3.803   3.150
98863W        W62631  10.654  25.608   2.703
98864W        W62632  42.981  35.983  11.408
98865W        W62633  21.023  33.953  10.962
98866W        W62634  38.898  36.089   2.723
98867W        W62635  42.292  23.223  14.481
98868W        W62636   6.335  26.204  11.556
98869W        W62637  12.630  36.037   4.601
98870W        W62638  41.819   3.294   2.334
98871W        W62639   2.781  41.357   3.656
98872W        W62640  27.178   0.460  11.399
98873W        W62641  33.600  43.345   4.160
98874W        W62642  44.397  29.935  12.424
98875W        W62643  38.949  43.883   4.732
98876W        W62644   0.787  23.196   3.750
98877W        W62645  34.079   2.470  10.523
98878W        W62646  35.887  38.981   2.353
98879W        W62647  20.039  21.540   4.285
98880W        W62648  26.208  20.117  10.442
98881W        W62649   3.459   6.345  11.955
98882W        W62650  44.337  15.713  14.435
98883W        W62651  33.555  15.185  10.600
98884W        W62652  21.116  27.045  14.903
98885W        W62653   4.822  20.766   3.673
98886W        W62654   1.387  32.082   0.764
98887W        W62655  36.538  31.001   3.735
98888W        W62656  37.064  22.741   1.886
98889W        W62657  29.656  44.334  13.538
98890W        W62658   0.302   7.351   3.333
98891W        W62659  40.049  20.748   0.294
98892W        W62660   4.926   7.811  13.852
98893W        W62661   1.386  35.057  13.374
98894W        W62662  41.503  31.914  12.875
98895W        W62663   5.877   2.853  14.849
98896W        W62664  31.627  19.043  14.280
98897W        W62665  22.539  40.965   1.934
98898W        W62666  43.346  28.554  11.989
98899W        W62667  13.146  32.994  13.530
98900W        W62668  40.007  17.611   2.231
98901W        W62669   8.377  44.859   4.653
98902W        W62670   6.183   3.849   1.741
98903W        W62671  25.032  20.272   1.701
98904W        W62672  23.073   4.918  12.085
98905W        W62673  10.703  14.612   9.475
98906W        W62674  15.613  38.554  13.435
98907W        W62675  43.350  38.033  12.385
98908W        W62676  44.927  19.250  14.785
98909W        W62677  19.176  30.117  14.820
98910W        W62678  39.989  28.180  12.474
98911W        W62679  34.413  27.483  10.991
98912W        W62680   2.368  44.988  12.824
98913W        W62681  31.103  14.800  13.954
98914W        W62682  21.151  33.095  11.483
98915W        W62683  43.786  44.977  13.934
98916W        W62684  23.199  10.142   2.268
98917W        W62685   9.859   8.215   3.372
98918W        W62686  38.521  32.477  14.293
98919W        W62687  20.524   5.910   0.922
98920W        W62688   0.933  14.660  10.926
98921W        W62689  22.098   5.214  11.575
98922W        W62690   5.374   5.846  10.637
98923W        W62691  21.726  15.172  14.473
98924W        W62692  13.255  39.042   1.249
98925W        W62693  11.144   6.701  13.820
98926W        W62694  33.382  34.511  13.371
98927W        W62695  22.033  14.189  11.030
98928W        W62696  43.270  41.363   1.771
98929W        W62697  20.652   8.821  11.069
98930W        W62698  22.733  35.059   1.436
98931W        W62699  44.779   8.207  11.016
98932W        W62700  20.135  23.490  12.889
98933W        W62701  24.684  22.017   1.251
98934W        W62702  29.070  18.215  14.821
98935W        W62703  36.511  20.187  13.492
98936W        W62704  22.069  40.915  11.586
98937W        W62705  40.853  41.967  11.066
98938W        W62706   8.875  13.249  13.804
98939W        W62707  14.201  41.840   1.902
98940W        W62708  19.189  12.263  14.761
98941W        W62709   6.687  15.143  11.594
98942W        W62710  11.250   7.347  11.374
98943W        W62711  18.118  25.145   2.220
98944W        W62712  38.032   4.415  11.939
98945W        W62713  22.672  22.106   3.801
98946W        W62714   0.881  24.188   2.235
98947W        W62715  15.098  37.915   0.794
98948W        W62716   5.228  27.504  13.812
98949W        W62717  15.594   4.869   4.285
98950W        W62718  32.061  13.142  11.429
98951W        W62719   9.692   4.902   2.684
98952W        W62720  14.601  36.459  10.946
98953W        W62721  22.080  27.174   2.389
98954W        W62722  25.056  31.972  13.519
98955W        W62723  20.029  36.576  11.531
98956W        W62724  26.497  25.110  12.939
98957W        W62725  28.153  21.707   3.367
98958W        W62726  13.753   2.958   4.616
98959W        W62727  16.074  21.603   2.747
98960W        W62728  19.222  11.336   2.667
98961W        W62729  28.483  30.010  11.598
98962W        W62730  38.979  43.354  11.446
98963W        W62731   2.468  34.574  13.494
98964W        W62732  23.668  34.516  13.035
98965W        W62733   8.698  14.107   4.687
98966W        W62734  32.524  22.609   1.309
98967W        W62735  37.559  44.842  13.889
98968W        W62736  27.146  10.143   9.952
98969W        W62737  29.644  29.652  10.407
98970W        W62738  42.000  24.132   4.195
98971W        W62739   2.415  12.843  11.956
98972W        W62740   1.286  36.461   2.667
98973W        W62741  23.631  23.138  10.514
98974W        W62742  25.673  40.365   0.283
98975W        W62743  15.717  25.485   4.816
98976W        W62744  10.688  20.674   1.443
98977W        W62745  23.629  32.999   4.661
98978W        W62746  22.618  41.534  13.876
98979W        W62747  22.081  32.522  14.804
98980W        W62748  26.025   1.921  12.925
98981W        W62749  36.953  24.691   2.772
98982W        W62750  10.304  34.038  14.975
98983W        W62751  15.786  16.758  11.019
98984W        W62752  40.317   7.351  14.328
98985W        W62753  34.569   8.375  13.402
98986W        W62754  11.230   1.412   2.353
98987W        W62755  13.817  32.045  12.972
98988W        W62756   8.672   9.247  13.502
98989W        W62757   5.217   8.320  10.548
98990W        W62758  42.352  10.812   0.307
98991W        W62759  39.865  31.001  14.323
98992W        W62760  21.205  20.162   5.269
98993W        W62761  39.019   7.907  12.416
98994W        W62762  21.179  16.252   3.188
98995W        W62763  13.328  12.252   1.358
98996W        W62764  38.958   1.435  13.439
98997W        W62765   5.764  28.668   4.182
98998W        W62766  10.801  38.502  14.424
98999W        W62767  24.046  15.132   4.285
99000W        W62768   1.300   7.221  10.902
99001W        W62769  39.547   2.959   3.703
99002W        W62770  32.604   2.862  10.414
99003W        W62771  13.287  25.494   1.386
99004W        W62772  26.475   3.297  12.367
99005W        W62773  27.043  16.195   0.404
99006W        W62774  28.164  32.597  14.442
99007W        W62775  15.151   9.882  11.575
99008W        W62776  32.473  40.434   0.900
99009W        W62777  12.330  42.290  14.500
99010W        W62778   4.324   6.373  13.914
99011W        W62779   0.984  11.662  10.550
99012W        W62780  18.555  22.746  11.392
99013W        W62781  40.490  44.403  12.830
99014W        W62782  29.530  19.163   4.808
99015W        W62783  12.352   8.325   2.374
99016W        W62784  25.596   5.880  14.764
99017W        W62785  36.483  16.784  10.949
99018W        W62786  24.187  24.622   3.682
99019W        W62787  40.406  30.142   2.763
99020W        W62788  29.918  30.541   3.718
99021W        W62789  44.296  42.809   2.686
99022W        W62790  22.658  44.448   1.717
99023W        W62791  25.550   5.922  13.321
99024W        W62792   2.906  42.861   2.208
99025W        W62793   5.798  18.159   1.360
99026W        W62794   4.910  14.322   1.935
99027W        W62795  44.999  43.937  10.636
99028W        W62796   9.174  44.948   4.311
99029W        W62797  27.107   2.811  11.948
99030W        W62798  37.881  12.322  10.472
99031W        W62799  23.177  44.917  12.548
99032W        W62800  27.147  32.622   0.918
99033W        W62801  42.011  33.042   0.921
99034W        W62802  25.685   3.827  12.932
99035W        W62803  38.473   2.471   3.295
99036W        W62804  34.376  34.992   1.751
99037W        W62805  16.717  16.770   0.404
99038W        W62806  17.179  29.467   2.253
99039W        W62807  20.132  31.059   4.811
99040W        W62808   4.879  12.152  14.349
99041W        W62809  17.153   1.311   2.673
99042W        W62810   1.931  34.866   5.254
99043W        W62811  15.685  16.151  14.364
99044W        W62812  28.660  28.648   2.902
99045W        W62813   4.284  34.392  10.958
99046W        W62814  13.733  44.911   4.142
99047W        W62815  12.183  43.278  13.440
99048W        W62816   7.312  20.536  10.424
99049W        W62817  30.440  16.569  12.573
99050W        W62818  20.625  44.807   4.667
99051W        W62819  29.574  26.548  11.399
99052W        W62820  24.153  21.558   0.349
99053W        W62821  15.307  38.517   4.597
99054W        W62822  27.564   8.702   4.809
99055W        W62823   4.781  15.708   3.835
99056W        W62824  12.190  11.795   4.773
99057W        W62825   7.245  19.257  10.579
99058W        W62826  41.041  14.784   0.765
99059W        W62827   7.774   5.205   2.781
99060W        W62828  42.980  31.904  12.007
99061W        W62829  24.542  34.392   0.437
99062W        W62830  41.523   4.761   9.943
99063W        W62831  30.127  23.006  14.437
99064W        W62832   9.692  28.500   0.784
99065W        W62833  10.213  37.926  11.018
99066W        W62834  41.417  38.379  10.603
99067W        W62835  12.281   8.327  11.387
99068W        W62836  37.925  41.859  12.414
99069W        W62837   3.939  30.635   4.644
99070W        W62838  24.218  14.160  14.449
99071W        W62839  38.971  31.593   3.310
99072W        W62840  38.541  24.673  14.363
99073W        W62841  44.491  22.551  10.149
99074W        W62842   6.713  26.012  12.393
99075W        W62843  15.315  39.416  10.924
99076W        W62844  31.908  40.875  11.400
99077W        W62845  42.936  12.187   3.868
99078W        W62846  15.187  29.485   3.293
99079W        W62847  23.157  36.074   1.792
99080W        W62848  15.240  33.115   0.467
99081W        W62849  27.539  21.165   3.376
99082W        W62850  39.428  16.658  10.977
99083W        W62851  33.051  23.198   3.270
99084W        W62852  41.489  33.014   4.201
99085W        W62853  27.461   9.815   2.220
99086W        W62854  44.858  38.341   4.317
99087W        W62855  23.665  35.413   4.134
99088W        W62856  21.726  15.632  12.912
99089W        W62857  22.617  26.962  12.055
99090W        W62858  33.447  43.459  14.819
99091W        W62859  33.940  21.539  12.838
99092W        W62860  28.024  28.167   2.287
99093W        W62861  16.287  13.278  13.823
99094W        W62862   5.908   0.335   3.772
99095W        W62863  20.130   1.767   2.775
99096W        W62864   0.979   1.749   4.780
99097W        W62865  40.032   4.778  10.481
99098W        W62866  39.534   1.896   3.856
99099W        W62867  24.480  39.458  13.415
99100W        W62868  24.063  10.669   1.884
99101W        W62869  28.093   0.430  12.878
99102W        W62870  27.575  14.667   2.735
99103W        W62871  15.753  37.905   2.401
99104W        W62872  20.650  31.463   2.672
99105W        W62873  35.515  35.064   1.930
99106W        W62874  10.764  29.509  13.392
99107W        W62875   0.324  27.992   3.213
99108W        W62876   2.304   7.864   3.804
99109W        W62877  21.689  31.097  14.808
99110W        W62878  32.517  22.111   1.375
99111W        W62879  32.950  28.111   3.332
99112W        W62880   4.431  30.566  13.342
99113W        W62881   6.251  12.323  10.491
99114W        W62882  35.048  28.009  13.873
99115W        W62883  30.123  12.815  11.606
99116W        W62884   8.370   7.845   4.266
99117W        W62885  21.547  31.588   1.355
99118W        W62886  10.155   6.292   4.760
99119W        W62887  33.575  36.892   3.275
99120W        W62888  25.217  41.924  11.527
99121W        W62889  42.320  13.215  12.514
99122W        W62890  14.678  30.966   2.679
99123W        W62891   2.338  33.909  10.098
99124W        W62892  13.324  34.113  12.881
99125W        W62893  27.019  27.532   4.137
99126W        W62894  38.351   2.883   3.277
99127W        W62895   7.801  22.658   2.874
99128W        W62896   4.248  31.412   2.183
99129W        W62897  29.987  42.320  13.410
99130W        W62898  44.758  41.907   0.272
99131W        W62899  22.726   3.330  14.804
99132W        W62900  19.713  24.612  13.327
99133W        W62901  23.215  40.302   2.215
99134W        W62902  41.010  18.269   2.846
99135W        W62903   1.438  12.731  14.902
99136W        W62904  29.442  33.450  11.495
99137W        W62905  39.878  37.081   4.693
99138W        W62906  43.905   6.334   3.774
99139W        W62907  24.649   7.684   2.252
99140W        W62908   0.352   0.248  10.591
99141W        W62909  30.435  20.033  11.024
99142W        W62910  20.215  11.328  12.946
99143W        W62911  30.128  26.129  13.522
99144W        W62912  13.244  18.700   3.276
99145W        W62913  39.363  10.299  14.308
99146W        W62914  43.375  40.993   3.853
99147W        W62915   2.730  34.103   2.202
99148W        W62916  41.453  13.285   4.634
99149W        W62917  28.939  28.937   4.613
99150W        W62918  27.535  31.911  14.909
99151W        W62919  25.028  39.543  12.414
99152W        W62920   3.816  22.035  10.989
99153W        W62921   3.792  27.449  11.889
99154W        W62922  27.461   4.846  10.965
99155W        W62923  34.044  41.040  11.112
99156W        W62924   6.760  26.475   1.913
99157W        W62925  20.570   6.699  10.435
99158W        W62926  23.553   5.719  14.418
99159W        W62927  39.471  14.135   2.231
99160W        W62928   7.704  35.957   5.221
99161W        W62929  25.111   9.666  10.537
99162W        W62930  28.549   4.344   1.243
99163W        W62931  20.106   1.764   4.738
99164W        W62932   9.716  38.489   0.332
99165W        W62933  25.563  12.802  14.789
99166W        W62934  24.600   1.328   4.273
99167W        W62935  13.813  23.051   3.808
99168W        W62936  21.219  37.397   4.170
99169W        W62937  13.287  21.604  11.597
99170W        W62938  20.099  17.650  10.548
99171W        W62939  18.277  21.208   4.156
99172W        W62940  16.582  22.087   1.703
99173W        W62941   9.792  32.970   1.771
99174W        W62942  32.935  17.297  10.890
99175W        W62943  32.988  31.984  11.890
99176W        W62944  36.481  27.145  14.018
99177W        W62945  29.427  17.771  14.791
99178W        W62946  31.977  24.189  13.499
99179W        W62947  20.525  43.826  11.937
99180W        W62948  15.329   7.681  12.002
99181W        W62949  43.966  19.644  14.023
99182W        W62950   4.774  20.628  14.011
99183W        W62951   0.406  22.071   4.157
99184W        W62952   5.768  10.371   3.346
99185W        W62953  19.589  29.123  12.906
99186W        W62954  13.182   9.273  14.026
99187W        W62955  28.989  17.254  12.577
99188W        W62956  15.116   4.813  11.580
99189W        W62957  32.613   9.150  12.577
99190W        W62958  14.305  34.403  13.026
99191W        W62959  13.143  16.232  10.543
99192W        W62960  22.120  29.649  12.096
99193W        W62961  25.577  19.269   4.139
99194W        W62962  21.258   6.884  11.028
99195W        W62963  35.533  40.982  11.551
99196W        W62964  27.184   0.858  11.111
99197W        W62965  43.993   7.854   4.807
99198W        W62966   2.456   1.769  14.427
99199W        W62967   0.338   9.654   3.275
99200W        W62968  42.421   6.815   0.754
99201W        W62969  22.631  18.208  10.594
99202W        W62970   0.476  13.120  10.452
99203W        W62971   3.285  35.436  11.505
99204W        W62972  36.358  11.179  12.957
99205W        W62973  20.172  23.053  11.428
99206W        W62974  28.969  25.099   0.399
99207W        W62975  41.040  12.330  11.120
99208W        W62976  11.855  10.166   3.239
99209W        W62977  11.352  36.974   1.772
99210W        W62978  15.220  17.262   0.955
99211W        W62979   3.323  29.119   0.875
99212W        W62980   2.294  36.876   4.827
99213W        W62981  36.426  29.641   3.327
99214W        W62982  30.961  40.012   2.683
99215W        W62983  10.361   7.182  14.807
99216W        W62984  37.053  21.125  12.434
99217W        W62985  30.153  26.042  12.350
99218W        W62986  34.006  44.478  10.141
99219W        W62987  35.369  31.455  13.415
99220W        W62988  22.244   6.187  10.961
99221W        W62989   2.829  26.555   0.268
99222W        W62990  38.056   3.382   3.710
99223W        W62991  36.364  31.131   2.734
99224W        W62992  37.537  22.691   3.278
99225W        W62993  37.038  30.494  13.809
99226W        W62994  17.268  22.546  10.447
99227W        W62995  21.220  27.178  12.443
99228W        W62996  11.862  38.896  12.062
99229W        W62997  12.227  36.474   0.281
99230W        W62998  37.994  35.483   3.669
99231W        W62999  11.165   7.376   4.150
99232W        W63000   6.232  30.533   2.674
99233W        W63001  44.384  18.626   0.801
99234W        W63002   8.787   8.282  12.085
99235W        W63003  41.364   9.282  13.046
99236W        W63004  22.013  13.717  14.876
99237W        W63005  19.644  39.324   4.627
99238W        W63006  18.214  24.183  12.826
99239W        W63007  41.308  16.593  10.429
99240W        W63008  26.099  15.304   3.194
99241W        W63009   7.707  37.443  11.109
99242W        W63010  24.588  16.213   1.371
99243W        W63011  13.763  32.920  10.916
99244W        W63012   3.353  34.115  11.414
99245W        W63013  10.846  24.588  14.464
99246W        W63014   7.417  29.631  12.973
99247W        W63015  42.983  41.296  10.024
99248W        W63016   9.287  26.679   1.800
99249W        W63017  25.169   8.879  14.848
99250W        W63018   2.444   6.752   2.214
99251W        W63019  43.502  42.386  12.824
99252W        W63020  19.135   8.260   1.430
99253W        W63021  29.468   2.733  10.540
99254W        W63022   9.342  22.217   4.223
99255W        W63023  32.131  42.340   1.929
99256W        W63024  11.659   7.865  12.055
99257W        W63025  25.031  33.074  12.554
99258W        W63026  25.534  39.955  13.466
99259W        W63027  37.843  43.499   2.715
99260W        W63028   6.851   1.922   0.906
99261W        W63029  38.878  38.988   4.353
99262W        W63030  22.509   6.691   4.774
99263W        W63031  20.079  37.527   2.703
99264W        W63032  39.878  16.639  14.392
99265W        W63033  33.472  41.457   9.939
99266W        W63034  37.486  11.206  14.971
99267W        W63035  18.557  21.177  12.441
99268W        W63036  35.973  38.938   1.430
99269W        W63037  42.899  27.488  13.859
99270W        W63038  16.103  29.585  12.510
99271W        W63039   5.239  32.596  10.422
99272W        W63040  35.954   9.748   4.134
99273W        W63041  15.180  31.058   0.802
99274W        W63042  21.046   4.845   2.750
99275W        W63043   1.347  33.585   3.318
99276W        W63044  21.625  22.113  13.470
99277W        W63045  25.989  31.915   9.496
99278W        W63046   1.411  43.888   4.715
99279W        W63047  12.847  25.593  14.437
99280W        W63048  34.401  26.096  10.432
99281W        W63049  14.645   4.440  14.354
99282W        W63050  28.681  13.670  12.423
99283W        W63051  15.580  26.087  12.431
99284W        W63052  39.454  42.811   0.889
99285W        W63053  14.713  29.568   4.660
99286W        W63054  11.279  30.456  12.415
99287W        W63055   5.783  28.037   2.325
99288W        W63056  23.205  35.025  12.449
99289W        W63057   3.360  35.579  14.362
99290W        W63058  44.443  26.184  10.604
99291W        W63059  26.014  35.520   2.662
99292W        W63060  16.615  17.657  13.883
99293W        W63061  15.788  20.540  11.597
99294W        W63062  43.812  34.011  12.515
99295W        W63063  29.059  29.969  10.929
99296W        W63064  32.001   5.285  10.968
99297W        W63065   4.292  42.282  12.424
99298W        W63066   9.691  24.623  10.446
99299W        W63067  15.281  29.108  13.319
99300W        W63068  31.409   1.934   2.757
99301W        W63069   3.361  24.626   2.184
99302W        W63070   8.658  32.602  10.957
99303W        W63071   3.747   9.372   1.311
99304W        W63072   4.393   9.367   3.812
99305W        W63073   1.342  14.273  13.414
99306W        W63074  36.970  40.390  12.418
99307W        W63075  30.097  16.651   9.941
99308W        W63076  39.986  39.893  12.872
99309W        W63077   1.849   8.783  12.529
99310W        W63078  17.262   5.342   0.856
99311W        W63079  40.953  38.934   0.427
99312W        W63080  26.502  42.315  14.474
99313W        W63081   0.906  38.457   1.361
99314W        W63082  31.646  41.398   1.781
99315W        W63083  35.871   4.270   3.782
99316W        W63084  14.208  24.701  12.397
99317W        W63085  31.946  36.962  10.629
99318W        W63086   2.840  13.188  11.972
99319W        W63087  22.078  22.215   1.922
99320W        W63088  10.739  28.654   2.871
99321W        W63089  16.232   4.218   2.298
99322W        W63090  20.570   5.397   4.643
99323W        W63091  21.619  26.630   1.364
99324W        W63092  25.633  21.732  14.846
99325W        W63093  12.118   7.238  14.778
99326W        W63094  41.859  40.986   2.402
99327W        W63095  11.130  15.250   1.316
99328W        W63096  14.146  33.426  14.382
99329W        W63097  25.699  19.614  14.024
99330W        W63098  37.581  25.969   0.938
99331W        W63099  28.087  16.657   4.203
99332W        W63100  27.545  31.591  13.310
99333W        W63101   6.873  17.292   2.729
99334W        W63102   1.431  16.792   4.318
99335W        W63103  35.074   2.850   1.788
99336W        W63104  41.426  12.702   3.202
99337W        W63105   4.266   6.232   0.828
99338W        W63106  38.054   7.271  14.006
99339W        W63107  41.885  43.863  13.373
99340W        W63108  44.467  39.327   1.694
99341W        W63109  12.249  44.944  14.389
99342W        W63110   0.470  17.762   3.743
99343W        W63111  34.868  29.570   1.335
99344W        W63112  20.061  25.696   3.267
99345W        W63113  13.298  11.859   3.705
99346W        W63114  38.407  27.026   2.833
99347W        W63115   9.243  40.897   1.847
99348W        W63116  41.964  34.035  14.280
99349W        W63117  13.199  27.000   2.736
99350W        W63118   5.692   6.203   3.275
99351W        W63119   1.949   6.428  10.433
99352W        W63120  27.098   6.834   4.780
99353W        W63121  24.998   8.731  13.869
99354W        W63122  29.511  43.995  13.947
99355W        W63123   2.815   1.320   2.703
99356W        W63124  34.980   4.748  11.938
99357W        W63125  43.961  22.038   1.727
99358W        W63126   4.373  13.753   1.286
99359W        W63127  34.886   6.231   4.306
99360W        W63128  21.226  36.493   2.192
99361W        W63129   7.754  27.572   0.302
99362W        W63130  32.399  24.699   3.365
99363W        W63131  35.989  19.266   4.281
99364W        W63132  33.392  28.505   3.241
99365W        W63133  31.407  37.060  14.796
99366W        W63134  24.988  33.069  14.443
99367W        W63135   6.376  28.131   4.246
99368W        W63136  14.602   3.850   0.881
99369W        W63137  10.759  35.063   0.264
99370W        W63138  20.661   2.860  14.911
99371W        W63139  30.614   8.324   4.699
99372W        W63140  41.305  28.022   2.728
99373W        W63141  20.711   9.252   1.311
99374W        W63142  36.853   2.312  12.349
99375W        W63143  33.575  15.588  14.966
99376W        W63144  36.486   9.149  11.922
99377W        W63145   8.728  30.453   4.135
99378W        W63146  14.762  25.220   2.791
99379W        W63147  13.620  44.859  14.429
99380W        W63148  34.097   5.332  14.893
99381W        W63149  41.442  24.577   3.201
99382W        W63150  33.548  10.267   4.631
99383W        W63151  30.497   0.753   0.470
99384W        W63152  29.951   5.225   0.361
99385W        W63153   9.699  18.184   2.689
99386W        W63154  22.700   5.281  14.925
99387W        W63155   0.969  30.955   3.844
99388W        W63156  37.072   8.344  12.864
99389W        W63157  14.744  16.264  12.414
99390W        W63158  14.766  15.625   4.205
99391W        W63159   0.947  34.567   2.751
99392W        W63160   5.391  17.801  14.495
99393W        W63161  31.130  42.417  13.319
99394W        W63162   2.328  32.889  13.383
99395W        W63163  21.574   2.851   1.277
99396W        W63164  15.813  12.214  12.477
99397W        W63165   1.955  32.493   0.453
99398W        W63166  35.866  29.437  12.841
99399W        W63167  14.271  17.205  14.473
99400W        W63168  27.141  15.718  10.037
99401W        W63169  34.444  19.218  14.307
99402W        W63170  22.595   4.699  11.941
99403W        W63171  41.310  17.691  12.427
99404W        W63172  39.380   3.832   3.171
99405W        W63173  41.438  12.351   0.839
99406W        W63174  21.087  18.771  10.938
99407W        W63175  20.049  18.141  14.392
99408W        W63176  34.423   9.866   3.375
99409W        W63177  32.978  24.583  14.983
99410W        W63178  18.633  29.143   1.443
99411W        W63179  11.332  41.797  13.409
99412W        W63180  30.651  30.952  11.893
99413W        W63181  41.909  42.500  13.906
99414W        W63182  38.028  24.610  12.438
99415W        W63183  11.836  17.623   1.743
99416W        W63184   0.852  31.413  10.637
99417W        W63185   3.882  14.103  10.523
99418W        W63186   7.843  42.968  12.060
99419W        W63187  11.286  32.405  13.367
99420W        W63188   0.344  11.354  10.588
99421W        W63189  37.835  16.754   1.248
99422W        W63190  14.306  40.525  12.001
99423W        W63191   3.422  40.999   1.897
99424W        W63192  34.054   7.718  10.529
99425W        W63193   1.477   0.473   4.819
99426W        W63194  31.515  44.281  13.949
99427W        W63195  12.279  23.122   1.855
99428W        W63196   9.778  15.328   0.281
99429W        W63197  40.455  12.733   9.973
99430W        W63198  33.130   6.364  14.785
99431W        W63199  37.407   7.350  12.431
99432W        W63200  15.116  38.995   1.715
99433W        W63201  34.410  24.720  11.941
99434W        W63202  26.017  25.552  13.456
99435W        W63203   6.226  27.946  13.371
99436W        W63204  22.668  44.322  11.477
99437W        W63205  22.746  28.651  13.052
99438W        W63206  41.955  11.157   1.451
99439W        W63207   8.244  10.692   4.632
99440W        W63208   3.930  28.634   1.266
99441W        W63209   4.771   6.750  13.960
99442W        W63210  40.959  43.401   4.702
99443W        W63211  33.407  34.555   3.353
99444W        W63212  15.188  42.019   2.341
99445W        W63213  34.983  27.615  11.994
99446W        W63214   3.288  28.965   1.773
99447W        W63215   7.716  40.468   4.202
99448W        W63216  25.193  36.529   3.866
99449W        W63217  23.091   5.231  14.981
99450W        W63218  17.229  31.532   1.837
99451W        W63219  28.983   6.677   1.808
99452W        W63220  24.531   8.736   0.399
99453W        W63221  15.195   7.817   4.756
99454W        W63222  42.995  41.447   0.397
99455W        W63223   0.442  24.184   2.237
99456W        W63224  28.969  12.804   0.733
99457W        W63225  32.086  19.584  13.419
99458W        W63226  14.259  42.998  14.436
99459W        W63227  35.996  18.206  12.473
99460W        W63228  25.706  18.281   1.829
99461W        W63229  22.025  24.194   1.408
99462W        W63230  41.452  22.115   1.242
99463W        W63231   3.827  21.536   0.905
99464W        W63232  15.237  31.475   2.806
99465W        W63233  32.068  11.312   0.894
99466W        W63234  27.967   8.713   0.766
99467W        W63235  32.104  37.046   2.673
99468W        W63236   6.874  21.597  11.121
99469W        W63237   3.798  24.637   3.381
99470W        W63238   1.402  25.537   2.807
99471W        W63239  39.047  35.519  13.322
99472W        W63240  20.135  39.811   4.733
99473W        W63241  36.078  34.054   0.838
99474W        W63242  22.701  20.582  12.029
99475W        W63243   7.300  33.948  12.072
99476W        W63244  35.970   5.787  11.435
99477W        W63245  24.060   0.833  12.094
99478W        W63246  23.167  41.886  14.906
99479W        W63247   5.823  16.186  12.096
99480W        W63248  35.092  22.198  13.337
99481W        W63249  12.202   1.436   4.207
99482W        W63250  10.171   9.195   4.302
99483W        W63251  43.394   7.279   1.296
99484W        W63252  27.028  36.407  11.451
99485W        W63253  29.596  19.213   3.871
99486W        W63254   1.824  15.690   0.825
99487W        W63255   0.751  35.092  10.578
99488W        W63256   2.416  26.623  14.992
99489W        W63257  17.258  18.238   3.817
99490W        W63258  29.472  41.961  14.868
99491W        W63259  42.472  31.931  12.043
99492W        W63260  33.609  24.678  12.883
99493W        W63261   2.455  26.529  10.060
99494W        W63262  41.982  27.456  10.618
99495W        W63263  33.529   8.751   0.293
99496W        W63264   7.321   0.917  10.525
99497W        W63265   3.911  43.997  14.952
99498W        W63266   4.872  12.638  12.440
99499W        W63267  17.760   3.851   2.870
99500W        W63268  33.395   2.928  14.838
99501W        W63269   6.848  19.631  11.984
99502W        W63270  42.935   0.363  14.852
99503W        W63271   1.961   9.853  11.446
99504W        W63272  23.560  25.049   1.224
99505W        W63273   2.464  12.219   4.255
99506W        W63274  44.890  20.053  11.487
99507W        W63275  41.860   0.960   2.666
99508W        W63276  25.643  40.835  14.963
99509W        W63277   2.828  43.387   0.856
99510W        W63278  25.058  40.929   4.288
99511W        W63279  17.228  36.028   0.958
99512W        W63280  44.982   5.408  11.610
99513W        W63281  38.324  23.489  13.966
99514W        W63282   6.425  15.160  10.943
99515W        W63283  24.204  27.628   0.845
99516W        W63284  39.989   6.814   0.946
99517W        W63285  43.328  22.722   0.745
99518W        W63286  14.713  24.723   2.795
99519W        W63287  18.619  11.220   1.426
99520W        W63288  41.949  27.098   1.354
99521W        W63289  24.220  26.099  12.440
99522W        W63290  18.136   2.378  13.939
99523W        W63291  39.517   1.456  14.412
99524W        W63292  25.028  12.661  12.537
99525W        W63293  35.501  44.412   0.760
99526W        W63294  30.990  33.932  12.022
99527W        W63295  40.517   1.240   4.637
99528W        W63296  14.154   7.235   1.329
99529W        W63297   9.729   9.806   1.344
99530W        W63298  16.222  30.570  10.613
99531W        W63299  11.805  36.523   3.309
99532W        W63300   4.936  37.885  14.823
99533W        W63301  27.692  44.754   0.904
99534W        W63302  33.128   1.432   3.201
99535W        W63303   5.755  23.090   3.786
99536W        W63304  15.246  25.973   4.317
99537W        W63305  31.149  30.164   1.732
99538W        W63306  39.845  11.340   3.774
99539W        W63307   3.722   9.710  14.444
99540W        W63308   4.790  15.160   2.336
99541W        W63309  16.631  13.716  10.517
99542W        W63310  22.164  29.127   1.261
99543W        W63311   4.768   9.823   1.828
99544W        W63312  43.979  17.258   2.825
99545W        W63313  12.264  33.545  12.415
99546W        W63314  26.113  10.293  10.432
99547W        W63315  23.174   7.378   1.272
99548W        W63316  35.070  18.777   2.299
99549W        W63317  30.582   5.907   4.613
99550W        W63318  15.112  10.383   3.652
99551W        W63319  31.435  26.669  13.038
99552W        W63320  20.162   4.847  14.468
99553W        W63321  22.183   9.359  11.086
99554W        W63322  40.018  27.990   4.618
99555W        W63323   5.816  16.260  12.981
99556W        W63324  31.487  27.623   2.195
99557W        W63325   6.835  19.061  14.456
99558W        W63326  16.079  22.143   3.660
99559W        W63327  16.263  44.767   1.778
99560W        W63328  20.060   4.923   0.820
99561W        W63329  40.020  19.627  13.964
99562W        W63330  32.562  25.145  12.397
99563W        W63331  22.743  38.827   4.123
99564W        W63332  16.678   2.837  14.813
99565W        W63333  34.396  36.443  13.961
99566W        W63334  10.270   1.919   2.359
99567W        W63335   9.388   7.715  12.480
99568W        W63336  15.141  34.563   3.195
99569W        W63337   5.356  19.761  14.472
99570W        W63338  38.904  20.722  12.388
99571W        W63339   9.760  11.748  13.946
99572W        W63340   2.724  14.758   4.293
99573W        W63341  20.236  23.639   2.830
99574W        W63342  42.356  39.413   4.691
99575W        W63343  44.995   4.335  12.910
99576W        W63344  25.496  37.361  12.953
99577W        W63345   6.239  26.954   4.733
99578W        W63346  11.688  40.347   1.858
99579W        W63347  37.840  19.582  14.804
99580W        W63348  32.052  36.871  11.429
99581W        W63349  38.037  24.097   1.253
99582W        W63350  44.388  44.406  14.363
99583W        W63351  25.594   7.190  10.149
99584W        W63352  18.078  25.600  14.889
99585W        W63353  14.754  33.555  12.037
99586W        W63354  44.337  38.925   0.957
99587W        W63355  27.086   4.793  10.027
99588W        W63356   0.757   8.756  14.287
99589W        W63357  18.576  40.488   4.206
99590W        W63358  18.266  26.465  12.932
99591W        W63359  41.479  30.588  11.013
99592W        W63360   5.825  17.097  14.840
99593W        W63361  35.487  24.671  11.066
99594W        W63362  32.945  41.030  11.521
99595W        W63363  34.984  30.088   1.740
99596W        W63364  36.937  23.718  12.048
99597W        W63365  10.756  14.835   1.271
99598W        W63366   9.713  26.679  14.350
99599W        W63367  37.432   2.403   2.361
99600W        W63368  43.501  19.156  14.306
99601W        W63369  23.529  11.250   1.839
99602W        W63370  18.223  28.651  11.585
99603W        W63371  16.264  18.141  14.410
99604W        W63372   1.906  36.539   2.208
99605W        W63373  40.548  29.545  13.477
99606W        W63374  21.163  26.522   0.880
99607W        W63375  32.492  27.959   0.903
99608W        W63376  36.880  18.761  12.385
99609W        W63377   7.173  18.104   4.674
99610W        W63378  13.667  40.833  11.485
99611W        W63379  13.316  10.870   2.874
99612W        W63380  28.537  28.438  12.927
99613W        W63381   8.370   4.428   0.458
99614W        W63382  28.486   6.790  10.619
99615W        W63383  44.004  17.754  11.409
99616W        W63384  35.071  24.165   1.901
99617W        W63385   9.647  22.704   1.219
99618W        W63386  19.705  21.669  13.988
99619W        W63387  16.191  14.664   2.789
99620W        W63388   6.785  17.283  13.031
99621W        W63389  14.614   2.729  14.482
99622W        W63390   0.411  38.049   2.402
99623W        W63391  22.218  33.536  12.078
99624W        W63392   5.794  32.469   4.800
99625W        W63393  28.609   3.408   0.812
99626W        W63394  16.681  14.317  13.932
99627W        W63395  42.519  43.941   0.757
99628W        W63396   8.725  22.590  11.582
99629W        W63397  18.683  20.040  13.332
99630W        W63398   8.284   0.417  11.509
99631W        W63399   5.729   6.347  14.888
99632W        W63400  19.602  25.603  14.860
99633W        W63401  15.714  35.048   1.845
99634W        W63402  25.617  37.978   0.908
99635W        W63403  43.486  42.979   4.804
99636W        W63404  33.983  14.598  13.379
99637W        W63405  10.749   5.241  11.959
99638W        W63406  25.984   6.850  14.505
99639W        W63407  33.052  41.295  14.796
99640W        W63408   0.957  32.125   4.251
99641W        W63409  23.619  32.086   1.740
99642W        W63410  30.500   1.411   1.287
99643W        W63411  25.496  30.565  11.012
99644W        W63412  27.049  38.877   0.763
99645W        W63413  25.201  15.747  12.066
99646W        W63414  40.854  20.565   3.366
99647W        W63415   7.800   3.874  12.442
99648W        W63416  31.489  24.129   0.875
99649W        W63417  36.848   0.311  14.440
99650W        W63418  20.721  34.999   0.451
99651W        W63419  19.149  37.500   2.317
99652W        W63420   5.711  32.468   3.789
99653W        W63421   6.783  14.737  13.472
99654W        W63422  32.041  21.515   1.436
99655W        W63423  39.513  26.097  13.364
99656W        W63424  44.414   0.907   4.177
99657W        W63425  44.920  38.413   2.740
99658W        W63426  25.004  28.171  10.928
99659W        W63427  19.612  21.138   0.390
99660W        W63428  28.180   6.351   3.849
99661W        W63429  26.573   8.203  12.486
99662W        W63430   8.269  19.727   4.693
99663W        W63431  38.520  26.529  11.518
99664W        W63432  10.308  34.054  10.440
99665W        W63433   0.929   3.220   5.299
99666W        W63434  19.732  19.610  12.513
99667W        W63435  23.027  18.698   3.336
99668W        W63436   0.266  20.095  13.333
99669W        W63437  37.992  44.969   1.249
99670W        W63438  22.138  17.192  12.015
99671W        W63439  17.604  18.052  14.473
99672W        W63440  33.009  16.567  14.410
99673W        W63441   4.720   6.386  13.052
99674W        W63442   1.369   2.456  11.966
99675W        W63443  40.484  36.354  13.335
99676W        W63444  40.935  31.573   0.478
99677W        W63445  34.377  35.387  10.446
99678W        W63446   9.155  39.508  11.420
99679W        W63447  31.041  40.853   0.270
99680W        W63448  44.299  22.063   1.847
99681W        W63449  28.593  23.201   0.305
99682W        W63450  20.262  18.119  13.399
99683W        W63451  25.120  22.078  12.575
99684W        W63452  25.714  18.759  14.851
99685W        W63453  33.049  24.095  10.554
99686W        W63454  35.471   8.860  11.097
99687W        W63455  26.066  41.531   0.391
99688W        W63456  10.752  14.298  14.431
99689W        W63457  37.545  20.274  11.424
99690W        W63458  12.833   5.906  14.854
99691W        W63459   7.240  40.868  12.576
99692W        W63460  23.595  26.486   3.866
99693W        W63461  39.930  38.487  11.515
99694W        W63462  39.894  34.532   2.668
99695W        W63463  28.547   7.268   3.823
99696W        W63464  28.957   0.910   2.408
99697W        W63465  14.280  27.998  14.810
99698W        W63466  38.045  19.168   1.703
99699W        W63467  31.038  42.385   3.230
99700W        W63468   7.362  11.286   4.705
99701W        W63469  18.598  26.969  10.613
99702W        W63470  43.409  23.697  12.093
99703W        W63471  37.888  39.552   2.380
99704W        W63472  23.732   0.832   1.764
99705W        W63473  12.765  39.866  10.969
99706W        W63474  14.134  24.016  11.376
99707W        W63475  29.432   9.355  10.597
99708W        W63476   7.417   9.347  14.466
99709W        W63477  17.590   6.280   2.276
99710W        W63478  11.312  25.053  13.016
99711W        W63479  35.880  33.441   3.264
99712W        W63480  13.223  40.379  10.931
99713W        W63481  30.004   7.763   0.475
99714W        W63482  30.631  18.153   4.200
99715W        W63483  25.702  16.091   2.394
99716W        W63484  26.624   7.291  10.543
99717W        W63485  33.455  18.174  14.344
99718W        W63486   9.867   1.246   1.757
99719W        W63487   3.947  33.021   3.280
99720W        W63488  28.542  30.135   3.687
99721W        W63489  44.349  28.671   1.921
99722W        W63490  10.870  27.679  10.416
99723W        W63491  14.770  21.107   3.742
99724W        W63492  29.612  11.183   3.380
99725W        W63493  20.267  10.179   1.382
99726W        W63494   3.845  36.990  11.378
99727W        W63495   3.940  13.277  10.473
99728W        W63496  41.984  15.702   4.163
99729W        W63497  26.122   8.701  11.090
99730W        W63498  24.629  16.152  13.527
99731W        W63499  19.562   0.483   1.351
99732W        W63500  15.272  16.585  12.996
99733W        W63501  38.475  15.125   0.795
99734W        W63502  23.690  21.137  11.498
99735W        W63503   4.838  17.068   1.241
99736W        W63504  13.608   4.308  11.414
99737W        W63505   2.424  28.444   3.767
99738W        W63506  44.947   4.863   3.239
99739W        W63507  30.999  11.280  14.822
99740W        W63508  33.063  16.072   3.263
99741W        W63509  34.863  14.248  10.542
99742W        W63510  42.866   1.976   2.805
99743W        W63511  22.122  35.030   1.817
99744W        W63512  20.178  41.801   4.117
99745W        W63513  18.640   7.370   0.318
99746W        W63514  35.104  16.243   2.372
99747W        W63515  13.772  41.334   3.146
99748W        W63516  23.061  43.893   0.470
99749W        W63517  37.910  13.714   0.930
99750W        W63518  11.156   3.346   1.357
99751W        W63519  37.987  32.978   0.938
99752W        W63520  39.430  31.544  10.904
99753W        W63521  16.623   2.822  13.309
99754W        W63522  14.738   8.890   3.207
99755W        W63523  11.334  34.037  10.534
99756W        W63524  34.463  21.163   2.191
99757W        W63525  11.234  31.597   4.613
99758W        W63526  10.326  10.708  12.366
99759W        W63527  22.600  11.796  13.398
99760W        W63528  17.563   0.348   3.717
99761W        W63529  37.549  30.105  11.094
99762W        W63530  39.491  28.603  14.309
99763W        W63531   8.348  15.106  14.395
99764W        W63532  16.224  27.582  13.356
99765W        W63533   1.440  23.513   2.807
99766W        W63534  42.372   5.407   2.207
99767W        W63535  12.806  33.942   4.113
99768W        W63536  43.425  21.585   1.284
99769W        W63537  30.455  31.098  14.894
99770W        W63538  21.159   6.846   0.757
99771W        W63539  16.798   6.246  11.444
99772W        W63540  29.627  38.487   0.403
99773W        W63541   2.447  33.573  11.020
99774W        W63542  34.999  23.213   1.326
99775W        W63543  11.332  23.691   3.732
99776W        W63544  39.840   7.395   4.800
99777W        W63545   9.877  44.357  11.868
99778W        W63546   8.287  43.285   1.267
99779W        W63547  33.519  21.187  11.492
99780W        W63548   3.228  33.102  14.907
99781W        W63549   8.234  13.719  14.405
99782W        W63550  18.104  39.029  12.996
99783W        W63551  43.279  31.514   3.751
99784W        W63552  17.070  26.999  14.446
99785W        W63553  30.651  33.923  12.978
99786W        W63554  41.834   8.238  11.959
99787W        W63555  40.928  11.187  14.788
99788W        W63556  21.024  23.659   4.186
99789W        W63557  38.537  27.653  13.385
99790W        W63558   3.274  18.576  10.947
99791W        W63559   4.263   5.233  11.572
99792W        W63560  40.437  40.311   2.699
99793W        W63561  32.510   8.739   1.236
99794W        W63562  24.721   4.737   4.311
99795W        W63563  10.207  11.136   0.956
99796W        W63564  23.665   9.679   4.815
99797W        W63565  24.685  10.151   4.139
99798W        W63566  37.079  33.999   4.627
99799W        W63567  39.511  17.603   3.796
99800W        W63568  11.166   7.820   2.841
99801W        W63569  16.667  19.248   9.486
99802W        W63570   6.383  32.139   0.853
99803W        W63571  37.042  34.496   0.378
99804W        W63572   6.385  24.167   0.932
99805W        W63573   5.385  23.708  13.511
99806W        W63574   1.843  39.931  12.015
99807W        W63575   0.918  27.562   3.322
99808W        W63576  38.428   9.186   4.161
99809W        W63577  33.937  15.191  11.010
99810W        W63578  37.921  19.269  12.869
99811W        W63579   9.680  11.223   3.761
99812W        W63580  18.265  11.742  14.509
99813W        W63581  40.355  26.483  13.520
99814W        W63582  12.734  18.563   4.349
99815W        W63583  20.546  37.941  14.864
99816W        W63584   4.264  29.437   3.662
99817W        W63585   5.745  31.602  14.852
99818W        W63586  39.449  35.946   2.318
99819W        W63587   6.900   6.696  14.380
99820W        W63588  36.552  37.074  11.860
99821W        W63589  13.170   1.481  12.005
99822W        W63590  25.566   1.308  11.943
99823W        W63591  42.318   7.779   2.693
99824W        W63592  19.249  11.293  12.524
99825W        W63593  42.928  13.621  13.961
99826W        W63594  29.612  16.098  14.974
99827W        W63595  43.006  43.764  12.918
99828W        W63596  39.872  22.050   0.938
99829W        W63597  14.109  37.880  12.995
99830W        W63598  12.290  23.573   4.196
99831W        W63599  10.759   5.791  13.030
99832W        W63600  12.828  40.465   2.255
99833W        W63601  15.739  31.453  14.985
99834W        W63602  22.716  22.225  14.405
99835W        W63603  34.011   1.863   4.645
99836W        W63604  10.643  36.422  14.469
99837W        W63605   8.368   0.783  11.026
99838W        W63606  32.060  27.950  12.949
99839W        W63607  43.351  31.595  12.487
99840W        W63608  30.160   9.767  10.421
99841W        W63609  24.187  33.404   2.883
99842W        W63610  34.039  19.592   0.331
99843W        W63611  40.918  36.389  14.022
99844W        W63612  42.776  42.422   1.241
99845W        W63613  28.955  14.157  14.794
99846W        W63614  14.709   5.748   1.340
99847W        W63615  35.386  37.384  12.015
99848W        W63616   5.877  24.552  13.472
99849W        W63617   6.194  43.821  13.886
99850W        W63618  31.571  35.372  10.558
99851W        W63619  38.928  23.017  11.599
99852W        W63620   7.696  36.917  13.046
99853W        W63621   3.281  36.460   3.678
99854W        W63622  22.726  13.824   1.419
99855W        W63623  13.841   8.195   1.356
99856W        W63624  27.673  14.691  10.476
99857W        W63625  41.910   8.768  14.929
99858W        W63626  17.116  10.162  13.064
99859W        W63627  19.623  44.972  12.356
99860W        W63628   2.409  22.131   1.428
99861W        W63629  38.888   9.806   1.831
99862W        W63630  29.105  17.726   0.400
99863W        W63631   9.350  16.757   3.238
99864W        W63632  40.030  26.526   2.325
99865W        W63633  22.129  28.022   4.707
99866W        W63634  15.814  30.498  12.368
99867W        W63635  37.937  34.408   3.320
99868W        W63636  18.771   4.423   3.648
99869W        W63637  25.547  39.972   4.622
99870W        W63638  17.110   2.872  13.421
99871W        W63639  15.163   7.342  13.370
99872W        W63640  24.685  27.024   3.202
99873W        W63641   6.758  38.826  13.971
99874W        W63642  13.619  15.640   3.197
99875W        W63643   0.364  41.826  14.363
99876W        W63644   0.932  15.261   4.248
99877W        W63645  24.700  10.174  11.068
99878W        W63646  24.594  18.262   2.704
99879W        W63647  39.447  42.788   2.299
99880W        W63648  15.263   3.752   4.245
99881W        W63649  10.167  38.966  13.874
99882W        W63650  31.016  34.378  14.845
99883W        W63651   6.895  27.625   3.289
99884W        W63652  40.484   8.873   5.186
99885W        W63653   2.890  18.615  14.956
99886W        W63654  44.475  34.050  13.334
99887W        W63655  32.004  21.214   0.391
99888W        W63656  20.084  44.919  14.446
99889W        W63657  11.740  43.876  14.991
99890W        W63658  29.105  28.952  11.942
99891W        W63659  41.902  24.581   1.394
99892W        W63660   9.187  10.323   3.748
99893W        W63661   7.894  34.103  14.494
99894W        W63662  20.207  14.681   4.288
99895W        W63663   4.247  34.525  14.498
99896W        W63664  19.725  41.971  10.545
99897W        W63665  16.765  17.687  14.929
99898W        W63666  12.301  17.623   2.282
99899W        W63667   8.373  14.151   2.797
99900W        W63668   1.755  38.384   0.904
99901W        W63669   7.767  28.065  12.535
99902W        W63670  19.111   8.301   4.725
99903W        W63671  12.665  20.727   3.226
99904W        W63672  40.447  12.739  10.967
99905W        W63673  38.423  27.679  11.012
99906W        W63674  31.536  22.148  10.594
99907W        W63675  39.330   6.253   4.118
99908W        W63676   2.227  42.418  10.519
99909W        W63677  10.818  37.393  11.049
99910W        W63678  44.297  30.013   2.893
99911W        W63679   6.406  37.529   9.972
99912W        W63680  11.769  29.621   1.893
99913W        W63681   4.300   0.752   4.637
99914W        W63682  35.502  43.871   0.294
99915W        W63683  14.279  38.326  10.898
99916W        W63684   8.855  35.864   2.897
99917W        W63685   6.206   9.209   2.747
99918W        W63686  17.644  26.577   1.344
99919W        W63687  11.159  10.355  10.558
99920W        W63688  26.148  12.764  13.884
99921W        W63689  30.072  30.986  14.391
99922W        W63690  40.868  23.580   2.853
99923W        W63691   1.844   2.265  11.551
99924W        W63692  38.006  14.674  12.073
99925W        W63693   8.889  13.680   4.816
99926W        W63694  20.195  28.680   0.469
99927W        W63695  33.445  19.172   0.347
99928W        W63696  34.908   3.397   3.201
99929W        W63697  44.329  23.680   5.196
99930W        W63698  24.150  37.540   3.345
99931W        W63699  40.451  31.117   1.329
99932W        W63700   5.338  17.655  10.621
99933W        W63701  18.056  38.943   4.624
99934W        W63702   6.183   6.707  13.525
99935W        W63703  10.860  39.559  10.980
99936W        W63704  38.346  36.867  12.555
99937W        W63705  17.586   6.703   3.331
99938W        W63706   0.802  31.479  12.396
99939W        W63707  34.035  31.055   2.762
99940W        W63708   2.905  20.555   1.441
99941W        W63709  15.638  26.018  11.918
99942W        W63710   8.362  13.151  13.537
99943W        W63711   6.422  31.584   1.715
99944W        W63712   2.284   4.775  13.995
99945W        W63713  18.646   3.448  13.527
99946W        W63714  29.584  39.901  11.586
99947W        W63715  17.730  21.589  12.849
99948W        W63716   6.805   2.460   2.887
99949W        W63717  13.758  12.160  11.955
99950W        W63718   7.874  10.363  13.493
99951W        W63719  16.241  24.646   2.326
99952W        W63720  13.302  21.636   4.794
99953W        W63721  37.386  12.173  11.912
99954W        W63722  25.484  29.960  14.976
99955W        W63723   5.370  39.472   0.763
99956W        W63724  17.560   6.841   4.304
99957W        W63725  13.714  15.628   2.701
99958W        W63726   3.804  10.771   0.775
99959W        W63727  28.053  36.842  10.920
99960W        W63728  29.487  42.994  12.571
99961W        W63729  40.986  40.418   2.413
99962W        W63730  16.260  27.951   4.716
99963W        W63731  30.099   5.800   1.290
99964W        W63732  39.443  17.608   0.480
99965W        W63733  23.086  37.514  11.011
99966W        W63734   3.909  21.743   3.234
99967W        W63735  43.275  44.433  14.489
99968W        W63736  18.239  20.132  10.443
99969W        W63737   9.736  19.636   3.685
99970W        W63738   3.931   8.286  13.966
99971W        W63739  27.448  20.613   1.395
99972W        W63740  14.699  43.421   0.896
99973W        W63741  30.632  24.618   2.243
99974W        W63742  14.632  39.816   4.621
99975W        W63743  28.110  27.462   1.815
99976W        W63744   2.799  44.394  14.881
99977W        W63745   7.329  16.748  14.927
99978W        W63746  18.202  33.474  12.369
99979W        W63747   0.490  12.133  14.409
99980W        W63748  30.415  13.133  14.875
99981W        W63749  14.175  21.522  10.991
99982W        W63750   6.362   0.265   0.744
99983W        W63751  19.161  21.228   4.706
99984W        W63752  39.906  28.650  11.945
99985W        W63753  34.578  43.504  14.775
99986W        W63754  40.966  24.040   4.721
99987W        W63755  44.890   9.833   1.437
99988W        W63756  24.187  28.083  10.504
99989W        W63757  20.199  27.940   4.141
99990W        W63758   9.847  40.508   4.130
99991W        W63759  13.336  40.421  10.462
99992W        W63760  31.975   3.323  13.055
99993W        W63761  38.000  17.747  14.879
99994W        W63762  19.718   9.209  13.476
99995W        W63763   4.264  24.031  12.850
99996W        W63764  11.713  31.492  13.897
99997W        W63765  42.852  30.095  10.437
99998W        W63766   9.190  16.087   3.372
99999W        W63767   5.344   5.419  11.957
    0W        W63768  33.495  32.493  11.961
    1W        W63769  15.809   8.335   4.604
    2W        W63770   3.371  16.731  11.516
    3W        W63771  24.161  35.473   4.784
    4W        W63772  11.173  29.054  12.026
    5W        W63773  13.345  10.307   4.816
    6W        W63774  35.988  15.211   3.788
    7W        W63775  37.444   6.319   2.879
    8W        W63776  26.102  18.702   2.317
    9W        W63777  17.180  15.173   4.800
   10W        W63778   9.875  16.742   3.298
   11W        W63779  38.416  26.185  14.361
   12W        W63780  19.547  26.995   4.617
   13W        W63781  17.730  20.265  11.874
   14W        W63782  41.341  41.866  10.599
   15W        W63783  20.217  16.237  14.876
   16W        W63784  11.777  38.381  13.453
   17W        W63785  41.376   0.287  14.866
   18W        W63786   0.756  31.028  13.056
   19W        W63787  38.951  41.298   4.745
   20W        W63788  18.628  25.516   4.317
   21W        W63789  42.283  13.193   2.347
   22W        W63790   6.755   2.895   2.249
   23W        W63791  27.493  30.056  10.494
   24W        W63792  42.381  15.126  13.882
   25W        W63793  18.631  14.162   1.445
   26W        W63794   1.338  38.018  13.963
   27W        W63795   4.324  42.398   3.717
   28W        W63796  19.277  12.305   3.264
   29W        W63797  28.609   6.241  10.435
   30W        W63798  13.178  19.567  13.524
   31W        W63799  38.340  15.684   4.732
   32W        W63800  22.713  21.123  10.904
   33W        W63801   3.438  41.485  11.941
   34W        W63802   0.348  20.028  14.376
   35W        W63803  12.245  27.531   1.920
   36W        W63804  31.005  37.962   2.733
   37W        W63805  19.606  16.174   2.772
   38W        W63806  24.016  11.626  14.405
   39W        W63807  38.380  12.769  11.935
   40W        W63808  15.612  35.863  12.458
   41W        W63809  28.471  31.936  13.023
   42W        W63810  35.452   4.291   0.917
   43W        W63811  15.709  42.852   4.178
   44W        W63812   7.215  24.676  14.859
   45W        W63813  40.467   2.761  11.565
   46W        W63814  11.285  43.990  11.890
   47W        W63815  43.301   0.790  10.496
   48W        W63816  18.177  26.019   3.801
   49W        W63817  11.337  12.835  12.500
   50W        W63818  30.434  28.114   0.764
   51W        W63819  39.944  11.866   0.854
   52W        W63820  29.976  19.119  13.449
   53W        W63821  18.587  37.932   3.676
   54W        W63822  43.432   0.300   2.346
   55W        W63823  12.225   3.331   0.727
   56W        W63824  10.750  40.436  12.538
   57W        W63825  36.883   3.887   1.851
   58W        W63826  15.641  36.451  13.351
   59W        W63827  38.836  12.666  13.339
   60W        W63828  14.688   4.702  11.611
   61W        W63829  31.137  28.943  12.011
   62W        W63830  23.022  17.307   1.427
   63W        W63831  41.900   2.445  13.793
   64W        W63832  10.315  29.483   2.342
   65W        W63833  30.131  24.555  10.560
   66W        W63834  35.003  32.593  14.282
   67W        W63835  30.997  16.605  12.578
   68W        W63836  28.985  42.512   0.445
   69W        W63837  40.803  42.777   0.868
   70W        W63838  38.412  38.853   2.758
   71W        W63839   2.816  19.743   2.391
   72W        W63840  18.118  25.979  13.940
   73W        W63841  24.595  37.342  13.482
   74W        W63842  15.739   8.863   4.602
   75W        W63843  11.172  38.504  14.426
   76W        W63844   5.284  31.603   2.360
   77W        W63845   1.478  30.413  11.037
   78W        W63846  41.367  42.494   0.739
   79W        W63847  35.040   3.238   0.805
   80W        W63848  14.228  13.167   4.763
   81W        W63849  31.985   4.251   4.785
   82W        W63850  12.817   8.898  11.557
   83W        W63851  31.616   0.873  11.931
   84W        W63852   9.774   3.379   5.119
   85W        W63853  42.450  34.505   4.805
   86W        W63854  13.150   7.741   2.780
   87W        W63855  41.829  19.182   1.378
   88W        W63856   3.243   9.830   4.340
   89W        W63857   8.201  41.344   1.705
   90W        W63858  43.278  26.537   3.632
   91W        W63859   7.693   2.300   4.137
   92W        W63860  34.592  36.961   0.733
   93W        W63861   3.825  13.179  12.563
   94W        W63862  24.595  24.012  10.554
   95W        W63863  29.572  35.051   0.276
   96W        W63864  44.987  32.480  13.379
   97W        W63865  33.413  12.842  11.374
   98W        W63866  24.593  44.878  13.899
   99W        W63867  11.275  36.443   1.916
  100W        W63868  42.340  13.242   4.114
  101W        W63869  40.897  18.727  14.953
  102W        W63870  41.380  23.620  14.023
  103W        W63871  21.518  17.275   1.876
  104W        W63872  25.162  19.579  13.953
  105W        W63873  32.066  37.348  12.521
  106W        W63874  24.087  41.385   1.820
  107W        W63875  23.072   8.366  12.895
  108W        W63876  39.542  30.150   0.479
  109W        W63877  35.931  40.968  12.025
  110W        W63878  17.711  35.075   0.356
  111W        W63879  14.606  16.081  13.339
  112W        W63880  41.969   7.319  13.884
  113W        W63881  16.599  10.362   1.713
  114W        W63882  10.195  39.317   2.875
  115W        W63883   3.915  40.843  13.400
  116W        W63884  20.677  34.064   1.432
  117W        W63885  40.859  21.068  14.309
  118W        W63886  41.537   4.332   3.712
  119W        W63887  26.649  24.229   2.896
  120W        W63888   0.476  40.413   0.311
  121W        W63889  41.434  39.835  14.324
  122W        W63890   4.408   6.738  13.465
  123W        W63891  35.536  27.454  10.500
  124W        W63892   5.278  14.816   4.340
  125W        W63893  38.497  10.833  11.599
  126W        W63894  18.062  20.698  14.357
  127W        W63895  33.879  19.212   4.132
  128W        W63896  25.004  17.687  13.984
  129W        W63897  30.444  11.343  12.064
  130W        W63898  34.963  19.270   3.195
  131W        W63899  32.051  42.915   2.341
  132W        W63900   1.244  37.563  12.052
  133W        W63901   1.401  17.781  14.389
  134W        W63902   1.465  42.964   4.743
  135W        W63903  35.979  28.657  10.981
  136W        W63904  38.874  36.944   1.403
  137W        W63905  33.091  37.977  12.886
  138W        W63906  11.693  33.926   4.776
  139W        W63907  36.476   3.460  13.312
  140W        W63908  17.086  26.126  12.545
  141W        W63909  14.324  15.635  12.059
  142W        W63910  34.396  44.938  14.760
  143W        W63911   6.322  36.516  13.918
  144W        W63912   8.845  27.653  13.490
  145W        W63913  16.590  44.272   3.850
  146W        W63914  18.170  44.985  13.825
  147W        W63915  39.966  18.702   3.327
  148W        W63916  35.055  29.599  12.418
  149W        W63917   3.401  33.049  11.590
  150W        W63918  24.667   8.305  12.547
  151W        W63919  42.873   8.838   3.154
  152W        W63920  16.679  34.440  12.965
  153W        W63921  26.651  40.829   2.664
  154W        W63922  29.628  26.655   2.875
  155W        W63923  27.677  11.773  11.068
  156W        W63924  20.682  36.040  11.459
  157W        W63925  11.665  10.826   9.654
  158W        W63926  42.318  42.964  14.439
  159W        W63927   5.295  43.909  11.027
  160W        W63928  22.172   7.897  11.398
  161W        W63929   6.813  39.845   2.247
  162W        W63930   1.873  12.266  12.070
  163W        W63931  22.731  36.582  14.868
  164W        W63932  24.008  27.669   2.896
  165W        W63933  14.250  42.382   2.404
  166W        W63934   4.222  15.265  12.462
  167W        W63935   9.289  43.285  12.001
  168W        W63936   4.433  17.279  12.046
  169W        W63937  27.458   0.905  13.526
  170W        W63938   7.187  32.001   3.766
  171W        W63939  22.599   0.835  11.066
  172W        W63940  41.907  30.977   5.668
  173W        W63941  38.568  19.594  13.311
  174W        W63942  29.965  11.758  14.849
  175W        W63943  17.621  44.387  10.579
  176W        W63944  17.154   1.921  12.354
  177W        W63945  30.022  31.616  13.061
  178W        W63946   9.332  23.691  10.966
  179W        W63947  41.955  24.106  14.323
  180W        W63948  30.585  11.693  11.387
  181W        W63949  39.925  29.110   2.881
  182W        W63950  14.291  19.072  11.460
  183W        W63951  37.462  34.610   0.481
  184W        W63952  11.756  27.576   0.918
  185W        W63953  31.131  16.727   3.214
  186W        W63954  15.277  44.980  13.376
  187W        W63955  19.054  34.941  13.924
  188W        W63956  30.949  26.600   2.254
  189W        W63957  21.534  36.562   2.368
  190W        W63958  35.488   2.429   0.838
  191W        W63959  13.288   9.244   2.354
  192W        W63960  41.508  20.166   1.883
  193W        W63961  43.841  13.120  14.855
  194W        W63962   1.372   0.746   3.659
  195W        W63963  25.494  17.242  12.014
  196W        W63964   9.650   6.380   1.263
  197W        W63965  34.889  38.001   0.325
  198W        W63966  22.690  31.110  12.371
  199W        W63967  23.124  21.035  13.357
  200W        W63968  30.571   3.910  14.794
  201W        W63969  35.367   3.360  12.418
  202W        W63970  15.610  27.092  14.501
  203W        W63971   5.275  29.108   4.202
  204W        W63972  27.112  14.693   3.384
  205W        W63973  44.359  20.718  13.051
  206W        W63974   7.338  28.623   1.742
  207W        W63975  42.290  19.069   4.132
  208W        W63976   1.917  18.779  12.534
  209W        W63977  41.387  36.851   3.763
  210W        W63978   6.853  12.355  12.938
  211W        W63979   8.391  25.507  13.524
  212W        W63980  43.497   8.169   3.753
  213W        W63981   8.791  32.515  10.572
  214W        W63982  39.413  44.914  13.338
  215W        W63983  13.152  29.919  14.338
  216W        W63984  44.002  34.513   1.810
  217W        W63985  44.440  35.519  13.908
  218W        W63986  44.329  15.095  11.022
  219W        W63987  10.207  13.292   0.741
  220W        W63988  29.003   8.394  12.580
  221W        W63989   6.895  19.044  13.490
  222W        W63990   6.877   0.830   0.826
  223W        W63991  31.648  30.156   1.843
  224W        W63992  34.425   8.240   4.162
  225W        W63993   1.752  36.497  14.359
  226W        W63994  38.478  17.204  12.865
  227W        W63995  10.271  13.653  12.026
  228W        W63996   4.377  29.642   4.601
  229W        W63997   0.796  43.353  11.949
  230W        W63998  26.011  32.119   3.197
  231W        W63999   0.289   4.379   1.770
  232W        W64000  22.080  23.106  10.914
  233W        W64001  27.620  15.148   0.887
  234W        W64002  16.116  29.650   4.265
  235W        W64003   2.861  37.522   1.322
  236W        W64004  37.457  23.106   0.453
  237W        W64005  31.093  18.546   1.723
  238W        W64006   0.348  32.428  14.764
  239W        W64007  30.424   9.361   2.309
  240W        W64008  39.335  43.374  13.019
  241W        W64009  23.635  13.137  14.361
  242W        W64010  29.100  24.094  14.900
  243W        W64011  28.941  34.369   3.341
  244W        W64012  10.355  24.551   1.395
  245W        W64013  29.512  22.177  14.369
  246W        W64014  23.074   2.847   0.416
  247W        W64015  25.662  37.457  11.084
  248W        W64016  31.921  38.873  10.975
  249W        W64017  25.020  13.677   3.838
  250W        W64018   8.809  20.198  11.090
  251W        W64019  38.342  43.340   1.330
  252W        W64020   0.321  35.401  13.486
  253W        W64021  32.477   4.344   1.930
  254W        W64022   9.690  37.994   0.406
  255W        W64023  37.437  16.240  13.952
  256W        W64024   3.335  12.732   2.751
  257W        W64025  12.677  43.489   2.361
  258W        W64026  34.604  25.148  12.973
  259W        W64027  12.159  37.876  12.533
  260W        W64028  41.451  42.007   3.778
  261W        W64029  30.601  33.038   0.905
  262W        W64030  25.661   6.796   0.882
  263W        W64031  22.101  30.938   0.763
  264W        W64032  15.590  39.409  12.931
  265W        W64033  20.726  14.288  13.409
  266W        W64034  27.669  42.017  11.856
  267W        W64035   0.799  19.112  11.518
  268W        W64036  26.558   3.727  10.919
  269W        W64037   2.443  37.396  11.950
  270W        W64038  15.739  20.621   4.728
  271W        W64039  30.013  43.499   1.408
  272W        W64040  20.235  39.325  11.495
  273W        W64041   7.665  37.010  11.995
  274W        W64042  39.883  36.935  10.511
  275W        W64043   1.923   1.893   1.287
  276W        W64044   1.872   8.177   1.417
  277W        W64045  30.569  28.680  14.902
  278W        W64046  30.419  32.533  13.887
  279W        W64047  13.246  26.484  11.448
  280W        W64048  33.928  24.502  13.847
  281W        W64049  31.951  38.569   1.287
  282W        W64050  23.042  23.108   1.728
  283W        W64051  37.348  28.098  11.602
  284W        W64052  29.620  23.728   3.197
  285W        W64053  23.662  12.840   1.753
  286W        W64054   3.887   7.796   0.888
  287W        W64055  16.161  19.224   2.330
  288W        W64056  13.838  11.716  11.458
  289W        W64057  44.946  13.735  13.387
  290W        W64058  40.394  27.119  12.500
  291W        W64059  32.088  38.467   1.737
  292W        W64060   1.783  20.548  12.936
  293W        W64061  27.627  28.028   2.406
  294W        W64062  14.608   6.858   0.399
  295W        W64063   7.687  16.082   4.314
  296W        W64064   4.357  19.222   0.332
  297W        W64065   0.355  12.351   3.778
  298W        W64066  14.806  20.034  14.923
  299W        W64067  33.131   7.785  12.918
  300W        W64068  25.153  43.921   4.264
  301W        W64069  22.189  13.351  14.813
  302W        W64070  43.369   1.752  11.519
  303W        W64071  24.566  43.951  11.383
  304W        W64072  40.895  14.173  13.490
  305W        W64073  40.981  17.189   3.227
  306W        W64074  43.381  30.161   0.876
  307W        W64075  20.643   1.325   2.900
  308W        W64076  43.955   8.836   0.299
  309W        W64077   1.776  11.301   1.340
  310W        W64078  36.087  20.143  12.843
  311W        W64079  28.009  11.645   2.204
  312W        W64080   2.259  13.662  14.840
  313W        W64081  16.281  28.007   2.411
  314W        W64082  44.917   5.322  12.544
  315W        W64083  26.130   8.834  13.344
  316W        W64084  26.555  37.862  14.893
  317W        W64085  22.617  36.472   0.865
  318W        W64086  26.487   2.266   0.823
  319W        W64087  31.152  20.037   3.863
  320W        W64088   6.236  43.313   0.337
  321W        W64089   5.904  10.336  14.463
  322W        W64090   5.870   3.925   4.314
  323W        W64091  34.500  41.007  11.112
  324W        W64092   0.302   7.788   0.926
  325W        W64093   5.879  40.413   1.231
  326W        W64094   9.290  35.454   0.315
  327W        W64095   2.862   9.181  12.449
  328W        W64096  28.570  11.728   1.764
  329W        W64097  31.647  27.563   1.391
  330W        W64098  37.471  42.293   1.374
  331W        W64099  30.571  30.578   2.230
  332W        W64100  16.684  35.963   3.250
  333W        W64101  29.622  35.395   3.708
  334W        W64102  34.473   7.276  14.989
  335W        W64103  37.361   8.852  14.916
  336W        W64104   9.884   4.781  14.275
  337W        W64105  43.460  42.008   1.376
  338W        W64106  23.098   5.345   4.137
  339W        W64107  31.971  26.543   4.118
  340W        W64108   8.869   5.428   0.780
  341W        W64109  35.093  17.305  13.349
  342W        W64110   6.317   2.876   4.163
  343W        W64111  42.872   0.774  14.996
  344W        W64112  21.260   9.863  13.954
  345W        W64113  43.827  12.208   4.136
  346W        W64114  11.271  19.066  12.044
  347W        W64115  20.111  32.556   3.757
  348W        W64116   5.791  30.519   2.364
  349W        W64117  29.537  36.998   4.748
  350W        W64118  14.123   6.410  11.968
  351W        W64119   6.811  11.724  14.886
  352W        W64120  14.306  21.026   1.760
  353W        W64121  26.047  27.133   3.170
  354W        W64122  15.270   9.781   0.942
  355W        W64123  32.523  14.643   2.729
  356W        W64124   2.746  26.523   3.643
  357W        W64125   9.744  24.641   3.660
  358W        W64126  29.510  28.438  14.475
  359W        W64127  14.770  21.114  11.582
  360W        W64128  35.949   4.298   3.204
  361W        W64129  37.960   8.312  10.898
  362W        W64130  39.976   2.362   1.707
  363W        W64131  13.136  15.597  13.055
  364W        W64132  43.927  26.148  10.974
  365W        W64133  24.582  27.042  13.498
  366W        W64134   4.845  14.595   4.705
  367W        W64135  18.770  34.120   2.702
  368W        W64136   4.735  36.571  10.549
  369W        W64137   9.876  41.469   0.780
  370W        W64138  38.895  36.903   0.726
  371W        W64139  28.478  28.645  10.509
  372W        W64140   9.347   2.268   2.771
  373W        W64141  43.369   3.291  12.070
  374W        W64142  15.817  43.487  14.026
  375W        W64143   3.860  29.057  11.423
  376W        W64144  40.494  34.567   1.904
  377W        W64145  32.537  21.713  13.393
  378W        W64146  23.593   6.183  10.591
  379W        W64147   7.211  19.738   1.823
  380W        W64148  34.000  42.525  11.052
  381W        W64149  30.564  31.582   2.212
  382W        W64150  26.139  18.617  11.978
  383W        W64151  29.463  18.120   0.764
  384W        W64152  37.534  25.649   5.277
  385W        W64153  17.715   5.913  12.092
  386W        W64154  40.370  44.870   2.876
  387W        W64155  13.809  14.708   3.647
  388W        W64156  44.872  41.365   1.918
  389W        W64157  33.576   3.869   2.376
  390W        W64158  44.840  23.216  11.468
  391W        W64159  34.969  29.428   4.785
  392W        W64160  36.415  32.557  11.907
  393W        W64161   8.330  44.929   1.759
  394W        W64162  34.967   7.207   4.787
  395W        W64163  21.656  17.560   0.399
  396W        W64164  16.203  39.843  11.578
  397W        W64165  34.875  14.206   3.861
  398W        W64166  44.374  11.245  14.965
  399W        W64167  28.444  30.135  14.337
  400W        W64168   0.938  21.747   4.313
  401W        W64169  37.515  35.477   1.233
  402W        W64170  36.480  20.597   0.380
  403W        W64171  26.176  44.457  14.983
  404W        W64172   6.727  23.585   3.335
  405W        W64173  36.478  40.417   0.304
  406W        W64174  12.670  15.723  11.463
  407W        W64175  17.203  19.673   0.929
  408W        W64176  36.435  36.034  12.444
  409W        W64177   7.341  36.384  11.020
  410W        W64178  43.465  42.340   0.428
  411W        W64179  38.512  43.927  14.434
  412W        W64180  15.684   1.436   4.216
  413W        W64181  14.280  16.705   2.869
  414W        W64182  11.238  35.596   2.288
  415W        W64183   8.224   3.235   0.376
  416W        W64184  25.708  10.823  12.974
  417W        W64185   0.489  38.469   1.387
  418W        W64186  40.493  34.467  14.796
  419W        W64187  28.623  15.324   0.449
  420W        W64188  25.016  13.623  13.863
  421W        W64189   4.407  23.162  13.919
  422W        W64190   2.921  27.631   3.642
  423W        W64191  25.022  14.610  13.395
  424W        W64192  15.151  28.123  12.509
  425W        W64193  43.426  30.531  14.775
  426W        W64194  10.161  26.461  13.960
  427W        W64195   1.761   0.784   3.690
  428W        W64196  24.545   5.277  11.611
  429W        W64197  35.041  32.969  13.457
  430W        W64198  22.128  38.844  12.838
  431W        W64199  39.059  38.026  12.863
  432W        W64200  21.186  20.146   0.753
  433W        W64201  15.160   6.787   4.676
  434W        W64202  10.658  12.659  12.029
  435W        W64203  32.599  37.380   4.759
  436W        W64204  13.207  34.061   3.788
  437W        W64205  43.394   9.170  14.449
  438W        W64206   5.930  34.958  14.939
  439W        W64207  16.095  43.286  11.101
  440W        W64208   3.736  38.077  11.882
  441W        W64209  36.480  33.514  14.967
  442W        W64210  38.062   7.207   4.199
  443W        W64211  41.806   6.420  13.801
  444W        W64212  17.775  15.120  11.493
  445W        W64213  26.673  20.075  10.925
  446W        W64214  12.842  21.678   4.294
  447W        W64215   6.828  29.015   3.364
  448W        W64216  33.941   0.777   3.280
  449W        W64217  44.334  28.516  13.977
  450W        W64218  30.149   0.966  14.981
  451W        W64219  33.925   0.844   2.251
  452W        W64220  31.075  12.693   0.787
  453W        W64221  42.985   2.401   2.684
  454W        W64222  25.200  11.656   2.808
  455W        W64223  19.093  10.267   3.643
  456W        W64224  43.456  19.599  11.928
  457W        W64225   2.913   7.859  13.051
  458W        W64226  37.436  16.717  12.861
  459W        W64227  15.747  18.757  12.576
  460W        W64228   5.910   2.797  11.077
  461W        W64229  26.615  25.005   4.642
  462W        W64230  23.625   3.241   2.186
  463W        W64231  27.496  23.124  14.423
  464W        W64232  31.925   0.328   4.765
  465W        W64233  44.869  34.522  13.972
  466W        W64234   5.811  18.751   1.920
  467W        W64235  37.926  19.617   1.901
  468W        W64236  31.076  15.806  10.596
  469W        W64237   5.852   7.383  11.456
  470W        W64238  41.360   7.856   3.223
  471W        W64239  42.401  34.083   4.601
  472W        W64240  32.927  11.662  11.960
  473W        W64241  19.172  35.397  12.565
  474W        W64242  41.961  39.361   2.277
  475W        W64243  38.894  42.865  11.984
  476W        W64244  33.410   4.940  12.912
  477W        W64245  17.621   5.301   3.812
  478W        W64246  36.042   5.834  10.896
  479W        W64247  44.003  17.298   4.604
  480W        W64248  24.543   2.251  13.355
  481W        W64249  12.362   3.243  11.397
  482W        W64250  19.582  10.634  14.784
  483W        W64251  12.231  13.697   1.449
  484W        W64252  40.038  12.204   3.223
  485W        W64253  27.013  24.719   4.288
  486W        W64254  17.645  24.101   3.695
  487W        W64255  12.342   2.411  11.398
  488W        W64256  36.511   5.827  10.089
  489W        W64257  29.602  34.973   2.302
  490W        W64258  41.488  34.520  11.885
  491W        W64259  38.938   8.788   2.411
  492W        W64260   2.734   5.212   1.308
  493W        W64261   4.808   4.710  12.865
  494W        W64262  40.374   5.794  14.411
  495W        W64263  40.360  38.856   2.837
  496W        W64264   8.768  44.437  10.523
  497W        W64265  25.601  23.691   3.693
  498W        W64266  26.079  39.844   1.403
  499W        W64267  41.508  31.917   9.975
  500W        W64268  15.275  29.945   3.636
  501W        W64269   0.966  25.581   0.915
  502W        W64270  30.115  13.812  13.948
  503W        W64271  39.541  25.192  14.948
  504W        W64272  10.138  32.042  14.335
  505W        W64273  12.757   7.378   1.883
  506W        W64274  28.621  35.538  10.640
  507W        W64275  21.577  38.867   3.255
  508W        W64276  28.967  34.879   2.300
  509W        W64277  24.714  13.737   2.201
  510W        W64278  34.032  25.511  12.909
  511W        W64279  14.235   9.382   3.184
  512W        W64280  18.553  13.740  10.641
  513W        W64281  15.794   3.876   3.206
  514W        W64282  30.948  39.861   0.828
  515W        W64283   8.771  14.272   2.244
  516W        W64284  16.204  30.119   1.871
  517W        W64285  28.985  27.614  13.907
  518W        W64286  44.316  31.147   4.670
  519W        W64287   6.761   7.183  11.387
  520W        W64288   5.318  12.850   2.391
  521W        W64289   4.702   8.306   4.638
  522W        W64290  31.996  18.648  13.391
  523W        W64291  15.178  41.926   1.935
  524W        W64292  16.279   3.898  11.993
  525W        W64293  31.490  14.308   0.330
  526W        W64294   0.861  13.345  14.828
  527W        W64295  10.197  12.839  12.388
  528W        W64296   7.808   8.802   4.650
  529W        W64297  17.226  27.586   4.706
  530W        W64298  41.404  16.606  12.833
  531W        W64299  44.421  31.905  12.476
  532W        W64300  34.420  18.098   0.842
  533W        W64301  21.686  30.458   4.117
  534W        W64302  40.427  31.906  10.449
  535W        W64303  37.073  33.572  14.008
  536W        W64304  42.833  23.123  12.558
  537W        W64305  24.982   5.201  10.978
  538W        W64306   2.726  37.955  14.471
  539W        W64307  44.916  12.680  11.431
  540W        W64308  43.351  15.682  12.017
  541W        W64309  26.571  37.525  13.317
  542W        W64310  30.553  13.113  13.807
  543W        W64311   3.215  32.424   2.681
  544W        W64312  17.636  43.408   1.278
  545W        W64313  20.041  24.986   4.802
  546W        W64314  33.065   7.306   2.740
  547W        W64315  33.882  26.698  10.021
  548W        W64316   3.283  34.883   9.529
  549W        W64317  13.634  14.817   0.842
  550W        W64318  44.007  36.075  11.446
  551W        W64319  35.894  11.205   3.755
  552W        W64320  13.282  15.096   3.227
  553W        W64321   5.829   9.283   4.191
  554W        W64322  30.159  35.106  10.907
  555W        W64323  14.097   7.703  11.899
  556W        W64324  26.621  37.012   2.851
  557W        W64325  17.695  27.014   1.738
  558W        W64326   7.766   0.988  13.530
  559W        W64327  15.213  22.552   2.786
  560W        W64328  32.894  12.669   1.299
  561W        W64329  26.530  24.561  14.488
  562W        W64330  11.291  21.627  10.946
  563W        W64331  13.325  27.196  11.508
  564W        W64332  17.774  10.850   0.934
  565W        W64333   5.754  33.888   2.876
  566W        W64334  39.987  35.939   4.270
  567W        W64335  28.970  23.241   1.295
  568W        W64336   2.830   2.905   3.345
  569W        W64337  43.919  23.632   1.873
  570W        W64338  31.918   6.290   4.671
  571W        W64339  37.339   1.857   4.354
  572W        W64340  31.540  25.540   4.729
  573W        W64341  44.499  27.648  14.310
  574W        W64342  15.109  13.622  12.509
  575W        W64343  16.111  25.198  11.463
  576W        W64344  28.165  43.020   1.907
  577W        W64345   1.904  14.225  11.516
  578W        W64346  25.134  37.420   1.906
  579W        W64347  26.120   2.360   4.740
  580W        W64348  30.424  11.703   0.831
  581W        W64349   3.934  41.038  14.277
  582W        W64350  29.494  39.865   2.240
  583W        W64351  36.518  11.832  13.012
  584W        W64352   2.230  26.582   0.359
  585W        W64353  25.480  19.163   4.708
  586W        W64354  42.939  20.252  12.526
  587W        W64355  38.527  36.383   4.795
  588W        W64356  10.661   9.797  14.827
  589W        W64357  12.239   7.250   3.637
  590W        W64358  40.003  21.511  10.936
  591W        W64359   6.295  41.306   0.914
  592W        W64360  28.506  36.422   0.276
  593W        W64361  35.569   5.850  11.122
  594W        W64362  17.795  34.115   5.283
  595W        W64363  12.807  15.105   1.219
  596W        W64364   2.736  39.448  14.976
  597W        W64365  29.089  26.996   4.653
  598W        W64366  29.162  11.822  10.914
  599W        W64367   9.334  23.491   5.202
  600W        W64368   4.774  24.725   3.632
  601W        W64369  43.430  20.571   3.290
  602W        W64370  40.823  37.038  12.960
  603W        W64371  13.677  18.124   0.863
  604W        W64372  14.282  41.323  10.122
  605W        W64373  26.695  36.406  12.392
  606W        W64374  31.042  32.998   1.895
  607W        W64375   8.872  20.626  12.433
  608W        W64376  11.799  11.239  14.764
  609W        W64377  21.747   3.942  14.802
  610W        W64378  27.062  13.603   3.754
  611W        W64379  15.662  34.989  11.374
  612W        W64380   2.926   6.297  10.433
  613W        W64381  22.528  35.366   0.917
  614W        W64382   6.747  17.143   0.477
  615W        W64383  42.923  17.145  13.547
  616W        W64384   9.184  28.048  11.416
  617W        W64385  12.336  31.936  14.995
  618W        W64386  31.151  32.569   1.283
  619W        W64387  21.224  24.118  12.365
  620W        W64388  39.472  36.873  11.985
  621W        W64389   7.912   6.368  10.120
  622W        W64390   1.931  35.476   1.887
  623W        W64391  30.945  30.124  13.880
  624W        W64392  33.072  42.922   1.818
  625W        W64393  19.074  24.149  11.392
  626W        W64394  23.040   4.374  10.523
  627W        W64395  26.626  42.875   1.771
  628W        W64396  26.538  14.773  11.486
  629W        W64397   3.458  17.223  13.043
  630W        W64398  11.170  36.546  14.031
  631W        W64399   8.799  18.227   4.140
  632W        W64400  18.784   4.445   4.630
  633W        W64401   5.921  13.838   3.865
  634W        W64402  27.053  14.279   0.777
  635W        W64403  35.518  40.425  13.404
  636W        W64404  34.442   2.908  14.481
  637W        W64405  12.783  39.890   4.826
  638W        W64406  26.690  18.565  10.413
  639W        W64407  33.904  15.292  14.944
  640W        W64408  24.979  26.511   2.418
  641W        W64409  21.135  21.121   2.363
  642W        W64410  11.199   1.943   2.715
  643W        W64411  29.155  33.948  13.898
  644W        W64412  18.733  33.088  14.028
  645W        W64413  26.199  21.706  11.860
  646W        W64414  33.092  21.695   4.829
  647W        W64415   3.746  35.923   2.802
  648W        W64416  12.700  37.546  11.986
  649W        W64417  42.489   0.929  11.449
  650W        W64418   2.426   0.819  14.894
  651W        W64419   9.168   3.709  13.453
  652W        W64420  26.979   0.330   1.715
  653W        W64421   7.377  11.236  11.072
  654W        W64422  24.993   6.281   2.694
  655W        W64423  14.633  37.367  14.782
  656W        W64424  18.171  29.627   1.299
  657W        W64425  38.352   5.858  14.432
  658W        W64426  20.712  42.790  13.416
  659W        W64427  31.029  27.626   3.750
  660W        W64428   4.819  34.604   1.715
  661W        W64429  21.600  31.564   0.391
  662W        W64430   9.363  35.971   4.303
  663W        W64431  19.736  26.620  10.967
  664W        W64432   7.366   9.676  10.475
  665W        W64433  42.888  22.594  14.326
  666W        W64434  34.524  44.305   1.725
  667W        W64435  38.528  36.511   1.338
  668W        W64436  13.121  44.861  14.017
  669W        W64437   7.903   1.867   3.728
  670W        W64438  42.497  13.112   0.925
  671W        W64439   5.815   9.822   1.384
  672W        W64440  38.488  40.463  14.333
  673W        W64441  30.446  26.969   4.190
  674W        W64442  37.975  26.178   4.276
  675W        W64443  44.357  26.001   2.377
  676W        W64444  37.508  12.837   4.608
  677W        W64445  19.538  40.966   4.349
  678W        W64446  29.991   5.220  12.897
  679W        W64447  37.994  10.379   2.825
  680W        W64448  42.896  31.926   0.831
  681W        W64449   6.907  31.483   2.773
  682W        W64450   9.357  22.077   3.227
  683W        W64451  12.738  25.496  11.033
  684W        W64452   0.948  21.552   2.837
  685W        W64453  37.962  16.751  12.957
  686W        W64454  39.356  22.211  13.053
  687W        W64455  16.112  10.872   4.251
  688W        W64456   4.342  42.463   3.261
  689W        W64457  25.081   8.813   0.317
  690W        W64458  15.591  23.105   2.271
  691W        W64459  31.643  15.723  10.001
  692W        W64460   1.777   0.850   1.844
  693W        W64461   7.821  18.570   0.463
  694W        W64462  15.252   1.927   0.955
  695W        W64463  13.752  24.999   4.172
  696W        W64464  13.307   5.834   1.442
  697W        W64465  14.751  10.747   3.251
  698W        W64466   6.418  21.534  12.950
  699W        W64467  41.317   6.355   5.138
  700W        W64468  22.666   3.787   1.779
  701W        W64469  37.958  41.321  10.579
  702W        W64470  18.056   2.304   3.649
  703W        W64471  28.099  37.449   3.790
  704W        W64472   1.943  31.433   0.880
  705W        W64473  29.014  20.551  12.074
  706W        W64474  11.242   2.253   4.762
  707W        W64475  28.174   9.373  11.106
  708W        W64476  42.845  28.186  10.420
  709W        W64477  21.241  34.519   3.703
  710W        W64478  41.933  35.501   3.794
  711W        W64479  24.987  12.774  14.292
  712W        W64480  34.963  24.533  14.963
  713W        W64481  30.151  27.030  14.829
  714W        W64482  40.487  31.482   0.434
  715W        W64483   1.740   3.393   1.298
  716W        W64484  33.531  43.401   2.688
  717W        W64485  25.535  13.659   9.574
  718W        W64486   8.404   5.254   3.213
  719W        W64487   2.277  10.199   0.953
  720W        W64488   5.400   9.231   4.268
  721W        W64489  23.570  33.492   3.673
  722W        W64490  38.832  13.658  12.007
  723W        W64491  14.725  33.926   4.184
  724W        W64492  16.279  36.367  10.466
  725W        W64493  16.297   5.268  12.024
  726W        W64494   0.417  31.467  11.922
  727W        W64495   4.252   6.852  13.923
  728W        W64496   4.426  19.560  11.463
  729W        W64497   7.804  17.139   4.185
  730W        W64498   6.262  39.395  13.892
  731W        W64499  22.121  27.588   2.865
  732W        W64500  42.807  39.011  10.929
  733W        W64501  32.589  34.553   0.774
  734W        W64502  23.135  15.141  13.013
  735W        W64503   6.186  44.372   4.659
  736W        W64504  17.077  19.262   0.787
  737W        W64505   9.385   7.367  14.326
  738W        W64506   3.301   2.947  13.953
  739W        W64507  25.052   2.447   0.350
  740W        W64508   9.200  28.563  14.284
  741W        W64509  30.147  29.006  11.994
  742W        W64510  35.508  35.405   2.283
  743W        W64511  26.207  14.215  11.994
  744W        W64512  28.671   6.250  11.887
  745W        W64513  31.985  15.685   2.692
  746W        W64514  31.928  22.228   2.754
  747W        W64515  37.933   9.197  11.467
  748W        W64516  23.537  34.105  14.448
  749W        W64517  44.880  31.028   4.811
  750W        W64518  18.686  21.749   0.840
  751W        W64519  28.446  19.542   3.802
  752W        W64520  37.498   4.698  12.847
  753W        W64521  17.236  12.619   0.306
  754W        W64522  32.439  21.190   3.814
  755W        W64523  44.802   5.397   3.340
  756W        W64524  34.599   2.429  14.793
  757W        W64525  41.918  20.614  14.435
  758W        W64526  28.453  36.455  12.531
  759W        W64527  24.559   3.256  12.341
  760W        W64528   1.472  16.721   0.435
  761W        W64529  23.196   7.707  12.839
  762W        W64530  27.455  32.477  12.856
  763W        W64531  12.737  22.187  14.833
  764W        W64532  11.293  30.449   4.272
  765W        W64533   6.330  34.882  11.862
  766W        W64534  29.506  34.607  12.579
  767W        W64535   6.306  12.704  12.885
  768W        W64536  14.175  31.066   3.725
  769W        W64537  25.021  23.168  14.944
  770W        W64538  39.955  18.771  11.031
  771W        W64539   7.706   2.309   2.237
  772W        W64540  28.528  17.291  12.364
  773W        W64541  32.603  26.121   3.847
  774W        W64542   2.335  29.992   4.793
  775W        W64543  37.447  40.360  10.915
  776W        W64544  43.800  32.008   4.686
  777W        W64545   3.329   4.308  10.443
  778W        W64546  17.302  31.007  13.406
  779W        W64547  23.557  15.703  11.070
  780W        W64548  32.080  27.570   2.763
  781W        W64549   8.800  40.892  14.386
  782W        W64550   3.317  16.097  12.017
  783W        W64551  17.242  40.977  14.861
  784W        W64552   7.211  37.392  14.013
  785W        W64553   0.876  34.576  14.336
  786W        W64554   7.833  13.668   0.245
  787W        W64555  13.683  11.631  13.428
  788W        W64556  39.033  37.418   0.269
  789W        W64557  36.913   4.399  13.025
  790W        W64558   6.205  11.341  14.881
  791W        W64559   6.355  13.770   1.433
  792W        W64560   3.450  14.253   0.863
  793W        W64561  12.844  13.647   3.169
  794W        W64562   9.172  21.538   3.380
  795W        W64563  33.431  14.754   0.296
  796W        W64564   3.853  14.336   1.284
  797W        W64565  43.814  24.993   1.769
  798W        W64566  41.451  29.081   2.304
  799W        W64567  15.650  44.828  14.016
  800W        W64568  13.816  31.150  11.440
  801W        W64569  17.270   1.399   0.804
  802W        W64570  22.168  31.634  14.367
  803W        W64571  11.705  20.085   0.378
  804W        W64572  27.635   8.321   3.215
  805W        W64573  31.610   7.894  10.997
  806W        W64574   8.284  14.182   0.886
  807W        W64575  27.054  44.489  14.861
  808W        W64576  35.468  44.439  11.493
  809W        W64577  22.595   5.433  11.873
  810W        W64578  17.186  42.432  12.956
  811W        W64579   1.330   0.818   4.338
  812W        W64580   7.754  35.874   9.953
  813W        W64581  19.122  33.624   0.777
  814W        W64582  44.445  30.101   3.811
  815W        W64583  25.038  40.934  12.892
  816W        W64584  35.867  15.115   0.381
  817W        W64585  43.980   2.937  13.937
  818W        W64586   7.765   6.394  10.563
  819W        W64587  15.757  38.065   0.881
  820W        W64588  23.133  20.719   4.165
  821W        W64589  42.314   4.300   0.898
  822W        W64590  21.523  13.166  10.545
  823W        W64591   4.798  37.046   4.704
  824W        W64592  39.041  10.690   0.480
  825W        W64593  18.657  36.874  10.567
  826W        W64594   8.258   5.208   3.859
  827W        W64595   9.315  12.776   1.710
  828W        W64596   1.250  24.555   1.824
  829W        W64597  37.370  10.261   2.876
  830W        W64598  18.562  34.059   5.624
  831W        W64599  33.589   0.309  14.846
  832W        W64600  19.184  27.097   2.826
  833W        W64601  27.008   5.251   1.358
  834W        W64602  33.010  37.547   0.363
  835W        W64603   7.817  27.194   4.622
  836W        W64604   3.253  22.665   2.892
  837W        W64605  14.287  35.424   0.884
  838W        W64606  20.725  17.176   1.347
  839W        W64607  34.019  43.275  12.398
  840W        W64608  17.121  26.654   5.123
  841W        W64609  24.665  16.285   4.644
  842W        W64610  37.438  37.842   0.951
  843W        W64611  25.683  16.650  14.806
  844W        W64612  30.633  25.681   4.660
  845W        W64613  22.520  34.087  13.987
  846W        W64614  24.117  23.180  10.541
  847W        W64615  19.108  10.869  12.547
  848W        W64616  30.536  29.980   3.796
  849W        W64617  40.394  28.535   3.366
  850W        W64618  22.065   9.822   1.355
  851W        W64619  35.866  24.566  12.950
  852W        W64620  13.755  33.460  12.947
  853W        W64621  18.755  12.149   4.718
  854W        W64622   4.790   2.339  11.593
  855W        W64623   9.307  14.809  14.492
  856W        W64624  37.911   6.265   0.413
  857W        W64625   6.692   0.261   2.855
  858W        W64626  30.920  41.482   4.294
  859W        W64627  13.688  31.559  11.859
  860W        W64628   2.825  25.076  11.508
  861W        W64629  32.592  19.745  13.320
  862W        W64630  12.323   5.770   3.211
  863W        W64631  31.937   4.844   3.662
  864W        W64632  11.141  15.167   3.321
  865W        W64633  28.942   7.760  14.976
  866W        W64634  17.253  41.859  12.059
  867W        W64635   5.896  18.197  10.943
  868W        W64636  15.179   6.317  12.504
  869W        W64637  44.314  34.120  14.852
  870W        W64638  30.132  24.041  14.769
  871W        W64639   6.898   3.768   2.402
  872W        W64640  10.176  30.523  11.875
  873W        W64641   3.288  15.213  13.814
  874W        W64642  19.777  23.541   0.354
  875W        W64643  23.082  10.726   3.741
  876W        W64644   6.906  21.756   0.254
  877W        W64645  40.444  33.897  12.851
  878W        W64646  43.406   5.390  14.358
  879W        W64647  29.125  24.138  11.608
  880W        W64648  10.830  19.755   3.339
  881W        W64649   3.314  34.470  12.386
  882W        W64650  39.988  18.290   2.793
  883W        W64651  40.819  34.452   4.247
  884W        W64652  21.042  42.346  14.514
  885W        W64653  37.341  19.087  12.378
  886W        W64654  34.891  31.905   1.375
  887W        W64655  33.557  25.157   0.790
  888W        W64656  21.073   5.342  12.018
  889W        W64657  25.545  25.025   5.270
  890W        W64658  34.013   0.334  14.299
  891W        W64659  23.629  19.085   0.752
  892W        W64660  32.456  18.754  14.420
  893W        W64661   7.341  21.751  13.523
  894W        W64662  14.681   1.343   2.387
  895W        W64663  21.216  24.687   3.720
  896W        W64664  42.370  33.964   0.464
  897W        W64665  11.836  35.602  12.405
  898W        W64666  21.217   5.274   3.746
  899W        W64667  40.392  38.937  13.880
  900W        W64668  30.101  24.996  10.640
  901W        W64669  13.702  29.025  14.911
  902W        W64670  30.925  22.572  11.077
  903W        W64671  44.464  44.431  13.041
  904W        W64672  16.186  15.248  10.523
  905W        W64673  28.149  13.319  13.823
  906W        W64674  36.557  15.092  13.317
  907W        W64675  32.474  36.395  12.557
  908W        W64676  13.156  17.629   3.744
  909W        W64677  12.652  22.722   0.807
  910W        W64678  22.106  26.189   1.883
  911W        W64679  35.558  22.124  14.900
  912W        W64680  44.351  41.828   3.311
  913W        W64681  17.277   7.692  11.897
  914W        W64682  27.167  38.820  11.883
  915W        W64683   9.243  43.306  14.867
  916W        W64684  17.169  44.334   0.329
  917W        W64685  15.238   6.375  11.565
  918W        W64686  15.600   2.917   0.836
  919W        W64687  39.886  11.651  14.461
  920W        W64688  44.808  10.703   3.698
  921W        W64689  42.284   5.792   2.265
  922W        W64690  42.485  31.960  11.504
  923W        W64691  10.666  11.192   0.435
  924W        W64692  16.198   0.944  13.963
  925W        W64693  36.920  14.602  14.320
  926W        W64694   8.861  27.989  13.846
  927W        W64695  16.796  34.975   0.729
  928W        W64696  34.990  13.796  10.479
  929W        W64697  15.271  39.518   2.759
  930W        W64698  17.148  41.347  13.427
  931W        W64699  41.505  29.014  10.987
  932W        W64700   6.728  21.095  14.772
  933W        W64701  24.655  22.517  11.929
  934W        W64702  21.164   5.218  13.996
  935W        W64703   2.877  29.531   2.293
  936W        W64704  32.908  37.501   2.673
  937W        W64705  39.963  37.886  13.939
  938W        W64706  39.966  16.203   4.713
  939W        W64707  27.543  30.916   4.238
  940W        W64708  38.936   5.925   0.451
  941W        W64709  23.554  18.283  11.541
  942W        W64710  43.371  28.548   2.880
  943W        W64711  19.087   4.905   4.707
  944W        W64712  40.896  26.518  11.116
  945W        W64713  11.769  35.985   0.403
  946W        W64714  31.150  25.135   3.306
  947W        W64715  44.325  25.467   1.274
  948W        W64716   4.775  16.279   0.961
  949W        W64717   0.284  29.074  10.608
  950W        W64718  34.909   7.709  13.033
  951W        W64719   1.976   6.835  11.580
  952W        W64720  10.874  20.044   4.664
  953W        W64721  34.907  18.691  14.796
  954W        W64722  23.226  39.888   3.673
  955W        W64723   3.898   0.452   1.257
  956W        W64724  30.914  39.541   0.481
  957W        W64725   5.889  23.520   0.290
  958W        W64726   7.667   7.790  11.057
  959W        W64727   5.271  42.817   0.402
  960W        W64728  38.958  16.179  10.628
  961W        W64729  10.842  24.617  13.509
  962W        W64730   1.813   8.199   0.400
  963W        W64731  26.106  28.667  11.529
  964W        W64732   2.333   1.891  12.562
  965W        W64733  31.042   8.245   1.447
  966W        W64734  36.492  41.472   3.745
  967W        W64735  14.323  25.182  10.978
  968W        W64736  23.140  16.230  13.514
  969W        W64737  34.523  19.268  13.923
  970W        W64738  10.292  20.270  10.574
  971W        W64739   9.774  19.702   1.758
  972W        W64740  18.113  17.716   3.246
  973W        W64741  38.911  36.468  13.527
  974W        W64742  28.524  12.794   0.747
  975W        W64743   4.390  40.805   2.682
  976W        W64744  41.964  17.683  11.519
  977W        W64745   0.796   9.741   3.714
  978W        W64746  42.926  44.327   0.930
  979W        W64747  30.592  16.189   0.360
  980W        W64748  41.472  17.697  13.426
  981W        W64749  15.746  22.185  11.570
  982W        W64750  36.507   4.887  12.580
  983W        W64751  11.720  22.021   0.420
  984W        W64752  31.976  14.675  12.539
  985W        W64753  39.876  18.712   0.903
  986W        W64754  29.618  22.644  12.354
  987W        W64755  12.664  23.071   0.946
  988W        W64756  17.614  16.142  11.406
  989W        W64757  13.815  41.314   3.667
  990W        W64758   9.695   5.266  11.488
  991W        W64759  22.747  14.291  12.375
  992W        W64760  15.586  29.942  11.567
  993W        W64761   1.303   3.925  12.972
  994W        W64762  38.873  31.582  13.874
  995W        W64763   6.904  10.144   4.754
  996W        W64764  29.953  25.581   1.253
  997W        W64765  36.995   1.350   1.901
  998W        W64766  18.199  24.686  11.449
  999W        W64767   9.660  12.226  12.428
 1000W        W64768  24.193  43.807   4.719
 1001W        W64769   9.285  10.228  12.016
 1002W        W64770  22.590  27.182  12.560
 1003W        W64771  16.597  40.413   4.221
 1004W        W64772  28.638   3.280   0.245
 1005W        W64773  41.884  18.186  13.925
 1006W        W64774   2.843  20.222  10.592
 1007W        W64775  38.918  30.444   3.375
 1008W        W64776  30.502  44.276  13.430
 1009W        W64777  12.634  18.133  13.921
 1010W        W64778   0.786  29.014  13.006
 1011W        W64779  32.425  16.301  10.500
 1012W        W64780   9.152  15.326   3.270
 1013W        W64781  28.668  26.978  13.881
 1014W        W64782  18.238  26.017   4.353
 1015W        W64783  24.660  15.328   4.330
 1016W        W64784  17.752   4.927   4.313
 1017W        W64785  16.638  29.096  12.370
 1018W        W64786  36.412  26.674   0.942
 1019W        W64787  40.030  29.172   4.266
 1020W        W64788   0.904   7.314   4.662
 1021W        W64789  30.495  21.665  13.948
 1022W        W64790   8.802   4.295   0.830
 1023W        W64791  19.128   8.824   2.384
 1024W        W64792  27.567   8.848  10.904
 1025W        W64793  26.561  25.092   1.359
 1026W        W64794  13.305  15.800   3.716
 1027W        W64795  27.150  34.018   2.745
 1028W        W64796  33.957  15.158   2.182
 1029W        W64797  14.607  14.152   9.552
 1030W        W64798  44.864   8.241   4.661
 1031W        W64799  17.561  34.597   1.799
 1032W        W64800  33.902  19.097   4.702
 1033W        W64801   9.304  15.651   1.304
 1034W        W64802   6.860  22.104   1.735
 1035W        W64803  14.142   3.829   4.330
 1036W        W64804   2.320  39.414   4.601
 1037W        W64805  38.458  34.454   2.306
 1038W        W64806  37.518  37.441   3.853
 1039W        W64807  16.673   9.703   0.826
 1040W        W64808  40.325   2.442   3.171
 1041W        W64809  41.867  13.246   0.940
 1042W        W64810  22.587  36.468  11.923
 1043W        W64811   0.907  19.688  11.947
 1044W        W64812   5.692   4.712  12.529
 1045W        W64813  17.173  20.126  12.912
 1046W        W64814  36.576  34.921   0.955
 1047W        W64815  36.058  41.913   5.285
 1048W        W64816  22.135  31.053  12.435
 1049W        W64817  13.728   0.881  13.345
 1050W        W64818  34.022  21.687  12.405
 1051W        W64819  30.557  30.029   1.847
 1052W        W64820   7.173  20.172   4.343
 1053W        W64821  28.500  23.522   4.836
 1054W        W64822  41.356  23.684  14.376
 1055W        W64823  20.175  26.205   2.297
 1056W        W64824  37.519  11.733   0.810
 1057W        W64825  44.931  10.633   4.823
 1058W        W64826   5.304   2.376  14.419
 1059W        W64827  36.911  30.014   1.355
 1060W        W64828  35.971   9.313   0.324
 1061W        W64829  30.587  18.260   0.421
 1062W        W64830  38.444  23.129   1.414
 1063W        W64831  34.505  32.429   1.269
 1064W        W64832  22.245  20.271   0.404
 1065W        W64833  31.445   7.789  13.422
 1066W        W64834   5.399   4.940  11.606
 1067W        W64835   7.240  24.495  12.415
 1068W        W64836  17.194  11.232  12.402
 1069W        W64837   2.295  17.277  11.000
 1070W        W64838  12.358  42.853   2.666
 1071W        W64839   3.312  42.967   2.254
 1072W        W64840  16.787  21.645   3.747
 1073W        W64841  20.186  14.127   1.722
 1074W        W64842  31.095   8.231  12.575
 1075W        W64843  29.458  10.144   0.353
 1076W        W64844  37.063  12.289  13.818
 1077W        W64845   9.350   4.783  10.589
 1078W        W64846  18.584  27.528   0.313
 1079W        W64847  33.905   3.270   4.769
 1080W        W64848  10.859   5.323   1.779
 1081W        W64849  20.526  33.421   9.441
 1082W        W64850  13.602  27.535  12.459
 1083W        W64851   0.415  44.489  14.915
 1084W        W64852  33.057  39.963  11.532
 1085W        W64853  39.367  10.287   0.950
 1086W        W64854   0.985  17.612  12.397
 1087W        W64855  44.386  39.459   3.715
 1088W        W64856  39.059  11.270  11.062
 1089W        W64857  30.641  11.212   1.787
 1090W        W64858   8.393  16.228  13.413
 1091W        W64859  26.644  15.223   0.391
 1092W        W64860  20.712  41.322   0.349
 1093W        W64861  40.383  35.422  10.408
 1094W        W64862  29.055   9.390  14.363
 1095W        W64863   4.792  12.340  14.012
 1096W        W64864   4.832  32.530   0.739
 1097W        W64865  35.904  43.425  14.970
 1098W        W64866  11.651  32.394  13.408
 1099W        W64867  25.558  32.553   0.359
 1100W        W64868  12.291   3.737   3.694
 1101W        W64869  41.465  36.920   4.324
 1102W        W64870  29.067  39.332   3.796
 1103W        W64871   7.885   2.785  14.885
 1104W        W64872  21.693  12.254  11.115
 1105W        W64873  19.040  39.447   1.858
 1106W        W64874  30.459  11.131   2.233
 1107W        W64875  15.257  27.034  13.872
 1108W        W64876  42.936  31.935   3.313
 1109W        W64877  42.835  18.787   5.119
 1110W        W64878  33.428  16.315  10.418
 1111W        W64879  24.645  25.993  11.596
 1112W        W64880   9.798  29.165  11.105
 1113W        W64881  39.428  41.010  12.472
 1114W        W64882  14.606  14.779   3.676
 1115W        W64883  32.584  18.663  10.961
 1116W        W64884  24.655  36.017   4.167
 1117W        W64885  39.379  22.197  11.022
 1118W        W64886  37.845  31.939   3.365
 1119W        W64887  16.684   8.261   1.447
 1120W        W64888  42.408  33.584  12.898
 1121W        W64889  44.876  16.574   2.675
 1122W        W64890  22.124   3.337   1.293
 1123W        W64891   9.330   6.341  12.545
 1124W        W64892  39.935  43.972  11.009
 1125W        W64893  13.170  24.139   0.378
 1126W        W64894  13.329  14.205   2.777
 1127W        W64895  32.594  33.586   3.243
 1128W        W64896  20.130  21.020  10.545
 1129W        W64897  22.059   5.239  11.954
 1130W        W64898  15.281  27.064  12.401
 1131W        W64899  14.603  25.976   1.838
 1132W        W64900  19.546   1.892   0.833
 1133W        W64901   2.838  22.574  12.055
 1134W        W64902  34.588  31.996  10.406
 1135W        W64903  41.477  26.460  14.760
 1136W        W64904   3.759  11.794  13.397
 1137W        W64905  22.507  22.653   3.194
 1138W        W64906   4.213   6.815  12.059
 1139W        W64907  44.379   5.916   2.733
 1140W        W64908  15.626  21.038   5.175
 1141W        W64909   4.408  32.399  12.496
 1142W        W64910  12.776  35.005   3.161
 1143W        W64911  35.871   9.814  12.395
 1144W        W64912  10.672  32.006   2.384
 1145W        W64913  22.658  15.242  10.968
 1146W        W64914  27.582  25.182  14.311
 1147W        W64915  42.021  37.044  10.998
 1148W        W64916  29.622  43.477   0.318
 1149W        W64917   2.863  19.705  10.448
 1150W        W64918  13.837   4.863   2.199
 1151W        W64919  15.309  31.439   0.890
 1152W        W64920  38.564  20.763   2.773
 1153W        W64921  39.974  26.614   3.776
 1154W        W64922  39.489  27.668   2.306
 1155W        W64923  28.095  16.299   4.279
 1156W        W64924   8.706  36.359   2.401
 1157W        W64925  12.806  15.307   3.243
 1158W        W64926   0.466  19.632  11.550
 1159W        W64927  14.107  20.535   0.271
 1160W        W64928   6.904  23.999   3.674
 1161W        W64929   0.460  17.695  11.035
 1162W        W64930  17.706  42.028  14.463
 1163W        W64931  24.661   6.691  12.345
 1164W        W64932  35.364   2.898  11.011
 1165W        W64933  22.033  34.044   4.803
 1166W        W64934  35.017  32.893  10.930
 1167W        W64935   7.325  34.609   4.267
 1168W        W64936  38.415  14.697   3.207
 1169W        W64937   7.382  24.070  12.442
 1170W        W64938  20.178  10.653  12.436
 1171W        W64939  14.637   3.219  11.923
 1172W        W64940   5.789  34.493  12.507
 1173W        W64941   3.734  35.367  13.810
 1174W        W64942  22.569  42.975  13.809
 1175W        W64943  43.010  10.735   1.365
 1176W        W64944  15.646  35.046  14.834
 1177W        W64945   6.835  13.341  12.961
 1178W        W64946  14.267  22.125   0.277
 1179W        W64947  42.861  31.097  13.858
 1180W        W64948  15.647   2.449  14.994
 1181W        W64949  20.137  33.571  14.808
 1182W        W64950  15.645   8.180  11.559
 1183W        W64951  36.441  19.613  14.969
 1184W        W64952  37.047  13.254   1.871
 1185W        W64953  20.623  23.649  11.569
 1186W        W64954   4.945  13.256   1.918
 1187W        W64955  17.265  22.598   4.629
 1188W        W64956  37.864  11.363   4.701
 1189W        W64957   5.870  17.615  13.829
 1190W        W64958  42.318  32.112   2.239
 1191W        W64959  23.203  21.200  12.990
 1192W        W64960  24.705   8.396   1.799
 1193W        W64961  12.651   8.857  11.977
 1194W        W64962  29.501  11.624   2.223
 1195W        W64963  33.391  10.332   3.768
 1196W        W64964  28.113   4.740   0.272
 1197W        W64965  38.343  24.605  10.522
 1198W        W64966  34.048  43.307   1.292
 1199W        W64967   5.227  36.900   5.735
 1200W        W64968   2.916  43.015  14.291
 1201W        W64969  32.468  12.817  13.421
 1202W        W64970  19.234  22.651  12.424
 1203W        W64971  11.187  21.027  10.560
 1204W        W64972  25.215  19.556  11.913
 1205W        W64973  18.215   2.792   2.347
 1206W        W64974  25.624  39.991  11.103
 1207W        W64975  24.122   1.470   4.675
 1208W        W64976  20.619  15.169   3.698
 1209W        W64977  19.185  35.900  14.369
 1210W        W64978  23.550  11.708  10.429
 1211W        W64979  43.320   5.303   1.258
 1212W        W64980  32.949  36.470  11.020
 1213W        W64981   6.704  44.861   3.782
 1214W        W64982  42.827   6.718  12.579
 1215W        W64983   0.443  12.614   3.342
 1216W        W64984  40.983   9.785  12.047
 1217W        W64985   2.810  43.812  10.463
 1218W        W64986   0.860  19.617  11.084
 1219W        W64987  40.865  42.977  13.023
 1220W        W64988  27.682  25.640   0.816
 1221W        W64989  26.130   2.928  12.410
 1222W        W64990  25.036  14.675  10.089
 1223W        W64991   7.229  39.904   2.749
 1224W        W64992   5.271  17.221  14.827
 1225W        W64993  32.117  40.500  14.893
 1226W        W64994  22.567  37.398   3.859
 1227W        W64995  23.518  22.726  14.328
 1228W        W64996  25.099  32.946  13.940
 1229W        W64997  18.276  22.554   0.905
 1230W        W64998  13.786  25.184  12.855
 1231W        W64999  19.119  30.416  10.518
 1232W        W65000  34.439  11.772  12.544
 1233W        W65001   8.763   5.809   0.277
 1234W        W65002   4.702   8.691   2.681
 1235W        W65003  25.596   2.450  10.983
 1236W        W65004   8.341  12.276  10.889
 1237W        W65005  11.317  27.578  10.474
 1238W        W65006  14.174  17.136  13.898
 1239W        W65007  28.954  16.638   4.125
 1240W        W65008  10.217  38.368   3.799
 1241W        W65009  26.700  28.515  14.954
 1242W        W65010  20.529   1.864   0.786
 1243W        W65011   7.879  20.201  14.407
 1244W        W65012  16.126  30.602   2.354
 1245W        W65013  36.395  20.173   3.264
 1246W        W65014  36.581   2.818   2.807
 1247W        W65015  43.017  25.991   3.332
 1248W        W65016  14.186   5.846  12.470
 1249W        W65017  39.956  42.881  14.332
 1250W        W65018  11.745  32.563   1.917
 1251W        W65019   3.458  32.407   2.324
 1252W        W65020  29.630  26.690   2.310
 1253W        W65021  11.803  27.177   4.707
 1254W        W65022  32.054   1.831   0.753
 1255W        W65023  30.599  34.967  12.570
 1256W        W65024  33.543  28.994   3.201
 1257W        W65025  15.224  16.167  13.818
 1258W        W65026   7.684  24.180  12.395
 1259W        W65027  37.392   0.885  12.953
 1260W        W65028   7.251  42.916   2.730
 1261W        W65029  21.021  44.998  14.441
 1262W        W65030   1.282   4.943  12.867
 1263W        W65031  38.918  10.714  12.517
 1264W        W65032  44.398  33.986  10.518
 1265W        W65033  30.000  23.564   1.307
 1266W        W65034  19.644   2.915  14.958
 1267W        W65035   4.829  22.209  12.442
 1268W        W65036  18.551  38.927  11.033
 1269W        W65037  18.724  19.154  13.405
 1270W        W65038  32.984   6.833   4.780
 1271W        W65039  33.903  43.989   1.363
 1272W        W65040  42.902  32.949  14.024
 1273W        W65041  19.278  20.133  12.346
 1274W        W65042  13.837  30.017  13.367
 1275W        W65043   6.884  35.513  10.625
 1276W        W65044  29.624  13.719   1.824
 1277W        W65045  35.879  23.040   2.220
 1278W        W65046  34.874  27.148  13.451
 1279W        W65047  28.459  20.163   3.718
 1280W        W65048  36.554  17.201  14.889
 1281W        W65049  34.007   1.326   3.303
 1282W        W65050   6.899  44.753  14.981
 1283W        W65051  12.171  20.238   2.899
 1284W        W65052  42.481  43.948   3.763
 1285W        W65053   8.802  44.912  11.986
 1286W        W65054  42.805  34.941   1.323
 1287W        W65055   4.933  11.754  13.927
 1288W        W65056   7.874  26.122  13.803
 1289W        W65057   2.417  38.392  11.876
 1290W        W65058  39.880  29.970  12.086
 1291W        W65059  29.653  15.758   0.465
 1292W        W65060  36.991  20.626   4.251
 1293W        W65061  14.134  13.677   2.733
 1294W        W65062  22.704  14.266   0.740
 1295W        W65063   8.665   1.320  13.905
 1296W        W65064   4.720   3.338   1.872
 1297W        W65065  13.203   4.906   0.828
 1298W        W65066   5.894   8.405  14.500
 1299W        W65067  12.754  17.799  14.919
 1300W        W65068  20.157   0.785   1.271
 1301W        W65069   0.313  32.009   0.338
 1302W        W65070  16.088  33.088   0.783
 1303W        W65071   8.778  11.138  12.998
 1304W        W65072  41.416  19.232   3.360
 1305W        W65073  33.403  30.441   0.399
 1306W        W65074  37.446  32.513  13.465
 1307W        W65075  19.227   9.255  13.344
 1308W        W65076  23.562  23.646  11.028
 1309W        W65077  30.495  40.038  12.873
 1310W        W65078  11.370  36.386  11.468
 1311W        W65079  37.573  25.633  10.621
 1312W        W65080  26.695  33.608  13.525
 1313W        W65081  27.491   8.233   4.764
 1314W        W65082  12.790  17.287  11.431
 1315W        W65083  22.726  11.778  10.988
 1316W        W65084  30.034   2.404   2.228
 1317W        W65085  32.100  13.715   4.224
 1318W        W65086  39.965  38.070  12.038
 1319W        W65087  13.266  26.083   4.194
 1320W        W65088  11.313  35.386  12.927
 1321W        W65089  15.221  33.402   1.783
 1322W        W65090  24.223  15.146   2.236
 1323W        W65091   2.774   7.762   3.300
 1324W        W65092  11.229  34.546   4.173
 1325W        W65093  41.400   2.407  12.454
 1326W        W65094  23.181   8.900   5.227
 1327W        W65095  36.500  18.578   1.411
 1328W        W65096  11.217   1.341  12.553
 1329W        W65097  31.945   7.284   3.837
 1330W        W65098  31.462  32.091  12.848
 1331W        W65099  16.093  16.756   5.642
 1332W        W65100  18.239  20.141  14.958
 1333W        W65101  30.412  34.492   4.758
 1334W        W65102   2.964  24.005  11.445
 1335W        W65103  17.660  22.573  11.418
 1336W        W65104  18.224   8.736  12.894
 1337W        W65105  30.070   2.236  13.513
 1338W        W65106  29.452  19.728   3.270
 1339W        W65107   7.363  21.548   3.781
 1340W        W65108  23.153  12.155   1.776
 1341W        W65109  39.557  18.704  12.040
 1342W        W65110  37.445  22.248   4.734
 1343W        W65111  44.309  40.368  13.345
 1344W        W65112  33.964  20.046  14.763
 1345W        W65113  34.038  30.106   2.332
 1346W        W65114  11.651  37.884   3.191
 1347W        W65115  40.022  17.568  11.567
 1348W        W65116  27.545  31.089  12.881
 1349W        W65117  35.965   7.286  11.915
 1350W        W65118  41.384  34.035   1.352
 1351W        W65119  23.522   1.848  11.074
 1352W        W65120  38.327  29.170   3.821
 1353W        W65121   4.305  29.637  14.413
 1354W        W65122  14.657   7.748   3.805
 1355W        W65123  20.096  16.778   0.957
 1356W        W65124  43.935  14.205   4.193
 1357W        W65125  13.648  37.423   0.285
 1358W        W65126   0.972  11.338   3.783
 1359W        W65127  39.418   2.346  13.419
 1360W        W65128  14.112  37.447   0.946
 1361W        W65129   3.755  22.707  11.986
 1362W        W65130  28.117  36.414  12.345
 1363W        W65131  11.830  23.230  12.343
 1364W        W65132   0.370  18.190  12.929
 1365W        W65133  28.083  28.655   2.898
 1366W        W65134   5.369  16.189  14.803
 1367W        W65135  28.035  37.396   2.747
 1368W        W65136  39.919  43.864  13.850
 1369W        W65137  28.068   6.279  11.904
 1370W        W65138   3.376  12.800  14.495
 1371W        W65139  14.782   5.748  14.379
 1372W        W65140  11.304  33.068  13.965
 1373W        W65141  34.608  11.193   3.292
 1374W        W65142  18.643  28.468   1.900
 1375W        W65143   7.241  12.670  11.914
 1376W        W65144  12.820  44.321  11.102
 1377W        W65145  14.260   8.865  10.484
 1378W        W65146   4.936  10.157   9.929
 1379W        W65147   1.353   4.918   2.383
 1380W        W65148  43.921   5.872   3.321
 1381W        W65149  11.256  25.482  13.847
 1382W        W65150  21.691   7.707   4.682
 1383W        W65151  24.713   0.420   4.646
 1384W        W65152  31.525   5.295   4.221
 1385W        W65153  41.040  28.956   2.309
 1386W        W65154   6.901   8.166  11.026
 1387W        W65155   4.287  21.098  10.570
 1388W        W65156  18.260   9.853   4.803
 1389W        W65157  24.061  15.758  11.510
 1390W        W65158  20.733   4.903  14.003
 1391W        W65159  19.541  20.637  10.416
 1392W        W65160   9.655  36.892   2.219
 1393W        W65161   7.872  19.584  13.916
 1394W        W65162  29.450  35.925  11.566
 1395W        W65163   6.426  17.225   4.294
 1396W        W65164  38.957  39.390  13.801
 1397W        W65165  37.488  14.129  14.828
 1398W        W65166  44.817  23.674  11.572
 1399W        W65167  10.834  43.456   3.176
 1400W        W65168   1.395  40.464  10.462
 1401W        W65169   7.384  43.808   2.322
 1402W        W65170  31.077  36.359  12.980
 1403W        W65171  27.596  11.370   4.603
 1404W        W65172   1.773  34.370  12.410
 1405W        W65173  24.074  25.605  10.562
 1406W        W65174  29.922  43.019  13.953
 1407W        W65175   5.870  25.552  14.300
 1408W        W65176  36.939  43.289  11.016
 1409W        W65177  26.678  20.582   3.715
 1410W        W65178  27.507  13.773  11.420
 1411W        W65179   2.951  39.819   0.344
 1412W        W65180  44.312   9.866  11.974
 1413W        W65181  25.037  30.983   3.812
 1414W        W65182   6.915  10.875   2.901
 1415W        W65183   7.177   1.367   3.840
 1416W        W65184  18.177  16.132   4.618
 1417W        W65185  35.361  21.023  12.346
 1418W        W65186  37.029  44.470   4.789
 1419W        W65187  33.043  23.689   4.198
 1420W        W65188  38.504   6.784  11.985
 1421W        W65189  22.502  42.494   1.422
 1422W        W65190   3.422  42.798  12.347
 1423W        W65191  29.438  33.448   4.825
 1424W        W65192  32.535  43.472   3.635
 1425W        W65193  39.538  26.634   4.742
 1426W        W65194  25.606   2.414  11.933
 1427W        W65195  13.195   9.680   0.270
 1428W        W65196  30.125  17.748  14.493
 1429W        W65197  24.641  38.542   3.360
 1430W        W65198  38.836  30.915   0.736
 1431W        W65199   3.843  15.164   2.786
 1432W        W65200  20.528  19.100  10.639
 1433W        W65201   5.334  44.988   4.670
 1434W        W65202  37.520  29.923  13.420
 1435W        W65203   4.798  23.709   3.808
 1436W        W65204   5.733  29.609  10.442
 1437W        W65205   2.280  18.114   1.352
 1438W        W65206  29.653  23.544   2.289
 1439W        W65207  35.101  24.676  11.392
 1440W        W65208  29.663   8.825   4.354
 1441W        W65209  28.473  34.502  13.398
 1442W        W65210  14.834  29.645   3.156
 1443W        W65211  18.553  43.013  13.886
 1444W        W65212  19.056  11.264   4.717
 1445W        W65213  14.197  18.172  11.533
 1446W        W65214  19.695   2.330   2.326
 1447W        W65215  19.191   3.266  10.538
 1448W        W65216  20.759  14.112   3.151
 1449W        W65217   3.758  26.010  12.967
 1450W        W65218  34.974  36.081  12.543
 1451W        W65219  29.623  11.659   4.731
 1452W        W65220  43.403   2.858   1.402
 1453W        W65221  10.225  24.070  12.861
 1454W        W65222  15.780  31.982  14.917
 1455W        W65223  20.748   7.802   4.146
 1456W        W65224  37.385   5.338   5.298
 1457W        W65225   2.287  31.938  10.079
 1458W        W65226  41.916  27.036   4.161
 1459W        W65227  23.672  33.581   0.799
 1460W        W65228  12.648  39.031  13.012
 1461W        W65229   6.870   4.825   4.349
 1462W        W65230   1.345   8.224   1.212
 1463W        W65231  11.709  34.449  13.508
 1464W        W65232  14.814  27.690   0.282
 1465W        W65233   5.886   7.713  12.360
 1466W        W65234  26.989  44.375   1.921
 1467W        W65235  20.740   8.765  14.479
 1468W        W65236  35.579  30.028  10.925
 1469W        W65237  18.760  29.512  12.509
 1470W        W65238   1.316   4.388  14.926
 1471W        W65239  16.094  11.295  13.830
 1472W        W65240  30.484  41.492   4.823
 1473W        W65241  12.328  32.432  13.469
 1474W        W65242  12.350  43.494  14.933
 1475W        W65243  39.443   5.927  11.951
 1476W        W65244   5.224  35.961  14.285
 1477W        W65245  27.670  35.404   1.743
 1478W        W65246  37.003  16.686  14.308
 1479W        W65247  40.459   6.741  14.871
 1480W        W65248  35.401   8.267  14.296
 1481W        W65249  14.115   6.315  12.974
 1482W        W65250  16.208  12.793  10.530
 1483W        W65251   1.389  40.897  12.460
 1484W        W65252  21.163  44.373   2.827
 1485W        W65253  25.970  23.142  13.523
 1486W        W65254  21.128  21.634  11.077
 1487W        W65255  15.707  10.649   3.305
 1488W        W65256  30.041  22.214   4.269
 1489W        W65257  22.687  24.539   2.787
 1490W        W65258  37.560  29.526   3.319
 1491W        W65259  41.377  32.039  10.988
 1492W        W65260  13.812  10.207  10.460
 1493W        W65261  16.174  36.051   1.397
 1494W        W65262  27.474  11.362  14.973
 1495W        W65263  39.847   1.811  13.887
 1496W        W65264  13.259  32.101  13.004
 1497W        W65265  37.372  40.843   0.437
 1498W        W65266   7.753  39.419   3.310
 1499W        W65267  31.525  31.125  11.014
 1500W        W65268  35.964  18.686  14.768
 1501W        W65269   3.867  17.794  10.999
 1502W        W65270  13.334  34.534  13.342
 1503W        W65271  12.739  10.664  14.979
 1504W        W65272  41.363  17.721   2.214
 1505W        W65273  43.923  42.982  10.539
 1506W        W65274  32.596  17.585  14.404
 1507W        W65275  30.471   2.916   2.829
 1508W        W65276  42.851  35.371  14.404
 1509W        W65277  26.193  14.286  11.540
 1510W        W65278  40.904   8.293   4.787
 1511W        W65279   5.694  15.755  10.580
 1512W        W65280   5.416  26.007  10.899
 1513W        W65281  27.130  36.445   1.294
 1514W        W65282  43.814  21.626  13.459
 1515W        W65283  19.071   2.415   3.202
 1516W        W65284  42.471   9.378  14.302
 1517W        W65285  10.231  37.834   2.788
 1518W        W65286   6.427   0.851   2.796
 1519W        W65287  38.046  21.527  13.545
 1520W        W65288   5.432  20.676   3.258
 1521W        W65289  36.529  38.842   4.171
 1522W        W65290  10.218   4.254   3.679
 1523W        W65291  30.439  10.275   1.414
 1524W        W65292  34.022  33.565  14.012
 1525W        W65293  38.419   9.830  11.419
 1526W        W65294  29.585  24.121   2.384
 1527W        W65295  23.206  23.624   4.275
 1528W        W65296   8.788   3.241   2.845
 1529W        W65297   5.734  34.076   3.674
 1530W        W65298  14.757  24.168  12.533
 1531W        W65299  10.690   3.818  10.459
 1532W        W65300  21.615  44.910  11.513
 1533W        W65301  14.175  19.772  11.574
 1534W        W65302  29.028  21.146  12.501
 1535W        W65303   7.324  31.490  11.544
 1536W        W65304  35.901  34.983   3.843
 1537W        W65305   3.925  24.653  14.023
 1538W        W65306  42.471   3.853   1.739
 1539W        W65307  42.328  38.912  11.090
 1540W        W65308  42.968  10.869   2.827
 1541W        W65309  16.789  24.090   4.348
 1542W        W65310  29.593  20.590  12.534
 1543W        W65311  17.265  11.693   3.191
 1544W        W65312  18.735  36.038  12.339
 1545W        W65313   5.318   7.309   1.261
 1546W        W65314  40.927   3.850   3.635
 1547W        W65315  26.058  28.608  12.847
 1548W        W65316  30.979   9.149   4.237
 1549W        W65317  44.355  24.141  11.462
 1550W        W65318   9.184  14.627  12.442
 1551W        W65319  26.619  37.513   3.786
 1552W        W65320  44.402  41.400   5.149
 1553W        W65321  43.479  38.454  11.501
 1554W        W65322   1.297  12.223  14.470
 1555W        W65323  43.820  23.551  10.645
 1556W        W65324  26.202   5.764  10.543
 1557W        W65325  43.845  22.194   0.895
 1558W        W65326  32.625  33.084   4.254
 1559W        W65327  33.383   8.837  11.522
 1560W        W65328  37.382  21.033   3.319
 1561W        W65329  26.085  32.543   2.331
 1562W        W65330  28.510   7.400  14.908
 1563W        W65331  33.413  31.539  11.855
 1564W        W65332  10.715  44.308  14.965
 1565W        W65333   6.183  34.459   1.933
 1566W        W65334  22.066  20.030   2.413
 1567W        W65335  20.165  24.046   3.226
 1568W        W65336  30.137  17.201   3.829
 1569W        W65337  40.377  11.281  10.570
 1570W        W65338   5.229  18.592   2.847
 1571W        W65339  30.048  21.208  11.487
 1572W        W65340  38.067  22.655  13.964
 1573W        W65341   2.874  20.727  14.943
 1574W        W65342  37.881  44.263   3.785
 1575W        W65343  13.253   1.445   1.417
 1576W        W65344  16.590  44.779  13.370
 1577W        W65345  28.068   8.384  14.419
 1578W        W65346  24.494   6.754  14.282
 1579W        W65347   1.925  19.745  14.903
 1580W        W65348  26.574  38.420   4.610
 1581W        W65349   9.752   5.789  14.903
 1582W        W65350  35.076  35.108  12.972
 1583W        W65351  34.083  43.940   0.897
 1584W        W65352  30.444  23.706   0.389
 1585W        W65353  33.476  13.204  12.891
 1586W        W65354   2.898   5.197  11.902
 1587W        W65355  15.162  11.219   2.761
 1588W        W65356  41.399  18.273  11.082
 1589W        W65357   6.765  22.685   1.216
 1590W        W65358  28.545  33.905   0.732
 1591W        W65359   2.451  24.994  14.944
 1592W        W65360  20.257   7.735   4.814
 1593W        W65361   5.719  22.085   1.318
 1594W        W65362  44.393   9.241   0.768
 1595W        W65363  10.716  12.174   0.927
 1596W        W65364  11.630   5.244   2.408
 1597W        W65365  33.476  16.302  10.935
 1598W        W65366   4.834  28.540  13.059
 1599W        W65367  34.937  38.403  10.422
 1600W        W65368  30.046  18.591   0.425
 1601W        W65369  42.853  17.780   1.289
 1602W        W65370   3.217  27.495  14.428
 1603W        W65371  27.099  15.141  11.562
 1604W        W65372  20.085  12.263   3.668
 1605W        W65373  29.475  38.011   1.809
 1606W        W65374  35.948   6.343  12.061
 1607W        W65375  12.710  44.494  14.499
 1608W        W65376  24.645  17.683  12.881
 1609W        W65377   9.234  41.862   4.131
 1610W        W65378  16.255  30.005  11.562
 1611W        W65379  38.420   9.815  14.972
 1612W        W65380  16.121  27.977   4.176
 1613W        W65381  38.378  13.291   4.326
 1614W        W65382  39.970  26.989  10.410
 1615W        W65383  20.075   5.396   3.198
 1616W        W65384  20.571  26.506  10.419
 1617W        W65385  17.572  17.606  13.011
 1618W        W65386   0.888  24.598   4.730
 1619W        W65387  30.117   5.763  10.416
 1620W        W65388  30.129   3.878  11.593
 1621W        W65389  33.445  35.088  13.810
 1622W        W65390  37.515  12.334   2.880
 1623W        W65391  33.398  19.238  12.455
 1624W        W65392  43.885   6.760   4.159
 1625W        W65393  15.134   0.279  10.638
 1626W        W65394  39.033  36.482   2.901
 1627W        W65395  27.130  10.766  14.982
 1628W        W65396  13.691   4.848   4.698
 1629W        W65397   3.907  28.958  12.978
 1630W        W65398   4.276  27.972  11.493
 1631W        W65399  28.164  17.735   4.183
 1632W        W65400   6.397  24.974   4.292
 1633W        W65401  11.634  34.370   4.338
 1634W        W65402   8.263  16.812   0.403
 1635W        W65403  29.130  15.153   2.404
 1636W        W65404  37.361   4.790  14.359
 1637W        W65405  24.680  26.500   0.966
 1638W        W65406  10.326   7.790   0.846
 1639W        W65407  39.808  15.127  13.497
 1640W        W65408  38.922  37.079   2.208
 1641W        W65409  18.224   1.853   1.260
 1642W        W65410  19.104  12.642   0.903
 1643W        W65411  41.911  15.821   3.276
 1644W        W65412  36.904  31.485  12.430
 1645W        W65413  13.825  37.013   1.327
 1646W        W65414  37.401  31.493  14.352
 1647W        W65415  44.866  10.312  10.405
 1648W        W65416  37.848  33.493   4.217
 1649W        W65417  24.127   8.812  11.544
 1650W        W65418  30.919  31.611  13.521
 1651W        W65419   2.465  28.029   2.400
 1652W        W65420  39.344  32.941   4.780
 1653W        W65421  17.168  13.255  13.457
 1654W        W65422  11.818  36.416   0.822
 1655W        W65423  16.717  24.074  14.453
 1656W        W65424  30.939   5.389   2.725
 1657W        W65425  27.960  35.024   4.813
 1658W        W65426  37.065  18.160  10.475
 1659W        W65427  41.478  38.381   1.863
 1660W        W65428  21.110  40.899   3.345
 1661W        W65429   9.364   4.287   0.858
 1662W        W65430   4.241  38.915  10.486
 1663W        W65431  13.804   9.162  10.890
 1664W        W65432  20.115  28.087  14.922
 1665W        W65433  22.552  26.000  11.074
 1666W        W65434  29.933  20.649  14.438
 1667W        W65435   0.304   7.737  11.064
 1668W        W65436  35.106  43.433   2.800
 1669W        W65437   3.908  13.207   3.211
 1670W        W65438  20.186  22.730  13.395
 1671W        W65439  26.172  33.567   3.700
 1672W        W65440  23.514  34.613  14.875
 1673W        W65441   5.342  19.670  12.844
 1674W        W65442  14.665   4.308  12.870
 1675W        W65443  20.743  25.660  14.898
 1676W        W65444  28.501  36.420  14.794
 1677W        W65445  27.494  30.911  14.384
 1678W        W65446   1.310  16.732  14.893
 1679W        W65447  32.063  32.057  13.063
 1680W        W65448  33.447   9.255   5.250
 1681W        W65449   3.946  19.165   4.242
 1682W        W65450  17.632  36.093  12.456
 1683W        W65451   7.690  21.017  14.829
 1684W        W65452  21.617  23.052  14.408
 1685W        W65453   9.331  14.295  13.471
 1686W        W65454  42.881  36.515   3.339
 1687W        W65455   5.414  35.554   0.728
 1688W        W65456  43.303  19.688  10.021
 1689W        W65457  23.645  12.117  13.970
 1690W        W65458  38.542  44.441  12.894
 1691W        W65459  14.262   9.206   2.797
 1692W        W65460  21.029  20.635  14.939
 1693W        W65461  32.630  39.941  10.590
 1694W        W65462  31.438  25.079   0.410
 1695W        W65463   2.353   2.380   0.750
 1696W        W65464  43.957  21.736   4.732
 1697W        W65465  34.401  40.351  14.306
 1698W        W65466  35.574   1.902  10.900
 1699W        W65467  29.010  16.184  13.865
 1700W        W65468  18.690   6.796  10.434
 1701W        W65469  35.556   6.776   4.814
 1702W        W65470  16.225  14.185   4.621
 1703W        W65471  24.520  26.116   4.624
 1704W        W65472  20.232   9.243   4.154
 1705W        W65473   7.356  16.796   0.862
 1706W        W65474  11.361  39.490   3.684
 1707W        W65475  25.016  32.476  10.570
 1708W        W65476  37.949   1.962   3.372
 1709W        W65477  16.153   0.293   4.287
 1710W        W65478  14.172  24.169   4.340
 1711W        W65479   3.285  23.994  11.565
 1712W        W65480   1.326  19.235   1.825
 1713W        W65481  24.714  14.831  12.515
 1714W        W65482  12.184  18.221  11.392
 1715W        W65483  36.069  20.270  13.849
 1716W        W65484  34.440  15.775   5.320
 1717W        W65485  26.543  22.074   1.722
 1718W        W65486  37.034  29.607   3.766
 1719W        W65487  15.616  27.637   3.765
 1720W        W65488  37.908  44.481  11.117
 1721W        W65489  34.423  21.743  11.395
 1722W        W65490   7.406  22.108   2.854
 1723W        W65491  31.917  17.082   2.850
 1724W        W65492  43.875  23.109  11.580
 1725W        W65493  33.885   8.389   3.867
 1726W        W65494   6.702  26.682  11.108
 1727W        W65495  24.623  24.154   3.807
 1728W        W65496   1.282   2.400  10.473
 1729W        W65497  44.856  33.062  14.861
 1730W        W65498  25.704  20.626   0.809
 1731W        W65499  43.400   6.752   2.762
 1732W        W65500  35.997   0.978  13.975
 1733W        W65501  17.075   1.420   3.820
 1734W        W65502  15.233  43.851  10.970
 1735W        W65503  26.192  24.512   3.711
 1736W        W65504   8.716  20.124   3.727
 1737W        W65505  29.111  17.772  14.940
 1738W        W65506   2.839  40.000   1.760
 1739W        W65507  10.280  39.882  10.502
 1740W        W65508  41.841  29.111  14.403
 1741W        W65509   4.820  28.616   1.321
 1742W        W65510  13.295  31.466   2.272
 1743W        W65511  24.198  14.832   4.169
 1744W        W65512  40.924  36.423  11.470
 1745W        W65513   0.410  23.660   4.203
 1746W        W65514  19.778  11.236  13.365
 1747W        W65515  12.798   2.761  12.399
 1748W        W65516  36.960  11.212  14.482
 1749W        W65517  21.158  37.477   1.395
 1750W        W65518  37.895  29.538   9.532
 1751W        W65519   5.331  31.094   2.862
 1752W        W65520  24.533  37.510   2.849
 1753W        W65521  19.279  23.541  10.914
 1754W        W65522  18.293  20.599   3.306
 1755W        W65523  30.425  27.164   1.306
 1756W        W65524  25.697   7.675   2.777
 1757W        W65525   8.228  42.486  12.949
 1758W        W65526  43.460   0.257  13.351
 1759W        W65527   1.774   4.235   3.854
 1760W        W65528   0.783  31.007   3.330
 1761W        W65529   7.694   1.383  13.039
 1762W        W65530  33.601  31.963   1.320
 1763W        W65531  30.057  12.757   4.759
 1764W        W65532  19.069  16.072   1.779
 1765W        W65533  30.508  33.405  13.897
 1766W        W65534   9.682   9.794  10.484
 1767W        W65535  39.931  18.171   1.419
 1768W        W65536  14.194  35.093   1.710
 1769W        W65537  37.368  30.540   1.711
 1770W        W65538  35.865  33.034  12.905
 1771W        W65539  18.684  11.337   3.694
 1772W        W65540  19.228  40.031  14.892
 1773W        W65541  27.042  34.514   4.251
 1774W        W65542  18.621  37.966  11.471
 1775W        W65543  10.382  42.897   3.352
 1776W        W65544  40.815  10.159  12.947
 1777W        W65545  28.482  30.443  12.497
 1778W        W65546  19.536  15.629   0.853
 1779W        W65547  32.931  19.622  13.822
 1780W        W65548  22.628   0.297   4.701
 1781W        W65549  16.227  21.655  10.581
 1782W        W65550   0.882  20.661   1.782
 1783W        W65551   9.341  24.173  10.058
 1784W        W65552  16.728  15.621   2.870
 1785W        W65553  27.560  43.319   4.740
 1786W        W65554  22.087   4.862   4.339
 1787W        W65555  22.074   5.827   4.123
 1788W        W65556  16.301  20.523   0.449
 1789W        W65557  41.914  41.508  10.410
 1790W        W65558  27.566   9.708   3.701
 1791W        W65559  18.599  23.048  13.473
 1792W        W65560  39.892  30.980   3.227
 1793W        W65561  37.069  22.695  13.410
 1794W        W65562  28.149  25.159   9.926
 1795W        W65563  31.051  15.168   2.771
 1796W        W65564  23.176  27.029  11.466
 1797W        W65565  12.654  12.222  10.963
 1798W        W65566  12.691  20.068   0.907
 1799W        W65567  38.490   4.700  11.483
 1800W        W65568   9.309  18.057   5.129
 1801W        W65569  28.038  44.475  12.035
 1802W        W65570  26.637   7.315  12.964
 1803W        W65571  11.794  15.653   2.339
 1804W        W65572  36.359  38.430  14.341
 1805W        W65573   7.232  43.004   0.767
 1806W        W65574  33.983  30.636  11.375
 1807W        W65575   6.400  22.202  11.373
 1808W        W65576  32.051  36.447   3.228
 1809W        W65577  14.663   9.694   2.210
 1810W        W65578  12.227  10.651   3.809
 1811W        W65579  19.628  36.090  12.911
 1812W        W65580  39.956  29.517   0.427
 1813W        W65581  39.959  42.894   0.347
 1814W        W65582  18.780  32.579   0.790
 1815W        W65583  29.610  22.731   1.221
 1816W        W65584  40.996  24.037  11.396
 1817W        W65585  22.553   2.874   0.412
 1818W        W65586  42.443  33.038   4.693
 1819W        W65587  42.437  38.835  11.886
 1820W        W65588  23.099  33.568   3.191
 1821W        W65589  20.618   0.802  11.003
 1822W        W65590  25.004  12.821   2.672
 1823W        W65591  14.810  28.569  11.094
 1824W        W65592  32.410  21.586  11.504
 1825W        W65593  10.800   3.921  13.019
 1826W        W65594   4.776  27.679   0.966
 1827W        W65595  30.934  44.446  13.360
 1828W        W65596  19.247  34.388  12.824
 1829W        W65597  19.677  25.124  12.972
 1830W        W65598   1.801  23.988  13.479
 1831W        W65599  38.430   6.225   3.215
 1832W        W65600   9.212   2.291   4.643
 1833W        W65601  22.711  12.259  14.846
 1834W        W65602  21.251  28.622   2.737
 1835W        W65603   3.373  29.546  12.877
 1836W        W65604   0.845  41.376  14.357
 1837W        W65605  27.989  32.971  13.310
 1838W        W65606  34.884  28.143   3.839
 1839W        W65607   7.852  22.091   0.265
 1840W        W65608  40.443  36.029  13.971
 1841W        W65609  34.615  21.241  13.486
 1842W        W65610   7.821   0.435   0.244
 1843W        W65611  35.041  43.370   4.327
 1844W        W65612   4.399  10.815   4.746
 1845W        W65613  27.627  33.486  10.534
 1846W        W65614   2.759   7.406  12.346
 1847W        W65615  36.558  29.445   0.963
 1848W        W65616  26.608  27.609   2.378
 1849W        W65617   6.400  23.177  12.855
 1850W        W65618  10.874  29.462   3.198
 1851W        W65619  13.794  16.662  13.923
 1852W        W65620  15.210  25.668  12.512
 1853W        W65621  10.745  24.979   1.447
 1854W        W65622  40.920  23.509   3.780
 1855W        W65623  20.068  43.341  11.881
 1856W        W65624  18.292   8.314   2.668
 1857W        W65625  43.385  39.986  12.975
 1858W        W65626  24.099  13.114  10.047
 1859W        W65627  17.655  40.868   3.359
 1860W        W65628  14.703  27.670   4.149
 1861W        W65629   5.294  34.908  14.904
 1862W        W65630  30.641  29.587  12.054
 1863W        W65631   7.358  12.657   4.769
 1864W        W65632  11.221   5.722  13.025
 1865W        W65633  16.169   8.843  14.780
 1866W        W65634  20.562   0.774  11.437
 1867W        W65635  16.302  40.527  10.632
 1868W        W65636   8.797  25.061   0.915
 1869W        W65637  12.804  25.040   1.832
 1870W        W65638  20.166   7.909  10.894
 1871W        W65639  33.524  40.873   3.335
 1872W        W65640   7.185   9.648  14.939
 1873W        W65641  38.480  17.237  10.907
 1874W        W65642  21.585   0.873  12.490
 1875W        W65643  10.756  43.776   1.267
 1876W        W65644  27.668  38.964   3.737
 1877W        W65645  15.214  12.191   3.208
 1878W        W65646   4.698  24.676  11.441
 1879W        W65647  27.481  14.778  13.921
 1880W        W65648  36.855  40.930   2.717
 1881W        W65649   1.773   5.761   2.305
 1882W        W65650   0.344  34.528  12.401
 1883W        W65651  40.310  44.285   1.826
 1884W        W65652  18.146  29.541  13.309
 1885W        W65653  13.330  18.058   4.744
 1886W        W65654  24.632  35.394  10.046
 1887W        W65655  20.043  11.308   4.824
 1888W        W65656  17.297  21.607   2.386
 1889W        W65657   8.219  22.198   1.721
 1890W        W65658   9.785  17.228  11.965
 1891W        W65659   6.202  36.554   3.213
 1892W        W65660  26.618  24.043   1.250
 1893W        W65661  40.842   4.723   3.815
 1894W        W65662  37.038  34.952  10.410
 1895W        W65663  21.022  28.003  11.096
 1896W        W65664  27.149  21.085  13.503
 1897W        W65665   4.361  10.160   2.310
 1898W        W65666  42.408  19.693  14.810
 1899W        W65667  43.281  12.162  11.493
 1900W        W65668   9.368  27.459   3.354
 1901W        W65669   7.294  41.322   0.479
 1902W        W65670  15.621  34.368   2.721
 1903W        W65671   9.689  28.165  11.427
 1904W        W65672  24.211  32.020   5.144
 1905W        W65673  31.149  27.549   0.855
 1906W        W65674  16.240  32.622  14.815
 1907W        W65675  42.509  38.538   2.366
 1908W        W65676  20.249  41.340   4.833
 1909W        W65677   4.263  12.255   2.797
 1910W        W65678  10.314  28.465  10.957
 1911W        W65679  27.526  31.923   0.283
 1912W        W65680  21.591   0.276   1.720
 1913W        W65681  29.472  10.767  13.448
 1914W        W65682   4.439   6.229  12.550
 1915W        W65683  16.227   1.748  12.480
 1916W        W65684  28.546  24.552   3.820
 1917W        W65685  19.193  14.256  13.833
 1918W        W65686  24.205  42.895   0.270
 1919W        W65687  22.610  31.558   4.631
 1920W        W65688  33.029  42.999   2.279
 1921W        W65689   1.839  37.450  10.455
 1922W        W65690  44.887  21.240   5.208
 1923W        W65691  18.167   6.186   2.804
 1924W        W65692  31.985  26.034   2.706
 1925W        W65693  34.544  20.204  12.394
 1926W        W65694  24.085  32.965  10.989
 1927W        W65695  10.183  41.375  11.609
 1928W        W65696  39.420  24.005   0.482
 1929W        W65697  34.930  37.977  14.454
 1930W        W65698  36.992  37.935  14.308
 1931W        W65699  40.924   4.299  11.466
 1932W        W65700  21.734  13.829   3.705
 1933W        W65701  18.268  42.299   4.667
 1934W        W65702  18.258  27.673  13.865
 1935W        W65703  44.462  15.738  11.877
 1936W        W65704   8.172   3.422   4.702
 1937W        W65705  20.668   2.261   2.857
 1938W        W65706  32.123  14.806   0.928
 1939W        W65707  17.096  24.101  12.435
 1940W        W65708  20.263  36.489   1.881
 1941W        W65709  38.997  32.022  14.371
 1942W        W65710  20.210  35.033   1.416
 1943W        W65711   5.812  17.573  11.063
 1944W        W65712  39.414  28.008   2.708
 1945W        W65713  42.301  20.133   4.673
 1946W        W65714  29.605   4.356   4.703
 1947W        W65715  36.351  29.546  14.025
 1948W        W65716  41.436  30.980  13.360
 1949W        W65717  34.587  22.562   4.140
 1950W        W65718  25.701  28.673  13.513
 1951W        W65719  24.994  22.588   1.847
 1952W        W65720  19.138  22.012   2.341
 1953W        W65721  29.972  42.464  14.475
 1954W        W65722  24.629  30.064  13.524
 1955W        W65723  10.651  12.654   0.913
 1956W        W65724  36.591  41.000  10.441
 1957W        W65725   1.866  19.566   4.187
 1958W        W65726  24.024  14.209   3.386
 1959W        W65727   3.276   8.190  12.349
 1960W        W65728  11.720  23.638  12.971
 1961W        W65729  28.567  40.345   1.252
 1962W        W65730  10.714  27.144   2.868
 1963W        W65731  38.930   7.861  11.949
 1964W        W65732   7.350  35.590  11.947
 1965W        W65733   6.807  36.467  10.930
 1966W        W65734  38.327  37.027   0.809
 1967W        W65735  17.663  39.412   4.136
 1968W        W65736  43.773  30.966  14.471
 1969W        W65737  32.466  43.875  13.548
 1970W        W65738  12.612  43.371   0.916
 1971W        W65739  41.424  43.441   3.169
 1972W        W65740  33.964  33.940   4.257
 1973W        W65741  41.412  28.526   3.354
 1974W        W65742   4.821  30.958   3.298
 1975W        W65743  36.348  30.485   2.677
 1976W        W65744  42.946   7.756   0.831
 1977W        W65745   2.466  16.635  13.377
 1978W        W65746  23.117  42.523  11.024
 1979W        W65747  37.487  28.104   0.479
 1980W        W65748  43.891   9.389  12.937
 1981W        W65749  38.348  30.117  13.809
 1982W        W65750  27.955  29.101  10.888
 1983W        W65751  27.956  43.311  11.864
 1984W        W65752  40.953   2.463  14.330
 1985W        W65753  40.369   0.463   4.811
 1986W        W65754  21.549  34.558  14.435
 1987W        W65755   6.260   2.879   0.848
 1988W        W65756  31.521  25.059  14.824
 1989W        W65757  17.580  43.340  12.401
 1990W        W65758   6.201  14.591   1.880
 1991W        W65759  36.923  20.656  10.953
 1992W        W65760  38.513  21.522   4.284
 1993W        W65761   8.385  21.261  11.398
 1994W        W65762  25.022   1.344  10.503
 1995W        W65763  41.897  19.658   2.298
 1996W        W65764  15.666  39.943   4.768
 1997W        W65765  31.896  37.874   1.705
 1998W        W65766  10.239  13.831   0.367
 1999W        W65767  40.839  19.733  14.312
 2000W        W65768   9.685  21.176   0.306
 2001W        W65769  38.552  44.984   3.652
 2002W        W65770  35.498   1.346   3.374
 2003W        W65771  21.241  31.927   5.127
 2004W        W65772  27.473  31.063  11.863
 2005W        W65773   4.725  11.632  10.442
 2006W        W65774  24.105   4.748  13.383
 2007W        W65775  32.912  40.914  10.561
 2008W        W65776   2.830  42.363  10.540
 2009W        W65777  36.533  38.848  14.790
 2010W        W65778   4.378  27.469   2.315
 2011W        W65779  12.238  13.766  12.538
 2012W        W65780  19.222   3.729  13.390
 2013W        W65781   5.384  12.169   0.431
 2014W        W65782  37.495  19.605  11.377
 2015W        W65783  17.717  24.140  14.394
 2016W        W65784  20.132  36.902  10.411
 2017W        W65785  40.467   2.814   3.338
 2018W        W65786  30.604  28.979  13.543
 2019W        W65787  34.993   0.311  12.014
 2020W        W65788  40.800   2.813   1.816
 2021W        W65789  21.616  33.001  12.471
 2022W        W65790   8.729  14.590   5.201
 2023W        W65791  21.048  27.978   3.722
 2024W        W65792  40.534  12.298   1.210
 2025W        W65793  37.965  40.800   1.330
 2026W        W65794  28.658  44.975  14.769
 2027W        W65795  35.385  38.498   3.765
 2028W        W65796  18.668  44.275   3.698
 2029W        W65797  38.876  21.720   3.709
 2030W        W65798  32.490  44.970  12.911
 2031W        W65799   2.378  27.002  12.868
 2032W        W65800  44.984  42.016  13.450
 2033W        W65801  33.455  13.288   3.271
 2034W        W65802   4.212  38.967  11.027
 2035W        W65803  26.559  13.652   1.823
 2036W        W65804  34.436  31.959   4.142
 2037W        W65805  32.945  18.080  14.958
 2038W        W65806  30.973  35.563  10.609
 2039W        W65807  12.829  38.357  12.936
 2040W        W65808  37.503  12.133  10.617
 2041W        W65809  31.404  26.090  10.930
 2042W        W65810  23.575  30.648   3.160
 2043W        W65811  42.947  43.484  14.457
 2044W        W65812  22.199  25.133   1.236
 2045W        W65813  25.015  33.473   0.472
 2046W        W65814  41.429  33.550   2.370
 2047W        W65815  40.474   8.877  13.988
 2048W        W65816   4.299  33.470  10.445
 2049W        W65817   5.417  37.404  12.532
 2050W        W65818  39.524   9.711   3.846
 2051W        W65819  42.784  36.405  11.484
 2052W        W65820  12.334   9.358   3.669
 2053W        W65821  39.374  21.098  10.995
 2054W        W65822  34.972  13.840  11.966
 2055W        W65823  16.665  28.946  11.385
 2056W        W65824  33.054  17.779  11.405
 2057W        W65825  40.307  21.524   1.703
 2058W        W65826   6.351   4.753   1.335
 2059W        W65827  32.040  42.823   1.743
 2060W        W65828   0.948  33.041   0.886
 2061W        W65829   6.311  10.342   9.961
 2062W        W65830   4.354  14.201  14.434
 2063W        W65831  24.500  16.620  13.334
 2064W        W65832  23.230  25.485  14.013
 2065W        W65833   7.666  26.975  10.435
 2066W        W65834  13.812  28.501  13.447
 2067W        W65835  25.666  34.892  14.351
 2068W        W65836  12.652  30.585   0.369
 2069W        W65837  21.101  35.429   2.895
 2070W        W65838  27.163  16.257   0.740
 2071W        W65839  20.152  35.529   0.248
 2072W        W65840  44.451  16.128   4.615
 2073W        W65841  12.775  21.684   0.295
 2074W        W65842  35.896  40.827  11.489
 2075W        W65843   5.699  27.004  12.069
 2076W        W65844  20.535  40.837   2.837
 2077W        W65845  26.687  37.431   2.202
 2078W        W65846  32.417  21.045  12.348
 2079W        W65847  14.803  19.193   0.776
 2080W        W65848  13.715  11.764   1.329
 2081W        W65849  27.581  16.790   3.631
 2082W        W65850  39.917  43.500  11.115
 2083W        W65851  23.719  31.512  11.476
 2084W        W65852  33.466   8.722   4.777
 2085W        W65853  16.635   9.872  14.363
 2086W        W65854   3.771  25.506   4.791
 2087W        W65855  35.361  16.568  12.439
 2088W        W65856  23.123  19.670   4.603
 2089W        W65857  24.120  39.355  10.449
 2090W        W65858  23.037   0.308  14.957
 2091W        W65859  33.978  43.882  11.960
 2092W        W65860   7.262   6.695   3.315
 2093W        W65861  10.140   9.215  11.606
 2094W        W65862  12.813  43.371  10.946
 2095W        W65863   9.312   4.448  12.951
 2096W        W65864   0.818  23.607  14.351
 2097W        W65865  18.088  36.978   2.316
 2098W        W65866  41.838   3.954  12.435
 2099W        W65867  15.820  10.351  14.480
 2100W        W65868  42.803  27.038  11.011
 2101W        W65869  30.082  16.104   1.354
 2102W        W65870  27.449   0.375  10.556
 2103W        W65871   0.870  38.827  14.384
 2104W        W65872   7.839  19.594  11.002
 2105W        W65873  12.779  14.821   0.397
 2106W        W65874  23.541   8.791  14.394
 2107W        W65875  14.803   7.681  10.573
 2108W        W65876  23.016  26.033   0.396
 2109W        W65877  26.632  24.692   0.410
 2110W        W65878   2.469  43.997   4.299
 2111W        W65879  33.547  27.598   1.297
 2112W        W65880  25.975   0.493  14.013
 2113W        W65881  14.286   1.242   2.886
 2114W        W65882  22.173   8.776  12.953
 2115W        W65883  36.902  34.039   1.281
 2116W        W65884  20.670  39.982  13.980
 2117W        W65885  44.287  42.851  12.380
 2118W        W65886  37.463   7.838   0.799
 2119W        W65887   6.280  38.823   4.633
 2120W        W65888  11.818   4.923  14.454
 2121W        W65889   9.148  23.509   3.736
 2122W        W65890  21.680  27.497   2.371
 2123W        W65891  16.678  22.075  12.517
 2124W        W65892  39.500   2.847   1.914
 2125W        W65893  44.858   1.753  11.582
 2126W        W65894  32.428  20.707  11.597
 2127W        W65895  15.288   9.859  13.414
 2128W        W65896  25.087   5.314  13.528
 2129W        W65897  43.897  35.100  11.906
 2130W        W65898  44.787  17.195   2.826
 2131W        W65899   5.697  33.381   3.846
 2132W        W65900  31.133  16.120   5.182
 2133W        W65901   3.242   0.809  13.546
 2134W        W65902   0.954  29.428   4.827
 2135W        W65903  43.505  41.300   1.248
 2136W        W65904  18.752  16.574   4.162
 2137W        W65905  27.602  22.701  14.515
 2138W        W65906  31.056  44.774  11.488
 2139W        W65907  23.018  43.858   2.699
 2140W        W65908  44.933  40.506   4.754
 2141W        W65909   9.701  22.545   4.684
 2142W        W65910  44.796  15.700  13.871
 2143W        W65911   8.237  24.591  12.346
 2144W        W65912  39.333  40.883   2.325
 2145W        W65913   9.651  13.215   5.253
 2146W        W65914  38.517  42.339  12.524
 2147W        W65915   6.772  29.627  13.828
 2148W        W65916  34.408  33.548  12.460
 2149W        W65917   6.189  21.187   2.388
 2150W        W65918  15.578  21.240   3.164
 2151W        W65919   2.401  12.757   0.264
 2152W        W65920  29.640  36.552  11.084
 2153W        W65921  12.162  32.969   3.701
 2154W        W65922  30.518  20.096  13.904
 2155W        W65923  41.346  14.646  12.537
 2156W        W65924  37.491  38.822   1.285
 2157W        W65925  22.023  39.394   4.349
 2158W        W65926  42.946  19.632  12.402
 2159W        W65927  40.447  27.594  14.932
 2160W        W65928  18.702  19.206  10.088
 2161W        W65929  16.136  19.079   0.262
 2162W        W65930  15.141  28.111   2.705
 2163W        W65931   0.372   3.914  14.514
 2164W        W65932  28.078  30.967  12.493
 2165W        W65933  27.086  35.498   3.164
 2166W        W65934  24.650  32.113  11.517
 2167W        W65935   3.428  14.100  14.337
 2168W        W65936  31.033   8.717   0.949
 2169W        W65937  26.165  43.509  10.987
 2170W        W65938  31.591  15.706   2.730
 2171W        W65939  25.121  23.073  11.975
 2172W        W65940   5.401  12.749  13.029
 2173W        W65941  19.548  43.303   3.704
 2174W        W65942   1.291  31.023   2.757
 2175W        W65943   5.707  26.625   4.353
 2176W        W65944  44.910  21.693   3.271
 2177W        W65945  20.672  26.026   2.416
 2178W        W65946  28.046  23.126  14.303
 2179W        W65947  19.120  26.058  12.868
 2180W        W65948   1.876  18.062  14.274
 2181W        W65949  27.556  13.198  10.041
 2182W        W65950  41.911  32.968   1.276
 2183W        W65951  18.770  34.901   4.349
 2184W        W65952   7.694  21.139   5.317
 2185W        W65953  35.422  37.908   0.823
 2186W        W65954  20.621  33.564  10.637
 2187W        W65955  12.644   7.755  14.820
 2188W        W65956  31.411  12.662  14.515
 2189W        W65957  44.844  32.934  10.966
 2190W        W65958   1.922   3.751  13.377
 2191W        W65959  44.991   0.258  10.415
 2192W        W65960   7.728  29.625   3.204
 2193W        W65961  31.042   0.348  14.368
 2194W        W65962  13.135  41.898   1.317
 2195W        W65963  20.083   5.401   1.851
 2196W        W65964  36.957   4.243  12.010
 2197W        W65965   1.815  22.099   4.195
 2198W        W65966  40.549  18.092   1.729
 2199W        W65967  15.173  44.418   3.362
 2200W        W65968  42.504  30.559  10.550
 2201W        W65969  28.976   6.704  13.987
 2202W        W65970  23.195  10.830  12.044
 2203W        W65971  24.117  43.311   0.940
 2204W        W65972  19.177  12.248  14.516
 2205W        W65973   4.737  28.983  14.820
 2206W        W65974   9.299  36.390  10.503
 2207W        W65975   0.254   2.785  12.424
 2208W        W65976  44.314   2.950  10.556
 2209W        W65977  11.240   4.819   4.675
 2210W        W65978  35.399   9.853   2.798
 2211W        W65979   3.401  39.997   4.768
 2212W        W65980  18.194  31.413   9.625
 2213W        W65981  10.159   8.324  12.960
 2214W        W65982  38.439  34.989   4.239
 2215W        W65983  30.468   2.956  12.982
 2216W        W65984  39.461  17.605   4.749
 2217W        W65985   5.714  37.909   0.424
 2218W        W65986   6.742   1.281   1.227
 2219W        W65987  18.120  22.066   0.474
 2220W        W65988  23.239   4.824   0.892
 2221W        W65989  23.666  30.945   1.325
 2222W        W65990  20.164  27.008   4.759
 2223W        W65991   4.252  12.143   3.660
 2224W        W65992   5.372  12.325   2.374
 2225W        W65993  27.041  11.833  13.990
 2226W        W65994  23.608   1.333  11.543
 2227W        W65995  42.870  43.302  11.068
 2228W        W65996  22.209  15.157  11.932
 2229W        W65997  23.200  12.325   2.688
 2230W        W65998   7.227  12.302   4.211
 2231W        W65999  15.285  27.035   9.983
 2232W        W66000  12.706  25.218   0.967
 2233W        W66001  31.556  36.354   0.742
 2234W        W66002  32.132  32.048  14.359
 2235W        W66003  39.499  34.059  11.537
 2236W        W66004  22.675   6.746  13.898
 2237W        W66005  35.911   9.763  11.424
 2238W        W66006  38.556  37.999  11.526
 2239W        W66007  32.586  12.621  14.842
 2240W        W66008  39.519   8.675  12.026
 2241W        W66009  12.134  16.270  14.932
 2242W        W66010  42.345   6.816  10.955
 2243W        W66011  39.434  23.073  12.440
 2244W        W66012  16.180  38.001   1.900
 2245W        W66013   2.270   3.341   3.362
 2246W        W66014  25.213  31.630  11.495
 2247W        W66015  24.641  17.176  14.476
 2248W        W66016   1.319  42.367   4.616
 2249W        W66017  28.073  22.053  13.026
 2250W        W66018  42.380   6.237   2.852
 2251W        W66019  15.655   8.285   0.917
 2252W        W66020  20.067   9.867   0.945
 2253W        W66021  16.654   8.820  11.423
 2254W        W66022   9.384  20.632  14.847
 2255W        W66023  29.655  38.991  13.001
 2256W        W66024   6.909  29.006  13.824
 2257W        W66025  19.095   0.841   2.755
 2258W        W66026   6.723  32.922  11.534
 2259W        W66027  13.829  18.654  13.001
 2260W        W66028  38.437  17.196   3.264
 2261W        W66029  31.151  18.166   0.304
 2262W        W66030  26.495  26.633   1.772
 2263W        W66031  33.116   6.256   2.824
 2264W        W66032  42.817  10.704  11.436
 2265W        W66033  16.221  16.627  10.598
 2266W        W66034   2.457  35.959  12.379
 2267W        W66035  37.357  37.849  12.075
 2268W        W66036  16.310   7.311   1.348
 2269W        W66037   9.881  12.148   2.874
 2270W        W66038  19.134   5.770   2.785
 2271W        W66039  31.105  44.343  14.972
 2272W        W66040  12.227  20.151   3.656
 2273W        W66041  26.527  37.857  13.518
 2274W        W66042  17.234  26.193  11.433
 2275W        W66043   2.345  38.849  13.507
 2276W        W66044  21.749  36.038  14.303
 2277W        W66045   6.693  20.695  14.930
 2278W        W66046  23.195  14.206  14.443
 2279W        W66047  27.047  37.899  12.929
 2280W        W66048  36.098  18.693  11.098
 2281W        W66049  26.533   7.768  12.419
 2282W        W66050   1.948   0.855  13.018
 2283W        W66051  27.148  11.682   4.683
 2284W        W66052   2.352   4.842   1.330
 2285W        W66053  31.410  23.586   3.207
 2286W        W66054  35.582  30.131  11.540
 2287W        W66055  23.155  36.414   4.204
 2288W        W66056  30.617   7.409   0.434
 2289W        W66057   7.351  30.017   2.348
 2290W        W66058  17.242  39.986   0.953
 2291W        W66059   3.249  36.043  13.482
 2292W        W66060  26.996  44.829  11.412
 2293W        W66061  23.660  11.298  14.421
 2294W        W66062   9.774  27.088   0.805
 2295W        W66063  17.061  11.717  10.515
 2296W        W66064   4.206  24.668   4.643
 2297W        W66065  15.797   9.213   4.233
 2298W        W66066  31.979  21.754   0.775
 2299W        W66067  39.458  30.539  14.887
 2300W        W66068  18.565  11.331  10.142
 2301W        W66069  37.000  13.196   2.720
 2302W        W66070  44.006   4.932  12.901
 2303W        W66071  38.971  14.147   4.186
 2304W        W66072  32.979  29.522  13.435
 2305W        W66073  25.069  38.436   1.747
 2306W        W66074  27.103  27.665   2.322
 2307W        W66075  43.927  15.312  11.485
 2308W        W66076  12.184  16.786   0.347
 2309W        W66077  27.996  39.922   3.693
 2310W        W66078   5.926  37.462   4.313
 2311W        W66079   9.288  10.796  14.463
 2312W        W66080  16.311  38.518   4.823
 2313W        W66081  16.574  40.328   1.877
 2314W        W66082  19.264   2.944  14.023
 2315W        W66083  44.329  41.503  11.510
 2316W        W66084   7.267  27.588   2.369
 2317W        W66085  28.622  36.859   2.898
 2318W        W66086  17.128  14.779   4.245
 2319W        W66087  39.520  15.185  11.549
 2320W        W66088   5.688  20.254  13.812
 2321W        W66089  10.740  19.668   4.250
 2322W        W66090  15.681  42.996  14.960
 2323W        W66091  40.000   5.881   0.437
 2324W        W66092  33.413  28.099   4.750
 2325W        W66093   0.932  11.674  14.002
 2326W        W66094  15.288   5.268   4.258
 2327W        W66095  38.348  19.263  14.839
 2328W        W66096  26.179  30.915  14.335
 2329W        W66097  11.680  34.440  11.087
 2330W        W66098  26.687  29.170  12.857
 2331W        W66099  10.876  17.653   2.221
 2332W        W66100  17.586  34.879   4.658
 2333W        W66101  29.986  30.165   4.808
 2334W        W66102   0.432  42.927   1.922
 2335W        W66103  39.515   4.251   4.301
 2336W        W66104  14.168   4.355   1.380
 2337W        W66105   7.404  37.433   1.377
 2338W        W66106  40.863   8.356   3.654
 2339W        W66107   6.800  30.447   4.327
 2340W        W66108  17.612  24.609  14.004
 2341W        W66109  40.469  28.575  14.374
 2342W        W66110  15.730  23.001  10.545
 2343W        W66111  38.380  43.486  13.347
 2344W        W66112  18.077   4.802   1.889
 2345W        W66113  16.162  33.046  12.558
 2346W        W66114  34.600  18.684  12.844
 2347W        W66115  44.375   6.693   3.249
 2348W        W66116  33.451  34.587   2.330
 2349W        W66117  23.175  42.877  10.138
 2350W        W66118   6.916  28.525  11.455
 2351W        W66119  38.912  18.593  14.341
 2352W        W66120   1.820  18.152  14.987
 2353W        W66121   9.171  15.187   0.787
 2354W        W66122  23.106   6.803   1.282
 2355W        W66123  25.018  10.292  14.365
 2356W        W66124  37.979  40.302   3.163
 2357W        W66125  42.913  34.402   0.445
 2358W        W66126  20.259  20.577   4.690
 2359W        W66127  24.664  17.718   2.231
 2360W        W66128  39.960  35.047  14.504
 2361W        W66129  24.505  21.600  11.105
 2362W        W66130  38.902  36.065   1.890
 2363W        W66131  30.094  12.739  11.976
 2364W        W66132  28.493  32.579  13.368
 2365W        W66133  43.314   4.272  14.965
 2366W        W66134  43.375   3.297  10.523
 2367W        W66135  12.226   8.340   0.829
 2368W        W66136  26.478  44.944   3.840
 2369W        W66137  11.306   1.804  14.776
 2370W        W66138  38.495   9.863   1.774
 2371W        W66139  32.493   5.697   1.776
 2372W        W66140   3.384  11.162   1.876
 2373W        W66141  15.121   0.768   2.214
 2374W        W66142   3.232  33.999  10.450
 2375W        W66143  26.569   9.386  10.561
 2376W        W66144  14.183  40.303  13.032
 2377W        W66145   4.382  40.457  10.955
 2378W        W66146  13.231  21.182   1.925
 2379W        W66147  24.479  38.405  12.926
 2380W        W66148  30.459  25.713   1.895
 2381W        W66149   8.850  31.010  11.017
 2382W        W66150  25.018  26.144   0.901
 2383W        W66151  17.228   9.319  11.861
 2384W        W66152  30.152  34.072   0.258
 2385W        W66153  17.083   6.396  12.412
 2386W        W66154  10.833  13.306   0.391
 2387W        W66155   4.243  44.398   0.733
 2388W        W66156   2.759  31.628  11.447
 2389W        W66157   7.395  25.098   4.796
 2390W        W66158  14.174  27.977   1.271
 2391W        W66159  36.025  41.912   0.356
 2392W        W66160  29.132  21.139  12.045
 2393W        W66161  21.610  16.713  12.409
 2394W        W66162  27.636  26.520   0.402
 2395W        W66163  21.097  27.658  10.533
 2396W        W66164   5.274  35.537   4.785
 2397W        W66165   4.371  36.469  13.537
 2398W        W66166  10.262  18.161  13.863
 2399W        W66167  24.224  35.574  10.924
 2400W        W66168  34.371   1.951   0.733
 2401W        W66169  17.740  13.728  12.446
 2402W        W66170  14.642  35.049  10.107
 2403W        W66171   3.893  33.618   4.150
 2404W        W66172  19.262  26.008   2.357
 2405W        W66173  14.634  43.789  12.005
 2406W        W66174   9.810   0.488   0.855
 2407W        W66175  33.421  44.394  12.500
 2408W        W66176  23.063  18.124  12.844
 2409W        W66177  16.633  23.581  10.978
 2410W        W66178  29.121  33.543   4.833
 2411W        W66179   0.846  42.885   2.810
 2412W        W66180  23.095  12.274  12.489
 2413W        W66181  27.661  28.103  14.916
 2414W        W66182  37.517  44.840   0.752
 2415W        W66183   2.967   5.278   2.234
 2416W        W66184  32.566  19.111   4.720
 2417W        W66185  32.531  36.907   1.285
 2418W        W66186  18.738  11.697   3.204
 2419W        W66187  11.352  34.031   0.373
 2420W        W66188  43.494  42.936  12.061
 2421W        W66189  18.722  35.928   4.654
 2422W        W66190  31.440  10.782  10.594
 2423W        W66191  41.027   1.374   2.285
 2424W        W66192   9.841  37.477  11.011
 2425W        W66193  27.941  35.949   5.260
 2426W        W66194   1.883   3.361  13.815
 2427W        W66195  31.982   3.229   0.805
 2428W        W66196  36.968  27.027   2.330
 2429W        W66197   9.372  16.660   1.852
 2430W        W66198  28.012   7.237  14.278
 2431W        W66199   3.405  40.943   4.264
 2432W        W66200  17.674   5.875  10.481
 2433W        W66201  24.725  28.962  13.047
 2434W        W66202  39.317  10.830   4.271
 2435W        W66203  31.896  25.601   4.274
 2436W        W66204  29.040   7.782  11.569
 2437W        W66205  31.976   4.783   1.230
 2438W        W66206  42.285   3.952  11.486
 2439W        W66207  33.975  25.049   0.481
 2440W        W66208  12.160  14.766   3.359
 2441W        W66209  28.659   4.854  11.875
 2442W        W66210   1.815  43.908  12.860
 2443W        W66211  25.073  12.256  12.835
 2444W        W66212   5.923  36.992   4.667
 2445W        W66213  32.935  27.975  12.980
 2446W        W66214  20.666  35.582  12.398
 2447W        W66215  25.007   3.849  11.534
 2448W        W66216  12.307  12.809   1.825
 2449W        W66217  12.768  29.571   2.675
 2450W        W66218   8.398  27.075   4.264
 2451W        W66219  37.076  29.158   5.191
 2452W        W66220   8.286   4.809   1.714
 2453W        W66221  42.335  22.692  11.476
 2454W        W66222  15.678   6.793  11.912
 2455W        W66223   1.326  33.387   9.936
 2456W        W66224  15.681  14.329  12.455
 2457W        W66225  24.105  33.964   3.368
 2458W        W66226   8.776  22.160   1.738
 2459W        W66227   1.843   7.286   4.140
 2460W        W66228  44.272  23.989  10.625
 2461W        W66229   9.726  38.064   1.833
 2462W        W66230  11.268   5.290   0.749
 2463W        W66231  10.747  39.946   2.793
 2464W        W66232  23.192  32.449   0.806
 2465W        W66233  26.539  30.047   3.824
 2466W        W66234  31.538   8.404  14.418
 2467W        W66235   6.330  11.369  12.486
 2468W        W66236  27.008  12.166   0.267
 2469W        W66237  12.298  40.339   3.375
 2470W        W66238   7.816  16.181  14.514
 2471W        W66239   0.944  40.492   9.944
 2472W        W66240  19.766  38.916  12.907
 2473W        W66241  14.110  24.188   0.468
 2474W        W66242  25.070   0.810   1.295
 2475W        W66243  26.589  20.094   0.931
 2476W        W66244  10.249  16.080  14.983
 2477W        W66245  31.011  42.783   0.329
 2478W        W66246  42.503  35.092  12.061
 2479W        W66247   8.273  40.503  11.433
 2480W        W66248  28.040  41.417   2.879
 2481W        W66249  15.111  33.915   4.815
 2482W        W66250  14.133  14.262  14.828
 2483W        W66251  31.633   0.776   3.286
 2484W        W66252  16.644  30.482  13.936
 2485W        W66253  12.843  39.439   0.391
 2486W        W66254  33.574  18.284  12.962
 2487W        W66255  28.066  14.799   4.656
 2488W        W66256  21.171  32.937   1.711
 2489W        W66257  33.453  27.108  10.633
 2490W        W66258  25.100  44.979  13.010
 2491W        W66259  23.028  20.158  14.980
 2492W        W66260   1.854  14.189  10.953
 2493W        W66261  32.937   1.975   3.245
 2494W        W66262  43.302  25.518   4.170
 2495W        W66263   0.308  35.551  11.055
 2496W        W66264  11.129  10.243  11.942
 2497W        W66265  43.312  37.411   3.638
 2498W        W66266  13.797  43.288   1.387
 2499W        W66267  40.888  23.052  12.096
 2500W        W66268   1.804  31.405  10.914
 2501W        W66269  13.181   4.440   0.769
 2502W        W66270  34.476   3.222   3.323
 2503W        W66271  25.133  16.157  11.477
 2504W        W66272   2.367  15.686  14.319
 2505W        W66273   0.840  38.531   3.174
 2506W        W66274  11.654  39.045  10.037
 2507W        W66275  19.252  40.943  14.925
 2508W        W66276  12.333  21.678   1.349
 2509W        W66277  39.930   0.861  11.982
 2510W        W66278  34.097  16.130  10.901
 2511W        W66279   1.264  13.660  12.399
 2512W        W66280  38.409  17.181   2.670
 2513W        W66281  14.624  38.832  13.396
 2514W        W66282  25.193  14.214   0.304
 2515W        W66283  15.232  18.625  14.958
 2516W        W66284   9.677  13.710  11.984
 2517W        W66285   2.871  19.104   2.881
 2518W        W66286  19.241  31.076   2.372
 2519W        W66287  41.851  21.567   2.715
 2520W        W66288  18.081  20.099   2.895
 2521W        W66289  30.531  31.934   1.775
 2522W        W66290  16.654  10.366   0.947
 2523W        W66291  34.504   4.723   4.155
 2524W        W66292  15.128   7.668   2.662
 2525W        W66293  19.743   6.343   3.262
 2526W        W66294  11.821  15.729   3.148
 2527W        W66295   6.226   6.915  11.966
 2528W        W66296   3.225  10.340  13.398
 2529W        W66297  28.435  43.380   0.798
 2530W        W66298  19.695   8.325   0.737
 2531W        W66299  35.100  22.165   4.734
 2532W        W66300   8.348   6.278   4.231
 2533W        W66301   6.280  30.440   3.279
 2534W        W66302   9.814  36.450   2.883
 2535W        W66303  34.074  44.986  14.515
 2536W        W66304  29.484  37.564   0.936
 2537W        W66305  18.591   1.924   2.746
 2538W        W66306   9.711  28.652   1.302
 2539W        W66307  27.175   6.205  13.360
 2540W        W66308  10.634  32.459  14.350
 2541W        W66309  15.161  24.006  13.422
 2542W        W66310  37.960  39.494   4.783
 2543W        W66311  44.846  14.169  14.328
 2544W        W66312  29.502  41.459  14.404
 2545W        W66313  12.285  15.102  13.520
 2546W        W66314  26.545   3.299   2.327
 2547W        W66315   1.471   4.819  13.478
 2548W        W66316  40.991  37.480  10.923
 2549W        W66317  33.487  10.278  13.510
 2550W        W66318   3.444  20.563   4.606
 2551W        W66319  13.233   0.310   3.773
 2552W        W66320  38.492  33.467  10.894
 2553W        W66321  38.539  27.470  12.950
 2554W        W66322   7.394  17.068  14.310
 2555W        W66323  36.897  13.689  14.775
 2556W        W66324  34.428  37.439  12.352
 2557W        W66325  35.852  36.039  11.990
 2558W        W66326   9.173   3.718   3.259
 2559W        W66327  43.900   8.684   1.292
 2560W        W66328  13.799  32.476   2.671
 2561W        W66329   4.715  35.513  14.829
 2562W        W66330   3.819   4.275   0.899
 2563W        W66331  34.435  29.582  10.926
 2564W        W66332  24.615  42.914   0.945
 2565W        W66333  40.549  17.254  10.031
 2566W        W66334  11.684   0.819  14.276
 2567W        W66335  21.184  34.981   1.747
 2568W        W66336  35.435  13.270   3.850
 2569W        W66337  13.108  20.602   3.348
 2570W        W66338   7.763   6.276  13.998
 2571W        W66339  13.258  10.632   1.845
 2572W        W66340   7.260  27.074   4.706
 2573W        W66341  31.944   7.320   1.933
 2574W        W66342  13.682   8.756  14.447
 2575W        W66343   9.216  12.632  14.285
 2576W        W66344  25.030  31.538   4.714
 2577W        W66345  23.546  13.227   1.778
 2578W        W66346  19.539   5.295  14.887
 2579W        W66347  21.249   4.338  10.479
 2580W        W66348  27.446  35.895   2.792
 2581W        W66349  13.766  23.647  13.840
 2582W        W66350  28.121  27.009  11.887
 2583W        W66351  38.396  36.008  11.077
 2584W        W66352  26.071  24.484   2.792
 2585W        W66353  26.028  42.926   0.351
 2586W        W66354  34.080   7.745  11.019
 2587W        W66355   0.477  44.829   3.803
 2588W        W66356  19.074  43.309  12.394
 2589W        W66357  38.918  13.795  11.404
 2590W        W66358   6.732  27.481   3.842
 2591W        W66359  20.644  15.753   1.213
 2592W        W66360   9.675  40.371  12.949
 2593W        W66361  40.385  43.408  12.970
 2594W        W66362  23.083   4.423   1.380
 2595W        W66363  11.825  38.007  14.447
 2596W        W66364   7.841  17.121   1.404
 2597W        W66365  26.483  27.604  14.493
 2598W        W66366  26.575   1.882  11.437
 2599W        W66367  14.817  43.858   4.348
 2600W        W66368  25.469  41.296  10.982
 2601W        W66369  18.651  25.196   9.989
 2602W        W66370  19.276  21.221   3.315
 2603W        W66371  36.861   6.401  11.015
 2604W        W66372  22.625  16.787   0.945
 2605W        W66373  34.512  41.417  11.523
 2606W        W66374  43.925  15.126   1.823
 2607W        W66375  24.224  38.040   2.406
 2608W        W66376  19.627  22.227   3.724
 2609W        W66377  19.592  27.486  10.011
 2610W        W66378  13.241  34.593   2.178
 2611W        W66379  10.781   3.429   3.250
 2612W        W66380  18.623   9.285  11.462
 2613W        W66381  44.950  44.916   4.738
 2614W        W66382  40.933   4.430  13.927
 2615W        W66383  20.747   0.769  13.933
 2616W        W66384  11.708   3.828  13.850
 2617W        W66385  13.670  12.677   4.122
 2618W        W66386  11.144   7.390  12.540
 2619W        W66387  41.347  27.029  14.015
 2620W        W66388  15.274  13.667   0.728
 2621W        W66389  25.061  44.282   4.202
 2622W        W66390  28.095  12.305  10.118
 2623W        W66391   1.258  43.381   4.314
 2624W        W66392  23.550  39.336  11.410
 2625W        W66393  44.429  34.110   0.345
 2626W        W66394  30.592  40.026  10.496
 2627W        W66395  23.546  32.001   3.297
 2628W        W66396   6.834   1.450  14.307
 2629W        W66397  20.730  22.169  10.452
 2630W        W66398  33.015  30.614   3.275
 2631W        W66399   5.860  21.082   2.357
 2632W        W66400  29.049  36.072   2.198
 2633W        W66401  37.513   9.216   0.451
 2634W        W66402  35.422  42.502   3.711
 2635W        W66403  30.425  20.659   2.722
 2636W        W66404   1.446  31.907   3.773
 2637W        W66405  42.940  24.720  14.431
 2638W        W66406   0.408  42.370  13.928
 2639W        W66407   1.866  41.854  14.441
 2640W        W66408  26.954  31.060   2.419
 2641W        W66409   8.292  24.579   3.347
 2642W        W66410   7.225   1.350  10.409
 2643W        W66411   1.277  15.687  10.091
 2644W        W66412  17.592   4.368   0.431
 2645W        W66413   3.920  40.309   0.369
 2646W        W66414  38.823   0.954   0.795
 2647W        W66415   9.174  10.683  13.914
 2648W        W66416  31.100  23.541   3.363
 2649W        W66417  15.197   6.849   0.448
 2650W        W66418  10.806  37.523  13.399
 2651W        W66419  43.287  38.845  12.497
 2652W        W66420  15.168  22.550  14.478
 2653W        W66421  21.586   0.379  13.854
 2654W        W66422  34.092  33.475  10.455
 2655W        W66423  14.271   4.844   0.822
 2656W        W66424  34.467  31.018   3.163
 2657W        W66425   5.696   3.416   0.772
 2658W        W66426  12.190  33.473   3.667
 2659W        W66427  12.797  22.060   3.278
 2660W        W66428  16.308  17.654  12.847
 2661W        W66429   2.355   5.794   2.713
 2662W        W66430  34.056  30.468  13.821
 2663W        W66431  43.997   6.261   4.270
 2664W        W66432  44.383  36.541  11.597
 2665W        W66433  11.798   3.920  13.349
 2666W        W66434   1.977  42.451  14.760
 2667W        W66435  16.164   9.694   2.378
 2668W        W66436  27.139  42.974   2.308
 2669W        W66437  28.955  41.798   3.867
 2670W        W66438   1.366  38.520   2.714
 2671W        W66439  43.859  36.437  12.849
 2672W        W66440  25.003   0.474  12.078
 2673W        W66441   8.193  37.542   0.966
 2674W        W66442  33.970  31.596  14.944
 2675W        W66443  40.376  35.009   0.321
 2676W        W66444  12.646  30.012  13.364
 2677W        W66445  16.264  25.990  11.921
 2678W        W66446  19.196  33.517   1.404
 2679W        W66447  22.540  19.209  11.591
 2680W        W66448  40.494  13.708   1.223
 2681W        W66449   0.869   3.796  10.504
 2682W        W66450  31.512  39.477   1.794
 2683W        W66451   0.257  31.070   2.842
 2684W        W66452  39.409  33.912  12.839
 2685W        W66453   7.365   6.708   0.390
 2686W        W66454  33.953  34.929   3.160
 2687W        W66455  19.570   6.312  10.610
 2688W        W66456  31.940  22.669   3.719
 2689W        W66457  34.010  31.003  13.494
 2690W        W66458  24.690  25.530   3.274
 2691W        W66459   9.693  19.154   3.696
 2692W        W66460  22.100   2.232   4.626
 2693W        W66461  15.324  25.627  14.814
 2694W        W66462  44.855  16.178  13.368
 2695W        W66463  21.741  14.222   4.184
 2696W        W66464   5.405  22.143   1.314
 2697W        W66465  40.499  23.730   0.788
 2698W        W66466   1.276   5.716   2.328
 2699W        W66467  21.172  14.606  12.484
 2700W        W66468  13.303  38.396   4.649
 2701W        W66469  17.784  12.813  10.563
 2702W        W66470   8.887   0.251  11.919
 2703W        W66471  39.372  12.301  13.315
 2704W        W66472  31.496  24.710   3.702
 2705W        W66473  11.775   7.181   2.730
 2706W        W66474  44.779  44.473   0.364
 2707W        W66475  30.108  44.986   1.406
 2708W        W66476   7.376  28.959  11.986
 2709W        W66477  10.666  42.365  14.293
 2710W        W66478  22.655  15.773   4.158
 2711W        W66479  18.170   8.813  11.437
 2712W        W66480  20.645  36.907  10.494
 2713W        W66481   7.689  32.916   1.267
 2714W        W66482  31.497  29.438   2.734
 2715W        W66483  29.517  44.977  13.904
 2716W        W66484   7.860   2.951  13.501
 2717W        W66485  23.587  13.661  13.988
 2718W        W66486  13.702  23.065  14.959
 2719W        W66487  25.145  28.044  12.547
 2720W        W66488  33.929   4.208  14.005
 2721W        W66489  25.623  22.724  14.490
 2722W        W66490  40.993  33.564  13.940
 2723W        W66491   2.870  17.062  10.526
 2724W        W66492   4.361  34.062  10.481
 2725W        W66493  15.125  10.788   3.219
 2726W        W66494  21.657   8.259  13.913
 2727W        W66495   3.868   7.273  11.406
 2728W        W66496   7.685  28.499   4.607
 2729W        W66497   2.336  22.567  10.418
 2730W        W66498  22.570  17.256  14.773
 2731W        W66499  13.207  31.498   1.422
 2732W        W66500   2.898   3.949   3.296
 2733W        W66501  20.146  29.559  14.911
 2734W        W66502   9.826  25.099   1.783
 2735W        W66503   5.846  34.443   4.665
 2736W        W66504  34.973  13.748   1.412
 2737W        W66505  17.630   0.843  14.934
 2738W        W66506  42.454   4.361  11.885
 2739W        W66507   0.746  33.544   0.864
 2740W        W66508  35.107   4.913   1.744
 2741W        W66509  42.337  43.373   3.843
 2742W        W66510  25.657  26.507  11.124
 2743W        W66511  30.631   8.764   4.767
 2744W        W66512  12.281  26.958  13.346
 2745W        W66513  29.977  11.858   2.887
 2746W        W66514  11.314  33.991   2.872
 2747W        W66515   9.334  28.161   4.796
 2748W        W66516  27.589   7.798   3.789
 2749W        W66517  44.899   7.698   2.671
 2750W        W66518  44.400   0.882  11.076
 2751W        W66519  26.535  21.099   1.814
 2752W        W66520  33.093  30.017   2.178
 2753W        W66521  22.109  36.938   4.145
 2754W        W66522  30.050  11.690   2.386
 2755W        W66523  44.875  40.815   4.154
 2756W        W66524  23.159  42.876  14.007
 2757W        W66525  18.547  20.068  14.323
 2758W        W66526  35.078  36.562  14.953
 2759W        W66527  23.595  29.432   3.680
 2760W        W66528  17.721   3.859   3.638
 2761W        W66529  43.858  42.322   4.664
 2762W        W66530  36.354  21.516  10.998
 2763W        W66531  41.470   4.916   0.739
 2764W        W66532  41.456   7.413  14.369
 2765W        W66533  28.120  37.429  14.860
 2766W        W66534  37.424  30.115   1.710
 2767W        W66535  38.073  12.307  13.002
 2768W        W66536   4.931  36.035   2.340
 2769W        W66537  28.666  11.694  14.835
 2770W        W66538  26.176  38.023  10.480
 2771W        W66539  28.623  19.238   0.920
 2772W        W66540   5.742   9.737  14.995
 2773W        W66541  29.428  43.868   2.306
 2774W        W66542   1.923  25.144   0.300
 2775W        W66543  20.093  41.866   1.306
 2776W        W66544  27.029   7.815  12.508
 2777W        W66545  32.039  13.282   5.173
 2778W        W66546   5.757   8.665  11.500
 2779W        W66547   7.401  43.444  12.507
 2780W        W66548  22.239  14.722  12.346
 2781W        W66549  20.763  16.741   3.726
 2782W        W66550   1.801  23.200   0.784
 2783W        W66551   9.740   8.396   2.703
 2784W        W66552   8.308  19.547   1.902
 2785W        W66553  21.236  17.643  12.975
 2786W        W66554  16.200   5.392  13.370
 2787W        W66555   8.245  33.006  11.001
 2788W        W66556   7.697  43.788  13.452
 2789W        W66557  29.989  40.355  13.350
 2790W        W66558  31.426  44.404   1.297
 2791W        W66559  35.048   4.263  12.341
 2792W        W66560  13.699  18.673   1.437
 2793W        W66561  36.059  34.534  13.388
 2794W        W66562  41.033   2.794   2.203
 2795W        W66563  39.445  30.510  13.328
 2796W        W66564  34.570   4.308  13.837
 2797W        W66565  39.556   6.721  12.346
 2798W        W66566   4.278  13.167  11.542
 2799W        W66567  12.162   9.843  13.468
 2800W        W66568  38.030  40.002   0.264
 2801W        W66569  30.020   7.177   1.876
 2802W        W66570  38.859  10.230   2.410
 2803W        W66571  41.500  43.937  14.867
 2804W        W66572   5.369  13.326  12.962
 2805W        W66573  19.116  25.513  13.411
 2806W        W66574   2.469   5.225   3.697
 2807W        W66575  17.672  20.541  10.979
 2808W        W66576  12.696  10.721   3.669
 2809W        W66577  38.359  32.079   2.335
 2810W        W66578   9.722   9.890  11.040
 2811W        W66579  11.792  40.949  12.915
 2812W        W66580   0.919  28.998  11.938
 2813W        W66581   7.353  40.016   3.730
 2814W        W66582  10.138  42.852  12.918
 2815W        W66583  42.785   4.334  12.340
 2816W        W66584  33.476  20.137   1.257
 2817W        W66585  30.491  44.503   4.801
 2818W        W66586  22.246  15.274  13.905
 2819W        W66587  30.597  27.490   1.821
 2820W        W66588  41.307  42.929   2.791
 2821W        W66589   8.812   3.434  11.894
 2822W        W66590  27.622   6.828  13.895
 2823W        W66591  20.694   9.663  12.991
 2824W        W66592  12.132  44.900   2.698
 2825W        W66593   1.975  41.874   0.470
 2826W        W66594  24.679  20.592  10.515
 2827W        W66595  23.034   3.451   5.212
 2828W        W66596   5.706  21.215  12.526
 2829W        W66597  37.861  15.141  12.460
 2830W        W66598   2.720  35.520  11.553
 2831W        W66599  11.740  12.203  13.010
 2832W        W66600  11.741  32.047  13.032
 2833W        W66601  37.006  31.563  10.563
 2834W        W66602   6.762  11.695   0.955
 2835W        W66603  13.258  11.244   3.664
 2836W        W66604  17.716  38.834   3.665
 2837W        W66605  22.704   1.777   4.211
 2838W        W66606  32.484  13.753  10.518
 2839W        W66607  17.261  35.404   4.779
 2840W        W66608   5.709  20.033  14.811
 2841W        W66609  31.418  37.867  14.458
 2842W        W66610  17.304   6.275   2.894
 2843W        W66611  20.755  21.717   3.329
 2844W        W66612   7.771  37.020  13.346
 2845W        W66613  38.424  13.717   4.749
 2846W        W66614  18.567  16.685  12.907
 2847W        W66615  14.835   9.695   4.620
 2848W        W66616  27.642  36.459   3.636
 2849W        W66617  29.654   5.701  10.073
 2850W        W66618  41.426  34.592   2.768
 2851W        W66619  23.225  11.783   5.604
 2852W        W66620  12.819  40.416  12.898
 2853W        W66621  15.253  23.142  11.061
 2854W        W66622  22.061  36.845  12.862
 2855W        W66623  36.566  13.289  12.532
 2856W        W66624  30.555   8.738   2.792
 2857W        W66625  13.653  26.090  11.872
 2858W        W66626   6.295  43.386  12.833
 2859W        W66627  22.696  36.843  13.954
 2860W        W66628  24.102   4.785  14.815
 2861W        W66629  40.937  13.788   4.334
 2862W        W66630  25.203  27.505  10.552
 2863W        W66631  32.974  32.446   3.762
 2864W        W66632  16.132  11.221  13.464
 2865W        W66633   3.726  32.910  12.871
 2866W        W66634   9.161   6.218  11.457
 2867W        W66635  41.302  16.731   0.247
 2868W        W66636  28.997   4.383   3.833
 2869W        W66637  34.947  33.552  14.767
 2870W        W66638  30.994   1.298  10.593
 2871W        W66639  38.946   1.928  13.412
 2872W        W66640  31.434  27.109  10.891
 2873W        W66641   6.366  32.543   4.726
 2874W        W66642  10.728  42.362  11.071
 2875W        W66643  16.228  18.774  12.905
 2876W        W66644  35.381  21.683   4.220
 2877W        W66645   4.906  40.470   2.308
 2878W        W66646  33.993  23.571   4.598
 2879W        W66647  16.122  10.340   2.203
 2880W        W66648  32.903  14.127  13.516
 2881W        W66649  15.147  36.382  10.910
 2882W        W66650   8.207  34.565   0.947
 2883W        W66651  39.403  29.436  10.974
 2884W        W66652  42.302  24.653  11.020
 2885W        W66653  23.615   3.928  10.892
 2886W        W66654   2.870  25.714  14.311
 2887W        W66655  19.169  17.618   4.317
 2888W        W66656  41.002  21.079   4.606
 2889W        W66657  38.333  17.707  13.997
 2890W        W66658  38.500  41.816   1.875
 2891W        W66659   3.768  15.315   0.256
 2892W        W66660   5.931  30.069   0.864
 2893W        W66661  29.970  11.262  11.406
 2894W        W66662  44.333  25.986  13.878
 2895W        W66663  22.025   5.283  10.407
 2896W        W66664  18.664   2.948   1.323
 2897W        W66665  27.070  13.814   2.369
 2898W        W66666  30.109  19.602  10.902
 2899W        W66667  17.678  19.703  13.517
 2900W        W66668  40.420  30.572  14.866
 2901W        W66669   2.779  13.276   2.384
 2902W        W66670   6.399  28.160   0.287
 2903W        W66671   6.301  37.025  13.519
 2904W        W66672  19.283   6.771  14.987
 2905W        W66673  38.951  40.982  14.460
 2906W        W66674  36.040   7.899  13.887
 2907W        W66675  19.244  38.924  11.880
 2908W        W66676  19.127  19.698   4.211
 2909W        W66677  40.854  20.071   1.231
 2910W        W66678   8.235  32.967   0.423
 2911W        W66679  39.455  25.508   3.653
 2912W        W66680   1.238  32.092   2.316
 2913W        W66681   1.926  32.039  12.541
 2914W        W66682  28.972  24.125   1.822
 2915W        W66683  33.065  29.041   4.155
 2916W        W66684  18.669  20.695   2.730
 2917W        W66685  41.787   1.934   3.659
 2918W        W66686  26.506  38.974  10.430
 2919W        W66687   3.838   5.345  12.363
 2920W        W66688   1.782  11.804   3.842
 2921W        W66689  19.140  39.870  14.447
 2922W        W66690  21.029  29.060   0.429
 2923W        W66691  32.440  18.730   5.574
 2924W        W66692  44.396  24.664  12.429
 2925W        W66693  12.790  34.441   2.692
 2926W        W66694  15.612  30.576  12.059
 2927W        W66695  39.502  31.964   2.192
 2928W        W66696   5.427  39.899   4.162
 2929W        W66697   6.907   7.669   0.299
 2930W        W66698  33.551  44.755   2.752
 2931W        W66699  23.048  33.918  13.847
 2932W        W66700   1.303  30.419  14.960
 2933W        W66701  21.227  21.117   5.177
 2934W        W66702  17.241  15.805   0.887
 2935W        W66703  33.623  14.833   2.220
 2936W        W66704  37.410  24.153  13.842
 2937W        W66705  30.644   8.355  12.977
 2938W        W66706  21.526  25.643   2.852
 2939W        W66707  12.617  37.955  12.543
 2940W        W66708  18.593  42.898   5.112
 2941W        W66709  30.518  32.576   1.305
 2942W        W66710  30.987  11.781   4.611
 2943W        W66711  12.225  23.206   3.268
 2944W        W66712  10.146   1.947  14.871
 2945W        W66713   0.434  35.555   0.381
 2946W        W66714  14.205  30.009  10.992
 2947W        W66715   4.261  42.778  10.124
 2948W        W66716   6.394  10.360  13.322
 2949W        W66717  21.068   7.375  10.642
 2950W        W66718   5.337   6.261  13.823
 2951W        W66719  20.745   8.370   4.149
 2952W        W66720  28.177   8.888  14.937
 2953W        W66721   7.746  41.429   0.291
 2954W        W66722  10.744   9.805   4.230
 2955W        W66723  18.127  37.394  13.412
 2956W        W66724  25.604  26.639   1.273
 2957W        W66725   3.461  31.004  13.042
 2958W        W66726  12.296  34.974   2.810
 2959W        W66727   1.405  17.797   1.866
 2960W        W66728  21.744  36.055   2.343
 2961W        W66729  21.645  19.276  11.008
 2962W        W66730  28.098   2.371   1.311
 2963W        W66731  13.152  10.645  13.825
 2964W        W66732  12.662   2.330   1.254
 2965W        W66733  19.096  39.394  13.936
 2966W        W66734  12.629  37.428  14.897
 2967W        W66735   4.806   8.229   1.795
 2968W        W66736  28.610  20.080   2.275
 2969W        W66737   8.890  25.569   0.270
 2970W        W66738  17.655  33.125   3.380
 2971W        W66739  42.507  37.401  12.535
 2972W        W66740  21.210  23.078   4.147
 2973W        W66741  16.580  20.138   0.332
 2974W        W66742  26.662  41.301  12.534
 2975W        W66743  32.528  38.362   3.710
 2976W        W66744  39.930  27.557   2.777
 2977W        W66745  24.708  39.353   3.253
 2978W        W66746  17.181  30.087   0.266
 2979W        W66747  33.421  29.138  10.457
 2980W        W66748  41.330  18.590  13.057
 2981W        W66749  43.953  42.911   2.267
 2982W        W66750   1.890  40.406  11.899
 2983W        W66751  31.989   0.866   3.182
 2984W        W66752  38.830  20.579   3.824
 2985W        W66753  29.545   0.902  14.345
 2986W        W66754  15.099  12.713   3.218
 2987W        W66755  35.536  24.537   2.225
 2988W        W66756  38.059  41.999  13.994
 2989W        W66757   4.754   3.712   2.753
 2990W        W66758   2.948  34.950   3.373
 2991W        W66759   0.464  12.757  12.353
 2992W        W66760  36.052  27.962   3.344
 2993W        W66761  39.952  37.410   2.372
 2994W        W66762  16.569  16.204   5.252
 2995W        W66763  23.196   3.296  12.563
 2996W        W66764  39.813  27.026  13.926
 2997W        W66765  29.586  28.083   2.274
 2998W        W66766   4.797   1.394   4.349
 2999W        W66767  38.438  34.509   4.665
 3000W        W66768  42.450  27.971   4.245
 3001W        W66769   2.374  21.257   5.291
 3002W        W66770  34.455  11.249   2.815
 3003W        W66771   8.872   5.238  13.503
 3004W        W66772  26.691  27.521  13.822
 3005W        W66773  22.547  12.641   3.827
 3006W        W66774   0.957  35.045  14.410
 3007W        W66775  34.866  26.039   2.674
 3008W        W66776  17.233  21.524   3.378
 3009W        W66777  16.611   0.493  12.462
 3010W        W66778   5.314  30.972   0.958
 3011W        W66779  20.033  23.688   5.201
 3012W        W66780  42.504  31.569   3.259
 3013W        W66781  18.569  42.807  12.578
 3014W        W66782  35.425   5.691  11.554
 3015W        W66783  12.639   8.400   2.663
 3016W        W66784   0.815  13.800   2.328
 3017W        W66785  31.634  39.882   1.764
 3018W        W66786  37.998  37.965  11.091
 3019W        W66787  40.973  16.241  14.781
 3020W        W66788  22.126  36.508   4.669
 3021W        W66789  15.093  14.640  10.556
 3022W        W66790  25.098  30.542  10.530
 3023W        W66791   6.694  12.319   4.263
 3024W        W66792   7.882  19.596  11.461
 3025W        W66793  15.174   5.264   1.799
 3026W        W66794  41.892  22.152   3.709
 3027W        W66795  10.688  25.075   3.646
 3028W        W66796  40.451  16.621  12.532
 3029W        W66797  23.009  44.487  14.332
 3030W        W66798  13.842  32.976   0.772
 3031W        W66799  24.027  17.745   1.428
 3032W        W66800  27.477   5.802   1.241
 3033W        W66801  40.901  18.112  10.643
 3034W        W66802  41.789  22.074  14.995
 3035W        W66803   7.308  30.494   1.847
 3036W        W66804  21.658  15.659   4.666
 3037W        W66805  18.635   7.370  14.770
 3038W        W66806  10.241  21.200   4.632
 3039W        W66807  18.124  14.729   1.414
 3040W        W66808   3.774  39.324   4.668
 3041W        W66809  24.182  22.237  11.455
 3042W        W66810  33.457   7.789   2.394
 3043W        W66811  11.176   5.834   0.739
 3044W        W66812  32.033  40.827  12.575
 3045W        W66813  29.174  18.222   3.317
 3046W        W66814   0.293  19.595  13.932
 3047W        W66815   4.903  34.908  14.886
 3048W        W66816   5.870  42.913  14.963
 3049W        W66817  10.786   7.856   3.240
 3050W        W66818   0.282   6.769  11.031
 3051W        W66819  17.774  13.623   4.600
 3052W        W66820  14.736  33.440  11.431
 3053W        W66821  16.230  16.622  12.974
 3054W        W66822  44.410  15.112   0.366
 3055W        W66823  25.999  11.702  13.319
 3056W        W66824  41.367  30.560   2.202
 3057W        W66825  17.685  10.138  12.914
 3058W        W66826  22.503   0.319   3.749
 3059W        W66827  39.990  31.411   0.270
 3060W        W66828   8.685  37.574   1.224
 3061W        W66829  28.078  11.140   2.791
 3062W        W66830   4.228  19.282   3.301
 3063W        W66831  13.675  24.627   0.759
 3064W        W66832  39.835  40.406   0.857
 3065W        W66833  22.633  19.594  10.010
 3066W        W66834  17.123  19.064   4.625
 3067W        W66835  41.905  44.348   4.613
 3068W        W66836  28.934   2.260   3.722
 3069W        W66837  13.243  28.577   2.739
 3070W        W66838  14.311  31.073   4.199
 3071W        W66839   6.245  35.971  11.561
 3072W        W66840  20.554  27.134   2.901
 3073W        W66841  43.894  36.377  11.022
 3074W        W66842   8.752  10.286  10.433
 3075W        W66843  39.930   3.815   0.884
 3076W        W66844  17.609   0.915   1.292
 3077W        W66845  29.069  35.854  12.949
 3078W        W66846  17.229  25.711  10.010
 3079W        W66847  18.738  40.857   2.673
 3080W        W66848  40.432  27.153   2.870
 3081W        W66849  38.379   5.391   2.707
 3082W        W66850  40.860   5.291  10.506
 3083W        W66851  37.003   7.289  13.353
 3084W        W66852   3.433  35.492  13.350
 3085W        W66853  30.931  43.830  10.480
 3086W        W66854   7.220   5.312   4.771
 3087W        W66855  30.583  17.708   3.200
 3088W        W66856  14.614  42.782   1.251
 3089W        W66857  18.778  22.050  10.438
 3090W        W66858  40.455   5.746  11.567
 3091W        W66859  32.897  44.348  11.028
 3092W        W66860  28.086   1.873  11.879
 3093W        W66861   3.401  17.163   2.364
 3094W        W66862  35.006  42.026   4.354
 3095W        W66863  25.709  26.669  10.522
 3096W        W66864  16.799  26.493   5.093
 3097W        W66865  38.884  42.883  14.414
 3098W        W66866  29.094  39.923  14.326
 3099W        W66867  40.992  16.620  13.538
 3100W        W66868  16.671  22.009  10.003
 3101W        W66869  13.110   5.320   0.940
 3102W        W66870  33.936  14.648   2.742
 3103W        W66871  22.193  41.788   4.697
 3104W        W66872  23.642  37.349  10.418
 3105W        W66873  26.678  37.887  12.831
 3106W        W66874  36.066  31.911  10.006
 3107W        W66875  39.014  26.613   0.764
 3108W        W66876  24.976   2.260   3.648
 3109W        W66877  29.125  22.543  11.985
 3110W        W66878  17.080  42.854  11.514
 3111W        W66879  18.068  18.552  12.497
 3112W        W66880   8.857  14.608   3.784
 3113W        W66881  26.670  13.774  12.346
 3114W        W66882  28.999   5.766   3.778
 3115W        W66883  36.593  40.889   0.366
 3116W        W66884   9.177  25.533   3.294
 3117W        W66885  13.256  30.571   1.426
 3118W        W66886   3.864  19.078   3.795
 3119W        W66887  27.530  39.503  14.873
 3120W        W66888  15.626  40.427  13.398
 3121W        W66889  44.445  14.749   2.885
 3122W        W66890  33.393  35.082  14.847
 3123W        W66891  13.755  23.036   1.422
 3124W        W66892  16.252   5.321   3.794
 3125W        W66893  23.544   0.338   3.640
 3126W        W66894   2.852   8.764  10.935
 3127W        W66895  39.847  19.645  11.482
 3128W        W66896  35.547  25.005  11.922
 3129W        W66897  14.262  29.162  11.481
 3130W        W66898  18.598   1.293  11.043
 3131W        W66899  39.838  12.275   4.727
 3132W        W66900   4.225   7.873   4.767
 3133W        W66901  29.561  22.636   5.159
 3134W        W66902   2.464  16.609   1.802
 3135W        W66903  17.129  18.728   2.229
 3136W        W66904  11.754  23.115   3.762
 3137W        W66905  14.725  37.855   1.218
 3138W        W66906   7.687  14.594  14.513
 3139W        W66907   3.937  29.560  14.980
 3140W        W66908   8.774  32.015  13.468
 3141W        W66909  25.520  32.576  14.483
 3142W        W66910   7.818  28.106   2.188
 3143W        W66911  40.416  22.110  14.000
 3144W        W66912  11.245  43.765  12.537
 3145W        W66913   7.309  15.196   3.184
 3146W        W66914  43.863  37.878  14.478
 3147W        W66915   4.857  16.812   3.186
 3148W        W66916   4.704  14.139   3.736
 3149W        W66917   8.210  21.030   3.815
 3150W        W66918   8.367  14.674   3.806
 3151W        W66919  19.233  31.082   0.428
 3152W        W66920   4.830  31.151   4.154
 3153W        W66921  24.016  29.041  11.860
 3154W        W66922  10.780  22.737   1.824
 3155W        W66923  11.305   6.727   3.333
 3156W        W66924  15.109  34.081  12.566
 3157W        W66925  13.629  30.926   4.624
 3158W        W66926  36.908  32.485  13.356
 3159W        W66927  42.854   9.696   3.250
 3160W        W66928  40.475  35.902   9.929
 3161W        W66929  30.622  21.220  13.514
 3162W        W66930  30.633   4.727  12.094
 3163W        W66931  24.487  16.576  14.924
 3164W        W66932  15.597  18.559   2.690
 3165W        W66933  37.003  27.183  12.954
 3166W        W66934  23.028  12.612  14.845
 3167W        W66935   5.741  29.557   1.236
 3168W        W66936  16.805   2.395   2.804
 3169W        W66937  19.262   2.299   0.815
 3170W        W66938  19.742  29.019  10.989
 3171W        W66939  21.727  16.234  11.425
 3172W        W66940  17.090  34.544  11.856
 3173W        W66941  24.052  37.963   4.623
 3174W        W66942   5.372  27.033  13.422
 3175W        W66943  18.184  11.796   4.335
 3176W        W66944   9.348  44.436  12.837
 3177W        W66945  18.272  43.854   0.739
 3178W        W66946   3.832  40.827  14.858
 3179W        W66947   4.321  15.257   0.792
 3180W        W66948  18.785  10.158   5.087
 3181W        W66949   4.423  24.557  12.497
 3182W        W66950  44.904   0.912   1.702
 3183W        W66951  36.059  31.546  11.100
 3184W        W66952   1.467  17.109   2.365
 3185W        W66953   1.768  40.456  12.487
 3186W        W66954  11.265   2.293  10.910
 3187W        W66955  33.517  42.326   9.923
 3188W        W66956  10.217  28.103  10.581
 3189W        W66957  15.788  25.491  10.506
 3190W        W66958  40.809  20.180   2.264
 3191W        W66959  33.410  22.022   1.434
 3192W        W66960  12.305  37.909  11.493
 3193W        W66961  10.324  41.487  10.962
 3194W        W66962   3.837  17.730  10.612
 3195W        W66963  13.647  16.204  11.908
 3196W        W66964  30.974  38.471  14.416
 3197W        W66965  28.949  29.145   4.175
 3198W        W66966  18.292  35.942   0.405
 3199W        W66967  29.923  14.137   1.214
 3200W        W66968  44.378  36.526   0.834
 3201W        W66969  44.332  27.942  10.951
 3202W        W66970   0.934   2.900  14.405
 3203W        W66971  10.816  14.597  13.050
 3204W        W66972  40.373  24.028  11.392
 3205W        W66973  35.937  39.430   1.855
 3206W        W66974  22.635  42.000  11.047
 3207W        W66975   4.907  10.222   5.222
 3208W        W66976  19.562  41.871   3.271
 3209W        W66977  33.110   2.866  11.874
 3210W        W66978  40.981  18.578   2.180
 3211W        W66979  34.939  20.101  14.803
 3212W        W66980  39.509   5.732  10.470
 3213W        W66981  43.444  21.221  11.016
 3214W        W66982  43.767  11.332  13.337
 3215W        W66983  42.393  27.950  13.949
 3216W        W66984   7.903  18.176  12.925
 3217W        W66985   1.426  33.983   2.856
 3218W        W66986   2.896  16.782  10.547
 3219W        W66987  19.579  39.007  12.499
 3220W        W66988  42.526  41.940  12.434
 3221W        W66989  15.812   9.261  11.612
 3222W        W66990   0.832  29.497  10.905
 3223W        W66991  43.919  41.943  11.961
 3224W        W66992  11.145  26.665  10.408
 3225W        W66993  12.668  30.987  10.483
 3226W        W66994  23.200   8.867   2.758
 3227W        W66995   7.331   2.417  10.971
 3228W        W66996  40.513  16.753  14.821
 3229W        W66997   3.722  31.619   2.354
 3230W        W66998  44.456  24.015   3.644
 3231W        W66999  26.021  30.973   3.373
 3232W        W67000  32.022   8.753   3.253
 3233W        W67001  12.670  15.679  10.039
 3234W        W67002  26.988  30.538  10.944
 3235W        W67003  19.603  23.647  10.468
 3236W        W67004  32.607  38.551  11.897
 3237W        W67005  15.238  20.639   3.243
 3238W        W67006   3.910  34.869  13.055
 3239W        W67007  42.032  24.513   0.890
 3240W        W67008  38.910  14.778  10.146
 3241W        W67009  25.195   1.293   4.811
 3242W        W67010  19.722  13.274  13.798
 3243W        W67011  30.111  44.894   1.696
 3244W        W67012  25.687  24.685  14.378
 3245W        W67013  41.861   6.191  14.482
 3246W        W67014  23.007  40.513   3.758
 3247W        W67015  36.407   1.895   0.400
 3248W        W67016  34.370  26.208   4.660
 3249W        W67017   5.842   5.357  12.425
 3250W        W67018   5.932  30.050  10.514
 3251W        W67019   3.738  13.285  11.572
 3252W        W67020   7.416  33.392   1.840
 3253W        W67021  31.909  24.068  13.063
 3254W        W67022  18.271  35.509   0.743
 3255W        W67023  23.186  31.122   2.841
 3256W        W67024  29.937   8.370  11.101
 3257W        W67025  18.599  38.964  13.520
 3258W        W67026  22.997  35.544   4.273
 3259W        W67027  37.939  10.764   1.799
 3260W        W67028  33.499  27.147  14.879
 3261W        W67029  42.517  36.003  11.506
 3262W        W67030  14.096  19.739  14.847
 3263W        W67031  41.794   1.389   2.840
 3264W        W67032   1.439  23.685   2.217
 3265W        W67033  33.527   7.394   1.800
 3266W        W67034   0.758  29.162   0.863
 3267W        W67035  21.523  26.634   4.161
 3268W        W67036   4.439  35.574   3.845
 3269W        W67037   0.762  12.132  13.022
 3270W        W67038  41.039  41.845  13.344
 3271W        W67039  26.115  19.778  10.641
 3272W        W67040  25.065  34.534  10.895
 3273W        W67041  29.986  37.351  12.912
 3274W        W67042   2.382  39.327   0.446
 3275W        W67043  35.881  13.164   2.786
 3276W        W67044  26.201   8.399  14.021
 3277W        W67045  22.556  20.588   2.709
 3278W        W67046   4.425  11.358   1.720
 3279W        W67047  42.301  29.171  12.096
 3280W        W67048  10.364   8.862   3.659
 3281W        W67049   0.448   2.861   4.351
 3282W        W67050  37.945  27.471   1.766
 3283W        W67051  39.816  24.225  13.387
 3284W        W67052  14.148  22.045   1.929
 3285W        W67053  33.455  42.013   0.418
 3286W        W67054  14.678  40.422  14.394
 3287W        W67055   3.857  25.104  14.816
 3288W        W67056  23.062  20.108  12.524
 3289W        W67057  15.706  32.134   0.909
 3290W        W67058  43.890   5.253   2.230
 3291W        W67059  40.491   3.931  14.924
 3292W        W67060  12.679  43.968  11.925
 3293W        W67061   1.333   4.396  14.334
 3294W        W67062  37.554   5.820   5.250
 3295W        W67063  12.773   0.930   4.783
 3296W        W67064  43.396  24.170  12.535
 3297W        W67065   4.259  26.174  12.351
 3298W        W67066   2.309  18.783  12.064
 3299W        W67067  16.128  38.561  13.374
 3300W        W67068  20.169  19.630   3.296
 3301W        W67069   4.868  24.056  14.959
 3302W        W67070  42.962  11.366  10.615
 3303W        W67071  26.650  39.351  14.969
 3304W        W67072  19.138   5.852   1.727
 3305W        W67073  43.426  26.200  12.863
 3306W        W67074  35.923  12.815  13.063
 3307W        W67075  34.454  19.072   9.622
 3308W        W67076   1.431  37.556  12.529
 3309W        W67077   4.444  17.679  12.350
 3310W        W67078   4.318  15.612   3.723
 3311W        W67079  17.271   6.775  13.452
 3312W        W67080  30.462  10.669   1.815
 3313W        W67081  29.945  16.586  14.005
 3314W        W67082  29.007  30.445  14.000
 3315W        W67083  38.550  22.147   3.804
 3316W        W67084  32.463   1.913  13.031
 3317W        W67085  20.237  17.595  11.408
 3318W        W67086  13.340  17.608  12.887
 3319W        W67087   8.228  37.413   2.366
 3320W        W67088  21.108  21.162  12.555
 3321W        W67089  30.620   1.828   0.387
 3322W        W67090  43.293  44.308   1.812
 3323W        W67091  25.538  21.081   2.383
 3324W        W67092  34.018  19.201  13.344
 3325W        W67093  28.957  15.784   3.185
 3326W        W67094  22.625  35.540   4.124
 3327W        W67095   0.252  19.162  13.509
 3328W        W67096  22.066  40.474   4.225
 3329W        W67097  26.492  11.800  12.907
 3330W        W67098  25.612   9.350   1.440
 3331W        W67099  14.143  31.949  13.826
 3332W        W67100  10.729  21.020  10.603
 3333W        W67101  14.686  24.496  12.001
 3334W        W67102  22.007  35.537  10.614
 3335W        W67103   9.709  23.024  11.460
 3336W        W67104   6.796  21.092  12.013
 3337W        W67105  41.328   3.260   4.203
 3338W        W67106  40.406  33.114  13.353
 3339W        W67107  38.958  18.759  14.858
 3340W        W67108   1.378   5.840   3.210
 3341W        W67109   0.827   5.718   2.746
 3342W        W67110   9.729  33.550  10.990
 3343W        W67111  18.553  15.806  13.341
 3344W        W67112  19.193  10.862   2.813
 3345W        W67113   0.322  33.591  10.020
 3346W        W67114  26.975   3.763  14.834
 3347W        W67115  13.611  36.979  12.443
 3348W        W67116   1.273  39.025  12.872
 3349W        W67117  11.216  16.606  14.793
 3350W        W67118  28.151  27.179  13.855
 3351W        W67119  12.223  15.800   5.113
 3352W        W67120  13.691  23.628  11.100
 3353W        W67121  39.527  38.943   1.326
 3354W        W67122  35.425   8.358   0.773
 3355W        W67123  40.977  31.997   2.699
 3356W        W67124  31.032  30.651   1.811
 3357W        W67125  18.723  23.721   0.879
 3358W        W67126  43.336  21.226   2.881
 3359W        W67127  10.355  18.213  10.554
 3360W        W67128  18.194  22.646   2.313
 3361W        W67129  33.891   2.918   1.924
 3362W        W67130   9.811  42.875   0.302
 3363W        W67131  32.957  23.085  11.587
 3364W        W67132   8.718  42.003  14.511
 3365W        W67133   3.911  10.634  10.480
 3366W        W67134  32.470  38.531  12.929
 3367W        W67135  28.644   3.281  14.834
 3368W        W67136   2.920  32.943  11.889
 3369W        W67137  42.303  21.723   3.737
 3370W        W67138   3.458  30.472  11.511
 3371W        W67139  33.609  34.977   2.231
 3372W        W67140  37.357   0.473   2.769
 3373W        W67141   9.845  38.853  14.846
 3374W        W67142   2.951  38.003   2.756
 3375W        W67143  16.795   7.265   1.865
 3376W        W67144  13.248   8.239  11.584
 3377W        W67145  10.789  11.738   3.851
 3378W        W67146  36.948  29.608   1.747
 3379W        W67147  30.971  11.785   4.262
 3380W        W67148  33.599  11.833  14.489
 3381W        W67149  28.500  24.684  14.283
 3382W        W67150   6.307  19.124   1.718
 3383W        W67151  39.339  40.443   2.361
 3384W        W67152  32.945  19.274   2.319
 3385W        W67153  28.972   2.434   2.403
 3386W        W67154  22.228  18.596   1.751
 3387W        W67155  26.616  28.967   2.830
 3388W        W67156   0.383  40.820  10.572
 3389W        W67157  30.998   1.935   9.950
 3390W        W67158  21.201  25.193  11.895
 3391W        W67159  20.114  18.718   1.805
 3392W        W67160   9.368  40.340  13.033
 3393W        W67161  38.015  21.089  12.516
 3394W        W67162   7.813  13.241   1.917
 3395W        W67163  34.589  38.402  12.976
 3396W        W67164  39.887  38.039   4.231
 3397W        W67165  30.494  29.580  13.428
 3398W        W67166  35.554  25.155   3.242
 3399W        W67167  31.557   5.858  12.855
 3400W        W67168  13.184  15.749  11.484
 3401W        W67169  23.706   0.451   1.424
 3402W        W67170   4.768   8.404  14.028
 3403W        W67171  35.937  11.783  10.938
 3404W        W67172  30.081  40.322   3.223
 3405W        W67173   6.895   3.297  12.968
 3406W        W67174   4.283  39.484   3.855
 3407W        W67175  42.465  40.499  14.334
 3408W        W67176  19.210  14.314  13.037
 3409W        W67177   1.961  28.077  11.450
 3410W        W67178  26.700  40.525   4.259
 3411W        W67179  38.831  41.410  12.027
 3412W        W67180  38.453  33.571   0.847
 3413W        W67181  37.975  30.655  11.884
 3414W        W67182  42.889  12.326  14.781
 3415W        W67183  33.384  29.458  14.469
 3416W        W67184  15.698  39.851   2.404
 3417W        W67185   5.372  35.527  14.845
 3418W        W67186   3.816  35.516   1.732
 3419W        W67187  42.826  13.191   0.736
 3420W        W67188  40.918   8.706  14.912
 3421W        W67189  34.599  25.489  12.080
 3422W        W67190  29.636  42.379   3.262
 3423W        W67191  37.342  12.782  13.942
 3424W        W67192  28.587   0.300   4.171
 3425W        W67193  17.684  32.945   1.292
 3426W        W67194  24.116   9.883  14.871
 3427W        W67195  44.303  25.476  13.936
 3428W        W67196  14.221  34.444  14.879
 3429W        W67197  15.261  27.139   4.190
 3430W        W67198   2.965  21.218   3.318
 3431W        W67199   3.819   8.881  14.844
 3432W        W67200  16.222   2.913  12.849
 3433W        W67201  22.707  31.022   1.775
 3434W        W67202  30.615  26.545   4.786
 3435W        W67203  24.187  12.255  14.928
 3436W        W67204  15.634  40.810   1.406
 3437W        W67205  37.969   3.364  13.325
 3438W        W67206  25.053   9.834   4.225
 3439W        W67207   0.787  12.717   1.370
 3440W        W67208  34.406   1.432  14.960
 3441W        W67209  16.120  20.524  10.030
 3442W        W67210  19.228  38.417  11.045
 3443W        W67211  15.763  39.510   4.320
 3444W        W67212  17.163  29.461  11.549
 3445W        W67213   4.799  24.708   4.324
 3446W        W67214  29.662  26.690  13.031
 3447W        W67215  15.309  29.655  13.930
 3448W        W67216  13.237   5.769  10.928
 3449W        W67217   1.278  39.412  10.423
 3450W        W67218  17.067  33.109   2.662
 3451W        W67219  24.607  36.382   4.834
 3452W        W67220  39.391  20.249   0.301
 3453W        W67221   9.860  31.947  12.981
 3454W        W67222   9.795   9.156   3.661
 3455W        W67223  11.348  37.424  13.953
 3456W        W67224   8.848  30.916  13.864
 3457W        W67225  12.845  19.238   0.789
 3458W        W67226  27.520  24.684   3.723
 3459W        W67227  12.314  29.127  14.333
 3460W        W67228  40.876  21.675   2.897
 3461W        W67229   7.211  25.604  13.413
 3462W        W67230  40.490  17.735  12.068
 3463W        W67231  32.605  31.971  13.907
 3464W        W67232  19.093  18.212   9.928
 3465W        W67233   3.308   3.832  14.956
 3466W        W67234  42.923  15.152   3.188
 3467W        W67235  43.940   3.923  12.843
 3468W        W67236  23.713   8.868  11.965
 3469W        W67237  13.152  23.727  13.887
 3470W        W67238  34.033  38.570  11.101
 3471W        W67239  36.477  36.093  12.028
 3472W        W67240  11.848  29.040  14.950
 3473W        W67241  43.800   3.438  11.558
 3474W        W67242  29.002  29.484  13.976
 3475W        W67243  20.759  31.540  13.365
 3476W        W67244  37.396  18.745   0.743
 3477W        W67245  42.372   6.874   1.433
 3478W        W67246   7.296  27.964   1.724
 3479W        W67247  25.658  19.678   5.104
 3480W        W67248  28.497   1.350  12.442
 3481W        W67249   2.397  36.851   0.770
 3482W        W67250  12.276  34.371   2.901
 3483W        W67251  39.990  30.590  12.823
 3484W        W67252  40.353  34.425   0.347
 3485W        W67253  26.569  42.293  12.534
 3486W        W67254   7.773  15.621  10.937
 3487W        W67255   6.903  27.979   4.150
 3488W        W67256  34.096  28.939   0.313
 3489W        W67257  16.783  31.033  11.084
 3490W        W67258  22.015  17.119  10.914
 3491W        W67259  34.473  36.440  12.064
 3492W        W67260  23.229  40.307  13.959
 3493W        W67261   0.448   7.717  11.472
 3494W        W67262  20.043  39.350   3.207
 3495W        W67263  39.849  13.735   1.848
 3496W        W67264  34.947  42.420  10.482
 3497W        W67265   0.407   7.284   0.280
 3498W        W67266   4.299   7.891   4.149
 3499W        W67267  39.488   6.205  13.063
 3500W        W67268  22.105  10.677  10.893
 3501W        W67269  34.513   8.756   4.623
 3502W        W67270   6.838  36.014   2.882
 3503W        W67271  16.213  26.112  10.546
 3504W        W67272  43.308   1.779   1.933
 3505W        W67273  41.422  39.514   4.149
 3506W        W67274  26.493  43.014  14.359
 3507W        W67275  43.798  13.317  11.907
 3508W        W67276  33.052  12.181   0.457
 3509W        W67277  15.220   6.286   3.648
 3510W        W67278  20.741  40.009  12.088
 3511W        W67279  18.688  42.888   4.122
 3512W        W67280   4.708   8.874  11.407
 3513W        W67281   9.870  21.635   0.388
 3514W        W67282   4.314  27.189   1.858
 3515W        W67283   1.288  27.573  13.518
 3516W        W67284  19.272  35.406  12.979
 3517W        W67285  31.992  37.531   0.281
 3518W        W67286  28.147   5.288   2.181
 3519W        W67287   2.746  44.969   3.227
 3520W        W67288  14.604  20.115   2.258
 3521W        W67289  20.255  13.827  11.470
 3522W        W67290  42.407  19.089  11.601
 3523W        W67291  23.629  12.176  12.569
 3524W        W67292  30.516  23.555   0.903
 3525W        W67293  13.739  17.255   0.785
 3526W        W67294  18.616  34.017  14.291
 3527W        W67295  20.247  21.254   1.334
 3528W        W67296  17.293   6.829   4.237
 3529W        W67297  30.623   7.237  10.637
 3530W        W67298  21.545  22.032   3.352
 3531W        W67299  18.092  24.553   1.285
 3532W        W67300  16.139   3.303  12.055
 3533W        W67301   7.669  33.594  11.024
 3534W        W67302  34.000  12.703   2.314
 3535W        W67303  22.651  24.222   2.284
 3536W        W67304   2.458  18.724  13.889
 3537W        W67305  37.899   6.695   4.721
 3538W        W67306  31.960  26.965   2.317
 3539W        W67307  18.701  34.563  14.459
 3540W        W67308  38.977  26.694  10.543
 3541W        W67309  42.316  25.178  14.336
 3542W        W67310  22.015  39.959   0.463
 3543W        W67311  16.762  32.044   0.286
 3544W        W67312  17.741   5.433   1.840
 3545W        W67313  34.602  38.894   0.879
 3546W        W67314   1.819  13.615  10.412
 3547W        W67315  14.747   0.447  14.418
 3548W        W67316   4.271  28.955  12.907
 3549W        W67317   0.836  16.571  13.030
 3550W        W67318  32.617  10.668   2.378
 3551W        W67319   1.325   1.341  11.528
 3552W        W67320   9.332  17.795   4.189
 3553W        W67321   0.797  42.369  14.939
 3554W        W67322  37.486   8.761   3.296
 3555W        W67323  40.798  31.594  10.984
 3556W        W67324  12.614   0.771   1.441
 3557W        W67325  19.534  38.849  11.530
 3558W        W67326  44.329  17.708  12.053
 3559W        W67327  16.588  28.589   1.301
 3560W        W67328  10.761  27.022   0.777
 3561W        W67329  35.938  13.105  13.433
 3562W        W67330  36.505   0.403  13.489
 3563W        W67331  10.154  32.427  11.571
 3564W        W67332  32.499  29.550  13.984
 3565W        W67333  31.005   0.783   3.335
 3566W        W67334  42.411   0.265  14.292
 3567W        W67335  28.186   0.439  12.511
 3568W        W67336  38.434  44.778  11.100
 3569W        W67337   9.856   1.870   0.834
 3570W        W67338  11.136  23.636   2.880
 3571W        W67339  13.332  36.541  13.933
 3572W        W67340   0.426   3.383   2.784
 3573W        W67341  15.605  38.419  11.503
 3574W        W67342  29.146  26.582   0.341
 3575W        W67343  31.597  28.466   3.735
 3576W        W67344   4.362  29.668   0.453
 3577W        W67345  39.534  32.610  11.114
 3578W        W67346   5.863  35.906   1.298
 3579W        W67347  13.310  34.095   1.349
 3580W        W67348   0.910  29.954  13.900
 3581W        W67349  43.957  15.610  11.879
 3582W        W67350  26.973  31.901   0.458
 3583W        W67351  28.992  19.767  14.927
 3584W        W67352  25.493  36.085   3.830
 3585W        W67353  27.494  28.111  11.970
 3586W        W67354   9.160   0.836   5.100
 3587W        W67355  19.197   8.656   4.232
 3588W        W67356  18.258  15.129   1.894
 3589W        W67357  26.589  18.552  14.907
 3590W        W67358  25.611  24.535   4.173
 3591W        W67359   8.223  11.347   1.354
 3592W        W67360   8.344  13.277  10.919
 3593W        W67361   3.383   2.848  10.410
 3594W        W67362  28.466  21.187  10.497
 3595W        W67363  36.910  37.058   1.439
 3596W        W67364   6.359   9.774  11.559
 3597W        W67365  40.876  22.112  11.059
 3598W        W67366   0.846  20.634  10.489
 3599W        W67367  22.593   9.840   1.786
 3600W        W67368  26.064  11.244  10.456
 3601W        W67369  41.479   7.723   4.751
 3602W        W67370  42.945  41.360  14.401
 3603W        W67371  30.062  40.407   4.612
 3604W        W67372  40.417  12.777  13.447
 3605W        W67373   3.457  32.439  10.627
 3606W        W67374   3.767   3.872  14.313
 3607W        W67375   9.736  31.908  10.533
 3608W        W67376  43.302  37.379  12.532
 3609W        W67377  29.573  29.169  13.028
 3610W        W67378  40.810  28.658   2.196
 3611W        W67379  24.049  44.959   4.688
 3612W        W67380  12.146  39.928   1.715
 3613W        W67381  42.006   4.262  12.862
 3614W        W67382  22.083  21.034  14.354
 3615W        W67383   5.710  21.553  11.055
 3616W        W67384  10.809  18.241   5.148
 3617W        W67385  15.696   9.177   1.222
 3618W        W67386   1.942   5.888  11.069
 3619W        W67387  20.194  14.623   4.812
 3620W        W67388  36.967  42.333  13.424
 3621W        W67389  21.722  34.534   2.898
 3622W        W67390  25.557   9.269  11.034
 3623W        W67391  36.416  33.489   4.315
 3624W        W67392  25.483  37.916   4.806
 3625W        W67393  44.398  11.750   1.448
 3626W        W67394  10.829  27.644   4.190
 3627W        W67395  25.571  41.355  11.552
 3628W        W67396  13.713  25.135   1.411
 3629W        W67397  16.771  14.143   4.223
 3630W        W67398  21.077   9.171  10.919
 3631W        W67399  36.880  23.687   1.392
 3632W        W67400  17.109   4.823   2.743
 3633W        W67401  32.594  19.545  10.990
 3634W        W67402  25.094   8.161   4.747
 3635W        W67403  21.089  25.638   0.350
 3636W        W67404  17.653  19.658   4.708
 3637W        W67405  21.169  25.517  10.625
 3638W        W67406   5.832  13.722   1.914
 3639W        W67407   0.745   9.719  13.447
 3640W        W67408  24.121  33.547  10.420
 3641W        W67409   4.808  34.583  13.903
 3642W        W67410  29.114   1.246  11.863
 3643W        W67411  31.506  24.998   2.854
 3644W        W67412  32.949  33.919  10.495
 3645W        W67413  23.560  38.432  11.391
 3646W        W67414  40.458   1.961   2.242
 3647W        W67415  31.137  37.566   1.757
 3648W        W67416  19.582   5.379  13.802
 3649W        W67417   7.886  28.096   4.259
 3650W        W67418  20.672  39.471   4.816
 3651W        W67419  14.789  11.279   4.123
 3652W        W67420   8.240  17.787  13.038
 3653W        W67421  16.072  29.518  11.456
 3654W        W67422  30.128   4.905  10.451
 3655W        W67423  21.252  12.622  10.419
 3656W        W67424  20.538  41.015   2.374
 3657W        W67425  21.231  40.334  14.428
 3658W        W67426  11.166  33.885  12.415
 3659W        W67427  42.855  25.070  10.442
 3660W        W67428  20.056  34.402  13.000
 3661W        W67429  20.730  34.049  10.115
 3662W        W67430  32.132  29.978   0.411
 3663W        W67431  38.373  15.155  11.908
 3664W        W67432  43.865  43.849  11.066
 3665W        W67433  10.789   6.225   1.294
 3666W        W67434  34.530   7.792   2.265
 3667W        W67435  20.207  26.088  11.937
 3668W        W67436  19.156  13.758   1.845
 3669W        W67437  25.094  35.902   4.654
 3670W        W67438  31.135  14.138  12.408
 3671W        W67439  37.885  37.898   0.788
 3672W        W67440   2.368   6.213   1.307
 3673W        W67441  23.992  12.771  12.357
 3674W        W67442  33.003  20.747   0.412
 3675W        W67443  40.535  28.028   0.472
 3676W        W67444   6.279  37.380  12.554
 3677W        W67445  41.831  44.784  14.002
 3678W        W67446  30.553  23.659  11.555
 3679W        W67447  16.213  18.186  12.562
 3680W        W67448   2.314  32.045  12.523
 3681W        W67449  39.514  26.467  14.955
 3682W        W67450  11.725  32.024   0.754
 3683W        W67451  13.159  44.397   0.339
 3684W        W67452   0.278  26.593   3.253
 3685W        W67453  25.629  41.356   0.931
 3686W        W67454  33.029  21.523   0.886
 3687W        W67455   7.863   5.383   2.323
 3688W        W67456  24.117  27.595   4.257
 3689W        W67457  24.482  44.307  14.307
 3690W        W67458  10.851  33.444  11.120
 3691W        W67459  21.614  17.300   2.306
 3692W        W67460   3.377   1.287  13.370
 3693W        W67461  13.678  30.475  11.487
 3694W        W67462   7.397   4.910  11.884
 3695W        W67463  35.465   9.764  13.039
 3696W        W67464  20.656  24.686  11.397
 3697W        W67465  37.343  29.040   1.860
 3698W        W67466   3.874   0.813  11.906
 3699W        W67467  41.017  37.477  11.948
 3700W        W67468  20.637  29.560   3.655
 3701W        W67469  25.037  16.796   0.937
 3702W        W67470  12.653  34.572  14.798
 3703W        W67471  28.585   1.932   4.715
 3704W        W67472  40.912  35.584   3.844
 3705W        W67473  38.372  35.959   1.438
 3706W        W67474  36.943  26.058   0.373
 3707W        W67475  33.454   7.290  11.397
 3708W        W67476  14.732  33.616  13.311
 3709W        W67477   5.724  23.121   0.248
 3710W        W67478  41.969  35.930  10.466
 3711W        W67479  17.073  34.438   3.851
 3712W        W67480  15.818   6.741  13.823
 3713W        W67481   8.394  13.154  10.626
 3714W        W67482   7.827  29.041  10.415
 3715W        W67483   3.838  27.552   0.937
 3716W        W67484  16.117  44.397  11.007
 3717W        W67485   4.438  30.112  14.490
 3718W        W67486  44.958  25.562  14.804
 3719W        W67487   8.165  19.651   0.244
 3720W        W67488  26.569  32.130   0.935
 3721W        W67489  14.237  30.098   3.845
 3722W        W67490  36.555  12.128   2.700
 3723W        W67491  38.524   2.370   0.957
 3724W        W67492  27.643  41.957   3.788
 3725W        W67493   5.390  38.828  14.786
 3726W        W67494  28.647  29.030   1.903
 3727W        W67495  13.608  43.436   0.850
 3728W        W67496  35.001  20.068  10.893
 3729W        W67497  35.972  37.492   5.255
 3730W        W67498  13.667  10.196   2.720
 3731W        W67499  28.940  22.018   1.355
 3732W        W67500  14.299  14.807  13.350
 3733W        W67501  23.134   3.346  13.940
 3734W        W67502  23.615  41.839   3.203
 3735W        W67503   3.839  30.039  13.435
 3736W        W67504  41.806  44.853  14.990
 3737W        W67505  44.418  38.018   0.466
 3738W        W67506  31.490  22.627   3.742
 3739W        W67507   5.792  13.675   4.673
 3740W        W67508  31.494   4.869   1.300
 3741W        W67509  42.819  44.333   3.168
 3742W        W67510  30.102   4.914  10.971
 3743W        W67511  26.614  15.086   3.640
 3744W        W67512  22.220  24.978   4.778
 3745W        W67513  25.573  13.757   0.363
 3746W        W67514  14.834  32.408  12.032
 3747W        W67515  10.719  34.040   0.869
 3748W        W67516  37.039  22.232   4.337
 3749W        W67517  26.082  37.859   1.355
 3750W        W67518  41.964  26.588   0.930
 3751W        W67519  33.945  24.570  11.100
 3752W        W67520  27.449   6.796   3.186
 3753W        W67521  11.276   0.902  13.393
 3754W        W67522   6.914  26.090  11.535
 3755W        W67523  26.118  20.189  14.511
 3756W        W67524  18.204  26.135  10.896
 3757W        W67525  13.334  33.533  10.053
 3758W        W67526   4.806  10.703  12.521
 3759W        W67527  19.726  40.918   2.710
 3760W        W67528  25.134  13.151   1.855
 3761W        W67529  12.790  32.915  12.089
 3762W        W67530  15.662   8.728   3.697
 3763W        W67531   9.388   6.724   4.164
 3764W        W67532   9.321   6.208   0.729
 3765W        W67533   5.789   4.383   2.788
 3766W        W67534  43.826  40.988   3.185
 3767W        W67535  35.513  44.782   1.334
 3768W        W67536  25.055  44.309   4.620
 3769W        W67537   6.888  15.297  14.891
 3770W        W67538  25.590  18.073   0.791
 3771W        W67539  16.123  38.954  14.771
 3772W        W67540  24.634  29.621  12.010
 3773W        W67541   2.760  37.012   1.816
 3774W        W67542  38.034  31.534  11.939
 3775W        W67543  40.815  39.550  11.568
 3776W        W67544  43.357   9.701   3.223
 3777W        W67545  12.214  10.141   9.477
 3778W        W67546  21.542  35.861   2.847
 3779W        W67547  34.034  43.959   4.300
 3780W        W67548  33.606  33.452   4.650
 3781W        W67549   6.755  36.847   3.723
 3782W        W67550  25.611  19.060  12.882
 3783W        W67551  30.592  39.821   4.194
 3784W        W67552   4.836  19.757   4.114
 3785W        W67553  28.623  16.741  13.380
 3786W        W67554  26.132  44.315   1.220
 3787W        W67555  40.806   6.761  14.428
 3788W        W67556  44.834  29.010   0.872
 3789W        W67557  13.609  10.725  11.523
 3790W        W67558  28.164  41.411  11.390
 3791W        W67559  21.655   1.309   3.318
 3792W        W67560  16.586  29.021  11.996
 3793W        W67561  41.484  41.896  11.889
 3794W        W67562  39.503  23.686   4.329
 3795W        W67563  25.060  17.793  14.847
 3796W        W67564   5.421  33.616   0.866
 3797W        W67565  32.393  29.476  12.502
 3798W        W67566  27.620  29.128  11.484
 3799W        W67567   3.897   6.793  14.292
 3800W        W67568  38.556  24.081   1.308
 3801W        W67569   2.803  37.991  13.378
 3802W        W67570  28.145  22.624   0.356
 3803W        W67571  39.337  31.442  14.976
 3804W        W67572  44.487  10.267  12.479
 3805W        W67573  28.492  11.172   1.778
 3806W        W67574  20.719  18.198   2.381
 3807W        W67575  13.183  20.672   4.772
 3808W        W67576  23.514  25.631   2.729
 3809W        W67577   8.246   3.859   1.379
 3810W        W67578  23.501  37.391   4.263
 3811W        W67579  36.559  28.484  11.497
 3812W        W67580   2.294   5.417   4.287
 3813W        W67581  39.892  25.528  12.070
 3814W        W67582   6.242  41.434  10.529
 3815W        W67583  41.468   5.356  10.520
 3816W        W67584  28.929  29.122  10.499
 3817W        W67585  29.579  34.947   3.151
 3818W        W67586  14.265  25.690   4.172
 3819W        W67587  37.503  16.661  10.644
 3820W        W67588  20.559  30.567   4.338
 3821W        W67589  30.032   4.211  11.903
 3822W        W67590   3.282  36.407   1.778
 3823W        W67591  16.134   0.471  10.492
 3824W        W67592   9.662  42.984   0.731
 3825W        W67593  36.864  35.041   0.345
 3826W        W67594  40.998   0.347  11.397
 3827W        W67595  21.197  27.173  11.382
 3828W        W67596  44.395  18.129   4.650
 3829W        W67597  28.072  17.251   1.749
 3830W        W67598  11.765  19.647  12.360
 3831W        W67599  22.236  18.729   2.409
 3832W        W67600  11.328  26.139  11.120
 3833W        W67601  39.039  29.112  14.807
 3834W        W67602  24.618   7.809  14.952
 3835W        W67603  29.930  18.712  14.939
 3836W        W67604  21.717  34.991  10.070
 3837W        W67605  28.182   1.474   0.821
 3838W        W67606  40.861  17.652  12.082
 3839W        W67607  16.109  13.837   4.284
 3840W        W67608  25.093  44.795  11.099
 3841W        W67609   8.874   6.809   3.155
 3842W        W67610  38.858  13.739   2.286
 3843W        W67611   9.666  25.146   0.400
 3844W        W67612  22.066  32.434  12.971
 3845W        W67613  37.861  25.526   4.791
 3846W        W67614   8.206  21.712   3.684
 3847W        W67615  12.684  13.635   3.871
 3848W        W67616  44.918   0.762  13.323
 3849W        W67617  34.006   6.743   2.860
 3850W        W67618  24.485  17.283  10.412
 3851W        W67619   0.925  15.306   2.765
 3852W        W67620  10.648  31.956   3.212
 3853W        W67621  27.541  35.438  13.974
 3854W        W67622  29.436   2.409  12.984
 3855W        W67623  17.770  40.413   1.760
 3856W        W67624  37.080  29.165  11.376
 3857W        W67625  39.954  24.986   2.279
 3858W        W67626  41.362   1.368  13.804
 3859W        W67627  30.935  30.657  14.994
 3860W        W67628  17.225  16.194  10.998
 3861W        W67629   5.327   3.883  10.922
 3862W        W67630  10.824   6.857   0.401
 3863W        W67631  44.432  10.146   0.943
 3864W        W67632  20.758  26.570   2.760
 3865W        W67633  13.822   9.834  14.906
 3866W        W67634  29.966  25.490  12.987
 3867W        W67635   1.315   4.357   3.749
 3868W        W67636  29.053   3.384  12.405
 3869W        W67637  35.571  29.472   1.735
 3870W        W67638   7.676  29.632  12.987
 3871W        W67639   9.393  39.925   4.340
 3872W        W67640  10.141  26.098   1.446
 3873W        W67641  44.917  12.669   0.346
 3874W        W67642  14.192  42.030  14.324
 3875W        W67643  37.530  23.647   3.209
 3876W        W67644  38.023  24.998   1.394
 3877W        W67645  35.427  31.974  11.910
 3878W        W67646  19.759  20.261  10.563
 3879W        W67647  26.147   4.898  11.583
 3880W        W67648  40.306  34.563  10.471
 3881W        W67649  10.207  37.074  10.624
 3882W        W67650  39.516  41.387   1.253
 3883W        W67651   3.795  10.720   1.221
 3884W        W67652  16.688  13.317   1.785
 3885W        W67653  28.445  33.546   3.290
 3886W        W67654   6.408  31.538  13.456
 3887W        W67655  33.381  28.167  10.532
 3888W        W67656  32.528  28.983   2.192
 3889W        W67657  23.210  12.611   0.463
 3890W        W67658   2.777  20.205  13.496
 3891W        W67659  43.392  15.258   4.259
 3892W        W67660   8.363  10.272  14.472
 3893W        W67661  27.076  42.415  10.478
 3894W        W67662   7.795   3.380   1.268
 3895W        W67663  25.647  42.883  13.447
 3896W        W67664  20.036  30.628   4.819
 3897W        W67665   3.431  31.016   1.369
 3898W        W67666  28.123  42.993  13.058
 3899W        W67667   5.897  27.596  13.399
 3900W        W67668  18.610   4.313  14.997
 3901W        W67669  23.706  44.863   4.608
 3902W        W67670   7.732   4.425  14.910
 3903W        W67671  11.777  23.209  10.898
 3904W        W67672  33.886  15.294  12.829
 3905W        W67673  39.403  15.140  13.348
 3906W        W67674  18.587  15.811   3.707
 3907W        W67675  32.890  13.311  12.876
 3908W        W67676  29.635  25.493   0.799
 3909W        W67677   4.727  35.046  10.087
 3910W        W67678  21.709   7.684  12.448
 3911W        W67679  26.474   7.828  13.878
 3912W        W67680  19.690  35.577   1.740
 3913W        W67681   8.270  20.687   4.826
 3914W        W67682  18.751   5.765  11.912
 3915W        W67683  28.052   7.354   1.337
 3916W        W67684   7.873  32.605  13.905
 3917W        W67685   1.831  26.036   4.769
 3918W        W67686  40.912  27.458   2.669
 3919W        W67687   6.314   9.768   3.264
 3920W        W67688  35.045  14.286   5.164
 3921W        W67689  32.942   5.398  12.396
 3922W        W67690   5.724  26.456  12.449
 3923W        W67691  35.854  24.576  13.830
 3924W        W67692  12.743  43.420   0.358
 3925W        W67693  16.792   1.798  11.454
 3926W        W67694   0.360   7.853  10.542
 3927W        W67695  33.428   4.357  14.406
 3928W        W67696  34.427  13.774   0.843
 3929W        W67697  10.836  31.646  12.535
 3930W        W67698  35.446  15.277   3.776
 3931W        W67699  12.793   0.310  13.002
 3932W        W67700  28.054   8.743  11.602
 3933W        W67701  38.370  40.335  11.379
 3934W        W67702   3.327  17.100  13.367
 3935W        W67703  32.103  25.998  14.389
 3936W        W67704  10.730  28.010   1.852
 3937W        W67705  15.773  27.488  12.384
 3938W        W67706   5.885  17.107   2.836
 3939W        W67707  33.448   6.283   4.607
 3940W        W67708  21.145   5.213  10.518
 3941W        W67709  13.317  41.038  12.412
 3942W        W67710   1.911  19.047   3.720
 3943W        W67711  18.552   7.303   1.819
 3944W        W67712  36.079  22.033  12.072
 3945W        W67713  38.368  23.684   4.254
 3946W        W67714  28.117  20.602  13.015
 3947W        W67715  21.528  27.973   1.361
 3948W        W67716   2.231  40.487   1.260
 3949W        W67717  28.186  28.016  13.377
 3950W        W67718  42.394   8.382   4.130
 3951W        W67719   0.319   8.312  14.332
 3952W        W67720  12.328  10.704  12.970
 3953W        W67721   3.379   6.322  12.469
 3954W        W67722  44.884  23.013  11.898
 3955W        W67723  10.645  32.610  13.974
 3956W        W67724  17.246  24.649   1.426
 3957W        W67725  33.468  27.993   5.143
 3958W        W67726   0.396  41.469  13.466
 3959W        W67727   1.389  20.220   4.312
 3960W        W67728  12.766   1.764  10.933
 3961W        W67729  21.109  43.498  13.854
 3962W        W67730  36.562  20.265  13.022
 3963W        W67731  12.654  23.616   1.839
 3964W        W67732  39.529  40.519   0.392
 3965W        W67733  43.881  43.301   0.870
 3966W        W67734   0.324  28.124   0.397
 3967W        W67735  29.923  10.177  14.810
 3968W        W67736  36.547   8.792  11.000
 3969W        W67737  32.523  42.456   3.369
 3970W        W67738  26.163   0.264  11.023
 3971W        W67739   6.221  31.629  13.040
 3972W        W67740  34.930  36.849  13.806
 3973W        W67741  21.225  30.623  10.545
 3974W        W67742   7.708  34.445  12.040
 3975W        W67743  16.278  32.928   2.392
 3976W        W67744  31.620  39.822   4.297
 3977W        W67745  39.423   2.346  10.448
 3978W        W67746  28.127   1.869   2.866
 3979W        W67747  16.748  26.016   9.569
 3980W        W67748   6.423  28.100  13.882
 3981W        W67749  26.517   8.715  14.811
 3982W        W67750  15.197  29.145  11.499
 3983W        W67751  29.522  33.068   1.397
 3984W        W67752  32.481  13.741   3.809
 3985W        W67753  22.590   7.672   0.388
 3986W        W67754   0.325   3.285   0.920
 3987W        W67755  41.832   0.813  12.910
 3988W        W67756   8.175   7.354  12.082
 3989W        W67757  36.508   8.250   1.419
 3990W        W67758  22.619   6.853  12.899
 3991W        W67759  37.521  12.767   9.970
 3992W        W67760  31.075  38.554  14.763
 3993W        W67761  17.301  22.094  12.090
 3994W        W67762  32.570   6.733   2.843
 3995W        W67763   3.764   2.964   1.219
 3996W        W67764  43.383   4.242   2.864
 3997W        W67765  10.307  34.593   4.150
 3998W        W67766  37.387   1.449  14.892
 3999W        W67767  27.117   1.935   1.432
 4000W        W67768  37.837  15.095   1.730
 4001W        W67769  30.421   2.943  14.979
 4002W        W67770  18.716  44.460   2.257
 4003W        W67771  13.686  28.504   4.754
 4004W        W67772  32.509  19.742   4.278
 4005W        W67773  29.519  37.946   4.766
 4006W        W67774  29.516  32.454  14.397
 4007W        W67775   4.732  30.116  14.428
 4008W        W67776  42.924  18.608   2.211
 4009W        W67777   8.694  24.180  14.801
 4010W        W67778  30.569  18.660  14.496
 4011W        W67779  19.731  22.724  11.983
 4012W        W67780  14.799   8.800   0.393
 4013W        W67781  28.589   9.330  11.519
 4014W        W67782  10.220   7.720   4.342
 4015W        W67783  43.422   1.378  12.471
 4016W        W67784  17.726  12.659  14.955
 4017W        W67785  23.984  31.507   0.944
 4018W        W67786  18.605   4.395   4.271
 4019W        W67787  39.392  22.643   0.274
 4020W        W67788   4.355  16.689  14.019
 4021W        W67789  10.209  21.684   1.774
 4022W        W67790  16.676  19.716  10.585
 4023W        W67791   9.304  11.222  10.445
 4024W        W67792  23.047  39.365  12.833
 4025W        W67793  15.240  41.795   3.193
 4026W        W67794  27.526  26.208   2.901
 4027W        W67795  17.694  20.238   9.655
 4028W        W67796   0.264   4.332  14.383
 4029W        W67797  40.467  44.756  10.626
 4030W        W67798  23.092  38.367  12.551
 4031W        W67799   2.420  13.181   1.713
 4032W        W67800  20.094  17.767   3.778
 4033W        W67801   5.865  18.131   0.905
 4034W        W67802  33.575  30.933   1.420
 4035W        W67803   5.808   4.766   1.433
 4036W        W67804  18.144  16.584   0.939
 4037W        W67805  10.868  18.093  10.568
 4038W        W67806  37.039  17.247  12.403
 4039W        W67807  31.590  26.702   4.129
 4040W        W67808  28.440   9.389  12.866
 4041W        W67809  29.641   3.431   3.213
 4042W        W67810  18.168   6.300  11.385
 4043W        W67811   3.758  44.268  11.568
 4044W        W67812   9.868  19.279  10.955
 4045W        W67813  24.184   5.404   1.836
 4046W        W67814  43.441   4.896  14.415
 4047W        W67815   1.423   8.834  13.032
 4048W        W67816  31.462  10.384   2.310
 4049W        W67817   4.381  35.544  10.987
 4050W        W67818  21.736  34.538   4.820
 4051W        W67819  42.822  27.185   4.646
 4052W        W67820  34.436  43.871   3.743
 4053W        W67821   5.209  35.376  11.597
 4054W        W67822  26.057  36.042   4.299
 4055W        W67823  24.110  20.275   3.793
 4056W        W67824  13.220  25.028  14.435
 4057W        W67825  42.468  27.028   2.365
 4058W        W67826  19.244  35.966  11.533
 4059W        W67827  16.163   6.771   0.742
 4060W        W67828  37.376  29.582   0.254
 4061W        W67829  38.935  29.145   3.234
 4062W        W67830  27.573   8.176   0.467
 4063W        W67831  39.421   5.909   0.890
 4064W        W67832  35.083  21.631   1.285
 4065W        W67833  22.113   2.435  12.898
 4066W        W67834   0.853  13.766   2.739
 4067W        W67835  42.510   8.374  11.512
 4068W        W67836  21.591  19.097   0.753
 4069W        W67837  16.100  26.594  10.454
 4070W        W67838  36.393   0.860  14.307
 4071W        W67839  27.975  31.457   1.892
 4072W        W67840   2.941   6.334   3.764
 4073W        W67841  15.627  25.618   1.854
 4074W        W67842  30.648  25.614  13.311
 4075W        W67843  29.436  21.256  13.892
 4076W        W67844  10.784   6.753  12.354
 4077W        W67845  17.606   7.874  11.883
 4078W        W67846  20.158  10.288  12.499
 4079W        W67847  28.054  25.541  11.567
 4080W        W67848   7.364  37.549   3.377
 4081W        W67849  24.482  39.445  12.367
 4082W        W67850  25.177  32.458  14.845
 4083W        W67851  18.109  19.780  11.916
 4084W        W67852  20.707  17.726  12.080
 4085W        W67853  14.713   0.756   0.877
 4086W        W67854  24.626  24.574  11.457
 4087W        W67855  25.497   0.270   3.770
 4088W        W67856  19.278  23.718   0.420
 4089W        W67857  36.569  42.865  12.555
 4090W        W67858  34.095  30.485   5.093
 4091W        W67859  39.361  12.200  12.529
 4092W        W67860  39.339  10.686   3.725
 4093W        W67861  18.679  15.683  11.080
 4094W        W67862   4.372  14.104   5.086
 4095W        W67863  32.398  23.067  10.527
 4096W        W67864  39.413  37.569   3.793
 4097W        W67865  28.437  22.583   2.664
 4098W        W67866  29.641   9.839  14.382
 4099W        W67867  26.519   9.171  13.384
 4100W        W67868  44.498  26.175   1.859
 4101W        W67869  19.756  42.423   4.239
 4102W        W67870   0.773  22.722   4.637
 4103W        W67871  30.490  23.173   1.443
 4104W        W67872  15.721  21.165   2.846
 4105W        W67873  21.218  28.956   1.789
 4106W        W67874  28.070  31.576  12.087
 4107W        W67875  29.454  39.973  11.900
 4108W        W67876  20.224  28.562  12.018
 4109W        W67877  44.988  15.207  10.961
 4110W        W67878  19.613  30.051  14.975
 4111W        W67879  11.331  26.167   0.378
 4112W        W67880  10.652  20.675   3.774
 4113W        W67881  33.494  44.771   3.688
 4114W        W67882  13.116  28.637   3.637
 4115W        W67883  44.300  16.657   0.295
 4116W        W67884  24.189  21.216   4.124
 4117W        W67885  18.644  22.230  14.894
 4118W        W67886  15.702  15.636   9.953
 4119W        W67887  38.907  20.266   1.306
 4120W        W67888   8.870  15.803  10.951
 4121W        W67889  12.798  17.757   2.746
 4122W        W67890  44.815  41.408  14.327
 4123W        W67891  17.739  36.412  11.399
 4124W        W67892   9.850   5.344  11.123
 4125W        W67893   7.726  44.483   3.305
 4126W        W67894  35.960  35.423   2.294
 4127W        W67895  43.414  36.358   1.434
 4128W        W67896   6.696   8.667  11.923
 4129W        W67897  43.930   6.868  10.579
 4130W        W67898  32.606  36.012   0.754
 4131W        W67899  26.532   0.468   1.360
 4132W        W67900  27.946  10.839  12.568
 4133W        W67901  31.061  36.097  14.895
 4134W        W67902  38.831   1.914   1.423
 4135W        W67903  29.069   9.321   4.703
 4136W        W67904  18.103  32.893   3.746
 4137W        W67905   0.360  35.393   1.915
 4138W        W67906  23.234   5.883  14.933
 4139W        W67907  35.410  19.599  11.091
 4140W        W67908  29.050  32.061   4.171
 4141W        W67909  42.960  10.143  10.469
 4142W        W67910  39.907   0.957   2.208
 4143W        W67911  44.969  41.995  11.042
 4144W        W67912  10.145   0.358  11.880
 4145W        W67913  28.162   5.859  12.555
 4146W        W67914   2.911  37.918  11.913
 4147W        W67915  28.052  21.095  13.057
 4148W        W67916  34.002   2.866   0.287
 4149W        W67917  34.476  26.621   0.297
 4150W        W67918  35.859   3.797   0.251
 4151W        W67919  43.968  21.256  12.512
 4152W        W67920  27.604  30.427  13.545
 4153W        W67921  21.237  30.500  10.122
 4154W        W67922  16.719  39.536   2.723
 4155W        W67923  10.878   6.843  12.849
 4156W        W67924  30.000  34.875   0.337
 4157W        W67925  36.056  16.123   1.280
 4158W        W67926  39.552  42.898  12.881
 4159W        W67927   5.762  24.698  11.955
 4160W        W67928   8.367   3.263  12.970
 4161W        W67929  18.557  18.788  11.070
 4162W        W67930  10.328   1.387   2.849
 4163W        W67931   4.877  34.451   5.110
 4164W        W67932  17.269  29.085  14.027
 4165W        W67933   2.343  23.585  14.394
 4166W        W67934   2.753  36.548   2.785
 4167W        W67935  17.749  12.357   1.883
 4168W        W67936  27.187  42.461  13.498
 4169W        W67937  30.468  17.694  13.320
 4170W        W67938  29.592  14.132   4.826
 4171W        W67939  19.128  36.380   1.898
 4172W        W67940   1.740   2.877   2.274
 4173W        W67941  26.558  31.613  10.888
 4174W        W67942   4.707  18.730  14.973
 4175W        W67943  13.251   3.917  10.572
 4176W        W67944  39.840  24.035   2.283
 4177W        W67945  12.331  15.633  14.896
 4178W        W67946  31.035  38.881   3.823
 4179W        W67947  34.558  13.173  14.451
 4180W        W67948  22.168   8.239  11.041
 4181W        W67949  22.664  22.541  13.387
 4182W        W67950  23.013  29.478  14.307
 4183W        W67951  23.014   3.786  14.420
 4184W        W67952  38.056  22.737  12.979
 4185W        W67953   9.682  30.470   0.919
 4186W        W67954  12.309   4.944  12.019
 4187W        W67955   1.956  29.457  10.443
 4188W        W67956  22.599   5.761  11.442
 4189W        W67957  23.608  37.399   9.962
 4190W        W67958  25.657   8.221  11.978
 4191W        W67959  12.697   7.863   1.839
 4192W        W67960  34.059  27.653   3.757
 4193W        W67961  39.449  15.797   1.818
 4194W        W67962  37.928  14.675  12.553
 4195W        W67963  21.678   1.334  12.536
 4196W        W67964  32.981  32.599   1.923
 4197W        W67965  19.683  26.978  14.765
 4198W        W67966  37.075  12.339   2.202
 4199W        W67967   9.370  37.499   1.287
 4200W        W67968  13.716   1.345  12.857
 4201W        W67969   8.820  13.794  14.289
 4202W        W67970  31.931  44.376   0.887
 4203W        W67971  21.056   3.738   0.264
 4204W        W67972   9.262  14.282   1.279
 4205W        W67973  29.941  44.341   3.278
 4206W        W67974  33.102  38.395   1.756
 4207W        W67975  17.268   0.310   3.219
 4208W        W67976  40.014  39.966   4.836
 4209W        W67977  21.126  38.463   2.338
 4210W        W67978  29.138  16.114  12.027
 4211W        W67979   1.928  13.253   3.852
 4212W        W67980   3.788  34.931  11.889
 4213W        W67981  19.212  25.057   0.277
 4214W        W67982  39.818  40.975  12.900
 4215W        W67983  25.087  27.957  14.907
 4216W        W67984  11.190  37.037   1.326
 4217W        W67985  34.924  32.130   3.649
 4218W        W67986   0.492  42.007  12.988
 4219W        W67987  16.639  33.412   4.184
 4220W        W67988  36.430  41.441  10.029
 4221W        W67989  23.985  25.032   9.986
 4222W        W67990  31.929  25.979  12.992
 4223W        W67991  10.150  27.099  10.559
 4224W        W67992  10.666   3.232   3.680
 4225W        W67993  40.831  36.485  11.977
 4226W        W67994   0.425   5.861   2.789
 4227W        W67995  18.780  10.854   2.712
 4228W        W67996  11.799  30.041   4.298
 4229W        W67997  13.698   7.404  14.288
 4230W        W67998  31.483   7.275   0.348
 4231W        W67999  32.019  10.256  13.370
 4232W        W68000  28.146  40.376  11.003
 4233W        W68001  14.664  18.703   3.672
 4234W        W68002  37.549  43.895  10.960
 4235W        W68003  29.032   3.853  14.988
 4236W        W68004  26.669  42.341   4.147
 4237W        W68005  31.104  35.532  11.960
 4238W        W68006  33.916  43.916   4.794
 4239W        W68007   8.346  36.402   4.708
 4240W        W68008  42.944  31.991  13.024
 4241W        W68009   0.931  27.976   0.376
 4242W        W68010   2.823   5.316  13.810
 4243W        W68011  34.965   5.363   0.814
 4244W        W68012  32.459  22.213  11.942
 4245W        W68013  38.862  44.442   9.983
 4246W        W68014  21.659  25.544   1.332
 4247W        W68015  26.481  15.261  14.017
 4248W        W68016  29.995  37.394  12.024
 4249W        W68017  32.439  15.632  12.851
 4250W        W68018  34.896   9.379  10.640
 4251W        W68019  12.744  37.048   0.294
 4252W        W68020  15.791  37.410   4.234
 4253W        W68021  16.714  27.193   5.302
 4254W        W68022  25.693  22.604  10.095
 4255W        W68023  32.956  18.678   4.597
 4256W        W68024  36.952  11.330  10.464
 4257W        W68025   0.877   8.730  10.469
 4258W        W68026  36.493  14.626  13.397
 4259W        W68027  43.336  13.206  14.789
 4260W        W68028  44.352  20.526  14.898
 4261W        W68029   1.927  15.581   2.361
 4262W        W68030  15.780  29.134  12.016
 4263W        W68031  18.076  12.633   2.349
 4264W        W68032  41.034  10.868  11.465
 4265W        W68033  31.599  35.884   3.350
 4266W        W68034   7.351  17.715   2.692
 4267W        W68035  43.431  42.827  13.856
 4268W        W68036  15.151  27.457  12.366
 4269W        W68037  32.575  33.890  12.947
 4270W        W68038  32.004  38.047  14.395
 4271W        W68039   0.397  42.894  13.330
 4272W        W68040  28.017  44.350   0.249
 4273W        W68041  14.606  16.114  11.960
 4274W        W68042   0.926   9.291  12.984
 4275W        W68043  11.187  33.497  11.065
 4276W        W68044   9.177  19.597   0.756
 4277W        W68045  44.769  27.613  14.032
 4278W        W68046  35.952  30.505  10.502
 4279W        W68047  31.992  33.125   2.842
 4280W        W68048   8.729  14.133  11.893
 4281W        W68049  12.829  10.206  11.875
 4282W        W68050  18.721  12.249  13.001
 4283W        W68051  43.459  27.942  11.002
 4284W        W68052   0.824  36.955   0.780
 4285W        W68053   2.813  22.722  10.908
 4286W        W68054  13.730  19.673   1.403
 4287W        W68055  17.209  21.228   3.735
 4288W        W68056   2.930  25.203  14.368
 4289W        W68057  22.672  24.642   2.237
 4290W        W68058  23.557  10.318   2.761
 4291W        W68059  22.187   2.275   2.663
 4292W        W68060  21.555  27.638   4.686
 4293W        W68061  38.891   1.913   4.821
 4294W        W68062  30.510  34.398   2.265
 4295W        W68063  34.463  10.777  12.912
 4296W        W68064  22.567  38.935   2.278
 4297W        W68065  22.163  33.876   0.277
 4298W        W68066  29.540  28.584   3.317
 4299W        W68067  43.822  28.653   2.395
 4300W        W68068  13.719   7.706  14.377
 4301W        W68069  26.505  17.144   0.776
 4302W        W68070  37.037  30.048  11.992
 4303W        W68071  15.325   3.711   0.964
 4304W        W68072  39.934  16.147   0.281
 4305W        W68073  23.675  44.913  12.926
 4306W        W68074  21.599  19.105  12.086
 4307W        W68075  31.910  34.113  11.038
 4308W        W68076  42.894  22.576  10.567
 4309W        W68077  18.291  24.691   3.249
 4310W        W68078  15.315  13.253   0.312
 4311W        W68079  22.588  18.093  14.505
 4312W        W68080  43.281  24.546  14.303
 4313W        W68081  25.625  17.727  13.441
 4314W        W68082  26.099  33.963   3.155
 4315W        W68083  44.472  16.269   3.848
 4316W        W68084  25.619  39.816   2.233
 4317W        W68085  37.833   9.307  10.441
 4318W        W68086  37.865  31.442  10.053
 4319W        W68087   9.247  43.278   3.228
 4320W        W68088   0.348  29.480   3.191
 4321W        W68089   6.223  43.843   3.751
 4322W        W68090   3.896  27.587  10.475
 4323W        W68091  42.989  38.860   2.248
 4324W        W68092  18.267   4.388  11.118
 4325W        W68093  15.676  41.844  13.542
 4326W        W68094  36.350  12.800   1.221
 4327W        W68095  35.425  31.501  14.828
 4328W        W68096  36.046   8.781  13.995
 4329W        W68097   9.312  10.267   1.839
 4330W        W68098   0.950  37.516  12.468
 4331W        W68099  41.948   3.284  14.411
 4332W        W68100  43.281  26.471   2.332
 4333W        W68101  37.896   9.171   2.239
 4334W        W68102  42.476  41.436   1.807
 4335W        W68103  20.601  13.219   0.916
 4336W        W68104  32.567  21.526   2.886
 4337W        W68105  35.861  34.581  11.378
 4338W        W68106  19.619  10.813   4.700
 4339W        W68107  34.929  32.001   0.384
 4340W        W68108  30.656  13.309   1.904
 4341W        W68109  37.368  35.914   1.724
 4342W        W68110  15.640  40.941   4.718
 4343W        W68111   2.463  39.050  11.540
 4344W        W68112   8.813   0.275  12.988
 4345W        W68113  14.182  32.928   3.727
 4346W        W68114  29.931  14.656  10.905
 4347W        W68115  14.301   2.791  11.032
 4348W        W68116   8.661  27.146  11.918
 4349W        W68117  32.139  43.490   3.794
 4350W        W68118   0.884  28.624  13.024
 4351W        W68119  36.516  43.838   1.369
 4352W        W68120  30.990   9.718   0.456
 4353W        W68121   5.738  13.272  11.115
 4354W        W68122  39.325  14.702   1.215
 4355W        W68123   6.348   0.823  11.047
 4356W        W68124  30.450  31.114  11.076
 4357W        W68125  11.738  13.223  14.490
 4358W        W68126  35.561  30.035  13.841
 4359W        W68127  18.721  33.127   0.363
 4360W        W68128  32.569  23.007  13.865
 4361W        W68129   9.206  39.975  13.342
 4362W        W68130  13.756  39.895  10.609
 4363W        W68131   2.842   9.831  10.905
 4364W        W68132  26.569  20.262  10.451
 4365W        W68133   2.326  29.152  14.445
 4366W        W68134   9.823  44.950   1.708
 4367W        W68135   7.402  30.539   4.348
 4368W        W68136  31.473  39.468  12.351
 4369W        W68137  30.080  17.218   0.884
 4370W        W68138  39.314  23.989  12.022
 4371W        W68139  25.664   5.853   1.766
 4372W        W68140   4.748   8.315   1.370
 4373W        W68141  25.185  43.414  10.586
 4374W        W68142  36.053   0.388   2.676
 4375W        W68143  40.003  20.160   2.371
 4376W        W68144  40.886  15.627  14.505
 4377W        W68145  15.595  41.504  13.025
 4378W        W68146  17.203  13.339  13.944
 4379W        W68147   7.375  25.602  12.927
 4380W        W68148  35.979  12.207   3.373
 4381W        W68149  44.475   0.795   0.795
 4382W        W68150  39.534  18.545   2.323
 4383W        W68151  17.145   0.302  11.032
 4384W        W68152  20.765  20.065  11.485
 4385W        W68153  21.603  32.129  14.422
 4386W        W68154   9.322   6.712  11.884
 4387W        W68155   2.455  33.512  12.913
 4388W        W68156   5.380  32.005  14.502
 4389W        W68157  17.736  15.201   3.642
 4390W        W68158   0.271   6.807  12.895
 4391W        W68159  22.587  27.031  10.637
 4392W        W68160   6.291  24.499  10.927
 4393W        W68161   1.751  18.642  14.868
 4394W        W68162  16.118  43.503   0.409
 4395W        W68163  30.102  39.428   1.305
 4396W        W68164  20.264   4.940  11.866
 4397W        W68165  20.742   7.378   4.630
 4398W        W68166  38.386  37.080   1.363
 4399W        W68167   6.244  30.414  12.021
 4400W        W68168   3.226   1.861  14.346
 4401W        W68169   0.987  40.924   2.392
 4402W        W68170   0.388  39.447  12.004
 4403W        W68171   5.903  27.082  12.423
 4404W        W68172  14.316  25.526  14.835
 4405W        W68173  18.218  36.963  11.564
 4406W        W68174  39.055   8.709  13.818
 4407W        W68175  34.542  18.206   4.654
 4408W        W68176   9.715  32.399   4.743
 4409W        W68177  43.886  33.952   1.263
 4410W        W68178   6.898  39.016  11.068
 4411W        W68179  10.780  14.787  10.024
 4412W        W68180  31.437   0.932   3.768
 4413W        W68181   2.430  43.786   0.368
 4414W        W68182  32.437  21.578   4.344
 4415W        W68183  29.078  13.145   3.805
 4416W        W68184  33.985  37.002  12.856
 4417W        W68185  11.152   0.913  12.056
 4418W        W68186  33.408  23.069  13.475
 4419W        W68187  11.852  41.793  13.880
 4420W        W68188  13.184  22.013   1.444
 4421W        W68189  30.993  44.498  11.121
 4422W        W68190  19.758  28.534   3.186
 4423W        W68191  21.754  22.137   1.263
 4424W        W68192  11.166  11.250   3.820
 4425W        W68193  42.994  18.613  11.944
 4426W        W68194  32.017  32.590  12.950
 4427W        W68195  12.807  23.199  14.969
 4428W        W68196   5.224  40.386  10.151
 4429W        W68197  18.762   7.253   1.282
 4430W        W68198   0.288  38.391  12.346
 4431W        W68199  25.691   1.435   2.706
 4432W        W68200  14.731  18.231  14.801
 4433W        W68201  23.606  13.718  11.879
 4434W        W68202  21.676  44.849  13.819
 4435W        W68203  29.164  18.158   4.206
 4436W        W68204  41.829  22.056   2.268
 4437W        W68205  34.018  11.299  13.005
 4438W        W68206  11.848  21.622   0.890
 4439W        W68207   7.739  30.472  11.536
 4440W        W68208   4.292  31.132  13.351
 4441W        W68209  34.906  29.049  10.045
 4442W        W68210  17.557  18.740  12.939
 4443W        W68211  31.929  22.629   2.738
 4444W        W68212  34.532  29.468  14.300
 4445W        W68213  38.336  28.137  11.859
 4446W        W68214  23.069  39.942   0.390
 4447W        W68215  15.304  18.776   4.672
 4448W        W68216  34.432  18.712  11.072
 4449W        W68217  11.668  17.291  11.907
 4450W        W68218   2.271  32.990  11.049
 4451W        W68219  33.592  34.480  13.868
 4452W        W68220  25.194   6.411   2.297
 4453W        W68221  28.141  33.128   5.211
 4454W        W68222  31.918  28.038   2.262
 4455W        W68223  32.109  29.514  13.459
 4456W        W68224  34.434   2.226  14.292
 4457W        W68225  42.450  12.833  11.049
 4458W        W68226  17.763  31.100  10.607
 4459W        W68227  18.599  26.591  11.066
 4460W        W68228  35.034  42.817   2.793
 4461W        W68229  29.495   7.812   3.170
 4462W        W68230  39.042   2.762  12.425
 4463W        W68231  19.280  43.485   3.232
 4464W        W68232   3.900  43.386   1.443
 4465W        W68233  14.099  14.628  10.509
 4466W        W68234  12.667  39.490  14.468
 4467W        W68235  26.181  29.139  13.976
 4468W        W68236  43.852  26.559  11.568
 4469W        W68237  13.254  13.226  11.972
 4470W        W68238  12.850  25.581   5.176
 4471W        W68239  40.363   9.719  10.576
 4472W        W68240  28.444   9.877   0.919
 4473W        W68241  27.457   9.655  11.547
 4474W        W68242  37.005   8.770   2.267
 4475W        W68243  29.158  12.819   1.334
 4476W        W68244  24.124  16.261  13.414
 4477W        W68245  27.626  15.266   4.286
 4478W        W68246  25.683  13.840   0.745
 4479W        W68247  39.512  43.360  10.928
 4480W        W68248  33.051  12.840   3.324
 4481W        W68249  29.042   6.685   0.375
 4482W        W68250  32.098   0.757   5.242
 4483W        W68251  41.896  41.812  14.017
 4484W        W68252  20.128  35.883  11.521
 4485W        W68253  40.311  24.505   1.317
 4486W        W68254  18.781   8.713  13.437
 4487W        W68255  19.059   6.231  12.904
 4488W        W68256  30.154  22.739  13.062
 4489W        W68257  11.157  38.403   4.604
 4490W        W68258  43.334  18.789   1.823
 4491W        W68259  40.880   4.792  12.095
 4492W        W68260  30.101   6.900   4.295
 4493W        W68261  28.068   4.295   2.328
 4494W        W68262  24.213  10.736   3.324
 4495W        W68263  21.017  14.161  10.568
 4496W        W68264  16.792  13.135  11.489
 4497W        W68265  15.291  30.985   3.716
 4498W        W68266  35.510  32.131   1.279
 4499W        W68267  27.608  34.431  10.978
 4500W        W68268  29.106  10.645  12.064
 4501W        W68269  37.377  40.810  14.834
 4502W        W68270  38.892  28.132   3.260
 4503W        W68271  35.013  38.012   1.741
 4504W        W68272  17.579  26.064  14.497
 4505W        W68273  32.107  40.495   4.319
 4506W        W68274  26.596  22.539  14.916
 4507W        W68275  25.089  28.495   3.688
 4508W        W68276   3.805  14.324   2.303
 4509W        W68277  14.748  26.985  14.321
 4510W        W68278   2.404  44.769   1.210
 4511W        W68279  30.451  13.671  14.844
 4512W        W68280  23.065  30.033   2.386
 4513W        W68281  15.108  44.847   4.701
 4514W        W68282  33.624  28.658   1.857
 4515W        W68283  14.165   8.697  13.542
 4516W        W68284  18.779   2.336   0.781
 4517W        W68285  42.778  40.978   3.743
 4518W        W68286   6.729  20.669  11.968
 4519W        W68287   2.306  23.717   3.191
 4520W        W68288   7.702  35.984   3.741
 4521W        W68289  22.729   0.444   1.444
 4522W        W68290   0.795   2.396  12.433
 4523W        W68291  10.728  30.525  12.058
 4524W        W68292  14.712  26.136   0.875
 4525W        W68293  16.634  41.870   0.281
 4526W        W68294   0.386  43.913  14.450
 4527W        W68295  28.633   1.261  13.338
 4528W        W68296  33.028   5.349   1.800
 4529W        W68297  35.386  36.494  10.889
 4530W        W68298  37.555   5.910  13.840
 4531W        W68299  18.141  39.420   3.758
 4532W        W68300  44.422  27.131   1.735
 4533W        W68301   3.446  18.700   1.211
 4534W        W68302  15.251  11.848   3.237
 4535W        W68303  35.015  21.549   3.348
 4536W        W68304  37.467  31.905   0.258
 4537W        W68305   8.747  14.094   4.178
 4538W        W68306  33.610  17.647   3.840
 4539W        W68307  26.528  14.197   4.349
 4540W        W68308  10.663  19.224   3.734
 4541W        W68309  10.737  31.146   3.256
 4542W        W68310  43.395  22.708  12.983
 4543W        W68311   1.876   4.842   4.641
 4544W        W68312   9.259  42.501   3.176
 4545W        W68313   8.846  39.387   4.125
 4546W        W68314  40.882   9.188  13.464
 4547W        W68315   9.209  36.586   3.827
 4548W        W68316  35.942  14.166  14.955
 4549W        W68317   8.868  27.052   1.310
 4550W        W68318  29.011  34.399   0.727
 4551W        W68319  28.487  16.089  11.385
 4552W        W68320  18.222  11.669   2.379
 4553W        W68321  33.453  23.518  10.091
 4554W        W68322  11.138  32.044   1.806
 4555W        W68323   1.257   8.668  10.554
 4556W        W68324  44.469  15.210   4.645
 4557W        W68325  14.607   4.400  13.855
 4558W        W68326  21.549  41.941   0.480
 4559W        W68327  31.554  36.862   4.695
 4560W        W68328  23.173  13.283  10.545
 4561W        W68329   3.829  15.225  14.350
 4562W        W68330  38.420  25.659  13.384
 4563W        W68331   4.723  24.672  12.928
 4564W        W68332   1.931  21.664   4.772
 4565W        W68333   3.804  32.050   2.772
 4566W        W68334  25.614   0.841  12.064
 4567W        W68335  18.645  14.790   4.745
 4568W        W68336  25.981   0.354   1.366
 4569W        W68337   6.887  40.875  13.345
 4570W        W68338  25.487  17.743   4.710
 4571W        W68339   4.845  32.945  12.065
 4572W        W68340   3.885  39.511  14.424
 4573W        W68341  19.073  38.361   3.356
 4574W        W68342  40.304  15.248  10.615
 4575W        W68343  23.160  39.549   4.174
 4576W        W68344  14.167  23.607  13.034
 4577W        W68345  23.213   7.258   0.751
 4578W        W68346  12.294   3.239  14.991
 4579W        W68347  11.232  14.638   2.181
 4580W        W68348  40.798   9.316   2.861
 4581W        W68349   0.382  25.714   4.684
 4582W        W68350   9.208  40.417   1.246
 4583W        W68351  12.268  12.734  12.490
 4584W        W68352   5.258  31.145   4.293
 4585W        W68353   7.274   6.771  13.897
 4586W        W68354  29.645  10.374  13.429
 4587W        W68355  38.508  10.282  14.954
 4588W        W68356  36.450  31.020   3.218
 4589W        W68357  26.003  35.994   3.834
 4590W        W68358  44.467  37.025   3.370
 4591W        W68359  33.081  15.694   0.863
 4592W        W68360  43.349  21.064  11.938
 4593W        W68361  32.399  13.205  10.608
 4594W        W68362  29.165  17.747  10.473
 4595W        W68363   7.843   6.808   2.350
 4596W        W68364  26.664  16.581  10.553
 4597W        W68365  25.217  23.183  13.035
 4598W        W68366  10.353  23.055  13.319
 4599W        W68367  13.278  23.607   9.947
 4600W        W68368   8.234   7.179  12.443
 4601W        W68369  27.644   3.281  13.514
 4602W        W68370   9.279  27.514  13.031
 4603W        W68371   5.762  23.994  13.470
 4604W        W68372  24.483   9.206   4.147
 4605W        W68373  22.549  36.581   2.394
 4606W        W68374  26.679  16.675   0.933
 4607W        W68375  24.011  30.497   0.943
 4608W        W68376  11.740   1.416  10.959
 4609W        W68377   9.337  42.829   3.659
 4610W        W68378  43.010  28.967  12.415
 4611W        W68379  41.530  18.725   3.252
 4612W        W68380  44.868  31.002   1.871
 4613W        W68381  28.488  34.995  13.866
 4614W        W68382   6.220  43.945  14.319
 4615W        W68383   4.225  25.987   2.791
 4616W        W68384  40.344   6.301   3.760
 4617W        W68385  20.029  24.623  14.499
 4618W        W68386  24.109  22.545  12.973
 4619W        W68387  31.542   6.228   4.157
 4620W        W68388  26.464  35.480  12.387
 4621W        W68389  17.166  14.232  13.042
 4622W        W68390  42.006  19.746   1.837
 4623W        W68391   1.838  12.142   0.422
 4624W        W68392  16.643  39.894   0.408
 4625W        W68393   5.809   7.673  14.968
 4626W        W68394  28.929   3.446   1.908
 4627W        W68395  14.656  34.511   1.349
 4628W        W68396  32.446  20.625  14.318
 4629W        W68397  38.467  33.462  14.402
 4630W        W68398  28.079   0.764  13.824
 4631W        W68399  10.207  37.413   4.820
 4632W        W68400   5.303   9.292   0.931
 4633W        W68401  16.598  12.153   3.281
 4634W        W68402  38.057  25.005  11.917
 4635W        W68403   0.278  24.057   1.262
 4636W        W68404  30.463  12.293  13.351
 4637W        W68405  15.140  26.464   0.778
 4638W        W68406  39.884  14.124   3.149
 4639W        W68407  30.453  44.378  12.896
 4640W        W68408   3.713  17.300  10.475
 4641W        W68409  44.328  28.560  12.933
 4642W        W68410  13.204  26.069   1.415
 4643W        W68411  25.683  22.658  12.428
 4644W        W68412   4.784  25.108   2.792
 4645W        W68413  21.741   6.873   2.359
 4646W        W68414  11.777  27.579   1.784
 4647W        W68415  41.353  34.015   2.873
 4648W        W68416  35.464  33.052   4.217
 4649W        W68417   2.852   0.971  13.958
 4650W        W68418  43.834  23.608  13.018
 4651W        W68419  38.541  37.411  10.414
 4652W        W68420  26.466  36.446   0.461
 4653W        W68421  43.444  24.107   2.892
 4654W        W68422   5.413  37.529  13.462
 4655W        W68423  36.092  30.162   1.294
 4656W        W68424  39.870   1.241  14.943
 4657W        W68425  12.710  38.390  11.471
 4658W        W68426   6.419   9.840   2.389
 4659W        W68427  34.993   1.764  14.373
 4660W        W68428  29.519  18.179   5.660
 4661W        W68429   4.367   5.818  12.991
 4662W        W68430   8.702  35.397  13.314
 4663W        W68431  30.537   1.315  12.007
 4664W        W68432  26.593  39.411   4.167
 4665W        W68433  11.265  16.747  14.513
 4666W        W68434   5.901   5.358   2.870
 4667W        W68435  13.300   3.451  10.583
 4668W        W68436  17.580  26.459  11.955
 4669W        W68437  38.542   8.792  11.502
 4670W        W68438   7.811   6.844  14.797
 4671W        W68439  41.921  24.136  14.764
 4672W        W68440  44.434  31.628   1.737
 4673W        W68441   2.454  42.882  13.408
 4674W        W68442   2.341  38.877   2.734
 4675W        W68443  37.054  39.036  14.300
 4676W        W68444  43.005  41.368   1.402
 4677W        W68445  27.980  12.139  12.035
 4678W        W68446  42.292  14.591  11.579
 4679W        W68447   7.269  37.908   3.349
 4680W        W68448  35.443  34.890   2.686
 4681W        W68449  21.694  43.452  11.541
 4682W        W68450  20.185   0.756  13.044
 4683W        W68451  25.003   7.671   3.860
 4684W        W68452  25.689   4.896   1.923
 4685W        W68453  34.952  25.693  11.590
 4686W        W68454  25.979   8.275  13.478
 4687W        W68455  10.660  29.937   0.944
 4688W        W68456  41.522  23.690   4.248
 4689W        W68457  29.077  16.686  11.036
 4690W        W68458  23.689  30.481   3.660
 4691W        W68459  17.665  16.678  12.859
 4692W        W68460  10.691   6.857   1.386
 4693W        W68461  14.763  30.133  14.031
 4694W        W68462  35.004   7.291   4.337
 4695W        W68463   7.717  28.959   0.464
 4696W        W68464  23.110   3.372  10.603
 4697W        W68465   3.276   3.817   4.261
 4698W        W68466  18.143  17.304   0.277
 4699W        W68467  37.392  16.236   4.157
 4700W        W68468   1.876  10.275   2.310
 4701W        W68469  23.058  14.162  13.055
 4702W        W68470  28.595   3.353  14.031
 4703W        W68471  10.143   2.816   4.239
 4704W        W68472  20.087  17.088  12.473
 4705W        W68473   3.216  19.275   2.310
 4706W        W68474  15.801  37.471  12.426
 4707W        W68475  14.707  12.321   0.777
 4708W        W68476  33.481  20.665  14.914
 4709W        W68477  11.741  31.082  11.989
 4710W        W68478  20.270   7.204   9.993
 4711W        W68479   9.766   5.823   0.815
 4712W        W68480  18.587  25.085   5.283
 4713W        W68481  18.079   8.406  12.876
 4714W        W68482  22.113  22.516   4.218
 4715W        W68483  35.074  19.546   0.345
 4716W        W68484  22.722  43.918  10.906
 4717W        W68485  39.449  13.784  10.564
 4718W        W68486  28.453  12.361  11.374
 4719W        W68487  11.370  14.130  12.022
 4720W        W68488  42.358  28.536   1.900
 4721W        W68489   9.799  28.004  14.846
 4722W        W68490  33.549  29.071  11.076
 4723W        W68491   4.802   1.962  14.509
 4724W        W68492  35.071  40.383  13.848
 4725W        W68493  40.343  29.446  14.974
 4726W        W68494  12.670  22.212  12.374
 4727W        W68495  19.276  17.115  12.831
 4728W        W68496  14.152   8.261  12.062
 4729W        W68497  24.070  31.976  13.058
 4730W        W68498  33.609   3.393  12.504
 4731W        W68499   0.837   1.752  14.319
 4732W        W68500   6.808  36.524  14.855
 4733W        W68501  34.918  13.671  14.514
 4734W        W68502  14.800  20.721   3.691
 4735W        W68503   3.865  12.773   1.896
 4736W        W68504  33.981   1.417   0.783
 4737W        W68505  11.640  21.096  13.438
 4738W        W68506  15.293  30.108  13.900
 4739W        W68507  17.082  21.237   5.122
 4740W        W68508  37.506  19.611   3.650
 4741W        W68509  10.837  22.176  14.790
 4742W        W68510  34.930   5.229  13.017
 4743W        W68511  18.693  28.137  12.848
 4744W        W68512  33.883  12.849  14.443
 4745W        W68513  16.278  18.220   0.454
 4746W        W68514  11.278  16.297   3.808
 4747W        W68515   6.688   3.245  11.855
 4748W        W68516   1.859  42.300   3.271
 4749W        W68517  38.941   4.239   2.849
 4750W        W68518   5.263  40.521   3.360
 4751W        W68519  11.298  27.186   3.818
 4752W        W68520  37.083  12.227   4.256
 4753W        W68521  44.000  33.098  13.327
 4754W        W68522  35.412  16.709  11.054
 4755W        W68523  43.777   1.264  14.899
 4756W        W68524  40.458  16.797  10.554
 4757W        W68525  24.504   0.448   2.817
 4758W        W68526  24.598  40.801   4.254
 4759W        W68527  10.376  11.705   3.359
 4760W        W68528  13.333  42.883   3.340
 4761W        W68529  43.951   3.266  12.070
 4762W        W68530  13.833   9.321  12.553
 4763W        W68531  11.740  16.271  11.966
 4764W        W68532  32.605  19.701  12.068
 4765W        W68533  12.645   5.397   0.967
 4766W        W68534  37.027   0.768   3.680
 4767W        W68535  40.353  41.793  14.938
 4768W        W68536  26.609   0.286   0.740
 4769W        W68537   3.250  28.059  12.049
 4770W        W68538  15.676   1.827  11.974
 4771W        W68539  21.550  14.276   3.382
 4772W        W68540  35.977  10.857   3.787
 4773W        W68541  10.740  20.138  14.891
 4774W        W68542  34.389   6.257   2.888
 4775W        W68543  37.415  27.062  13.032
 4776W        W68544  38.372  10.688   9.624
 4777W        W68545  16.719  41.968  10.546
 4778W        W68546  30.984  30.637   4.332
 4779W        W68547  41.854  26.062  14.889
 4780W        W68548   1.927  23.071  10.900
 4781W        W68549  11.722   1.769   0.841
 4782W        W68550  24.156  21.055  11.571
 4783W        W68551   6.754   6.765  13.992
 4784W        W68552  25.698  28.640   0.899
 4785W        W68553  30.939  23.548   0.733
 4786W        W68554  29.172   9.859   4.132
 4787W        W68555   6.918  42.957  14.886
 4788W        W68556  39.065   7.745  14.838
 4789W        W68557  12.792  22.669  13.465
 4790W        W68558  38.044  28.178  14.324
 4791W        W68559  40.054   3.324  11.095
 4792W        W68560  26.528  16.653  10.923
 4793W        W68561  38.490  12.341   4.231
 4794W        W68562   1.310  39.353   0.930
 4795W        W68563  44.932  28.066   4.662
 4796W        W68564   7.286  37.353  14.392
 4797W        W68565   1.797  32.087  11.026
 4798W        W68566  32.441   1.274   0.478
 4799W        W68567  41.810  32.093   3.182
 4800W        W68568  18.073  15.248  12.519
 4801W        W68569   0.795  27.952   2.839
 4802W        W68570  32.517  26.480  12.962
 4803W        W68571  36.362  41.919  12.870
 4804W        W68572  17.588  33.014  12.013
 4805W        W68573   8.806  39.417   2.896
 4806W        W68574  20.677  18.148  11.389
 4807W        W68575   0.850   2.770   0.242
 4808W        W68576  39.481   0.271   3.365
 4809W        W68577  11.722  41.893   4.318
 4810W        W68578   2.965  39.058  12.983
 4811W        W68579   0.444  40.964  14.457
 4812W        W68580  19.075  38.038   4.834
 4813W        W68581  33.115  10.842   1.728
 4814W        W68582  11.819  36.569  12.414
 4815W        W68583  12.339  19.156   3.709
 4816W        W68584  38.970  11.336   2.234
 4817W        W68585  41.863  36.023  14.782
 4818W        W68586  32.479  41.931  13.417
 4819W        W68587  32.492  12.141  11.438
 4820W        W68588  19.198  26.127  14.987
 4821W        W68589   9.839  28.463   4.353
 4822W        W68590   2.766  20.543  10.931
 4823W        W68591  14.101  42.916  13.443
 4824W        W68592  18.125  32.620  14.863
 4825W        W68593  12.656  43.969   4.675
 4826W        W68594   4.745   7.705  12.577
 4827W        W68595  32.064   1.254  14.823
 4828W        W68596   9.803  30.098  10.929
 4829W        W68597   5.829   2.897   0.800
 4830W        W68598  10.700   9.683  13.957
 4831W        W68599  16.110  34.542  10.081
 4832W        W68600  25.641  38.031   3.837
 4833W        W68601  40.007  16.215  13.423
 4834W        W68602   3.920  20.727   4.604
 4835W        W68603  37.527  39.371   2.265
 4836W        W68604  38.383  35.448   1.894
 4837W        W68605  33.572  43.299  13.793
 4838W        W68606   8.880  42.352   0.349
 4839W        W68607  16.300  23.106  11.494
 4840W        W68608   6.891   8.790   0.397
 4841W        W68609  14.631  12.760  12.383
 4842W        W68610  19.044  36.876  14.344
 4843W        W68611  15.608  32.049   1.765
 4844W        W68612  38.004  33.574   3.147
 4845W        W68613  36.520  11.739   4.146
 4846W        W68614  33.038  39.341   1.824
 4847W        W68615  10.369  29.528  13.806
 4848W        W68616  42.382  34.405  11.045
 4849W        W68617  43.912  35.001  11.114
 4850W        W68618   2.366  36.004   2.390
 4851W        W68619   4.866  12.762  13.997
 4852W        W68620   7.879  14.696   4.188
 4853W        W68621  13.165   8.394  13.360
 4854W        W68622   2.888  38.871   4.201
 4855W        W68623  41.427  22.676  12.048
 4856W        W68624   1.961  27.061  12.882
 4857W        W68625  18.751  29.609   1.770
 4858W        W68626   8.168  42.780  14.883
 4859W        W68627  36.529   8.720   0.740
 4860W        W68628  24.085  31.137   3.764
 4861W        W68629  25.974  14.320   5.236
 4862W        W68630  43.377   3.286  11.488
 4863W        W68631   2.398   0.409   0.441
 4864W        W68632  29.526  35.913  10.565
 4865W        W68633  20.100  12.829  14.293
 4866W        W68634  16.102  12.200   0.822
 4867W        W68635  42.510   3.406   0.296
 4868W        W68636  40.919  18.732   2.788
 4869W        W68637  36.544  12.722  10.427
 4870W        W68638  27.451  17.595  14.932
 4871W        W68639   0.350  44.374  11.031
 4872W        W68640  39.528  26.542  11.043
 4873W        W68641  36.978  21.130  14.341
 4874W        W68642  25.097  24.157   4.283
 4875W        W68643  21.733  27.499  12.003
 4876W        W68644  25.198  44.335   3.301
 4877W        W68645  22.068  20.687  11.568
 4878W        W68646  17.679  17.133   3.177
 4879W        W68647  29.619  42.002  14.017
 4880W        W68648  24.130  19.598   3.720
 4881W        W68649  15.603  10.319  10.442
 4882W        W68650  18.751  41.796  12.845
 4883W        W68651   2.756  23.570  11.534
 4884W        W68652  44.005  12.263   4.718
 4885W        W68653  39.847  10.365   0.942
 4886W        W68654  42.513  20.062  12.502
 4887W        W68655   2.261  43.901   4.758
 4888W        W68656  31.079  11.249  11.896
 4889W        W68657   7.287  39.045   2.300
 4890W        W68658  44.854  26.581  12.859
 4891W        W68659  40.002   1.468  12.834
 4892W        W68660  40.327  43.986   0.393
 4893W        W68661  23.725  33.580  14.876
 4894W        W68662  25.123  19.619   0.828
 4895W        W68663  29.489   5.395   4.215
 4896W        W68664  28.556  11.341   0.398
 4897W        W68665   1.829  26.671   2.211
 4898W        W68666  44.755  29.433   0.299
 4899W        W68667  32.432   2.841  14.926
 4900W        W68668  13.121  18.709   4.782
 4901W        W68669  16.279  22.683   0.312
 4902W        W68670  28.663   0.940   2.376
 4903W        W68671  41.886  23.142   3.845
 4904W        W68672   2.873  11.345   0.833
 4905W        W68673  31.608  42.999  12.550
 4906W        W68674  24.724  20.535   4.170
 4907W        W68675  30.075  15.804   0.456
 4908W        W68676  41.890  20.066   0.771
 4909W        W68677   3.408  35.557   0.315
 4910W        W68678  32.964  35.041  10.634
 4911W        W68679  17.711  33.006  10.930
 4912W        W68680   5.786  35.988  11.395
 4913W        W68681  39.046   3.838  14.913
 4914W        W68682   2.850  10.323   2.798
 4915W        W68683   0.427  43.834   2.248
 4916W        W68684  12.358  34.974   2.250
 4917W        W68685  40.541  35.930  11.431
 4918W        W68686  16.607  40.457   3.322
 4919W        W68687  40.347  24.989  10.579
 4920W        W68688  10.166  13.702  10.910
 4921W        W68689  26.140  17.671  12.968
 4922W        W68690  14.813   5.347  13.801
 4923W        W68691  13.798  28.944  13.849
 4924W        W68692   2.440  11.703  11.961
 4925W        W68693  38.055  26.974  12.440
 4926W        W68694  23.619  41.943  12.395
 4927W        W68695  19.245  29.452   1.742
 4928W        W68696   9.181   3.825   0.421
 4929W        W68697  36.851   0.794  10.915
 4930W        W68698  39.053  42.900   1.864
 4931W        W68699   2.898   1.273  13.018
 4932W        W68700  13.349  43.485  10.518
 4933W        W68701  21.630  31.003  13.031
 4934W        W68702   6.801  32.948   0.436
 4935W        W68703   4.767   4.448  13.982
 4936W        W68704  15.742  21.237  10.909
 4937W        W68705  19.683  24.498  11.537
 4938W        W68706  24.527  42.384  10.903
 4939W        W68707  34.031  10.353  12.900
 4940W        W68708  25.009  14.298  13.401
 4941W        W68709  13.302   9.659   2.393
 4942W        W68710  13.175   9.703  10.973
 4943W        W68711   3.298  15.746  10.638
 4944W        W68712  42.943  25.482  13.373
 4945W        W68713  44.393  12.709  12.873
 4946W        W68714  22.072   2.382   1.397
 4947W        W68715  29.157  38.821   0.387
 4948W        W68716  39.020  24.144  14.433
 4949W        W68717  13.219  29.611  11.956
 4950W        W68718  29.035  30.957  11.462
 4951W        W68719   9.706  28.543   4.739
 4952W        W68720  42.461   3.275   1.912
 4953W        W68721  40.367  16.214  13.795
 4954W        W68722   7.709  28.046  13.909
 4955W        W68723  29.426  29.133   1.300
 4956W        W68724  16.098  33.432   4.283
 4957W        W68725  32.975  39.991   3.227
 4958W        W68726  26.118  22.653  14.388
 4959W        W68727  17.301  20.243   2.370
 4960W        W68728   7.802  17.236   1.796
 4961W        W68729  14.127  10.692   2.798
 4962W        W68730  18.226  23.549  10.550
 4963W        W68731   8.896  38.347  10.571
 4964W        W68732   3.457  34.517   2.337
 4965W        W68733   2.721  30.914   3.373
 4966W        W68734  32.456  44.445   4.808
 4967W        W68735  20.745   6.857   1.894
 4968W        W68736  22.666  14.688   3.870
 4969W        W68737   2.295  38.424  10.426
 4970W        W68738  19.687   5.831   3.754
 4971W        W68739   2.859   5.422   4.800
 4972W        W68740  25.706   0.478   4.764
 4973W        W68741  21.707  18.243   1.867
 4974W        W68742  17.268   0.778   3.278
 4975W        W68743  42.909  12.830   0.327
 4976W        W68744  20.135   8.810  13.448
 4977W        W68745   9.845   9.858   1.915
 4978W        W68746   6.239  38.980  11.411
 4979W        W68747  12.673   3.864   1.839
 4980W        W68748  42.298   5.252   0.778
 4981W        W68749  13.171  28.965   0.298
 4982W        W68750  31.057   6.286  12.838
 4983W        W68751  34.446  26.689  14.894
 4984W        W68752  24.715  20.108   4.700
 4985W        W68753  42.814  41.431  13.912
 4986W        W68754  23.157   5.267  11.911
 4987W        W68755  13.606   2.261   0.470
 4988W        W68756  11.242  21.743   3.194
 4989W        W68757  37.494  28.662  10.522
 4990W        W68758  16.665   2.313  12.407
 4991W        W68759  17.724  36.010  13.415
 4992W        W68760  27.551  25.013  13.507
 4993W        W68761   4.386  14.704   4.717
 4994W        W68762  38.835  33.613   1.223
 4995W        W68763  37.040  21.645   4.620
 4996W        W68764  37.879  42.341   4.735
 4997W        W68765  10.272  21.687   2.860
 4998W        W68766  30.042  27.488  10.432
 4999W        W68767  25.678  35.578  12.347
 5000W        W68768  20.120   8.345   2.889
 5001W        W68769  27.533  37.412   0.860
 5002W        W68770  41.940  18.782  10.405
 5003W        W68771  32.982  33.437   0.367
 5004W        W68772  18.660  21.734  14.793
 5005W        W68773  33.464  42.339  14.399
 5006W        W68774  15.657  15.822   1.851
 5007W        W68775   6.920  40.458   4.338
 5008W        W68776  17.143  29.973   2.839
 5009W        W68777  43.858  25.105   2.182
 5010W        W68778   0.448  14.721  13.940
 5011W        W68779  35.501  34.908   0.779
 5012W        W68780  37.461  15.793  11.379
 5013W        W68781  41.957  14.596   4.117
 5014W        W68782   7.829  26.072  13.355
 5015W        W68783  27.475  33.406   5.184
 5016W        W68784  15.098   7.786   3.321
 5017W        W68785   5.715  36.080  12.877
 5018W        W68786   0.931   5.247   3.351
 5019W        W68787  26.501  15.809  11.862
 5020W        W68788  25.211   4.703   2.669
 5021W        W68789   5.824  34.003  13.540
 5022W        W68790  42.906  43.007   3.773
 5023W        W68791  44.493  44.901   3.856
 5024W        W68792  21.081   2.281  12.877
 5025W        W68793   0.966  22.156  14.383
 5026W        W68794   7.795  28.157   0.820
 5027W        W68795  36.879  27.592  11.977
 5028W        W68796  10.828   3.867  14.481
 5029W        W68797  27.611  38.830   4.627
 5030W        W68798   1.748   0.745  12.439
 5031W        W68799   2.896   4.334  10.888
 5032W        W68800   5.736  31.019  12.465
 5033W        W68801   5.417  44.263  14.402
 5034W        W68802   0.437  12.634  11.466
 5035W        W68803  38.836  44.837  13.848
 5036W        W68804  13.660  17.191   2.776
 5037W        W68805  17.239   9.773   2.787
 5038W        W68806   2.382  34.913  10.528
 5039W        W68807  32.485  36.382  11.593
 5040W        W68808  39.558  24.162   0.759
 5041W        W68809  30.591   8.750  10.428
 5042W        W68810  24.507  38.946   4.171
 5043W        W68811  21.528  24.531   0.404
 5044W        W68812   3.325  15.250  10.481
 5045W        W68813  43.855  28.643  14.778
 5046W        W68814   1.322  36.571  14.980
 5047W        W68815  38.550   6.389  10.535
 5048W        W68816   4.378  22.242   2.375
 5049W        W68817  40.887  32.029  10.050
 5050W        W68818  35.439  33.462   2.294
 5051W        W68819   7.684   7.842   5.299
 5052W        W68820  23.064  42.317   4.648
 5053W        W68821   1.404  43.929   2.362
 5054W        W68822  43.282   2.293   1.252
 5055W        W68823  40.469  16.699   3.784
 5056W        W68824  34.581   7.842   5.230
 5057W        W68825  43.511   4.881  13.016
 5058W        W68826  34.904  37.514  12.016
 5059W        W68827   9.802  29.110   4.790
 5060W        W68828  11.149  21.029  12.905
 5061W        W68829  43.996  33.059  12.919
 5062W        W68830   7.231   4.418   2.268
 5063W        W68831  12.726  41.034   0.826
 5064W        W68832  24.983   4.416  10.906
 5065W        W68833  26.078   7.348  11.884
 5066W        W68834   0.750  35.384   1.397
 5067W        W68835  31.937  13.184   4.801
 5068W        W68836  44.876  30.984  11.523
 5069W        W68837  27.635  38.570  10.918
 5070W        W68838  20.238  10.755   2.769
 5071W        W68839  16.152   3.713   4.118
 5072W        W68840  21.669  32.453   1.900
 5073W        W68841  16.730  18.707  14.770
 5074W        W68842  20.189  42.340   2.779
 5075W        W68843  20.104  28.647  13.414
 5076W        W68844   2.741  31.579  12.825
 5077W        W68845  37.851  39.019  11.118
 5078W        W68846   6.306  10.737  10.989
 5079W        W68847  42.910  42.929   2.680
 5080W        W68848  34.905   9.780  14.804
 5081W        W68849   9.381  31.609  11.072
 5082W        W68850  10.708  21.537   0.271
 5083W        W68851   6.397  13.814   3.152
 5084W        W68852  32.018  22.035  14.357
 5085W        W68853  29.661  29.170  11.417
 5086W        W68854  41.400  23.998  14.466
 5087W        W68855  20.225  11.215  12.090
 5088W        W68856  14.114  11.350   0.934
 5089W        W68857  19.700  22.103   1.846
 5090W        W68858   8.687  11.244  10.432
 5091W        W68859  38.430  18.673   2.837
 5092W        W68860  35.079  16.583   9.486
 5093W        W68861  41.336  15.314  13.340
 5094W        W68862  13.136   3.370   0.397
 5095W        W68863  36.503  25.495  11.106
 5096W        W68864  26.488  14.192   4.756
 5097W        W68865   4.307  39.877   4.119
 5098W        W68866  24.052   7.727  14.970
 5099W        W68867  33.944  19.222   3.148
 5100W        W68868   9.746   9.342   0.948
 5101W        W68869  30.497  18.718  13.050
 5102W        W68870   3.800  25.202  11.391
 5103W        W68871  43.499   9.375  11.951
 5104W        W68872  14.144  27.547  10.450
 5105W        W68873  33.094  16.316  11.553
 5106W        W68874  20.250  22.062  12.404
 5107W        W68875  10.145  14.810   2.374
 5108W        W68876  22.553  16.131   2.332
 5109W        W68877  29.475  18.242  14.399
 5110W        W68878  33.949  18.156  10.127
 5111W        W68879  44.493  32.503  11.571
 5112W        W68880   1.891  35.938  13.501
 5113W        W68881   5.432  11.262   1.393
 5114W        W68882  36.857  13.773  13.958
 5115W        W68883  39.855  25.685  10.556
 5116W        W68884   4.814  32.628   2.770
 5117W        W68885  39.942  37.561  13.843
 5118W        W68886  12.357   5.760   0.382
 5119W        W68887  24.200  42.781  12.576
 5120W        W68888  36.887  10.676   9.555
 5121W        W68889   0.838  32.924  11.892
 5122W        W68890   4.430  19.282  11.474
 5123W        W68891  11.210  13.845  14.010
 5124W        W68892  30.066  12.823   4.334
 5125W        W68893  16.093   1.826  12.868
 5126W        W68894   7.744  30.542  10.491
 5127W        W68895  44.468  24.015  12.030
 5128W        W68896  19.173   0.355  10.969
 5129W        W68897   7.762   4.337  12.974
 5130W        W68898   3.261   8.820   4.621
 5131W        W68899  39.332  18.740  13.051
 5132W        W68900  31.435  34.017  14.484
 5133W        W68901  14.244  22.019   3.237
 5134W        W68902  14.299  24.015   2.891
 5135W        W68903   8.252  32.622  11.976
 5136W        W68904   5.710  21.135   3.234
 5137W        W68905   6.292  12.828   1.798
 5138W        W68906  35.561  27.678  12.843
 5139W        W68907  17.766   0.805  11.400
 5140W        W68908   9.886   8.364   1.306
 5141W        W68909  30.968  36.525   1.720
 5142W        W68910  31.645  17.222   3.256
 5143W        W68911   8.296  13.246   1.247
 5144W        W68912  34.029  12.755   1.750
 5145W        W68913  25.484  29.446   0.870
 5146W        W68914  44.760  33.954  14.835
 5147W        W68915  44.914  10.225   0.956
 5148W        W68916  44.398  18.223  14.772
 5149W        W68917  28.051  15.228   4.731
 5150W        W68918  10.263  18.179   0.304
 5151W        W68919  39.866  20.624  11.440
 5152W        W68920  23.991   3.888   1.231
 5153W        W68921  31.002  14.648   4.351
 5154W        W68922   6.232  34.554  13.504
 5155W        W68923  44.414   7.805  14.464
 5156W        W68924  21.222   2.909   2.330
 5157W        W68925  19.216  13.734  11.860
 5158W        W68926   3.879  26.614  11.512
 5159W        W68927   4.784  12.169  12.457
 5160W        W68928  19.615  41.005  13.799
 5161W        W68929  16.159   5.756  11.029
 5162W        W68930   5.878  16.298  14.920
 5163W        W68931  34.491  22.105   2.285
 5164W        W68932  35.100  13.629   0.445
 5165W        W68933  38.415  15.730  14.427
 5166W        W68934  31.976   3.282  11.924
 5167W        W68935  40.816  32.040  11.124
 5168W        W68936  27.616  40.843  13.347
 5169W        W68937   3.253  41.991  11.892
 5170W        W68938  19.741  13.313   5.193
 5171W        W68939   5.290  41.302   0.428
 5172W        W68940  35.986   8.858  13.063
 5173W        W68941   2.740  40.004  11.509
 5174W        W68942  25.041   8.365  11.090
 5175W        W68943  29.169  26.148  13.002
 5176W        W68944  30.997  35.358  13.428
 5177W        W68945   9.828  40.919  13.548
 5178W        W68946  44.443   8.375  13.998
 5179W        W68947  39.460  23.681  12.936
 5180W        W68948  20.201  42.463   1.884
 5181W        W68949  14.801  20.674  11.906
 5182W        W68950  10.313  38.940   4.667
 5183W        W68951  19.260  19.550  13.487
 5184W        W68952  18.713   9.309  12.878
 5185W        W68953  22.590  34.990  13.886
 5186W        W68954  40.851  23.117   2.317
 5187W        W68955  32.124  31.131  12.438
 5188W        W68956   9.303  20.534  12.369
 5189W        W68957  30.945  26.199  13.417
 5190W        W68958  28.170  30.915  11.452
 5191W        W68959   7.208  42.813   4.765
 5192W        W68960  17.170  20.653  12.385
 5193W        W68961  10.239  29.476   2.896
 5194W        W68962  37.479  44.907   2.819
 5195W        W68963  44.946   2.361  11.409
 5196W        W68964  17.129   2.325  10.603
 5197W        W68965   2.353   7.247  13.360
 5198W        W68966  13.176  34.889  12.940
 5199W        W68967  21.550   7.780  10.991
 5200W        W68968  12.704   0.788  13.906
 5201W        W68969  34.004  43.309  12.836
 5202W        W68970  19.147  20.630   2.390
 5203W        W68971   7.722  10.343   2.258
 5204W        W68972  34.532  14.728   2.751
 5205W        W68973  36.079  44.267  13.498
 5206W        W68974   7.182   5.835   2.192
 5207W        W68975   0.831  31.998   1.743
 5208W        W68976  32.563  44.983   0.314
 5209W        W68977  40.858  25.054  13.052
 5210W        W68978  38.884  30.156  10.534
 5211W        W68979  26.596   3.229  13.317
 5212W        W68980  44.375  23.022  11.437
 5213W        W68981  23.991   5.253  14.275
 5214W        W68982   5.247  36.946  10.113
 5215W        W68983   1.306  13.315  12.823
 5216W        W68984  44.880  16.306  11.045
 5217W        W68985   5.241  39.897  11.038
 5218W        W68986  15.615   1.254  10.509
 5219W        W68987  14.697  32.082   3.753
 5220W        W68988   1.259  17.103  10.450
 5221W        W68989  22.216  10.192  14.461
 5222W        W68990  22.602  28.111  12.428
 5223W        W68991  15.627  34.500  12.901
 5224W        W68992  17.573  20.041  11.109
 5225W        W68993   4.411  26.483   4.659
 5226W        W68994  31.529  37.036   1.807
 5227W        W68995  22.162  19.665   3.228
 5228W        W68996  22.730  42.936  14.872
 5229W        W68997  19.067  26.495   4.779
 5230W        W68998  32.513  19.278  14.427
 5231W        W68999  37.447  10.154  10.145
 5232W        W69000  16.751  24.055   3.310
 5233W        W69001  30.513  40.376  11.129
 5234W        W69002  31.536  16.228  11.451
 5235W        W69003  26.148  11.173   0.399
 5236W        W69004  42.914  20.649   0.358
 5237W        W69005  29.644  35.082  11.596
 5238W        W69006  26.198   1.290   3.808
 5239W        W69007  38.422   0.358   3.328
 5240W        W69008  21.163  40.411   2.870
 5241W        W69009  27.088  19.224   2.742
 5242W        W69010  14.641  29.591   0.339
 5243W        W69011  36.049  12.622  14.374
 5244W        W69012  32.635   3.856  12.347
 5245W        W69013  36.469  34.990   3.849
 5246W        W69014   1.906  21.198  12.871
 5247W        W69015  18.761  23.625  11.419
 5248W        W69016  21.536   0.917   2.390
 5249W        W69017  42.481  33.941   2.687
 5250W        W69018   4.437  29.974   3.325
 5251W        W69019  28.937  29.594  11.574
 5252W        W69020   4.866  15.330   4.804
 5253W        W69021  13.622  43.017  13.346
 5254W        W69022  21.683  20.639   0.875
 5255W        W69023  18.235  28.622  13.978
 5256W        W69024   9.661  15.190   4.224
 5257W        W69025  38.363  11.193   2.754
 5258W        W69026  30.482  44.982   4.668
 5259W        W69027  22.100  38.372  11.526
 5260W        W69028  44.910  19.124  11.499
 5261W        W69029  13.623  30.577  13.359
 5262W        W69030  14.223   2.446   3.181
 5263W        W69031  19.651  18.592  10.583
 5264W        W69032  41.797  33.439   4.208
 5265W        W69033  26.117  28.997   2.232
 5266W        W69034  19.084  36.414   2.201
 5267W        W69035  26.466   5.278  11.012
 5268W        W69036  10.641  18.626  14.419
 5269W        W69037  24.974  10.289  12.425
 5270W        W69038  14.172  16.087   4.278
 5271W        W69039  24.713  44.330   4.763
 5272W        W69040   3.403   1.877   2.700
 5273W        W69041  33.581   3.851  14.303
 5274W        W69042  39.384  31.993   4.747
 5275W        W69043  17.234  41.825  13.317
 5276W        W69044  15.736   2.374  12.421
 5277W        W69045   0.742  12.659  14.833
 5278W        W69046  32.994   4.885  12.029
 5279W        W69047  38.459  33.410  10.605
 5280W        W69048  34.997  32.443   0.753
 5281W        W69049  24.037  17.654  11.095
 5282W        W69050   2.853  37.498  10.550
 5283W        W69051  20.138   1.953  11.101
 5284W        W69052  18.683  17.235   3.732
 5285W        W69053  29.590  31.951   3.840
 5286W        W69054   7.361  25.080   0.261
 5287W        W69055  20.230   5.416  12.363
 5288W        W69056  33.523   1.845  13.528
 5289W        W69057  27.479  44.380  13.419
 5290W        W69058   2.927   3.287  10.151
 5291W        W69059  29.918  20.577  10.415
 5292W        W69060  22.157  28.455  11.548
 5293W        W69061   7.761  34.431   2.893
 5294W        W69062   8.732  37.049   4.709
 5295W        W69063  22.025  21.574  10.594
 5296W        W69064   0.316   6.307   0.789
 5297W        W69065   0.843  21.690  10.447
 5298W        W69066  18.108  33.469   3.863
 5299W        W69067  25.064  22.026   1.216
 5300W        W69068  20.645   1.242  14.832
 5301W        W69069  26.075  41.808  12.378
 5302W        W69070   7.700   3.418   3.348
 5303W        W69071   9.177  23.586  11.412
 5304W        W69072  31.107  44.867   4.260
 5305W        W69073  38.048  26.490   5.296
 5306W        W69074  40.832  16.669   2.840
 5307W        W69075   8.700   4.773  11.913
 5308W        W69076  16.179   6.297   3.678
 5309W        W69077   0.283  13.617  12.069
 5310W        W69078  41.810  12.252   3.358
 5311W        W69079  30.450  34.091   4.273
 5312W        W69080  35.913  26.188  12.093
 5313W        W69081  26.955  12.203  11.571
 5314W        W69082   2.280   6.251  14.428
 5315W        W69083  40.049  30.419   0.252
 5316W        W69084  11.768  14.204   3.198
 5317W        W69085  44.992  15.618   4.287
 5318W        W69086  13.821   1.407  12.553
 5319W        W69087  22.084  18.737  13.869
 5320W        W69088  18.718  22.135   4.621
 5321W        W69089  42.795  31.898   2.852
 5322W        W69090  21.538  20.725  12.396
 5323W        W69091  39.554  16.225   0.842
 5324W        W69092  29.585   4.905  12.065
 5325W        W69093  36.460  24.561   0.877
 5326W        W69094   2.242  31.005   4.832
 5327W        W69095  17.074   0.857  11.080
 5328W        W69096   8.263  33.913  11.043
 5329W        W69097  12.771  29.532   3.702
 5330W        W69098  20.594  32.396  14.770
 5331W        W69099  28.159  43.502   1.225
 5332W        W69100  35.434  37.845   2.736
 5333W        W69101  25.655  34.100  11.483
 5334W        W69102   4.726  32.616  14.287
 5335W        W69103  34.973  32.040  11.493
 5336W        W69104  22.076   1.968  11.458
 5337W        W69105   9.876   5.857   2.236
 5338W        W69106  30.999  27.457   2.740
 5339W        W69107  42.021  35.529   4.749
 5340W        W69108  24.154  28.561   3.254
 5341W        W69109  34.879  11.712   3.165
 5342W        W69110  36.850  29.476  12.960
 5343W        W69111  36.966  37.933   2.722
 5344W        W69112  15.809  18.770   5.227
 5345W        W69113  36.396  43.326  14.476
 5346W        W69114  17.661  14.801  11.561
 5347W        W69115  15.652  33.479   5.211
 5348W        W69116  29.014  41.805   3.180
 5349W        W69117  26.516  22.703  12.827
 5350W        W69118   2.734   6.240   1.345
 5351W        W69119  25.565  29.094  10.585
 5352W        W69120  39.898  16.787  14.804
 5353W        W69121  29.462  21.646   3.325
 5354W        W69122  33.396   3.257   1.815
 5355W        W69123  17.142   6.700  11.594
 5356W        W69124  41.510  35.541   4.744
 5357W        W69125  25.125  29.562  11.950
 5358W        W69126  23.566  20.244  14.793
 5359W        W69127  18.226   1.892   1.861
 5360W        W69128  36.510  26.168   4.207
 5361W        W69129  23.696  25.668  10.481
 5362W        W69130  28.988  39.915   2.282
 5363W        W69131  22.126   2.785  13.485
 5364W        W69132  38.912  37.901   2.709
 5365W        W69133   9.828  30.430  13.888
 5366W        W69134   6.722  31.626   1.276
 5367W        W69135  26.693  38.388   1.331
 5368W        W69136  25.006  29.629   3.732
 5369W        W69137  20.120  27.041  11.577
 5370W        W69138   6.813  13.154   2.407
 5371W        W69139  30.150  18.670   4.167
 5372W        W69140  37.853   8.895   1.781
 5373W        W69141  17.781  26.596   4.267
 5374W        W69142  16.619  24.071  13.328
 5375W        W69143   3.397   1.465   4.322
 5376W        W69144  29.940   5.756   3.649
 5377W        W69145  32.099  11.771  11.952
 5378W        W69146  27.606  42.829  12.994
 5379W        W69147  13.267  23.014   4.349
 5380W        W69148   4.740  27.137  14.381
 5381W        W69149  42.519  42.853   1.729
 5382W        W69150   6.285  13.751  11.875
 5383W        W69151  35.446  34.543  11.595
 5384W        W69152  42.462   4.818   1.379
 5385W        W69153   8.270  35.913  13.363
 5386W        W69154  31.094  26.498  14.463
 5387W        W69155  22.031  28.525   0.404
 5388W        W69156  44.329  44.982  13.051
 5389W        W69157   0.289  25.554  13.039
 5390W        W69158  22.654   0.338   0.425
 5391W        W69159   5.247  27.473   0.885
 5392W        W69160  24.721  23.715  11.054
 5393W        W69161  28.104  14.825  11.020
 5394W        W69162  25.643  12.288   3.281
 5395W        W69163  25.023  40.341  13.542
 5396W        W69164  21.023  13.331  14.845
 5397W        W69165  16.641  36.447  13.371
 5398W        W69166  25.479   7.740   3.790
 5399W        W69167  22.073  43.342  11.052
 5400W        W69168  19.097  41.377   3.862
 5401W        W69169   6.371  14.615  11.016
 5402W        W69170  39.347   6.254  13.968
 5403W        W69171  43.286  20.089  14.424
 5404W        W69172  12.340  44.465  10.976
 5405W        W69173  27.195  11.364   2.326
 5406W        W69174   9.782  39.455  12.040
 5407W        W69175  13.236  29.473   3.859
 5408W        W69176   7.826  19.191   2.785
 5409W        W69177  38.408   4.262   2.761
 5410W        W69178  14.136  39.827  14.502
 5411W        W69179  21.099  12.740   1.765
 5412W        W69180  14.678  28.126   4.212
 5413W        W69181   6.329   9.747   1.364
 5414W        W69182   0.748  10.221   1.313
 5415W        W69183   2.342  18.188  11.444
 5416W        W69184  21.559  35.516   3.771
 5417W        W69185  30.479  13.653   3.755
 5418W        W69186   0.264  18.255   3.757
 5419W        W69187   2.298   7.884  11.438
 5420W        W69188  24.582  25.517   0.402
 5421W        W69189   0.919  31.972  10.431
 5422W        W69190   5.875  21.743  14.967
 5423W        W69191  32.928  29.003   2.223
 5424W        W69192   2.385  42.478   0.772
 5425W        W69193   3.318  17.249   0.352
 5426W        W69194  37.996  37.578   1.385
 5427W        W69195  30.944  40.944   2.828
 5428W        W69196  44.854  35.481  12.928
 5429W        W69197   2.790  14.263   0.380
 5430W        W69198  18.091  35.866   9.538
 5431W        W69199   4.243  30.993   0.810
 5432W        W69200  21.222  39.366  14.797
 5433W        W69201  29.996  18.183  12.908
 5434W        W69202  11.824  10.337  12.941
 5435W        W69203   9.379  44.399  14.915
 5436W        W69204  15.710  40.883   2.210
 5437W        W69205  43.307   8.694   2.204
 5438W        W69206  18.222  25.593   3.304
 5439W        W69207   6.866  38.926   0.908
 5440W        W69208  16.713  34.599   2.788
 5441W        W69209   4.373  29.002   4.710
 5442W        W69210  26.054  12.260  12.577
 5443W        W69211  19.583  15.193   3.285
 5444W        W69212  26.067   8.785   0.369
 5445W        W69213   7.213  17.588  13.445
 5446W        W69214   9.767  42.440  11.590
 5447W        W69215  25.084  17.630   0.885
 5448W        W69216  39.469   3.749   2.246
 5449W        W69217  31.638  21.626  14.981
 5450W        W69218  39.063   3.713  12.356
 5451W        W69219   2.889  36.966   2.823
 5452W        W69220  39.363  42.351   0.346
 5453W        W69221  40.958  44.372   2.386
 5454W        W69222  18.617  12.190  10.450
 5455W        W69223   3.427   8.854  12.442
 5456W        W69224  28.976  27.022  13.316
 5457W        W69225  31.900  11.816  13.990
 5458W        W69226   2.471  37.433  10.055
 5459W        W69227  15.261  28.081   0.268
 5460W        W69228   5.426   7.289   4.123
 5461W        W69229  16.250  10.792   1.277
 5462W        W69230  40.473   3.882   3.189
 5463W        W69231  26.481  23.986  13.478
 5464W        W69232   4.246  10.374   4.794
 5465W        W69233   8.810  40.849  10.444
 5466W        W69234  40.350  10.866  14.504
 5467W        W69235  34.489  33.475   4.761
 5468W        W69236   5.887  12.276   0.890
 5469W        W69237  17.105  20.223   3.223
 5470W        W69238  29.170  36.894   1.341
 5471W        W69239  44.480  24.046   0.326
 5472W        W69240  13.792  38.065  11.121
 5473W        W69241   2.892   9.803  13.042
 5474W        W69242  12.848  43.464  14.781
 5475W        W69243  23.641  30.592   4.309
 5476W        W69244  17.108   1.795   4.735
 5477W        W69245  35.064  15.758  11.514
 5478W        W69246  39.489  18.126  12.056
 5479W        W69247  38.927   0.375   2.728
 5480W        W69248  44.415   5.227  13.439
 5481W        W69249  24.205   2.445   1.390
 5482W        W69250  29.490  11.331  11.087
 5483W        W69251  16.263  44.445   0.446
 5484W        W69252  26.089   7.666  11.562
 5485W        W69253   7.702  35.402  14.482
 5486W        W69254  28.613   9.300  12.562
 5487W        W69255  24.660  39.064   3.789
 5488W        W69256  34.428   4.860   4.597
 5489W        W69257   9.725  21.579   0.900
 5490W        W69258  27.976  44.336   3.644
 5491W        W69259  22.651  20.643  10.897
 5492W        W69260   1.248  26.125  10.599
 5493W        W69261  15.682   5.371   1.928
 5494W        W69262  17.112   5.748   9.985
 5495W        W69263  17.570  42.413   4.171
 5496W        W69264  20.226   5.735  10.596
 5497W        W69265  20.751  35.559  12.970
 5498W        W69266  11.372  21.670  11.955
 5499W        W69267  41.436  21.104  13.337
 5500W        W69268  42.865  33.026  12.013
 5501W        W69269  38.388  34.043  13.469
 5502W        W69270   9.382  22.693  10.525
 5503W        W69271   4.340  20.126  13.453
 5504W        W69272  44.952   4.385   3.714
 5505W        W69273  14.832  40.839  12.501
 5506W        W69274  43.908  25.707   1.431
 5507W        W69275   5.800  44.940   3.829
 5508W        W69276  26.567  23.018  13.968
 5509W        W69277   9.347   1.386  12.385
 5510W        W69278  22.056  31.567  14.787
 5511W        W69279  36.007  16.733   0.920
 5512W        W69280   3.427   9.298  11.073
 5513W        W69281  14.791  10.254   3.729
 5514W        W69282  26.509  10.211  12.018
 5515W        W69283  34.092  12.359  14.813
 5516W        W69284  29.561  44.412   3.279
 5517W        W69285  32.417  24.691  12.377
 5518W        W69286  14.752  31.071  12.573
 5519W        W69287  12.667  16.264  12.494
 5520W        W69288   2.932  30.931   0.298
 5521W        W69289  34.894  30.125   0.900
 5522W        W69290  28.005  43.339  11.540
 5523W        W69291   3.331  40.413  14.458
 5524W        W69292  36.365  36.040   3.335
 5525W        W69293   1.446  16.591  13.026
 5526W        W69294   5.240   7.847   2.310
 5527W        W69295  34.969  29.979   3.371
 5528W        W69296   1.865   6.407  11.563
 5529W        W69297   5.354   5.898  14.772
 5530W        W69298   7.398  39.523  11.444
 5531W        W69299  26.157  27.503  13.399
 5532W        W69300   0.433  19.071   2.789
 5533W        W69301  32.515  11.739   2.679
 5534W        W69302  31.096  17.778   2.707
 5535W        W69303  35.493  44.441   4.729
 5536W        W69304  17.743  37.055   0.830
 5537W        W69305   3.408  38.361   1.310
 5538W        W69306   2.750  25.184   2.241
 5539W        W69307  15.144  29.113  12.548
 5540W        W69308  43.937   2.411  11.053
 5541W        W69309  28.069  39.884   1.780
 5542W        W69310  25.051  26.103  14.349
 5543W        W69311  44.896  34.464  10.463
 5544W        W69312  25.199   1.833  11.122
 5545W        W69313  17.288  39.445   1.409
 5546W        W69314  33.415   0.923   5.153
 5547W        W69315   3.835  13.686  14.895
 5548W        W69316  30.654  34.597   1.699
 5549W        W69317  15.182  14.747  12.358
 5550W        W69318   6.760  10.178  14.978
 5551W        W69319   9.359  31.036  13.993
 5552W        W69320  44.899   4.735   1.401
 5553W        W69321  37.036  15.160  13.040
 5554W        W69322  38.073  30.575   3.762
 5555W        W69323  13.603  16.318   4.306
 5556W        W69324   5.261  20.535  12.889
 5557W        W69325   6.401  31.567   3.730
 5558W        W69326   4.868  28.646   3.227
 5559W        W69327  10.306  29.101   0.769
 5560W        W69328  13.179  26.147  10.523
 5561W        W69329  35.054  28.471  13.054
 5562W        W69330  14.739   7.374   2.710
 5563W        W69331  42.817  31.510   3.319
 5564W        W69332  37.531  19.155  11.393
 5565W        W69333  32.126  43.274  13.545
 5566W        W69334   1.279  33.500  13.882
 5567W        W69335   2.904  20.603  13.871
 5568W        W69336  39.902  26.701   1.762
 5569W        W69337  41.832  44.298  14.357
 5570W        W69338  31.502   2.280  11.106
 5571W        W69339  27.066  35.046  12.991
 5572W        W69340  12.739   4.252  10.534
 5573W        W69341  20.734  35.895  12.977
 5574W        W69342  36.922  10.846   4.719
 5575W        W69343  19.121  38.987  10.475
 5576W        W69344  37.494  32.009  12.484
 5577W        W69345  15.757  11.233  12.885
 5578W        W69346  29.657  39.542   0.851
 5579W        W69347  21.613  44.438  13.493
 5580W        W69348  11.322  29.493   4.814
 5581W        W69349  15.172  23.023   1.790
 5582W        W69350  25.182  42.942   3.666
 5583W        W69351  36.072  29.060  10.984
 5584W        W69352  30.952  25.519  11.520
 5585W        W69353  32.410  10.729   2.800
 5586W        W69354  36.442  23.065  14.289
 5587W        W69355  11.722  32.397   1.246
 5588W        W69356  14.626  13.243  13.313
 5589W        W69357  21.212   3.336   0.756
 5590W        W69358  38.353  34.069  10.409
 5591W        W69359   3.282  14.692  14.329
 5592W        W69360  29.971  32.412   3.636
 5593W        W69361  18.164  36.516  10.546
 5594W        W69362  24.112  28.655   3.837
 5595W        W69363   7.306   8.782   4.649
 5596W        W69364   1.824  25.101   2.884
 5597W        W69365  32.023  43.391   3.241
 5598W        W69366  32.056  11.796   0.779
 5599W        W69367  24.210  34.478   4.228
 5600W        W69368  13.769  11.191   4.648
 5601W        W69369  40.797  37.879   3.635
 5602W        W69370  37.399  23.698  10.946
 5603W        W69371  43.500   4.301  13.337
 5604W        W69372   3.788   9.884  11.884
 5605W        W69373  25.129   7.697  12.570
 5606W        W69374  25.614  41.931  12.997
 5607W        W69375   2.771   1.447  13.845
 5608W        W69376  19.158  35.425  11.398
 5609W        W69377  26.984  34.603   0.746
 5610W        W69378   7.844   7.413  14.438
 5611W        W69379  29.430  27.484  12.987
 5612W        W69380   0.957  44.352   2.315
 5613W        W69381  19.656  34.109  11.415
 5614W        W69382  39.999   2.954   4.785
 5615W        W69383  23.620  27.974   1.303
 5616W        W69384  23.562  12.743  11.537
 5617W        W69385  10.666  44.321   1.745
 5618W        W69386  26.526  22.621   0.372
 5619W        W69387  18.176   8.308  12.544
 5620W        W69388  39.530  10.337  11.403
 5621W        W69389  11.153   8.708   2.784
 5622W        W69390  33.963   8.675   2.210
 5623W        W69391  24.209  31.632   2.370
 5624W        W69392  11.621  30.428   1.247
 5625W        W69393  31.080  26.681  12.427
 5626W        W69394  42.327   9.672  14.913
 5627W        W69395   1.417  38.460   1.847
 5628W        W69396   0.380   6.806  12.476
 5629W        W69397  29.974  21.107   3.376
 5630W        W69398  40.981  13.810  14.861
 5631W        W69399  41.797  42.338  10.620
 5632W        W69400   4.882  38.843  10.466
 5633W        W69401  43.968  16.317  11.053
 5634W        W69402  22.696  26.495  10.492
 5635W        W69403  12.689  32.607   0.943
 5636W        W69404   5.810  17.725   4.773
 5637W        W69405  10.278  44.327   4.209
 5638W        W69406   0.385   5.272  10.587
 5639W        W69407   6.307  17.209  14.831
 5640W        W69408  33.125  38.856   3.352
 5641W        W69409  28.013  17.610  11.585
 5642W        W69410  14.592  42.526   4.796
 5643W        W69411  10.736  35.097  11.910
 5644W        W69412  29.554   3.332  13.005
 5645W        W69413  22.137   9.864  10.569
 5646W        W69414  44.905  11.135  10.949
 5647W        W69415  29.148   9.202   0.904
 5648W        W69416  39.322  27.048  10.607
 5649W        W69417   4.208  15.160   2.895
 5650W        W69418   1.395  43.297   3.197
 5651W        W69419  23.505  27.172   0.313
 5652W        W69420  38.046  15.306   3.670
 5653W        W69421  38.015   7.413   0.911
 5654W        W69422  15.626   5.882  12.971
 5655W        W69423  26.605  15.579  10.564
 5656W        W69424  39.339  31.013  11.371
 5657W        W69425  27.455  39.979   4.649
 5658W        W69426  14.609  23.653  12.351
 5659W        W69427   8.353  28.603  13.326
 5660W        W69428  43.427  19.708  13.546
 5661W        W69429  29.529   1.252   4.207
 5662W        W69430  23.122  28.050  11.409
 5663W        W69431  13.785  35.056   3.197
 5664W        W69432  15.806  36.469  13.921
 5665W        W69433  12.690  12.296   1.429
 5666W        W69434  34.965  17.698   1.779
 5667W        W69435  33.464   7.240   3.162
 5668W        W69436   7.243  14.826   1.355
 5669W        W69437  15.738  23.576   1.316
 5670W        W69438   8.271  23.646  12.375
 5671W        W69439  43.861  25.005   2.762
 5672W        W69440  29.109   5.772   4.720
 5673W        W69441  12.130  11.856   1.387
 5674W        W69442  21.566  15.329   4.193
 5675W        W69443  32.088  43.510  11.880
 5676W        W69444   7.284   2.414  14.986
 5677W        W69445  27.688   2.386   2.663
 5678W        W69446  24.989  41.861  13.867
 5679W        W69447  13.316  34.453  11.508
 5680W        W69448  37.004  16.075   4.203
 5681W        W69449  13.812  35.563   4.291
 5682W        W69450  28.501  19.593  14.346
 5683W        W69451  18.557  20.198   3.172
 5684W        W69452  24.631  25.554  14.796
 5685W        W69453  43.800  36.022   0.298
 5686W        W69454  27.515   9.237   2.289
 5687W        W69455  17.751  30.609   3.848
 5688W        W69456  14.210   6.351  12.491
 5689W        W69457  23.526  15.679   2.216
 5690W        W69458   6.271  31.630   4.613
 5691W        W69459  25.481  12.117  11.592
 5692W        W69460  17.153  40.872   2.810
 5693W        W69461  15.090  36.493   1.210
 5694W        W69462   8.679  35.989   4.802
 5695W        W69463  42.959   1.936  11.541
 5696W        W69464  41.523  11.228   2.266
 5697W        W69465   6.872  33.053  12.972
 5698W        W69466  21.037  43.866   4.599
 5699W        W69467   9.694   7.327   2.343
 5700W        W69468  35.091  36.495   0.740
 5701W        W69469  39.439   1.792  13.409
 5702W        W69470  22.643  15.667  14.776
 5703W        W69471  21.548   4.287   1.713
 5704W        W69472   7.895  14.175   0.898
 5705W        W69473  14.833   0.479   1.428
 5706W        W69474  33.604  40.909  14.444
 5707W        W69475   8.685  15.699   2.360
 5708W        W69476  12.782  14.773  13.374
 5709W        W69477  37.925  44.784  13.862
 5710W        W69478   0.281  29.100   3.759
 5711W        W69479  14.243  22.659   1.798
 5712W        W69480  39.344   1.750   4.242
 5713W        W69481  17.165  37.581   0.810
 5714W        W69482  16.240  23.585  11.101
 5715W        W69483   0.413  28.604  11.535
 5716W        W69484   7.707   2.405   0.352
 5717W        W69485  26.986  26.122   3.221
 5718W        W69486  18.672  25.124   3.284
 5719W        W69487  37.380  24.018  14.886
 5720W        W69488  17.083  30.159  11.415
 5721W        W69489  18.690   9.783   4.125
 5722W        W69490  40.987  26.205  13.522
 5723W        W69491  37.932  35.991   5.120
 5724W        W69492  35.036  13.149  11.604
 5725W        W69493   2.262  11.165   4.781
 5726W        W69494  31.572  32.559   2.303
 5727W        W69495   2.462  11.803  12.913
 5728W        W69496  20.729  30.002  12.517
 5729W        W69497   9.738  27.628   2.231
 5730W        W69498   1.783  15.686   1.762
 5731W        W69499  39.457   4.269   3.190
 5732W        W69500  13.663  43.504  13.997
 5733W        W69501  26.962  23.138  13.987
 5734W        W69502  33.523   5.345   3.685
 5735W        W69503   2.431  30.485   4.153
 5736W        W69504   6.399   3.242   3.304
 5737W        W69505  15.582  41.339  13.402
 5738W        W69506   1.417  35.597   3.755
 5739W        W69507  31.569  24.022  12.581
 5740W        W69508  35.538  25.022   1.387
 5741W        W69509   0.744  21.255   9.999
 5742W        W69510   7.776  37.419   2.902
 5743W        W69511  38.976   1.445   3.156
 5744W        W69512  26.673  34.427   0.438
 5745W        W69513   7.814   1.374  13.493
 5746W        W69514   6.873   4.322  13.928
 5747W        W69515   7.339  38.860   4.327
 5748W        W69516   0.804   3.371  14.776
 5749W        W69517  42.472  31.624  11.055
 5750W        W69518  20.252  41.862   2.778
 5751W        W69519  33.894  17.272   3.170
 5752W        W69520  26.683  29.614   1.869
 5753W        W69521  20.763  33.908   0.343
 5754W        W69522  25.134  41.411  12.365
 5755W        W69523   5.728  26.582   1.839
 5756W        W69524  29.509  14.777  11.573
 5757W        W69525  25.621  10.223   5.242
 5758W        W69526  13.217   4.265   1.834
 5759W        W69527  40.837  36.045   3.837
 5760W        W69528  43.381  30.464   2.364
 5761W        W69529   8.709  44.932  13.883
 5762W        W69530  20.572  21.018  10.602
 5763W        W69531  29.663  29.082   9.932
 5764W        W69532  13.115   0.835   4.618
 5765W        W69533  11.363   4.257   4.743
 5766W        W69534  36.025  15.792  11.554
 5767W        W69535  16.252   1.893   3.659
 5768W        W69536  40.399  25.994  10.579
 5769W        W69537  22.655  44.836  14.275
 5770W        W69538  44.463   6.235  14.476
 5771W        W69539  25.513  35.895  12.966
 5772W        W69540  30.114  31.507   1.910
 5773W        W69541  30.651  33.433   0.917
 5774W        W69542  33.091  25.607   0.267
 5775W        W69543  20.153  41.028   4.268
 5776W        W69544  13.152  31.997   2.206
 5777W        W69545  21.656  44.467   3.674
 5778W        W69546  37.486  10.845   3.688
 5779W        W69547  25.015  35.020   2.387
 5780W        W69548  26.581  40.428  12.061
 5781W        W69549  22.693  25.139  12.987
 5782W        W69550  30.121  32.098  11.021
 5783W        W69551  11.286  42.353  10.628
 5784W        W69552   3.303   7.866  12.925
 5785W        W69553  17.601  18.703  11.457
 5786W        W69554  33.415  18.233   2.380
 5787W        W69555  38.934  22.094  13.479
 5788W        W69556  26.086  39.507   1.217
 5789W        W69557  32.054   8.730  12.016
 5790W        W69558  24.194   5.730  13.545
 5791W        W69559  13.259  18.736  14.321
 5792W        W69560  37.395   6.715  14.348
 5793W        W69561  13.130  38.383  14.902
 5794W        W69562  28.479  13.609  11.125
 5795W        W69563  26.024  27.166  10.498
 5796W        W69564  28.096  25.618  13.508
 5797W        W69565  10.701   8.707   2.394
 5798W        W69566  16.243  14.779   3.381
 5799W        W69567  42.357   8.842   3.786
 5800W        W69568   9.644   4.443   1.810
 5801W        W69569  15.196  35.984  14.011
 5802W        W69570  15.220  12.852  13.387
 5803W        W69571  27.032  16.271  14.331
 5804W        W69572   1.846  25.604   4.171
 5805W        W69573  36.464  11.633   0.482
 5806W        W69574  40.893   1.244   0.852
 5807W        W69575  22.711  44.758   1.708
 5808W        W69576  12.180  26.605   3.279
 5809W        W69577  21.681  15.652  10.504
 5810W        W69578   9.764   1.936   1.403
 5811W        W69579  35.482  14.659   1.836
 5812W        W69580  42.800  35.485   4.679
 5813W        W69581   7.227   3.417   9.933
 5814W        W69582  23.127  30.052   0.257
 5815W        W69583  36.870  19.236  10.582
 5816W        W69584  36.581   0.767   1.890
 5817W        W69585  39.359  39.841   3.784
 5818W        W69586  29.606  37.390   1.838
 5819W        W69587  28.172  10.876   3.757
 5820W        W69588   5.367  15.614   3.749
 5821W        W69589   4.752  37.533   2.199
 5822W        W69590  43.021  21.258  14.933
 5823W        W69591  40.362  25.056  13.974
 5824W        W69592   6.881  22.608   4.810
 5825W        W69593  11.657  23.618  10.967
 5826W        W69594   7.178  11.812   1.723
 5827W        W69595   5.787  29.553   2.829
 5828W        W69596  42.409  21.642   2.675
 5829W        W69597   9.149  23.554  13.498
 5830W        W69598  11.703   8.866   9.986
 5831W        W69599   6.706   9.380  12.954
 5832W        W69600  42.501  10.835   4.342
 5833W        W69601  39.379  20.214   4.142
 5834W        W69602  11.145  44.438   0.802
 5835W        W69603   8.829  24.700   2.201
 5836W        W69604   3.825  40.046  14.310
 5837W        W69605   2.448  25.484   4.715
 5838W        W69606   0.870   0.783  12.578
 5839W        W69607  44.856  41.308   0.852
 5840W        W69608  28.442  38.441   2.693
 5841W        W69609  29.054  29.668  11.898
 5842W        W69610  24.706   7.380   0.458
 5843W        W69611  41.336  22.147   4.330
 5844W        W69612  23.508  13.624   3.753
 5845W        W69613  41.802  20.031   2.802
 5846W        W69614  30.550  31.060  14.460
 5847W        W69615  21.045  24.113   2.262
 5848W        W69616  42.377  37.356  13.371
 5849W        W69617   2.946  22.717   2.202
 5850W        W69618  32.630  14.824  12.524
 5851W        W69619  16.174  38.527  13.861
 5852W        W69620  24.984  22.203   3.239
 5853W        W69621  12.703  38.469   4.824
 5854W        W69622  22.574  27.626   2.741
 5855W        W69623  10.646  40.390  14.392
 5856W        W69624  42.502  43.827  12.370
 5857W        W69625  15.645  36.873  12.904
 5858W        W69626  27.624  27.118  14.764
 5859W        W69627  25.131  36.883  12.977
 5860W        W69628  19.680  33.045  11.394
 5861W        W69629  19.536  24.511   4.779
 5862W        W69630   6.844  37.538   0.817
 5863W        W69631   0.486  42.364   1.707
 5864W        W69632  43.346   2.335  13.995
 5865W        W69633  28.659   8.368  14.006
 5866W        W69634  18.279  39.551  13.391
 5867W        W69635  25.056  31.550  13.968
 5868W        W69636  39.325  30.643  11.965
 5869W        W69637  44.326   2.814  13.455
 5870W        W69638  21.126  31.054   4.770
 5871W        W69639  26.507  25.695  13.022
 5872W        W69640  42.938  33.532  11.876
 5873W        W69641   7.788  44.271   4.683
 5874W        W69642  20.087  14.230   2.266
 5875W        W69643  20.275  30.073   2.893
 5876W        W69644  36.006  35.902  12.528
 5877W        W69645   3.217  21.107  13.930
 5878W        W69646  31.120  37.563   1.447
 5879W        W69647  36.965  14.327  11.503
 5880W        W69648   9.765   4.418  13.475
 5881W        W69649  18.272  23.699   0.908
 5882W        W69650  22.729   6.331  12.340
 5883W        W69651   8.777  33.473  12.095
 5884W        W69652  22.703  20.747   2.282
 5885W        W69653  42.386  34.407  13.845
 5886W        W69654  13.718  18.621  10.010
 5887W        W69655  33.958  40.045  14.005
 5888W        W69656  10.256  17.096   2.821
 5889W        W69657  34.092  42.014   4.616
 5890W        W69658  20.096  33.998  11.917
 5891W        W69659   0.859  13.202   2.361
 5892W        W69660  29.968  18.190   3.847
 5893W        W69661  20.204  22.036   4.668
 5894W        W69662  41.320  37.416   1.369
 5895W        W69663  11.359  44.480  12.395
 5896W        W69664  35.489   5.280  11.002
 5897W        W69665   4.404  17.630  11.573
 5898W        W69666  18.252  27.053  11.503
 5899W        W69667  13.332  14.616   0.359
 5900W        W69668  26.511  36.504   2.702
 5901W        W69669   1.733  27.955  12.537
 5902W        W69670   1.783  19.589  10.416
 5903W        W69671  30.453   6.207  13.922
 5904W        W69672  30.105  15.202  12.858
 5905W        W69673  42.390  31.636  10.620
 5906W        W69674  32.469  23.606  11.435
 5907W        W69675  30.044  33.429   4.315
 5908W        W69676  10.371  44.325   0.816
 5909W        W69677  14.162  37.450  14.421
 5910W        W69678   8.900  43.515   5.116
 5911W        W69679   3.871  11.763   0.934
 5912W        W69680  16.755   2.721  11.508
 5913W        W69681  40.985   1.335   1.452
 5914W        W69682  22.069  10.218   3.310
 5915W        W69683  19.275   6.262   3.839
 5916W        W69684   9.829   3.228  13.419
 5917W        W69685  43.995   3.320  14.803
 5918W        W69686  22.721  20.691  14.970
 5919W        W69687   3.832  38.839  10.923
 5920W        W69688  32.983   7.772   2.867
 5921W        W69689  36.492  14.689   0.312
 5922W        W69690  16.084  12.766  12.828
 5923W        W69691  34.865  42.381  11.123
 5924W        W69692  18.714   5.398   2.267
 5925W        W69693  19.646   6.896  13.438
 5926W        W69694  44.358  31.499   0.928
 5927W        W69695  31.588  20.150  11.958
 5928W        W69696   0.275  19.752   1.729
 5929W        W69697  44.896  37.557  13.950
 5930W        W69698  22.557  17.111   4.774
 5931W        W69699   7.232  44.474   9.968
 5932W        W69700  10.736  39.348  14.869
 5933W        W69701  30.930  33.466   1.222
 5934W        W69702  36.501   4.907   3.728
 5935W        W69703  35.911  19.600   2.774
 5936W        W69704   0.870  14.153  13.959
 5937W        W69705  33.431   9.876  12.865
 5938W        W69706  27.055  23.521  13.832
 5939W        W69707  34.513   9.392  10.412
 5940W        W69708  30.105   5.830  12.355
 5941W        W69709  29.135   9.353  12.827
 5942W        W69710   0.273   1.927   3.213
 5943W        W69711  27.976   5.415  10.949
 5944W        W69712   8.189  22.150   2.205
 5945W        W69713  13.188  43.334   1.335
 5946W        W69714  12.258   2.350  12.432
 5947W        W69715  25.081  41.433  10.931
 5948W        W69716  30.969  40.537   3.809
 5949W        W69717  30.532   7.677   2.208
 5950W        W69718   2.454  23.188  11.909
 5951W        W69719  18.626   7.844   3.274
 5952W        W69720  40.336  21.206  12.071
 5953W        W69721  27.619  22.186   0.479
 5954W        W69722   7.692  24.649  11.482
 5955W        W69723  13.760   1.795   0.805
 5956W        W69724  29.148  27.595   2.745
 5957W        W69725  21.609  26.020  14.312
 5958W        W69726  34.961  42.499   4.794
 5959W        W69727   8.741  33.533   0.736
 5960W        W69728  36.046  36.910   2.885
 5961W        W69729   8.299   0.776   3.312
 5962W        W69730  43.325  19.583   4.347
 5963W        W69731   6.695  19.615   1.354
 5964W        W69732   1.763  21.032  14.841
 5965W        W69733  37.976   8.197  12.831
 5966W        W69734  10.208   9.201   1.234
 5967W        W69735  15.204   4.377   0.288
 5968W        W69736  13.717  39.373   3.322
 5969W        W69737  32.022  32.897  10.068
 5970W        W69738  23.645  24.494   1.906
 5971W        W69739  10.698  38.956   4.716
 5972W        W69740  18.718  37.468  14.941
 5973W        W69741  44.842  16.183  12.028
 5974W        W69742  23.677  33.001   2.755
 5975W        W69743  24.990   9.268  10.951
 5976W        W69744  14.127  24.637  13.539
 5977W        W69745  20.692   3.864   2.775
 5978W        W69746   0.441  16.642  11.979
 5979W        W69747   2.822  34.607  14.291
 5980W        W69748  39.485  29.511  13.937
 5981W        W69749  34.921  42.854  10.907
 5982W        W69750   4.400  40.007   2.204
 5983W        W69751  35.514  20.592   3.788
 5984W        W69752  14.159  36.411   4.214
 5985W        W69753   7.830  44.303   5.200
 5986W        W69754  17.770  21.207  12.370
 5987W        W69755  31.073  20.684  13.529
 5988W        W69756   9.810  18.133  13.390
 5989W        W69757  16.780   8.193   2.283
 5990W        W69758  10.722  19.737  12.953
 5991W        W69759   5.800  41.865   0.941
 5992W        W69760   3.289   8.343   1.880
 5993W        W69761  39.452   5.295   2.887
 5994W        W69762   7.207  33.979   4.637
 5995W        W69763  34.119  44.316   4.768
 5996W        W69764  17.129  23.735   1.381
 5997W        W69765   5.368   8.307  13.989
 5998W        W69766   4.874  13.692  10.511
 5999W        W69767  24.556  36.054  12.343
 6000W        W69768  31.566  18.245  12.985
 6001W        W69769   0.478  20.055   1.806
 6002W        W69770  17.585  42.978   3.326
 6003W        W69771  36.519   1.287  11.593
 6004W        W69772   4.291  40.849  11.562
 6005W        W69773   0.457  15.152  14.297
 6006W        W69774   7.204  32.476  11.127
 6007W        W69775  40.306  17.074  11.025
 6008W        W69776  15.106   9.166   3.205
 6009W        W69777   3.219  36.369  14.482
 6010W        W69778  22.629  43.383  11.910
 6011W        W69779   2.770  36.389  12.452
 6012W        W69780  22.502  38.015  13.399
 6013W        W69781  27.490  20.132  13.876
 6014W        W69782  42.317  11.719  13.936
 6015W        W69783   0.948  34.440  13.814
 6016W        W69784  23.104  30.446  12.042
 6017W        W69785  43.974  15.254  10.963
 6018W        W69786  32.480  15.138   4.167
 6019W        W69787  43.298   0.332  12.920
 6020W        W69788  36.032  16.304  11.552
 6021W        W69789  16.700   1.330   3.744
 6022W        W69790  37.959  11.700  11.493
 6023W        W69791  35.080  30.533  10.981
 6024W        W69792  24.076  40.897   2.186
 6025W        W69793  13.105  18.671   1.291
 6026W        W69794  33.026  19.553   2.399
 6027W        W69795  25.072  16.243  12.846
 6028W        W69796  37.832   4.232  14.938
 6029W        W69797  28.154  32.401   1.930
 6030W        W69798  11.351   8.281  14.774
 6031W        W69799  20.558  11.839  14.821
 6032W        W69800  38.020  34.036  11.428
 6033W        W69801  34.963  34.592  11.607
 6034W        W69802  36.471  14.120  11.570
 6035W        W69803  34.897  39.839   1.705
 6036W        W69804  28.671  30.141   4.733
 6037W        W69805   8.867   2.846   4.135
 6038W        W69806   8.283   2.800  10.613
 6039W        W69807  10.646  21.737  14.357
 6040W        W69808  41.334   5.394   2.783
 6041W        W69809  25.469  32.605   9.986
 6042W        W69810  33.470  15.696   0.764
 6043W        W69811  28.602   0.361   4.826
 6044W        W69812   4.231  26.114   4.347
 6045W        W69813  28.522  33.930   2.417
 6046W        W69814   2.327  14.640  11.411
 6047W        W69815  39.555  23.571   2.703
 6048W        W69816   6.396  37.061  10.960
 6049W        W69817  28.181  23.614   0.747
 6050W        W69818   0.783  31.109  12.566
 6051W        W69819  38.393  20.729  13.547
 6052W        W69820   7.383  33.479  13.913
 6053W        W69821  11.334   5.328   0.309
 6054W        W69822  26.609  31.028   4.836
 6055W        W69823   5.816  15.646  12.865
 6056W        W69824   6.758  19.689   1.779
 6057W        W69825  27.111   1.343  13.819
 6058W        W69826   1.958  13.845   1.406
 6059W        W69827  32.989  20.680  14.874
 6060W        W69828  33.007  41.471   1.698
 6061W        W69829   2.843  23.493  14.406
 6062W        W69830   6.275  14.733   0.391
 6063W        W69831  30.952   5.813   0.847
 6064W        W69832  22.050  27.602  12.357
 6065W        W69833  42.324  27.676   2.683
 6066W        W69834  33.891  38.363  12.002
 6067W        W69835  41.472  27.563   2.866
 6068W        W69836  39.942  32.057   2.883
 6069W        W69837   3.432  14.244   2.716
 6070W        W69838  36.924  18.749   1.242
 6071W        W69839  28.681  25.532  10.991
 6072W        W69840   3.902   7.823   4.268
 6073W        W69841   2.323  28.621  11.424
 6074W        W69842  11.220  14.183   1.803
 6075W        W69843   5.316   8.666   3.328
 6076W        W69844  44.285   1.949   2.394
 6077W        W69845  16.664  32.414  13.061
 6078W        W69846  32.904  25.170  13.796
 6079W        W69847  35.064  42.820  14.369
 6080W        W69848   0.989  17.216   1.819
 6081W        W69849  13.184  22.179  14.977
 6082W        W69850  21.105  22.091  12.545
 6083W        W69851  10.800   1.958  13.045
 6084W        W69852  24.986  11.139  12.074
 6085W        W69853  32.047   3.719  11.507
 6086W        W69854  27.599  10.848   3.378
 6087W        W69855  11.138  18.691   4.707
 6088W        W69856  42.283  18.147  11.872
 6089W        W69857  21.073  15.216   0.844
 6090W        W69858  26.982  41.320   3.812
 6091W        W69859  13.333  17.287  14.275
 6092W        W69860   2.363  41.932  10.641
 6093W        W69861  32.444  17.304  13.026
 6094W        W69862  36.568   6.870  11.484
 6095W        W69863   8.855  18.618  14.812
 6096W        W69864  22.641   3.863   3.767
 6097W        W69865  24.600  19.589  11.440
 6098W        W69866  31.506   6.189   2.761
 6099W        W69867   4.937  19.225   2.357
 6100W        W69868  23.648  42.411  14.289
 6101W        W69869  10.269  25.184   1.211
 6102W        W69870   1.332  18.102  11.108
 6103W        W69871  39.368   9.234   3.374
 6104W        W69872   1.465  44.353  14.890
 6105W        W69873  39.425   2.349  12.052
 6106W        W69874  18.064   4.764   3.633
 6107W        W69875   4.934   5.784   2.687
 6108W        W69876  39.492   4.769  11.582
 6109W        W69877  43.919  10.239  12.999
 6110W        W69878  26.491  44.369  11.425
 6111W        W69879  17.085  12.835   1.304
 6112W        W69880  31.592  27.645   1.902
 6113W        W69881   1.788  43.485   0.752
 6114W        W69882  42.018  31.126  13.318
 6115W        W69883  35.000  35.085  12.089
 6116W        W69884  27.480  39.888   2.310
 6117W        W69885   9.300  14.259  14.868
 6118W        W69886  21.223  29.105  10.958
 6119W        W69887  27.644  10.172   5.187
 6120W        W69888  18.677  35.435   4.113
 6121W        W69889   9.178   7.210   2.692
 6122W        W69890   4.914  16.775  12.056
 6123W        W69891  25.155  21.636   4.224
 6124W        W69892   0.833  17.083   4.314
 6125W        W69893  39.368  36.999  10.502
 6126W        W69894  26.030  34.591   0.454
 6127W        W69895  29.443  44.425  10.934
 6128W        W69896  38.386  25.678   4.134
 6129W        W69897  36.962  36.094   1.755
 6130W        W69898  15.272  15.233   0.317
 6131W        W69899  34.581   6.878   4.737
 6132W        W69900   2.438  27.574  11.465
 6133W        W69901   8.807   8.310   4.777
 6134W        W69902  41.937  13.148  14.802
 6135W        W69903  29.147  11.689  11.456
 6136W        W69904  28.484   6.725   3.791
 6137W        W69905   6.290  28.037  10.071
 6138W        W69906   5.325  38.497   4.282
 6139W        W69907   1.363  32.423  12.998
 6140W        W69908  43.510   0.355   4.230
 6141W        W69909   9.150  11.299   5.246
 6142W        W69910   6.792  17.801   4.739
 6143W        W69911  19.665  16.581   2.828
 6144W        W69912  24.220   8.355  13.058
 6145W        W69913  17.191   6.404   1.785
 6146W        W69914   2.290  27.066  10.958
 6147W        W69915  11.316   7.243   1.387
 6148W        W69916  34.991  32.050  10.464
 6149W        W69917  35.532  11.153  14.457
 6150W        W69918  34.938  27.674   0.731
 6151W        W69919  21.044  11.189  14.923
 6152W        W69920  26.590  13.698  13.052
 6153W        W69921  21.210  38.887  10.635
 6154W        W69922  32.903  22.230   2.190
 6155W        W69923  42.363  33.427   3.366
 6156W        W69924  20.259  12.612  11.053
 6157W        W69925  17.252  41.464  11.407
 6158W        W69926  37.024  25.985  13.322
 6159W        W69927  34.991  18.764   3.632
 6160W        W69928  35.875   4.700  12.840
 6161W        W69929   4.364   6.681   1.702
 6162W        W69930  39.359  40.983  11.429
 6163W        W69931  44.900  18.253  14.911
 6164W        W69932  22.141  28.975  13.054
 6165W        W69933  21.183  29.605  12.947
 6166W        W69934   8.341  17.105   4.193
 6167W        W69935  39.921  36.370  14.401
 6168W        W69936  30.033  41.537  14.832
 6169W        W69937  42.025   7.251  10.955
 6170W        W69938  32.553   9.752  12.536
 6171W        W69939   5.252   7.230  13.476
 6172W        W69940  15.106   0.776   1.448
 6173W        W69941   4.321  35.534   4.123
 6174W        W69942  11.648   3.373  11.947
 6175W        W69943   5.263   9.199  10.597
 6176W        W69944  41.883  17.567  10.983
 6177W        W69945  27.178  43.427   3.180
 6178W        W69946  43.364  18.207   3.158
 6179W        W69947  22.650  11.704   3.694
 6180W        W69948  33.589  26.120   1.261
 6181W        W69949  16.139   9.848  12.871
 6182W        W69950  21.754  13.725  10.887
 6183W        W69951   0.307  40.452   3.280
 6184W        W69952  33.384  21.746   2.821
 6185W        W69953  17.192  43.826   1.265
 6186W        W69954   2.248   2.335  11.121
 6187W        W69955  38.881  41.486   4.329
 6188W        W69956  13.217  22.134   2.350
 6189W        W69957  35.361  32.491   3.226
 6190W        W69958  31.057  26.667  13.833
 6191W        W69959  11.648  20.086   4.699
 6192W        W69960  39.916  31.590   5.177
 6193W        W69961  26.572  39.926   2.392
 6194W        W69962  44.390  32.052  11.994
 6195W        W69963  23.630  21.581   3.354
 6196W        W69964  31.025  39.482   2.785
 6197W        W69965  17.192  37.487  13.383
 6198W        W69966  41.332  40.396  11.977
 6199W        W69967   3.319  19.566  11.444
 6200W        W69968  37.974   8.399  13.965
 6201W        W69969   1.905  40.998  11.114
 6202W        W69970  27.447  41.429  14.905
 6203W        W69971  10.164  34.513  14.406
 6204W        W69972  33.001  32.636   4.339
 6205W        W69973  28.602   5.824  10.974
 6206W        W69974   3.372  36.911   5.200
 6207W        W69975  36.967  22.233  10.988
 6208W        W69976  43.439  18.207   2.860
 6209W        W69977  20.621   9.255  12.945
 6210W        W69978  31.951  39.020  12.427
 6211W        W69979  24.149  25.124   4.810
 6212W        W69980  21.209  36.395   0.428
 6213W        W69981  24.615  29.626   2.722
 6214W        W69982  41.300  28.676   4.280
 6215W        W69983   0.968  30.606   0.290
 6216W        W69984   5.914   8.294   1.350
 6217W        W69985  38.567  43.977   4.254
 6218W        W69986   3.938  10.715   0.439
 6219W        W69987  15.610   4.210   4.280
 6220W        W69988  37.345  40.381  10.529
 6221W        W69989   4.801  34.009   0.474
 6222W        W69990  16.735  21.034   2.896
 6223W        W69991   9.706  20.209  14.958
 6224W        W69992   9.353  10.687  12.093
 6225W        W69993  34.941  32.960   2.696
 6226W        W69994  27.190   6.804   0.920
 6227W        W69995   9.161   5.908   1.444
 6228W        W69996  21.057  18.642  11.896
 6229W        W69997  13.252   1.339  14.850
 6230W        W69998   9.235  25.210  14.427
 6231W        W69999  17.557  23.734   1.837
 6232W        W70000  27.103  14.179   0.256
 6233W        W70001  14.627  18.246   1.437
 6234W        W70002  24.668  43.833  11.926
 6235W        W70003  26.640  37.857   1.912
 6236W        W70004  32.999  10.739  13.486
 6237W        W70005  12.120  32.637   4.274
 6238W        W70006  29.549  34.913  13.895
 6239W        W70007  26.531   9.199  13.932
 6240W        W70008   8.280   2.437   0.293
 6241W        W70009  29.647  26.585   5.237
 6242W        W70010  15.244  17.198   3.268
 6243W        W70011  23.126   3.241  12.961
 6244W        W70012  42.848   8.160  10.583
 6245W        W70013  16.603  33.931  10.583
 6246W        W70014  31.029  41.960   0.822
 6247W        W70015  16.085  26.055  10.947
 6248W        W70016  41.035  25.630  11.454
 6249W        W70017  16.232  42.832  13.033
 6250W        W70018   0.934  11.660  14.851
 6251W        W70019  16.625  29.655   3.362
 6252W        W70020  26.200  33.923  12.954
 6253W        W70021  37.898  35.548   4.631
 6254W        W70022  27.947   4.761   2.228
 6255W        W70023  32.005   1.237   3.737
 6256W        W70024  31.109   8.295   3.682
 6257W        W70025   5.363  19.191  14.422
 6258W        W70026  44.279  44.337   2.841
 6259W        W70027  23.692  22.123  11.517
 6260W        W70028  17.667  19.715   3.802
 6261W        W70029  28.495  28.627  12.343
 6262W        W70030  36.428  16.104   2.746
 6263W        W70031   7.414  25.131   1.927
 6264W        W70032  26.023  10.377  11.126
 6265W        W70033  27.148   9.734   4.816
 6266W        W70034  14.818  18.244   4.809
 6267W        W70035  28.083  35.466  10.069
 6268W        W70036  19.717  29.587   0.444
 6269W        W70037   8.806   3.274  14.356
 6270W        W70038  40.539  25.190  14.394
 6271W        W70039   3.314  32.087  13.539
 6272W        W70040  22.696   0.764   1.897
 6273W        W70041  19.063  25.491  10.501
 6274W        W70042  16.603  34.016   4.721
 6275W        W70043   7.185  34.464  14.298
 6276W        W70044  20.526  19.594  11.395
 6277W        W70045   9.669  31.559  14.817
 6278W        W70046  11.716   7.881  10.532
 6279W        W70047  44.897  37.871   2.720
 6280W        W70048  35.988  10.206   5.120
 6281W        W70049  10.723  13.661   4.759
 6282W        W70050  24.506  39.898   1.339
 6283W        W70051  33.494   3.789   1.303
 6284W        W70052  38.919   9.367   2.358
 6285W        W70053  27.479  29.052   1.335
 6286W        W70054  33.496   5.785  13.427
 6287W        W70055  34.936  15.190   2.344
 6288W        W70056  12.253  38.018  14.869
 6289W        W70057  12.210  10.226   0.893
 6290W        W70058  30.965  40.045  12.956
 6291W        W70059  27.168  26.514   0.386
 6292W        W70060  14.713  22.729  13.889
 6293W        W70061  36.076   2.359  11.550
 6294W        W70062   6.311  18.682  10.611
 6295W        W70063  21.528  31.147   3.332
 6296W        W70064  43.276  29.636   3.816
 6297W        W70065  17.768  36.527   2.762
 6298W        W70066  16.155  29.995   3.155
 6299W        W70067  30.141   5.296  13.949
 6300W        W70068   2.325  30.100   1.348
 6301W        W70069   0.327  30.528  12.874
 6302W        W70070   7.883  21.720  12.502
 6303W        W70071  21.514   0.315   3.147
 6304W        W70072  23.497   1.894   3.319
 6305W        W70073  19.673  23.041   4.743
 6306W        W70074   0.808   9.293   0.447
 6307W        W70075  21.236  40.001  14.476
 6308W        W70076  25.203   1.238  11.103
 6309W        W70077  44.800  18.738   1.313
 6310W        W70078  15.322   5.783   4.154
 6311W        W70079  41.516  38.870   4.788
 6312W        W70080  30.420  39.926   2.358
 6313W        W70081  11.762  25.578  14.372
 6314W        W70082  24.990  18.090   0.383
 6315W        W70083  22.251  37.529  14.449
 6316W        W70084   1.454  11.200   4.329
 6317W        W70085  18.222  34.056  14.442
 6318W        W70086   1.829  20.070  13.428
 6319W        W70087  25.651  44.935  14.332
 6320W        W70088  38.933  34.449   0.456
 6321W        W70089  31.616  16.085   1.827
 6322W        W70090  22.142  22.692  13.868
 6323W        W70091  17.681   9.242   2.764
 6324W        W70092  41.010   4.779   4.778
 6325W        W70093   9.378   4.846  10.126
 6326W        W70094  27.089  26.101  14.500
 6327W        W70095  36.386  30.148  11.869
 6328W        W70096   0.460  29.620  10.527
 6329W        W70097  27.170  18.771   3.733
 6330W        W70098  19.047   2.913   0.310
 6331W        W70099   2.927  25.492  13.446
 6332W        W70100  15.089  19.744   0.343
 6333W        W70101  12.779  38.039   3.180
 6334W        W70102  18.787   7.760   1.855
 6335W        W70103  14.195   8.335  12.962
 6336W        W70104  28.466  39.315   4.273
 6337W        W70105  17.152  23.706  13.520
 6338W        W70106  15.125  19.594  13.995
 6339W        W70107  14.298   4.851  13.851
 6340W        W70108  23.664   6.729   0.438
 6341W        W70109  11.647  22.148   3.842
 6342W        W70110  37.443   7.683   2.377
 6343W        W70111  37.854   3.428   3.342
 6344W        W70112  12.646  29.565  12.569
 6345W        W70113   4.788   4.750  13.543
 6346W        W70114  34.869   8.335   1.918
 6347W        W70115  11.248  22.108  12.009
 6348W        W70116  40.979  23.002   0.451
 6349W        W70117  31.421   4.789   2.708
 6350W        W70118  29.118  19.712   4.139
 6351W        W70119   8.362   2.335  12.496
 6352W        W70120  24.106  42.869  14.883
 6353W        W70121  28.675  41.853  13.025
 6354W        W70122   1.245  34.120  13.413
 6355W        W70123  18.295   2.462  13.486
 6356W        W70124   2.435  30.005   4.216
 6357W        W70125  38.820  15.810  10.043
 6358W        W70126  19.213  23.628  10.584
 6359W        W70127   2.244   0.894  13.355
 6360W        W70128  26.456  39.058  14.482
 6361W        W70129  33.075  19.045   3.735
 6362W        W70130  11.250   7.805   0.782
 6363W        W70131  30.984  30.432   3.839
 6364W        W70132  39.915  13.650  14.278
 6365W        W70133  16.104  36.921   0.875
 6366W        W70134  10.203  35.513   0.820
 6367W        W70135  16.746  24.202   1.334
 6368W        W70136  24.612  11.633   1.235
 6369W        W70137  33.436  11.347   1.699
 6370W        W70138  21.673  43.850  13.368
 6371W        W70139  31.526  39.342  10.904
 6372W        W70140  22.141  19.620  11.575
 6373W        W70141  42.463  26.665   0.845
 6374W        W70142  30.416   4.771  14.345
 6375W        W70143  20.257  21.153  13.876
 6376W        W70144  37.366  37.552   4.297
 6377W        W70145  30.535  18.060  13.480
 6378W        W70146  10.341  12.844   1.355
 6379W        W70147  18.093  33.905  12.341
 6380W        W70148  33.063   1.920   1.392
 6381W        W70149  16.198   7.285   2.210
 6382W        W70150  17.745  21.094  13.314
 6383W        W70151  27.053  18.671   2.882
 6384W        W70152  43.502  44.435   3.805
 6385W        W70153  37.932  39.349  11.909
 6386W        W70154  10.766   7.332   3.734
 6387W        W70155  11.756   6.776   2.240
 6388W        W70156   5.778  44.970  13.815
 6389W        W70157  42.351  28.450  14.831
 6390W        W70158  17.249  20.137  13.887
 6391W        W70159  22.082  15.150  12.929
 6392W        W70160  36.097  19.147   3.788
 6393W        W70161  19.596  30.555   2.860
 6394W        W70162  33.513  18.280  13.820
 6395W        W70163   3.787  39.991  13.798
 6396W        W70164  23.669  42.368  12.443
 6397W        W70165  25.160  37.999  14.301
 6398W        W70166  39.904  15.098   2.715
 6399W        W70167   8.836  16.775  11.607
 6400W        W70168   4.731  24.187   1.698
 6401W        W70169  40.433  21.025   5.229
 6402W        W70170  33.882  41.345   1.842
 6403W        W70171   5.896  14.181   4.654
 6404W        W70172   6.376  39.002  14.934
 6405W        W70173  27.450   1.267   0.425
 6406W        W70174   8.309  20.198   3.664
 6407W        W70175  23.082  40.303  13.331
 6408W        W70176  38.503  40.876   4.717
 6409W        W70177  39.836   1.255  13.540
 6410W        W70178  20.678   7.322   2.311
 6411W        W70179  31.029  14.716  12.443
 6412W        W70180   3.327   3.834  11.100
 6413W        W70181   3.314  11.316   0.819
 6414W        W70182  40.375   6.807   2.713
 6415W        W70183  10.742   1.779   3.273
 6416W        W70184  41.514   1.910  12.411
 6417W        W70185  11.224  25.481  14.917
 6418W        W70186   5.856  35.106  12.003
 6419W        W70187  31.151  41.442   3.651
 6420W        W70188   1.735  11.138   4.606
 6421W        W70189  27.520   8.884  14.360
 6422W        W70190  20.179  14.296   4.779
 6423W        W70191  39.895  19.675   0.943
 6424W        W70192   8.195   8.733   2.832
 6425W        W70193  34.976  31.622   0.440
 6426W        W70194  34.498  25.635  13.823
 6427W        W70195   6.412  28.942  10.962
 6428W        W70196  36.928  28.186  13.425
 6429W        W70197  44.273  44.418   1.784
 6430W        W70198  15.610  43.900  12.958
 6431W        W70199  37.383  21.201   5.114
 6432W        W70200  22.045  44.944  10.479
 6433W        W70201  31.518  37.967  11.455
 6434W        W70202  12.824  28.483  10.623
 6435W        W70203  29.547  33.598   3.836
 6436W        W70204  24.058   0.431  12.000
 6437W        W70205  18.172  28.488   1.292
 6438W        W70206   6.203  34.548   1.260
 6439W        W70207  36.561  32.934  13.532
 6440W        W70208  30.130  22.625   4.777
 6441W        W70209  27.578  42.470  10.514
 6442W        W70210  30.083  35.100   3.263
 6443W        W70211  24.679  14.198  12.866
 6444W        W70212  36.401  26.672   2.273
 6445W        W70213   1.444  22.147   2.849
 6446W        W70214  16.192  37.948  14.888
 6447W        W70215  16.770  19.109  11.026
 6448W        W70216  36.523   8.704   5.249
 6449W        W70217  40.416  44.760  12.550
 6450W        W70218  25.067  29.991   1.855
 6451W        W70219  24.484   6.193  11.567
 6452W        W70220  33.603  38.864   9.943
 6453W        W70221  17.281  37.058  11.053
 6454W        W70222   9.216   4.350   4.812
 6455W        W70223  12.610   4.265  12.871
 6456W        W70224  40.530  24.164   4.310
 6457W        W70225  26.959  29.437  11.895
 6458W        W70226  35.579  38.384  13.863
 6459W        W70227  14.621  41.321   1.930
 6460W        W70228  29.448  32.963  11.502
 6461W        W70229  32.026  23.012   1.709
 6462W        W70230  13.163  40.894   3.197
 6463W        W70231  14.788   5.287  12.067
 6464W        W70232  31.559  20.231   2.708
 6465W        W70233   6.705  42.407   2.254
 6466W        W70234  44.922  21.688  13.905
 6467W        W70235  29.104   4.322  12.026
 6468W        W70236  40.437   7.402  14.957
 6469W        W70237  23.727  26.013  10.449
 6470W        W70238   8.670  10.674  11.567
 6471W        W70239   8.360  42.026   0.290
 6472W        W70240  39.519  15.764  14.476
 6473W        W70241  44.818  39.332   0.433
 6474W        W70242  34.888  25.076  14.962
 6475W        W70243  15.657  43.389   4.307
 6476W        W70244  33.033  26.996  11.880
 6477W        W70245  21.688  15.610   1.220
 6478W        W70246  18.781  41.014  14.868
 6479W        W70247  27.960  25.665   1.238
 6480W        W70248  41.966  29.649  13.995
 6481W        W70249   2.441  12.155   3.842
 6482W        W70250  22.521  35.948   3.284
 6483W        W70251  33.041  36.921  12.574
 6484W        W70252  20.700   7.851  13.866
 6485W        W70253  32.081  19.072  14.794
 6486W        W70254  44.910   2.825   2.664
 6487W        W70255  18.637  23.648   4.655
 6488W        W70256  39.371   8.269   5.304
 6489W        W70257  22.586   9.177   2.890
 6490W        W70258  33.455  19.697   0.914
 6491W        W70259   9.666  37.465   0.770
 6492W        W70260  31.087  33.894   0.825
 6493W        W70261  28.027  36.522  14.836
 6494W        W70262   4.699  34.431   4.195
 6495W        W70263  40.540  24.201  14.963
 6496W        W70264  41.875  31.619  11.022
 6497W        W70265   7.673  37.406  12.050
 6498W        W70266  16.729  18.093   4.805
 6499W        W70267   2.789  32.591   4.230
 6500W        W70268  34.048  39.942   3.704
 6501W        W70269  16.786  43.784   0.767
 6502W        W70270  20.621   7.874  12.921
 6503W        W70271  33.550  11.273   4.294
 6504W        W70272  15.235   3.851  12.845
 6505W        W70273  16.628  35.917  11.106
 6506W        W70274  34.073  15.672  12.882
 6507W        W70275   3.874   3.287   2.400
 6508W        W70276  40.453   4.372  10.621
 6509W        W70277  36.982  43.381  12.422
 6510W        W70278  28.977  10.752  10.986
 6511W        W70279  14.706  11.727   5.161
 6512W        W70280  21.737  12.641   2.718
 6513W        W70281  17.065   2.462  11.908
 6514W        W70282   2.845   0.407  11.524
 6515W        W70283  17.129  35.588   5.189
 6516W        W70284  37.970  13.172   2.184
 6517W        W70285   3.315  21.658   0.960
 6518W        W70286   4.758   8.892   1.767
 6519W        W70287  34.570  11.204  13.837
 6520W        W70288  29.472  13.835  12.939
 6521W        W70289  20.664  29.524   4.219
 6522W        W70290  42.984  44.866  14.292
 6523W        W70291  37.068  13.225  13.519
 6524W        W70292  12.185  34.442   4.624
 6525W        W70293  32.089  32.546   4.801
 6526W        W70294  32.921   6.220   0.831
 6527W        W70295   2.913  25.674  12.407
 6528W        W70296  40.405  18.593   4.252
 6529W        W70297  39.992  18.747  11.996
 6530W        W70298  31.975  23.561   2.717
 6531W        W70299   6.223  23.177   1.448
 6532W        W70300  18.084  29.670   3.867
 6533W        W70301   5.243  26.138  14.341
 6534W        W70302   9.304  23.043   4.302
 6535W        W70303  13.722  16.716  11.862
 6536W        W70304  40.836  21.129   2.191
 6537W        W70305  29.040  23.146  12.358
 6538W        W70306   8.233  14.254   1.713
 6539W        W70307   8.314   4.442  14.382
 6540W        W70308  44.350  26.485  10.976
 6541W        W70309  24.479   3.241  10.435
 6542W        W70310  22.538  31.478  12.386
 6543W        W70311  21.521   7.674   4.283
 6544W        W70312   5.263   8.710   2.876
 6545W        W70313  14.818  44.864  11.423
 6546W        W70314  23.036  28.015   4.208
 6547W        W70315  13.755  17.574   3.183
 6548W        W70316  15.644  22.546   4.801
 6549W        W70317  41.514  18.058   3.819
 6550W        W70318   5.807  31.433  14.447
 6551W        W70319   1.852  42.799   1.708
 6552W        W70320  28.053   7.702   4.613
 6553W        W70321  34.438  41.407  12.043
 6554W        W70322  18.772  30.927   0.421
 6555W        W70323  19.771  44.868   1.815
 6556W        W70324  14.296  33.462   3.182
 6557W        W70325  32.417  10.294   1.697
 6558W        W70326   3.263  29.128   2.729
 6559W        W70327  23.240  40.001  10.557
 6560W        W70328  34.101  26.192   2.302
 6561W        W70329  43.843  21.157   3.185
 6562W        W70330   6.248   6.203  12.971
 6563W        W70331  12.245  12.341  12.514
 6564W        W70332  31.985   2.423   0.410
 6565W        W70333  25.690  30.938  14.877
 6566W        W70334  12.736  22.246  12.854
 6567W        W70335  37.448  12.297   3.209
 6568W        W70336   6.734  36.974  11.027
 6569W        W70337   6.296  44.990   0.751
 6570W        W70338  21.682   4.798   3.844
 6571W        W70339  25.543  43.826  13.010
 6572W        W70340   5.203  37.564   3.678
 6573W        W70341   8.662  34.580   4.655
 6574W        W70342  17.235  41.538   3.735
 6575W        W70343  43.897   2.745   1.914
 6576W        W70344  18.083  40.515   1.771
 6577W        W70345  22.560  39.488  14.835
 6578W        W70346  19.758  38.465   0.312
 6579W        W70347   8.265  23.105   2.855
 6580W        W70348  42.820  39.851  12.981
 6581W        W70349   6.414  18.691   4.761
 6582W        W70350  26.087  15.156  12.029
 6583W        W70351  16.622  35.056   3.282
 6584W        W70352   7.186  42.024  14.366
 6585W        W70353   7.793  43.011   0.850
 6586W        W70354  26.159  39.880  11.534
 6587W        W70355  43.905   3.458  12.919
 6588W        W70356  38.455  40.806   1.359
 6589W        W70357  13.729  12.715   2.726
 6590W        W70358   0.764  17.667   4.173
 6591W        W70359  10.239  37.916   3.771
 6592W        W70360  33.908  24.062  13.860
 6593W        W70361   7.229  27.976   1.339
 6594W        W70362  13.621  11.302   5.677
 6595W        W70363   4.294  33.048  10.554
 6596W        W70364  32.505  25.580   3.239
 6597W        W70365  14.662  18.281   5.762
 6598W        W70366  14.620  19.075   1.338
 6599W        W70367  18.280  38.542   0.311
 6600W        W70368  40.476  11.237  14.308
 6601W        W70369  38.454  33.590  13.803
 6602W        W70370   6.209  44.388  12.354
 6603W        W70371  19.247  40.809   1.743
 6604W        W70372  32.395   8.733   4.783
 6605W        W70373  36.926  25.593  11.441
 6606W        W70374  33.972  25.625  13.962
 6607W        W70375  11.160  37.355  14.379
 6608W        W70376  37.990  38.468   4.611
 6609W        W70377   1.356  18.767   0.302
 6610W        W70378  37.875  11.266   0.438
 6611W        W70379  33.106   3.321  14.767
 6612W        W70380  31.099  21.696   4.178
 6613W        W70381   5.224  32.910   3.346
 6614W        W70382  42.994  40.040  13.894
 6615W        W70383   4.816  36.868   2.236
 6616W        W70384  11.848  33.516   0.340
 6617W        W70385  17.626  26.562   3.370
 6618W        W70386  25.684  20.109  14.887
 6619W        W70387  23.151  25.972  13.428
 6620W        W70388  17.267  21.189  11.463
 6621W        W70389  18.085  42.909   3.642
 6622W        W70390  16.095  31.976  11.585
 6623W        W70391   7.374  37.070   1.231
 6624W        W70392  16.666  23.129   5.769
 6625W        W70393   3.915  40.837   4.771
 6626W        W70394   6.700   4.216  12.362
 6627W        W70395  19.153   8.290  13.033
 6628W        W70396   8.673  10.154   3.283
 6629W        W70397  38.868  25.560  11.561
 6630W        W70398   8.896   8.244   2.284
 6631W        W70399   0.910  16.291   2.377
 6632W        W70400  30.053   0.469  13.342
 6633W        W70401  34.442  18.703   0.902
 6634W        W70402   0.449  19.166  11.057
 6635W        W70403  36.947  10.639   1.855
 6636W        W70404  44.478  31.103  14.478
 6637W        W70405  39.044   6.699  13.362
 6638W        W70406  41.987  43.361   4.670
 6639W        W70407  18.146  18.169   3.193
 6640W        W70408  21.224  37.996  14.991
 6641W        W70409  27.645  25.538   2.688
 6642W        W70410  36.376  35.501   4.176
 6643W        W70411   2.721   6.424  13.812
 6644W        W70412   4.699  25.211   1.445
 6645W        W70413  12.230  25.678   2.327
 6646W        W70414  15.590  28.504   0.759
 6647W        W70415  35.925  33.575  12.862
 6648W        W70416  35.521  31.492  14.391
 6649W        W70417   3.356   8.309  11.440
 6650W        W70418   7.821   8.672   1.387
 6651W        W70419   3.335  21.197   3.381
 6652W        W70420  36.381  26.603  13.912
 6653W        W70421  40.349  13.110  14.475
 6654W        W70422  38.929  26.694  10.984
 6655W        W70423  39.443  40.528   1.401
 6656W        W70424  37.868  23.094   4.231
 6657W        W70425  39.911  17.135  12.055
 6658W        W70426  23.227  22.188  12.849
 6659W        W70427  32.918  35.870   2.733
 6660W        W70428  30.043  41.982  12.876
 6661W        W70429  13.159   3.339  10.980
 6662W        W70430  36.906  10.224   4.189
 6663W        W70431  21.041   4.831   4.702
 6664W        W70432   8.886   2.963   1.258
 6665W        W70433  36.920  12.781   1.217
 6666W        W70434   3.447  33.992  12.878
 6667W        W70435  30.039  38.893  14.496
 6668W        W70436  41.487  39.937   4.132
 6669W        W70437  34.034  20.146   3.634
 6670W        W70438  18.622   9.212  12.489
 6671W        W70439  12.701  35.998  11.943
 6672W        W70440  29.932  30.435   4.805
 6673W        W70441  37.358   7.320  14.418
 6674W        W70442  43.366  31.929  12.929
 6675W        W70443   6.258  27.995   2.871
 6676W        W70444  15.608  11.808  10.462
 6677W        W70445  36.491  16.309   2.399
 6678W        W70446  24.564  25.548  11.419
 6679W        W70447  10.143   5.396   1.238
 6680W        W70448  38.970   8.286   3.370
 6681W        W70449  23.524   5.913  12.963
 6682W        W70450  21.639  34.428  14.825
 6683W        W70451  20.090  32.420   0.851
 6684W        W70452  40.961   7.269   4.278
 6685W        W70453   4.299  31.913   3.154
 6686W        W70454   5.689   5.918   0.275
 6687W        W70455  18.108  34.563   2.751
 6688W        W70456   2.795  32.936   9.661
 6689W        W70457   7.267  26.698  11.450
 6690W        W70458   8.327  28.165  12.406
 6691W        W70459  38.045  12.725  14.009
 6692W        W70460  13.820  25.103   4.634
 6693W        W70461  22.564  10.205  10.074
 6694W        W70462  35.012  23.080  13.962
 6695W        W70463  41.332  18.687  12.442
 6696W        W70464  31.074  24.062   1.338
 6697W        W70465  12.181   2.358   1.776
 6698W        W70466  27.182  13.319  10.525
 6699W        W70467  13.807  44.007  14.840
 6700W        W70468  18.588  19.538  10.411
 6701W        W70469   8.361   0.784   1.772
 6702W        W70470  39.425   3.263   2.241
 6703W        W70471  11.287   2.948   3.383
 6704W        W70472   6.389   1.914  14.827
 6705W        W70473  42.888  14.276   4.199
 6706W        W70474  20.677  23.653   1.920
 6707W        W70475  34.973   0.494  14.493
 6708W        W70476  34.497  32.472  11.507
 6709W        W70477  44.286  35.054   4.753
 6710W        W70478  42.495  40.409  13.371
 6711W        W70479  13.350   5.363   3.634
 6712W        W70480  28.994  38.831  14.786
 6713W        W70481  15.212  21.621   4.715
 6714W        W70482  12.780   8.666  14.473
 6715W        W70483  26.203   8.854  12.462
 6716W        W70484  13.791  24.036   1.728
 6717W        W70485   0.928  43.793  13.923
 6718W        W70486  21.048   0.834  11.019
 6719W        W70487  18.655   4.404  13.425
 6720W        W70488   0.335   6.682   4.664
 6721W        W70489   5.198  12.806   1.738
 6722W        W70490  43.934   5.840  13.457
 6723W        W70491  31.589   3.256   2.682
 6724W        W70492  34.910  11.862   4.611
 6725W        W70493  20.160  36.006  12.971
 6726W        W70494   9.204  27.639  12.400
 6727W        W70495  20.155  29.064  12.377
 6728W        W70496   7.372  40.888   1.730
 6729W        W70497  15.201   5.828  13.836
 6730W        W70498   2.240  15.651  11.604
 6731W        W70499  13.693  41.958  12.911
 6732W        W70500   0.314  14.197   1.237
 6733W        W70501   1.944  42.870   2.742
 6734W        W70502   9.835   9.345   3.366
 6735W        W70503   2.772  42.315   3.343
 6736W        W70504   7.709  23.511  10.017
 6737W        W70505  33.021  26.197  10.908
 6738W        W70506  15.084  44.457  10.524
 6739W        W70507  35.370  22.126  13.015
 6740W        W70508  36.362  34.987  12.008
 6741W        W70509  27.001  42.826   0.296
 6742W        W70510  28.452  38.452  11.454
 6743W        W70511   6.884  39.458  14.982
 6744W        W70512  34.066   6.785   3.253
 6745W        W70513  18.294  26.683   1.415
 6746W        W70514  25.154  21.701   2.900
 6747W        W70515  37.916   7.265  12.966
 6748W        W70516   4.745  26.696  12.368
 6749W        W70517  40.933  28.181   0.784
 6750W        W70518   5.928  19.578  12.932
 6751W        W70519  38.927  19.765   5.121
 6752W        W70520  23.239  28.033   1.845
 6753W        W70521  20.036  36.842  14.482
 6754W        W70522  16.646  21.755   0.731
 6755W        W70523  27.975  35.509  11.443
 6756W        W70524  11.847  19.080   0.472
 6757W        W70525  37.423  32.405  11.539
 6758W        W70526   8.193  33.025  11.478
 6759W        W70527   9.682  10.271  14.283
 6760W        W70528  21.730  14.753  11.962
 6761W        W70529  27.956  41.511   1.839
 6762W        W70530  41.816  44.005   0.467
 6763W        W70531  30.588  29.942   1.414
 6764W        W70532  33.403  36.500   4.671
 6765W        W70533  33.625  41.800  11.462
 6766W        W70534  44.759   3.766  12.939
 6767W        W70535  37.547  42.945  12.550
 6768W        W70536  25.016  43.480   4.651
 6769W        W70537  31.994   0.899   3.807
 6770W        W70538  37.845   0.936   3.717
 6771W        W70539   8.684   2.893   0.465
 6772W        W70540  39.421  23.595  14.970
 6773W        W70541  11.717  38.052  12.001
 6774W        W70542  34.428  32.499  10.538
 6775W        W70543  30.939  20.659   3.247
 6776W        W70544   2.741  21.667   1.309
 6777W        W70545  23.501  32.119   4.771
 6778W        W70546   7.892  41.801   1.303
 6779W        W70547  40.529  34.419   2.273
 6780W        W70548  10.877  36.477   1.333
 6781W        W70549  28.445   3.376  10.446
 6782W        W70550   9.333  21.212  14.836
 6783W        W70551  18.598  40.859  11.500
 6784W        W70552   6.338  37.880  10.975
 6785W        W70553   0.492  20.147  11.893
 6786W        W70554  16.315  31.451   3.637
 6787W        W70555  42.863  16.702  12.005
 6788W        W70556  36.028  29.039   0.260
 6789W        W70557  38.345   1.453   0.964
 6790W        W70558   7.685  29.918  14.383
 6791W        W70559  33.541  40.345   5.314
 6792W        W70560  36.480  18.656   3.642
 6793W        W70561  15.306   0.879   3.643
 6794W        W70562  43.767   0.796   3.347
 6795W        W70563  34.999  31.635  13.347
 6796W        W70564  12.353  22.058   1.721
 6797W        W70565  34.926  35.018   2.326
 6798W        W70566   6.841  22.555  12.096
 6799W        W70567  42.484  35.995   4.268
 6800W        W70568   1.964  33.996  10.888
 6801W        W70569   1.273  31.416   0.315
 6802W        W70570  38.506  41.900   4.718
 6803W        W70571  11.254  32.088   2.292
 6804W        W70572  19.558   9.849   2.333
 6805W        W70573  14.703  11.765  10.898
 6806W        W70574  19.120  26.013   1.255
 6807W        W70575  21.240  17.143   2.355
 6808W        W70576  40.898   7.325  14.761
 6809W        W70577  26.609  23.493   3.216
 6810W        W70578   1.739  17.306   0.431
 6811W        W70579  43.458  22.549  10.584
 6812W        W70580   4.366   6.694  11.411
 6813W        W70581  42.840  42.028   3.167
 6814W        W70582   9.774  14.128  12.479
 6815W        W70583  22.690  21.217  12.929
 6816W        W70584  14.827  26.117  10.467
 6817W        W70585  13.300  17.680  11.512
 6818W        W70586  27.646  33.626   0.274
 6819W        W70587  36.085  26.107  14.850
 6820W        W70588  20.235   3.849   4.673
 6821W        W70589  26.187  23.650   4.352
 6822W        W70590   7.758   0.875  13.043
 6823W        W70591  33.963  22.157  14.967
 6824W        W70592  15.242  26.640   0.341
 6825W        W70593  30.533  41.937  10.985
 6826W        W70594  39.510  10.155   5.252
 6827W        W70595  19.571  19.659   2.754
 6828W        W70596   8.726  34.971  14.873
 6829W        W70597  20.697   8.727  12.547
 6830W        W70598  43.339  40.419  10.953
 6831W        W70599  35.937  38.569   3.827
 6832W        W70600  27.611  29.665   2.193
 6833W        W70601  11.318  26.997   4.113
 6834W        W70602   7.340  33.946   3.263
 6835W        W70603  37.377  40.946  10.978
 6836W        W70604  13.611  36.464   3.704
 6837W        W70605   6.804   0.761  13.929
 6838W        W70606  25.539   3.263  13.350
 6839W        W70607  29.943  21.588   0.954
 6840W        W70608  25.092  37.359  12.564
 6841W        W70609  19.755  15.181  11.090
 6842W        W70610   7.281  35.509   1.398
 6843W        W70611  35.037  31.591  13.806
 6844W        W70612  19.756   4.807  11.537
 6845W        W70613  12.751  40.842   3.354
 6846W        W70614   0.352  32.488   4.263
 6847W        W70615  33.893   0.347   2.763
 6848W        W70616  22.676  32.429  11.412
 6849W        W70617  18.071  42.523  14.452
 6850W        W70618   4.362  29.018   0.932
 6851W        W70619  26.587  36.093  10.132
 6852W        W70620  22.183  33.957   4.159
 6853W        W70621  23.172  41.526  10.898
 6854W        W70622  44.988   4.303  14.346
 6855W        W70623   0.815  28.467   4.311
 6856W        W70624  27.680  34.865  13.390
 6857W        W70625  17.157  31.632  12.004
 6858W        W70626  12.823  43.451  14.307
 6859W        W70627  15.586  12.781  14.887
 6860W        W70628  23.629  37.531  12.417
 6861W        W70629  30.558  23.631  10.455
 6862W        W70630  26.121  25.516   1.865
 6863W        W70631  38.053   1.257   3.245
 6864W        W70632  10.755  41.803  14.805
 6865W        W70633  12.320  20.534  14.464
 6866W        W70634  33.959  16.804   4.327
 6867W        W70635  10.222  30.440   1.922
 6868W        W70636   2.284  29.665  10.940
 6869W        W70637  44.763  17.556   4.125
 6870W        W70638  44.443   8.722  12.471
 6871W        W70639  10.673  19.222  11.949
 6872W        W70640  28.560  35.001  10.044
 6873W        W70641  44.863  37.954  13.444
 6874W        W70642   6.870   5.752   4.296
 6875W        W70643  24.502  29.928   0.266
 6876W        W70644  40.501  16.792  11.103
 6877W        W70645  16.580  15.730   4.649
 6878W        W70646  42.952  19.254   4.598
 6879W        W70647  40.421  28.004  13.792
 6880W        W70648  10.766   1.941  13.368
 6881W        W70649  29.541   4.238   0.772
 6882W        W70650  13.818  44.991  13.802
 6883W        W70651  10.202   3.418   1.849
 6884W        W70652  14.702  12.757   5.267
 6885W        W70653  40.035  28.142   4.113
 6886W        W70654   6.383  33.001   1.292
 6887W        W70655  18.764  13.682  12.078
 6888W        W70656  14.712  21.531  11.923
 6889W        W70657  14.791   6.238  10.940
 6890W        W70658   0.321  38.496  14.004
 6891W        W70659   9.325  41.407   4.812
 6892W        W70660  25.595  35.500   3.806
 6893W        W70661  42.313  25.712   3.684
 6894W        W70662  38.039  24.614  14.968
 6895W        W70663  15.611   2.776   3.660
 6896W        W70664  38.517  10.219   5.781
 6897W        W70665   6.790  23.733   2.226
 6898W        W70666  24.013  25.133   3.297
 6899W        W70667   2.934  35.422  12.861
 6900W        W70668  22.088   7.325   2.771
 6901W        W70669  13.126   1.906  11.423
 6902W        W70670  10.804  10.300   4.604
 6903W        W70671  44.274  19.175  11.424
 6904W        W70672  14.141  12.268   9.466
 6905W        W70673  44.783  26.129   4.825
 6906W        W70674   5.246   5.251  13.405
 6907W        W70675  27.572   7.809   3.343
 6908W        W70676  20.098  36.501   1.388
 6909W        W70677  29.040  29.587  14.512
 6910W        W70678  30.431   8.295   2.806
 6911W        W70679  43.482  20.647  11.488
 6912W        W70680  10.762  38.985  14.767
 6913W        W70681  19.193  19.190   3.175
 6914W        W70682   7.801  24.606  14.355
 6915W        W70683   4.264  14.788   1.340
 6916W        W70684  33.523  22.509  12.997
 6917W        W70685   6.831  39.501   4.677
 6918W        W70686   6.390   4.322   4.316
 6919W        W70687  17.255  29.039   4.154
 6920W        W70688   7.746  35.913  11.055
 6921W        W70689  32.446  20.269   9.938
 6922W        W70690  25.130   4.255  14.829
 6923W        W70691  21.065   3.951   3.180
 6924W        W70692  25.088  38.464   0.859
 6925W        W70693   6.760  29.918  13.013
 6926W        W70694  29.554  22.708   3.794
 6927W        W70695   4.302   8.777  11.911
 6928W        W70696  16.184  11.847   3.808
 6929W        W70697  25.216  15.727  13.885
 6930W        W70698  42.978  37.042  14.295
 6931W        W70699   4.290  10.692   4.201
 6932W        W70700   0.380  38.500  14.853
 6933W        W70701   1.246   8.265   0.346
 6934W        W70702  36.863   4.721   0.782
 6935W        W70703  36.015  25.161  14.991
 6936W        W70704  10.210  10.160   3.657
 6937W        W70705  25.677  41.416  12.544
 6938W        W70706  11.289  24.213  14.857
 6939W        W70707  21.587  38.348  14.506
 6940W        W70708   0.940  31.072  13.973
 6941W        W70709  21.749   8.663  12.439
 6942W        W70710   7.413  33.946   4.296
 6943W        W70711  27.156  19.768   4.773
 6944W        W70712   7.214  17.222   2.862
 6945W        W70713  20.051  26.970   0.848
 6946W        W70714  42.009  30.984   9.531
 6947W        W70715  27.003   1.369   0.243
 6948W        W70716  10.177  12.357   3.380
 6949W        W70717  19.584  19.765   0.413
 6950W        W70718  37.920   0.866  11.128
 6951W        W70719  35.411   8.870   4.139
 6952W        W70720  12.130  32.129  10.482
 6953W        W70721   9.361  10.321  13.870
 6954W        W70722  37.933  27.970   0.392
 6955W        W70723  38.960  34.540   4.337
 6956W        W70724   4.392  20.261  14.887
 6957W        W70725  39.433  16.712  10.571
 6958W        W70726  36.386  34.397  12.507
 6959W        W70727  25.555  17.214  10.045
 6960W        W70728   9.741  31.968   3.247
 6961W        W70729  15.610  43.949   3.335
 6962W        W70730  19.186   9.815  13.411
 6963W        W70731  37.996   4.402   4.299
 6964W        W70732   3.804  21.082  12.371
 6965W        W70733  29.035  37.418   3.690
 6966W        W70734   3.715  14.807  14.434
 6967W        W70735  29.559   5.227  14.781
 6968W        W70736  27.993  33.065  12.444
 6969W        W70737  30.457   7.892  13.394
 6970W        W70738  26.674  31.441   4.126
 6971W        W70739  11.269  43.983  14.978
 6972W        W70740  31.419   5.714   3.661
 6973W        W70741  22.575  42.799  10.983
 6974W        W70742  37.387   3.261   5.206
 6975W        W70743  41.476  33.520  10.925
 6976W        W70744   0.940  37.063  11.506
 6977W        W70745  12.120  15.323   4.240
 6978W        W70746  14.202  20.186  11.992
 6979W        W70747  35.975  16.761  13.408
 6980W        W70748  34.976  37.372  12.519
 6981W        W70749   2.441   9.327   4.116
 6982W        W70750  25.175  26.671   2.815
 6983W        W70751  22.196  14.197  12.024
 6984W        W70752  30.126  31.648  14.387
 6985W        W70753   2.388   9.761  12.559
 6986W        W70754  19.203  17.176   1.773
 6987W        W70755  39.523  42.353  11.915
 6988W        W70756  14.218  44.849  12.507
 6989W        W70757  36.093  15.175  11.582
 6990W        W70758  11.645  22.731   3.205
 6991W        W70759  23.112  25.035   3.635
 6992W        W70760  23.218  19.658  14.336
 6993W        W70761   6.883  38.983  11.429
 6994W        W70762  34.088  39.835  10.920
 6995W        W70763  44.377  21.114  10.469
 6996W        W70764  30.635  28.609  12.853
 6997W        W70765   2.395  10.304   4.799
 6998W        W70766  12.794   8.224  10.516
 6999W        W70767  13.640  22.551  12.839
 7000W        W70768  41.412  41.848  11.063
 7001W        W70769   2.891  39.822  11.077
 7002W        W70770  27.953  24.704   3.275
 7003W        W70771  42.294  43.817   1.876
 7004W        W70772  21.751   2.347   4.602
 7005W        W70773  21.528  31.060  13.535
 7006W        W70774  17.095  33.380   9.649
 7007W        W70775  17.574  20.163   3.188
 7008W        W70776  27.185  19.237   1.307
 7009W        W70777  26.683  36.431   4.310
 7010W        W70778   6.310  42.800  11.083
 7011W        W70779   4.370  21.648   1.832
 7012W        W70780  19.191  15.781  13.890
 7013W        W70781   7.218   5.768  14.480
 7014W        W70782   1.952  35.063  12.017
 7015W        W70783   0.250  16.691   3.217
 7016W        W70784  14.719  32.599   0.374
 7017W        W70785  11.369  17.763   1.911
 7018W        W70786  14.107  38.562   2.202
 7019W        W70787  44.315  18.691  12.977
 7020W        W70788  23.538  13.688   0.451
 7021W        W70789  32.021  12.759  14.372
 7022W        W70790  43.856  22.553   2.832
 7023W        W70791  20.702  29.165   0.881
 7024W        W70792   7.380  39.369   2.872
 7025W        W70793  27.651   1.366  10.566
 7026W        W70794  36.406  24.524  12.093
 7027W        W70795  43.297  31.612   4.196
 7028W        W70796  35.029  10.778  11.965
 7029W        W70797  35.053  22.523   4.119
 7030W        W70798   2.752  31.976   1.849
 7031W        W70799  36.848   3.397  11.511
 7032W        W70800   1.366  43.290  12.362
 7033W        W70801  23.174  39.849   2.747
 7034W        W70802  40.542  43.357  10.982
 7035W        W70803  37.966  21.517   1.843
 7036W        W70804   3.239  19.764   3.693
 7037W        W70805  23.096  18.121   0.248
 7038W        W70806   2.393  21.632   0.344
 7039W        W70807   4.898  41.955  14.297
 7040W        W70808   9.815  13.337   4.175
 7041W        W70809  31.563  21.028   4.600
 7042W        W70810   6.812   9.341  12.454
 7043W        W70811  15.320  32.972  14.447
 7044W        W70812  23.637  30.972  10.544
 7045W        W70813   0.313  44.923   1.911
 7046W        W70814  39.451  43.986  13.311
 7047W        W70815   8.242   0.906  11.903
 7048W        W70816  12.291  34.591   3.266
 7049W        W70817   9.699  27.108   4.795
 7050W        W70818  27.483  18.251   3.674
 7051W        W70819  17.269  33.388   0.275
 7052W        W70820  33.413  19.776  13.957
 7053W        W70821  34.449   8.850  10.924
 7054W        W70822  29.505  17.151  13.022
 7055W        W70823  25.551  37.060   4.620
 7056W        W70824  30.613   7.370  14.362
 7057W        W70825  38.890  30.076  14.979
 7058W        W70826  21.529  37.559  12.869
 7059W        W70827  22.666  21.722   4.161
 7060W        W70828  15.819  30.032   0.383
 7061W        W70829   4.298  16.631  11.916
 7062W        W70830  32.933  23.096   3.844
 7063W        W70831  33.447  15.754   1.380
 7064W        W70832  14.161  27.612  13.880
 7065W        W70833  19.766  33.383   0.730
 7066W        W70834  41.809  12.821   0.286
 7067W        W70835   1.379  39.442  13.806
 7068W        W70836  31.104  31.630  10.450
 7069W        W70837  24.138   6.800  11.063
 7070W        W70838   2.865  16.137   0.909
 7071W        W70839  24.105   4.248  11.073
 7072W        W70840   2.822  25.140  12.546
 7073W        W70841   0.981   0.374   4.620
 7074W        W70842  35.484   5.891   5.583
 7075W        W70843   4.234   4.411   2.679
 7076W        W70844  29.008  37.563   1.327
 7077W        W70845  28.674  24.687  13.527
 7078W        W70846   1.331  11.298   0.248
 7079W        W70847  14.657  22.614   4.321
 7080W        W70848  19.756  25.987  10.971
 7081W        W70849   8.733  33.074  11.019
 7082W        W70850  18.771   7.203  12.959
 7083W        W70851  35.604  37.398   0.952
 7084W        W70852  12.263  34.487  11.451
 7085W        W70853   0.913  25.100  10.981
 7086W        W70854  11.777  21.017   3.166
 7087W        W70855  25.118   4.873   1.860
 7088W        W70856  40.396  23.097   0.427
 7089W        W70857   0.742  22.706  13.948
 7090W        W70858  37.435  21.693   4.323
 7091W        W70859  22.618  39.997  14.861
 7092W        W70860  44.010   1.748  13.883
 7093W        W70861  21.544   2.801   0.420
 7094W        W70862  12.214  31.979  13.826
 7095W        W70863  20.172  34.608   3.790
 7096W        W70864  30.631  36.076  12.562
 7097W        W70865  25.089  21.689  13.022
 7098W        W70866  18.074   8.268   2.246
 7099W        W70867   5.295  13.161  11.438
 7100W        W70868  10.755  15.589  10.560
 7101W        W70869  28.607   4.424   3.264
 7102W        W70870  16.589  29.574  13.897
 7103W        W70871   2.282  10.708   2.371
 7104W        W70872  39.317   4.815   2.252
 7105W        W70873  14.096  14.713   2.393
 7106W        W70874  24.640   2.266   3.321
 7107W        W70875  21.696  38.837   4.232
 7108W        W70876  11.800   2.891  10.545
 7109W        W70877   0.263  16.612   4.263
 7110W        W70878  40.862  24.506   2.689
 7111W        W70879  28.594  36.521  10.590
 7112W        W70880  33.576  34.522  12.043
 7113W        W70881  20.204  39.920   1.899
 7114W        W70882   7.317  29.578   3.169
 7115W        W70883  24.073   1.844   1.284
 7116W        W70884   1.843   2.324  14.978
 7117W        W70885  17.618  11.205  12.865
 7118W        W70886  28.151  38.328  10.028
 7119W        W70887  13.195  16.771  12.858
 7120W        W70888  35.073  25.591   2.218
 7121W        W70889  20.714   5.816   3.303
 7122W        W70890  33.411  32.107   1.920
 7123W        W70891  41.816  28.484   1.315
 7124W        W70892   1.408  14.785   2.740
 7125W        W70893  24.724  14.122   2.348
 7126W        W70894  31.578  17.600   1.342
 7127W        W70895  36.353  14.338   4.231
 7128W        W70896   3.795  25.712  11.056
 7129W        W70897   0.382  11.802   1.433
 7130W        W70898  27.193  25.994  10.621
 7131W        W70899  20.037  40.326  14.981
 7132W        W70900  25.097  19.215  10.936
 7133W        W70901  14.273   2.919  13.373
 7134W        W70902  17.708  24.159   2.850
 7135W        W70903  34.402  30.150   4.765
 7136W        W70904  11.144   1.455  13.977
 7137W        W70905  33.029   0.275   0.431
 7138W        W70906  23.553   8.702  10.931
 7139W        W70907  22.623   8.842  10.575
 7140W        W70908  44.418  23.677  12.842
 7141W        W70909  14.203  21.068  14.512
 7142W        W70910  38.506  25.165  11.528
 7143W        W70911   0.797  42.026   2.326
 7144W        W70912  43.479  31.122  13.447
 7145W        W70913   8.403  42.980   4.222
 7146W        W70914  25.191  40.403  14.295
 7147W        W70915  27.071   6.921   1.426
 7148W        W70916  10.311  40.943  12.902
 7149W        W70917   4.884   0.249   0.327
 7150W        W70918  26.956  13.661   0.897
 7151W        W70919   3.225  44.335   2.731
 7152W        W70920  36.966  24.142  10.969
 7153W        W70921  41.330  26.067  12.095
 7154W        W70922  34.519  17.796   3.159
 7155W        W70923   9.791  11.667   3.840
 7156W        W70924  23.548  34.575  13.913
 7157W        W70925  27.106   8.193   4.812
 7158W        W70926   2.265  28.125   0.770
 7159W        W70927  36.538  16.805  14.927
 7160W        W70928  16.627   4.395   0.307
 7161W        W70929  24.490  13.712   0.886
 7162W        W70930   7.350  25.100   0.939
 7163W        W70931  34.976  40.055  10.149
 7164W        W70932  36.516  26.995  10.935
 7165W        W70933  14.149  11.226  13.926
 7166W        W70934  25.547  17.295   0.878
 7167W        W70935   2.415  44.810  13.393
 7168W        W70936  41.966  40.439  11.530
 7169W        W70937  33.963  35.592   4.224
 7170W        W70938  23.648   6.198   1.246
 7171W        W70939  30.956  12.673  14.874
 7172W        W70940  26.202  29.148  11.896
 7173W        W70941  10.854  16.249  13.792
 7174W        W70942  29.531  43.000  11.883
 7175W        W70943  26.103  26.595   3.662
 7176W        W70944  25.115  36.351   2.192
 7177W        W70945  29.096  13.760   4.234
 7178W        W70946  23.103  19.721  13.872
 7179W        W70947  40.930  33.074  14.957
 7180W        W70948   9.741  31.456   3.809
 7181W        W70949  34.548  32.567  12.566
 7182W        W70950  38.924  32.572   2.183
 7183W        W70951  35.884  10.780  12.352
 7184W        W70952  34.402  30.933   4.714
 7185W        W70953  19.064  39.437  12.862
 7186W        W70954  22.199  32.066   4.199
 7187W        W70955   5.731   3.951  10.974
 7188W        W70956   9.393  35.581   1.894
 7189W        W70957  25.595   5.361  13.854
 7190W        W70958  34.105   6.774   1.926
 7191W        W70959  13.194  11.182   2.757
 7192W        W70960  12.828   2.793  13.332
 7193W        W70961  44.003  13.133   4.772
 7194W        W70962  35.980  26.489  12.345
 7195W        W70963   8.712  43.908  10.913
 7196W        W70964  14.116   8.351   3.151
 7197W        W70965  11.743   9.267   3.275
 7198W        W70966  20.695  28.643   0.303
 7199W        W70967  43.805  11.202  12.420
 7200W        W70968   2.240  11.358   3.782
 7201W        W70969  34.591  23.608   1.347
 7202W        W70970  20.237  41.346   3.821
 7203W        W70971   5.309  11.682  13.834
 7204W        W70972  40.878  22.252  10.584
 7205W        W70973  11.258  41.990  11.548
 7206W        W70974  35.933   2.770   2.406
 7207W        W70975  42.976  22.995   4.174
 7208W        W70976  30.604  17.132  12.841
 7209W        W70977  14.635  27.541  14.843
 7210W        W70978  26.045  34.942   1.841
 7211W        W70979  34.897  33.887   0.755
 7212W        W70980  15.146   8.228   3.804
 7213W        W70981  37.464   2.852   4.275
 7214W        W70982   9.215  32.023  12.861
 7215W        W70983  11.293  14.693   3.155
 7216W        W70984   9.270  30.141  14.851
 7217W        W70985  14.295  43.295   1.698
 7218W        W70986  41.389   0.382  11.895
 7219W        W70987   4.783  41.899  10.508
 7220W        W70988  35.395  42.785   3.233
 7221W        W70989  20.114  40.384   3.308
 7222W        W70990  37.952  19.592  10.534
 7223W        W70991  13.241  43.966   1.716
 7224W        W70992  36.589  31.517   0.472
 7225W        W70993  40.942  20.111   4.290
 7226W        W70994  35.391   7.671  11.964
 7227W        W70995  10.635  30.059   3.290
 7228W        W70996  36.911  38.414  12.535
 7229W        W70997  36.549  40.535  13.409
 7230W        W70998  43.883  23.124  12.347
 7231W        W70999   9.723  29.553   4.734
 7232W        W71000   5.797  26.103   2.767
 7233W        W71001   4.262  35.917  12.878
 7234W        W71002  44.833  26.992  14.376
 7235W        W71003  37.459   3.334   1.894
 7236W        W71004  15.180  25.711  13.441
 7237W        W71005  36.574  12.802  11.900
 7238W        W71006  21.149   3.411  12.986
 7239W        W71007  20.610  32.456   5.106
 7240W        W71008  18.637  39.827  14.000
 7241W        W71009  22.023  35.951   0.425
 7242W        W71010  34.385   7.833  12.088
 7243W        W71011  24.582  34.507   2.383
 7244W        W71012  34.921   6.800  13.375
 7245W        W71013  33.447   7.250  14.429
 7246W        W71014  35.452   8.354   1.866
 7247W        W71015  21.725  44.349   1.269
 7248W        W71016   6.758   9.395  13.928
 7249W        W71017  24.677  43.952   3.252
 7250W        W71018  19.619  43.000   2.840
 7251W        W71019  44.430   8.404  14.900
 7252W        W71020  15.141  22.051   1.927
 7253W        W71021   1.450  14.289   0.845
 7254W        W71022  40.966  29.549   2.714
 7255W        W71023  44.947  25.017  12.518
 7256W        W71024  17.183  32.051   2.835
 7257W        W71025  20.050  15.188  12.508
 7258W        W71026  37.424  26.959   4.597
 7259W        W71027  37.050  20.636  12.463
 7260W        W71028  19.230   1.928  11.535
 7261W        W71029  33.973  42.776  14.949
 7262W        W71030  17.214  27.074  11.899
 7263W        W71031  40.836   3.263  12.065
 7264W        W71032   6.280  19.713  11.038
 7265W        W71033  28.149  24.092  14.001
 7266W        W71034  12.165  22.522   3.157
 7267W        W71035  30.150  19.648   4.207
 7268W        W71036   7.864  29.530   1.857
 7269W        W71037  17.186  23.020  11.430
 7270W        W71038   7.682   2.818   3.766
 7271W        W71039  15.139  23.097   4.306
 7272W        W71040   0.978  41.871  11.573
 7273W        W71041  31.007  12.211   4.186
 7274W        W71042   3.228   5.301   1.729
 7275W        W71043  22.708  30.062  11.526
 7276W        W71044  10.246  13.725   2.288
 7277W        W71045  21.735  41.354   2.714
 7278W        W71046  17.112   2.359  11.575
 7279W        W71047  21.215   0.347  11.507
 7280W        W71048  18.559  38.356  14.916
 7281W        W71049  35.405  12.328  14.371
 7282W        W71050   2.302  15.144   4.252
 7283W        W71051  29.978  36.863  12.077
 7284W        W71052  14.683  34.863   0.299
 7285W        W71053  29.990  39.388   2.711
 7286W        W71054  18.577  13.777  11.558
 7287W        W71055  14.774  35.539   0.763
 7288W        W71056  27.592  19.545   1.438
 7289W        W71057  19.731  20.664   4.327
 7290W        W71058  32.578   6.740   3.683
 7291W        W71059  42.816  34.554   1.850
 7292W        W71060  37.401   5.426   2.406
 7293W        W71061  17.170  42.912   2.771
 7294W        W71062  18.084  44.779   2.740
 7295W        W71063  41.000  36.548  13.041
 7296W        W71064  19.736  25.496   3.743
 7297W        W71065  28.603  32.013  14.477
 7298W        W71066   5.435   1.329  11.376
 7299W        W71067  38.474  41.532   0.272
 7300W        W71068  18.195   3.445  13.396
 7301W        W71069   1.244  37.058  11.547
 7302W        W71070  33.953  44.960   0.785
 7303W        W71071   2.774  33.095   3.756
 7304W        W71072  16.074  20.129   4.687
 7305W        W71073  30.102   1.267   1.409
 7306W        W71074   1.910   5.878  13.981
 7307W        W71075  28.969  30.983   3.636
 7308W        W71076  40.473  44.412  14.942
 7309W        W71077   8.272  31.568   3.846
 7310W        W71078  36.928   1.765   4.161
 7311W        W71079  24.697  15.673  11.413
 7312W        W71080  16.167   5.809   0.270
 7313W        W71081  15.242  21.262   4.173
 7314W        W71082   1.802   3.226  13.378
 7315W        W71083  44.895  36.995   4.321
 7316W        W71084  15.182  42.996  11.116
 7317W        W71085  40.531  41.394  11.037
 7318W        W71086  42.930  29.162   1.767
 7319W        W71087  16.151  31.090   4.664
 7320W        W71088  11.329   1.456  14.455
 7321W        W71089   5.293  18.187  14.024
 7322W        W71090  38.953   1.287   1.757
 7323W        W71091  12.620  36.360   0.907
 7324W        W71092  20.664   9.270  10.409
 7325W        W71093   2.274  30.598  12.016
 7326W        W71094  42.353  44.923   1.412
 7327W        W71095  17.722  28.571  10.435
 7328W        W71096  37.962   2.289   1.750
 7329W        W71097  29.051  21.529  14.916
 7330W        W71098   7.742  28.451   0.380
 7331W        W71099  42.954   5.702   2.683
 7332W        W71100  29.428  22.021  14.982
 7333W        W71101  38.043  19.246   2.182
 7334W        W71102  27.988  11.848  11.089
 7335W        W71103  28.141  19.775  13.475
 7336W        W71104  21.082   5.422   4.256
 7337W        W71105  44.278  20.649  11.592
 7338W        W71106  20.710   7.666  10.634
 7339W        W71107   1.859  12.615   4.740
 7340W        W71108  10.791   4.423   1.891
 7341W        W71109  29.011  21.677  13.432
 7342W        W71110  26.474  40.810  14.373
 7343W        W71111   3.294  42.444   4.680
 7344W        W71112  23.153  42.996   1.437
 7345W        W71113  20.097  22.629   9.965
 7346W        W71114   5.426  35.412  13.986
 7347W        W71115  26.634  11.809  12.437
 7348W        W71116   4.290  39.942   0.291
 7349W        W71117  24.516  23.652  12.898
 7350W        W71118  23.513  22.211   3.643
 7351W        W71119   3.306  38.019   0.960
 7352W        W71120   2.841   2.746  14.356
 7353W        W71121  16.743  32.444  13.970
 7354W        W71122   5.207  33.396   1.324
 7355W        W71123  17.131  34.543  12.390
 7356W        W71124  21.238  31.964   2.273
 7357W        W71125   0.952   3.280  13.340
 7358W        W71126   2.309  28.065  11.467
 7359W        W71127  21.247  39.976   0.788
 7360W        W71128  33.381   2.927  10.589
 7361W        W71129   8.878   0.828  12.563
 7362W        W71130   7.735  24.686  11.979
 7363W        W71131   1.481   4.887  12.087
 7364W        W71132  29.634  12.166   0.822
 7365W        W71133  29.628  21.140   2.795
 7366W        W71134   2.305  14.704  10.602
 7367W        W71135   5.867  43.943  13.312
 7368W        W71136  21.132  32.591  10.424
 7369W        W71137  14.706  38.958   1.714
 7370W        W71138   9.182  29.601  13.001
 7371W        W71139  21.214  19.720   4.768
 7372W        W71140  40.939  36.445   2.858
 7373W        W71141  22.998   2.863   2.346
 7374W        W71142  11.703  10.331  14.486
 7375W        W71143  17.605  23.999   1.238
 7376W        W71144   7.889  36.002   1.287
 7377W        W71145  26.548  18.592   1.918
 7378W        W71146  40.939  12.163  12.899
 7379W        W71147  27.596  14.121   3.159
 7380W        W71148   4.300  26.018   1.838
 7381W        W71149  15.126   6.256  13.412
 7382W        W71150  39.813   7.866   4.745
 7383W        W71151  43.987  34.442  11.576
 7384W        W71152  23.675   0.325  13.542
 7385W        W71153  35.551  14.760   4.643
 7386W        W71154   5.904  40.461  14.933
 7387W        W71155  43.371   1.736   2.190
 7388W        W71156  19.544  33.068  12.491
 7389W        W71157   8.210  20.763   1.249
 7390W        W71158  39.443  14.248  12.913
 7391W        W71159   5.814  41.413  12.915
 7392W        W71160   4.398  18.568   0.384
 7393W        W71161  17.103  37.850   3.729
 7394W        W71162  44.796  16.679  12.563
 7395W        W71163  11.326  25.503  11.395
 7396W        W71164   2.271  13.164   3.349
 7397W        W71165   5.876   6.704  10.907
 7398W        W71166  35.019  44.993   0.425
 7399W        W71167  23.178  36.873  12.949
 7400W        W71168  40.498   7.901  13.351
 7401W        W71169  16.808   2.731  11.033
 7402W        W71170  22.722  19.746  14.855
 7403W        W71171   1.921  30.957  12.860
 7404W        W71172  21.150   1.752  11.901
 7405W        W71173  13.336  29.035   1.886
 7406W        W71174  26.692   7.731   4.271
 7407W        W71175  22.560  28.454   2.757
 7408W        W71176  27.008  19.166  11.041
 7409W        W71177  13.186  20.084  13.537
 7410W        W71178  36.487  11.243   2.246
 7411W        W71179  24.489  18.758  11.420
 7412W        W71180  41.509   9.819  10.978
 7413W        W71181  25.665   7.772  13.319
 7414W        W71182  25.577  16.269   1.892
 7415W        W71183   2.291  26.565  13.009
 7416W        W71184  35.370   6.807   4.210
 7417W        W71185  39.527  15.796   0.816
 7418W        W71186  36.087  34.583  11.926
 7419W        W71187  25.477  29.157  12.339
 7420W        W71188  42.309  17.579  12.442
 7421W        W71189  10.808   1.777   1.264
 7422W        W71190  27.040   4.878   2.246
 7423W        W71191  23.512  28.154  12.402
 7424W        W71192  28.151  33.905   5.677
 7425W        W71193  43.837  44.434   0.880
 7426W        W71194  18.295   8.163  14.341
 7427W        W71195  15.194  41.415   3.327
 7428W        W71196  43.360  32.462   0.282
 7429W        W71197  41.976  35.404   2.717
 7430W        W71198   1.879  37.941  13.844
 7431W        W71199  41.520  28.029  11.599
 7432W        W71200  44.337  25.144  13.921
 7433W        W71201  43.801  33.932  14.409
 7434W        W71202  12.212  25.661   3.671
 7435W        W71203   9.694  38.017  14.018
 7436W        W71204  33.894  31.637   1.765
 7437W        W71205  25.599   5.193  12.015
 7438W        W71206  20.121  14.769  11.569
 7439W        W71207  30.611   8.811  12.430
 7440W        W71208  23.652  35.964   4.649
 7441W        W71209  17.063  21.579   1.332
 7442W        W71210   0.794  36.405   0.450
 7443W        W71211  42.357  23.609  14.425
 7444W        W71212  15.790  12.710   0.962
 7445W        W71213  41.908   9.839   1.791
 7446W        W71214  33.546  23.641  12.051
 7447W        W71215  25.042  44.763  11.566
 7448W        W71216  20.708  37.488   0.464
 7449W        W71217  33.555   7.251  12.896
 7450W        W71218  12.126  40.519  11.602
 7451W        W71219  24.499   0.807  12.872
 7452W        W71220  26.650  10.267   0.293
 7453W        W71221   4.935  31.615  11.098
 7454W        W71222  16.644  16.785  13.422
 7455W        W71223  32.135  18.737   4.306
 7456W        W71224  42.948   1.907  14.795
 7457W        W71225  35.882   4.707   2.866
 7458W        W71226  28.099   6.307   3.320
 7459W        W71227  20.123  12.674  13.423
 7460W        W71228  22.166   7.745   2.209
 7461W        W71229  20.724  11.743   3.343
 7462W        W71230  13.214  22.025  11.891
 7463W        W71231  26.957  27.009   4.205
 7464W        W71232  32.100  34.953   2.319
 7465W        W71233  20.263  41.485   2.400
 7466W        W71234  23.707  18.228   0.355
 7467W        W71235   5.793  19.547  14.955
 7468W        W71236  29.514  42.313  13.511
 7469W        W71237  17.271  31.111   4.618
 7470W        W71238  16.260   9.244  10.429
 7471W        W71239  29.505  32.017  12.421
 7472W        W71240   6.391  44.503  14.995
 7473W        W71241  25.077  27.018   1.926
 7474W        W71242  37.349  26.032  11.089
 7475W        W71243   9.197   2.348   1.832
 7476W        W71244  31.522   8.723  14.482
 7477W        W71245  18.617  19.083   4.294
 7478W        W71246  22.061  33.902   1.745
 7479W        W71247  43.278  22.665   4.779
 7480W        W71248  16.083   6.215   0.344
 7481W        W71249   8.267  44.336  13.385
 7482W        W71250   1.267  22.633  11.396
 7483W        W71251  21.573  16.215   0.323
 7484W        W71252  26.555  31.988   1.852
 7485W        W71253   1.875  30.050   4.778
 7486W        W71254  34.383  35.073  12.499
 7487W        W71255  42.023  23.131  13.500
 7488W        W71256  38.911   6.702   4.732
 7489W        W71257  31.423  15.251  11.519
 7490W        W71258  27.015  23.079  13.036
 7491W        W71259   2.958  22.547   2.787
 7492W        W71260  20.056  26.654  13.483
 7493W        W71261  42.403  10.275   4.311
 7494W        W71262  39.044  10.188   4.143
 7495W        W71263   4.386  33.030   3.766
 7496W        W71264  36.579  10.312  13.377
 7497W        W71265  41.909  14.640  12.570
 7498W        W71266  11.268  44.282  11.403
 7499W        W71267  34.568  22.694  13.478
 7500W        W71268  38.379  16.782   3.353
 7501W        W71269  40.939  32.623   9.647
 7502W        W71270  42.870   1.268  12.503
 7503W        W71271  23.108  20.123  14.410
 7504W        W71272  32.539  19.642   0.253
 7505W        W71273   5.260  34.589   2.194
 7506W        W71274  33.054  24.514   4.281
 7507W        W71275  41.354  25.624   0.419
 7508W        W71276  16.568   5.837   4.612
 7509W        W71277   7.795   0.427   2.673
 7510W        W71278  23.595  36.591  13.381
 7511W        W71279   3.431   2.953   2.273
 7512W        W71280  11.661  32.085   2.411
 7513W        W71281  28.166  37.851  10.479
 7514W        W71282   9.887  34.497  13.523
 7515W        W71283  11.845  10.849  12.432
 7516W        W71284  42.807  23.022  10.616
 7517W        W71285  36.984  40.986   1.914
 7518W        W71286  29.523  32.944  10.631
 7519W        W71287   6.877  13.615   2.287
 7520W        W71288  11.790  41.031  11.592
 7521W        W71289   2.234  29.668   1.447
 7522W        W71290   9.750  44.824   0.270
 7523W        W71291  25.973  36.493   3.198
 7524W        W71292  38.899  44.949   2.883
 7525W        W71293  41.423   5.711   4.306
 7526W        W71294  24.723  25.474  10.524
 7527W        W71295  16.647  36.408   2.250
 7528W        W71296  30.615  32.494   2.191
 7529W        W71297  34.062   2.437  11.894
 7530W        W71298  27.689  19.178   2.812
 7531W        W71299  15.244  32.588  12.456
 7532W        W71300   3.954  18.186  13.833
 7533W        W71301  41.431  28.095  14.495
 7534W        W71302   9.316  38.375   4.602
 7535W        W71303   0.872  30.095  10.500
 7536W        W71304  35.907   0.249   0.820
 7537W        W71305  31.478  24.178   1.221
 7538W        W71306  34.478  13.347  11.529
 7539W        W71307  16.176  38.490   2.861
 7540W        W71308  32.603  28.484   3.153
 7541W        W71309  35.494  20.079   2.295
 7542W        W71310  25.120  12.348  11.886
 7543W        W71311  30.598   9.759  12.999
 7544W        W71312  22.109  31.013   2.353
 7545W        W71313  13.230   1.352   0.739
 7546W        W71314  23.008  35.421  12.469
 7547W        W71315  36.922  40.458  10.919
 7548W        W71316   8.388   8.788  14.486
 7549W        W71317   5.344  12.351  11.905
 7550W        W71318  42.936   1.923   4.265
 7551W        W71319  31.989   7.329   4.621
 7552W        W71320  28.459  19.155  13.884
 7553W        W71321  43.862  33.502  12.567
 7554W        W71322  26.005  20.175   2.842
 7555W        W71323  34.066  31.081   4.244
 7556W        W71324   0.408   6.373  10.638
 7557W        W71325  21.705  15.608  14.899
 7558W        W71326  36.516   4.861  10.469
 7559W        W71327  25.006   3.910   2.278
 7560W        W71328  37.084  21.682  11.420
 7561W        W71329  25.590  41.425  12.989
 7562W        W71330  38.829   4.860   9.988
 7563W        W71331   7.402  40.495   3.363
 7564W        W71332  20.140  13.830   3.271
 7565W        W71333  25.085  43.406  14.027
 7566W        W71334  27.042  39.064   1.408
 7567W        W71335  17.094   9.643   1.418
 7568W        W71336   2.288  42.335   1.924
 7569W        W71337  38.335  39.943  14.494
 7570W        W71338  10.297  17.698  14.274
 7571W        W71339  28.543  20.746  10.924
 7572W        W71340  40.487  34.971  13.843
 7573W        W71341   2.427  41.341  10.585
 7574W        W71342  12.236   1.964  13.843
 7575W        W71343  34.563  29.025  14.806
 7576W        W71344  40.031  22.109   3.781
 7577W        W71345  19.132  20.531   1.351
 7578W        W71346  10.634  43.303  12.891
 7579W        W71347  18.554  29.049   2.682
 7580W        W71348  32.566  32.476  14.386
 7581W        W71349   7.226  12.683   4.222
 7582W        W71350  44.811   8.184   3.308
 7583W        W71351  42.457  30.065   1.708
 7584W        W71352  41.534  23.009  12.911
 7585W        W71353  40.443   1.408   4.133
 7586W        W71354   6.908   7.227  14.437
 7587W        W71355  30.525  26.075  14.991
 7588W        W71356  13.759  19.611  13.812
 7589W        W71357  39.525  17.125   2.759
 7590W        W71358  27.690  40.347   2.228
 7591W        W71359   6.909  16.277  11.386
 7592W        W71360  26.041  36.384   1.728
 7593W        W71361  21.079   8.215   4.734
 7594W        W71362  25.623  14.730   9.930
 7595W        W71363  25.569  36.570  12.894
 7596W        W71364  30.090  17.657   0.296
 7597W        W71365  20.736  33.888  11.505
 7598W        W71366  15.815  24.033   2.694
 7599W        W71367  27.052  19.557   5.174
 7600W        W71368   6.296  31.417   0.770
 7601W        W71369  40.417  34.994  11.094
 7602W        W71370  14.182  26.619  12.559
 7603W        W71371  41.953   8.682  10.410
 7604W        W71372  39.378  33.487   4.247
 7605W        W71373  41.517   2.470   2.384
 7606W        W71374   7.826  29.582   4.800
 7607W        W71375  43.321  15.782   2.363
 7608W        W71376  33.944  13.294   1.366
 7609W        W71377   9.790   5.423   2.727
 7610W        W71378  24.696   2.943   1.727
 7611W        W71379  28.043  28.532   0.427
 7612W        W71380  33.014  36.034   0.836
 7613W        W71381   3.886  36.584   2.851
 7614W        W71382   4.945   9.648   4.248
 7615W        W71383  26.544  17.215   3.806
 7616W        W71384  44.489  32.130  13.447
 7617W        W71385  11.233  26.158  14.940
 7618W        W71386   1.413  40.035  11.587
 7619W        W71387  17.193  23.650   2.272
 7620W        W71388  10.204  11.315   9.926
 7621W        W71389  28.536  15.110  14.479
 7622W        W71390  30.495   9.375  11.409
 7623W        W71391  38.411  36.383  11.863
 7624W        W71392  42.926   8.839   4.615
 7625W        W71393   0.385   8.706   5.194
 7626W        W71394  33.476  32.453  11.080
 7627W        W71395  11.206  32.581   2.328
 7628W        W71396   3.346   3.928  10.472
 7629W        W71397  37.438  25.665  14.897
 7630W        W71398   1.971  33.498  11.535
 7631W        W71399   0.431  20.649  13.972
 7632W        W71400   2.295  43.937  11.041
 7633W        W71401  37.887  40.819  14.973
 7634W        W71402   4.262  12.146   0.732
 7635W        W71403  33.518   1.791  13.064
 7636W        W71404  34.872  20.117  13.514
 7637W        W71405  30.516  14.180  14.973
 7638W        W71406  31.545  23.001   3.648
 7639W        W71407  26.094  16.102  14.893
 7640W        W71408  35.922  16.146  14.374
 7641W        W71409  34.066  44.929   1.763
 7642W        W71410  39.421  43.329   4.763
 7643W        W71411  43.950  13.826  13.426
 7644W        W71412  33.532  28.994   1.745
 7645W        W71413  44.963  35.381   3.823
 7646W        W71414  10.796  20.717  14.847
 7647W        W71415  12.641  27.121   1.814
 7648W        W71416  16.172  31.622   4.710
 7649W        W71417  22.049  16.787   2.393
 7650W        W71418  38.463  28.052  13.315
 7651W        W71419   4.772  18.555   3.152
 7652W        W71420  32.083  37.937  13.857
 7653W        W71421  19.069  19.137   0.312
 7654W        W71422  35.998  33.542   3.634
 7655W        W71423   0.774  22.640   3.818
 7656W        W71424  17.270  31.480   3.382
 7657W        W71425  14.674  44.464  14.955
 7658W        W71426   0.802   4.773  10.915
 7659W        W71427   2.294   8.748  13.476
 7660W        W71428   2.748   8.282  13.480
 7661W        W71429  13.692  39.014   2.852
 7662W        W71430   4.815  40.340   4.214
 7663W        W71431  27.584  18.178   4.281
 7664W        W71432  24.138  12.632  13.924
 7665W        W71433  34.529  40.946   3.862
 7666W        W71434  10.317  22.041   0.248
 7667W        W71435  24.010  33.937   4.282
 7668W        W71436   8.860  28.157  13.477
 7669W        W71437  35.911  26.481   4.153
 7670W        W71438  11.828  41.994  10.954
 7671W        W71439   2.419   0.880  13.979
 7672W        W71440  36.068  19.698  14.826
 7673W        W71441  44.963  16.269   2.697
 7674W        W71442  12.185   6.703  12.376
 7675W        W71443  22.043  17.270  14.833
 7676W        W71444  40.946  18.074  14.277
 7677W        W71445   2.314   0.855  11.543
 7678W        W71446  12.270  10.241  10.591
 7679W        W71447  42.797  19.735   1.360
 7680W        W71448  27.634  27.640  12.968
 7681W        W71449  15.181  42.914   3.792
 7682W        W71450  25.628  36.496   0.770
 7683W        W71451   9.669  19.628   4.195
 7684W        W71452  29.480  32.925   0.860
 7685W        W71453  32.467  11.302  14.484
 7686W        W71454  26.560  25.598  14.862
 7687W        W71455  41.467  32.460  11.075
 7688W        W71456  11.827  29.050  10.420
 7689W        W71457  43.810   6.754   2.270
 7690W        W71458  17.759   5.727   2.895
 7691W        W71459   6.885   2.878   3.848
 7692W        W71460  31.067  33.922  14.895
 7693W        W71461   9.193  27.454  13.416
 7694W        W71462  17.556  38.039   1.228
 7695W        W71463  22.622  42.978   5.175
 7696W        W71464  16.601  30.141  13.369
 7697W        W71465  16.312  42.295  14.027
 7698W        W71466  12.648  39.432  12.434
 7699W        W71467   9.786   1.814  14.306
 7700W        W71468  23.233  39.924   3.238
 7701W        W71469   1.271   9.802  11.595
 7702W        W71470  27.590  32.503  13.356
 7703W        W71471  12.712  32.913   4.654
 7704W        W71472  16.592  36.354   3.304
 7705W        W71473  40.929   3.770   3.343
 7706W        W71474  14.767   7.228   1.720
 7707W        W71475  28.609  21.057  14.022
 7708W        W71476  12.250   5.219   3.641
 7709W        W71477  17.119  33.997  11.919
 7710W        W71478  21.153  39.025  12.346
 7711W        W71479  42.828  31.952  12.552
 7712W        W71480  16.686  12.258   0.282
 7713W        W71481  30.965  16.585  11.595
 7714W        W71482  39.389  32.937   3.671
 7715W        W71483  40.991   7.321  11.606
 7716W        W71484  13.748  39.518  11.860
 7717W        W71485  30.596  39.447   4.175
 7718W        W71486  31.970  27.562  14.331
 7719W        W71487  33.470  15.584  12.499
 7720W        W71488  17.560  28.182   0.960
 7721W        W71489   6.334  11.796  11.981
 7722W        W71490  37.514   3.364  14.392
 7723W        W71491  22.160  39.911   2.274
 7724W        W71492  29.440  26.536   0.356
 7725W        W71493  42.347  41.878   0.729
 7726W        W71494  14.334  41.415   0.789
 7727W        W71495  34.459  32.462   4.698
 7728W        W71496  44.455  16.099   3.149
 7729W        W71497  17.598  24.198  11.594
 7730W        W71498   4.418  44.322   3.272
 7731W        W71499  34.016  42.797   3.819
 7732W        W71500   9.309  44.421  12.094
 7733W        W71501  23.200  44.940  10.580
 7734W        W71502  10.178  37.036  13.405
 7735W        W71503   7.714  19.741  13.508
 7736W        W71504  14.701  31.645   1.791
 7737W        W71505  13.779  14.298   1.265
 7738W        W71506  30.065  23.179  14.976
 7739W        W71507   1.306  32.899   2.850
 7740W        W71508  24.488  28.479  12.476
 7741W        W71509   0.346  10.712   0.729
 7742W        W71510  36.066  42.308   0.318
 7743W        W71511  24.163  38.985   4.168
 7744W        W71512   6.745  18.734   4.755
 7745W        W71513   4.406  25.623  10.500
 7746W        W71514  25.658   8.209  12.393
 7747W        W71515   6.886   5.754   0.940
 7748W        W71516   7.869   8.317  14.465
 7749W        W71517  44.288   4.894  12.476
 7750W        W71518   0.353  25.025  14.475
 7751W        W71519   5.336  14.615   2.407
 7752W        W71520  42.786   9.183   4.250
 7753W        W71521  14.658  34.571   3.269
 7754W        W71522  26.037  14.629   5.713
 7755W        W71523  15.757  40.994  12.028
 7756W        W71524  44.886  30.952  12.029
 7757W        W71525  36.036  43.405   1.274
 7758W        W71526   9.239  28.468  12.916
 7759W        W71527   5.261   6.281  14.486
 7760W        W71528  38.328  12.180   0.857
 7761W        W71529   7.805  28.996  13.518
 7762W        W71530  37.866  21.134  13.808
 7763W        W71531  39.480  20.624  10.896
 7764W        W71532   0.766  37.452   1.229
 7765W        W71533  15.680  41.514   3.356
 7766W        W71534  36.534  39.449   2.269
 7767W        W71535  36.912  19.050  14.503
 7768W        W71536  37.859  33.069  13.791
 7769W        W71537  17.705  15.754   4.732
 7770W        W71538   5.360  39.034   3.691
 7771W        W71539  14.737  25.185   0.810
 7772W        W71540  18.572  20.765   0.436
 7773W        W71541  27.470  13.265  12.949
 7774W        W71542   6.371  13.340   4.227
 7775W        W71543  37.994  20.660   0.758
 7776W        W71544  19.572  14.718  11.380
 7777W        W71545   0.897  30.458  13.411
 7778W        W71546  22.563  26.074   2.197
 7779W        W71547  21.250   7.216  12.946
 7780W        W71548  16.798  16.236  11.910
 7781W        W71549   0.294   3.400   0.393
 7782W        W71550  40.948  32.551   5.214
 7783W        W71551  18.711  12.816  11.872
 7784W        W71552   2.870  21.536   2.356
 7785W        W71553   9.791   4.206  11.892
 7786W        W71554   5.778  34.448  11.380
 7787W        W71555   1.802  24.592   3.780
 7788W        W71556  38.989  43.944   3.717
 7789W        W71557   9.275  28.449   4.649
 7790W        W71558   9.690   5.290  13.440
 7791W        W71559   2.773  28.500  12.076
 7792W        W71560  20.030   5.288  13.533
 7793W        W71561   4.388  38.068  10.157
 7794W        W71562   7.702  25.032  14.298
 7795W        W71563  19.547  23.548   5.199
 7796W        W71564  12.719  42.779  10.954
 7797W        W71565  23.993  11.291  14.506
 7798W        W71566  34.501  24.537  13.518
 7799W        W71567  39.964  44.777  14.279
 7800W        W71568  26.648  13.311   4.329
 7801W        W71569   0.344  44.323   4.768
 7802W        W71570  29.175  11.860   1.843
 7803W        W71571  18.769  21.070  14.859
 7804W        W71572  42.417   8.816   1.264
 7805W        W71573   6.294  13.248  11.495
 7806W        W71574  21.602  41.522  10.603
 7807W        W71575  40.965  22.576  11.530
 7808W        W71576   5.889  26.575  14.826
 7809W        W71577  41.950  12.670  10.044
 7810W        W71578  40.993  29.505  12.358
 7811W        W71579  36.448  18.626   4.625
 7812W        W71580  11.219  33.471  14.836
 7813W        W71581  41.932  28.523  14.295
 7814W        W71582   3.308  14.112  13.047
 7815W        W71583  26.691   8.886   2.355
 7816W        W71584  16.666  35.108   1.894
 7817W        W71585  34.520  43.873  12.934
 7818W        W71586  12.759  39.947  14.008
 7819W        W71587  13.181  30.007  13.029
 7820W        W71588  14.773   0.367   4.658
 7821W        W71589  33.924  11.766  12.357
 7822W        W71590   6.728  23.686   1.395
 7823W        W71591  12.179  41.982  14.411
 7824W        W71592  31.939  38.367   0.870
 7825W        W71593  43.488  27.185   3.283
 7826W        W71594   6.230  20.695   4.245
 7827W        W71595  27.024  15.580  10.640
 7828W        W71596  25.598  33.052   1.747
 7829W        W71597   3.875   0.788  11.489
 7830W        W71598  27.619  40.505   0.750
 7831W        W71599  27.593  22.242   1.249
 7832W        W71600  19.774  30.027   2.825
 7833W        W71601   3.830  24.072   0.737
 7834W        W71602  25.171   5.192   4.330
 7835W        W71603  44.791  37.058  13.440
 7836W        W71604  41.926  28.614  10.427
 7837W        W71605  34.514  13.310  11.985
 7838W        W71606  32.611  21.178   2.389
 7839W        W71607  12.273  32.570   0.849
 7840W        W71608  19.558  24.620  14.980
 7841W        W71609  12.759  40.874   3.768
 7842W        W71610  13.654  22.691   3.687
 7843W        W71611  34.441  18.791  10.584
 7844W        W71612  38.882  23.525   1.697
 7845W        W71613  21.741  24.519  10.522
 7846W        W71614   7.316  15.671   2.691
 7847W        W71615   8.831  30.456   3.369
 7848W        W71616   7.393  29.012   0.771
 7849W        W71617  11.215  36.459   3.177
 7850W        W71618  34.074  40.808   1.333
 7851W        W71619  33.104   8.260  14.375
 7852W        W71620  11.688  18.579   3.272
 7853W        W71621  10.225  14.180   4.220
 7854W        W71622  20.653  14.686   1.255
 7855W        W71623  28.049  13.133   0.859
 7856W        W71624  40.505  39.902   3.766
 7857W        W71625   5.750   8.405  11.007
 7858W        W71626  28.561  29.969  13.517
 7859W        W71627  10.384  11.341  12.500
 7860W        W71628  20.185  35.956  10.586
 7861W        W71629   2.843   1.768  13.864
 7862W        W71630   0.904  29.068   1.431
 7863W        W71631   9.266  21.654  11.907
 7864W        W71632   3.855   2.453   4.719
 7865W        W71633   4.302  44.933   2.210
 7866W        W71634  12.257  24.529  13.004
 7867W        W71635   0.364  30.090   4.286
 7868W        W71636   4.814  14.160   1.246
 7869W        W71637  15.754  31.911   4.738
 7870W        W71638  10.747  11.266  14.993
 7871W        W71639   0.261  43.351   4.787
 7872W        W71640  23.173  20.646  14.334
 7873W        W71641  19.043   4.925   2.220
 7874W        W71642  20.273   7.346  13.981
 7875W        W71643  31.552   2.379   4.690
 7876W        W71644  38.388   1.346   2.379
 7877W        W71645  11.202  16.764   0.279
 7878W        W71646  33.069  33.411   4.296
 7879W        W71647  14.743  36.960  14.860
 7880W        W71648  27.172  17.106   2.317
 7881W        W71649  25.539   5.231   2.343
 7882W        W71650  18.052   4.211  14.296
 7883W        W71651  42.996  13.254  11.523
 7884W        W71652  28.069   3.790  13.961
 7885W        W71653  43.988  34.476  12.381
 7886W        W71654  20.257  14.263   0.409
 7887W        W71655  37.070   6.722  10.895
 7888W        W71656  40.549   7.206   1.219
 7889W        W71657  26.023  17.248  13.434
 7890W        W71658  11.861  38.912   0.746
 7891W        W71659  27.978  13.119  10.053
 7892W        W71660  23.530  14.789  12.931
 7893W        W71661  15.224  43.412   1.275
 7894W        W71662   7.834  44.491   1.358
 7895W        W71663  29.001   7.401   1.904
 7896W        W71664  28.456   9.821  10.456
 7897W        W71665  13.110   4.859  13.513
 7898W        W71666  40.864   8.305   0.278
 7899W        W71667  16.251  17.670  11.493
 7900W        W71668  17.206  38.064  13.947
 7901W        W71669  30.533  37.392   3.870
 7902W        W71670   4.805   2.310  14.308
 7903W        W71671  23.531  22.184   4.807
 7904W        W71672   3.365  20.678   1.782
 7905W        W71673   4.363  25.582  11.106
 7906W        W71674   3.763  38.859   4.810
 7907W        W71675  39.817  33.508  14.371
 7908W        W71676  19.607   7.216  10.989
 7909W        W71677  16.118  15.711   1.705
 7910W        W71678  16.297  40.016   3.160
 7911W        W71679  12.675  10.709  11.880
 7912W        W71680  10.702   1.857  14.450
 7913W        W71681  34.445   0.386  10.503
 7914W        W71682  35.435   9.734  10.152
 7915W        W71683  38.570  25.697   1.873
 7916W        W71684  39.930  19.226  11.896
 7917W        W71685  43.378  31.408   4.756
 7918W        W71686  29.580  32.415  10.427
 7919W        W71687  34.051  35.885  12.864
 7920W        W71688   2.783  27.594   2.883
 7921W        W71689  13.143   3.900   1.770
 7922W        W71690  22.038  31.152   1.718
 7923W        W71691   1.844  19.751   1.249
 7924W        W71692  21.740   2.753  13.331
 7925W        W71693   2.794  39.367   1.821
 7926W        W71694  14.693  39.484  13.974
 7927W        W71695  17.592  23.539   1.405
 7928W        W71696  38.934  21.541   0.858
 7929W        W71697  41.786  21.029   0.246
 7930W        W71698   2.253  37.348   9.487
 7931W        W71699  44.440  20.162  11.420
 7932W        W71700  17.221  19.591   5.658
 7933W        W71701  28.033   9.167   2.199
 7934W        W71702  27.142  10.275  12.364
 7935W        W71703  13.803   1.391  11.466
 7936W        W71704  22.641  25.674   2.302
 7937W        W71705   9.293  37.885   0.419
 7938W        W71706   2.967  43.319  14.346
 7939W        W71707  20.260  28.031  11.986
 7940W        W71708  35.085  20.267  12.384
 7941W        W71709  27.497  31.073  13.829
 7942W        W71710  44.294  24.055   4.164
 7943W        W71711  11.847   1.293  10.613
 7944W        W71712  18.214   4.234   1.325
 7945W        W71713  44.753  17.635  11.943
 7946W        W71714  30.481  34.095   2.704
 7947W        W71715   0.898  26.185  11.128
 7948W        W71716  37.005  29.931   9.573
 7949W        W71717  36.584   7.356   2.277
 7950W        W71718  42.927  40.449  14.804
 7951W        W71719   4.839  30.462   4.733
 7952W        W71720  18.562  30.076  11.612
 7953W        W71721   6.296  10.685   2.807
 7954W        W71722  24.514  15.690   2.346
 7955W        W71723   3.334  24.153   3.824
 7956W        W71724  18.185   0.930  11.988
 7957W        W71725  26.641  12.313   4.343
 7958W        W71726  14.132  32.484  13.419
 7959W        W71727  22.640  34.876   2.274
 7960W        W71728   7.377   3.856  11.027
 7961W        W71729  31.421  20.753   4.271
 7962W        W71730  18.685  36.475  14.892
 7963W        W71731  26.182  11.306  12.859
 7964W        W71732  20.051  24.204  11.394
 7965W        W71733  18.787   9.292   0.452
 7966W        W71734  39.039  13.169   1.388
 7967W        W71735   7.882  11.142  11.007
 7968W        W71736  35.459  31.905   2.313
 7969W        W71737  39.373  43.447   0.790
 7970W        W71738  31.117   3.865  13.920
 7971W        W71739  37.394  18.173  13.345
 7972W        W71740  30.607  26.560   0.916
 7973W        W71741  17.633   6.688  11.559
 7974W        W71742  35.963   9.190   2.239
 7975W        W71743   2.795  40.051   3.821
 7976W        W71744   7.213  12.809   1.723
 7977W        W71745   1.774  31.075   1.437
 7978W        W71746  12.314  40.026   1.440
 7979W        W71747  22.084   3.238  11.884
 7980W        W71748  39.318  25.090   2.738
 7981W        W71749  13.803  30.072  12.529
 7982W        W71750  21.037   7.858   1.698
 7983W        W71751  25.472  12.216  14.824
 7984W        W71752  19.652  39.348  13.381
 7985W        W71753  37.856  12.698  11.054
 7986W        W71754  28.466  10.309  14.836
 7987W        W71755  32.432  40.523  12.357
 7988W        W71756  40.868  24.706   2.410
 7989W        W71757  31.485   7.174   0.870
 7990W        W71758   2.915  41.422   2.716
 7991W        W71759   2.780  17.692   4.652
 7992W        W71760  44.837  27.688  11.021
 7993W        W71761  20.624  12.778  13.331
 7994W        W71762  26.040  14.821   5.176
 7995W        W71763  25.708  37.953   3.229
 7996W        W71764  40.023  35.582   1.406
 7997W        W71765   0.426  10.715   1.763
 7998W        W71766  36.881  23.038  12.458
 7999W        W71767   7.303  22.157   1.441
 8000W        W71768  17.063  14.308  11.123
 8001W        W71769  37.885  27.097   4.292
 8002W        W71770  19.766  12.629   3.810
 8003W        W71771  25.124  26.556   3.234
 8004W        W71772  17.633  22.192  14.776
 8005W        W71773  37.349   0.294  10.131
 8006W        W71774   2.839  12.678   4.230
 8007W        W71775  40.468   2.440  12.459
 8008W        W71776  23.658  13.185  12.496
 8009W        W71777  29.166   6.371   4.740
 8010W        W71778  16.229  31.136  12.574
 8011W        W71779  33.380  38.498   4.202
 8012W        W71780  29.620  26.145  14.386
 8013W        W71781  28.521  29.575   0.770
 8014W        W71782  22.148  13.222   2.872
 8015W        W71783   5.832   8.790   3.301
 8016W        W71784  19.054  11.306   4.330
 8017W        W71785   7.705  16.218  12.015
 8018W        W71786  11.661   3.347   3.242
 8019W        W71787   1.917  33.100   3.299
 8020W        W71788  13.341  10.144   3.687
 8021W        W71789  11.226  33.973  13.322
 8022W        W71790  38.050  35.462   0.286
 8023W        W71791  30.073  43.455  13.822
 8024W        W71792   7.871  37.920  13.451
 8025W        W71793  15.169  29.097   3.799
 8026W        W71794  32.462  10.173  13.887
 8027W        W71795   9.819  12.193  11.885
 8028W        W71796  20.174  37.522  11.042
 8029W        W71797  40.010  42.998   1.325
 8030W        W71798  27.521  31.585  11.100
 8031W        W71799  44.007   5.804  12.986
 8032W        W71800  12.351  38.002   1.217
 8033W        W71801  42.519  13.276   1.737
 8034W        W71802  31.047  24.030  14.003
 8035W        W71803  29.650  25.155  14.893
 8036W        W71804  32.910  42.812   0.766
 8037W        W71805  33.514  42.850   4.642
 8038W        W71806   8.340   0.893  14.013
 8039W        W71807  30.916   0.489  10.538
 8040W        W71808  39.987  19.271  14.427
 8041W        W71809  15.762   7.782   1.217
 8042W        W71810  40.382  42.786  10.608
 8043W        W71811  34.497  22.742  11.595
 8044W        W71812  32.461  22.246  14.485
 8045W        W71813  13.678   6.854  10.423
 8046W        W71814  37.064  15.626   3.283
 8047W        W71815  31.085  41.827  11.404
 8048W        W71816  20.165  40.388   4.135
 8049W        W71817  16.216  15.164  14.466
 8050W        W71818   2.238  14.167  14.981
 8051W        W71819  22.116  27.955   0.932
 8052W        W71820   6.709   7.377   2.728
 8053W        W71821  35.071  18.655   1.828
 8054W        W71822   4.411  37.832   2.898
 8055W        W71823  30.976  23.693   4.621
 8056W        W71824   3.233  40.836  10.954
 8057W        W71825  38.018  21.676   2.220
 8058W        W71826  16.124  16.188   2.885
 8059W        W71827  23.514  17.688  13.905
 8060W        W71828   4.868   3.809  10.456
 8061W        W71829  37.958  37.053  14.484
 8062W        W71830  30.585   9.665  11.518
 8063W        W71831  29.174  41.365  11.518
 8064W        W71832   3.301  15.786  11.036
 8065W        W71833   1.255  11.256  12.514
 8066W        W71834  44.887  34.089   0.277
 8067W        W71835  19.078  44.268  13.538
 8068W        W71836  38.415  12.794   3.701
 8069W        W71837  14.286   0.455   0.757
 8070W        W71838  29.025   6.284   0.449
 8071W        W71839  28.112   5.733  10.558
 8072W        W71840  11.682  24.723  13.877
 8073W        W71841  30.091  26.675   4.189
 8074W        W71842  35.528  44.892  12.446
 8075W        W71843  40.425   8.892  14.314
 8076W        W71844  24.709   6.708   2.181
 8077W        W71845  40.012  38.924   0.907
 8078W        W71846   1.412  33.621   0.878
 8079W        W71847  15.171   7.766  12.412
 8080W        W71848  44.505  16.207  14.772
 8081W        W71849  39.379  29.130  10.513
 8082W        W71850  21.133   7.832   1.244
 8083W        W71851  26.127   4.290   2.731
 8084W        W71852  18.295  27.060  12.379
 8085W        W71853  29.469  40.862   3.858
 8086W        W71854   7.417  27.471  13.892
 8087W        W71855  37.043  27.993  14.849
 8088W        W71856  29.586  20.046   1.320
 8089W        W71857  15.270   5.290  10.585
 8090W        W71858  11.638  33.911  11.968
 8091W        W71859  31.424  19.266  10.946
 8092W        W71860  30.547  24.982  14.333
 8093W        W71861   0.822   7.320  14.788
 8094W        W71862  12.340  26.645  13.026
 8095W        W71863   7.263  10.877   0.780
 8096W        W71864  26.477  33.605  11.398
 8097W        W71865  10.788  25.516   1.724
 8098W        W71866   8.897  37.017  13.328
 8099W        W71867  13.224   5.288  12.088
 8100W        W71868   6.766  39.944  13.930
 8101W        W71869  22.637  41.471  11.532
 8102W        W71870   7.881  37.566  13.365
 8103W        W71871  27.642   2.334  11.546
 8104W        W71872  40.465   6.228  11.603
 8105W        W71873  14.698  16.701  14.898
 8106W        W71874  26.960  41.006   0.830
 8107W        W71875   0.825  22.067  12.017
 8108W        W71876   2.731   3.311   1.895
 8109W        W71877  39.426  36.565   0.302
 8110W        W71878  32.491  43.463  13.914
 8111W        W71879   6.425   4.329   0.434
 8112W        W71880  28.462  28.156   3.690
 8113W        W71881  34.883  25.511   3.848
 8114W        W71882  31.996  30.163  11.905
 8115W        W71883  23.707  41.509   1.811
 8116W        W71884  32.555  25.049   1.370
 8117W        W71885  35.490  10.173   4.683
 8118W        W71886  31.112  10.157  14.293
 8119W        W71887  20.192   8.240  13.856
 8120W        W71888   9.666  23.015  10.641
 8121W        W71889   4.898  37.920  13.062
 8122W        W71890  28.031  38.508   0.894
 8123W        W71891  15.642   6.392  14.511
 8124W        W71892  34.034  36.582   2.738
 8125W        W71893  29.479  21.221  12.975
 8126W        W71894  37.952   8.762   0.355
 8127W        W71895  27.035  18.063  14.354
 8128W        W71896  17.130  19.694   9.539
 8129W        W71897  33.028  27.158  11.029
 8130W        W71898  38.457   8.290  13.490
 8131W        W71899  35.889  18.261  12.842
 8132W        W71900  13.764  37.025   3.841
 8133W        W71901   5.907  34.975  11.523
 8134W        W71902  43.341  38.334  12.468
 8135W        W71903  17.643  44.484   4.236
 8136W        W71904  24.004  14.212  13.905
 8137W        W71905  35.020   6.311  13.923
 8138W        W71906  23.574  37.898  13.367
 8139W        W71907  34.984  20.135  13.873
 8140W        W71908  15.729   6.362   4.614
 8141W        W71909  30.108  19.261   9.921
 8142W        W71910  31.635  41.796   0.463
 8143W        W71911  28.448  11.206   2.377
 8144W        W71912   3.782   8.265  14.288
 8145W        W71913   4.931  44.348  12.555
 8146W        W71914  40.821  28.937  12.928
 8147W        W71915  13.272  34.996   4.129
 8148W        W71916  36.943  17.176  14.412
 8149W        W71917  17.577  38.932  14.811
 8150W        W71918  44.915   7.731  14.984
 8151W        W71919  26.166   9.347   2.681
 8152W        W71920  18.289   6.678  10.958
 8153W        W71921  41.415   5.704  11.561
 8154W        W71922   0.276   1.739   1.400
 8155W        W71923   2.881  18.066   0.336
 8156W        W71924   5.824  39.492   4.811
 8157W        W71925  22.038   3.795  12.393
 8158W        W71926   0.317  25.661   0.445
 8159W        W71927  17.568   7.294   4.661
 8160W        W71928  11.229  18.181  10.962
 8161W        W71929  17.795  33.096  12.958
 8162W        W71930  40.467   5.203  10.596
 8163W        W71931  12.742  10.856   3.246
 8164W        W71932   7.319  38.358   1.901
 8165W        W71933  37.863  20.275  10.554
 8166W        W71934  29.622  16.721   0.299
 8167W        W71935  24.207  40.928   4.169
 8168W        W71936   1.762   1.459  10.480
 8169W        W71937  29.940   0.854  10.900
 8170W        W71938   9.816   1.314  11.988
 8171W        W71939  13.254  34.513  11.865
 8172W        W71940  18.130  29.135  14.991
 8173W        W71941   3.380  11.641  14.925
 8174W        W71942  27.983  32.050  11.976
 8175W        W71943  42.524  22.545   2.802
 8176W        W71944   1.960  11.343   2.266
 8177W        W71945  10.835  23.603   1.251
 8178W        W71946  42.287  15.281   3.812
 8179W        W71947  36.480  23.492   4.734
 8180W        W71948  14.823   0.881  11.967
 8181W        W71949  20.581  26.574   3.286
 8182W        W71950  31.601  11.223  14.288
 8183W        W71951  20.737   3.930  10.461
 8184W        W71952  19.625  18.222   0.810
 8185W        W71953  34.915   8.759  12.569
 8186W        W71954  37.877  19.604  11.910
 8187W        W71955   9.874  35.472   0.773
 8188W        W71956  11.288   8.831  10.583
 8189W        W71957  35.036  20.172   1.853
 8190W        W71958  19.060  39.424   1.307
 8191W        W71959  28.534  34.023   0.477
 8192W        W71960  40.805  32.506   0.815
 8193W        W71961  16.667  10.361   0.427
 8194W        W71962  25.683  10.789   3.779
 8195W        W71963  18.136  38.385  12.892
 8196W        W71964  24.627  17.717  11.523
 8197W        W71965  16.568   7.748  12.568
 8198W        W71966  35.441   5.860  12.463
 8199W        W71967   2.248  22.725  12.006
 8200W        W71968   8.764   7.280  11.485
 8201W        W71969  39.919   9.811  12.886
 8202W        W71970  35.884  24.986   0.852
 8203W        W71971   4.328   5.717  11.053
 8204W        W71972  38.072  20.143   2.273
 8205W        W71973  12.735  38.496   1.411
 8206W        W71974  39.407   8.322  12.373
 8207W        W71975  41.844  18.144  12.074
 8208W        W71976   2.862  39.371   2.353
 8209W        W71977   3.219  33.898   2.394
 8210W        W71978  23.628  35.509  11.533
 8211W        W71979  40.383  19.676   1.413
 8212W        W71980  23.600  39.052  11.982
 8213W        W71981  11.228   8.726   3.726
 8214W        W71982  21.609   4.779  11.934
 8215W        W71983  39.906  28.471   4.763
 8216W        W71984   6.300   8.382   0.921
 8217W        W71985   5.880  32.463  10.540
 8218W        W71986  28.016  21.692   1.382
 8219W        W71987   2.832  26.672  14.940
 8220W        W71988  42.435  11.237   0.438
 8221W        W71989  37.373  29.642  10.632
 8222W        W71990  33.044  43.472  11.125
 8223W        W71991  21.753  22.635  13.903
 8224W        W71992  36.062  42.000  14.309
 8225W        W71993  39.846  33.918   0.249
 8226W        W71994  34.585   5.739   4.737
 8227W        W71995  11.809   4.725   2.695
 8228W        W71996   3.443  29.650  12.395
 8229W        W71997  14.686  11.283  11.097
 8230W        W71998  31.078   8.773   4.633
 8231W        W71999  43.945  37.032  11.963
 8232W        W72000   9.188  38.033   4.632
 8233W        W72001  25.174  36.968  13.441
 8234W        W72002  39.062  10.280   3.222
 8235W        W72003  11.164   6.354  11.390
 8236W        W72004  12.755  30.620  14.018
 8237W        W72005  31.532   5.348  13.471
 8238W        W72006  35.459   3.940   2.397
 8239W        W72007  23.632   9.252  14.349
 8240W        W72008  28.066  26.129   0.298
 8241W        W72009  10.850  36.913   0.412
 8242W        W72010  30.518   0.751   3.317
 8243W        W72011  31.007  29.026   1.278
 8244W        W72012   5.731  18.077   2.297
 8245W        W72013   4.281  13.765   3.346
 8246W        W72014  11.147   3.460  12.922
 8247W        W72015  35.894  19.243   3.230
 8248W        W72016  42.454  35.364   0.957
 8249W        W72017  15.220   5.233   2.764
 8250W        W72018  35.059  24.116  10.054
 8251W        W72019   1.798  16.105   0.352
 8252W        W72020  38.355  11.641  11.009
 8253W        W72021   4.865  27.521   3.253
 8254W        W72022  43.314  34.917   2.670
 8255W        W72023   6.409  20.204   4.295
 8256W        W72024  18.266  41.537   1.784
 8257W        W72025  44.365  26.007  11.001
 8258W        W72026  44.309  17.667  10.952
 8259W        W72027   5.746  25.701  11.551
 8260W        W72028   0.480  25.179   1.259
 8261W        W72029   2.940   5.803  14.985
 8262W        W72030  19.689  19.202   1.724
 8263W        W72031   0.273  17.718   4.600
 8264W        W72032  39.022   5.716  14.316
 8265W        W72033  38.557  15.195   3.365
 8266W        W72034  14.336   7.729  11.482
 8267W        W72035  43.402  22.744  13.535
 8268W        W72036  11.808  37.409   0.786
 8269W        W72037   8.730  37.904  12.382
 8270W        W72038  21.136   8.840  13.801
 8271W        W72039  16.792  19.743   4.168
 8272W        W72040  14.167   3.372   1.786
 8273W        W72041  27.472   3.830  12.028
 8274W        W72042  36.058  25.997   4.634
 8275W        W72043  18.210  11.835  11.090
 8276W        W72044  15.760  43.498   2.265
 8277W        W72045   5.802  13.257  13.871
 8278W        W72046  18.705  31.498   4.791
 8279W        W72047  38.481   5.754  14.014
 8280W        W72048  23.170  44.949   2.243
 8281W        W72049  10.737  35.416  11.952
 8282W        W72050  12.759   1.887   0.811
 8283W        W72051  33.075  18.783   1.823
 8284W        W72052  39.808  22.508  14.382
 8285W        W72053   1.816  32.619   4.779
 8286W        W72054  12.641  38.000  14.815
 8287W        W72055  44.966  23.550  11.024
 8288W        W72056  37.850  29.937  11.600
 8289W        W72057  34.536  43.863   1.396
 8290W        W72058  36.392  27.689   2.872
 8291W        W72059  28.633  44.763  10.437
 8292W        W72060  31.943  43.460   2.848
 8293W        W72061  25.186  37.437  13.484
 8294W        W72062  27.086  39.991  14.919
 8295W        W72063  29.983   9.304   4.189
 8296W        W72064  41.534  35.036  12.542
 8297W        W72065  10.296  31.114   2.752
 8298W        W72066  37.499   1.324   0.903
 8299W        W72067  29.052  39.488   3.352
 8300W        W72068  10.278  41.456   2.196
 8301W        W72069  43.870   8.719   2.241
 8302W        W72070  10.146  11.218  10.574
 8303W        W72071  13.282  41.856   4.132
 8304W        W72072  44.833  39.983   2.182
 8305W        W72073  10.229   4.801   4.251
 8306W        W72074  20.547   3.745  14.852
 8307W        W72075   0.870  10.290  10.634
 8308W        W72076  25.124  34.562  12.479
 8309W        W72077  18.184   9.673  14.945
 8310W        W72078  11.794  23.994   4.168
 8311W        W72079  38.969   2.296  13.829
 8312W        W72080   9.760  13.346   4.644
 8313W        W72081  11.347  34.401   4.683
 8314W        W72082  26.510   0.272  13.530
 8315W        W72083   4.342  43.924  12.049
 8316W        W72084   7.176  14.597  14.323
 8317W        W72085  14.266  42.442   1.893
 8318W        W72086   5.908  36.961  10.626
 8319W        W72087  17.271  12.327  14.895
 8320W        W72088  13.610  39.547   3.780
 8321W        W72089  28.463  39.559  10.543
 8322W        W72090  25.113  19.154   2.345
 8323W        W72091   7.794  17.079  11.929
 8324W        W72092   5.265   9.339   1.721
 8325W        W72093  23.224  22.228   2.898
 8326W        W72094  39.007   5.692   4.327
 8327W        W72095   4.824   9.693   2.702
 8328W        W72096  17.683  16.775  11.056
 8329W        W72097   0.913  41.391  13.422
 8330W        W72098  12.349  19.272   4.727
 8331W        W72099  40.443  20.547  11.409
 8332W        W72100  40.867   8.375  11.880
 8333W        W72101   0.356  33.493  10.426
 8334W        W72102  13.321  14.107   9.980
 8335W        W72103  20.215  24.542   2.417
 8336W        W72104   1.949  26.155  12.413
 8337W        W72105  23.493  24.666  14.019
 8338W        W72106   1.973  17.773   1.427
 8339W        W72107  43.360  42.417  14.959
 8340W        W72108  43.900  38.525   1.930
 8341W        W72109   4.784  23.679  10.431
 8342W        W72110   2.912  44.376   0.263
 8343W        W72111  29.463  28.551   3.824
 8344W        W72112  15.136  44.285   4.605
 8345W        W72113  30.654  23.160  10.470
 8346W        W72114  11.642  23.498  14.024
 8347W        W72115  11.761  27.572  11.381
 8348W        W72116  40.469  18.157   3.781
 8349W        W72117  18.680  17.119  12.341
 8350W        W72118   6.796  40.941   1.321
 8351W        W72119   1.436  25.534   1.780
 8352W        W72120   4.915  22.047   3.836
 8353W        W72121  24.705  16.803  13.863
 8354W        W72122   3.266  43.926  10.889
 8355W        W72123  35.029   1.381  13.834
 8356W        W72124  23.600  11.152   2.801
 8357W        W72125  40.822  21.086  10.581
 8358W        W72126  21.702   6.909  12.052
 8359W        W72127  18.631  44.930  13.025
 8360W        W72128  24.495   6.919   2.898
 8361W        W72129  25.633  29.981   2.271
 8362W        W72130  25.039   6.196  13.468
 8363W        W72131  21.208  25.684   0.837
 8364W        W72132   4.240  36.356  10.154
 8365W        W72133   4.749  20.090  14.393
 8366W        W72134  31.970  31.413  11.890
 8367W        W72135   9.197  21.087  12.044
 8368W        W72136  39.838  23.070   1.815
 8369W        W72137   0.376  32.925  12.838
 8370W        W72138  10.214  42.429   3.834
 8371W        W72139   0.466  37.401  10.480
 8372W        W72140  35.540   0.921   4.220
 8373W        W72141  30.142   0.414  14.497
 8374W        W72142  14.314  17.249  13.380
 8375W        W72143  35.954   3.257  13.909
 8376W        W72144   7.399  44.990  10.953
 8377W        W72145  25.589   0.787   1.916
 8378W        W72146   6.208  36.936   1.922
 8379W        W72147  36.385  29.936   1.239
 8380W        W72148  19.606  26.976  12.524
 8381W        W72149  42.284  25.161   1.345
 8382W        W72150  27.564  26.024  12.349
 8383W        W72151  34.976  36.964   2.379
 8384W        W72152  25.196  32.978   3.811
 8385W        W72153   0.969   4.418   2.390
 8386W        W72154  26.953  20.660  13.532
 8387W        W72155  32.497  29.664  11.394
 8388W        W72156  15.162   3.892  12.048
 8389W        W72157  38.348  20.225  14.849
 8390W        W72158  40.479  31.093   2.306
 8391W        W72159   8.364  36.349  14.471
 8392W        W72160  35.568   0.403  11.053
 8393W        W72161   1.812  33.424   1.734
 8394W        W72162   8.880  22.187  10.511
 8395W        W72163  28.534   9.218  14.946
 8396W        W72164  20.610  42.523   0.335
 8397W        W72165  23.579  31.446   1.781
 8398W        W72166  11.306   0.375   0.265
 8399W        W72167  28.129  42.015   1.715
 8400W        W72168  35.543  25.524   3.780
 8401W        W72169  25.028  16.274   0.313
 8402W        W72170  12.753   2.350   0.818
 8403W        W72171  33.965   4.904  14.975
 8404W        W72172  28.949  15.158  12.472
 8405W        W72173  34.018  37.415  12.835
 8406W        W72174  23.604  11.828  11.588
 8407W        W72175   3.246   7.323  12.571
 8408W        W72176   2.915  22.252   4.317
 8409W        W72177  20.223   9.157   2.738
 8410W        W72178  29.064  18.775   2.272
 8411W        W72179  19.148  26.090  11.510
 8412W        W72180   0.969  44.947   1.899
 8413W        W72181  13.817   6.838   3.188
 8414W        W72182  21.220   6.341   1.344
 8415W        W72183  22.573  20.185   0.312
 8416W        W72184  41.868  14.266  10.587
 8417W        W72185  33.877  23.683  12.056
 8418W        W72186   3.373   4.943   3.753
 8419W        W72187  44.403  43.389  14.784
 8420W        W72188   7.329  31.546   2.301
 8421W        W72189   2.280   0.816   1.780
 8422W        W72190   9.297  43.893  11.976
 8423W        W72191  26.158   0.752   4.630
 8424W        W72192  24.205  21.178   5.247
 8425W        W72193  16.248  27.009   4.291
 8426W        W72194   6.801   3.224  13.493
 8427W        W72195  15.663  28.601   0.266
 8428W        W72196  20.079  20.765  13.841
 8429W        W72197  40.491  41.798   3.167
 8430W        W72198  24.483  33.031  10.952
 8431W        W72199  39.456  37.951  13.421
 8432W        W72200  33.946   9.819   3.763
 8433W        W72201  36.478  34.590   5.185
 8434W        W72202  12.738  27.630  10.613
 8435W        W72203  21.582  27.951  11.054
 8436W        W72204  14.176  12.151   1.317
 8437W        W72205  23.702  24.017  11.531
 8438W        W72206  42.856  11.829  13.330
 8439W        W72207  24.486  28.026   4.742
 8440W        W72208  14.796  16.263   2.342
 8441W        W72209  17.620  43.784  12.419
 8442W        W72210  41.885  44.447   4.211
 8443W        W72211  32.631  14.148  14.782
 8444W        W72212  24.669   5.210   0.923
 8445W        W72213  19.645  40.845  14.424
 8446W        W72214   7.250  18.694   1.870
 8447W        W72215  22.048  10.649  12.825
 8448W        W72216  14.288  34.595  10.634
 8449W        W72217  44.890  13.320  12.349
 8450W        W72218   1.324  37.410  14.480
 8451W        W72219  32.570   8.804   1.836
 8452W        W72220  22.031  23.571   3.718
 8453W        W72221  39.056  28.158  14.955
 8454W        W72222  40.052  44.905   2.679
 8455W        W72223  28.133  14.271  10.446
 8456W        W72224  39.025   2.936  11.884
 8457W        W72225  31.946  29.538   1.258
 8458W        W72226   7.398  29.974  14.829
 8459W        W72227  39.966  39.544   4.820
 8460W        W72228   1.861  19.156  13.488
 8461W        W72229   9.206  27.133   1.911
 8462W        W72230  18.572  39.454   0.732
 8463W        W72231   0.309  31.538   2.720
 8464W        W72232  10.669  31.934   0.774
 8465W        W72233  39.352   3.282  13.058
 8466W        W72234   8.169  22.595   3.288
 8467W        W72235  16.701  24.723   0.918
 8468W        W72236   8.339  16.633  10.946
 8469W        W72237  34.919  41.979   1.873
 8470W        W72238  35.926   3.396   0.426
 8471W        W72239  41.516  33.508   2.795
 8472W        W72240   3.279  23.078   4.653
 8473W        W72241   2.849  34.461   3.803
 8474W        W72242  41.422  44.440   1.754
 8475W        W72243  34.545   5.342  14.772
 8476W        W72244  37.852  30.562   3.318
 8477W        W72245  28.588   2.959  11.411
 8478W        W72246  31.630  26.114  13.800
 8479W        W72247  26.955  18.170  12.428
 8480W        W72248   5.868  22.538   3.748
 8481W        W72249  10.846  10.822  11.916
 8482W        W72250  17.592  35.946   3.330
 8483W        W72251  43.485  37.469  14.764
 8484W        W72252  37.527  40.389   2.789
 8485W        W72253  29.496  24.028   4.673
 8486W        W72254  13.711  37.042  11.019
 8487W        W72255  43.996  20.098   2.860
 8488W        W72256  18.214  26.509   2.754
 8489W        W72257  42.018  44.325  12.827
 8490W        W72258  29.442  10.290  11.112
 8491W        W72259  42.417   2.421  11.539
 8492W        W72260  10.699  25.679   1.298
 8493W        W72261  24.714  31.038   3.317
 8494W        W72262   4.792   4.893  12.419
 8495W        W72263  22.538  22.582  13.884
 8496W        W72264   1.846   0.292   4.633
 8497W        W72265  33.878  23.034   4.174
 8498W        W72266  19.709   0.913   0.451
 8499W        W72267  34.956  21.593   4.688
 8500W        W72268   0.771  24.515  12.503
 8501W        W72269   2.921  10.193  11.950
 8502W        W72270   3.854  43.882  12.510
 8503W        W72271   1.785  30.115   3.253
 8504W        W72272  11.769  17.160  13.818
 8505W        W72273  12.797   5.294  14.029
 8506W        W72274   8.843  32.558   0.802
 8507W        W72275  35.377  12.194  11.032
 8508W        W72276  13.633  20.237  11.912
 8509W        W72277   5.851  16.160   0.823
 8510W        W72278   2.240  26.150   3.669
 8511W        W72279   5.291  41.799  14.759
 8512W        W72280  19.580   6.223   2.677
 8513W        W72281  34.368   0.351   3.240
 8514W        W72282  27.525  38.330  12.482
 8515W        W72283  19.066  18.768   0.791
 8516W        W72284  34.937  31.481   0.756
 8517W        W72285   9.801   2.418   2.292
 8518W        W72286   0.441  38.853  11.921
 8519W        W72287  17.715  43.291  13.033
 8520W        W72288  15.689  38.044  14.396
 8521W        W72289   5.744  35.600   3.349
 8522W        W72290  15.147  34.432   4.190
 8523W        W72291  11.631  18.658   4.146
 8524W        W72292   8.327   8.896  11.062
 8525W        W72293   3.803  10.379   3.868
 8526W        W72294  11.672   4.733   1.412
 8527W        W72295  13.322  37.444  13.954
 8528W        W72296  17.185  27.505   1.316
 8529W        W72297  26.136  26.496   3.182
 8530W        W72298   6.187  38.456  12.420
 8531W        W72299  38.396  35.086   0.380
 8532W        W72300  44.312  13.829  11.066
 8533W        W72301  17.165   6.840  14.883
 8534W        W72302  28.524  34.521  14.003
 8535W        W72303  33.421  27.603  10.002
 8536W        W72304  34.029   3.917  12.910
 8537W        W72305  31.575  26.037  12.550
 8538W        W72306  16.583  18.277   2.681
 8539W        W72307   8.180  19.104   1.299
 8540W        W72308  25.070  35.983  12.080
 8541W        W72309   0.387  19.732   1.448
 8542W        W72310  31.549   5.814   1.933
 8543W        W72311  12.700  23.038  11.426
 8544W        W72312  39.923  19.104  13.314
 8545W        W72313  17.789  16.709  12.061
 8546W        W72314   3.434  33.016  11.889
 8547W        W72315  24.019  41.991  11.952
 8548W        W72316  25.706  14.132  10.924
 8549W        W72317  16.760  22.610  11.534
 8550W        W72318  30.048   2.852   1.321
 8551W        W72319  31.060  33.061   0.283
 8552W        W72320  13.260   7.894   4.241
 8553W        W72321  40.492  38.421  10.600
 8554W        W72322  22.710  15.105   3.333
 8555W        W72323   0.390   8.840  10.959
 8556W        W72324   2.832   0.437   0.299
 8557W        W72325  18.711  39.503  14.369
 8558W        W72326  25.992   7.811   3.283
 8559W        W72327  43.944   2.936  12.527
 8560W        W72328  18.103   7.287  10.890
 8561W        W72329  28.088  37.362   0.885
 8562W        W72330  31.979   3.794   1.933
 8563W        W72331   9.661  11.841   2.766
 8564W        W72332  34.916  43.946  12.566
 8565W        W72333  26.482  23.996   4.304
 8566W        W72334   6.371  35.543  10.471
 8567W        W72335  10.660  40.905   2.408
 8568W        W72336  16.770  34.967  14.324
 8569W        W72337   1.456  26.020  13.000
 8570W        W72338   8.271  36.374   3.741
 8571W        W72339  21.060   4.872   3.206
 8572W        W72340  28.618  13.622   1.366
 8573W        W72341  30.051  18.224  10.613
 8574W        W72342  37.354   1.407   4.649
 8575W        W72343  12.250  29.142   3.357
 8576W        W72344   0.916  23.495   1.759
 8577W        W72345  22.502  26.177  12.575
 8578W        W72346  33.468  31.458   2.772
 8579W        W72347  40.425  37.039   0.887
 8580W        W72348  12.645   2.446  13.441
 8581W        W72349  23.162  16.104   3.671
 8582W        W72350   5.200  34.885  14.462
 8583W        W72351  17.234   9.365   4.609
 8584W        W72352  18.053  23.638  10.990
 8585W        W72353  22.599  19.056   2.714
 8586W        W72354  11.722   4.430  12.559
 8587W        W72355   2.873   9.163  14.966
 8588W        W72356  31.111  41.365  10.964
 8589W        W72357  10.729  12.133   1.242
 8590W        W72358  18.555  28.016  14.509
 8591W        W72359  40.904  16.802   4.597
 8592W        W72360  13.604  25.071  14.801
 8593W        W72361  22.190  15.191  14.892
 8594W        W72362  26.469   9.684   1.788
 8595W        W72363  16.253  18.592  11.427
 8596W        W72364  24.020  38.571   2.312
 8597W        W72365   2.933  32.399  11.915
 8598W        W72366  41.403  30.935  11.896
 8599W        W72367  37.487  35.580  14.419
 8600W        W72368  13.765   5.902  13.534
 8601W        W72369  10.284  43.776   2.803
 8602W        W72370   6.310   5.323  13.859
 8603W        W72371  27.540  32.439   3.325
 8604W        W72372  39.937   4.283  13.865
 8605W        W72373  11.800  20.092  14.397
 8606W        W72374  23.538  19.666   4.191
 8607W        W72375  37.541  14.263   0.452
 8608W        W72376  25.210  36.404   0.383
 8609W        W72377   7.218  27.471   4.601
 8610W        W72378  16.711   4.809  11.939
 8611W        W72379   8.796  16.073   1.915
 8612W        W72380  25.165  24.720  13.990
 8613W        W72381  19.769  25.517   4.699
 8614W        W72382  24.678  10.814   0.869
 8615W        W72383   1.368  31.021   4.336
 8616W        W72384  42.389  25.659   2.803
 8617W        W72385   0.475  23.118   4.719
 8618W        W72386   3.728  37.009   1.838
 8619W        W72387   2.725  19.676  13.317
 8620W        W72388   6.278  24.101   1.751
 8621W        W72389   0.785  25.600   3.737
 8622W        W72390  41.389   8.306   3.294
 8623W        W72391  24.191  31.111  14.343
 8624W        W72392  13.183  16.231   4.630
 8625W        W72393   9.802  41.872   4.597
 8626W        W72394  11.328  44.876   1.391
 8627W        W72395  26.084  29.923  14.313
 8628W        W72396   4.387  37.031  10.477
 8629W        W72397   8.877  36.473   5.319
 8630W        W72398   8.882   3.721  12.431
 8631W        W72399  23.656   5.321   3.236
 8632W        W72400  25.007  22.543   4.684
 8633W        W72401  23.030  14.812  13.349
 8634W        W72402  24.149   8.243   3.386
 8635W        W72403  20.742  14.748  13.004
 8636W        W72404  25.166  21.611   1.806
 8637W        W72405  22.620  14.832  14.984
 8638W        W72406  42.374  30.038   4.604
 8639W        W72407  29.149   1.468  13.835
 8640W        W72408  41.476  15.616  12.925
 8641W        W72409  30.580   3.839   1.867
 8642W        W72410  39.939  10.361  11.467
 8643W        W72411  17.713  11.622  13.326
 8644W        W72412   8.383  41.420  12.444
 8645W        W72413   1.797   6.250  13.317
 8646W        W72414  18.099  41.391  13.335
 8647W        W72415  34.928   4.369   4.203
 8648W        W72416  21.027   1.827  13.005
 8649W        W72417  30.996  44.000  12.567
 8650W        W72418  27.073  16.275  10.593
 8651W        W72419  33.055  35.992   4.784
 8652W        W72420  13.239  36.586   4.611
 8653W        W72421  44.977  31.973   1.379
 8654W        W72422  13.683   1.868   1.886
 8655W        W72423  39.848  30.422   3.204
 8656W        W72424  11.834  15.817  11.997
 8657W        W72425   8.368  25.003  10.496
 8658W        W72426  40.425  43.936   2.407
 8659W        W72427  32.043  33.985   2.398
 8660W        W72428  34.603   3.271  14.458
 8661W        W72429  43.799  29.637  13.387
 8662W        W72430  30.449  26.495   5.251
 8663W        W72431  29.510   4.243  13.975
 8664W        W72432   2.908  31.027   1.777
 8665W        W72433   9.676  40.500   3.639
 8666W        W72434  12.759  15.588  13.043
 8667W        W72435  26.071  13.150  13.384
 8668W        W72436  16.706  10.140   2.410
 8669W        W72437  23.180   4.270  11.997
 8670W        W72438  17.088   1.902   5.144
 8671W        W72439  20.248   9.246  11.577
 8672W        W72440   9.855  24.017   2.780
 8673W        W72441  43.893  38.885  13.543
 8674W        W72442  43.285  29.669   2.335
 8675W        W72443  33.894  31.462  13.981
 8676W        W72444  20.545  29.450   0.921
 8677W        W72445   6.724  41.531  14.941
 8678W        W72446   4.917   1.896   3.733
 8679W        W72447  41.872   5.840  11.410
 8680W        W72448  20.687   7.214   3.775
 8681W        W72449  21.577  26.542  11.495
 8682W        W72450  27.466  31.589   0.831
 8683W        W72451  28.964  33.465  13.917
 8684W        W72452  41.437  11.736  12.824
 8685W        W72453  29.572  34.601  11.014
 8686W        W72454   0.478   8.890  11.511
 8687W        W72455   4.368  21.755  13.032
 8688W        W72456  29.999  34.008  12.964
 8689W        W72457  40.909  42.781   1.241
 8690W        W72458  23.211  11.722  12.476
 8691W        W72459   3.876  38.346  13.937
 8692W        W72460  17.244   6.419   4.156
 8693W        W72461  22.652  33.544  11.555
 8694W        W72462  36.891  22.520   2.722
 8695W        W72463  16.596  31.085   2.358
 8696W        W72464   1.861  10.327   0.254
 8697W        W72465  44.999  42.861  11.407
 8698W        W72466  27.484  10.351  11.003
 8699W        W72467   9.261  31.923  12.508
 8700W        W72468  11.641  41.926   4.753
 8701W        W72469  10.658  12.675   9.928
 8702W        W72470  33.987  20.251   0.332
 8703W        W72471  33.447   1.362  12.082
 8704W        W72472  25.588   4.336  11.610
 8705W        W72473  39.824  34.030  11.439
 8706W        W72474  12.323  38.432  14.446
 8707W        W72475  35.981  22.706  12.550
 8708W        W72476   3.414  27.026  13.503
 8709W        W72477  36.070  20.769   4.219
 8710W        W72478  41.412  22.712  14.400
 8711W        W72479  37.543  12.611   1.801
 8712W        W72480   8.725  21.076  10.444
 8713W        W72481   3.867  12.779   3.324
 8714W        W72482  31.401  14.708  14.368
 8715W        W72483  16.601  34.008  12.460
 8716W        W72484  44.911  30.474   1.914
 8717W        W72485  35.393   0.820   0.363
 8718W        W72486  30.592  41.015  12.055
 8719W        W72487  35.466  18.638   2.209
 8720W        W72488  11.148  14.212   2.305
 8721W        W72489   5.277  13.350  13.983
 8722W        W72490  28.467  41.474   0.956
 8723W        W72491  40.457  20.659  12.339
 8724W        W72492  21.714   7.677   3.155
 8725W        W72493  12.349   8.796   4.608
 8726W        W72494   6.309   8.238   3.238
 8727W        W72495   2.867  37.412  12.477
 8728W        W72496  41.322  42.851  13.328
 8729W        W72497  36.538   6.743   2.268
 8730W        W72498  16.316  15.134   2.710
 8731W        W72499  38.520  15.097  12.492
 8732W        W72500  10.233  37.013   3.742
 8733W        W72501  42.857   9.286   0.767
 8734W        W72502  31.017  42.844   3.229
 8735W        W72503  15.097  14.270   4.624
 8736W        W72504  36.487  23.703   2.346
 8737W        W72505  37.006  30.090  10.458
 8738W        W72506   9.737   4.284  14.927
 8739W        W72507  27.168   7.269   3.346
 8740W        W72508  22.737   7.310   4.609
 8741W        W72509   7.193  39.543  13.401
 8742W        W72510  14.300  32.605   2.353
 8743W        W72511  26.584  23.589   3.771
 8744W        W72512  16.578  30.036   4.218
 8745W        W72513  28.516   1.307  11.921
 8746W        W72514  28.061  41.853   2.692
 8747W        W72515  38.495  42.303  11.048
 8748W        W72516  11.325  17.690   4.810
 8749W        W72517  20.744  40.480  11.120
 8750W        W72518  33.040  29.132   3.159
 8751W        W72519  10.218  43.500  10.906
 8752W        W72520  17.223   3.331  10.994
 8753W        W72521  34.613  31.615   3.685
 8754W        W72522  36.072  44.367  14.766
 8755W        W72523  36.062   3.422  11.496
 8756W        W72524  20.162  14.157  11.600
 8757W        W72525  12.129   7.318  12.865
 8758W        W72526   6.305  27.581   4.337
 8759W        W72527  10.347   1.925  13.920
 8760W        W72528  35.561  25.595   2.252
 8761W        W72529  18.738  34.527  12.346
 8762W        W72530   8.351   6.808  14.970
 8763W        W72531   9.760  17.276  14.815
 8764W        W72532  27.655  37.920  14.983
 8765W        W72533  34.374  27.557   2.726
 8766W        W72534  37.986   5.357   2.844
 8767W        W72535   3.790  15.199  10.936
 8768W        W72536   2.899  12.645   1.326
 8769W        W72537  18.726  33.961   4.279
 8770W        W72538   3.871   3.292  10.567
 8771W        W72539   9.237  29.558   0.845
 8772W        W72540  13.658  33.922  11.612
 8773W        W72541   8.836  32.016   2.408
 8774W        W72542  19.053   9.252   4.712
 8775W        W72543  42.447  35.580   3.836
 8776W        W72544  30.105  14.588   2.884
 8777W        W72545   0.480  37.442  11.963
 8778W        W72546  17.181  25.215   5.738
 8779W        W72547  23.073  33.908   3.701
 8780W        W72548   6.339  12.709   0.445
 8781W        W72549  16.582   9.856   0.307
 8782W        W72550  32.988  37.482  10.418
 8783W        W72551  25.985  14.120  13.797
 8784W        W72552  17.773  26.097   1.385
 8785W        W72553  42.033  10.823   0.425
 8786W        W72554  12.276  28.481  12.971
 8787W        W72555  33.014  33.529   3.674
 8788W        W72556   5.790  14.281  13.792
 8789W        W72557  40.356  20.224   0.467
 8790W        W72558  42.924   3.447   2.344
 8791W        W72559   6.275  38.858   5.178
 8792W        W72560  33.917  42.349  10.516
 8793W        W72561  29.139  10.701  14.027
 8794W        W72562   7.206  33.545   2.289
 8795W        W72563  21.158  21.149   1.404
 8796W        W72564   0.256  21.690  14.489
 8797W        W72565  16.299  18.606  13.471
 8798W        W72566  14.813  28.186   3.162
 8799W        W72567  17.301  36.570   1.242
 8800W        W72568   6.397  12.749   0.954
 8801W        W72569  24.690   7.701  13.865
 8802W        W72570  17.778  32.524  14.906
 8803W        W72571  20.745  15.091  14.446
 8804W        W72572  20.252  26.501   4.663
 8805W        W72573  44.414  12.759   2.786
 8806W        W72574  40.869  28.942   9.991
 8807W        W72575  44.391  33.916  12.406
 8808W        W72576  33.418  39.497   1.265
 8809W        W72577   4.316  27.058  14.512
 8810W        W72578   7.319  20.768   0.916
 8811W        W72579  17.739   3.841   4.248
 8812W        W72580  43.439  37.001   1.309
 8813W        W72581  32.943  42.936  10.469
 8814W        W72582  35.099  12.689   2.838
 8815W        W72583  15.180  13.611   1.720
 8816W        W72584  20.054  44.415  14.909
 8817W        W72585  10.830  33.940  14.510
 8818W        W72586  29.474   6.727  11.880
 8819W        W72587  32.109  30.631  13.539
 8820W        W72588  44.933  22.583  14.306
 8821W        W72589  21.182   6.738   3.382
 8822W        W72590   7.403  31.442  11.954
 8823W        W72591  19.700  30.921   2.373
 8824W        W72592  35.420  13.151  10.565
 8825W        W72593  20.762  11.775  11.917
 8826W        W72594  12.173  18.290  13.485
 8827W        W72595  25.210  27.465   0.891
 8828W        W72596  13.217   7.837   1.726
 8829W        W72597  23.612  14.705   4.673
 8830W        W72598   8.791  38.068   4.647
 8831W        W72599  11.841  17.093   2.738
 8832W        W72600   2.307   6.800  14.861
 8833W        W72601  25.681  34.932  13.040
 8834W        W72602  18.697  44.835  13.971
 8835W        W72603  22.588   1.954  12.356
 8836W        W72604  19.190  38.905  13.905
 8837W        W72605   7.672  19.685  10.486
 8838W        W72606  31.573  39.402   3.158
 8839W        W72607  29.963  44.401  12.505
 8840W        W72608   4.894  42.468  14.289
 8841W        W72609  39.445  20.227   1.336
 8842W        W72610  35.454  23.508   0.259
 8843W        W72611  16.240  28.111  13.918
 8844W        W72612  38.837  35.376  14.871
 8845W        W72613  27.553   4.908   4.246
 8846W        W72614  31.990  16.087   4.837
 8847W        W72615  27.961  36.505   5.214
 8848W        W72616  33.963  33.949   0.402
 8849W        W72617   8.863   6.836  14.026
 8850W        W72618  30.574   0.400  10.565
 8851W        W72619  34.013  34.481  11.953
 8852W        W72620  26.011  22.657   4.187
 8853W        W72621  17.776  36.529   3.321
 8854W        W72622  18.110   9.221  14.967
 8855W        W72623  44.771  38.861   3.205
 8856W        W72624   8.900  28.057  14.326
 8857W        W72625  21.584   1.375   4.787
 8858W        W72626  36.423  13.791  14.365
 8859W        W72627  23.119  29.934  12.354
 8860W        W72628  35.946  14.278  14.387
 8861W        W72629   8.394  10.672   3.742
 8862W        W72630  19.739  27.071  10.916
 8863W        W72631  41.466  34.374   3.302
 8864W        W72632  23.179  41.867  11.960
 8865W        W72633  42.378  23.520   2.684
 8866W        W72634   1.352  27.126  10.638
 8867W        W72635  10.144  18.071   2.214
 8868W        W72636  24.024  35.872  12.902
 8869W        W72637  13.609  38.447   4.740
 8870W        W72638  44.497  12.336   3.752
 8871W        W72639   3.224   1.870   2.247
 8872W        W72640  26.190  25.711  14.427
 8873W        W72641  16.684  30.642   3.263
 8874W        W72642   7.407   2.373  11.524
 8875W        W72643  25.092  44.339   2.276
 8876W        W72644  44.383   4.216   1.777
 8877W        W72645  30.532   9.337   3.169
 8878W        W72646  15.641  13.752  12.573
 8879W        W72647  39.463  33.038  14.297
 8880W        W72648  43.016  26.599  12.462
 8881W        W72649  12.746  16.230   1.737
 8882W        W72650  14.172  35.450   0.473
 8883W        W72651  33.965  29.608   0.311
 8884W        W72652  41.806   9.724   1.300
 8885W        W72653  16.088  28.022   2.820
 8886W        W72654   5.746  36.374  13.363
 8887W        W72655  31.455  24.515   3.151
 8888W        W72656  38.073  29.505   1.392
 8889W        W72657   3.294   4.205   4.229
 8890W        W72658  30.137  33.079   3.795
 8891W        W72659  42.356  29.548   1.749
 8892W        W72660  36.485   4.784  14.418
 8893W        W72661  15.182  20.689  13.027
 8894W        W72662  14.788  36.952  14.387
 8895W        W72663  34.075  13.115  11.504
 8896W        W72664  42.013  36.924  13.327
 8897W        W72665  19.747  23.542   3.263
 8898W        W72666  40.468   0.384  10.418
 8899W        W72667  43.940  14.758  13.314
 8900W        W72668  43.898   5.313   1.813
 8901W        W72669  16.810  25.669   9.969
 8902W        W72670  26.531  39.814   4.637
 8903W        W72671   2.761   4.830   9.952
 8904W        W72672   7.354  25.119   5.160
 8905W        W72673  10.236  41.411  10.477
 8906W        W72674  18.626  35.017   0.358
 8907W        W72675  19.597   4.406  10.974
 8908W        W72676  41.500   5.354  13.952
 8909W        W72677  43.842  28.086   1.864
 8910W        W72678  17.112  34.087   5.229
 8911W        W72679  28.975  19.205   1.852
 8912W        W72680  12.270  11.267  11.020
 8913W        W72681  33.601   6.219  10.612
 8914W        W72682   9.356   6.881   0.295
 8915W        W72683  39.396   9.188  14.783
 8916W        W72684   2.443  13.216  12.075
 8917W        W72685  39.479   4.868  10.541
 8918W        W72686  42.467  43.430  10.596
 8919W        W72687  22.658  43.465   4.666
 8920W        W72688  24.535  13.828   1.332
 8921W        W72689  18.687  39.332  11.087
 8922W        W72690  38.050  23.725  10.414
 8923W        W72691  40.438  27.179  14.479
 8924W        W72692  26.042   2.841  11.924
 8925W        W72693   2.239  30.444  12.990
 8926W        W72694  41.874   1.432   4.671
 8927W        W72695  17.781  39.832   1.857
 8928W        W72696  21.680   4.701   1.810
 8929W        W72697  27.635  10.216   0.851
 8930W        W72698  23.194  25.698   1.439
 8931W        W72699  42.791   2.876  14.862
 8932W        W72700  38.421  23.579   1.765
 8933W        W72701  26.654  10.644  14.455
 8934W        W72702   4.331  40.831   1.367
 8935W        W72703  44.955  19.193  10.577
 8936W        W72704   5.920  43.313  11.909
 8937W        W72705  25.211  26.156  12.038
 8938W        W72706  43.814   5.744   0.365
 8939W        W72707  23.195  23.092  10.441
 8940W        W72708  41.906  33.448  11.984
 8941W        W72709  26.043  14.219  10.439
 8942W        W72710  10.299   7.770   4.656
 8943W        W72711   9.887  16.218  10.419
 8944W        W72712   1.282  10.745  14.447
 8945W        W72713  20.631  10.284   0.813
 8946W        W72714  44.335  22.574   1.316
 8947W        W72715   4.389  17.302  13.429
 8948W        W72716  21.668   9.782   3.638
 8949W        W72717  15.090  38.337  10.450
 8950W        W72718   0.898  17.560   1.247
 8951W        W72719  25.519  33.071  13.450
 8952W        W72720  18.117   3.261   2.701
 8953W        W72721  27.471  30.928   0.365
 8954W        W72722  15.698   2.848   0.441
 8955W        W72723  34.091  39.491  14.934
 8956W        W72724  11.812  16.692  14.318
 8957W        W72725  16.601  44.904  14.854
 8958W        W72726   3.237  33.520  10.434
 8959W        W72727  32.498   1.305  13.510
 8960W        W72728  42.398  15.237  11.411
 8961W        W72729  27.568  26.179  13.964
 8962W        W72730  23.218   7.683  11.993
 8963W        W72731  44.009  10.185  11.596
 8964W        W72732  41.986  41.998   1.915
 8965W        W72733   9.756  41.940   1.438
 8966W        W72734  38.334  32.563  12.494
 8967W        W72735  35.080  36.534   4.745
 8968W        W72736  15.296  37.458   4.332
 8969W        W72737  31.049  12.840   1.915
 8970W        W72738   0.764   8.399   1.377
 8971W        W72739  23.731   4.826   4.241
 8972W        W72740  33.621  29.659  12.892
 8973W        W72741  34.435  23.720  13.019
 8974W        W72742  19.699  38.516   1.431
 8975W        W72743  44.771   3.296   2.279
 8976W        W72744  37.380   9.727   5.177
 8977W        W72745  40.918   8.327   2.327
 8978W        W72746  15.229  12.203  10.897
 8979W        W72747  43.444  33.564   3.768
 8980W        W72748  20.751  44.486  12.886
 8981W        W72749   0.950  24.060   3.755
 8982W        W72750  20.123   9.835  14.966
 8983W        W72751  37.883  14.763   1.786
 8984W        W72752  10.871   0.948   1.329
 8985W        W72753  37.921  29.599   0.945
 8986W        W72754  12.690  33.978   0.907
 8987W        W72755  28.588  41.008   4.251
 8988W        W72756  41.528   7.801   2.219
 8989W        W72757  22.015   6.203   0.331
 8990W        W72758   3.868   8.175   1.446
 8991W        W72759   4.734  32.132  10.965
 8992W        W72760   5.359  16.256   3.378
 8993W        W72761  22.678  13.327  10.435
 8994W        W72762  15.778  14.609  12.059
 8995W        W72763  12.805  22.606   1.870
 8996W        W72764   0.893  37.429  14.924
 8997W        W72765  35.940   7.693   0.460
 8998W        W72766  23.057  14.619   4.746
 8999W        W72767  39.539   3.324  13.531
 9000W        W72768  19.723  41.405   3.747
 9001W        W72769  24.636  13.731   3.291
 9002W        W72770  43.828  27.092  13.353
 9003W        W72771  21.166  22.248   4.600
 9004W        W72772  31.050  12.142  11.905
 9005W        W72773  43.375   9.825  12.863
 9006W        W72774   6.914  11.268  10.456
 9007W        W72775  26.650  22.625  14.391
 9008W        W72776  31.580  39.874  13.425
 9009W        W72777  23.562   9.385   2.383
 9010W        W72778   8.375  42.364   1.381
 9011W        W72779  37.881  43.837  10.930
 9012W        W72780   3.398  38.368  13.464
 9013W        W72781  21.639  17.774   2.370
 9014W        W72782   4.713  20.758  13.321
 9015W        W72783  14.834  13.702  14.907
 9016W        W72784  32.459  29.571   3.327
 9017W        W72785   9.779   5.737   4.724
 9018W        W72786  24.137   1.756   0.737
 9019W        W72787  10.156   2.364   2.737
 9020W        W72788  31.931   4.743  10.622
 9021W        W72789  36.546  28.569   2.796
 9022W        W72790  12.760  12.673   2.703
 9023W        W72791   0.263  19.701  14.321
 9024W        W72792  40.435  15.656   5.128
 9025W        W72793   0.875  39.047   4.807
 9026W        W72794   8.797  36.379   2.755
 9027W        W72795  43.400  13.257  11.863
 9028W        W72796   0.977  15.759   4.164
 9029W        W72797  30.981  38.500   0.394
 9030W        W72798  25.569  24.028  13.337
 9031W        W72799  37.537  10.656  11.941
 9032W        W72800  17.606  23.065   1.317
 9033W        W72801  44.505   9.792   4.759
 9034W        W72802  23.987   5.352   2.325
 9035W        W72803  19.268  39.879   2.305
 9036W        W72804  37.859   5.909   4.692
 9037W        W72805  22.695  39.952  12.394
 9038W        W72806  22.175  44.850  13.429
 9039W        W72807  40.322  14.704  13.470
 9040W        W72808  42.011   2.336  14.961
 9041W        W72809  10.757  24.028  12.968
 9042W        W72810  31.414  16.123  12.548
 9043W        W72811  35.527  44.944  12.835
 9044W        W72812  29.517  42.024  13.470
 9045W        W72813  32.074  31.033  14.511
 9046W        W72814  10.333   0.440   3.331
 9047W        W72815   4.300  21.036  12.089
 9048W        W72816  28.602  39.989  12.456
 9049W        W72817  19.270  33.498  13.054
 9050W        W72818  38.533  42.889  12.397
 9051W        W72819  10.191   0.783  13.946
 9052W        W72820  38.022   1.855   2.897
 9053W        W72821   7.270  24.524   2.417
 9054W        W72822  22.507   4.851  13.925
 9055W        W72823   5.761   1.738  13.382
 9056W        W72824  28.100  30.532   2.317
 9057W        W72825  13.794   6.727   2.232
 9058W        W72826  14.097  38.405  12.853
 9059W        W72827  19.589   1.944  10.615
 9060W        W72828  13.151  23.010  13.373
 9061W        W72829   2.366  39.809  11.567
 9062W        W72830  32.028  22.089  12.348
 9063W        W72831  38.403  23.693   3.681
 9064W        W72832   1.264  14.226   3.226
 9065W        W72833  30.656  17.130  12.564
 9066W        W72834  38.840  41.383   3.357
 9067W        W72835  14.240  24.719  11.397
 9068W        W72836  19.076  34.479   2.350
 9069W        W72837  23.576   2.418   0.336
 9070W        W72838   7.222   3.845  13.393
 9071W        W72839  42.902  18.260  12.341
 9072W        W72840   0.785   1.799   3.158
 9073W        W72841  41.939  39.412   1.397
 9074W        W72842  11.733   2.396   4.796
 9075W        W72843  32.434  12.772   0.350
 9076W        W72844  35.537  10.370  12.508
 9077W        W72845  31.527   7.380  14.799
 9078W        W72846   9.232  25.072  12.023
 9079W        W72847  25.033  22.082   0.768
 9080W        W72848  20.548  44.918  14.853
 9081W        W72849  19.215  41.853   0.777
 9082W        W72850  23.605  26.492   0.728
 9083W        W72851  23.503  13.234   0.772
 9084W        W72852  43.935  37.517   4.668
 9085W        W72853  21.247   1.448  12.085
 9086W        W72854  35.095  18.692   4.152
 9087W        W72855   6.253  38.074   1.401
 9088W        W72856  38.390  21.067   4.658
 9089W        W72857   7.725  11.764   3.660
 9090W        W72858  17.798  44.300  10.025
 9091W        W72859  20.615  20.725   1.392
 9092W        W72860   5.804  30.430   3.243
 9093W        W72861  24.221  12.313   3.198
 9094W        W72862  39.861   8.254  11.402
 9095W        W72863   0.390  12.145   0.298
 9096W        W72864  21.626  10.639   1.760
 9097W        W72865   8.800  16.643   1.211
 9098W        W72866   3.259  30.427  14.815
 9099W        W72867  31.629  13.254  14.828
 9100W        W72868  13.691   7.780   0.316
 9101W        W72869  33.507  31.012   1.855
 9102W        W72870  36.375  23.050  10.421
 9103W        W72871  15.238  36.383   1.752
 9104W        W72872  32.424  12.336  11.986
 9105W        W72873  26.974  35.477   4.136
 9106W        W72874  11.241  24.129   0.816
 9107W        W72875   6.196   5.312   0.746
 9108W        W72876   0.755  31.548  14.313
 9109W        W72877  12.646  26.136  14.959
 9110W        W72878  14.240  34.587  14.498
 9111W        W72879  34.575   3.853   2.720
 9112W        W72880  36.416  24.528  14.842
 9113W        W72881  19.595  13.812  10.471
 9114W        W72882  21.120   8.234  10.891
 9115W        W72883  37.508  17.236  14.795
 9116W        W72884  25.217  31.033  12.950
 9117W        W72885  35.554  26.986   0.274
 9118W        W72886  42.308  11.339  11.491
 9119W        W72887  40.463  38.365  13.850
 9120W        W72888   6.820  36.364  10.580
 9121W        W72889  43.439  30.456  11.961
 9122W        W72890   5.320  21.739   4.760
 9123W        W72891   6.305  15.583   0.473
 9124W        W72892  32.440  29.937   1.419
 9125W        W72893  16.232  22.999  14.336
 9126W        W72894  21.068  15.704   0.247
 9127W        W72895   5.326  16.079   4.120
 9128W        W72896  30.923  28.540  13.374
 9129W        W72897  10.796  27.072   1.781
 9130W        W72898  14.156  12.318  14.019
 9131W        W72899   3.888  22.035  10.553
 9132W        W72900  23.051   6.428   3.649
 9133W        W72901  12.291  28.178  13.856
 9134W        W72902   3.419  35.540   2.895
 9135W        W72903  13.777   4.448  14.823
 9136W        W72904   5.832  28.500   3.351
 9137W        W72905  39.018  23.164  14.902
 9138W        W72906  38.938  21.748  13.405
 9139W        W72907  15.754   6.840  10.581
 9140W        W72908   0.754   2.436   2.264
 9141W        W72909  33.003  30.653   3.656
 9142W        W72910  10.366  16.738   2.855
 9143W        W72911  37.504  36.523  11.874
 9144W        W72912  21.247  11.336   2.735
 9145W        W72913  17.284  20.236  14.282
 9146W        W72914  39.050  38.344  12.036
 9147W        W72915  42.828   0.866  12.373
 9148W        W72916  32.525  42.788  12.513
 9149W        W72917  38.434   7.906   3.321
 9150W        W72918  26.681  19.060   0.847
 9151W        W72919  34.017  24.224   0.323
 9152W        W72920  30.488  33.461   3.370
 9153W        W72921  37.546   3.779   3.185
 9154W        W72922  15.179   1.854  12.997
 9155W        W72923  33.387  43.865  13.419
 9156W        W72924   8.707  31.147  13.370
 9157W        W72925  10.721  10.214   3.185
 9158W        W72926  17.302  11.317  11.866
 9159W        W72927  12.168  34.043   4.353
 9160W        W72928  26.642  34.488  12.941
 9161W        W72929  43.865  24.024   0.354
 9162W        W72930  21.672  37.986   1.267
 9163W        W72931  14.147  42.945  10.491
 9164W        W72932   6.741  41.455   0.935
 9165W        W72933  10.811  28.051   1.222
 9166W        W72934  29.001  20.604   3.316
 9167W        W72935  29.482  44.315  11.592
 9168W        W72936  13.240  43.495  14.303
 9169W        W72937  20.226  38.351   4.700
 9170W        W72938  19.735  16.758   4.761
 9171W        W72939  20.161  19.600   0.835
 9172W        W72940   9.284  17.277   0.360
 9173W        W72941  41.462  14.217   3.639
 9174W        W72942   8.344  14.691   4.216
 9175W        W72943  40.895  25.681   1.816
 9176W        W72944  26.062  29.656   3.298
 9177W        W72945  43.834  37.540   3.354
 9178W        W72946  25.985  19.066  14.771
 9179W        W72947   8.353  30.523  13.873
 9180W        W72948   2.311  37.046  13.911
 9181W        W72949  43.909  43.441   3.669
 9182W        W72950  28.037  32.973   3.748
 9183W        W72951  43.811   0.372   3.348
 9184W        W72952  36.383  18.233  14.783
 9185W        W72953  18.598  16.193  14.425
 9186W        W72954  22.170  27.613  11.888
 9187W        W72955  13.214  15.704   3.147
 9188W        W72956  14.151   9.172  12.484
 9189W        W72957  11.265  18.060   2.730
 9190W        W72958   4.836  26.489   5.278
 9191W        W72959  43.797   0.470  14.497
 9192W        W72960  43.500  44.003   0.417
 9193W        W72961  21.209  43.402   1.238
 9194W        W72962  34.404  20.152   1.399
 9195W        W72963  26.499  43.862  10.443
 9196W        W72964  24.527  22.745  11.601
 9197W        W72965   1.284  36.451   2.370
 9198W        W72966  17.667  21.553  11.929
 9199W        W72967   6.784  39.840  10.588
 9200W        W72968  36.968  15.136  11.610
 9201W        W72969   2.369  17.224   4.139
 9202W        W72970  12.123  11.850  12.340
 9203W        W72971   6.369   8.186  11.027
 9204W        W72972  38.028  13.232   4.775
 9205W        W72973   7.211   8.808  10.542
 9206W        W72974  42.509  42.368  10.458
 9207W        W72975   1.253  20.702   2.395
 9208W        W72976  22.660  36.464   4.235
 9209W        W72977  17.255  32.022   5.142
 9210W        W72978   7.909  11.861  12.865
 9211W        W72979  36.901  35.998   4.634
 9212W        W72980  13.801   8.239  11.545
 9213W        W72981  26.633  43.410  14.342
 9214W        W72982  27.974  30.144   2.369
 9215W        W72983  16.643  10.711   2.316
 9216W        W72984   8.268  25.688  14.440
 9217W        W72985   0.279  22.996  14.480
 9218W        W72986   1.736  44.011   1.747
 9219W        W72987  16.103  43.853  14.887
 9220W        W72988  42.495  12.255  10.465
 9221W        W72989  28.452  40.829   2.705
 9222W        W72990  12.283  22.201   1.444
 9223W        W72991  23.169  42.347   3.771
 9224W        W72992  30.611  17.685  14.505
 9225W        W72993  13.344  19.128   3.685
 9226W        W72994  24.197  10.281   3.696
 9227W        W72995  28.680  36.040  12.380
 9228W        W72996   5.932  38.372  11.897
 9229W        W72997  26.701   4.760   1.835
 9230W        W72998  23.239   2.930   3.731
 9231W        W72999  23.093   6.264  10.435
 9232W        W73000  18.241  19.219  12.480
 9233W        W73001   1.463  44.267   3.314
 9234W        W73002  27.075  27.963  13.861
 9235W        W73003  39.902  17.652   4.685
 9236W        W73004   7.735   7.679   3.734
 9237W        W73005  26.634   1.280  11.038
 9238W        W73006   4.827   8.765  14.800
 9239W        W73007  24.656  33.482   2.842
 9240W        W73008  37.484   0.492   3.849
 9241W        W73009  13.704  14.807   1.274
 9242W        W73010   3.454  34.913  14.859
 9243W        W73011  21.532  12.748   0.466
 9244W        W73012  12.806   7.181  13.963
 9245W        W73013   6.801  26.065  10.578
 9246W        W73014  44.816  15.186   1.389
 9247W        W73015  10.636  16.636  11.434
 9248W        W73016  22.522   5.733   1.697
 9249W        W73017  11.854  29.480  10.553
 9250W        W73018  42.932   0.378   2.750
 9251W        W73019  21.606   5.751  12.485
 9252W        W73020  25.043  31.985  12.088
 9253W        W73021  35.039  13.248   4.649
 9254W        W73022  30.431  33.562   5.098
 9255W        W73023  24.681  33.527   0.878
 9256W        W73024  40.037  37.339  14.387
 9257W        W73025  20.077   8.817  11.013
 9258W        W73026  44.798  37.442  10.640
 9259W        W73027  31.636  36.461  14.453
 9260W        W73028  27.043  10.214   3.787
 9261W        W73029   8.880  27.166   4.127
 9262W        W73030  34.514  28.048   4.657
 9263W        W73031  12.815  42.470   4.783
 9264W        W73032  36.439  44.334   1.770
 9265W        W73033  39.969   1.416  12.065
 9266W        W73034  24.637  25.611  12.922
 9267W        W73035   0.456   7.836   4.240
 9268W        W73036  38.564   0.486   1.238
 9269W        W73037  36.045  40.417  13.356
 9270W        W73038   7.228  39.399   4.835
 9271W        W73039  23.095  43.929   4.312
 9272W        W73040   0.932  40.327  12.457
 9273W        W73041  33.003  10.375  12.886
 9274W        W73042  44.341  39.058  14.351
 9275W        W73043  14.624  37.535   3.159
 9276W        W73044  30.079   4.881   4.736
 9277W        W73045   9.659   7.365   1.260
 9278W        W73046   9.668   0.454  13.929
 9279W        W73047  19.192   9.391  13.864
 9280W        W73048  41.460  21.212  12.416
 9281W        W73049  15.252   1.380   4.666
 9282W        W73050  40.963   6.284  11.110
 9283W        W73051  22.703  12.855  14.368
 9284W        W73052  39.063  41.966   1.896
 9285W        W73053  12.751  34.994   0.913
 9286W        W73054  25.996  11.816  14.008
 9287W        W73055   8.324  43.439   4.246
 9288W        W73056  21.179  21.187  13.471
 9289W        W73057  13.338  10.249   4.227
 9290W        W73058  25.634  44.315  14.952
 9291W        W73059  23.581   2.780   2.901
 9292W        W73060  11.818  24.156  10.515
 9293W        W73061  43.845  32.509  14.899
 9294W        W73062  21.075  31.454  11.554
 9295W        W73063   4.353  30.139   0.391
 9296W        W73064   4.748  36.454  11.926
 9297W        W73065   6.322  27.156  12.522
 9298W        W73066  18.578  18.294  12.512
 9299W        W73067  15.196   8.768  14.022
 9300W        W73068  40.898  11.852  13.791
 9301W        W73069  44.940  31.952  11.371
 9302W        W73070   0.291  33.439   0.848
 9303W        W73071  26.667  28.014   1.368
 9304W        W73072   0.425  44.812   0.424
 9305W        W73073   0.961   4.406  10.993
 9306W        W73074  24.586  35.561   4.719
 9307W        W73075  33.085  39.517   1.412
 9308W        W73076  14.751  16.296  10.580
 9309W        W73077  32.425   5.423   0.728
 9310W        W73078   5.805  29.513  11.915
 9311W        W73079  12.186   8.807   2.406
 9312W        W73080  31.612   3.299   1.884
 9313W        W73081  23.711  31.042  11.984
 9314W        W73082  16.151   5.436  14.332
 9315W        W73083  21.664  13.634   0.904
 9316W        W73084   6.887  44.908   1.332
 9317W        W73085  41.939  23.621   9.970
 9318W        W73086  21.234  35.504  13.907
 9319W        W73087  31.146  20.173   1.251
 9320W        W73088  24.203  25.060  10.585
 9321W        W73089   5.347  20.550  11.605
 9322W        W73090  24.061   8.386   2.411
 9323W        W73091  12.282   2.949  13.494
 9324W        W73092  39.862  36.577   1.713
 9325W        W73093  36.378  16.699   3.175
 9326W        W73094  41.484  20.624   4.124
 9327W        W73095  33.034  24.714   1.448
 9328W        W73096  32.996  37.061   0.824
 9329W        W73097  11.240  43.852   3.192
 9330W        W73098  40.328  13.219   0.886
 9331W        W73099  32.556   6.880   3.162
 9332W        W73100  10.758  41.876   1.283
 9333W        W73101   9.310   5.687   2.811
 9334W        W73102  27.609   5.739  13.058
 9335W        W73103  36.083  37.524  14.909
 9336W        W73104  41.849  12.712   1.278
 9337W        W73105  33.084   4.835   1.765
 9338W        W73106  42.460  11.183  11.048
 9339W        W73107   6.182  29.025  13.978
 9340W        W73108  25.055  33.611   0.895
 9341W        W73109  23.560  20.574  13.457
 9342W        W73110  10.659  13.788   4.200
 9343W        W73111  35.872  15.790  12.508
 9344W        W73112  26.170  15.763  13.050
 9345W        W73113  11.736  36.452  14.281
 9346W        W73114  37.068  14.590   2.214
 9347W        W73115  10.812   9.683   4.598
 9348W        W73116  21.086  14.208  12.881
 9349W        W73117   3.289  23.130   4.297
 9350W        W73118  22.718  24.162   4.675
 9351W        W73119  42.437  36.018  12.489
 9352W        W73120  27.144  42.324   4.724
 9353W        W73121  29.502  23.135  12.397
 9354W        W73122  34.418  25.555  10.481
 9355W        W73123  38.460  11.624  10.417
 9356W        W73124  22.679   5.311  12.376
 9357W        W73125   8.288  29.587   3.340
 9358W        W73126  20.219  37.875  14.941
 9359W        W73127  31.551   2.779  11.404
 9360W        W73128  36.523  44.488   2.209
 9361W        W73129  34.574  33.505   1.299
 9362W        W73130  39.321  22.106  10.493
 9363W        W73131  16.763  18.137   2.261
 9364W        W73132   0.791  27.092  14.779
 9365W        W73133  37.836   3.846  13.984
 9366W        W73134   4.322  28.110  14.311
 9367W        W73135   0.475  30.118  13.477
 9368W        W73136   3.953  38.553   3.725
 9369W        W73137  23.213  11.365  13.516
 9370W        W73138  30.531  28.559   2.410
 9371W        W73139  13.740  32.564  12.479
 9372W        W73140  33.535  32.493  14.334
 9373W        W73141  13.280  10.223  10.467
 9374W        W73142  11.204  42.912  14.362
 9375W        W73143  24.061  23.527   1.806
 9376W        W73144  37.388   5.359  13.036
 9377W        W73145  28.096   4.287  12.897
 9378W        W73146   2.373   7.858   4.784
 9379W        W73147   3.757  16.709  14.836
 9380W        W73148  19.240  16.098   2.389
 9381W        W73149  23.647   7.210  11.562
 9382W        W73150  39.055  17.277  10.913
 9383W        W73151   9.747  36.051  13.345
 9384W        W73152  28.518  25.485  14.944
 9385W        W73153  14.766  23.701   2.208
 9386W        W73154  26.970  44.352   3.778
 9387W        W73155  21.047  22.684   2.379
 9388W        W73156  42.343  24.511   2.350
 9389W        W73157   0.837   4.865  13.015
 9390W        W73158   0.364  31.907   2.774
 9391W        W73159   9.250   9.271   1.798
 9392W        W73160  42.521   2.860   2.836
 9393W        W73161  34.894  10.789   3.229
 9394W        W73162  25.173  26.573  11.001
 9395W        W73163  23.728   2.914   3.253
 9396W        W73164  36.950  22.628  12.918
 9397W        W73165   5.355  11.821  12.007
 9398W        W73166  23.024  11.690   1.308
 9399W        W73167  35.858  29.107   2.284
 9400W        W73168  17.197  21.184  11.100
 9401W        W73169  34.571   7.174  14.516
 9402W        W73170   2.795  39.816  13.019
 9403W        W73171  42.869  33.067   4.172
 9404W        W73172  44.341  40.046  11.583
 9405W        W73173   0.334  32.483   0.749
 9406W        W73174  27.185   4.353  12.512
 9407W        W73175  42.986   4.782   3.829
 9408W        W73176  27.636  32.913  14.012
 9409W        W73177  32.597  10.372   3.718
 9410W        W73178  36.032  12.653   1.901
 9411W        W73179  30.565   8.860  14.473
 9412W        W73180  41.489   5.203   1.214
 9413W        W73181  28.460  40.316  13.054
 9414W        W73182  38.516   4.417   2.328
 9415W        W73183  22.105  43.831  11.399
 9416W        W73184  40.338  41.477   3.811
 9417W        W73185   8.182  20.162  10.951
 9418W        W73186   4.425  42.291  14.008
 9419W        W73187  33.041  39.928  14.912
 9420W        W73188  26.172  28.081  14.993
 9421W        W73189  21.527   0.916  14.384
 9422W        W73190   3.842  15.136   3.703
 9423W        W73191   6.362  14.195   0.276
 9424W        W73192  33.531  12.844   5.130
 9425W        W73193  14.750  11.749  11.476
 9426W        W73194  19.165   3.914  12.407
 9427W        W73195  23.549  19.284   1.363
 9428W        W73196  15.742  33.910   0.956
 9429W        W73197  33.474  17.138   4.171
 9430W        W73198   0.957   9.838  12.864
 9431W        W73199   5.259  22.569  10.606
 9432W        W73200  41.390   4.883  10.547
 9433W        W73201  42.412  37.476   1.700
 9434W        W73202   3.766  33.887  14.766
 9435W        W73203  20.264  41.526  11.444
 9436W        W73204  37.004  29.515   5.243
 9437W        W73205   0.942  26.114  10.507
 9438W        W73206   6.786  24.217   0.362
 9439W        W73207   5.246  34.891  10.619
 9440W        W73208  16.689  19.140  13.973
 9441W        W73209  29.113  42.499   1.834
 9442W        W73210  20.756  22.670   3.366
 9443W        W73211  27.483  41.933   3.310
 9444W        W73212   6.195  26.076   0.340
 9445W        W73213  14.198  17.303  12.042
 9446W        W73214  25.655  22.663   4.181
 9447W        W73215   8.795   4.899   2.339
 9448W        W73216  40.882  14.628  11.528
 9449W        W73217  22.630  28.504  10.996
 9450W        W73218  35.898  21.083  13.030
 9451W        W73219  19.144  22.087  13.397
 9452W        W73220  11.360  14.161   0.867
 9453W        W73221  28.460  39.336   0.316
 9454W        W73222  35.901   2.772   0.305
 9455W        W73223  16.809  36.883   4.239
 9456W        W73224  39.532  17.727  12.571
 9457W        W73225  19.075  19.106   2.185
 9458W        W73226  35.443   2.746   1.793
 9459W        W73227  42.524   0.297  13.352
 9460W        W73228  20.529  44.884  13.409
 9461W        W73229  38.897  42.013   4.154
 9462W        W73230  30.507   9.186  12.542
 9463W        W73231  14.296  15.673  13.951
 9464W        W73232  35.382  29.579   4.185
 9465W        W73233  23.625  44.871  11.090
 9466W        W73234  18.594  33.588  10.592
 9467W        W73235  42.331   2.735  12.881
 9468W        W73236  39.947  11.168  13.887
 9469W        W73237   2.239   5.702  12.354
 9470W        W73238  22.053  35.535   2.343
 9471W        W73239  18.202   5.768   2.694
 9472W        W73240   6.220   9.766  13.945
 9473W        W73241  41.839  41.979  14.938
 9474W        W73242  17.132  18.653   3.285
 9475W        W73243  11.322   9.814   4.723
 9476W        W73244   7.180   3.263  13.837
 9477W        W73245  39.970  27.158  11.590
 9478W        W73246  41.333   0.871   1.325
 9479W        W73247   2.239  23.987   3.727
 9480W        W73248  23.009  37.503   3.149
 9481W        W73249  43.489  33.064   1.930
 9482W        W73250  30.446  29.579   4.138
 9483W        W73251  25.139  16.642   0.420
 9484W        W73252  28.626  26.208   3.379
 9485W        W73253  33.379  16.145   0.359
 9486W        W73254   5.884   2.799   2.806
 9487W        W73255  10.728   5.424   2.755
 9488W        W73256  23.091  36.997   4.757
 9489W        W73257  28.537  12.660  11.557
 9490W        W73258  35.462  37.875  14.786
 9491W        W73259  18.558   1.329  14.823
 9492W        W73260  19.752  35.596  11.074
 9493W        W73261  40.504  41.425  12.884
 9494W        W73262  21.614  38.976   0.364
 9495W        W73263  22.041  12.741  13.882
 9496W        W73264  42.884   0.417   4.718
 9497W        W73265  23.087  31.574   0.313
 9498W        W73266  21.664  11.837   2.885
 9499W        W73267  43.783  43.848   2.846
 9500W        W73268  17.141  19.722   4.832
 9501W        W73269  14.767  36.915  10.586
 9502W        W73270  40.401  34.072   1.311
 9503W        W73271  26.687  37.500  10.551
 9504W        W73272  17.599  22.551  13.911
 9505W        W73273  15.685  21.602  12.361
 9506W        W73274  35.933  36.571  10.584
 9507W        W73275  17.268  18.663  14.941
 9508W        W73276  39.023  38.904  12.527
 9509W        W73277  22.571  23.614   4.661
 9510W        W73278  37.535   8.288  13.426
 9511W        W73279  27.031  25.066  11.437
 9512W        W73280   8.774  37.383  10.950
 9513W        W73281   0.477  28.556  10.585
 9514W        W73282  36.074  15.616   4.167
 9515W        W73283  35.050  33.904  12.546
 9516W        W73284  23.571  29.161   1.790
 9517W        W73285  24.091   3.280   0.296
 9518W        W73286  39.490  19.719  12.473
 9519W        W73287  43.494  44.860  11.123
 9520W        W73288  30.087  30.548   0.290
 9521W        W73289  33.545  35.910   3.645
 9522W        W73290  33.619   6.745  14.485
 9523W        W73291  10.807  18.104   2.685
 9524W        W73292   6.876  29.023  10.552
 9525W        W73293  32.964  28.656  12.834
 9526W        W73294  17.290  16.180   2.879
 9527W        W73295  25.673   0.316  10.427
 9528W        W73296  19.771   1.454  11.056
 9529W        W73297  27.573  10.309  12.999
 9530W        W73298  11.261   6.812   1.811
 9531W        W73299  40.489  34.406   0.786
 9532W        W73300  14.816  23.597  13.922
 9533W        W73301   5.838  15.706   1.211
 9534W        W73302   9.820  11.305   4.305
 9535W        W73303  10.866  43.843  12.527
 9536W        W73304   2.453  28.604   2.782
 9537W        W73305   6.717  32.543   4.716
 9538W        W73306  13.745  35.981  13.514
 9539W        W73307   3.948  24.493  10.459
 9540W        W73308  33.602  29.521  10.623
 9541W        W73309  42.947  36.979  11.000
 9542W        W73310  44.360  42.914  13.972
 9543W        W73311   1.249  35.000   1.810
 9544W        W73312   2.947  12.734   2.665
 9545W        W73313  13.710   4.897  11.067
 9546W        W73314  27.995   1.282  13.841
 9547W        W73315  33.006  11.827  14.359
 9548W        W73316  44.941  26.981  14.945
 9549W        W73317  16.241  19.136   3.160
 9550W        W73318  27.164  19.213  13.797
 9551W        W73319  34.094  40.838   2.337
 9552W        W73320   9.856  32.406  12.015
 9553W        W73321  13.751  33.614   0.790
 9554W        W73322  38.350  27.100   3.651
 9555W        W73323   9.273  22.591   2.852
 9556W        W73324  17.096  15.657  10.405
 9557W        W73325  36.042  17.755  12.396
 9558W        W73326  39.968  40.818   0.806
 9559W        W73327  34.090  38.447   1.354
 9560W        W73328  13.244  29.103  13.856
 9561W        W73329  17.677  32.496  12.365
 9562W        W73330  17.117   1.836  14.009
 9563W        W73331  16.258   9.800  11.425
 9564W        W73332  15.212   0.903   0.939
 9565W        W73333   8.345  38.551  14.003
 9566W        W73334  15.818  17.656   2.688
 9567W        W73335  26.984  23.685  11.570
 9568W        W73336  12.623   5.305  11.063
 9569W        W73337  34.900  37.865   3.680
 9570W        W73338  39.345   6.200   0.384
 9571W        W73339  18.711  28.134   1.317
 9572W        W73340  39.018  33.887  12.399
 9573W        W73341   1.264   6.257  12.485
 9574W        W73342  30.513  33.546  12.856
 9575W        W73343   6.316  20.155  13.427
 9576W        W73344  16.656  33.120   4.293
 9577W        W73345  15.119  36.901   2.715
 9578W        W73346  27.653  22.517  13.907
 9579W        W73347  38.847  20.042   1.869
 9580W        W73348   8.663  40.860   1.721
 9581W        W73349  13.637  40.492  14.503
 9582W        W73350  43.018   4.849  12.893
 9583W        W73351   2.374  34.370   9.968
 9584W        W73352  37.883  18.161  11.431
 9585W        W73353  43.448  35.093   2.309
 9586W        W73354   0.297  33.455   2.284
 9587W        W73355  12.664   7.809   0.758
 9588W        W73356  33.515  22.247   4.323
 9589W        W73357  31.512  27.520   4.300
 9590W        W73358   2.396   7.694  12.384
 9591W        W73359  19.609  21.683   4.180
 9592W        W73360  10.156  25.212  12.018
 9593W        W73361  20.606  25.083   3.262
 9594W        W73362  31.588   2.233   4.334
 9595W        W73363  25.518  19.548  10.967
 9596W        W73364   1.861  43.777   4.255
 9597W        W73365  26.495  29.431   2.243
 9598W        W73366  28.669  30.135   2.237
 9599W        W73367  23.513   6.715   1.336
 9600W        W73368  44.459   9.664   3.835
 9601W        W73369  41.445  27.610  10.962
 9602W        W73370  18.626  32.048   4.117
 9603W        W73371  11.849  44.442  10.911
 9604W        W73372  14.113  34.404   1.234
 9605W        W73373  41.878  19.185  11.954
 9606W        W73374  29.171  21.640  13.875
 9607W        W73375  20.160  10.357  14.378
 9608W        W73376  22.207  21.060   0.878
 9609W        W73377   4.298  25.146   2.396
 9610W        W73378   2.456   3.740   1.732
 9611W        W73379   4.260  24.229  10.965
 9612W        W73380  15.168  41.820  10.529
 9613W        W73381  40.895  31.111  10.632
 9614W        W73382   3.934   0.867   3.745
 9615W        W73383  10.232  42.016  13.403
 9616W        W73384   4.421  38.335  13.483
 9617W        W73385  43.802  37.879   2.703
 9618W        W73386   4.382  32.114   1.763
 9619W        W73387  14.237  23.240  12.870
 9620W        W73388   9.676  44.388   4.205
 9621W        W73389  17.663   2.799   3.700
 9622W        W73390  18.208   2.250  12.375
 9623W        W73391   9.720  19.620  12.363
 9624W        W73392  21.168  28.662   0.265
 9625W        W73393  15.269  35.483   0.877
 9626W        W73394  42.355  29.643   0.369
 9627W        W73395   4.443  28.988  13.410
 9628W        W73396  15.102  19.655   3.158
 9629W        W73397   1.864  15.294   2.224
 9630W        W73398  26.463  39.535   0.466
 9631W        W73399   5.869   3.342  13.015
 9632W        W73400  19.226  29.599  11.077
 9633W        W73401  25.030   2.468  12.931
 9634W        W73402  13.105  27.136   0.445
 9635W        W73403   9.368  19.536  12.067
 9636W        W73404   6.361  15.292  12.846
 9637W        W73405  41.483  25.517  13.523
 9638W        W73406  32.443  25.108  13.362
 9639W        W73407  18.715  10.283  13.491
 9640W        W73408  39.482  39.878   4.604
 9641W        W73409   5.720   1.286  13.469
 9642W        W73410  19.159  34.541   0.910
 9643W        W73411   6.823   2.291  14.877
 9644W        W73412  42.842  20.696   3.777
 9645W        W73413  38.878  23.721   4.661
 9646W        W73414  17.755  10.759  11.035
 9647W        W73415   6.280  42.820   3.725
 9648W        W73416  30.016   6.215  14.021
 9649W        W73417  22.645  29.164   1.706
 9650W        W73418   7.355  40.488   1.331
 9651W        W73419  15.601   5.253   2.194
 9652W        W73420  31.941  32.553   1.349
 9653W        W73421  42.466  39.413   4.181
 9654W        W73422  22.088  32.910   1.769
 9655W        W73423  23.694  32.916  12.955
 9656W        W73424   6.917  12.692  10.412
 9657W        W73425  15.691  32.967  14.819
 9658W        W73426   0.274   9.362  10.551
 9659W        W73427   6.680  17.270  12.081
 9660W        W73428   6.901   6.821  10.605
 9661W        W73429  15.786  39.344   1.375
 9662W        W73430  20.630  21.052   1.379
 9663W        W73431  17.748  22.677  14.357
 9664W        W73432  16.792   4.937  14.310
 9665W        W73433  41.852  14.135  14.016
 9666W        W73434  43.997  43.007   4.655
 9667W        W73435  34.473  38.412  11.085
 9668W        W73436   8.319  20.054   4.292
 9669W        W73437  15.657  39.431  11.006
 9670W        W73438  42.499  26.525  13.372
 9671W        W73439  23.717  37.526   1.745
 9672W        W73440  40.946  35.473   4.603
 9673W        W73441  13.164  11.690  11.915
 9674W        W73442  28.176  39.010  10.602
 9675W        W73443   0.338  39.898  14.887
 9676W        W73444   6.804  35.042   2.250
 9677W        W73445   9.194  41.964   2.721
 9678W        W73446  39.332   5.829   5.666
 9679W        W73447   8.321  18.749   2.269
 9680W        W73448  12.855  34.558  13.864
 9681W        W73449   4.730  35.955   4.744
 9682W        W73450   3.315  20.035   2.855
 9683W        W73451  43.512   4.851   3.167
 9684W        W73452  40.833  31.431   5.103
 9685W        W73453  27.500  40.487  12.444
 9686W        W73454  34.428  30.947   2.232
 9687W        W73455  43.398  21.676   0.443
 9688W        W73456   0.875  42.379  11.503
 9689W        W73457  30.113  37.482  11.445
 9690W        W73458  39.511  11.231  13.460
 9691W        W73459  38.006  37.975   3.847
 9692W        W73460   5.753  35.485  12.441
 9693W        W73461  41.405  40.401  11.562
 9694W        W73462  16.702  22.730  13.921
 9695W        W73463  24.656   4.308   3.787
 9696W        W73464   8.899   7.198  11.985
 9697W        W73465  44.299  30.149  13.053
 9698W        W73466  42.339  30.426   1.403
 9699W        W73467  41.838   2.381   1.393
 9700W        W73468  22.741   2.264  13.457
 9701W        W73469  18.245  21.618   1.307
 9702W        W73470  27.636  31.956   1.935
 9703W        W73471  27.010  19.764  11.610
 9704W        W73472  21.156  39.014   3.768
 9705W        W73473   9.651  29.603  14.023
 9706W        W73474   8.791  20.615  12.905
 9707W        W73475  13.295  25.637   2.317
 9708W        W73476  36.055  13.807   4.200
 9709W        W73477  37.461  25.025   4.622
 9710W        W73478  28.612  27.035  14.481
 9711W        W73479  42.982   5.252  12.418
 9712W        W73480  14.706  33.442  10.477
 9713W        W73481  42.832  35.890  13.419
 9714W        W73482  42.368  19.724  13.948
 9715W        W73483  42.476  16.250   1.432
 9716W        W73484  27.072  25.572  11.521
 9717W        W73485  29.553  10.166   3.816
 9718W        W73486  39.865   4.861  10.990
 9719W        W73487  12.770  41.381  14.501
 9720W        W73488   9.731  33.961  12.527
 9721W        W73489  32.493  18.582   3.700
 9722W        W73490  42.815  40.851   4.757
 9723W        W73491  10.865  38.985   3.268
 9724W        W73492  30.922   4.896   0.468
 9725W        W73493  14.661  24.654   4.837
 9726W        W73494   1.435  18.607  13.798
 9727W        W73495  19.156  33.605  14.432
 9728W        W73496   3.734  22.136   2.665
 9729W        W73497   1.926   5.730   4.829
 9730W        W73498  23.000  31.019   1.317
 9731W        W73499  22.080  34.987   0.909
 9732W        W73500  43.449  10.195   2.203
 9733W        W73501  41.337  14.783  12.874
 9734W        W73502  38.396  29.019   1.329
 9735W        W73503   1.425  27.574   4.692
 9736W        W73504  43.948  36.928   3.702
 9737W        W73505  18.618  32.091  12.524
 9738W        W73506  12.265  23.994  14.785
 9739W        W73507   9.380  27.075  14.025
 9740W        W73508  26.509   5.358  11.860
 9741W        W73509   1.792  42.835   3.179
 9742W        W73510   5.871  10.236  12.866
 9743W        W73511  10.640  22.601  10.619
 9744W        W73512  41.002  26.171  10.438
 9745W        W73513   4.352  18.259   0.849
 9746W        W73514  43.765   4.779   1.879
 9747W        W73515  26.189  41.360  12.501
 9748W        W73516  38.928  16.275  12.447
 9749W        W73517   3.933  43.954  12.909
 9750W        W73518  38.433   4.250  13.897
 9751W        W73519  20.588  12.154  11.014
 9752W        W73520   8.404  18.152  12.000
 9753W        W73521  29.459   5.401   0.444
 9754W        W73522  16.573   7.335  14.785
 9755W        W73523  39.884  44.461  11.048
 9756W        W73524   0.917   3.288  12.498
 9757W        W73525  11.271  41.358  14.894
 9758W        W73526  11.684  29.134   3.667
 9759W        W73527  24.175  42.967   1.313
 9760W        W73528  37.929   2.869  12.958
 9761W        W73529  27.157  19.566  14.475
 9762W        W73530  10.829   1.886   2.681
 9763W        W73531   1.819   9.369  12.027
 9764W        W73532  37.021  23.023  12.867
 9765W        W73533  34.425  22.054  12.048
 9766W        W73534   0.405  18.271   2.252
 9767W        W73535  15.186  16.116  12.509
 9768W        W73536  30.154  28.635  13.504
 9769W        W73537  20.117   6.316   4.218
 9770W        W73538  28.632   3.894  11.886
 9771W        W73539  18.131  27.531  10.490
 9772W        W73540  10.708  41.900  14.013
 9773W        W73541   1.970  44.460   1.877
 9774W        W73542  18.697  33.602   4.262
 9775W        W73543  34.512  40.921  12.052
 9776W        W73544  32.122  28.636   1.893
 9777W        W73545  38.426  24.140   4.329
 9778W        W73546  41.818  42.338  14.492
 9779W        W73547  13.236  29.107   1.222
 9780W        W73548   9.760  15.791  11.958
 9781W        W73549  27.518   6.253   4.325
 9782W        W73550   3.928  14.294  14.852
 9783W        W73551   9.309  26.584  14.282
 9784W        W73552  17.734  38.922   1.721
 9785W        W73553   9.309  36.406   1.875
 9786W        W73554  32.102  10.250   4.747
 9787W        W73555  43.827  41.514  11.909
 9788W        W73556  10.766   4.403   0.830
 9789W        W73557  30.597  13.339  13.526
 9790W        W73558  24.531  27.682  12.482
 9791W        W73559   5.342  10.283   1.725
 9792W        W73560  14.720  30.479   3.266
 9793W        W73561  23.999  18.129  13.546
 9794W        W73562  35.020  36.068   2.277
 9795W        W73563  43.405  12.151   0.377
 9796W        W73564  33.077   0.351   2.840
 9797W        W73565  18.714   2.378  14.440
 9798W        W73566  34.565  44.935   3.808
 9799W        W73567  37.504  42.781   2.761
 9800W        W73568  33.876  44.963  10.956
 9801W        W73569  28.576  29.623   2.279
 9802W        W73570  24.569  38.841   0.330
 9803W        W73571  38.505  22.098   3.247
 9804W        W73572  21.619   2.270  13.482
 9805W        W73573  39.453  16.599   2.264
 9806W        W73574  39.541   2.914  13.869
 9807W        W73575  35.008  22.247   3.212
 9808W        W73576  35.481  42.442   4.272
 9809W        W73577  20.523  34.114   5.202
 9810W        W73578  24.038  10.381  11.542
 9811W        W73579   9.661   9.705  14.802
 9812W        W73580  39.491   8.376  11.549
 9813W        W73581  37.020   4.336  12.536
 9814W        W73582  30.929  10.246   2.275
 9815W        W73583  16.284   3.718  13.932
 9816W        W73584  22.614  31.499   1.829
 9817W        W73585  35.603  29.085  11.444
 9818W        W73586  26.178  30.493   1.246
 9819W        W73587  18.181   3.718   1.295
 9820W        W73588  13.837  42.517   3.319
 9821W        W73589  41.900   4.706  12.984
 9822W        W73590   3.778  37.537   0.346
 9823W        W73591  26.476  17.701  12.435
 9824W        W73592  20.590   5.257  13.905
 9825W        W73593  38.474  21.060   1.793
 9826W        W73594  39.032   0.875  14.307
 9827W        W73595   7.806  21.724  11.531
 9828W        W73596  12.308  41.927  12.013
 9829W        W73597  34.953  29.056  12.360
 9830W        W73598   7.837  10.271  13.820
 9831W        W73599  32.013  28.450  14.454
 9832W        W73600  40.464  14.811   3.162
 9833W        W73601  13.284   2.923   4.612
 9834W        W73602  15.102  19.071   0.803
 9835W        W73603   9.773  11.170   5.623
 9836W        W73604  14.317  16.799   3.196
 9837W        W73605  35.889  20.100   3.242
 9838W        W73606  27.665  38.955  14.339
 9839W        W73607  40.376  34.944  11.441
 9840W        W73608  40.354  38.511   2.884
 9841W        W73609  31.566  20.644   2.211
 9842W        W73610   8.826  44.271  12.096
 9843W        W73611   2.853  12.685   0.444
 9844W        W73612  40.401  28.978  13.929
 9845W        W73613  32.967  31.648  13.480
 9846W        W73614  11.677  17.156   3.706
 9847W        W73615   0.850  25.085   4.777
 9848W        W73616  32.989  41.520  12.004
 9849W        W73617  10.233   7.868  14.433
 9850W        W73618  19.197  18.173  11.398
 9851W        W73619  24.060  11.134   0.292
 9852W        W73620  17.236   9.701  14.786
 9853W        W73621  40.543  43.448   0.771
 9854W        W73622  43.331  27.579   3.857
 9855W        W73623  31.098  11.305  13.999
 9856W        W73624  43.845  33.411  11.471
 9857W        W73625  29.608   9.329  12.083
 9858W        W73626   6.760  43.491  13.456
 9859W        W73627  20.609  38.538  14.382
 9860W        W73628  17.099  35.547   4.306
 9861W        W73629  28.514  15.305   4.239
 9862W        W73630  22.061  40.974  11.049
 9863W        W73631  13.266   3.729  11.455
 9864W        W73632  40.935   4.884  11.574
 9865W        W73633  20.567  41.463  11.503
 9866W        W73634  43.781  31.581  14.287
 9867W        W73635  44.481  38.497  11.384
 9868W        W73636  36.362  40.371  14.298
 9869W        W73637  37.355  33.875   4.120
 9870W        W73638  28.097  34.417   2.278
 9871W        W73639  31.919   4.284  11.006
 9872W        W73640  39.002   6.374   1.313
 9873W        W73641  43.797   3.763   4.708
 9874W        W73642  10.829  16.300   2.705
 9875W        W73643  37.901   4.857  12.011
 9876W        W73644   9.695  24.651  12.061
 9877W        W73645  12.779  24.576  12.924
 9878W        W73646   5.413  27.196   2.727
 9879W        W73647   5.212  40.403  11.015
 9880W        W73648  14.710  35.086  10.405
 9881W        W73649  15.646  36.550  11.530
 9882W        W73650  19.586  40.324  10.981
 9883W        W73651  32.104  29.571  10.923
 9884W        W73652  24.189  41.973  14.307
 9885W        W73653   5.402   7.334  10.921
 9886W        W73654  11.806   3.411  14.917
 9887W        W73655  37.071   9.339  12.405
 9888W        W73656  18.581  28.126   3.263
 9889W        W73657  10.302  33.011  14.324
 9890W        W73658  35.424  12.227  14.934
 9891W        W73659  44.753  23.057   4.158
 9892W        W73660  35.577   0.388   1.893
 9893W        W73661  25.529  35.435   2.417
 9894W        W73662  39.318  28.095   2.187
 9895W        W73663  34.567  11.296  14.361
 9896W        W73664  11.296  26.561  13.506
 9897W        W73665  10.783  14.249   1.281
 9898W        W73666  21.049  28.612  11.916
 9899W        W73667  26.500  40.000   3.205
 9900W        W73668  13.268  18.553  11.608
 9901W        W73669  38.911  31.506  14.505
 9902W        W73670  27.633  41.442  12.019
 9903W        W73671  39.537  17.206  14.889
 9904W        W73672  34.059   1.961   0.824
 9905W        W73673  15.130   3.418  10.453
 9906W        W73674  16.165  20.078   0.292
 9907W        W73675  16.628  43.504   2.219
 9908W        W73676  32.527  24.222  11.122
 9909W        W73677  14.749  13.685  10.967
 9910W        W73678  23.989  13.681  14.363
 9911W        W73679  21.117   2.256   1.770
 9912W        W73680  16.248  27.143   3.319
 9913W        W73681  17.227  44.874   1.790
 9914W        W73682  28.120  21.256   4.301
 9915W        W73683  24.165  15.690  10.963
 9916W        W73684  15.617  23.195   5.109
 9917W        W73685  30.910  22.579  12.961
 9918W        W73686  14.617   7.292  10.626
 9919W        W73687  27.540   6.248  14.797
 9920W        W73688  34.891   0.434  11.052
 9921W        W73689  33.563  13.686  12.830
 9922W        W73690  12.256   8.681  13.478
 9923W        W73691   6.363   3.745  12.923
 9924W        W73692  21.626  34.044  14.430
 9925W        W73693   8.776  12.626   1.796
 9926W        W73694   4.900  21.634   2.796
 9927W        W73695  33.540  26.061  11.006
 9928W        W73696  10.142   3.375  14.279
 9929W        W73697  30.094   8.337  12.831
 9930W        W73698  10.846  27.001  12.056
 9931W        W73699  34.450   6.873  10.149
 9932W        W73700  17.721   9.745  12.505
 9933W        W73701  24.565  17.702   2.696
 9934W        W73702  17.716   7.792   3.372
 9935W        W73703  11.255  15.584  12.371
 9936W        W73704  24.514  37.038   3.172
 9937W        W73705  14.131  39.505  13.444
 9938W        W73706  30.611  24.140   4.151
 9939W        W73707  17.234  17.297   2.397
 9940W        W73708  29.453  36.946  13.986
 9941W        W73709  28.633  32.436  10.555
 9942W        W73710  32.088  27.688  12.425
 9943W        W73711  12.640  32.424   2.783
 9944W        W73712  10.275  26.680  14.980
 9945W        W73713  36.869   0.378   2.383
 9946W        W73714   2.852   8.821   2.886
 9947W        W73715   8.316  37.937  11.992
 9948W        W73716  44.465   2.765  12.030
 9949W        W73717  41.383   4.226  13.806
 9950W        W73718   6.721   5.917  10.540
 9951W        W73719  33.521   8.713  13.859
 9952W        W73720  17.604  35.007  10.565
 9953W        W73721   8.776  12.331  13.521
 9954W        W73722  35.438  16.750   4.804
 9955W        W73723   0.288   3.882   2.863
 9956W        W73724  24.009  25.073  14.511
 9957W        W73725   6.385   4.923  12.467
 9958W        W73726   4.373  32.947  14.509
 9959W        W73727  39.865   1.395  12.381
 9960W        W73728   5.793  15.663   4.285
 9961W        W73729   8.254   8.693  12.477
 9962W        W73730   4.935   2.807  11.570
 9963W        W73731  22.204  36.513  12.571
 9964W        W73732  21.108   0.428   1.695
 9965W        W73733  20.580  18.636  11.007
 9966W        W73734  29.434  12.210   3.189
 9967W        W73735  19.650  14.296   4.257
 9968W        W73736  41.940  39.881   3.842
 9969W        W73737  10.852   5.379   0.792
 9970W        W73738  26.616   4.363   4.246
 9971W        W73739  20.037  34.539   1.369
 9972W        W73740  14.141  43.786  10.943
 9973W        W73741  24.495  31.055   0.448
 9974W        W73742  39.002  10.369   4.805
 9975W        W73743   2.233  23.614   2.899
 9976W        W73744   7.684   4.759  10.058
 9977W        W73745  41.384  25.033   1.745
 9978W        W73746   6.919  26.008  14.791
 9979W        W73747  28.521  41.478   3.155
 9980W        W73748  13.749  17.557   4.330
 9981W        W73749  34.996  29.038   3.208
 9982W        W73750  44.003  26.089   1.907
 9983W        W73751   3.227  35.935  12.827
 9984W        W73752  14.662  17.201  14.301
 9985W        W73753  33.104  44.315   2.795
 9986W        W73754  31.896  26.535  13.895
 9987W        W73755  36.443  37.884  14.389
 9988W        W73756  29.562  34.586  11.908
 9989W        W73757  30.148  21.106  12.575
 9990W        W73758  34.042  40.419  12.891
 9991W        W73759  10.694  30.116   1.307
 9992W        W73760   6.415   0.478   1.385
 9993W        W73761  19.050  26.038  14.429
 9994W        W73762  37.920  25.648  14.761
 9995W        W73763  25.047  22.663  12.969
 9996W        W73764   9.679  37.875  14.804
 9997W        W73765  35.595  34.117   0.778
 9998W        W73766  26.583  27.034  13.830
 9999W        W73767   7.769  25.550  14.310
10000W        W73768  38.822   9.690  14.924
10001W        W73769  34.965  43.391  11.412
10002W        W73770   6.339  36.902   2.697
10003W        W73771  13.125  41.435   9.986
10004W        W73772  40.452   8.363  10.434
10005W        W73773  14.621  12.302  12.424
10006W        W73774  42.933   7.191  10.908
10007W        W73775  13.243   8.721   1.363
10008W        W73776  42.431  41.001  10.509
10009W        W73777  14.765   0.492   3.372
10010W        W73778  19.225  28.664   2.893
10011W        W73779  35.932  39.557   3.686
10012W        W73780  43.007  19.117  13.543
10013W        W73781  25.165  37.839   1.313
10014W        W73782   3.915  20.230   4.272
10015W        W73783  25.646  13.839   5.316
10016W        W73784  31.445  27.947   3.664
10017W        W73785   3.936  10.243  10.502
10018W        W73786  10.251  16.647  13.379
10019W        W73787  16.292  41.943   4.674
10020W        W73788   1.398   4.257  10.889
10021W        W73789   1.922  25.113  13.382
10022W        W73790  29.105  15.583   2.798
10023W        W73791  25.986   6.802   0.790
10024W        W73792   2.361  11.825   1.840
10025W        W73793  25.189   3.314   3.214
10026W        W73794  27.990  27.060   1.244
10027W        W73795  19.664  26.951  10.638
10028W        W73796  30.117  23.151   1.348
10029W        W73797   6.824   0.254  11.551
10030W        W73798  38.554  38.943  12.399
10031W        W73799  22.109  39.475   3.273
10032W        W73800  22.569  26.070  14.395
10033W        W73801  17.731  29.642  13.999
10034W        W73802  41.439   6.685   0.848
10035W        W73803  40.339   7.857  12.370
10036W        W73804  35.939  10.168  12.421
10037W        W73805  21.667   6.384   1.875
10038W        W73806  13.229  30.558   5.205
10039W        W73807  17.180  39.535  12.570
10040W        W73808  43.897  40.420   1.800
10041W        W73809   4.736  31.602   3.732
10042W        W73810  26.697  17.612  14.321
10043W        W73811  33.884  22.216  10.912
10044W        W73812  28.985   5.926  12.855
10045W        W73813  38.863  13.610   3.332
10046W        W73814  33.972  25.968  14.833
10047W        W73815  11.733   7.685   3.256
10048W        W73816   6.777  18.130   4.219
10049W        W73817  26.604  21.252   3.287
10050W        W73818  38.380  31.444   1.903
10051W        W73819  34.549  22.037   0.883
10052W        W73820  38.544  18.548   2.280
10053W        W73821  41.381   1.397   1.256
10054W        W73822  41.024   9.259  11.562
10055W        W73823  12.154  27.066  11.024
10056W        W73824  10.149   4.773  12.834
10057W        W73825  36.084   3.283  10.463
10058W        W73826   8.879  32.957   3.773
10059W        W73827  29.643  27.019   4.322
10060W        W73828  35.415  31.024  12.435
10061W        W73829  11.331  29.644  14.009
10062W        W73830  10.810  17.101   2.851
10063W        W73831  15.117  36.389  14.868
10064W        W73832  15.599   3.364   0.754
10065W        W73833  27.024  17.098   1.401
10066W        W73834  37.494  20.756  14.340
10067W        W73835  44.923  29.600  11.866
10068W        W73836  28.437   2.382   4.811
10069W        W73837  44.965  19.174  14.004
10070W        W73838  21.206  41.468   0.467
10071W        W73839  29.495  29.526  12.867
10072W        W73840  17.800  30.608  13.534
10073W        W73841  24.673  27.568   3.825
10074W        W73842   1.879   2.835  14.025
10075W        W73843  14.684   4.383  11.480
10076W        W73844  24.079  35.590   2.801
10077W        W73845  25.061  27.575  11.443
10078W        W73846  32.052  14.235  12.899
10079W        W73847  31.605  38.920   1.428
10080W        W73848  32.594   6.265   0.425
10081W        W73849  24.081  34.999   4.751
10082W        W73850  26.078  22.009   2.722
10083W        W73851  22.541  33.057  14.505
10084W        W73852  15.802   3.847   2.191
10085W        W73853  14.270  40.361  14.307
10086W        W73854  43.471  16.078   2.846
10087W        W73855  33.530  38.941   4.783
10088W        W73856  28.172  26.601   5.286
10089W        W73857  32.438   8.276  11.036
10090W        W73858  14.689  22.677  13.441
10091W        W73859  38.947  40.882  11.942
10092W        W73860  32.136   3.853   3.321
10093W        W73861  24.153  18.642  12.371
10094W        W73862  25.616  38.874  13.904
10095W        W73863  12.130   4.860  12.574
10096W        W73864   5.350  24.996  14.344
10097W        W73865  40.839  26.074   1.430
10098W        W73866  14.102   5.923  11.581
10099W        W73867  33.473  13.328   2.874
10100W        W73868  24.976   4.847  13.885
10101W        W73869  38.893  27.135   4.779
10102W        W73870   0.758   2.325  13.431
10103W        W73871   9.837  18.777   1.827
10104W        W73872  18.082   2.803  13.404
10105W        W73873  40.429  29.441   4.247
10106W        W73874  29.107  20.065  11.092
10107W        W73875  39.477  39.342   3.668
10108W        W73876   9.715  33.503  11.897
10109W        W73877  36.435  11.213  13.449
10110W        W73878   0.881  44.313   2.729
10111W        W73879  20.098  27.573  12.066
10112W        W73880  19.776  33.582  11.022
10113W        W73881  39.467  30.910  14.464
10114W        W73882  39.329  30.031   4.140
10115W        W73883  18.088  22.122  12.402
10116W        W73884  36.028  34.406   1.889
10117W        W73885  38.500  40.317  12.920
10118W        W73886  41.865  12.764  13.367
10119W        W73887  10.863  39.988  14.455
10120W        W73888  33.489  36.451   3.770
10121W        W73889   1.956  29.490  10.933
10122W        W73890   9.265  40.462  14.309
10123W        W73891   0.788  22.586  11.003
10124W        W73892  25.165  42.928   0.765
10125W        W73893  38.487  43.848  10.441
10126W        W73894  25.074  34.510   1.393
10127W        W73895  36.930  13.661   4.695
10128W        W73896  19.119  27.047  12.945
10129W        W73897  14.222  23.218  11.457
10130W        W73898  31.902   3.847   1.270
10131W        W73899  22.171   2.458   1.830
10132W        W73900  15.252  42.882   2.304
10133W        W73901   1.454   0.878   1.383
10134W        W73902  13.312  21.067  14.499
10135W        W73903  40.916  23.491   4.745
10136W        W73904  40.509  43.798  13.924
10137W        W73905  44.353  16.123  12.046
10138W        W73906  41.015  42.863  10.040
10139W        W73907  33.016  25.631  12.878
10140W        W73908  13.203  37.899  11.109
10141W        W73909  30.124  11.127   2.399
10142W        W73910  10.751  42.798   0.418
10143W        W73911  40.842  34.556   2.416
10144W        W73912  43.900  41.903   3.787
10145W        W73913  13.778  30.536   3.285
10146W        W73914  26.065  17.065   3.306
10147W        W73915  24.568  17.567  13.880
10148W        W73916  22.548  21.239  13.957
10149W        W73917  35.976  12.736   0.802
10150W        W73918  41.301   5.302  12.906
10151W        W73919  35.491  22.598   2.216
10152W        W73920  27.479  42.870  10.979
10153W        W73921  34.940  10.761   0.761
10154W        W73922  43.833  12.310  12.093
10155W        W73923  23.549   6.725   4.826
10156W        W73924  22.544   8.317  14.311
10157W        W73925  37.537   6.803   0.797
10158W        W73926   8.258  37.382  13.456
10159W        W73927  42.501  14.258   2.179
10160W        W73928  15.703   5.912  12.518
10161W        W73929  30.927  36.586  12.026
10162W        W73930  22.225   6.273  13.897
10163W        W73931  19.557  19.582  12.981
10164W        W73932   7.910  39.481  10.631
10165W        W73933  17.095  19.172   3.671
10166W        W73934   7.389  37.950  11.511
10167W        W73935  23.506   5.735   1.715
10168W        W73936  17.138  28.600   3.327
10169W        W73937  35.900  35.947  13.821
10170W        W73938  28.572  22.717  13.793
10171W        W73939  39.963   2.368  13.458
10172W        W73940  37.502  33.106   3.290
10173W        W73941   5.193  26.652   3.735
10174W        W73942   3.857   2.431   1.324
10175W        W73943  42.447   2.723  12.014
10176W        W73944  13.687  36.063   2.214
10177W        W73945  38.452  37.894  13.494
10178W        W73946  10.216  18.235  10.099
10179W        W73947  28.554  20.040   3.357
10180W        W73948  12.253  12.227  14.408
10181W        W73949  40.397  41.949   0.282
10182W        W73950   8.866  13.689  11.921
10183W        W73951   9.383  28.583   2.305
10184W        W73952   8.404  20.135  13.006
10185W        W73953  42.941  29.138   0.420
10186W        W73954  27.189  18.224   3.850
10187W        W73955  28.116  22.702   4.130
10188W        W73956  18.703  14.711   0.374
10189W        W73957  39.816  11.268   0.909
10190W        W73958  19.727  44.327  13.809
10191W        W73959  22.176   2.392   2.302
10192W        W73960  19.224  21.098  14.853
10193W        W73961   7.383  37.524  14.867
10194W        W73962  10.220   8.338   0.861
10195W        W73963   4.776  41.442   1.250
10196W        W73964  19.711  12.655  12.515
10197W        W73965  32.490  25.067  11.057
10198W        W73966  39.021   3.772  13.864
10199W        W73967  43.865  24.209   1.810
10200W        W73968   9.730  39.388  13.969
10201W        W73969  36.351  43.365  11.957
10202W        W73970  14.165  29.173   3.694
10203W        W73971  35.979  10.260  13.892
10204W        W73972  40.947  18.607   1.812
10205W        W73973   8.400  25.150  14.767
10206W        W73974   9.220   1.897   0.873
10207W        W73975  14.269  14.320  10.930
10208W        W73976  15.643   6.382  11.086
10209W        W73977  31.121  20.119  11.099
10210W        W73978  29.645   5.705  13.438
10211W        W73979  10.354   4.372   1.445
10212W        W73980  19.615  26.634   5.242
10213W        W73981  34.519   5.267   2.726
10214W        W73982   7.674   0.288   1.878
10215W        W73983  33.548  26.617  10.406
10216W        W73984  21.039  26.135  12.929
10217W        W73985  21.516   7.702   2.743
10218W        W73986  41.951  17.590  13.030
10219W        W73987  43.276  21.601   4.115
10220W        W73988  30.616  26.001   1.724
10221W        W73989   6.736  26.140  13.318
10222W        W73990  29.049  29.090   2.866
10223W        W73991   9.807  36.844  12.086
10224W        W73992   9.665  23.989  11.451
10225W        W73993  13.615  25.149  11.481
10226W        W73994  29.629   1.322  13.028
10227W        W73995   1.852  42.423  12.417
10228W        W73996   9.289  21.152   3.354
10229W        W73997  44.905   9.658  13.396
10230W        W73998  12.117  11.220  12.976
10231W        W73999  34.876  15.199   4.631
10232W        W74000  16.804  28.958  13.902
10233W        W74001   8.829  36.564  13.874
10234W        W74002  14.134   6.193  13.377
10235W        W74003  34.919   4.706  11.001
10236W        W74004  26.133  31.473  14.370
10237W        W74005  22.506  19.192   2.306
10238W        W74006  34.541  29.941  11.542
10239W        W74007  34.414   0.851  13.330
10240W        W74008  43.351  19.248  11.976
10241W        W74009  31.087  13.688   1.706
10242W        W74010  41.019  25.548   0.322
10243W        W74011  10.281  24.013   0.849
10244W        W74012  35.980  35.032   1.714
10245W        W74013   4.357  24.523   1.428
10246W        W74014  21.527  12.620  12.064
10247W        W74015  15.244   8.263  14.321
10248W        W74016   7.906  40.546   2.696
10249W        W74017  20.619  10.269  11.967
10250W        W74018  31.439   1.898  11.391
10251W        W74019  17.685  30.068   3.299
10252W        W74020   4.877  30.928  13.482
10253W        W74021  44.504  38.858  12.527
10254W        W74022  43.949  25.502  13.921
10255W        W74023  16.289  27.041  14.015
10256W        W74024   6.213  30.160  14.445
10257W        W74025  27.507  36.402   0.319
10258W        W74026  35.531  37.378  14.838
10259W        W74027  29.990  25.156   1.821
10260W        W74028  33.514  35.584   3.333
10261W        W74029  17.559  40.404   3.832
10262W        W74030  27.667  35.027   0.869
10263W        W74031  37.964  36.917  14.769
10264W        W74032   9.691   7.222  11.385
10265W        W74033   7.199   7.240  11.870
10266W        W74034  23.109  11.629  10.503
10267W        W74035   4.338   2.468   1.932
10268W        W74036   0.922  42.024  13.965
10269W        W74037  30.483  22.572   0.926
10270W        W74038   2.323  35.880   0.928
10271W        W74039  32.404  31.046   2.779
10272W        W74040  37.476  19.104   2.234
10273W        W74041  36.081  41.906  11.055
10274W        W74042   3.372  43.409   3.341
10275W        W74043  12.650   1.362  13.489
10276W        W74044  34.864  17.761   5.089
10277W        W74045   0.457   3.220  14.785
10278W        W74046  15.617  42.791  12.080
10279W        W74047  44.979   0.366  11.572
10280W        W74048  44.869  19.701   4.171
10281W        W74049  38.429  12.679   4.631
10282W        W74050  40.831  35.020  14.950
10283W        W74051  41.015   6.348   4.243
10284W        W74052   7.288  43.764  12.464
10285W        W74053  24.646  40.545   3.287
10286W        W74054  14.245  44.830  10.532
10287W        W74055   7.269  41.904   2.773
10288W        W74056  28.097  25.059  12.498
10289W        W74057  26.516   6.758  14.864
10290W        W74058  44.888  11.182  14.994
10291W        W74059   6.746   7.753  13.311
10292W        W74060  11.814  38.341   0.412
10293W        W74061   8.393  16.682  13.051
10294W        W74062  29.591   4.448   3.292
10295W        W74063  15.171  30.450   2.331
10296W        W74064  24.047  27.576  10.907
10297W        W74065  40.315   8.864   1.694
10298W        W74066  13.618  12.659   0.332
10299W        W74067   8.361   1.250   3.717
10300W        W74068  35.462  38.910  11.546
10301W        W74069  31.906   8.389  11.030
10302W        W74070  42.881   2.395  11.604
10303W        W74071  11.163   9.695   0.941
10304W        W74072  39.362   0.783  12.484
10305W        W74073  11.347  43.996   0.873
10306W        W74074  17.080  26.577   9.951
10307W        W74075  28.526  18.619   2.824
10308W        W74076  23.660  42.969  11.539
10309W        W74077  15.606  25.048   3.322
10310W        W74078   0.786  19.151   4.713
10311W        W74079  24.065  28.488   1.777
10312W        W74080   1.814  44.427   2.294
10313W        W74081   1.452   4.299  12.372
10314W        W74082  34.478  14.243  12.893
10315W        W74083  39.477  39.041  11.105
10316W        W74084  27.074  22.024   4.650
10317W        W74085  16.697  12.302  11.416
10318W        W74086  33.487  15.247  12.499
10319W        W74087  29.962  14.272  12.451
10320W        W74088  30.988   2.241   2.413
10321W        W74089  10.777   8.666  12.840
10322W        W74090  10.348   6.185   0.809
10323W        W74091   4.838  30.021  12.437
10324W        W74092  14.621  22.199   1.403
10325W        W74093  12.794  19.535  11.481
10326W        W74094  11.744  10.729   2.761
10327W        W74095  40.863  12.210  14.016
10328W        W74096  15.239   4.849  14.879
10329W        W74097  42.393  11.822  13.045
10330W        W74098  41.314  37.360   4.832
10331W        W74099  33.482  20.529  12.090
10332W        W74100  34.614  37.536   0.962
10333W        W74101  20.698  20.719  12.823
10334W        W74102   5.859  16.739  10.914
10335W        W74103  22.546  35.485  13.034
10336W        W74104  23.153  22.591   1.250
10337W        W74105  35.063  14.211  12.992
10338W        W74106   4.309  22.022   3.173
10339W        W74107   7.911  22.167  14.312
10340W        W74108  18.563  22.107   2.881
10341W        W74109  41.525  14.136  13.416
10342W        W74110  27.168   9.643   2.811
10343W        W74111  41.937  40.827   2.751
10344W        W74112  35.424  43.290  14.971
10345W        W74113   1.812   3.914   1.786
10346W        W74114  20.568  35.578  10.590
10347W        W74115  14.201  31.556  10.488
10348W        W74116  43.319  35.490  12.480
10349W        W74117   2.367  31.031   4.306
10350W        W74118  17.109  10.244  10.096
10351W        W74119  19.059  34.476  10.082
10352W        W74120  21.117  18.209   4.719
10353W        W74121  30.590  42.911   1.742
10354W        W74122  30.008  41.500   2.668
10355W        W74123  13.128  37.063   0.478
10356W        W74124  13.226  26.117  14.906
10357W        W74125  13.291  11.194  11.556
10358W        W74126  10.175  14.656   3.370
10359W        W74127   1.352  44.931   1.838
10360W        W74128   0.809  23.710  12.036
10361W        W74129   0.819  36.549  12.567
10362W        W74130  35.018  40.939   0.844
10363W        W74131   6.787   3.220  14.314
10364W        W74132  39.052  29.470   1.704
10365W        W74133  19.041  13.700   3.868
10366W        W74134   1.878  35.006   1.383
10367W        W74135  28.124   7.288   1.726
10368W        W74136  12.310  42.858  12.478
10369W        W74137  23.194  19.667  14.838
10370W        W74138   9.203  19.219  13.357
10371W        W74139  16.582  31.902   2.203
10372W        W74140   4.886  12.706   4.306
10373W        W74141  30.599  25.572  14.906
10374W        W74142  39.361  37.050  13.887
10375W        W74143   8.167   4.269   3.155
10376W        W74144  39.872  39.973   0.958
10377W        W74145  19.250  44.300  11.944
10378W        W74146  19.572  42.288  11.409
10379W        W74147  24.113  21.722   0.931
10380W        W74148  27.673  43.798   4.714
10381W        W74149  43.310  13.794  13.503
10382W        W74150  43.844  20.146   1.767
10383W        W74151  15.657  42.305   0.409
10384W        W74152  44.941  15.596   2.307
10385W        W74153  31.602  14.200   5.279
10386W        W74154   6.839  10.207  11.958
10387W        W74155  44.457  41.353  12.476
10388W        W74156  32.465  38.518  11.495
10389W        W74157  30.951  32.099   1.362
10390W        W74158  36.039   3.816  14.953
10391W        W74159   4.725  37.029   4.293
10392W        W74160  21.624  16.289   1.809
10393W        W74161  18.234  33.394   3.331
10394W        W74162   0.399   0.408   3.769
10395W        W74163  40.453  25.022   1.855
10396W        W74164  42.911  41.817  13.317
10397W        W74165  17.612   4.427  10.587
10398W        W74166  20.757  32.910  12.526
10399W        W74167   6.884  43.407  14.373
10400W        W74168  13.652  39.449   4.130
10401W        W74169  28.178  17.694  14.032
10402W        W74170  21.639  32.084   3.153
10403W        W74171  22.680   5.711   4.254
10404W        W74172  14.733   0.888  13.918
10405W        W74173  28.019  17.244  13.436
10406W        W74174  35.873   2.245  14.954
10407W        W74175   9.318  14.221  14.466
10408W        W74176  20.096  10.227   3.833
10409W        W74177   9.884  11.374  13.973
10410W        W74178  41.421  19.665   4.231
10411W        W74179  38.556  28.489   0.764
10412W        W74180   9.821  20.768  12.931
10413W        W74181  18.713  36.587  10.077
10414W        W74182   4.317  43.921   2.326
10415W        W74183   6.364  12.222   4.719
10416W        W74184   3.329  20.719  11.389
10417W        W74185  44.968  11.334  13.892
10418W        W74186   2.908  38.371  12.568
10419W        W74187   4.387  13.639   1.774
10420W        W74188  19.595  44.805  14.446
10421W        W74189   3.355  33.622   2.771
10422W        W74190  18.570  12.263  13.336
10423W        W74191  20.645   4.809   2.837
10424W        W74192   0.763  32.397  14.918
10425W        W74193  39.998  27.157   3.379
10426W        W74194   6.248  21.042  11.503
10427W        W74195  40.964   1.327  14.951
10428W        W74196  37.567   7.703  13.425
10429W        W74197   1.416  39.335   2.315
10430W        W74198  21.618  40.011  10.557
10431W        W74199  28.163  33.956  13.359
10432W        W74200   1.249  18.252   2.816
10433W        W74201   9.244  29.050   0.774
10434W        W74202  19.098  29.455   4.123
10435W        W74203  23.238   6.872  13.920
10436W        W74204  28.529  27.078   0.359
10437W        W74205  31.596   4.449   2.773
10438W        W74206   2.402  31.471   3.811
10439W        W74207  16.218  34.093   3.211
10440W        W74208   6.305   2.332  14.381
10441W        W74209   9.658  15.817  10.928
10442W        W74210   0.753  11.640   4.222
10443W        W74211  27.466  35.550  11.378
10444W        W74212  35.936  40.934   4.282
10445W        W74213   4.915  20.200   1.273
10446W        W74214  39.983  11.241   1.917
10447W        W74215  35.958   8.252  13.367
10448W        W74216  42.906   3.882   0.905
10449W        W74217   8.309  42.317   4.603
10450W        W74218  38.006  37.340   1.760
10451W        W74219   3.939   9.752  11.393
10452W        W74220  11.155  17.187  12.427
10453W        W74221  38.467  11.164   4.274
10454W        W74222  17.273  33.590  10.984
10455W        W74223   3.230  36.391  13.047
10456W        W74224   4.777  42.930  12.070
10457W        W74225  21.164  26.655  14.451
10458W        W74226  35.925  40.331  12.959
10459W        W74227   4.707  34.032   2.763
10460W        W74228  30.553   3.778  12.024
10461W        W74229   7.867  37.444   3.699
10462W        W74230   7.746  15.805   0.939
10463W        W74231  11.733  15.634   4.345
10464W        W74232  11.868  14.776  14.852
10465W        W74233   2.896   0.913  10.890
10466W        W74234  27.536   0.903  11.875
10467W        W74235  21.671  15.092  14.777
10468W        W74236  16.193  36.080  11.502
10469W        W74237   7.791  43.471   2.382
10470W        W74238  31.415   2.908   4.722
10471W        W74239  42.805   2.842  12.499
10472W        W74240  31.566  33.101   1.870
10473W        W74241  37.462   3.441  14.901
10474W        W74242  13.112   1.745   2.873
10475W        W74243  30.634  20.609  11.479
10476W        W74244  11.794   6.819  11.943
10477W        W74245  37.394  21.230  13.989
10478W        W74246  19.542  11.146  11.457
10479W        W74247  20.267  12.179  12.883
10480W        W74248   7.385  34.083   0.899
10481W        W74249  28.668  41.892   1.239
10482W        W74250   7.671  39.063  14.909
10483W        W74251   9.688  18.287   3.234
10484W        W74252  35.932   2.736  10.448
10485W        W74253   9.855   6.871  10.921
10486W        W74254  36.031   8.339   2.796
10487W        W74255  30.037  34.088   1.359
10488W        W74256  25.665   7.813  10.435
10489W        W74257  17.180  27.446  13.396
10490W        W74258  36.987  13.671  11.378
10491W        W74259   5.202  29.564  12.945
10492W        W74260   6.897  18.204   1.722
10493W        W74261  44.876   5.743   0.355
10494W        W74262  28.072  40.022   0.386
10495W        W74263  26.701  37.986  11.935
10496W        W74264   8.205  36.378  11.544
10497W        W74265  15.259  42.368   4.597
10498W        W74266  39.352  39.904   1.814
10499W        W74267  36.507   8.863   0.444
10500W        W74268  22.236  13.250   3.283
10501W        W74269  16.696  17.676   0.355
10502W        W74270  38.845  30.417   3.763
10503W        W74271  23.021  42.007   4.222
10504W        W74272  16.230  24.574  14.914
10505W        W74273   9.245  17.138   0.789
10506W        W74274  39.406   0.342   1.874
10507W        W74275   4.756   9.849  10.958
10508W        W74276  14.288  23.170   0.913
10509W        W74277   9.767  42.499   1.365
10510W        W74278  20.576  16.090  11.542
10511W        W74279   7.846  23.587  13.007
10512W        W74280  12.329   8.220   3.185
10513W        W74281  26.607  36.482   3.278
10514W        W74282  14.111  38.526   1.307
10515W        W74283  40.536  41.365  13.483
10516W        W74284   4.279  19.123   4.192
10517W        W74285  16.812  16.672   2.846
10518W        W74286   3.353   9.277   3.236
10519W        W74287  30.150  34.490   1.294
10520W        W74288  26.165  34.890   2.367
10521W        W74289   9.199  38.017  14.497
10522W        W74290  20.599  14.784   2.713
10523W        W74291   7.190  32.462  14.378
10524W        W74292  19.267  27.127   2.335
10525W        W74293  39.810   9.366   0.276
10526W        W74294  26.124   8.683   4.258
10527W        W74295  39.836  20.760  13.495
10528W        W74296  12.765   5.295   4.124
10529W        W74297  41.958  27.688  11.505
10530W        W74298  19.154  18.625   4.149
10531W        W74299  40.350  17.726  14.962
10532W        W74300  23.624  29.020   4.811
10533W        W74301   7.868  27.591   3.836
10534W        W74302   5.803  15.109  10.451
10535W        W74303   2.252  28.100  12.902
10536W        W74304  41.400  19.697   1.371
10537W        W74305  21.059  37.897  12.430
10538W        W74306   0.366  20.585  14.440
10539W        W74307  15.708  44.797   0.830
10540W        W74308  11.858   9.652  10.054
10541W        W74309  24.622  26.126   3.372
10542W        W74310   0.931   2.899  11.457
10543W        W74311  42.317  25.572  14.474
10544W        W74312  24.079   3.751   2.860
10545W        W74313  30.967   4.719  14.986
10546W        W74314  25.022   7.299   0.441
10547W        W74315  40.500  20.581  11.025
10548W        W74316  33.449  26.046  14.944
10549W        W74317  17.635  28.084  13.496
10550W        W74318  34.555  19.279  10.920
10551W        W74319  37.413  29.520   3.773
10552W        W74320   3.865  12.279  13.531
10553W        W74321  44.982  16.179   0.884
10554W        W74322   4.795  34.611  11.379
10555W        W74323  33.444  42.366  12.017
10556W        W74324  41.326  17.085  13.828
10557W        W74325  27.633  28.503  13.905
10558W        W74326  37.537  16.615   4.630
10559W        W74327  29.536  40.854  13.321
10560W        W74328  18.636  17.639   4.776
10561W        W74329  16.292  10.739  13.054
10562W        W74330  29.503  35.418  10.484
10563W        W74331  28.436  13.163  14.439
10564W        W74332  18.767   5.330  10.573
10565W        W74333  14.611  14.752  14.360
10566W        W74334  29.519  19.725  12.866
10567W        W74335  21.677  31.122   4.756
10568W        W74336  22.519  27.585   4.197
10569W        W74337  27.487  29.558   4.773
10570W        W74338  25.523  10.638   2.368
10571W        W74339   8.814   6.845   2.768
10572W        W74340  25.009  37.999  11.978
10573W        W74341  10.282  21.662   0.820
10574W        W74342   6.679  37.506  13.418
10575W        W74343  27.011  35.472   2.860
10576W        W74344   5.900  20.151   2.722
10577W        W74345  35.414   6.306   1.854
10578W        W74346  26.124  36.515   4.321
10579W        W74347  44.273  43.804   1.761
10580W        W74348  15.230  25.571   4.189
10581W        W74349  29.524  44.890   4.735
10582W        W74350  39.975  28.629  14.357
10583W        W74351  39.980  23.071  14.869
10584W        W74352  12.657  16.190   1.418
10585W        W74353  13.792  37.524  14.511
10586W        W74354  41.987  30.481   5.592
10587W        W74355  34.960  36.884   4.831
10588W        W74356  22.038  18.670  11.374
10589W        W74357   7.867  10.741  10.516
10590W        W74358  34.957   1.277   0.775
10591W        W74359  14.100  13.213  10.956
10592W        W74360  11.750  34.066   0.391
10593W        W74361  36.883  32.985   9.654
10594W        W74362  32.636   3.327  11.098
10595W        W74363  16.278  14.644   1.755
10596W        W74364   5.723  18.191   2.886
10597W        W74365   7.259  10.366  14.476
10598W        W74366   6.254   7.681   1.271
10599W        W74367  20.144  33.123  12.408
10600W        W74368  10.146  17.772  12.501
10601W        W74369   8.674  18.132  14.915
10602W        W74370  31.992   3.745   2.768
10603W        W74371  36.359  44.265   0.482
10604W        W74372   3.786   1.249  10.933
10605W        W74373   1.325   9.331  14.435
10606W        W74374   3.399  44.805   1.353
10607W        W74375  44.764  31.460   1.317
10608W        W74376  18.784  25.060  11.419
10609W        W74377  42.357  39.560  14.025
10610W        W74378  24.182  24.158  12.923
10611W        W74379  31.538  19.235   4.338
10612W        W74380   3.432  14.244   4.705
10613W        W74381  15.642   8.737  11.988
10614W        W74382  41.820  43.342   2.687
10615W        W74383  16.180  21.201   5.749
10616W        W74384  20.221  41.465  12.014
10617W        W74385  17.180  30.960  11.922
10618W        W74386  37.425   8.394  11.423
10619W        W74387  13.685   5.886   1.221
10620W        W74388  31.481  37.886  12.011
10621W        W74389  13.685   3.415   2.732
10622W        W74390  33.475  27.106  11.967
10623W        W74391   7.283  41.962  13.057
10624W        W74392  31.517  21.572   0.945
10625W        W74393   6.855  22.091  11.518
10626W        W74394  31.625  36.935   3.355
10627W        W74395  20.080  19.264  14.761
10628W        W74396  34.121   3.930   3.343
10629W        W74397   0.280  36.371   4.195
10630W        W74398  42.893  43.843  11.412
10631W        W74399  18.710   5.294   1.701
10632W        W74400   0.906   8.213   4.250
10633W        W74401  42.807  15.269  10.509
10634W        W74402  11.261  31.965   2.851
10635W        W74403  24.176   9.785   3.681
10636W        W74404  37.073  17.662  12.008
10637W        W74405  11.762  19.049  14.336
10638W        W74406   6.887  25.592   4.714
10639W        W74407   3.934  32.471   1.792
10640W        W74408  27.005  37.014  10.970
10641W        W74409  28.965  40.975  10.981
10642W        W74410  28.522  39.946  13.005
10643W        W74411  14.632  12.839   5.585
10644W        W74412  28.987  43.932  12.929
10645W        W74413  23.598  14.612   0.398
10646W        W74414  31.142  44.423  14.284
10647W        W74415  32.538  44.916   2.823
10648W        W74416  20.079  23.725   1.858
10649W        W74417   4.710   7.228  10.084
10650W        W74418  20.071   1.436   4.182
10651W        W74419  38.962  17.629  14.779
10652W        W74420  10.382  20.070  12.842
10653W        W74421   6.865   9.394  10.552
10654W        W74422  34.106  35.892   0.410
10655W        W74423  42.519  22.185   1.817
10656W        W74424  37.005  10.689   2.282
10657W        W74425  14.681  35.476  12.379
10658W        W74426   9.666  35.569  13.914
10659W        W74427   7.322   1.895   2.723
10660W        W74428  40.316  12.227  13.013
10661W        W74429  29.650   1.307  13.321
10662W        W74430  40.409  30.103  12.879
10663W        W74431  34.446  17.594   4.833
10664W        W74432  44.291  31.968   4.613
10665W        W74433  38.953  30.644  12.577
10666W        W74434  15.317  18.663   2.405
10667W        W74435  31.919  26.640  10.930
10668W        W74436   9.756  22.718   0.317
10669W        W74437  23.077  29.127   3.695
10670W        W74438  11.244  40.961  14.811
10671W        W74439  24.112  44.753   0.297
10672W        W74440  40.337  42.947   3.710
10673W        W74441  29.626  21.236   3.739
10674W        W74442   9.384   1.972  14.939
10675W        W74443  38.002  20.745  13.903
10676W        W74444  34.083  23.508  13.053
10677W        W74445   8.170  26.461  12.403
10678W        W74446  23.034  37.411  12.400
10679W        W74447   5.408  25.652  13.040
10680W        W74448  24.230   0.940   0.904
10681W        W74449  26.566   5.203  13.351
10682W        W74450   4.782   6.794   1.247
10683W        W74451  19.164   1.445   0.287
10684W        W74452  23.216  13.618  13.506
10685W        W74453  21.260  18.076   2.775
10686W        W74454  42.501   0.806  12.021
10687W        W74455  34.606  32.621   2.819
10688W        W74456  16.758  30.423  13.488
10689W        W74457  34.913  22.507  11.597
10690W        W74458  27.092  34.880   0.898
10691W        W74459  15.313  22.021  11.023
10692W        W74460  28.491  39.526  12.555
10693W        W74461   7.214  36.403   1.895
10694W        W74462  26.657  20.194   5.116
10695W        W74463  21.549  41.005  14.811
10696W        W74464  41.298  21.675   0.829
10697W        W74465   5.362  42.412   1.258
10698W        W74466  12.803  36.456   1.828
10699W        W74467  12.666  22.706   2.373
10700W        W74468   6.705  44.426  12.941
10701W        W74469  37.993  30.975  13.809
10702W        W74470  25.489   4.731   4.159
10703W        W74471  22.713  31.003   2.403
10704W        W74472  14.714  29.536   2.223
10705W        W74473  13.650  21.133   0.264
10706W        W74474  30.486  44.997  13.389
10707W        W74475  13.159  19.237   4.837
10708W        W74476  43.934  29.971  11.867
10709W        W74477  44.322  43.781  13.927
10710W        W74478  13.285   0.811   3.308
10711W        W74479  29.967  21.684   1.927
10712W        W74480  28.982  16.653   9.503
10713W        W74481  12.358  42.483  13.819
10714W        W74482  12.213  26.190   1.227
10715W        W74483   4.937   1.413  13.475
10716W        W74484  15.138  41.378   0.250
10717W        W74485  36.889  18.660   0.833
10718W        W74486   8.775   5.420  11.475
10719W        W74487  20.763   1.792  12.920
10720W        W74488  19.092  37.059  14.023
10721W        W74489  12.218  14.198  10.961
10722W        W74490  25.640   3.437   3.847
10723W        W74491  24.064  33.493   4.826
10724W        W74492  39.817  20.182   1.746
10725W        W74493  40.401  15.623   3.256
10726W        W74494  18.706  34.526   4.791
10727W        W74495  24.694  22.656  14.355
10728W        W74496  11.218   9.272  14.308
10729W        W74497   0.950  20.714  14.382
10730W        W74498   7.326  42.333  13.307
10731W        W74499   0.904  17.255   2.205
10732W        W74500  17.132   0.399   3.641
10733W        W74501  36.990  30.046  12.973
10734W        W74502  13.756  15.618   1.726
10735W        W74503   8.237  29.999  10.908
10736W        W74504  26.668  11.859   2.246
10737W        W74505   0.776  35.055   5.255
10738W        W74506  40.451  12.346   2.840
10739W        W74507  17.720  37.508  10.495
10740W        W74508  22.614   4.751   5.100
10741W        W74509  12.652  41.413  13.975
10742W        W74510  36.883  28.101   4.695
10743W        W74511  44.942  25.590  10.597
10744W        W74512  30.116  40.927   3.323
10745W        W74513  43.955  40.856   1.900
10746W        W74514  30.649  19.727   1.253
10747W        W74515   6.761  30.964  11.863
10748W        W74516   9.741  28.067   4.158
10749W        W74517  41.320  32.022  14.293
10750W        W74518   9.247  14.805   2.691
10751W        W74519  13.173  31.412   3.675
10752W        W74520  11.705  21.751  12.451
10753W        W74521  25.629  35.416   9.979
10754W        W74522  41.363  29.540   2.840
10755W        W74523  13.661   7.267   1.267
10756W        W74524  20.533   2.347   4.255
10757W        W74525  43.804   4.287   2.790
10758W        W74526  12.236  29.593  10.990
10759W        W74527  27.071  19.598  10.553
10760W        W74528  35.052  34.576  13.442
10761W        W74529  14.288  18.626  11.003
10762W        W74530  22.557  18.765   1.395
10763W        W74531  38.021  43.376   2.196
10764W        W74532  22.998  33.914   1.838
10765W        W74533  23.150  19.713   0.924
10766W        W74534  36.393  25.569  14.821
10767W        W74535  10.791  39.532  10.446
10768W        W74536  40.974  21.687   0.426
10769W        W74537   3.249  35.399   3.768
10770W        W74538   0.300  32.904  11.390
10771W        W74539   8.374  43.987  10.420
10772W        W74540  19.658  28.050  14.895
10773W        W74541   6.808   9.175  13.541
10774W        W74542  13.795   1.970   4.144
10775W        W74543  37.954   3.244  14.840
10776W        W74544   5.904  11.791  14.884
10777W        W74545  25.621  40.865  12.019
10778W        W74546  34.069  23.048  10.421
10779W        W74547  21.246  26.199  11.447
10780W        W74548   3.926  38.410   0.885
10781W        W74549  40.840   1.770  14.913
10782W        W74550  37.943  36.846   4.271
10783W        W74551  19.573  10.168   0.403
10784W        W74552  15.178  41.336  11.011
10785W        W74553  17.614  42.416  14.872
10786W        W74554   1.473  28.054   2.314
10787W        W74555   1.951   2.957  11.583
10788W        W74556  42.477  29.964   3.758
10789W        W74557  27.962  17.677   2.821
10790W        W74558  20.112  28.162  10.613
10791W        W74559  39.475  34.869  12.460
10792W        W74560  12.727  11.240  12.891
10793W        W74561   3.774  40.893  11.410
10794W        W74562  16.255   6.357  12.524
10795W        W74563  41.532  23.693   1.700
10796W        W74564   2.458  20.600  14.849
10797W        W74565  20.121  23.208  11.021
10798W        W74566  32.057  33.941  10.641
10799W        W74567  20.637  30.012   3.171
10800W        W74568  36.933   4.909  14.455
10801W        W74569  12.289  18.621  14.469
10802W        W74570  12.339  42.802   4.824
10803W        W74571   7.203  37.875  11.115
10804W        W74572  10.293  39.441  12.830
10805W        W74573  24.076  21.100  12.917
10806W        W74574   7.343  29.018   2.757
10807W        W74575  40.996  25.533  10.622
10808W        W74576  30.057   6.187   1.866
10809W        W74577  20.060   1.847  12.831
10810W        W74578  27.588  28.135   1.753
10811W        W74579   4.702  34.592   2.265
10812W        W74580   5.723   5.927   2.328
10813W        W74581  18.205  13.122  12.483
10814W        W74582  31.570  37.893  14.760
10815W        W74583  18.740  42.819  10.083
10816W        W74584  28.559  25.202  13.995
10817W        W74585   3.257  11.326  12.832
10818W        W74586  13.276  11.235   1.362
10819W        W74587  42.465  14.788  13.862
10820W        W74588  41.026  33.449  10.976
10821W        W74589   4.741   5.422  13.903
10822W        W74590  14.786  16.619  13.869
10823W        W74591  30.976  31.907   3.630
10824W        W74592  14.831  17.797   1.889
10825W        W74593  42.834  15.629  14.810
10826W        W74594  13.345   8.279   3.314
10827W        W74595   9.320   4.817  11.900
10828W        W74596  12.666  30.145  11.987
10829W        W74597  13.761  38.850  13.314
10830W        W74598  16.580  26.568   2.680
10831W        W74599  37.340   7.843   0.375
10832W        W74600  12.664  10.150   3.730
10833W        W74601  24.177  37.353   1.233
10834W        W74602  38.504   6.390  13.952
10835W        W74603   5.366  37.937   0.807
10836W        W74604   7.728  38.959   2.365
10837W        W74605  37.077  29.088  13.044
10838W        W74606  24.623  19.692   3.841
10839W        W74607  36.930  18.770   0.323
10840W        W74608   5.377  32.033  11.387
10841W        W74609   0.813   0.315   0.295
10842W        W74610  18.120  30.160  11.610
10843W        W74611  27.980  11.803  14.032
10844W        W74612   3.887   3.216  12.842
10845W        W74613  10.157  12.807  10.464
10846W        W74614  30.910  25.590  12.571
10847W        W74615  24.152   0.910  13.426
10848W        W74616  32.907  22.716   1.367
10849W        W74617  41.948  16.121   4.190
10850W        W74618  33.458  27.013  11.033
10851W        W74619  13.600  13.636  14.021
10852W        W74620  15.579   9.884  11.011
10853W        W74621  17.141  34.887   0.816
10854W        W74622  41.448  34.023  14.849
10855W        W74623  35.476  32.972  13.856
10856W        W74624   1.372   9.856  10.558
10857W        W74625  12.344  11.781  14.498
10858W        W74626  39.424  27.541   4.273
10859W        W74627  31.436  29.567   0.842
10860W        W74628   7.359  30.142   1.706
10861W        W74629  19.215  12.268  11.416
10862W        W74630  21.179   5.227   4.605
10863W        W74631  30.657  39.367  14.341
10864W        W74632  16.603  24.629  15.000
10865W        W74633  29.480  25.072  13.987
10866W        W74634   1.867  38.831   1.384
10867W        W74635  22.010  36.469   2.713
10868W        W74636  12.677  27.538  13.399
10869W        W74637  25.644   0.977  14.413
10870W        W74638  21.747  27.483   1.267
10871W        W74639  23.062  38.849   4.244
10872W        W74640  15.116   3.856  13.888
10873W        W74641   2.323  11.269  13.532
10874W        W74642   7.201   5.791   3.327
10875W        W74643  38.988  32.534  12.060
10876W        W74644  18.711  32.014   2.877
10877W        W74645  36.019  36.481   0.729
10878W        W74646  20.573  16.250  13.877
10879W        W74647  11.297  33.431  12.845
10880W        W74648  10.723   0.833   3.255
10881W        W74649  41.858  34.105  13.055
10882W        W74650  14.214   0.959   2.822
10883W        W74651   9.657   1.263  12.909
10884W        W74652  44.328  30.470  11.914
10885W        W74653  43.943  13.650   4.349
10886W        W74654  33.027  11.279  11.920
10887W        W74655  33.012  38.007   2.346
10888W        W74656   8.402   4.757  10.633
10889W        W74657  12.338  23.569  12.550
10890W        W74658  27.610  20.584   2.685
10891W        W74659  14.242  20.153   1.797
10892W        W74660  12.349  28.032  12.083
10893W        W74661  40.911  17.790  11.376
10894W        W74662   3.760   2.823   3.679
10895W        W74663  41.790  36.486  11.879
10896W        W74664   3.734  13.782   3.858
10897W        W74665  10.279   4.344  13.923
10898W        W74666  37.384   3.781  10.525
10899W        W74667  28.105  29.146   2.744
10900W        W74668  28.437  19.671  13.333
10901W        W74669  27.120  14.114  12.456
10902W        W74670  20.730  33.884  14.401
10903W        W74671  20.119  13.732  12.439
10904W        W74672  19.761  20.659   3.170
10905W        W74673  25.489  31.930   0.377
10906W        W74674  14.821  15.735   1.809
10907W        W74675  44.761  13.818   1.387
10908W        W74676  13.812  43.959   3.868
10909W        W74677  20.053  18.117   1.710
10910W        W74678  12.820   0.372  11.942
10911W        W74679  24.659  23.044  11.098
10912W        W74680  43.938  14.607   3.360
10913W        W74681  18.778  39.958  13.485
10914W        W74682  13.621  39.420  13.028
10915W        W74683   1.854   3.277   3.194
10916W        W74684  24.498  10.740  11.010
10917W        W74685  42.509  15.676  12.409
10918W        W74686  28.505   7.763   0.424
10919W        W74687  10.753  37.945  13.474
10920W        W74688  41.864   5.831   1.852
10921W        W74689  16.575  14.690  12.477
10922W        W74690   7.853  29.055   9.921
10923W        W74691  18.217  37.485   4.604
10924W        W74692   6.821   0.432  10.482
10925W        W74693  27.572  18.189   3.264
10926W        W74694   4.246  23.139  12.046
10927W        W74695  20.121  44.437   4.831
10928W        W74696  16.736  10.356  11.577
10929W        W74697  26.143  32.426   1.308
10930W        W74698  18.549  28.668   3.198
10931W        W74699  37.835  11.740   2.218
10932W        W74700  38.051  15.698   0.744
10933W        W74701  33.026  14.669  13.035
10934W        W74702  34.951   6.262  12.864
10935W        W74703  34.116  37.565   1.792
10936W        W74704  26.008  42.324   3.317
10937W        W74705  17.254  29.051  12.473
10938W        W74706  43.487   7.843   3.823
10939W        W74707  40.807  36.521  11.078
10940W        W74708  15.782  14.813   0.819
10941W        W74709  30.568  31.906  11.447
10942W        W74710   1.474  15.222  11.404
10943W        W74711  32.545  13.172  13.496
10944W        W74712  19.147   6.218  11.580
10945W        W74713  38.438  36.530   3.241
10946W        W74714  11.320   6.210  13.543
10947W        W74715  18.649  13.657   0.245
10948W        W74716  13.175  40.050  11.483
10949W        W74717  40.823  28.933   1.326
10950W        W74718  37.052   3.938   0.455
10951W        W74719  24.041  38.969  12.826
10952W        W74720  28.435   8.883   3.285
10953W        W74721  12.850  13.224  11.025
10954W        W74722  15.259  13.137   3.787
10955W        W74723  13.302  12.611  12.394
10956W        W74724  32.437  34.881  10.992
10957W        W74725  24.034   8.166  13.506
10958W        W74726  21.705  26.542   4.718
10959W        W74727   7.187  40.945  14.820
10960W        W74728  40.946  25.036   0.848
10961W        W74729  27.976  18.689  14.954
10962W        W74730  32.909  44.958   1.730
10963W        W74731  38.489  33.025  11.392
10964W        W74732  29.926   7.384  13.938
10965W        W74733  32.445   6.203   1.393
10966W        W74734   6.835   2.355   0.860
10967W        W74735  23.110  13.846  14.329
10968W        W74736  38.841  21.066  13.972
10969W        W74737  31.637  23.603   1.316
10970W        W74738  12.730  21.713   0.916
10971W        W74739   4.385  10.834  10.928
10972W        W74740  35.408   6.892  13.445
10973W        W74741   8.310  38.886  14.770
10974W        W74742  33.026  15.109   5.105
10975W        W74743  32.455  42.318  11.954
10976W        W74744  30.490  18.232   3.695
10977W        W74745  40.799  11.655  14.912
10978W        W74746  16.131  15.710   0.958
10979W        W74747   4.422  38.559  11.999
10980W        W74748  30.965   2.810   2.225
10981W        W74749  17.761   3.295   1.836
10982W        W74750  28.000   2.843   2.211
10983W        W74751  39.060  41.418  12.554
10984W        W74752  30.425   5.900  14.866
10985W        W74753  38.345  40.495   1.346
10986W        W74754  16.591  11.323   2.236
10987W        W74755  17.203  13.783   4.757
10988W        W74756  29.477  42.888   2.803
10989W        W74757  30.549  16.150  14.352
10990W        W74758  32.602  18.580   0.950
10991W        W74759  21.569  29.169  14.944
10992W        W74760  42.971  37.528   2.712
10993W        W74761  34.020  14.097   1.409
10994W        W74762   6.685  28.087  10.510
10995W        W74763  44.344  39.435   1.358
10996W        W74764  44.939   9.155  11.077
10997W        W74765   1.921   7.869   1.727
10998W        W74766  12.741  37.539  12.444
10999W        W74767  39.382   2.344   4.752
11000W        W74768   3.711  43.321  13.822
11001W        W74769  26.657  16.172   0.819
11002W        W74770  37.031  21.562   3.867
11003W        W74771  16.611  22.019   5.192
11004W        W74772  10.355  39.957   0.757
11005W        W74773  16.306  34.996  10.632
11006W        W74774  37.562  15.111   2.199
11007W        W74775  24.550  42.507  12.048
11008W        W74776  27.677   7.367   0.942
11009W        W74777  17.282   8.384   4.168
11010W        W74778  32.056  37.469   4.309
11011W        W74779  42.386  43.881  11.566
11012W        W74780  15.734  44.839  14.987
11013W        W74781  14.708  32.564  11.116
11014W        W74782  36.558  28.078   5.143
11015W        W74783  30.152   7.367  13.315
11016W        W74784  10.751  39.457   0.477
11017W        W74785  16.161   1.350  14.292
11018W        W74786  12.132  13.230   2.715
11019W        W74787   4.428  25.584  14.005
11020W        W74788  11.698  31.606   0.876
11021W        W74789  31.633  41.358   2.278
11022W        W74790  31.904   6.701  14.843
11023W        W74791   3.400  10.187  12.838
11024W        W74792  32.527  34.443  11.376
11025W        W74793  15.622   0.439  10.054
11026W        W74794  18.581   5.727  11.588
11027W        W74795   2.457  11.226  11.058
11028W        W74796  29.617  31.010   2.379
11029W        W74797  32.613  16.307  13.977
11030W        W74798   8.173  39.845  14.869
11031W        W74799  23.050   9.811  12.490
11032W        W74800  13.237  42.826   2.808
11033W        W74801  27.999  44.933  14.446
11034W        W74802  39.331  25.003  13.923
11035W        W74803  27.991  30.988   0.459
11036W        W74804   9.809  14.617   3.671
11037W        W74805  39.935  29.167  12.015
11038W        W74806  28.131  41.977   0.259
11039W        W74807   5.262  24.489  13.819
11040W        W74808  37.901   5.701  10.008
11041W        W74809  12.236  37.976  13.528
11042W        W74810  33.034  24.576  10.469
11043W        W74811   7.876  40.446  11.093
11044W        W74812  23.606  36.490   0.390
11045W        W74813   7.830  23.660  13.884
11046W        W74814   1.426   0.877   2.743
11047W        W74815   6.764  17.206   1.388
11048W        W74816  14.267  14.242   4.612
11049W        W74817  11.673   3.943  14.883
11050W        W74818  16.298  34.929  12.017
11051W        W74819  15.769  34.117   5.090
11052W        W74820  41.820  10.873  14.775
11053W        W74821  21.592  37.050   0.950
11054W        W74822  10.147   2.230  13.960
11055W        W74823   3.418  41.788   4.820
11056W        W74824  10.637   3.800  11.856
11057W        W74825   4.271   6.836  10.985
11058W        W74826  14.758  21.148   2.277
11059W        W74827  25.506   3.953  14.007
11060W        W74828  12.786  24.988  10.558
11061W        W74829   7.814  40.451   5.206
11062W        W74830   9.227  22.602  14.367
11063W        W74831  38.435   2.457   4.277
11064W        W74832  19.543  17.670  13.357
11065W        W74833  30.060   8.200   3.657
11066W        W74834   7.759   6.389  14.369
11067W        W74835  37.565  21.628  10.952
11068W        W74836   4.744  21.108   5.086
11069W        W74837   5.723  25.102  14.383
11070W        W74838  20.126  44.482   2.686
11071W        W74839  25.673  15.216   9.957
11072W        W74840   5.838  43.501   1.891
11073W        W74841  23.985  14.663   2.194
11074W        W74842  23.543  41.786  13.315
11075W        W74843  23.087  17.253  11.006
11076W        W74844  32.497  37.486   2.335
11077W        W74845  41.442  41.501  10.906
11078W        W74846  23.531  38.899   1.873
11079W        W74847  24.106  15.586  14.833
11080W        W74848  30.050  14.634   4.634
11081W        W74849  17.698  26.127  13.375
11082W        W74850  23.685  26.646   1.775
11083W        W74851  32.034  19.750  14.833
11084W        W74852  15.610  19.261   1.311
11085W        W74853  23.680   3.461  13.539
11086W        W74854   0.383   1.330   2.798
11087W        W74855  26.172   5.396  13.511
11088W        W74856   4.884  44.835  12.953
11089W        W74857  41.014  30.601   5.735
11090W        W74858   0.480  13.722   1.231
11091W        W74859  14.722   9.841   1.733
11092W        W74860  42.412  36.042   0.894
11093W        W74861  13.189  32.603  14.294
11094W        W74862   5.709  35.445  14.913
11095W        W74863   4.925  19.549   3.219
11096W        W74864  42.025   1.902  13.509
11097W        W74865  32.464   5.821  14.413
11098W        W74866  16.187  13.292   0.291
11099W        W74867  28.071  24.700  11.978
11100W        W74868  28.046  29.123   0.939
11101W        W74869  24.128  33.067   3.650
11102W        W74870  35.862  39.043  12.411
11103W        W74871   2.759  22.638  10.535
11104W        W74872  15.098  14.667   4.633
11105W        W74873   5.245   1.784  10.471
11106W        W74874  26.703  19.736  11.424
11107W        W74875  23.990   2.868   1.763
11108W        W74876  34.907  15.608   5.229
11109W        W74877   1.467  31.965   5.154
11110W        W74878  33.004  12.655   0.806
11111W        W74879   8.360  12.627   1.404
11112W        W74880  24.001  15.661   1.274
11113W        W74881  27.060  38.937   3.694
11114W        W74882  18.713   3.417  12.825
11115W        W74883  26.048  14.793  10.595
11116W        W74884  26.610  28.085  11.867
11117W        W74885  13.184  31.466  10.463
11118W        W74886  20.063  19.201   3.170
11119W        W74887  30.620  18.225  12.978
11120W        W74888  42.005  26.080  10.553
11121W        W74889   9.760  16.072   4.743
11122W        W74890  13.732  32.042   4.615
11123W        W74891  29.511  18.722   3.223
11124W        W74892  34.431  38.347  12.048
11125W        W74893  35.888   0.792  14.285
11126W        W74894   3.945  25.495   1.821
11127W        W74895  32.991  22.033   1.752
11128W        W74896  18.273  42.514  13.957
11129W        W74897   2.265  15.259   1.214
11130W        W74898  42.823  27.509   0.788
11131W        W74899  13.260  24.673  11.007
11132W        W74900  44.414  40.363   0.382
11133W        W74901  24.175  20.085  14.012
11134W        W74902  30.156   4.384  13.034
11135W        W74903  38.486  13.319   2.398
11136W        W74904  14.594  36.841  11.586
11137W        W74905  25.630  10.363  14.795
11138W        W74906  16.621  13.659   3.252
11139W        W74907  12.260  37.417  12.976
11140W        W74908  12.702  24.646   2.313
11141W        W74909  41.499  26.175   0.759
11142W        W74910  14.639  21.104  12.967
11143W        W74911  36.097  38.039  13.848
11144W        W74912  10.641   0.795  12.981
11145W        W74913  20.564  25.122  10.505
11146W        W74914  11.865  18.219   0.832
11147W        W74915  29.559  38.862  14.938
11148W        W74916  31.052  26.480   9.964
11149W        W74917   5.302   4.809   1.274
11150W        W74918  21.139  26.122  14.392
11151W        W74919   0.471   5.226   4.599
11152W        W74920  40.363  20.086   4.134
11153W        W74921  35.964  23.549  14.304
11154W        W74922   4.783  24.645   1.897
11155W        W74923  17.687  16.215  14.458
11156W        W74924   7.284  26.636   4.231
11157W        W74925  13.309  19.754   9.928
11158W        W74926  18.247   9.788   2.863
11159W        W74927  15.653  43.435   1.427
11160W        W74928  36.055  11.193   0.442
11161W        W74929  26.703  38.529  10.477
11162W        W74930  27.462   6.708  12.914
11163W        W74931   1.757  44.006  13.462
11164W        W74932  38.891  40.337   4.779
11165W        W74933  14.234   0.764   4.800
11166W        W74934  31.474   2.829   3.703
11167W        W74935  37.962   7.190  13.531
11168W        W74936  13.201   8.402  12.887
11169W        W74937  34.988  34.462   3.637
11170W        W74938  40.450  13.681  14.422
11171W        W74939  26.505  10.800  10.491
11172W        W74940  41.814  37.056   1.408
11173W        W74941  29.980  37.961   3.231
11174W        W74942   9.668   2.390   4.732
11175W        W74943  28.619   0.953  11.446
11176W        W74944  29.091  21.554   1.267
11177W        W74945   4.797   6.232   3.702
11178W        W74946  26.586  35.958  14.502
11179W        W74947   5.341  15.624   4.658
11180W        W74948  42.837  12.251  14.332
11181W        W74949  32.931  36.930  11.858
11182W        W74950  25.699  10.728   3.236
11183W        W74951  32.130  42.992   5.097
11184W        W74952  35.977  18.690   3.199
11185W        W74953  12.117  34.935   4.193
11186W        W74954  15.748  16.246   2.762
11187W        W74955  16.092  20.712  14.836
11188W        W74956  14.676   8.711   2.354
11189W        W74957  29.585  43.888  11.435
11190W        W74958  17.122  35.602   2.415
11191W        W74959   2.897  44.326   1.315
11192W        W74960  32.001  17.666   1.714
11193W        W74961  26.082  24.571   4.136
11194W        W74962  39.449   3.407  14.475
11195W        W74963  21.650   0.755  11.956
11196W        W74964  43.318   7.336  10.465
11197W        W74965  31.450   4.933   0.949
11198W        W74966  17.713  14.685  14.305
11199W        W74967  30.160  38.339   2.216
11200W        W74968  23.529   3.847  11.861
11201W        W74969  19.161  33.045   1.925
11202W        W74970   9.777   0.809  12.095
11203W        W74971  30.097  31.986   3.267
11204W        W74972  36.591   5.891  12.842
11205W        W74973  15.220  27.082   4.682
11206W        W74974  39.842  14.670   3.786
11207W        W74975   3.320  26.151  14.923
11208W        W74976   1.481  39.053   3.839
11209W        W74977  40.545   3.433   4.237
11210W        W74978  35.459  28.613  13.316
11211W        W74979  19.088  27.554  11.070
11212W        W74980  11.644  16.097  11.376
11213W        W74981  30.984  21.585  10.500
11214W        W74982   8.332  36.031  10.470
11215W        W74983  15.278  10.827   3.832
11216W        W74984  27.022  14.773   3.766
11217W        W74985  20.759  34.569   2.191
11218W        W74986  21.511  42.471  11.076
11219W        W74987  40.833  13.692   0.869
11220W        W74988   0.802  44.005   1.354
11221W        W74989  23.033  23.534  12.482
11222W        W74990  43.850  24.500  12.577
11223W        W74991  42.936   3.791  12.467
11224W        W74992  40.939  32.961   1.843
11225W        W74993  43.832  39.453  13.405
11226W        W74994  41.463  39.506  11.890
11227W        W74995  27.642  37.416  13.352
11228W        W74996  18.603  18.663   2.687
11229W        W74997  30.502  34.024  12.405
11230W        W74998  36.582   4.883   2.241
11231W        W74999  20.075  40.054   1.215
11232W        W75000  20.657  44.295  10.089
11233W        W75001  16.078  36.364   0.287
11234W        W75002  36.015   1.381  13.420
11235W        W75003  36.368  11.299  12.380
11236W        W75004  14.158  29.147   0.896
11237W        W75005  27.570  22.248  13.389
11238W        W75006  26.584  29.520  11.449
11239W        W75007  14.313  10.728  14.914
11240W        W75008  36.906  35.376  12.467
11241W        W75009   2.889  11.820   1.798
11242W        W75010   5.797  29.091   3.269
11243W        W75011  14.653  20.263  12.499
11244W        W75012  21.613  18.146  14.847
11245W        W75013  30.046  44.326  13.014
11246W        W75014  20.212  23.010   2.277
11247W        W75015   1.956   7.790  11.412
11248W        W75016   2.938  21.589   0.397
11249W        W75017  14.183  15.591   1.859
11250W        W75018  21.644  19.538   1.286
11251W        W75019  21.186  12.341   2.895
11252W        W75020  26.488  40.508   1.317
11253W        W75021  26.547   7.223   0.483
11254W        W75022  40.026  35.005   2.793
11255W        W75023  24.714  27.181   1.216
11256W        W75024  10.730  11.251  10.020
11257W        W75025  20.150  36.030  13.808
11258W        W75026  30.621  39.456   1.416
11259W        W75027  19.660  28.171   4.738
11260W        W75028  17.224  40.449  13.879
11261W        W75029  11.860  17.783  14.849
11262W        W75030   8.785  39.516   1.862
11263W        W75031  23.533  31.519   2.821
11264W        W75032  38.858  15.117  12.547
11265W        W75033  37.579   3.236   9.949
11266W        W75034  20.056  18.274  12.888
11267W        W75035  34.078   0.766   0.801
11268W        W75036  28.104   3.354   1.260
11269W        W75037  17.713  36.088  14.403
11270W        W75038  24.506  21.120  14.440
11271W        W75039   4.865  42.825   1.765
11272W        W75040   2.289   9.314  13.394
11273W        W75041  15.219  32.491  14.515
11274W        W75042  15.148   7.316  13.998
11275W        W75043  12.267  30.446  12.844
11276W        W75044  34.507   0.293   2.384
11277W        W75045   5.893  12.684  11.485
11278W        W75046  44.831  27.609  13.505
11279W        W75047   8.821  44.346   3.285
11280W        W75048  44.455  27.502  14.834
11281W        W75049  25.681  42.505   4.830
11282W        W75050   8.358   2.283   1.288
11283W        W75051  39.505  24.005  13.475
11284W        W75052  24.643  14.760  14.408
11285W        W75053  13.658  14.105  13.415
11286W        W75054  44.472  22.030  10.017
11287W        W75055  31.999  44.970  11.565
11288W        W75056  23.148  43.900  11.603
11289W        W75057  23.520  34.372   1.763
11290W        W75058  25.625  44.981  12.371
11291W        W75059   7.275  41.996   3.819
11292W        W75060  17.710   7.825   3.689
11293W        W75061   3.723   2.315  14.318
11294W        W75062   7.178  30.063  13.036
11295W        W75063  27.678  17.236   1.881
11296W        W75064  32.465  13.299   3.254
11297W        W75065  25.147  36.082   0.878
11298W        W75066   3.458  27.445   0.278
11299W        W75067  35.078  28.025   3.378
11300W        W75068   9.832  13.829  13.436
11301W        W75069   7.818  23.058   1.282
11302W        W75070  23.540  10.855  11.033
11303W        W75071   2.245  35.372  14.986
11304W        W75072  11.817  38.919   0.464
11305W        W75073  16.094  24.228   2.202
11306W        W75074   3.453  15.085  12.066
11307W        W75075  24.189  44.823  11.447
11308W        W75076  33.932   0.460   1.382
11309W        W75077   9.241   6.196   2.793
11310W        W75078  28.501  38.428  13.052
11311W        W75079  29.051  20.596   0.436
11312W        W75080  15.704  39.440   3.175
11313W        W75081  43.973  23.589  13.389
11314W        W75082  29.423  37.030  14.883
11315W        W75083  41.405  32.948   2.707
11316W        W75084  43.428  23.988   1.786
11317W        W75085  28.669  27.532  12.951
11318W        W75086  11.760  17.616   3.852
11319W        W75087  32.472   8.303  13.062
11320W        W75088  10.661  44.417   0.349
11321W        W75089  34.472   3.223  10.543
11322W        W75090   0.389  26.552   0.423
11323W        W75091  37.399  14.669  13.513
11324W        W75092   4.855  12.234  13.456
11325W        W75093  30.064  11.324   4.282
11326W        W75094  38.477   0.298  12.521
11327W        W75095  30.993  33.502  14.505
11328W        W75096   3.799   9.314  13.527
11329W        W75097  36.400  20.731  10.527
11330W        W75098  19.106   2.431   0.314
11331W        W75099  19.241  40.507  11.407
11332W        W75100   7.245  35.572   3.680
11333W        W75101  28.564   2.292   0.756
11334W        W75102  35.590  36.957   2.403
11335W        W75103  12.730  12.183   2.223
11336W        W75104  30.482  23.994   1.727
11337W        W75105   9.653  13.627   0.450
11338W        W75106  44.895  25.572  11.976
11339W        W75107  35.425  19.585  11.438
11340W        W75108  39.003  20.576  12.020
11341W        W75109  26.502   2.387   2.377
11342W        W75110   5.217  25.675  14.427
11343W        W75111   4.206  36.864   1.929
11344W        W75112  20.251  19.058  13.827
11345W        W75113  13.165  15.261   5.139
11346W        W75114  29.116   6.841  11.541
11347W        W75115  27.531   4.852   1.271
11348W        W75116   6.734  29.121  14.845
11349W        W75117   6.910  23.558  14.790
11350W        W75118   5.912  17.192  10.586
11351W        W75119  30.537  33.073   4.805
11352W        W75120  26.093  43.021   2.289
11353W        W75121   7.171  12.253  13.459
11354W        W75122  41.025  41.506   4.631
11355W        W75123   2.791  21.182   1.714
11356W        W75124  14.689  34.387   4.243
11357W        W75125  26.205  14.302   3.321
11358W        W75126  36.090   3.771   3.715
11359W        W75127  18.721   7.352   3.735
11360W        W75128  31.450  13.822  14.446
11361W        W75129  24.485  28.936  13.383
11362W        W75130   3.870  36.875  13.918
11363W        W75131  21.184  41.397  11.473
11364W        W75132  29.539  31.900   4.627
11365W        W75133  31.640   6.414   3.731
11366W        W75134   6.795  14.196  13.957
11367W        W75135  28.048  25.182   1.367
11368W        W75136  44.285  38.400   3.263
11369W        W75137  19.578   6.796  11.086
11370W        W75138  28.574  26.057   4.794
11371W        W75139  36.411  36.410  12.347
11372W        W75140  42.420  44.795  14.897
11373W        W75141  31.582  41.472  13.800
11374W        W75142  39.344  23.034  11.067
11375W        W75143  30.101   8.858   0.467
11376W        W75144  21.539  43.992  14.967
11377W        W75145   6.751  41.301   4.667
11378W        W75146  29.556  40.499   3.854
11379W        W75147  26.575  35.871   5.291
11380W        W75148  11.263  26.174  10.510
11381W        W75149   6.328  30.538  13.317
11382W        W75150  15.681  29.547   2.740
11383W        W75151  22.574  15.797   4.788
11384W        W75152  41.494   2.235   2.680
11385W        W75153  31.971   5.314   2.196
11386W        W75154   6.204   5.332  11.960
11387W        W75155  42.922  20.078   5.113
11388W        W75156  26.508  22.090  13.039
11389W        W75157  40.813  11.642   1.730
11390W        W75158  31.911  14.828  14.340
11391W        W75159  10.217  33.943   0.371
11392W        W75160  27.069  15.608   2.702
11393W        W75161  42.288  23.235   2.343
11394W        W75162  36.849   5.436  12.832
11395W        W75163  31.466  32.568  13.402
11396W        W75164  40.411  17.710  14.322
11397W        W75165  29.629  10.770   1.279
11398W        W75166  23.504   5.902   2.417
11399W        W75167   0.974  13.660   0.358
11400W        W75168  39.553  32.578   2.805
11401W        W75169  22.581  37.988  12.852
11402W        W75170   6.698  32.131   1.247
11403W        W75171  17.145  16.789   1.386
11404W        W75172  43.300  24.603  11.014
11405W        W75173  41.503  18.628   1.768
11406W        W75174  30.650  30.539   4.134
11407W        W75175  11.275  34.028   3.802
11408W        W75176  14.809  30.591   2.681
11409W        W75177   2.419   8.675   3.274
11410W        W75178  28.616  20.092  14.979
11411W        W75179   8.773  34.880  13.439
11412W        W75180  14.310  33.916  14.396
11413W        W75181   6.799   1.369  10.604
11414W        W75182  18.744  31.036   4.130
11415W        W75183  21.084  34.458   2.326
11416W        W75184   3.872  18.553   0.855
11417W        W75185  42.333  10.306   1.909
11418W        W75186  28.150  24.001   3.339
11419W        W75187  14.295   8.850   3.846
11420W        W75188  11.247   9.215   1.375
11421W        W75189  14.654  11.696   0.333
11422W        W75190   6.718  29.575   0.744
11423W        W75191  42.844  38.500  10.436
11424W        W75192   3.350  40.440   3.349
11425W        W75193  36.414  23.555   0.857
11426W        W75194  16.635   1.835   1.238
11427W        W75195   7.325   1.447   1.297
11428W        W75196  40.003  13.658  11.538
11429W        W75197  21.097  16.759   4.738
11430W        W75198  42.029  40.901  10.541
11431W        W75199   8.242  11.642   3.195
11432W        W75200  17.273   3.391   4.622
11433W        W75201  10.756  26.527   1.800
11434W        W75202  41.432  13.312  14.315
11435W        W75203  22.720  38.930   4.701
11436W        W75204  16.226  19.127  11.054
11437W        W75205  10.851  41.368  13.418
11438W        W75206  10.379  32.434   2.306
11439W        W75207  18.238  30.135   3.659
11440W        W75208  32.127  13.137   3.162
11441W        W75209  33.625   4.925   9.991
11442W        W75210  15.652  33.092  10.464
11443W        W75211  42.805   7.377  13.991
11444W        W75212   8.726   7.688   5.171
11445W        W75213  19.189  38.354  14.481
11446W        W75214  44.319  34.905  14.971
11447W        W75215   6.853  25.110   0.264
11448W        W75216  27.495  42.968   4.333
11449W        W75217   0.877  27.472  14.461
11450W        W75218  36.029  20.240  11.016
11451W        W75219  19.254  40.999  13.994
11452W        W75220  21.143  25.621   4.642
11453W        W75221  39.924  26.534   3.244
11454W        W75222  16.626   9.222  13.312
11455W        W75223  44.938  33.496  10.589
11456W        W75224  16.093  25.598   2.281
11457W        W75225  27.503   5.908   0.279
11458W        W75226   3.297  10.156   1.441
11459W        W75227  14.715  25.575   1.875
11460W        W75228  35.580  21.188   3.245
11461W        W75229  34.471  40.480   4.337
11462W        W75230  26.567  38.868  11.013
11463W        W75231  37.985  28.451   1.280
11464W        W75232  29.443  40.414  10.012
11465W        W75233  35.108  35.923  14.828
11466W        W75234  36.396   2.228   2.715
11467W        W75235  25.609  36.867  11.112
11468W        W75236  36.944  12.254   1.414
11469W        W75237  13.252   6.372  13.048
11470W        W75238  24.013  33.030  14.458
11471W        W75239  43.021  24.115   1.242
11472W        W75240  41.512   8.860   0.311
11473W        W75241  16.745   8.659   1.269
11474W        W75242  21.752  14.338  14.860
11475W        W75243  42.307  25.504   2.267
11476W        W75244  33.521  43.383   0.804
11477W        W75245  29.487  19.108   3.307
11478W        W75246  12.258  33.131  14.869
11479W        W75247   2.871  13.272   3.223
11480W        W75248  30.141  21.053  14.445
11481W        W75249   6.716  15.612   3.154
11482W        W75250  20.703  18.580   1.773
11483W        W75251  22.684  28.019   1.926
11484W        W75252  35.949  43.797  10.534
11485W        W75253  29.640   9.364  13.865
11486W        W75254  22.231  36.928   0.472
11487W        W75255   0.408  41.815   0.360
11488W        W75256  41.010  32.453  14.845
11489W        W75257  27.095  27.961   4.790
11490W        W75258  44.453  40.494   2.299
11491W        W75259  28.508  42.290  14.925
11492W        W75260  12.299   9.711  14.825
11493W        W75261  14.760  19.214  11.440
11494W        W75262   0.762  15.116   3.244
11495W        W75263  31.991   3.744  12.358
11496W        W75264  29.642  41.874  10.937
11497W        W75265  37.438  16.314   3.755
11498W        W75266  21.537  38.071  12.395
11499W        W75267  27.589  17.078   0.256
11500W        W75268  22.995   5.802  11.581
11501W        W75269  33.938  39.425   3.259
11502W        W75270  41.957   9.219  13.526
11503W        W75271  10.632  10.239   4.354
11504W        W75272  22.995   9.371  11.428
11505W        W75273  31.636  31.419   1.392
11506W        W75274  33.596  14.206   1.726
11507W        W75275   5.214  31.431  13.921
11508W        W75276  23.188  26.153   4.599
11509W        W75277  19.146  41.485  13.854
11510W        W75278   2.740  22.594   4.256
11511W        W75279  15.611   2.881   2.363
11512W        W75280   3.952  27.460   0.476
11513W        W75281  10.244  28.958   2.419
11514W        W75282   0.775  38.343   4.796
11515W        W75283  10.826  20.129  10.986
11516W        W75284  34.538   6.400  11.529
11517W        W75285  43.388  14.602   3.827
11518W        W75286  44.991  23.552  13.947
11519W        W75287  26.016  30.615   3.654
11520W        W75288   3.741  26.137  12.501
11521W        W75289  36.087   3.861   0.964
11522W        W75290   3.937  14.251  12.510
11523W        W75291  44.474  39.811  12.370
11524W        W75292  24.520  14.756   3.852
11525W        W75293   8.776  21.085   2.889
11526W        W75294  17.604  24.544   0.757
11527W        W75295  20.727  17.114  13.451
11528W        W75296  43.516  19.595  14.994
11529W        W75297   8.381  19.108   1.756
11530W        W75298  25.635  36.434   2.714
11531W        W75299  19.636  30.507   5.256
11532W        W75300   3.714  40.991  10.483
11533W        W75301  12.803  11.632  10.930
11534W        W75302  42.842  44.307   2.279
11535W        W75303   5.808  20.060   4.199
11536W        W75304  25.522  43.828   1.389
11537W        W75305  33.532  32.500   4.168
11538W        W75306  33.953  35.440  10.462
11539W        W75307  22.045  20.031  11.464
11540W        W75308  31.944   4.705   0.966
11541W        W75309  20.713  43.800  11.530
11542W        W75310  25.105   6.785  13.838
11543W        W75311  24.625   2.239  13.861
11544W        W75312  44.978  39.941  13.431
11545W        W75313  19.574  29.055   2.758
11546W        W75314  12.765  16.757  12.488
11547W        W75315  20.090  33.485   0.354
11548W        W75316   9.257  31.506   2.750
11549W        W75317   2.832  27.943  14.305
11550W        W75318  42.825   8.846   2.329
11551W        W75319  20.239  42.434   0.342
11552W        W75320  40.006   9.389   3.728
11553W        W75321  32.912  25.173  11.894
11554W        W75322  15.306  33.523   3.815
11555W        W75323   2.240  10.696  13.455
11556W        W75324  40.900  42.349   1.352
11557W        W75325  19.546  44.479   5.266
11558W        W75326  16.772  25.983   2.230
11559W        W75327  15.221  35.378  14.278
11560W        W75328  37.455  18.249   0.431
11561W        W75329   5.434  41.844  14.024
11562W        W75330  37.379   0.282   4.288
11563W        W75331   3.914   0.416   0.410
11564W        W75332  15.129  36.510  13.048
11565W        W75333  42.982  41.373  12.096
11566W        W75334  24.519  34.010  12.030
11567W        W75335   2.791  31.078   3.632
11568W        W75336  37.849  16.136   4.744
11569W        W75337   6.887   3.439  12.485
11570W        W75338  19.584  26.144   3.175
11571W        W75339   8.263  35.476   0.876
11572W        W75340  21.673  44.258  11.546
11573W        W75341  39.370  14.807  10.495
11574W        W75342  11.776  12.144  11.878
11575W        W75343  43.906  21.539   1.330
11576W        W75344   6.787   5.238   4.652
11577W        W75345  43.484   6.267  12.093
11578W        W75346   6.361  19.057   0.345
11579W        W75347  39.458   4.735   3.723
11580W        W75348  20.156  13.159  13.388
11581W        W75349  18.282   8.728  13.922
11582W        W75350  28.007  36.088   1.253
11583W        W75351  33.031  10.219   0.343
11584W        W75352  44.405   7.806   3.380
11585W        W75353  13.255  14.181  11.498
11586W        W75354  36.461   6.419  14.928
11587W        W75355  38.849  37.366   1.419
11588W        W75356  41.508   5.696  14.365
11589W        W75357  26.042  13.184  14.868
11590W        W75358  23.571  11.633  14.367
11591W        W75359   8.684   7.724  11.899
11592W        W75360  32.585  32.934   3.294
11593W        W75361  18.664   0.900  11.457
11594W        W75362  33.505  21.620  14.905
11595W        W75363   5.886  35.994  12.081
11596W        W75364  22.739  26.691  13.341
11597W        W75365  40.906   1.807  11.960
11598W        W75366  24.684  10.174   4.632
11599W        W75367  10.252   8.705   2.769
11600W        W75368   8.303  12.318  10.630
11601W        W75369  30.011  43.363   1.811
11602W        W75370  33.044  39.477  12.040
11603W        W75371  24.715  22.634   4.332
11604W        W75372  28.581  26.620  13.359
11605W        W75373  21.577  10.679   1.376
11606W        W75374  24.195   3.393   1.237
11607W        W75375  21.180  17.715  10.564
11608W        W75376  19.229  44.364   0.432
11609W        W75377  36.406  30.558  12.901
11610W        W75378  22.054  33.099   0.296
11611W        W75379   9.830  41.398   2.816
11612W        W75380  44.998   4.217   0.871
11613W        W75381   3.240  18.713  11.994
11614W        W75382  30.121  37.364  14.874
11615W        W75383  28.465   1.821  12.011
11616W        W75384  14.654  34.088   0.879
11617W        W75385   4.237  31.060  10.524
11618W        W75386   3.885  18.096   0.917
11619W        W75387   3.778  15.086   3.180
11620W        W75388  42.498  31.534  13.361
11621W        W75389  30.513  26.988   3.211
11622W        W75390  13.289   4.445  11.023
11623W        W75391  23.506   3.840   4.634
11624W        W75392  24.085  29.497  11.913
11625W        W75393  22.126  19.739  14.459
11626W        W75394  24.677  17.714   3.797
11627W        W75395   0.948  10.359   3.179
11628W        W75396  32.602  24.609   1.891
11629W        W75397   5.711  42.444   3.260
11630W        W75398  22.083  10.635  10.645
11631W        W75399  24.708  39.453  10.933
11632W        W75400  26.621  36.374   2.221
11633W        W75401  25.604   8.271  14.781
11634W        W75402  39.406  22.509  12.937
11635W        W75403  26.970  43.478   1.334
11636W        W75404  18.639   6.268   9.944
11637W        W75405  21.674   3.748  10.563
11638W        W75406  11.712   3.229  10.160
11639W        W75407  32.916  28.127  13.821
11640W        W75408  19.137  25.208  11.523
11641W        W75409  26.010  37.959   2.690
11642W        W75410   4.842  10.657  14.778
11643W        W75411  23.059   7.809   0.247
11644W        W75412   8.364  16.250  11.428
11645W        W75413  44.753  25.623   4.781
11646W        W75414  30.151   9.165   2.287
11647W        W75415  25.674  37.522   3.738
11648W        W75416  18.169   8.678   4.833
11649W        W75417  23.512   5.793   0.887
11650W        W75418   4.736   1.282  11.401
11651W        W75419  34.370   3.241   0.466
11652W        W75420  25.991  19.132   1.315
11653W        W75421  34.386  15.178   0.918
11654W        W75422  25.586  26.954  11.889
11655W        W75423   9.191  15.630  12.399
11656W        W75424   7.676  26.124  14.357
11657W        W75425  29.657  28.082  14.781
11658W        W75426  38.907  22.084   0.471
11659W        W75427   3.820  28.633  12.866
11660W        W75428  18.643   8.707  11.991
11661W        W75429   7.348   1.447   0.416
11662W        W75430   1.734  37.034  12.934
11663W        W75431  21.647  31.934   4.183
11664W        W75432  27.589  12.294  10.489
11665W        W75433  44.010  41.329   2.212
11666W        W75434  33.591   1.334  10.602
11667W        W75435   7.225   4.422  12.998
11668W        W75436  38.531  31.456   0.905
11669W        W75437  11.697  28.178   3.664
11670W        W75438  18.234  18.148   0.483
11671W        W75439  22.223  25.136  12.926
11672W        W75440  36.505  23.062  11.005
11673W        W75441  22.695  18.733  13.307
11674W        W75442  29.462  25.089   4.153
11675W        W75443  10.687  40.507  12.886
11676W        W75444   8.329  11.363   0.887
11677W        W75445  11.129  28.953   1.821
11678W        W75446  29.598  40.424  13.959
11679W        W75447  31.420  14.201  14.989
11680W        W75448  35.967  12.665  11.912
11681W        W75449  30.069   1.801  14.940
11682W        W75450  41.840  34.001   1.697
11683W        W75451  37.953  16.590   2.804
11684W        W75452  39.519  26.095  11.504
11685W        W75453  35.876  11.305  12.380
11686W        W75454   8.819  26.588  10.551
11687W        W75455  26.537  16.148   4.279
11688W        W75456  33.089  43.469   1.800
11689W        W75457  29.160  21.193   2.267
11690W        W75458  15.679  28.579  13.886
11691W        W75459  19.133  43.395  14.954
11692W        W75460  21.635  35.433  14.447
11693W        W75461   0.957  39.025   2.206
11694W        W75462  19.268  40.465   3.248
11695W        W75463  20.151  35.409  11.042
11696W        W75464  34.403  24.616   2.681
11697W        W75465  40.382  25.157   4.169
11698W        W75466  34.423  28.995  13.009
11699W        W75467   9.670  21.585  12.511
11700W        W75468  23.199  15.212   3.229
11701W        W75469  25.998  44.350   0.266
11702W        W75470  16.738   3.731   0.861
11703W        W75471   4.820  11.746  12.084
11704W        W75472  39.866   1.341   3.262
11705W        W75473  42.937  33.531  10.567
11706W        W75474   6.805  20.051  11.597
11707W        W75475  34.403  17.615  13.064
11708W        W75476  18.589  44.973  12.001
11709W        W75477  14.639  30.106   4.173
11710W        W75478  36.046  35.021   0.432
11711W        W75479   2.797  17.645   2.302
11712W        W75480  14.271  29.969   4.736
11713W        W75481  30.003  19.709   4.623
11714W        W75482  33.393  27.603   4.800
11715W        W75483  42.787  22.504  13.367
11716W        W75484   3.371  33.100   2.199
11717W        W75485  26.957  25.518  11.882
11718W        W75486   4.221  14.634  14.406
11719W        W75487  20.207  33.505  12.923
11720W        W75488   2.470  14.670  13.334
11721W        W75489  40.374  18.611   0.963
11722W        W75490  35.407  22.551  10.966
11723W        W75491   0.266  20.716   0.941
11724W        W75492  35.430   2.228   1.239
11725W        W75493  14.706   0.481   2.326
11726W        W75494   0.346   3.712  11.888
11727W        W75495   3.809  44.764   1.777
11728W        W75496   4.749  31.059  10.982
11729W        W75497  41.341  44.850   2.233
11730W        W75498  36.400  22.999  14.828
11731W        W75499  13.327  36.021   1.362
11732W        W75500   7.332  14.744   0.268
11733W        W75501  40.825   4.392   2.379
11734W        W75502  12.313  13.715  10.892
11735W        W75503  30.017  44.832  13.335
11736W        W75504  40.341  24.173   2.266
11737W        W75505  15.736  20.534   5.203
11738W        W75506   3.945   7.335  12.554
11739W        W75507  20.633  14.099   2.900
11740W        W75508  13.656  40.381  13.026
11741W        W75509  21.123   8.323  12.847
11742W        W75510  13.692   0.280  11.569
11743W        W75511  17.569  16.084  12.962
11744W        W75512  27.983  40.991   3.319
11745W        W75513  44.412  37.554  11.097
11746W        W75514  17.084  13.245  14.278
11747W        W75515  18.698  40.861  12.575
11748W        W75516   1.787  10.212   4.222
11749W        W75517  44.869  24.104   3.727
11750W        W75518  38.938  30.655  14.303
11751W        W75519  44.004  10.751  12.349
11752W        W75520  24.171  38.820  12.392
11753W        W75521  37.857  38.935  14.823
11754W        W75522  28.669  10.876   4.628
11755W        W75523  44.343  36.349   1.718
11756W        W75524   0.933  31.070  11.108
11757W        W75525   9.271  16.686  10.535
11758W        W75526  30.508  12.165  10.953
11759W        W75527   3.777  44.776  11.904
11760W        W75528  24.531   8.368   0.880
11761W        W75529  30.553  33.532   2.697
11762W        W75530  27.492  15.138   2.881
11763W        W75531  38.421  30.452  11.080
11764W        W75532  30.544   9.350  12.064
11765W        W75533  25.040  34.082  12.342
11766W        W75534   0.761  32.013   2.410
11767W        W75535  43.806  25.685   0.310
11768W        W75536  35.046  12.299  14.983
11769W        W75537   8.281  35.519   4.757
11770W        W75538  12.176   7.796   4.723
11771W        W75539  13.155  44.891   3.687
11772W        W75540  27.477  13.612   3.737
11773W        W75541  40.916  40.963   0.432
11774W        W75542   3.888  24.114  14.347
11775W        W75543  16.123   5.260  12.918
11776W        W75544  14.801   1.891  11.983
11777W        W75545  28.116  13.263   2.393
11778W        W75546  17.180  15.239  13.373
11779W        W75547  19.638  14.625  13.340
11780W        W75548  17.724  38.013  14.284
11781W        W75549  39.337  11.714  13.935
11782W        W75550  36.905  25.010   0.941
11783W        W75551  10.376  13.681   1.400
11784W        W75552  41.821  29.058  13.415
11785W        W75553  34.883  43.337   0.766
11786W        W75554  36.043   8.805  14.861
11787W        W75555  35.537   7.266  12.096
11788W        W75556  36.900  44.274   2.860
11789W        W75557  36.929  19.117  14.876
11790W        W75558  12.848  32.539  13.014
11791W        W75559  20.035  24.566   4.201
11792W        W75560  32.931  36.988   3.281
11793W        W75561  30.957  20.630   2.899
11794W        W75562   3.774  27.475  11.438
11795W        W75563  29.431  30.146  11.010
11796W        W75564   4.737  37.343   1.885
11797W        W75565  23.705  19.555   3.159
11798W        W75566  17.756   7.892   1.806
11799W        W75567  34.536   0.301   0.426
11800W        W75568  18.077  43.803  13.448
11801W        W75569  12.154  28.091   1.224
11802W        W75570  30.058  30.084   1.783
11803W        W75571   6.917   4.391  10.966
11804W        W75572  34.929  29.111   0.465
11805W        W75573  40.921  32.454  11.409
11806W        W75574  34.087  40.046  13.467
11807W        W75575  34.996  21.032   3.248
11808W        W75576  27.139   6.330   2.889
11809W        W75577  13.739  32.438   2.303
11810W        W75578   2.754  27.097   0.273
11811W        W75579  26.477  33.428  14.807
11812W        W75580  34.397   5.727  11.496
11813W        W75581  12.192   0.463  14.335
11814W        W75582  31.639  17.265   4.256
11815W        W75583   8.777  30.538   2.842
11816W        W75584  27.070   3.810   3.273
11817W        W75585   7.339   9.355   2.828
11818W        W75586  33.461  25.586   1.254
11819W        W75587   3.324  10.710   4.322
11820W        W75588  10.144  34.442   3.720
11821W        W75589   3.323  24.979  12.880
11822W        W75590  39.355  34.959   3.321
11823W        W75591  20.544   6.308   4.210
11824W        W75592  22.732  41.485  14.938
11825W        W75593  19.225  38.915   0.815
11826W        W75594  16.566   3.856   4.725
11827W        W75595  38.488  17.774   2.399
11828W        W75596   7.201   2.837   0.376
11829W        W75597  42.428  15.791   4.203
11830W        W75598  37.076  34.554  13.312
11831W        W75599   5.237   3.923   2.213
11832W        W75600  41.938   3.389   4.331
11833W        W75601  36.908   0.874  14.921
11834W        W75602  32.475  43.324   4.811
11835W        W75603  27.603  10.315   1.414
11836W        W75604   3.315  13.612   0.790
11837W        W75605  36.917  18.287  10.981
11838W        W75606   7.824  29.560  11.044
11839W        W75607  44.444  41.861   2.726
11840W        W75608  21.640   1.404   2.324
11841W        W75609  32.026  41.926   1.859
11842W        W75610  34.010  24.124  12.946
11843W        W75611  25.686  25.208   1.388
11844W        W75612  24.107  39.472  14.877
11845W        W75613   2.438  39.412   3.149
11846W        W75614  35.916   0.775  13.344
11847W        W75615  13.833  13.642  14.339
11848W        W75616   0.411  42.900   2.213
11849W        W75617  20.050  30.109   4.145
11850W        W75618   2.436  16.633   0.385
11851W        W75619  26.148  20.753   0.732
11852W        W75620  19.698  22.684  14.294
11853W        W75621  36.505  33.522  11.442
11854W        W75622  15.194  18.699   0.748
11855W        W75623  27.170  23.176  10.430
11856W        W75624   3.451  15.800  11.422
11857W        W75625  26.614   8.791   9.938
11858W        W75626   6.835  11.813   1.349
11859W        W75627  44.815  37.370  12.539
11860W        W75628  16.690   6.868   2.805
11861W        W75629  42.301  27.515   3.654
11862W        W75630  33.416  18.754   2.231
11863W        W75631  38.023   1.245   1.732
11864W        W75632  16.744  33.888  13.541
11865W        W75633  24.053  31.543   1.363
11866W        W75634   4.250  16.806   1.807
11867W        W75635  13.201   5.884   3.798
11868W        W75636  43.354  27.083   1.210
11869W        W75637  30.020  25.192   3.257
11870W        W75638  37.086  43.779   4.777
11871W        W75639  12.217  25.480  14.797
11872W        W75640  40.922  25.001   1.335
11873W        W75641  25.712  31.432  11.420
11874W        W75642  27.652  42.383   4.812
11875W        W75643  44.762  11.706   0.767
11876W        W75644  18.085  16.134  11.382
11877W        W75645  14.818  40.314   2.847
11878W        W75646  10.236  31.512   3.644
11879W        W75647   3.399  16.688   2.232
11880W        W75648   3.449  28.463   0.447
11881W        W75649   8.375   7.284  10.994
11882W        W75650  34.559  16.204  12.863
11883W        W75651  30.563  10.727  12.877
11884W        W75652   7.748   4.764  14.861
11885W        W75653   4.759  17.607  11.560
11886W        W75654  41.868  32.462   4.831
11887W        W75655  19.216   7.667   3.813
11888W        W75656  30.108  12.640  13.386
11889W        W75657  40.933  13.250   2.902
11890W        W75658  15.737   3.288  14.464
11891W        W75659   2.941  26.518  10.115
11892W        W75660   5.282  22.657   4.809
11893W        W75661  26.027  24.081   2.238
11894W        W75662  12.143  11.320   2.326
11895W        W75663  43.919  12.728   1.415
11896W        W75664  31.401  26.532  12.083
11897W        W75665   8.717  24.036   4.337
11898W        W75666  33.955  21.182  10.586
11899W        W75667  28.487  35.513   0.268
11900W        W75668  23.222  29.993  11.866
11901W        W75669  44.282  13.195   0.424
11902W        W75670  42.299  40.842   3.804
11903W        W75671  28.985  35.403  13.499
11904W        W75672  17.159  40.009  13.860
11905W        W75673  14.724   9.311   3.153
11906W        W75674  44.438  26.008  13.341
11907W        W75675  25.108   3.826  11.885
11908W        W75676  13.753  23.709  10.425
11909W        W75677  25.157  23.130   2.702
11910W        W75678  10.823   5.733  13.997
11911W        W75679  25.593  38.864   1.366
11912W        W75680  10.878  38.066   4.194
11913W        W75681  19.283  27.609   4.188
11914W        W75682  32.527  23.091   2.834
11915W        W75683   0.321  13.841  14.902
11916W        W75684   1.303  35.519  12.484
11917W        W75685  17.258  21.721  12.943
11918W        W75686  28.943  36.986   1.746
11919W        W75687   8.366  29.135   4.810
11920W        W75688   7.821  37.483  12.368
11921W        W75689  15.265   7.786   0.908
11922W        W75690  11.818   0.785   4.619
11923W        W75691  39.941  11.677  14.808
11924W        W75692  15.738  16.693   9.488
11925W        W75693  18.694   5.749  14.889
11926W        W75694  37.552  18.182   3.385
11927W        W75695  27.609  23.109   4.335
11928W        W75696   1.805  17.201  13.039
11929W        W75697  31.481  19.588  14.372
11930W        W75698   7.722  44.923   0.348
11931W        W75699  34.514  24.049  11.569
11932W        W75700  13.625   7.808   4.827
11933W        W75701  19.668   0.339   0.827
11934W        W75702  36.885   6.343  11.387
11935W        W75703   4.250  32.516   1.230
11936W        W75704  11.753   7.766  12.369
11937W        W75705  11.764  30.415   3.253
11938W        W75706  16.268  40.402   1.393
11939W        W75707  43.275   1.471   0.769
11940W        W75708  36.089  43.449  13.971
11941W        W75709  24.615   6.678  13.833
11942W        W75710  28.461  38.868  11.047
11943W        W75711  23.035  33.397  13.325
11944W        W75712  18.668  19.090   1.782
11945W        W75713  22.006   9.394   2.274
11946W        W75714   1.951  24.574  12.387
11947W        W75715  38.336   5.426  10.928
11948W        W75716  27.610  17.135  13.882
11949W        W75717  30.115  30.511  13.978
11950W        W75718  27.000  44.328   2.214
11951W        W75719  10.851  25.027  10.516
11952W        W75720  32.969  42.926   1.342
11953W        W75721  32.611  19.661   2.730
11954W        W75722  35.422   0.352   2.262
11955W        W75723   7.772  14.156   3.181
11956W        W75724   4.308  20.556  11.868
11957W        W75725  38.392   4.345  14.825
11958W        W75726   6.317  26.049   3.156
11959W        W75727  42.478  38.852   4.734
11960W        W75728  20.626  20.147  14.823
11961W        W75729   5.267   7.787  12.565
11962W        W75730  13.773  16.745   4.345
11963W        W75731  31.910  33.026  12.504
11964W        W75732  19.756  12.217  13.045
11965W        W75733  40.897   8.308  10.956
11966W        W75734  25.192  38.871  14.826
11967W        W75735   5.368  44.858   1.350
11968W        W75736  19.173  36.491  12.421
11969W        W75737  21.602  14.715  14.371
11970W        W75738  33.104  29.626   4.629
11971W        W75739  29.439  29.158   1.872
11972W        W75740  22.740  14.739  13.832
11973W        W75741  38.937  37.029  12.541
11974W        W75742  18.685   2.377   4.127
11975W        W75743  25.186  15.749  14.997
11976W        W75744  25.679   0.492  10.985
11977W        W75745   8.317  14.231   0.477
11978W        W75746  13.259   6.855  13.940
11979W        W75747  39.433   6.348  13.538
11980W        W75748  16.635   1.880  12.517
11981W        W75749  41.032   1.338  12.050
11982W        W75750  44.462   1.790   3.742
11983W        W75751  18.172  29.600   2.377
11984W        W75752  15.810  29.964  13.371
11985W        W75753   8.364  10.771  12.479
11986W        W75754  42.892  41.440   0.929
11987W        W75755  21.264  22.530  13.935
11988W        W75756  38.929   5.908   4.739
11989W        W75757  24.228  43.327   1.873
11990W        W75758  23.572  40.363  11.428
11991W        W75759  32.973  33.405  11.384
11992W        W75760   7.851  21.633  13.945
11993W        W75761   8.244  18.562  14.304
11994W        W75762  30.570  22.149  13.933
11995W        W75763  14.636   1.284   1.387
11996W        W75764  37.975  22.607   2.302
11997W        W75765  10.344  43.790   4.162
11998W        W75766  20.628  25.049   0.918
11999W        W75767   2.933   8.201  12.052
12000W        W75768  31.956  11.725  10.634
12001W        W75769  15.101  20.097   2.410
12002W        W75770   6.275   0.934  14.834
12003W        W75771   8.219  31.052  13.902
12004W        W75772  43.427  35.386   3.799
12005W        W75773   6.728  28.459  10.426
12006W        W75774  17.664  37.888  13.440
12007W        W75775  31.599  37.340   2.227
12008W        W75776  30.164  38.562   2.674
12009W        W75777  43.877  32.586  12.078
12010W        W75778  22.656   2.863   2.820
12011W        W75779  32.476  31.087  12.424
12012W        W75780  15.175  17.129   1.291
12013W        W75781  34.544  24.585  11.558
12014W        W75782  16.201  13.336  13.438
12015W        W75783   8.311  20.768  10.631
12016W        W75784   0.333  32.095  10.591
12017W        W75785  18.173  16.134   5.313
12018W        W75786  24.161  32.496   1.272
12019W        W75787  19.144   6.752  10.503
12020W        W75788   8.669  22.999  10.441
12021W        W75789  13.269  14.275   0.293
12022W        W75790  38.563   3.260  12.073
12023W        W75791   2.724  15.296   1.781
12024W        W75792  39.920  26.506   0.918
12025W        W75793  18.560  34.560   1.867
12026W        W75794   2.312  11.137   2.210
12027W        W75795  28.583  20.260   1.784
12028W        W75796  15.142  31.402   0.251
12029W        W75797  23.191  16.245  11.037
12030W        W75798  32.522   3.402   3.345
12031W        W75799   1.385  13.817  11.087
12032W        W75800  11.252  28.566   3.821
12033W        W75801  24.222   6.406  11.515
12034W        W75802   3.899  40.977   2.755
12035W        W75803  44.314  15.823   2.690
12036W        W75804  36.422  36.920   0.332
12037W        W75805  16.089  41.002  12.435
12038W        W75806  19.603  22.204  13.990
12039W        W75807  40.492  13.308   4.184
12040W        W75808  27.677  25.185   1.711
12041W        W75809   7.681  25.974   1.813
12042W        W75810  13.812   3.738  12.976
12043W        W75811  15.104  15.664  10.890
12044W        W75812  14.232  15.087   1.308
12045W        W75813  34.569   5.912   1.360
12046W        W75814  42.898  42.359   3.795
12047W        W75815  21.537  32.922  13.007
12048W        W75816  19.680   6.194  12.384
12049W        W75817   3.932  31.625  11.876
12050W        W75818   5.406  39.545  14.937
12051W        W75819  21.679  21.198  12.826
12052W        W75820  26.525  31.074   2.818
12053W        W75821  18.679  22.663  13.050
12054W        W75822  10.686   6.843  14.846
12055W        W75823  28.656  23.567  11.559
12056W        W75824  42.464  43.007   3.378
12057W        W75825   5.917  22.006  10.925
12058W        W75826  12.252  42.837   2.306
12059W        W75827  27.560  36.913   3.270
12060W        W75828   7.798   5.830  14.852
12061W        W75829  36.378   9.842   2.782
12062W        W75830  26.094  29.423  12.906
12063W        W75831  18.599   0.971   3.817
12064W        W75832  26.961  41.355  12.959
12065W        W75833  14.598  30.117   1.442
12066W        W75834  42.015   0.489  13.344
12067W        W75835  14.642  41.400   1.447
12068W        W75836   5.795  28.986   0.377
12069W        W75837  35.865  37.370   4.169
12070W        W75838  40.387  31.644   3.151
12071W        W75839  25.992  20.575   3.774
12072W        W75840  43.428  17.757  12.035
12073W        W75841  38.859  12.344   3.203
12074W        W75842   3.799  17.238   0.274
12075W        W75843  18.697  34.977   2.666
12076W        W75844  43.828  17.281   1.917
12077W        W75845  26.973  29.485   2.292
12078W        W75846  10.675  43.502   4.742
12079W        W75847  11.318  30.154  10.932
12080W        W75848  23.168  38.346   4.637
12081W        W75849   1.765  15.084  14.874
12082W        W75850  28.098  10.182  13.828
12083W        W75851  38.346  26.671  10.499
12084W        W75852  16.638  23.697  11.596
12085W        W75853  42.973  31.486  13.400
12086W        W75854  37.881  32.986   3.339
12087W        W75855   3.822  39.855   0.452
12088W        W75856  42.345   0.490   3.173
12089W        W75857   5.808  37.017  12.079
12090W        W75858  26.103   0.263  11.925
12091W        W75859  16.212  15.267  10.043
12092W        W75860  18.750  30.584   3.310
12093W        W75861  43.292  19.218   4.807
12094W        W75862   3.896  23.990  13.982
12095W        W75863  13.194  29.567  13.992
12096W        W75864  12.707  20.735  11.923
12097W        W75865   2.956  32.013  14.398
12098W        W75866  11.175  16.618   2.841
12099W        W75867  19.696   7.759   4.261
12100W        W75868  14.816  11.369   9.963
12101W        W75869  41.909  27.682   3.687
12102W        W75870  17.070  22.627   0.915
12103W        W75871   9.172  31.088  12.393
12104W        W75872  33.617  21.699  14.297
12105W        W75873  32.534  32.596   1.228
12106W        W75874  35.069  32.441   1.278
12107W        W75875   8.397  41.994  14.894
12108W        W75876  40.909  20.167   0.783
12109W        W75877   7.706  26.970  11.588
12110W        W75878  26.460  21.153  14.387
12111W        W75879  35.103  43.835  11.432
12112W        W75880   5.257  13.245   3.859
12113W        W75881  34.002  29.638  13.847
12114W        W75882  36.573  27.596  12.446
12115W        W75883   5.403  33.001  12.834
12116W        W75884  14.231   4.214  14.954
12117W        W75885   8.684  39.888   2.668
12118W        W75886  36.071  12.746  10.507
12119W        W75887  23.637  29.988   2.301
12120W        W75888  24.046  35.097   1.338
12121W        W75889   7.353  34.100  14.300
12122W        W75890  21.113  41.970   4.611
12123W        W75891  16.717  41.011  11.960
12124W        W75892  11.762  19.600   1.930
12125W        W75893   5.839  19.230   2.893
12126W        W75894  39.421  43.335  13.949
12127W        W75895  18.591  13.644   1.885
12128W        W75896  24.196  36.497   4.761
12129W        W75897  34.483  15.171   4.260
12130W        W75898  10.806  22.041  11.867
12131W        W75899  29.457  25.602  11.572
12132W        W75900   8.767  41.857   4.178
12133W        W75901  16.209  10.238   0.914
12134W        W75902   2.906   7.185   1.349
12135W        W75903  23.056  31.502  14.028
12136W        W75904  40.878  35.886  10.503
12137W        W75905  39.899  34.072   0.844
12138W        W75906  11.349  21.692  12.941
12139W        W75907   8.674   2.367   2.691
12140W        W75908   0.959  12.181   4.182
12141W        W75909  28.053  11.706   9.973
12142W        W75910  14.164  11.239  10.528
12143W        W75911   8.887  16.274  14.423
12144W        W75912  10.638  28.146   3.644
12145W        W75913  16.767  30.917   1.349
12146W        W75914  23.507   2.307  11.933
12147W        W75915  26.974  43.299  11.592
12148W        W75916  13.629   2.399  12.522
12149W        W75917  16.618   3.242   1.298
12150W        W75918   4.385   1.395  14.277
12151W        W75919  44.397  26.983  12.996
12152W        W75920  14.131  21.700   4.743
12153W        W75921  25.693  22.702   1.307
12154W        W75922  21.687   2.451   0.880
12155W        W75923  22.674   8.253  12.413
12156W        W75924   9.735  33.560  13.808
12157W        W75925  17.621   0.353  14.881
12158W        W75926  30.102  12.220   3.724
12159W        W75927  30.908  41.533  10.544
12160W        W75928  22.572  13.721   2.700
12161W        W75929  13.656  35.892   0.850
12162W        W75930  30.582  30.949  13.959
12163W        W75931  14.209   0.865  11.452
12164W        W75932  22.167  43.388   1.757
12165W        W75933   6.219   8.774   2.843
12166W        W75934  16.190   3.402  14.027
12167W        W75935  27.063  24.614  14.319
12168W        W75936  38.439  18.186  11.608
12169W        W75937   7.265  44.869   4.248
12170W        W75938   7.775  27.593   2.317
12171W        W75939  28.060   0.980  13.034
12172W        W75940  23.685  36.016  14.420
12173W        W75941  28.956  27.096   2.761
12174W        W75942  10.166   6.725   1.413
12175W        W75943   7.174  17.137  11.468
12176W        W75944   9.726  15.170  12.055
12177W        W75945  20.529   5.910   4.180
12178W        W75946  40.327  43.942  12.512
12179W        W75947  34.078   0.471  14.954
12180W        W75948  31.594  28.029   1.731
12181W        W75949  20.273  27.120  11.890
12182W        W75950  27.019  28.181  12.411
12183W        W75951   5.249  29.533   2.747
12184W        W75952   2.278  18.721   9.951
12185W        W75953   0.759   3.802  12.960
12186W        W75954  20.674  33.508  14.885
12187W        W75955  23.200  43.298  13.337
12188W        W75956   0.266  37.838   3.286
12189W        W75957   8.236  43.900  11.561
12190W        W75958  13.253  37.513   5.176
12191W        W75959  10.285  34.975  13.965
12192W        W75960   4.291  43.860   0.243
12193W        W75961   4.447  13.320  13.017
12194W        W75962   8.829  35.862   4.238
12195W        W75963  16.123   8.361  11.551
12196W        W75964  17.079  31.604  10.559
12197W        W75965  39.534  16.312   4.263
12198W        W75966  10.195  27.477  14.779
12199W        W75967  13.122  44.489  12.549
12200W        W75968  15.223  39.336  12.046
12201W        W75969  44.872  22.227   2.890
12202W        W75970  11.775   1.771   0.413
12203W        W75971  16.254  34.401  13.530
12204W        W75972  21.190  44.006  11.085
12205W        W75973   6.878  23.215  14.854
12206W        W75974  31.067   2.247   0.339
12207W        W75975  30.999  38.473  10.916
12208W        W75976  37.883  33.605  13.316
12209W        W75977   4.214  17.178   2.404
12210W        W75978  40.314   3.441   1.811
12211W        W75979   9.233   4.880   4.320
12212W        W75980   1.846  26.516   4.771
12213W        W75981  23.214  24.638   2.786
12214W        W75982   3.924  38.511   2.184
12215W        W75983  33.053  18.104  14.475
12216W        W75984  33.464   5.392   1.213
12217W        W75985  34.943  35.428   3.743
12218W        W75986  27.586   0.319  14.457
12219W        W75987  38.935  32.570  12.877
12220W        W75988  15.587   1.290  13.367
12221W        W75989   5.828  24.995  11.873
12222W        W75990  17.556   4.337   2.219
12223W        W75991  34.084  21.059   3.168
12224W        W75992   2.341  15.688   2.785
12225W        W75993  13.777  39.957   4.211
12226W        W75994  26.197   1.908   3.669
12227W        W75995  21.713  40.909   3.330
12228W        W75996  31.085  42.976   5.256
12229W        W75997  33.451  18.146   2.862
12230W        W75998   3.767  15.619  11.526
12231W        W75999  44.332  30.088   0.876
12232W        W76000  16.639  21.103   0.814
12233W        W76001   8.839   1.892  13.339
12234W        W76002  22.637  28.108  14.961
12235W        W76003  44.850  37.864  13.809
12236W        W76004  32.627  15.294   4.618
12237W        W76005   5.214  42.820  10.417
12238W        W76006  24.588  15.201  11.009
12239W        W76007  34.465  17.769  10.007
12240W        W76008  41.008  29.077   0.396
12241W        W76009  29.471  36.461   0.826
12242W        W76010  28.000  29.040  10.135
12243W        W76011  38.375  35.050   1.406
12244W        W76012  24.559   5.241  13.817
12245W        W76013   6.210  15.320   2.290
12246W        W76014  28.981  38.534  14.307
12247W        W76015  44.923  12.329   0.776
12248W        W76016  33.993  20.551  12.938
12249W        W76017  41.011  34.535  14.484
12250W        W76018  25.589  24.186  11.057
12251W        W76019   6.189  15.781  11.461
12252W        W76020  22.021  33.099  12.010
12253W        W76021  39.864  29.016  11.404
12254W        W76022  15.707  19.263   3.793
12255W        W76023  29.965  17.240  10.574
12256W        W76024  10.194  37.942   2.280
12257W        W76025  13.605  14.821  11.928
12258W        W76026  39.470  11.352  10.986
12259W        W76027  23.997  40.480  13.007
12260W        W76028  28.514  11.355   9.496
12261W        W76029  39.970  11.258   2.668
12262W        W76030   5.243  22.085  14.340
12263W        W76031  25.215  42.378   1.849
12264W        W76032   7.354   7.314   0.886
12265W        W76033  41.312  43.279  11.407
12266W        W76034  16.786   8.314  11.866
12267W        W76035  31.609  41.324  13.312
12268W        W76036   3.718  37.833  13.401
12269W        W76037  28.439   5.241  10.536
12270W        W76038  31.447  22.091  14.976
12271W        W76039  29.094   9.262  11.934
12272W        W76040  43.008  34.518   4.745
12273W        W76041   0.827  28.587   1.803
12274W        W76042  43.980  26.093   0.272
12275W        W76043  35.545  18.646  11.870
12276W        W76044  20.220  40.932   2.297
12277W        W76045   4.840  10.231   2.692
12278W        W76046  22.702  33.082   2.867
12279W        W76047  10.654   3.328  11.969
12280W        W76048  14.126  39.857   1.394
12281W        W76049  35.032  17.301   0.382
12282W        W76050  27.165  27.940   4.133
12283W        W76051  13.221  15.092  14.027
12284W        W76052  21.049  23.209  10.966
12285W        W76053  40.535  42.969  11.067
12286W        W76054  23.590  20.264   1.731
12287W        W76055  33.955   0.955   0.348
12288W        W76056  29.052   9.212   4.222
12289W        W76057  33.073  24.184   3.365
12290W        W76058  35.386  32.098   0.944
12291W        W76059  22.673  14.240  11.406
12292W        W76060  24.122   8.803   2.764
12293W        W76061   8.186  26.566   0.907
12294W        W76062  18.689   1.259   3.868
12295W        W76063  36.065  16.312   3.728
12296W        W76064  40.047  11.629   3.298
12297W        W76065  16.666  17.240  12.899
12298W        W76066   9.362  21.029   4.836
12299W        W76067  29.925  42.907   3.330
12300W        W76068  36.964  28.483  11.447
12301W        W76069  20.556  36.465   0.892
12302W        W76070   3.769  42.878   1.376
12303W        W76071  33.599  10.316  12.022
12304W        W76072  31.580  33.475   3.225
12305W        W76073  41.401   0.894  11.432
12306W        W76074   3.784  18.125  14.881
12307W        W76075  32.074  11.221   1.725
12308W        W76076  12.694  12.280   0.344
12309W        W76077  43.793  37.568   3.865
12310W        W76078   7.184   5.366  12.837
12311W        W76079   5.248  34.612  12.508
12312W        W76080  27.571  32.434   5.263
12313W        W76081   2.319   8.831   1.287
12314W        W76082  12.623  36.552   3.203
12315W        W76083  41.413  33.487   1.803
12316W        W76084   5.257  15.577  12.027
12317W        W76085   5.771  43.901  11.033
12318W        W76086  21.580  12.249  14.858
12319W        W76087   6.310  43.008   4.277
12320W        W76088  32.129  37.910  13.382
12321W        W76089   1.955   7.259  14.889
12322W        W76090   1.246  38.018  14.386
12323W        W76091  21.173  39.843   2.691
12324W        W76092  16.277  37.967  13.323
12325W        W76093   0.742  14.776   2.864
12326W        W76094  33.048  28.051   4.690
12327W        W76095  14.264  27.947   3.750
12328W        W76096   1.854  40.440   4.279
12329W        W76097  14.714   3.322   0.917
12330W        W76098  13.695  20.642  12.011
12331W        W76099  26.519   4.935  14.850
12332W        W76100  27.044  44.801  11.897
12333W        W76101  15.262  23.039   2.669
12334W        W76102   8.717  11.345   2.345
12335W        W76103  32.500  21.727   4.752
12336W        W76104  18.277  15.725  14.786
12337W        W76105  36.872   6.285  14.350
12338W        W76106   0.318  41.333  11.970
12339W        W76107   8.368  28.509   0.297
12340W        W76108  10.355  29.500  11.382
12341W        W76109  20.574  14.659   4.831
12342W        W76110   3.425  40.947   1.340
12343W        W76111   2.812  11.310  12.990
12344W        W76112  18.598  15.181   1.304
12345W        W76113  10.756  22.198  14.332
12346W        W76114  40.849  21.707   1.409
12347W        W76115  27.152  20.248  12.905
12348W        W76116  10.680  34.549   4.838
12349W        W76117  19.665  23.728   9.923
12350W        W76118  33.584  25.485  13.438
12351W        W76119   8.229   1.769   2.238
12352W        W76120  13.165  19.740  14.936
12353W        W76121  30.639  16.689   2.212
12354W        W76122  41.801  13.130  14.300
12355W        W76123  35.071  31.479   1.835
12356W        W76124  26.635  11.234   3.706
12357W        W76125  40.975  20.077   3.192
12358W        W76126   7.222  27.081   2.763
12359W        W76127  24.086  14.697  13.845
12360W        W76128  35.387   1.395   0.312
12361W        W76129  25.192   7.192  12.397
12362W        W76130  24.497  27.958   2.198
12363W        W76131  34.054  27.100  11.998
12364W        W76132  24.077  34.062  14.354
12365W        W76133   4.779  12.159  12.936
12366W        W76134  30.430  33.942  12.008
12367W        W76135   8.768  11.282  11.997
12368W        W76136  38.391  18.283   4.822
12369W        W76137   0.473   7.700  12.490
12370W        W76138  31.005  28.675   3.237
12371W        W76139  40.511  38.553  14.863
12372W        W76140  32.119  29.069   2.284
12373W        W76141  30.956  27.162   2.854
12374W        W76142  42.885  38.978   4.786
12375W        W76143  13.818  11.650   0.366
12376W        W76144  42.315  29.107   1.437
12377W        W76145  42.918  28.137   0.934
12378W        W76146  44.938  30.032  13.029
12379W        W76147  37.366  23.162   0.758
12380W        W76148   4.433  10.796  12.985
12381W        W76149  27.629  34.876  12.450
12382W        W76150  18.627   3.718   2.308
12383W        W76151   8.254  16.224  14.956
12384W        W76152  26.462   9.296   2.666
12385W        W76153   9.650  33.879  11.544
12386W        W76154  29.103   6.423   3.771
12387W        W76155  20.713  28.929  10.954
12388W        W76156  17.172  11.725   4.757
12389W        W76157  25.601  19.643  12.446
12390W        W76158  16.812  16.215   4.291
12391W        W76159   2.849   2.271   4.124
12392W        W76160  20.168  34.040   2.763
12393W        W76161  40.467  36.927   3.697
12394W        W76162   9.748  41.530   2.213
12395W        W76163  11.641  39.550  10.927
12396W        W76164   2.347  27.988  13.955
12397W        W76165  12.286  30.413  13.507
12398W        W76166  44.408  17.143   4.194
12399W        W76167  38.914  28.135  12.006
12400W        W76168  21.151  39.998  10.105
12401W        W76169  23.115   8.680   3.174
12402W        W76170  12.730   2.250  13.838
12403W        W76171   6.768   9.707   4.652
12404W        W76172  22.713  16.746  10.640
12405W        W76173  21.690   8.309  11.419
12406W        W76174  15.141  42.454   1.445
12407W        W76175   5.275  28.523   4.212
12408W        W76176   4.276  38.478   3.663
12409W        W76177   5.797  22.218   4.286
12410W        W76178  13.823  13.177   0.836
12411W        W76179  37.968   5.337   3.241
12412W        W76180  20.075   2.734   3.750
12413W        W76181  30.003  19.209   2.192
12414W        W76182  41.465   3.844  12.474
12415W        W76183  15.210  26.043   2.289
12416W        W76184  44.283   0.780  14.282
12417W        W76185   8.235  43.272  13.865
12418W        W76186  14.167   5.283   2.387
12419W        W76187  13.214  41.316   2.415
12420W        W76188   0.879  21.256  12.482
12421W        W76189  25.559  31.002   1.423
12422W        W76190   6.366  34.483  10.535
12423W        W76191   0.743   7.792  13.865
12424W        W76192   8.768  40.500   0.951
12425W        W76193  42.895  42.447  11.882
12426W        W76194  40.321  39.987   4.693
12427W        W76195  28.662  37.528   2.681
12428W        W76196   7.830  18.768  10.482
12429W        W76197  36.520   5.386  11.541
12430W        W76198  39.896  22.528   1.342
12431W        W76199  16.590  27.084   2.724
12432W        W76200   7.889  27.009   1.934
12433W        W76201  27.547   2.845  11.490
12434W        W76202  40.468  40.364   1.717
12435W        W76203   4.263  29.460  12.479
12436W        W76204  43.965  21.194  10.989
12437W        W76205   5.689  43.945   3.339
12438W        W76206  17.205  40.411  12.941
12439W        W76207  25.011  20.159   2.699
12440W        W76208  38.489  34.538  11.923
12441W        W76209  21.602  27.993   0.294
12442W        W76210  21.073  24.029  10.094
12443W        W76211  37.514  34.936  12.514
12444W        W76212  38.051  14.098   4.324
12445W        W76213  41.006  23.210   0.960
12446W        W76214   9.782   0.887   1.329
12447W        W76215  20.754  21.627  12.873
12448W        W76216   4.355  40.408   3.223
12449W        W76217   9.361  12.651  11.520
12450W        W76218  21.747   0.864  14.925
12451W        W76219  23.090  10.668  14.868
12452W        W76220  30.973  43.768  14.316
12453W        W76221   9.164  28.995  12.046
12454W        W76222   6.263  14.322   1.366
12455W        W76223  35.095  41.489  14.877
12456W        W76224   6.353  32.508  14.331
12457W        W76225  18.781  39.413   2.785
12458W        W76226  25.700  43.470   1.731
12459W        W76227   9.388   2.802   4.250
12460W        W76228  23.510  33.912   5.220
12461W        W76229  21.017  41.859  10.575
12462W        W76230  16.813  34.504   1.721
12463W        W76231  37.861  20.213   0.874
12464W        W76232  14.618  22.121   2.343
12465W        W76233  40.963  33.569  14.490
12466W        W76234   4.778  18.053   0.483
12467W        W76235  30.995  39.384   2.328
12468W        W76236  37.538  27.955  13.375
12469W        W76237  35.924  12.118   1.809
12470W        W76238   8.729  21.106   1.335
12471W        W76239   1.972  34.456  14.948
12472W        W76240  41.451  41.800  13.880
12473W        W76241  22.153  44.458   3.852
12474W        W76242  15.264  19.085  11.908
12475W        W76243  32.958  17.557   2.675
12476W        W76244  34.370  33.032  10.537
12477W        W76245  38.936  44.352  11.948
12478W        W76246  36.978   9.235  12.084
12479W        W76247  11.259  33.978  14.307
12480W        W76248  17.783  43.822   4.766
12481W        W76249  20.170  22.707  14.839
12482W        W76250  10.817  31.118   2.867
12483W        W76251   4.820  19.060  12.047
12484W        W76252  15.292  26.986  11.858
12485W        W76253  29.918  22.200   4.726
12486W        W76254  27.656  32.609   1.234
12487W        W76255  34.097  29.609   3.800
12488W        W76256  17.152  15.660   1.263
12489W        W76257  23.575  40.965  12.956
12490W        W76258  23.727  10.368  12.872
12491W        W76259  15.205  11.847  11.378
12492W        W76260   3.825   6.236   3.238
12493W        W76261   5.807  30.536  13.907
12494W        W76262   8.773  19.607  14.887
12495W        W76263   0.278  11.360  12.495
12496W        W76264  34.976  23.094   1.745
12497W        W76265  17.615   1.812  14.927
12498W        W76266  42.017  11.814   2.773
12499W        W76267   9.849  25.027   4.761
12500W        W76268  13.215   6.907  12.381
12501W        W76269  37.367   9.711  13.035
12502W        W76270  31.024  18.630  12.928
12503W        W76271  16.653  30.937   4.183
12504W        W76272  31.532  21.072  14.362
12505W        W76273  37.448  19.101  13.890
12506W        W76274   8.897  10.299  12.392
12507W        W76275  10.362  41.802   1.899
12508W        W76276  29.976   6.203   1.263
12509W        W76277  31.629   2.443  10.448
12510W        W76278  36.992  18.630   4.171
12511W        W76279  11.176  36.513  10.968
12512W        W76280  17.787   7.790   2.771
12513W        W76281   7.211  13.715   0.918
12514W        W76282  10.641  24.136   3.759
12515W        W76283  16.273   6.724   2.862
12516W        W76284  20.718  33.533   5.082
12517W        W76285  26.112  38.401  13.400
12518W        W76286   1.438   0.301   0.767
12519W        W76287  35.530  39.425  11.952
12520W        W76288  29.525  40.329   1.762
12521W        W76289  15.266  20.206   0.938
12522W        W76290   4.242  12.246  10.581
12523W        W76291  23.205  43.808  12.880
12524W        W76292  23.994  22.550   2.739
12525W        W76293  30.503   5.217  11.859
12526W        W76294  43.398  20.733   0.281
12527W        W76295  25.597   1.796   5.104
12528W        W76296  21.690   6.254   3.259
12529W        W76297  34.540   5.749   2.729
12530W        W76298  14.680  44.436  10.108
12531W        W76299   1.787  43.508  13.492
12532W        W76300  42.453  15.745  13.995
12533W        W76301  29.032  18.653  11.519
12534W        W76302  34.500   2.833  11.928
12535W        W76303   7.884  32.505   1.326
12536W        W76304  28.679  44.379   1.408
12537W        W76305   4.827   5.209  14.324
12538W        W76306  14.826  24.568  14.940
12539W        W76307  32.004   9.684  11.608
12540W        W76308  42.839  18.118   2.688
12541W        W76309   0.311   2.841  10.599
12542W        W76310  11.180  15.160   2.813
12543W        W76311   8.837   2.320  14.434
12544W        W76312  16.259  36.937   2.390
12545W        W76313  14.185  28.063   4.624
12546W        W76314  20.195  42.434  12.941
12547W        W76315   4.274   0.939   2.883
12548W        W76316  15.230  27.606   0.800
12549W        W76317  22.675  26.070   4.680
12550W        W76318  22.598   2.863  13.979
12551W        W76319  38.004  20.056   4.211
12552W        W76320   6.789  36.098   1.718
12553W        W76321  14.202  31.417  11.962
12554W        W76322  20.688   5.319  12.082
12555W        W76323  39.362  40.022   2.707
12556W        W76324   0.343   4.791  10.406
12557W        W76325  29.591  42.283   1.833
12558W        W76326  32.432  26.105  12.834
12559W        W76327  41.003  41.031  11.392
12560W        W76328  19.661   7.191  12.943
12561W        W76329  42.912  14.143   5.084
12562W        W76330  12.829  41.942   3.290
12563W        W76331   8.844  29.148   3.193
12564W        W76332  17.674  27.174  13.849
12565W        W76333  11.181  23.038   4.804
12566W        W76334  11.297   1.968  13.840
12567W        W76335   3.215   0.945   0.283
12568W        W76336   4.821  40.802   2.317
12569W        W76337  20.730  32.066  13.021
12570W        W76338   2.344  24.684   3.702
12571W        W76339  25.543  37.573  12.524
12572W        W76340   0.822  16.778   1.418
12573W        W76341  11.248   7.717  11.906
12574W        W76342   2.275  32.098  14.945
12575W        W76343   3.430  15.764   0.802
12576W        W76344  21.157   1.811  10.527
12577W        W76345   7.838  18.657   1.212
12578W        W76346  39.897  12.719   0.342
12579W        W76347  18.767  24.997   4.222
12580W        W76348  34.032  16.184   4.174
12581W        W76349   6.732   5.301  10.565
12582W        W76350  24.003  12.118   2.739
12583W        W76351  21.683  30.063   4.230
12584W        W76352  31.456  32.057  12.379
12585W        W76353   6.340  13.257   3.269
12586W        W76354  29.487   0.960  12.409
12587W        W76355  22.238  34.537   2.852
12588W        W76356   0.764  23.568   4.711
12589W        W76357  38.385  44.403  11.576
12590W        W76358  35.484  11.650   2.387
12591W        W76359  16.605  18.296   3.815
12592W        W76360  15.707  30.113  13.022
12593W        W76361  41.963  29.947  13.487
12594W        W76362  28.150  10.272   1.423
12595W        W76363  20.215   1.932   0.794
12596W        W76364   5.434   6.420  14.772
12597W        W76365  36.950  16.193   1.725
12598W        W76366   6.371  31.512   2.305
12599W        W76367  21.657  25.039   2.790
12600W        W76368  35.551  11.727  10.971
12601W        W76369  15.111  37.518  13.013
12602W        W76370  21.166   0.864  10.594
12603W        W76371  26.081  17.283  12.461
12604W        W76372   1.385  36.367  13.401
12605W        W76373  18.092  16.083   0.760
12606W        W76374  28.098  44.823   0.370
12607W        W76375  35.384   0.839   3.240
12608W        W76376  37.914  34.472   1.247
12609W        W76377  23.712  43.852  10.950
12610W        W76378   6.249   6.747   2.360
12611W        W76379  16.249  15.320   0.945
12612W        W76380  12.193  43.509   4.139
12613W        W76381   0.431   2.333  11.424
12614W        W76382  25.487  33.425  11.024
12615W        W76383  24.064  12.224  11.883
12616W        W76384  23.556  11.192   0.840
12617W        W76385  15.682  38.044   4.223
12618W        W76386  41.416  38.444  13.517
12619W        W76387  13.758   1.440  10.643
12620W        W76388   4.313  31.973  14.808
12621W        W76389  44.820  12.820  14.412
12622W        W76390  43.464  16.649   3.164
12623W        W76391  39.406   4.367  11.401
12624W        W76392  13.600  43.286  14.296
12625W        W76393  42.456  23.100  13.015
12626W        W76394  39.505  35.930   4.156
12627W        W76395  36.008   9.158   1.255
12628W        W76396  42.952  38.384  11.874
12629W        W76397  44.935  25.542  14.370
12630W        W76398  33.890  15.705  14.919
12631W        W76399  43.996  29.013  13.843
12632W        W76400  14.667  29.021  14.356
12633W        W76401  36.582   0.313  14.957
12634W        W76402  28.639  34.107  14.362
12635W        W76403   1.831  12.167  13.013
12636W        W76404   3.927   4.842  13.808
12637W        W76405  38.550  29.654   3.321
12638W        W76406  30.036  35.096  11.482
12639W        W76407  15.820   8.683   0.747
12640W        W76408  41.526  32.393  14.303
12641W        W76409   4.308   0.384  14.784
12642W        W76410  28.617   3.314   4.686
12643W        W76411  18.610  28.974  12.379
12644W        W76412  36.952  39.858  12.485
12645W        W76413   0.386   0.951  13.932
12646W        W76414   4.871  21.533  12.494
12647W        W76415  15.734  30.477   4.281
12648W        W76416  16.674  40.804   1.929
12649W        W76417  34.609  29.027   2.257
12650W        W76418   5.909  33.073  13.833
12651W        W76419  21.065  19.215  13.828
12652W        W76420  38.377  29.061  11.586
12653W        W76421   7.207  41.502   1.711
12654W        W76422  44.939  15.728   3.721
12655W        W76423  18.123  35.971   3.722
12656W        W76424   6.741  29.109  12.437
12657W        W76425   8.658  39.959   3.322
12658W        W76426  12.243   5.371  10.545
12659W        W76427  40.959  35.942  11.394
12660W        W76428  27.085  30.117  13.499
12661W        W76429  42.000  26.153  13.534
12662W        W76430  17.657   0.313   0.894
12663W        W76431  26.058  17.636   3.198
12664W        W76432  43.388  17.749   0.785
12665W        W76433  30.430   4.875  12.418
12666W        W76434  43.334  15.762   3.245
12667W        W76435   6.428  19.172  14.338
12668W        W76436  41.869  32.539   1.843
12669W        W76437   9.154  42.443  12.538
12670W        W76438  26.552   6.320  13.792
12671W        W76439   0.795   0.309  12.511
12672W        W76440   9.816   6.204   2.285
12673W        W76441  34.372  36.451   1.756
12674W        W76442   0.393  16.288  12.485
12675W        W76443   8.272  44.381   2.721
12676W        W76444  28.510  39.905   0.799
12677W        W76445  31.961   5.855   2.861
12678W        W76446  26.013  10.640  13.899
12679W        W76447  36.025   5.375  10.575
12680W        W76448  28.601  22.217   1.758
12681W        W76449  37.083   3.849  12.341
12682W        W76450  16.192  43.293  14.010
12683W        W76451  39.967  41.482   0.835
12684W        W76452   9.177  42.288  14.889
12685W        W76453  24.648  39.874  14.447
12686W        W76454   3.347  24.025   4.180
12687W        W76455  28.548  14.323  13.967
12688W        W76456  18.579   4.930   1.703
12689W        W76457   2.297  29.970   3.232
12690W        W76458  26.046  20.664  11.399
12691W        W76459  15.598  23.594  12.444
12692W        W76460  23.139  23.628  12.093
12693W        W76461  30.620  36.540  12.467
12694W        W76462  25.107  28.017   0.794
12695W        W76463  33.506  23.555   4.664
12696W        W76464  19.284  36.421  11.971
12697W        W76465  34.397  15.209  12.912
12698W        W76466  36.367  28.070  10.445
12699W        W76467  13.328  14.789  12.926
12700W        W76468  28.990  22.527   1.755
12701W        W76469  18.625  30.090  14.372
12702W        W76470   2.301   6.234   0.367
12703W        W76471  13.153  23.560   4.140
12704W        W76472  40.022   4.373  11.867
12705W        W76473  28.624  37.562  14.826
12706W        W76474   0.311   5.779   1.446
12707W        W76475  42.360  37.339  12.975
12708W        W76476  16.805  14.721  13.791
12709W        W76477  20.218   3.857  13.881
12710W        W76478  15.102  23.197   3.383
12711W        W76479  15.639   5.390   3.150
12712W        W76480   3.830  38.939  14.873
12713W        W76481  22.548   1.776  11.093
12714W        W76482  18.731   0.347  12.486
12715W        W76483  15.083  33.461  11.041
12716W        W76484  12.305  17.156   3.224
12717W        W76485  26.064  22.624  10.490
12718W        W76486  14.631  29.158  13.308
12719W        W76487  21.715  33.078  13.870
12720W        W76488   5.326  11.184  11.073
12721W        W76489  33.435  32.063  10.565
12722W        W76490  20.048  35.007  11.545
12723W        W76491   1.467  41.905  11.438
12724W        W76492  37.341  20.585   1.266
12725W        W76493   8.761   1.333  13.335
12726W        W76494  15.089  34.569  12.454
12727W        W76495   4.769  33.538   4.144
12728W        W76496   7.360   8.386   1.795
12729W        W76497  37.381  35.590  14.968
12730W        W76498  11.244   0.406  13.342
12731W        W76499  26.960  32.613   1.735
12732W        W76500  35.879  22.082  12.560
12733W        W76501  28.613  26.601   1.909
12734W        W76502   3.801  17.117  13.035
12735W        W76503  29.922  15.174  13.500
12736W        W76504   0.874   1.862  10.643
12737W        W76505  34.497  19.721   0.482
12738W        W76506  40.516  15.244   1.269
12739W        W76507  38.931   0.288   9.940
12740W        W76508  25.008  20.527  14.299
12741W        W76509  43.893  10.267  13.367
12742W        W76510  40.803  20.560  14.286
12743W        W76511  29.582  40.835   1.710
12744W        W76512  40.980  29.570   3.694
12745W        W76513  26.979  31.907   1.912
12746W        W76514  15.788  15.186   1.907
12747W        W76515  44.407  39.347  13.495
12748W        W76516  21.638  30.131  14.840
12749W        W76517   7.201  28.112  13.469
12750W        W76518  38.860   9.700  14.332
12751W        W76519  14.281  17.152  14.941
12752W        W76520  17.629  31.592  11.466
12753W        W76521  22.542  28.030  14.449
12754W        W76522  34.465  35.920  13.410
12755W        W76523  16.715  42.858  14.846
12756W        W76524  17.790   2.891   1.855
12757W        W76525  21.651   2.857  14.394
12758W        W76526  42.471   1.362  11.855
12759W        W76527  21.237  32.111   4.625
12760W        W76528  18.255  26.534   3.326
12761W        W76529   0.894  18.688  13.395
12762W        W76530  11.789  33.886   0.783
12763W        W76531  16.684  43.482   0.461
12764W        W76532   7.394  20.696  14.938
12765W        W76533  12.128  10.702  11.923
12766W        W76534  34.481  21.233   0.821
12767W        W76535   4.899  15.747   0.446
12768W        W76536   1.865  34.954  11.567
12769W        W76537  18.756  28.514   4.223
12770W        W76538  12.117  32.999   1.443
12771W        W76539  26.032  38.489   3.765
12772W        W76540   0.319  30.158  12.011
12773W        W76541  30.496  24.119   3.745
12774W        W76542  41.845  14.224   4.271
12775W        W76543  10.280  32.061  13.834
12776W        W76544  29.029  26.596  10.444
12777W        W76545  36.032   3.840   4.333
12778W        W76546  18.152  43.867  10.408
12779W        W76547   3.424  41.843   2.313
12780W        W76548   0.860  21.209   2.848
12781W        W76549   4.769  36.918   5.266
12782W        W76550   3.350  14.306   4.141
12783W        W76551  32.508  38.538  13.826
12784W        W76552  10.210  15.116  11.477
12785W        W76553  16.723  30.152   0.850
12786W        W76554  20.171  37.432  14.929
12787W        W76555  10.186  16.087  10.463
12788W        W76556  27.622  19.546  11.009
12789W        W76557  43.495  17.625  13.472
12790W        W76558  14.170   7.677  14.804
12791W        W76559   7.761  11.142   1.900
12792W        W76560  34.998  41.354  14.394
12793W        W76561  14.610  33.390   3.842
12794W        W76562  11.211  20.634  13.798
12795W        W76563  11.305  42.807   3.791
12796W        W76564  37.029  25.122   2.864
12797W        W76565  10.283  23.607  14.926
12798W        W76566  25.650   1.908   4.149
12799W        W76567   1.250  18.151  13.870
12800W        W76568  30.001  10.747   0.912
12801W        W76569  22.025  36.405  12.048
12802W        W76570   9.362   7.307  11.480
12803W        W76571  15.242  10.324  12.955
12804W        W76572  29.494  25.144   5.176
12805W        W76573  32.501  43.773   0.473
12806W        W76574   2.257  36.846   5.764
12807W        W76575   3.729   4.804   2.800
12808W        W76576  43.009  17.188  11.443
12809W        W76577  12.269  24.722  11.047
12810W        W76578   9.651  19.571  13.061
12811W        W76579  33.901  16.089  10.520
12812W        W76580  13.678  30.938  13.526
12813W        W76581   3.397  44.407  14.485
12814W        W76582   0.802   6.259  11.088
12815W        W76583   8.334  31.506  12.489
12816W        W76584  11.164  38.399   1.446
12817W        W76585  24.562  13.695  11.459
12818W        W76586  39.879  11.686  11.015
12819W        W76587   9.791   0.274   2.371
12820W        W76588   7.770  32.504   0.390
12821W        W76589  39.499  26.588  10.523
12822W        W76590   4.296  31.461   2.879
12823W        W76591  24.622  20.609  14.483
12824W        W76592  43.363  21.513   1.817
12825W        W76593  36.849   9.378  10.419
12826W        W76594  30.559   6.738   4.764
12827W        W76595   4.353   9.342   0.738
12828W        W76596  24.130  42.494  14.382
12829W        W76597  36.553   4.327   4.787
12830W        W76598  24.650  14.136   1.875
12831W        W76599  21.169   8.221   1.843
12832W        W76600  41.807  19.221  13.037
12833W        W76601  42.304  15.791  11.036
12834W        W76602  44.935   8.739   0.320
12835W        W76603  27.033  14.595  12.895
12836W        W76604   6.260  39.337  12.905
12837W        W76605  42.384   8.890   4.261
12838W        W76606   0.449  25.125   1.718
12839W        W76607   6.277   6.873   1.217
12840W        W76608  31.492  30.497   2.688
12841W        W76609  23.090  33.448  11.026
12842W        W76610  44.873  34.486  12.095
12843W        W76611   3.390  34.416   3.846
12844W        W76612  12.178  34.068   2.664
12845W        W76613  23.201  36.575   1.247
12846W        W76614  22.624  29.588  13.357
12847W        W76615  29.639  36.496  11.393
12848W        W76616  33.586  25.016  11.464
12849W        W76617  13.343   7.384   1.251
12850W        W76618   9.228  28.493  11.011
12851W        W76619  30.132  21.122   3.832
12852W        W76620  24.089  25.033   1.304
12853W        W76621  24.496  44.829   2.345
12854W        W76622  10.179  25.086   4.126
12855W        W76623  34.460  34.369   2.347
12856W        W76624  33.381  36.006   4.599
12857W        W76625  16.191  12.203  14.308
12858W        W76626  10.821  20.050  13.411
12859W        W76627  38.819  32.979   3.830
12860W        W76628  23.574   8.268  13.483
12861W        W76629  44.363   0.774   2.224
12862W        W76630  22.075  14.172   3.281
12863W        W76631   5.225  34.007   0.913
12864W        W76632  20.587  35.102  13.413
12865W        W76633  32.028  31.619  14.484
12866W        W76634  38.347   8.177  12.439
12867W        W76635  16.155  33.402   0.888
12868W        W76636   8.355   4.257  10.899
12869W        W76637  19.112  11.317  11.399
12870W        W76638   3.394  30.042   1.725
12871W        W76639  22.190  42.494   1.258
12872W        W76640   0.928  34.414  10.418
12873W        W76641  42.520   2.379   0.793
12874W        W76642  16.300  36.001  12.387
12875W        W76643  33.974  22.026  13.351
12876W        W76644   7.788  37.887   2.406
12877W        W76645  16.714   0.914   0.324
12878W        W76646  27.577  32.529   1.779
12879W        W76647  15.282  42.362  12.526
12880W        W76648  36.376  12.123  10.435
12881W        W76649   7.253  10.725   4.760
12882W        W76650  38.921   3.439   1.291
12883W        W76651  21.605  27.023   1.747
12884W        W76652  21.039  32.397  10.005
12885W        W76653  20.168  32.510  12.547
12886W        W76654  42.444  37.393   0.903
12887W        W76655  24.600  18.775   0.848
12888W        W76656  14.285  10.812   3.787
12889W        W76657  24.592  33.524   2.291
12890W        W76658  30.089  25.663  14.882
12891W        W76659  19.715   1.371  14.871
12892W        W76660  36.394  37.417  14.297
12893W        W76661  44.860   2.821  12.363
12894W        W76662   3.438  13.618  11.955
12895W        W76663  41.928  12.646  12.459
12896W        W76664  14.642   4.344   2.794
12897W        W76665  17.114  15.234   2.744
12898W        W76666   0.938   0.465   3.772
12899W        W76667  41.410   8.283   2.679
12900W        W76668   7.219  28.492   1.280
12901W        W76669  16.161   2.727  13.907
12902W        W76670  42.964  27.961   4.194
12903W        W76671  17.268  37.014   3.654
12904W        W76672  19.559  13.304  11.974
12905W        W76673  31.525  16.733   4.145
12906W        W76674  32.397  17.287  14.502
12907W        W76675  12.642  23.587  12.872
12908W        W76676   0.943  12.642  14.438
12909W        W76677   9.729  36.919   4.156
12910W        W76678   3.372  32.918   4.647
12911W        W76679   2.286  11.862   5.156
12912W        W76680  35.543  32.558   4.758
12913W        W76681   7.883  11.807  14.339
12914W        W76682  36.075  28.635   4.314
12915W        W76683  41.346  29.109   0.454
12916W        W76684  18.186  25.683   0.337
12917W        W76685  33.087  23.083  11.028
12918W        W76686  24.634   3.916   1.234
12919W        W76687   9.204   9.335  12.061
12920W        W76688  41.387  27.169   2.769
12921W        W76689   3.289  23.114  13.798
12922W        W76690  27.530  13.832   4.181
12923W        W76691  19.772  15.236   0.864
12924W        W76692  17.798  30.980  11.480
12925W        W76693  40.415  43.795   1.805
12926W        W76694  32.942  20.045   5.160
12927W        W76695   3.282  35.927   1.899
12928W        W76696   6.314  26.508  12.565
12929W        W76697  11.831  22.592  14.805
12930W        W76698  36.894  14.280  10.930
12931W        W76699  24.098  35.005   3.722
12932W        W76700  43.968  37.861  13.046
12933W        W76701  32.019   9.846  14.927
12934W        W76702  44.973  30.652  11.970
12935W        W76703  34.375  22.052   4.797
12936W        W76704   6.377   3.721  10.468
12937W        W76705  17.606   2.765   2.686
12938W        W76706   1.452  28.006  10.479
12939W        W76707  10.694  20.261   2.865
12940W        W76708  35.096  24.074  13.824
12941W        W76709  26.512  23.529  11.052
12942W        W76710   7.279  43.276   0.955
12943W        W76711  40.042  40.436   0.271
12944W        W76712  37.885  39.517   4.162
12945W        W76713   1.318  41.360  10.918
12946W        W76714   4.907  22.139   1.734
12947W        W76715  24.150   2.353   3.361
12948W        W76716  37.873  31.913   3.746
12949W        W76717  16.627  37.361  14.476
12950W        W76718  13.305  23.083   3.263
12951W        W76719  20.170   5.869   1.899
12952W        W76720  35.589  25.500  13.872
12953W        W76721  35.362  14.827  13.454
12954W        W76722   5.791  41.012  11.504
12955W        W76723   9.838  10.321  11.986
12956W        W76724  34.877  25.036   9.940
12957W        W76725  39.996   2.902   4.200
12958W        W76726  16.681  24.504   0.448
12959W        W76727  18.649  27.126  14.384
12960W        W76728  29.083  25.014   3.650
12961W        W76729  25.999  28.584   2.391
12962W        W76730  15.813  29.512  11.860
12963W        W76731  44.302   4.718  10.915
12964W        W76732  34.076  23.139  11.466
12965W        W76733  42.324  17.161   0.322
12966W        W76734   2.916   9.392   3.182
12967W        W76735  21.633  36.368  14.763
12968W        W76736  13.244  19.676   2.400
12969W        W76737  38.937  28.501   3.850
12970W        W76738  15.171  28.538   4.662
12971W        W76739  44.790  35.004  12.458
12972W        W76740  18.275   7.239   0.358
12973W        W76741  13.218  33.995   4.829
12974W        W76742   6.202  31.138  13.325
12975W        W76743  21.181  38.046   3.721
12976W        W76744  39.910  10.265   2.857
12977W        W76745  44.350  31.045   0.453
12978W        W76746  41.033  40.977   4.700
12979W        W76747  31.409   8.709  10.633
12980W        W76748   6.282  30.049   2.406
12981W        W76749  29.144  42.785  14.878
12982W        W76750   0.289   8.287  14.973
12983W        W76751  21.084  35.089   0.798
12984W        W76752  10.141  25.009  11.491
12985W        W76753  35.428  42.929  12.526
12986W        W76754   3.459  33.436   1.348
12987W        W76755  27.042  30.021   2.886
12988W        W76756  34.009   2.463  13.940
12989W        W76757   8.340   1.974  13.996
12990W        W76758  19.705  18.779  12.430
12991W        W76759  13.800  29.008   3.832
12992W        W76760  25.556  31.982   5.099
12993W        W76761  37.034   4.387  10.508
12994W        W76762  21.679  35.502   2.340
12995W        W76763   8.857  21.699   0.803
12996W        W76764  31.010   8.838  12.544
12997W        W76765  39.841  42.404  11.875
12998W        W76766  42.457   1.466   1.758
12999W        W76767  44.315  39.995   0.340
13000W        W76768   2.886  24.226   0.898
13001W        W76769  40.347  26.153   0.770
13002W        W76770  43.430   0.812   2.399
13003W        W76771  14.718  17.303   3.325
13004W        W76772  20.651   9.385   3.308
13005W        W76773  33.025  27.037   4.632
13006W        W76774   9.325  18.646  14.833
13007W        W76775   9.754  26.954  13.476
13008W        W76776  39.381  33.537   2.886
13009W        W76777  34.996   3.228   5.212
13010W        W76778  27.093  42.455  11.882
13011W        W76779  21.093   2.949   4.333
13012W        W76780   0.758  29.019  14.923
13013W        W76781  31.447  39.466   3.646
13014W        W76782   4.268  17.227  11.581
13015W        W76783  20.700  24.666  13.852
13016W        W76784  19.651  44.401  11.061
13017W        W76785  41.867  11.815   3.162
13018W        W76786  17.161   9.306  13.926
13019W        W76787   6.872  14.834   2.842
13020W        W76788  14.685  37.079   0.389
13021W        W76789  15.195  35.579   1.289
13022W        W76790  28.611  44.391  13.515
13023W        W76791  42.867  14.777   3.276
13024W        W76792  28.060  13.670   3.153
13025W        W76793   5.247  25.666   0.916
13026W        W76794   5.362   1.795   3.782
13027W        W76795  21.084   0.858  11.910
13028W        W76796   8.301  13.755   3.760
13029W        W76797  44.339  29.540   2.765
13030W        W76798  25.533  33.124  12.380
13031W        W76799   2.431  41.461   5.227
13032W        W76800  32.893  30.486  14.881
13033W        W76801   8.830   5.229   2.734
13034W        W76802  27.674   4.858  12.964
13035W        W76803  20.712  20.536   2.870
13036W        W76804  35.107  23.613   1.818
13037W        W76805  40.991  36.900   3.381
13038W        W76806  33.118  41.809  14.877
13039W        W76807   6.411  41.955   1.265
13040W        W76808   2.246  37.561   5.695
13041W        W76809  27.959   8.367  14.853
13042W        W76810  36.502  23.041   2.873
13043W        W76811  24.182  16.602   0.921
13044W        W76812   7.888  12.720  12.064
13045W        W76813  42.469  34.602  14.448
13046W        W76814  33.117  15.620  12.525
13047W        W76815  12.756  40.459   0.862
13048W        W76816  10.255  15.599  13.869
13049W        W76817   2.899  34.476   4.832
13050W        W76818  19.649  20.725  11.918
13051W        W76819  12.175  44.330   1.800
13052W        W76820  11.658   9.257  10.644
13053W        W76821  31.151  29.994   0.802
13054W        W76822  29.102  13.154  12.051
13055W        W76823  16.617  38.511  13.914
13056W        W76824  12.353   0.358  14.979
13057W        W76825  17.620  34.099  14.329
13058W        W76826  14.302  32.486  11.540
13059W        W76827  25.659  29.980  10.941
13060W        W76828  36.526  18.250   0.458
13061W        W76829  39.428  33.996  10.613
13062W        W76830  28.635   8.865  13.047
13063W        W76831  30.156  33.992  11.982
13064W        W76832  39.007  36.533   0.912
13065W        W76833  16.730  36.418  13.824
13066W        W76834  12.243  14.305  11.953
13067W        W76835  18.231  42.498  11.993
13068W        W76836  32.550  18.158  12.007
13069W        W76837  44.336  27.487  11.999
13070W        W76838  35.976  30.940  14.295
13071W        W76839  27.075  39.864  11.904
13072W        W76840  20.254  21.598   2.347
13073W        W76841  32.609  44.435  14.469
13074W        W76842  29.503  13.610   3.193
13075W        W76843  43.372  21.568  12.345
13076W        W76844  31.967  24.053   2.844
13077W        W76845  38.554  22.224  13.967
13078W        W76846  30.935  20.532  11.506
13079W        W76847  36.093   9.239  13.373
13080W        W76848   3.743   1.865   2.885
13081W        W76849   4.774  40.903  10.639
13082W        W76850  18.269  32.112  14.031
13083W        W76851  35.377   7.800   0.354
13084W        W76852   4.312  26.200  14.297
13085W        W76853  39.938  19.676   2.846
13086W        W76854  10.237  34.907   1.837
13087W        W76855  18.740  29.625  14.458
13088W        W76856  30.519  23.037   0.949
13089W        W76857  12.251  27.950  12.440
13090W        W76858   9.737  16.654   2.398
13091W        W76859  37.346  36.556   1.714
13092W        W76860  28.585  35.023  11.912
13093W        W76861  28.080  19.674   4.234
13094W        W76862   8.757  17.715   4.656
13095W        W76863  18.680  34.959  12.824
13096W        W76864   4.287  36.042   1.408
13097W        W76865  21.260  19.256  12.457
13098W        W76866  27.571  44.298  12.917
13099W        W76867  38.493   5.415   3.174
13100W        W76868  42.004   8.306   1.293
13101W        W76869  14.736  16.108   1.930
13102W        W76870   4.294  23.565   2.715
13103W        W76871  44.293  37.913   4.633
13104W        W76872  13.619  33.477   2.820
13105W        W76873   1.781  26.557   0.749
13106W        W76874   3.852  24.067   1.387
13107W        W76875   0.936  39.398   0.375
13108W        W76876  18.779  41.515   3.374
13109W        W76877  12.636  22.517  14.488
13110W        W76878  14.807   9.705  10.992
13111W        W76879  20.181  37.011  13.492
13112W        W76880  25.084   3.292  10.414
13113W        W76881  39.450  27.573  12.038
13114W        W76882  10.659  30.544   2.758
13115W        W76883  17.156  33.888  10.099
13116W        W76884  11.319  12.193  12.475
13117W        W76885  16.790  25.654  11.933
13118W        W76886  11.176  34.073   0.763
13119W        W76887  31.438   9.784   3.760
13120W        W76888  15.633  13.655  13.012
13121W        W76889  19.227  37.891   2.322
13122W        W76890   3.304  16.077  12.841
13123W        W76891  25.002  33.548  12.936
13124W        W76892  27.496  20.071  13.032
13125W        W76893  44.499  18.641   1.741
13126W        W76894   7.390  12.354   2.808
13127W        W76895   5.197  37.534  11.584
13128W        W76896   5.926  24.215   4.300
13129W        W76897  36.412   5.390  11.915
13130W        W76898  18.670  23.730   2.291
13131W        W76899  30.416  40.881   2.781
13132W        W76900  36.021   4.718  14.348
13133W        W76901  10.638  36.532   4.238
13134W        W76902  21.576  10.282  11.421
13135W        W76903  34.953   2.726   2.715
13136W        W76904  19.110  21.669  12.527
13137W        W76905  10.229  32.391   1.837
13138W        W76906  43.907  32.954   2.668
13139W        W76907  20.115   8.244  12.491
13140W        W76908   8.712  34.083  11.934
13141W        W76909  23.075  21.656  10.638
13142W        W76910  16.587  12.158   4.781
13143W        W76911  13.192  25.507  14.279
13144W        W76912   6.815  11.642  12.417
13145W        W76913  40.841  12.730   3.170
13146W        W76914  23.591  25.704   3.831
13147W        W76915   0.751  15.256   4.778
13148W        W76916   3.279   8.273   0.837
13149W        W76917  20.677  35.869   4.218
13150W        W76918  10.375  28.506   2.896
13151W        W76919  22.558  37.473  13.464
13152W        W76920  12.833  40.918  14.324
13153W        W76921  25.593  39.813   1.913
13154W        W76922  42.465  13.604  11.936
13155W        W76923  28.458  10.263   2.310
13156W        W76924   9.859  28.045  13.890
13157W        W76925   2.439  23.073   4.314
13158W        W76926  11.667  12.345  14.458
13159W        W76927  15.579   4.784  14.329
13160W        W76928  11.296  23.644  10.983
13161W        W76929  41.939  40.051   1.216
13162W        W76930  24.595  24.001  14.420
13163W        W76931  19.127   3.712   3.261
13164W        W76932  30.954   5.791  13.518
13165W        W76933  34.038  31.617  10.537
13166W        W76934  14.685  29.559   2.751
13167W        W76935  32.406  10.777  11.525
13168W        W76936   1.292  22.703   2.891
13169W        W76937  29.579  30.511   4.143
13170W        W76938   3.835  34.990  10.448
13171W        W76939   0.906  33.118  14.952
13172W        W76940  18.082  20.091  12.969
13173W        W76941  35.446   8.765   3.304
13174W        W76942  12.206  34.508  12.859
13175W        W76943   0.418   2.363  12.486
13176W        W76944  33.416   2.430  12.496
13177W        W76945  38.512  43.342   0.874
13178W        W76946  36.373  32.622   3.765
13179W        W76947  24.657  12.829  13.841
13180W        W76948  37.854  28.463  12.468
13181W        W76949  36.562  18.559  12.410
13182W        W76950  39.329  44.392  11.093
13183W        W76951  15.276  19.175  12.415
13184W        W76952  16.077   5.749  14.986
13185W        W76953  27.960  17.198   2.384
13186W        W76954  44.946   8.827   4.296
13187W        W76955   4.877  19.538  13.914
13188W        W76956  23.523  36.377   0.924
13189W        W76957  43.885   2.962  11.109
13190W        W76958  30.110  18.648  12.901
13191W        W76959   3.923   5.734  13.329
13192W        W76960   5.815  39.408  11.525
13193W        W76961  42.996  18.780  10.583
13194W        W76962  14.609   3.760   1.840
13195W        W76963  15.322   8.736  14.934
13196W        W76964   7.312  19.137   4.256
13197W        W76965  16.801  12.178  11.121
13198W        W76966   0.250  18.571   1.797
13199W        W76967  44.784  43.834   4.833
13200W        W76968  35.094  11.278   3.155
13201W        W76969  17.101   4.923   3.658
13202W        W76970  24.548  36.989   1.840
13203W        W76971   7.705  14.108   1.314
13204W        W76972  32.970  38.836   4.662
13205W        W76973  33.898  39.813  11.589
13206W        W76974  37.461  16.201  11.920
13207W        W76975  25.545  20.163  14.353
13208W        W76976  25.616  16.661  12.452
13209W        W76977  14.601  17.692   4.179
13210W        W76978  12.619  13.650  14.477
13211W        W76979  40.807  38.442  10.920
13212W        W76980  30.567  41.019  14.492
13213W        W76981  43.979  41.888   0.243
13214W        W76982  18.759  38.347   0.385
13215W        W76983  32.017  32.078  12.457
13216W        W76984  11.130  36.990   2.724
13217W        W76985  28.614  36.976   0.285
13218W        W76986   7.411  34.567   1.428
13219W        W76987  18.274  14.095  11.109
13220W        W76988  10.683  38.509  12.862
13221W        W76989  15.627  33.877   2.211
13222W        W76990   8.332   9.791   1.214
13223W        W76991  36.997  25.104  12.484
13224W        W76992   6.314  26.533   0.411
13225W        W76993  30.548  31.434  12.074
13226W        W76994  12.244  36.900  10.439
13227W        W76995  27.606   3.276   2.301
13228W        W76996  37.371  14.137   4.765
13229W        W76997   1.871  38.987   2.319
13230W        W76998   8.862  23.233   2.315
13231W        W76999   2.379  33.527  12.427
13232W        W77000   8.734  33.480  14.437
13233W        W77001   6.262  40.990  13.023
13234W        W77002  39.443  25.205  12.852
13235W        W77003  33.958  34.068  12.466
13236W        W77004  24.130  23.685  13.539
13237W        W77005  17.737  27.505   3.327
13238W        W77006  13.700  23.530   3.189
13239W        W77007  31.500  23.186  12.452
13240W        W77008   0.771  33.982  12.082
13241W        W77009  12.158  36.360  12.015
13242W        W77010  25.098  39.367   4.745
13243W        W77011  41.976   8.811  12.957
13244W        W77012  16.709  24.214  10.592
13245W        W77013   2.286  38.378   4.823
13246W        W77014  10.189  44.484  13.470
13247W        W77015  36.983   0.314  13.407
13248W        W77016  21.625  18.632   0.882
13249W        W77017   2.406  13.734   0.876
13250W        W77018  22.133  16.313   0.820
13251W        W77019  34.611   6.765  14.825
13252W        W77020  29.507   9.748   1.428
13253W        W77021  42.909  19.690  14.278
13254W        W77022  38.495  40.935  13.061
13255W        W77023  37.466   7.307  12.062
13256W        W77024   3.940  23.516   3.259
13257W        W77025  26.493  36.590   1.284
13258W        W77026  12.127  30.443   4.715
13259W        W77027  30.521  36.373  11.862
13260W        W77028  14.264  27.044  11.462
13261W        W77029   6.259  37.830  11.422
13262W        W77030  30.079  31.050   2.352
13263W        W77031  30.987  10.253   3.291
13264W        W77032  43.877  41.935   3.263
13265W        W77033  36.978  30.464   0.296
13266W        W77034  35.924  31.112  14.851
13267W        W77035  40.032  41.319   0.395
13268W        W77036  20.054  18.646   2.857
13269W        W77037  23.018  36.576   0.402
13270W        W77038  39.535   1.844  10.492
13271W        W77039  21.033  44.423   3.382
13272W        W77040  38.557   9.246   3.295
13273W        W77041  32.621  36.935  11.424
13274W        W77042  32.517  30.632   2.865
13275W        W77043  32.994  11.369  11.394
13276W        W77044  33.926   4.405  10.583
13277W        W77045   9.356   1.968  11.516
13278W        W77046  12.666  12.773   2.335
13279W        W77047  41.517  43.934   4.674
13280W        W77048   8.205  25.474  11.410
13281W        W77049  12.344   2.879  10.583
13282W        W77050  10.192  21.743   0.457
13283W        W77051  38.409  10.750  13.802
13284W        W77052  39.918  27.052   3.767
13285W        W77053  38.398  15.301   4.279
13286W        W77054  21.080  38.511  12.493
13287W        W77055  32.941  24.983  12.854
13288W        W77056   1.831  30.988   1.701
13289W        W77057   6.752   6.843  11.449
13290W        W77058  14.192   9.314   4.271
13291W        W77059  15.724  42.859   3.330
13292W        W77060  26.136  43.845  13.318
13293W        W77061  24.707   3.286  13.382
13294W        W77062  36.371  34.442   0.880
13295W        W77063   5.797  24.147  14.910
13296W        W77064  21.579   3.735   1.385
13297W        W77065  43.498  39.810   0.781
13298W        W77066  27.687   7.791  13.845
13299W        W77067  41.427   6.719  14.511
13300W        W77068   2.441   2.284   2.782
13301W        W77069  20.747  39.356  14.378
13302W        W77070  22.163  26.486  14.479
13303W        W77071  31.087  23.546  11.915
13304W        W77072   3.321   6.765   3.829
13305W        W77073   0.274   8.689   1.319
13306W        W77074  12.302  14.759  10.115
13307W        W77075  40.405  27.576   0.330
13308W        W77076  35.527  40.395  14.769
13309W        W77077  36.874  24.195  11.899
13310W        W77078  33.540   7.351  11.016
13311W        W77079   2.323  40.027   0.363
13312W        W77080  28.141  24.705   3.639
13313W        W77081  13.250  27.018  13.968
13314W        W77082  25.703  18.756  13.307
13315W        W77083  27.091  36.015  14.433
13316W        W77084   2.263  27.043   3.665
13317W        W77085   7.257  16.726  11.417
13318W        W77086  28.170  42.855  11.128
13319W        W77087  31.583   5.841  10.513
13320W        W77088  38.380   9.373   2.259
13321W        W77089  23.207  32.468  13.537
13322W        W77090   0.805  26.141   0.749
13323W        W77091  44.857   5.701  11.492
13324W        W77092  40.804  12.161   3.325
13325W        W77093  23.011   9.790   3.298
13326W        W77094  21.150  21.103   3.819
13327W        W77095   0.295  10.806  13.865
13328W        W77096  33.968  32.911  12.929
13329W        W77097  37.866  32.896   3.725
13330W        W77098   0.434  39.367   2.405
13331W        W77099   9.817  20.250   0.787
13332W        W77100  38.540   1.244   1.395
13333W        W77101  37.436  42.973  10.148
13334W        W77102  38.364  16.664  12.878
13335W        W77103   6.258  26.188   1.721
13336W        W77104  28.045  22.503  14.957
13337W        W77105  31.066  15.785  12.069
13338W        W77106  28.017   4.754   3.236
13339W        W77107   9.274   4.312  11.399
13340W        W77108  26.472   0.311  10.008
13341W        W77109  37.873  28.178   3.792
13342W        W77110  15.751   4.419  11.942
13343W        W77111  23.607  42.396   0.878
13344W        W77112  14.657  12.264   1.789
13345W        W77113   3.380   5.883  12.571
13346W        W77114   2.769  35.966  10.953
13347W        W77115  18.779   8.734   2.809
13348W        W77116  15.173  27.682   4.226
13349W        W77117  12.831  25.539   2.693
13350W        W77118  14.267   3.867   2.343
13351W        W77119  18.259  19.078   2.263
13352W        W77120  22.133  32.613  10.420
13353W        W77121  13.213  24.137  12.926
13354W        W77122  22.028   0.353  13.862
13355W        W77123   1.378  34.078  13.806
13356W        W77124   8.211  23.536  10.970
13357W        W77125   2.230  35.896  11.523
13358W        W77126  20.130  21.568  12.568
13359W        W77127  38.067  10.810   5.263
13360W        W77128   2.422  17.743   0.894
13361W        W77129  29.119  40.969  14.322
13362W        W77130  38.473  40.813  10.557
13363W        W77131   9.816   7.829  12.935
13364W        W77132  33.394  35.456  11.501
13365W        W77133  15.256  43.365   4.201
13366W        W77134   0.841  33.996  12.518
13367W        W77135  29.497   6.761   3.697
13368W        W77136  31.039   6.899   2.858
13369W        W77137  26.145  29.665   3.783
13370W        W77138  20.647  40.322   3.857
13371W        W77139   3.307  23.119  11.585
13372W        W77140  12.144  37.539  12.416
13373W        W77141  14.279  20.732  14.514
13374W        W77142  34.912  40.542  14.469
13375W        W77143  23.094  22.242   2.325
13376W        W77144  33.051  23.024  12.467
13377W        W77145  39.517  38.421  11.017
13378W        W77146  26.616  22.174  10.009
13379W        W77147  32.031  18.773   9.998
13380W        W77148  28.600  39.549  10.939
13381W        W77149   4.390  41.939   4.777
13382W        W77150  41.334  19.606   1.700
13383W        W77151  12.692  41.327  10.472
13384W        W77152  18.115  33.493  10.978
13385W        W77153  29.932  28.483   2.300
13386W        W77154  18.649   4.938  12.977
13387W        W77155  19.065  17.290   0.286
13388W        W77156  19.616  14.605  12.864
13389W        W77157  27.021  21.623   1.694
13390W        W77158  29.560  20.697   2.263
13391W        W77159  42.836   5.729   4.680
13392W        W77160  33.442  40.816  10.468
13393W        W77161  19.236  31.566  10.052
13394W        W77162  23.641  40.349   2.248
13395W        W77163   7.272   7.744   2.237
13396W        W77164  20.722  16.231   3.367
13397W        W77165  32.402  24.593  10.999
13398W        W77166  17.108  31.479  12.491
13399W        W77167  18.064   7.383  12.440
13400W        W77168  34.577  34.430  14.288
13401W        W77169  19.537  33.944   3.680
13402W        W77170  13.225  13.773   2.219
13403W        W77171  42.981   6.707   1.363
13404W        W77172  31.149  17.113   3.325
13405W        W77173  30.616  28.978  10.417
13406W        W77174  40.441  32.977   2.334
13407W        W77175  33.043  25.989  12.551
13408W        W77176  33.942  40.527   4.723
13409W        W77177  43.791   4.840  14.772
13410W        W77178  17.749  42.855   2.312
13411W        W77179  34.061  29.538   2.769
13412W        W77180   7.801  32.477   2.320
13413W        W77181   4.212   9.730   2.771
13414W        W77182   1.447  32.065   9.957
13415W        W77183  10.367  40.355   2.855
13416W        W77184  20.688  32.471   1.702
13417W        W77185  27.956  10.315  11.551
13418W        W77186   6.425  24.481   1.745
13419W        W77187  17.142   6.340   3.155
13420W        W77188  10.298  31.402  13.977
13421W        W77189  36.488  36.059   0.462
13422W        W77190  18.150  23.239   0.269
13423W        W77191  32.972  39.969   0.364
13424W        W77192   5.434  32.122   3.743
13425W        W77193  10.153  23.191   0.256
13426W        W77194  11.145  11.218  14.887
13427W        W77195  21.695  44.367  13.002
13428W        W77196  36.536   9.856  13.875
13429W        W77197  32.523  14.279  10.478
13430W        W77198   5.279  37.456  14.337
13431W        W77199  40.454  20.155  14.442
13432W        W77200  13.216  31.582  14.334
13433W        W77201   7.799  36.095  13.544
13434W        W77202  40.004   0.351  14.457
13435W        W77203  30.141  24.546  13.438
13436W        W77204  16.122  30.483  12.865
13437W        W77205  38.882   8.191  13.510
13438W        W77206  24.689  33.388   3.774
13439W        W77207   3.427  10.322   3.807
13440W        W77208  42.488   3.241   2.410
13441W        W77209  10.181   9.308   2.379
13442W        W77210  16.141  21.050   9.957
13443W        W77211   9.664  28.040   4.662
13444W        W77212  14.333  20.076   2.298
13445W        W77213  33.489  12.688   3.680
13446W        W77214   6.414  13.764  10.895
13447W        W77215   8.730  38.365   1.311
13448W        W77216  17.194  22.649  11.612
13449W        W77217  43.901  13.646  13.805
13450W        W77218  44.352  10.749  12.062
13451W        W77219  42.346  32.555   4.674
13452W        W77220  38.824  21.140   2.345
13453W        W77221  30.041  15.220   0.830
13454W        W77222  38.384  13.294  13.817
13455W        W77223  27.581  11.762   9.966
13456W        W77224  23.240   6.203   1.877
13457W        W77225  12.118  43.839   0.960
13458W        W77226  18.256  37.046   0.298
13459W        W77227  30.980  26.193  13.911
13460W        W77228  33.412   5.303  10.604
13461W        W77229   5.362  19.147   3.699
13462W        W77230  29.492  34.545   0.342
13463W        W77231  27.957  32.622   2.285
13464W        W77232   9.787   5.807  13.865
13465W        W77233   8.673  29.437  13.032
13466W        W77234  27.633  23.171   0.801
13467W        W77235  42.020   7.765  13.864
13468W        W77236  29.120  39.542  13.420
13469W        W77237  22.506  13.749  10.502
13470W        W77238   1.834  20.582  13.311
13471W        W77239  40.931   7.262  12.468
13472W        W77240   9.298  43.875   4.638
13473W        W77241  20.720  35.482  11.912
13474W        W77242  10.384  36.396  13.806
13475W        W77243  41.483  29.560   1.283
13476W        W77244  42.915  44.283   1.249
13477W        W77245  37.561  31.584   3.315
13478W        W77246   5.788   5.906  11.533
13479W        W77247  19.114  44.443   1.900
13480W        W77248   7.739  13.336   2.298
13481W        W77249   3.222   2.926  12.026
13482W        W77250  43.449  26.040  14.771
13483W        W77251  32.044  16.104  12.556
13484W        W77252  26.054   5.316  11.859
13485W        W77253  27.546   6.721   4.835
13486W        W77254  18.565  32.888  11.391
13487W        W77255  19.083  35.854  13.951
13488W        W77256  33.411  18.190   4.113
13489W        W77257  13.302  14.128  12.571
13490W        W77258   8.398   2.358  13.870
13491W        W77259  33.920  16.754  13.971
13492W        W77260   7.724  42.324   0.811
13493W        W77261  20.124  12.657   4.735
13494W        W77262   0.889   7.204   0.930
13495W        W77263  38.510  37.536  13.035
13496W        W77264  44.835  14.826  13.036
13497W        W77265   4.355  17.301  12.526
13498W        W77266  17.139  12.783  14.278
13499W        W77267  33.077  38.545  13.334
13500W        W77268   5.875  24.541   1.714
13501W        W77269   1.823  19.229   4.683
13502W        W77270  33.496  39.820  14.822
13503W        W77271   6.746  20.162  10.499
13504W        W77272  12.330  21.106   2.324
13505W        W77273  28.167  38.983  14.952
13506W        W77274   7.380   3.946  10.578
13507W        W77275   6.298  43.413  14.356
13508W        W77276  21.162  26.979  13.464
13509W        W77277  24.122  27.032  14.989
13510W        W77278  35.924  41.346   4.166
13511W        W77279  15.658  44.759   1.349
13512W        W77280   4.305  22.700  14.349
13513W        W77281  11.660  16.709  12.096
13514W        W77282  14.122  21.173  13.818
13515W        W77283  33.070  35.533  14.864
13516W        W77284   1.384  13.784  11.524
13517W        W77285  20.237  19.052   2.874
13518W        W77286  39.549  27.058   2.254
13519W        W77287   8.343  43.884   3.753
13520W        W77288   5.814  11.225   1.446
13521W        W77289  11.346  26.046  13.951
13522W        W77290  27.115  18.225   3.357
13523W        W77291  30.619  35.531  13.544
13524W        W77292  24.652  22.557   2.677
13525W        W77293   1.860   6.400   4.156
13526W        W77294   4.718  44.300  11.513
13527W        W77295  24.578  32.956  12.428
13528W        W77296  12.805  43.334  13.989
13529W        W77297  26.081  32.950  14.950
13530W        W77298  38.052  26.466  14.463
13531W        W77299  24.199  13.632  13.345
13532W        W77300   7.891  30.607  14.350
13533W        W77301  38.825  41.881   0.943
13534W        W77302  10.661  28.999  14.379
13535W        W77303   3.222  30.564   3.229
13536W        W77304  20.168  42.346  13.875
13537W        W77305  17.675   1.259   2.320
13538W        W77306   1.959  13.300  11.542
13539W        W77307  29.432  29.634  11.059
13540W        W77308  38.363  34.459   3.274
13541W        W77309  34.419  15.690   1.261
13542W        W77310  41.455   7.373   4.161
13543W        W77311  37.851  16.078  13.494
13544W        W77312  41.870   5.259  10.484
13545W        W77313  41.424  10.282  14.463
13546W        W77314  33.003  15.192  12.428
13547W        W77315  30.131  35.546   0.393
13548W        W77316  20.522   5.816   1.245
13549W        W77317  16.802   6.852   4.298
13550W        W77318  37.925  44.495  13.017
13551W        W77319  34.923  34.428   0.958
13552W        W77320   9.309   9.343   2.378
13553W        W77321   5.847  22.212   0.937
13554W        W77322   8.677   2.387   0.754
13555W        W77323  35.037  41.957   3.649
13556W        W77324  32.015  37.950  10.956
13557W        W77325  21.124  36.842   3.188
13558W        W77326  25.168  27.607   1.268
13559W        W77327  18.179   2.307   1.703
13560W        W77328  35.408  10.741   4.148
13561W        W77329  44.992   8.688   2.371
13562W        W77330  28.529  34.499   0.957
13563W        W77331  21.131   8.687   1.284
13564W        W77332  39.951  32.019  11.412
13565W        W77333  12.315  24.228   3.754
13566W        W77334   0.387  16.127   2.204
13567W        W77335  37.391   6.265   4.755
13568W        W77336  24.089  44.902   3.862
13569W        W77337  10.737  42.788  14.357
13570W        W77338  32.481  28.004  14.859
13571W        W77339   2.957  41.023   2.709
13572W        W77340  10.688  37.369   0.315
13573W        W77341  23.610   6.737  14.432
13574W        W77342  36.526  30.156   4.285
13575W        W77343  44.976  17.734  13.959
13576W        W77344  14.704  25.189   5.113
13577W        W77345  12.824  36.097  11.093
13578W        W77346  29.072  23.147  10.900
13579W        W77347  16.121  21.733  12.536
13580W        W77348   9.200  13.301  14.826
13581W        W77349   8.833  35.096   0.896
13582W        W77350  35.982  21.215   1.253
13583W        W77351  40.987   2.914   4.795
13584W        W77352   1.761  25.587   1.412
13585W        W77353  15.105  25.203  14.457
13586W        W77354  42.388   0.793  14.380
13587W        W77355  17.173  41.406  11.108
13588W        W77356  12.654  15.603   2.712
13589W        W77357  12.739  40.405  13.328
13590W        W77358  39.538  23.655   0.743
13591W        W77359  19.722  11.211   4.665
13592W        W77360   2.342  11.788   2.840
13593W        W77361   1.420   6.314  11.462
13594W        W77362  10.195  42.778  13.409
13595W        W77363  23.633   4.286   1.346
13596W        W77364  14.178  38.552  12.494
13597W        W77365  21.688  31.971  13.948
13598W        W77366   2.366  41.831  14.367
13599W        W77367  19.115  32.531  12.558
13600W        W77368  43.479   3.358   1.911
13601W        W77369   1.294   9.730  13.543
13602W        W77370  20.272  11.845   1.325
13603W        W77371  31.087  37.859  14.295
13604W        W77372  40.969  32.938  14.026
13605W        W77373  18.240  28.439   0.284
13606W        W77374  43.764  22.677  14.889
13607W        W77375  30.156  33.123  13.952
13608W        W77376  34.074  25.084  14.432
13609W        W77377  43.331   2.800  10.460
13610W        W77378  25.041   0.297  11.446
13611W        W77379  14.697  38.945  13.989
13612W        W77380  35.471  21.599   1.252
13613W        W77381  13.269   6.386   0.289
13614W        W77382  40.966   9.728  14.011
13615W        W77383  30.160  43.978  14.367
13616W        W77384  11.675  33.484   4.817
13617W        W77385  39.949  43.370   4.749
13618W        W77386  43.306  13.777   0.783
13619W        W77387  32.906  23.555   1.213
13620W        W77388  26.186  17.662  14.389
13621W        W77389  19.618  27.641  11.078
13622W        W77390  33.006   9.267   1.265
13623W        W77391  26.964  32.988  11.389
13624W        W77392  33.969  10.757   1.791
13625W        W77393  10.312  12.336  11.041
13626W        W77394  18.748  10.197   3.169
13627W        W77395  12.274  14.643   3.820
13628W        W77396  43.833  25.204  12.900
13629W        W77397  36.024  13.669  12.533
13630W        W77398  31.455   0.359   4.761
13631W        W77399  13.662  26.965  10.619
13632W        W77400   9.753  20.544   0.380
13633W        W77401  14.788  10.308  13.409
13634W        W77402  25.569   0.362  14.415
13635W        W77403  12.791   6.363  14.766
13636W        W77404  23.683  44.824   3.796
13637W        W77405  42.412  43.294  11.410
13638W        W77406  34.105  32.960   1.872
13639W        W77407  29.065   5.218  11.439
13640W        W77408  21.670   8.295  14.865
13641W        W77409   8.202  41.851   0.728
13642W        W77410  11.648   7.180  12.894
13643W        W77411   4.865  13.801  11.874
13644W        W77412  11.164  36.490  10.538
13645W        W77413  31.043  12.282  11.084
13646W        W77414  31.047  23.641  12.831
13647W        W77415   8.205  35.954  13.936
13648W        W77416  15.101  15.102  14.284
13649W        W77417  32.471  22.613  10.457
13650W        W77418   0.459  34.949  13.523
13651W        W77419  10.243  29.067  11.409
13652W        W77420  42.892  13.637  11.547
13653W        W77421   7.854   5.393   3.693
13654W        W77422  20.678  39.809   2.771
13655W        W77423  38.860  27.491  13.024
13656W        W77424   5.233  12.661  11.515
13657W        W77425   6.259  12.816  14.782
13658W        W77426  25.712   7.280   0.255
13659W        W77427  31.437   1.874  13.944
13660W        W77428  18.176  41.310   3.307
13661W        W77429  38.422  34.888  10.601
13662W        W77430  12.703   9.884   3.338
13663W        W77431  34.004  20.232   4.348
13664W        W77432  16.185  32.413   9.492
13665W        W77433  23.703   7.393  13.945
13666W        W77434  32.529   1.957  14.847
13667W        W77435  34.545   7.866   9.991
13668W        W77436  24.669  41.383   1.932
13669W        W77437  32.927  14.123   4.772
13670W        W77438  32.032  19.579  14.405
13671W        W77439   9.315  37.480   2.188
13672W        W77440   6.679  44.866  13.355
13673W        W77441  40.513   6.328   2.798
13674W        W77442   5.428  12.360  13.026
13675W        W77443  31.517  14.320   0.904
13676W        W77444   0.371  32.955   1.411
13677W        W77445  34.373  32.997  14.311
13678W        W77446   5.404  36.437   1.866
13679W        W77447  11.159  14.728  12.020
13680W        W77448   0.843  25.585  14.480
13681W        W77449  21.680   1.422   2.662
13682W        W77450  30.552  35.424   2.415
13683W        W77451  15.651  11.668   0.950
13684W        W77452  37.851   3.718   2.344
13685W        W77453  10.681  31.103  14.993
13686W        W77454  17.614  33.956   1.353
13687W        W77455  12.340  27.611  14.840
13688W        W77456   4.927  14.289  12.843
13689W        W77457  19.258  18.062   4.681
13690W        W77458  40.310   1.292  13.479
13691W        W77459  37.043  37.523  12.888
13692W        W77460  28.529  38.829   1.285
13693W        W77461  43.340   4.407   2.290
13694W        W77462   9.753  28.940  13.311
13695W        W77463  35.364   6.331   3.829
13696W        W77464   7.309  20.605  13.904
13697W        W77465  26.999  31.920   4.168
13698W        W77466  14.111  40.435   4.195
13699W        W77467  35.940  35.525   4.712
13700W        W77468  39.065  12.343  12.354
13701W        W77469  24.012  20.701   3.381
13702W        W77470  10.683   6.202  13.379
13703W        W77471  38.943  37.861  14.989
13704W        W77472  27.107  23.209   4.176
13705W        W77473  21.533  36.923   2.268
13706W        W77474   0.352  43.316   1.930
13707W        W77475  36.080  14.604   4.254
13708W        W77476  22.741  12.687  11.115
13709W        W77477  38.547  16.141  10.596
13710W        W77478  15.266  44.881  11.533
13711W        W77479   6.213  39.421  14.495
13712W        W77480  24.144  11.666  10.938
13713W        W77481  44.798   0.305  13.406
13714W        W77482  11.784  22.230   2.683
13715W        W77483  39.985   9.257   4.140
13716W        W77484  43.944  37.410   2.879
13717W        W77485  36.390  18.550  14.511
13718W        W77486   9.318  31.920  11.598
13719W        W77487  44.830  28.068   2.797
13720W        W77488  42.398   1.857   3.246
13721W        W77489  33.470  41.965   3.244
13722W        W77490  32.602  29.113  12.021
13723W        W77491  10.755  21.138  14.959
13724W        W77492   3.772  34.532  13.327
13725W        W77493   7.667  10.864   3.145
13726W        W77494  40.502   8.382   1.752
13727W        W77495  44.342  24.202  13.044
13728W        W77496  17.077  42.778   0.797
13729W        W77497  32.987  14.331  14.404
13730W        W77498  19.539   1.448   4.753
13731W        W77499  30.144  19.092  14.490
13732W        W77500   1.434  15.651   4.612
13733W        W77501  14.158  25.488   0.793
13734W        W77502  25.975  35.935  14.946
13735W        W77503  17.663  31.110   4.308
13736W        W77504  36.363  11.144  11.094
13737W        W77505  25.046  21.065  11.991
13738W        W77506  41.377  34.371  13.402
13739W        W77507  19.233  13.267  14.885
13740W        W77508  39.952  26.575   4.608
13741W        W77509  30.981  37.043   1.294
13742W        W77510  34.542  37.448  11.872
13743W        W77511   0.974   6.223   1.776
13744W        W77512  41.912  36.584   4.801
13745W        W77513  40.536  29.426   0.470
13746W        W77514   4.825  11.627   0.788
13747W        W77515  15.719  36.852   3.245
13748W        W77516  10.864  43.350  11.948
13749W        W77517   3.418  26.986   3.708
13750W        W77518   6.292  43.444  11.460
13751W        W77519  27.030  10.208   0.919
13752W        W77520  18.758  15.215  13.450
13753W        W77521  39.982   5.910   2.191
13754W        W77522  17.783  43.433   4.227
13755W        W77523  16.145  20.556  14.503
13756W        W77524  19.586  15.802  12.524
13757W        W77525  22.198   9.149  14.844
13758W        W77526  15.799  14.227   1.429
13759W        W77527  43.787  24.064  13.493
13760W        W77528  34.898  25.666  13.987
13761W        W77529  38.012  42.478  13.968
13762W        W77530   6.791  38.011   4.609
13763W        W77531   3.757   9.210  11.910
13764W        W77532  10.281  12.645  13.803
13765W        W77533  35.087  26.525  10.035
13766W        W77534  36.518  25.216  13.832
13767W        W77535  23.665  41.521  13.979
13768W        W77536  39.313  17.080   4.144
13769W        W77537   2.397  26.147   4.637
13770W        W77538  15.759  24.585   3.358
13771W        W77539  30.502  44.805   1.325
13772W        W77540   5.280   1.822  11.882
13773W        W77541  19.047  29.553   4.744
13774W        W77542  39.495  17.566   1.827
13775W        W77543   7.294  39.321  11.058
13776W        W77544  27.538  21.220  12.406
13777W        W77545  23.068  32.923  12.842
13778W        W77546  11.661  36.843  10.998
13779W        W77547  16.096  19.258   0.737
13780W        W77548  29.033  40.480  10.919
13781W        W77549  41.954  27.504   0.370
13782W        W77550  26.069  38.873   3.732
13783W        W77551  20.533   8.340   2.866
13784W        W77552  31.537  20.187  11.004
13785W        W77553   4.311  23.144  14.278
13786W        W77554  18.746  29.007  11.442
13787W        W77555  43.822  29.580  12.929
13788W        W77556  35.047  31.040  13.511
13789W        W77557  29.021   5.410  10.929
13790W        W77558   8.898   7.196  14.762
13791W        W77559  35.435  23.608  11.463
13792W        W77560   6.848  20.103  12.518
13793W        W77561  28.546  26.146  13.910
13794W        W77562  35.000  43.312  12.848
13795W        W77563  30.962  18.234   3.218
13796W        W77564  19.127   8.776   1.915
13797W        W77565  29.447  37.054   1.370
13798W        W77566  27.597  21.754   3.270
13799W        W77567  15.803  23.012   1.924
13800W        W77568  30.956   8.258  14.404
13801W        W77569  31.022  40.546  11.389
13802W        W77570  23.657  17.163  10.487
13803W        W77571  16.586   1.943   0.337
13804W        W77572  38.547  32.987   1.220
13805W        W77573  11.218  23.191  10.584
13806W        W77574  38.424   5.920   4.119
13807W        W77575  24.141  20.765  13.541
13808W        W77576  22.566  30.417   4.749
13809W        W77577  23.996  18.679  10.970
13810W        W77578  26.521  36.432  10.477
13811W        W77579   6.822  35.008  14.284
13812W        W77580  32.564  40.025  13.936
13813W        W77581  39.405   5.900   3.821
13814W        W77582  10.786  15.807  11.579
13815W        W77583  30.140  36.545   0.324
13816W        W77584  12.363  14.725  10.897
13817W        W77585  37.426  20.112   4.149
13818W        W77586   3.913  39.380  10.416
13819W        W77587   8.264  12.244  12.360
13820W        W77588  32.136  29.551  11.959
13821W        W77589  38.542   8.784  11.949
13822W        W77590  37.471  27.179   0.942
13823W        W77591  23.006  39.861  13.428
13824W        W77592  11.330   0.470   2.399
13825W        W77593  20.689   3.248   0.381
13826W        W77594  38.534  33.418   3.651
13827W        W77595   9.340  11.832   5.087
13828W        W77596  16.211  29.598  10.548
13829W        W77597  28.558  22.195  14.367
13830W        W77598  19.685  31.917  12.872
13831W        W77599   9.826  13.813   1.347
13832W        W77600   8.901  37.537   3.180
13833W        W77601  37.513   9.753   4.282
13834W        W77602  28.525  13.159  12.536
13835W        W77603  12.758  29.086  13.964
13836W        W77604  26.553  22.179   0.964
13837W        W77605   8.729  16.779   2.326
13838W        W77606  16.205  21.513  12.883
13839W        W77607  34.472  13.335   0.957
13840W        W77608  40.800  20.732  13.033
13841W        W77609   9.837  23.036   3.645
13842W        W77610  36.950  35.965   3.278
13843W        W77611   2.815  28.147  12.570
13844W        W77612  33.038   1.469   0.872
13845W        W77613  42.883  43.411  13.452
13846W        W77614  14.681  22.711   0.727
13847W        W77615  23.238   0.968  12.895
13848W        W77616  32.969  28.145   0.807
13849W        W77617   6.261  16.704  14.883
13850W        W77618  42.315   3.432  11.548
13851W        W77619   8.694  40.023  14.870
13852W        W77620  19.247  35.497   0.422
13853W        W77621   3.870  17.195   4.784
13854W        W77622  16.708   0.309   4.818
13855W        W77623   4.831  32.066  14.905
13856W        W77624  23.514   2.449  10.525
13857W        W77625   4.297  37.416   4.651
13858W        W77626  11.366   1.850  11.100
13859W        W77627  18.593   1.238  13.322
13860W        W77628  19.664  30.987   0.831
13861W        W77629  28.641   2.836   1.377
13862W        W77630   0.267   6.870  12.044
13863W        W77631  17.618  34.425  10.630
13864W        W77632  42.394  20.720  14.372
13865W        W77633  29.455  26.986   0.242
13866W        W77634   6.248  23.489   4.171
13867W        W77635   4.354  16.149  10.915
13868W        W77636  31.088  20.051  14.437
13869W        W77637  25.690  19.553  14.988
13870W        W77638  42.348   5.752   3.716
13871W        W77639  33.552  20.704  10.116
13872W        W77640  39.418  14.709  11.398
13873W        W77641  42.507   6.910   3.386
13874W        W77642  34.424  25.547  12.968
13875W        W77643  29.086  10.671  13.350
13876W        W77644   4.808  22.630  13.504
13877W        W77645  31.552   4.343  12.344
13878W        W77646  19.082  40.960  12.400
13879W        W77647  14.756   1.754   1.750
13880W        W77648  44.897  38.512   0.786
13881W        W77649  12.845  36.036   3.380
13882W        W77650  37.958  36.855   4.668
13883W        W77651  34.419  17.093   4.295
13884W        W77652  37.011   0.341   3.784
13885W        W77653  43.773  41.473   4.708
13886W        W77654  22.658  11.347   2.231
13887W        W77655  28.975  27.169  12.341
13888W        W77656  30.553  13.822   0.290
13889W        W77657  19.048  29.612   3.852
13890W        W77658   5.906   3.948   3.219
13891W        W77659  19.747  10.748  12.478
13892W        W77660  29.924  44.831   0.472
13893W        W77661  16.220  28.947  10.449
13894W        W77662  29.027  38.897   3.384
13895W        W77663  44.413   2.753  14.499
13896W        W77664  27.600  37.560  10.938
13897W        W77665   0.811   7.767   4.823
13898W        W77666  31.941  40.311  11.093
13899W        W77667  31.433  37.477   4.194
13900W        W77668  19.138   9.787   0.415
13901W        W77669   4.800  11.769   3.773
13902W        W77670  31.034   9.812  11.969
13903W        W77671  26.592  35.049   0.746
13904W        W77672  40.850  39.978   3.224
13905W        W77673  29.506   8.293   1.759
13906W        W77674  23.645  17.297  14.310
13907W        W77675   4.227  20.037   0.855
13908W        W77676  41.849  30.595  10.977
13909W        W77677  15.603   7.828   3.772
13910W        W77678  24.189   2.379  12.032
13911W        W77679  12.306  23.143   0.249
13912W        W77680  10.304   5.883   4.306
13913W        W77681  19.763   5.901  11.077
13914W        W77682  20.700   3.437   2.331
13915W        W77683  16.690  19.253  13.450
13916W        W77684  37.424  20.245  10.543
13917W        W77685  12.770  11.166   1.755
13918W        W77686  14.334   3.918   0.390
13919W        W77687   9.644  36.589   2.291
13920W        W77688   9.242  43.304   4.733
13921W        W77689  34.047   1.919  13.029
13922W        W77690  28.047  37.975   0.409
13923W        W77691   4.715   7.718   5.155
13924W        W77692  42.474  34.459  13.003
13925W        W77693  43.013   3.457  13.026
13926W        W77694  16.077  41.423  14.940
13927W        W77695   3.829  18.695  12.484
13928W        W77696  34.938  10.349  13.548
13929W        W77697   0.819   3.394   3.341
13930W        W77698  43.512  18.573   2.280
13931W        W77699  14.693  19.671  12.450
13932W        W77700  10.684  31.141  12.036
13933W        W77701  37.482  30.461  11.384
13934W        W77702  28.492  29.562  14.332
13935W        W77703  19.730   6.365  13.340
13936W        W77704  17.127  27.982   5.230
13937W        W77705   0.864  29.661   4.327
13938W        W77706   1.954  20.161  11.576
13939W        W77707  32.897   0.799   0.446
13940W        W77708  14.626  24.098   3.202
13941W        W77709  21.044  41.948   0.356
13942W        W77710  15.327  25.699   1.890
13943W        W77711  22.683   7.891   1.768
13944W        W77712  34.956  16.286   0.257
13945W        W77713   6.325  37.448  10.626
13946W        W77714  17.581   9.744   4.683
13947W        W77715   7.908   7.680   1.249
13948W        W77716  11.721   9.643  14.285
13949W        W77717  36.445  13.281  14.445
13950W        W77718  27.505  22.725   4.646
13951W        W77719  33.480  40.348   4.806
13952W        W77720   8.660  19.704  10.906
13953W        W77721  16.225   3.306   0.747
13954W        W77722   2.375  20.181  12.568
13955W        W77723  12.701  29.037  11.494
13956W        W77724  24.599  40.983   2.222
13957W        W77725   6.352  14.205  13.448
13958W        W77726  38.819   0.481  10.977
13959W        W77727  19.066  22.559   2.696
13960W        W77728  25.077  42.374   4.271
13961W        W77729  14.147   7.688   2.384
13962W        W77730  40.853  40.525  11.023
13963W        W77731  38.543  36.901   1.742
13964W        W77732  25.472  19.564   0.433
13965W        W77733  25.133  15.784  13.525
13966W        W77734  24.167  36.451  10.440
13967W        W77735   8.285  11.189   2.311
13968W        W77736  37.546  26.518   2.415
13969W        W77737  29.598  17.568  11.076
13970W        W77738  11.851  23.097  10.009
13971W        W77739   8.183  36.917   0.311
13972W        W77740  32.000  44.276   4.256
13973W        W77741  15.322   7.274   0.468
13974W        W77742  16.262  30.644   0.922
13975W        W77743   7.905   6.735  13.317
13976W        W77744   6.795   3.791  13.535
13977W        W77745   9.175  42.439  13.062
13978W        W77746  22.706  37.070   1.334
13979W        W77747   5.869  10.689  13.947
13980W        W77748  12.676  33.519  12.089
13981W        W77749  31.409   8.309  13.004
13982W        W77750   1.381  19.264  10.599
13983W        W77751  30.062  25.149   2.291
13984W        W77752  19.553  37.945  11.431
13985W        W77753  18.168  38.952   3.161
13986W        W77754  27.679  25.520  14.362
13987W        W77755   9.669  34.568   3.675
13988W        W77756  23.144  22.705  12.850
13989W        W77757   1.937  41.421   3.851
13990W        W77758  40.345   4.927  14.973
13991W        W77759   9.746   3.891  12.464
13992W        W77760  13.778  42.876  11.122
13993W        W77761  21.025   4.833   3.754
13994W        W77762  38.821  15.718   4.210
13995W        W77763   4.349  25.704  12.915
13996W        W77764  18.583   3.796  10.641
13997W        W77765  16.174   7.789  11.873
13998W        W77766  30.454  25.513   0.760
13999W        W77767  32.544  11.332   1.925
14000W        W77768  43.368  40.831  14.918
14001W        W77769  32.970   4.324   2.890
14002W        W77770  44.402  22.680   4.779
14003W        W77771  37.357  36.907  13.947
14004W        W77772  10.240  26.472  13.485
14005W        W77773   3.759   3.445   5.272
14006W        W77774  18.790   0.918   5.264
14007W        W77775  15.170  16.285  10.502
14008W        W77776  20.173  16.577  12.480
14009W        W77777  34.509  22.696  12.958
14010W        W77778  39.867  17.614   3.845
14011W        W77779  37.954  36.510   1.880
14012W        W77780  20.055  23.648  11.867
14013W        W77781  26.087  41.533  14.961
14014W        W77782  21.664  32.480  11.474
14015W        W77783  28.592  26.598   2.857
14016W        W77784  26.617  41.885  12.394
14017W        W77785   7.725  39.836  12.342
14018W        W77786  42.382  31.552  11.979
14019W        W77787  33.961  17.646  13.940
14020W        W77788  36.884   5.837  10.637
14021W        W77789   4.761  38.910  11.560
14022W        W77790  43.965  13.230   1.832
14023W        W77791   1.314  12.784   3.831
14024W        W77792  39.530  36.510   2.185
14025W        W77793   5.696  11.625   0.908
14026W        W77794  12.187  29.144   0.866
14027W        W77795  35.927  20.634   4.837
14028W        W77796  10.374  29.460  11.098
14029W        W77797   7.285  10.730  10.488
14030W        W77798  29.564  10.320  14.306
14031W        W77799  18.728  38.508   1.231
14032W        W77800  12.268  15.179   3.694
14033W        W77801   2.922   5.417  14.302
14034W        W77802  36.035   8.895   4.656
14035W        W77803  42.848  36.042   4.291
14036W        W77804  12.180   7.832  12.069
14037W        W77805   3.328  32.120  12.948
14038W        W77806  17.796  41.400  13.380
14039W        W77807  25.072  19.160  11.517
14040W        W77808   5.847  20.683   2.273
14041W        W77809  19.276  15.725  14.315
14042W        W77810  21.573   4.420  13.929
14043W        W77811  11.750  21.190   4.692
14044W        W77812  28.156  32.458  10.530
14045W        W77813  13.118  20.744  11.054
14046W        W77814  44.369  44.874   2.366
14047W        W77815  16.713  19.155  10.100
14048W        W77816  36.936  42.409  11.966
14049W        W77817  40.869  15.266   4.280
14050W        W77818  44.771   6.223  12.430
14051W        W77819   5.423  22.687  12.016
14052W        W77820  29.943  24.579  12.943
14053W        W77821  34.546   0.880  12.910
14054W        W77822   1.806  42.518   4.158
14055W        W77823   9.222  41.425  11.899
14056W        W77824  40.979  19.207   1.433
14057W        W77825  15.647  32.592  14.408
14058W        W77826  31.906  39.934  14.848
14059W        W77827  15.655  41.002  12.564
14060W        W77828   9.198   2.924  13.342
14061W        W77829  35.581  22.996   0.839
14062W        W77830  23.987   2.919  10.622
14063W        W77831  10.339  12.292   2.719
14064W        W77832   3.290  31.452   3.183
14065W        W77833  25.078   1.373  13.484
14066W        W77834  19.240  15.581  11.579
14067W        W77835  33.884  25.110  13.400
14068W        W77836  18.101  35.065   1.703
14069W        W77837   1.795  12.287   1.716
14070W        W77838  39.975  18.182  12.039
14071W        W77839  40.467  15.781  11.069
14072W        W77840  36.486   7.260   3.192
14073W        W77841  25.657  24.230   4.230
14074W        W77842  37.933   4.357   2.764
14075W        W77843  44.335  28.443  11.511
14076W        W77844  29.025  42.902   2.857
14077W        W77845   1.828  17.720   3.674
14078W        W77846  39.521  34.369   3.807
14079W        W77847   0.399  25.521   0.825
14080W        W77848   0.780  25.479  10.066
14081W        W77849   9.803   9.167  14.284
14082W        W77850  41.974  23.200  11.386
14083W        W77851  15.292  29.655  11.074
14084W        W77852  11.155  30.970   0.447
14085W        W77853  33.563  22.126   3.257
14086W        W77854   2.466  15.138  14.931
14087W        W77855   3.762  35.031   5.241
14088W        W77856   6.420  26.584   2.729
14089W        W77857  17.191  25.475  14.028
14090W        W77858  19.280  25.053  14.966
14091W        W77859  25.999  11.297   1.429
14092W        W77860  27.102  17.281   0.876
14093W        W77861   3.225  28.481   4.753
14094W        W77862  40.547  41.417   1.415
14095W        W77863  39.465  19.691   0.359
14096W        W77864  12.320  16.635   4.244
14097W        W77865  25.602  37.570  14.786
14098W        W77866   9.239  11.292  12.431
14099W        W77867  27.013  12.360   2.214
14100W        W77868  41.303   2.271   4.114
14101W        W77869  23.571  25.997   3.786
14102W        W77870  43.494  15.223  12.551
14103W        W77871  34.011  15.757   3.185
14104W        W77872  26.567   4.316  11.417
14105W        W77873  29.074  15.578   1.753
14106W        W77874  17.147   8.337   3.273
14107W        W77875  17.618   4.785  14.407
14108W        W77876  28.055  31.553   2.729
14109W        W77877   3.950  23.583  10.506
14110W        W77878  14.273  35.389   2.881
14111W        W77879  28.534  34.111  11.432
14112W        W77880  31.449  12.130  10.940
14113W        W77881  41.400  12.646  14.307
14114W        W77882  35.395  30.552  11.494
14115W        W77883  13.830  41.308   4.277
14116W        W77884  44.426  26.636  14.403
14117W        W77885  40.325  25.098  11.071
14118W        W77886  43.298  14.693  12.071
14119W        W77887  14.331  27.529  11.119
14120W        W77888   0.887  33.453  10.013
14121W        W77889  27.967   2.399   0.835
14122W        W77890  38.454   3.812  14.446
14123W        W77891  31.642  35.967  13.032
14124W        W77892  25.045  12.716  12.940
14125W        W77893  34.926  39.010   9.950
14126W        W77894  34.479  16.151   3.779
14127W        W77895  40.944   7.784  13.859
14128W        W77896  39.039  13.302  13.483
14129W        W77897  19.579  24.062   5.081
14130W        W77898   0.930  36.545  12.080
14131W        W77899  37.438  38.547  12.895
14132W        W77900  27.035   5.929  12.863
14133W        W77901  39.555  38.025  10.457
14134W        W77902  26.572   9.714  14.308
14135W        W77903  28.557  12.170   1.700
14136W        W77904  10.789  18.234  14.869
14137W        W77905  22.711  36.496   3.251
14138W        W77906   1.860   3.840  10.429
14139W        W77907  38.884  31.519   0.762
14140W        W77908   6.693  42.008   1.748
14141W        W77909  34.456   1.403  14.455
14142W        W77910  12.123  17.281  13.394
14143W        W77911  15.195  28.055  12.979
14144W        W77912  41.028   8.671  11.945
14145W        W77913   1.271   8.811   4.732
14146W        W77914   5.740  13.646   3.275
14147W        W77915  34.880  14.591  13.321
14148W        W77916  30.913   4.415   3.805
14149W        W77917  27.970  13.624  13.918
14150W        W77918   7.343  43.987   3.366
14151W        W77919  40.949   3.836   4.763
14152W        W77920  27.605  24.208  12.523
14153W        W77921   6.718  29.982   1.911
14154W        W77922  25.046  25.033  14.896
14155W        W77923   3.910  22.065   3.740
14156W        W77924  26.644   5.863   0.863
14157W        W77925  36.922  28.064   2.898
14158W        W77926  22.546  37.890   0.463
14159W        W77927  16.115  35.493  14.450
14160W        W77928  31.105  37.342   0.727
14161W        W77929  32.017  24.595   1.319
14162W        W77930   0.847  17.283  12.016
14163W        W77931   3.795  34.936   1.239
14164W        W77932  37.429  26.490  13.491
14165W        W77933  36.946  36.582  11.005
14166W        W77934  14.823   7.688   4.618
14167W        W77935  31.056  31.522   3.295
14168W        W77936  21.217  11.715  10.936
14169W        W77937  42.435  39.317  11.122
14170W        W77938   0.358  16.213   4.692
14171W        W77939   5.926  28.548   1.744
14172W        W77940  33.584   2.726   4.125
14173W        W77941   6.189  33.621   3.789
14174W        W77942  42.508  15.266  12.962
14175W        W77943  40.391  29.538  11.439
14176W        W77944  42.956   8.366  12.470
14177W        W77945  25.201  37.927  11.035
14178W        W77946   4.823  18.722   2.816
14179W        W77947  14.656  26.086   3.787
14180W        W77948  40.880   5.257   1.701
14181W        W77949   3.927  24.147  11.938
14182W        W77950  15.821  32.060   3.148
14183W        W77951  44.422  38.913   3.636
14184W        W77952  42.478  33.585  11.520
14185W        W77953  40.849  22.509  13.447
14186W        W77954  32.107  36.888   1.859
14187W        W77955  40.966   2.347  13.307
14188W        W77956   4.361  19.176  11.856
14189W        W77957  32.524   4.730  14.951
14190W        W77958  11.736  27.081   0.466
14191W        W77959  35.488  34.444   2.317
14192W        W77960  24.525  38.340   1.420
14193W        W77961  31.154  39.406  13.831
14194W        W77962  18.145  36.369  13.310
14195W        W77963  21.230  26.206   3.218
14196W        W77964  30.960  15.313  12.462
14197W        W77965   8.282  42.520  11.383
14198W        W77966  30.654   1.899   0.911
14199W        W77967  41.017  33.900   2.749
14200W        W77968   0.769  30.098   0.819
14201W        W77969  25.199   4.746   3.211
14202W        W77970  14.281   3.283  12.500
14203W        W77971  35.098  30.426   0.479
14204W        W77972  24.528  19.067  14.336
14205W        W77973  27.996   8.276   3.159
14206W        W77974  21.227  39.852  11.043
14207W        W77975   4.708  37.972   0.761
14208W        W77976  12.704  13.737  12.853
14209W        W77977  40.375  42.980   4.746
14210W        W77978  42.870  38.494  14.849
14211W        W77979  34.561  22.138   3.231
14212W        W77980   8.331   4.920   2.803
14213W        W77981   5.338  37.392   5.141
14214W        W77982  26.010   3.888   3.852
14215W        W77983  32.958  43.852   3.682
14216W        W77984  38.051   5.327   3.741
14217W        W77985  30.419   0.255  14.431
14218W        W77986  38.876  43.789   0.770
14219W        W77987  40.877  15.587  10.447
14220W        W77988  38.503  38.431  12.556
14221W        W77989  32.031  44.844  12.404
14222W        W77990  39.017  15.229   2.209
14223W        W77991   3.439  41.007  10.585
14224W        W77992   0.491  13.738   4.141
14225W        W77993  39.932  17.218  14.427
14226W        W77994  22.609   4.384   1.814
14227W        W77995  15.739  30.542  10.575
14228W        W77996  40.971  35.858  11.943
14229W        W77997  17.253  20.603   2.708
14230W        W77998  17.787  25.653  13.533
14231W        W77999   3.744  20.621   3.705
14232W        W78000  18.131  17.153  10.588
14233W        W78001  15.204   1.817   1.789
14234W        W78002  35.424  20.541   3.195
14235W        W78003  11.172  17.671  11.996
14236W        W78004  34.006   7.873   1.250
14237W        W78005   3.905  37.513  10.536
14238W        W78006  32.507  43.853   4.775
14239W        W78007  30.947  33.447  14.887
14240W        W78008  16.258  17.628   2.750
14241W        W78009  15.674  23.181  11.102
14242W        W78010  39.420  26.062   0.810
14243W        W78011  27.666  39.815   0.954
14244W        W78012   8.195  13.114  12.447
14245W        W78013  32.578  37.833   2.756
14246W        W78014  33.915  21.079   2.179
14247W        W78015  29.962  27.089  12.894
14248W        W78016  18.639  38.963   2.801
14249W        W78017   4.936  32.048   1.271
14250W        W78018  37.511  38.537   3.657
14251W        W78019   5.772  10.360  10.603
14252W        W78020   1.252  24.041   1.903
14253W        W78021  38.982  42.526   1.370
14254W        W78022  12.183  15.578   1.702
14255W        W78023   2.863   5.767   1.387
14256W        W78024  35.924  13.119  10.519
14257W        W78025   1.911  17.189  11.466
14258W        W78026  27.943   5.417  14.899
14259W        W78027   0.954  40.043  14.958
14260W        W78028  11.140  37.978  11.048
14261W        W78029   9.717  30.084  14.916
14262W        W78030  32.635  16.165  10.891
14263W        W78031  30.505  21.567   0.283
14264W        W78032  11.147  25.524  13.346
14265W        W78033   3.900   1.467   1.215
14266W        W78034  15.292  41.844  13.335
14267W        W78035   2.822  27.612   1.785
14268W        W78036  42.925  26.160   2.896
14269W        W78037  42.452  29.042   0.381
14270W        W78038  40.901  36.941   2.296
14271W        W78039  32.067  24.676   2.862
14272W        W78040  21.660  44.895  10.519
14273W        W78041  32.473  42.973   3.215
14274W        W78042  31.058  13.646  14.360
14275W        W78043  40.907   5.281  12.863
14276W        W78044  20.715  35.569   3.245
14277W        W78045  44.766  42.295  11.874
14278W        W78046  18.214  20.601  11.574
14279W        W78047  33.130  28.156   4.336
14280W        W78048  25.197  40.358  13.002
14281W        W78049   9.322  32.464   2.300
14282W        W78050  16.302  12.271   4.268
14283W        W78051  37.457  18.791   2.237
14284W        W78052  26.475  43.897  11.915
14285W        W78053  33.027  28.512  11.467
14286W        W78054  20.118  35.586  12.905
14287W        W78055  41.431   7.887  12.851
14288W        W78056   4.712  33.911  14.931
14289W        W78057  32.595  27.003   1.317
14290W        W78058  37.955   9.806  12.421
14291W        W78059   8.338  11.208  12.400
14292W        W78060  21.058   7.366   2.865
14293W        W78061  29.081  27.506  13.059
14294W        W78062  16.080  31.548   1.354
14295W        W78063  44.401  27.954   3.649
14296W        W78064  39.907  23.223  14.366
14297W        W78065  39.999  11.662  11.467
14298W        W78066   7.218  28.096   3.685
14299W        W78067  36.034  12.222   0.296
14300W        W78068  28.602  11.726  11.878
14301W        W78069  30.496  28.059  14.472
14302W        W78070  12.163  37.893   3.683
14303W        W78071   6.752  37.087   0.920
14304W        W78072  12.140   7.172   4.775
14305W        W78073  33.015  16.737   1.785
14306W        W78074   6.808  35.507   1.334
14307W        W78075   8.749  21.641   3.825
14308W        W78076   2.880   9.793   3.235
14309W        W78077  12.349   8.820   3.383
14310W        W78078  16.115  28.964   4.757
14311W        W78079  42.321   4.414  14.308
14312W        W78080  41.519  24.675   2.662
14313W        W78081  31.004  23.068  10.634
14314W        W78082  28.465   4.763   0.345
14315W        W78083  31.479  20.583  12.571
14316W        W78084  19.081  31.621  13.946
14317W        W78085  11.861  35.536   0.736
14318W        W78086  34.455  36.951  14.374
14319W        W78087  35.369  39.344  11.129
14320W        W78088  23.541   8.312  10.574
14321W        W78089  10.271  19.170   4.319
14322W        W78090   9.738   9.271  11.058
14323W        W78091  35.488  21.606  13.431
14324W        W78092  29.960  31.026  12.426
14325W        W78093  18.175  14.700   2.405
14326W        W78094  24.493  43.312   1.781
14327W        W78095   8.839  13.233  14.859
14328W        W78096  44.796  22.708   2.236
14329W        W78097  42.030  28.603   3.217
14330W        W78098  27.601  20.258  13.344
14331W        W78099  41.005  43.331   2.699
14332W        W78100  40.445  33.508  12.073
14333W        W78101  33.420  25.597   2.815
14334W        W78102  10.172  19.265   3.209
14335W        W78103   8.848  24.148  13.382
14336W        W78104   9.716  16.643   0.851
14337W        W78105  33.128  13.780  13.027
14338W        W78106   6.746  31.470  12.852
14339W        W78107  29.163  27.447   1.896
14340W        W78108  38.407   6.320   4.653
14341W        W78109  21.130  43.930  13.800
14342W        W78110  26.683  26.012  13.490
14343W        W78111   3.812  20.548   2.866
14344W        W78112  28.097  34.540   1.739
14345W        W78113   5.854  37.486   0.792
14346W        W78114  39.914  33.616  12.915
14347W        W78115   8.237  17.621  12.409
14348W        W78116  36.468  44.349   4.771
14349W        W78117   6.314  21.191   4.831
14350W        W78118  36.966  33.929   3.630
14351W        W78119   6.872  21.687  11.961
14352W        W78120   0.372  29.514  13.859
14353W        W78121   1.339  20.574  14.447
14354W        W78122  31.556  11.175   3.848
14355W        W78123  35.533  27.586   0.375
14356W        W78124  43.371  44.933  14.344
14357W        W78125   3.736   3.345  12.412
14358W        W78126  14.594  36.591  13.541
14359W        W78127  31.966  11.266   3.255
14360W        W78128  23.143   6.685  12.868
14361W        W78129   6.308  16.762   1.731
14362W        W78130   5.876  14.770   2.860
14363W        W78131  28.046  39.329   3.338
14364W        W78132   7.767  22.185  13.394
14365W        W78133  25.147  10.151   1.704
14366W        W78134   9.269   4.218  10.998
14367W        W78135   6.803  32.622  13.924
14368W        W78136  19.041  12.156   0.438
14369W        W78137  15.182  28.586  14.513
14370W        W78138  16.087  25.147   2.319
14371W        W78139  24.556  25.638   1.777
14372W        W78140  16.638  37.903   2.771
14373W        W78141  17.188   0.449  10.144
14374W        W78142  43.415  11.692   3.658
14375W        W78143  19.770  14.239  12.010
14376W        W78144  42.841  26.645  11.607
14377W        W78145  25.980  21.157  14.974
14378W        W78146  43.471   3.908  13.807
14379W        W78147   3.355  22.175   2.266
14380W        W78148  39.325  16.759  13.917
14381W        W78149  17.075  10.861  12.513
14382W        W78150  35.896  10.217  11.071
14383W        W78151  33.968  26.984   2.758
14384W        W78152  30.652  13.652  11.907
14385W        W78153  22.214  38.924  13.323
14386W        W78154  31.523  29.141  11.924
14387W        W78155  15.793  16.578   5.783
14388W        W78156   3.929   1.823  11.958
14389W        W78157  34.985  43.406  12.055
14390W        W78158  14.338  43.871  14.438
14391W        W78159  42.290   8.404  14.941
14392W        W78160   8.715   4.885  14.400
14393W        W78161  32.405   9.253   2.776
14394W        W78162  28.635  33.113  11.048
14395W        W78163  24.668  24.616  13.374
14396W        W78164  41.309  37.436   0.898
14397W        W78165  20.148  30.143  14.489
14398W        W78166  15.764   0.770   5.233
14399W        W78167  38.423  20.647   0.762
14400W        W78168   8.271  25.019   4.126
14401W        W78169  15.162  13.118   0.747
14402W        W78170  37.516   9.800   4.767
14403W        W78171  25.145  13.228   5.218
14404W        W78172   1.924   8.330   2.799
14405W        W78173  11.338  44.438   1.433
14406W        W78174  28.668  21.077   4.774
14407W        W78175  44.500   7.405  13.362
14408W        W78176  31.558  13.696  12.982
14409W        W78177  30.587  31.485   4.678
14410W        W78178  39.020  44.795  14.866
14411W        W78179  40.344  14.202   1.705
14412W        W78180  11.763   1.888   5.168
14413W        W78181   0.939  40.936  11.471
14414W        W78182  32.589  29.965   0.947
14415W        W78183  30.465  12.763  12.947
14416W        W78184   0.852  19.629  14.337
14417W        W78185  14.654  23.565   2.843
14418W        W78186  34.510  28.997   3.298
14419W        W78187  22.141  27.169   0.940
14420W        W78188  40.416  33.033   2.796
14421W        W78189   7.705  25.016   2.729
14422W        W78190  37.062  40.422  11.386
14423W        W78191  20.149  15.163  12.095
14424W        W78192  25.091   8.345  12.480
14425W        W78193   0.941  11.303   1.720
14426W        W78194   2.862  43.378   3.650
14427W        W78195   5.243   1.368   0.292
14428W        W78196  26.562  27.109   4.242
14429W        W78197  42.344   2.903   3.822
14430W        W78198  17.212  20.131   1.338
14431W        W78199  24.129  31.568  14.348
14432W        W78200  43.934  10.866  13.798
14433W        W78201  21.716  31.948  10.546
14434W        W78202   6.880  44.884  13.968
14435W        W78203  34.958  31.900  12.019
14436W        W78204   7.667  39.495   3.814
14437W        W78205  33.477  18.061   0.898
14438W        W78206  43.954  30.628   0.758
14439W        W78207  34.524   5.873   0.379
14440W        W78208   5.422   5.388  10.571
14441W        W78209  16.076   4.899  13.514
14442W        W78210  40.511  30.925   9.675
14443W        W78211   4.811   4.439  12.477
14444W        W78212  36.355  34.429   3.242
14445W        W78213  41.303   5.356   1.816
14446W        W78214  40.918  42.369  13.484
14447W        W78215  32.438   0.274  10.519
14448W        W78216  13.755   1.422   2.416
14449W        W78217  17.191   4.786  11.918
14450W        W78218  14.102  25.997  12.562
14451W        W78219  31.611  34.575  10.966
14452W        W78220   3.401  23.994   1.308
14453W        W78221  38.936  39.330  12.095
14454W        W78222  28.619  42.378   2.817
14455W        W78223   8.724  18.106  13.035
14456W        W78224  27.948   3.279   5.148
14457W        W78225  10.235  32.521   4.677
14458W        W78226  31.634  36.534  13.991
14459W        W78227  42.834  44.010  14.940
14460W        W78228  36.564  27.692   4.334
14461W        W78229  27.529   3.270   1.397
14462W        W78230  15.725  21.084   0.853
14463W        W78231   2.743  34.536   4.291
14464W        W78232   7.726  23.196  13.345
14465W        W78233   8.379   9.190  12.506
14466W        W78234   9.347  16.688  12.537
14467W        W78235  26.063  34.905  11.020
14468W        W78236  25.103   3.916  12.924
14469W        W78237  26.126  43.810   4.302
14470W        W78238  23.571  32.128  14.906
14471W        W78239   3.952  15.288   1.798
14472W        W78240  42.902  36.920  12.927
14473W        W78241  21.612  16.717  12.045
14474W        W78242  29.115  44.848   3.217
14475W        W78243  21.041  37.892   4.713
14476W        W78244   4.789  26.127   3.268
14477W        W78245  19.253   3.333  11.858
14478W        W78246  19.553  26.511  12.887
14479W        W78247  10.150  40.307  14.482
14480W        W78248  37.568  23.146  10.590
14481W        W78249   6.201   7.737  12.523
14482W        W78250   9.153  30.092  14.496
14483W        W78251  13.232  35.888  12.478
14484W        W78252   0.846  16.299  11.928
14485W        W78253  29.983  16.754   0.429
14486W        W78254   7.686  21.516   4.776
14487W        W78255   0.355  29.433  13.003
14488W        W78256  24.716  42.324   0.464
14489W        W78257  27.688  15.603  11.396
14490W        W78258  21.657  37.573  14.933
14491W        W78259  36.435  26.203   1.780
14492W        W78260  37.896   3.453   4.191
14493W        W78261  29.054  25.485   4.759
14494W        W78262  19.168  44.954  12.372
14495W        W78263  15.252  20.212  11.857
14496W        W78264  34.608  31.493   2.674
14497W        W78265  44.978  27.049  11.927
14498W        W78266  42.289  37.941  14.970
14499W        W78267  30.145  38.324   0.419
14500W        W78268  14.266   8.393  14.399
14501W        W78269  42.328  36.372  10.506
14502W        W78270  38.911   9.233  14.483
14503W        W78271  39.041  31.976   1.437
14504W        W78272   8.866  21.211   0.365
14505W        W78273  41.395  31.561  12.372
14506W        W78274  44.774  37.418  12.969
14507W        W78275   2.422   4.765   3.855
14508W        W78276  44.368  33.418   3.794
14509W        W78277   7.302  22.132  11.435
14510W        W78278  19.156  41.984  13.902
14511W        W78279  21.227   0.770  12.851
14512W        W78280  28.441  30.987  10.895
14513W        W78281  17.791  10.750  13.037
14514W        W78282  42.938  33.898   1.861
14515W        W78283  17.622  44.775   3.342
14516W        W78284   7.851  21.262  13.892
14517W        W78285  42.401  42.837  12.883
14518W        W78286  22.567  17.215  10.010
14519W        W78287  36.492  26.111  10.442
14520W        W78288  22.675  10.849   2.882
14521W        W78289  25.111  42.920   3.251
14522W        W78290  23.058  29.104  13.315
14523W        W78291  17.234   4.834  12.918
14524W        W78292  32.936   4.445   1.771
14525W        W78293  17.096  16.689   0.325
14526W        W78294  10.756  12.137  12.936
14527W        W78295   9.282   2.251   1.232
14528W        W78296   8.349  40.480   4.641
14529W        W78297  21.653   5.873   3.840
14530W        W78298  14.773  18.152  11.907
14531W        W78299   1.306  44.959   2.684
14532W        W78300  28.119  29.532  14.032
14533W        W78301  17.704  10.266  10.903
14534W        W78302  38.872  18.283  13.013
14535W        W78303   8.393  41.944  12.889
14536W        W78304  35.975  16.281  13.931
14537W        W78305  19.233  33.427   2.377
14538W        W78306   8.261  38.050  10.432
14539W        W78307  14.718   6.720   3.759
14540W        W78308  38.057  24.076   0.822
14541W        W78309   4.312   6.865   2.900
14542W        W78310  31.620  40.314  10.565
14543W        W78311  36.920  21.687  14.417
14544W        W78312  31.484  16.782  12.340
14545W        W78313  44.823  21.677   2.787
14546W        W78314   4.713  28.544   2.208
14547W        W78315   2.773  16.086  13.470
14548W        W78316  24.618  39.912   0.782
14549W        W78317  41.020  40.904  10.526
14550W        W78318  19.173  34.977  10.153
14551W        W78319  10.867  42.462  12.372
14552W        W78320  32.428  22.030   2.304
14553W        W78321   4.425  22.221   4.723
14554W        W78322  20.711  29.069   2.838
14555W        W78323  19.717  27.495  14.785
14556W        W78324  27.461  41.520   3.677
14557W        W78325  16.211  23.986   3.813
14558W        W78326  21.537  23.675  12.351
14559W        W78327  12.846  32.072   3.649
14560W        W78328   7.698  35.589   1.908
14561W        W78329   1.802  23.013   4.787
14562W        W78330  44.910  32.913   1.274
14563W        W78331   4.904  39.006  14.501
14564W        W78332  39.023  31.124  11.425
14565W        W78333  21.089  14.168  11.568
14566W        W78334  28.536  31.494   3.323
14567W        W78335  10.212  12.615   0.283
14568W        W78336   6.680  39.527   1.448
14569W        W78337  15.797   6.280  12.509
14570W        W78338   9.742  25.561  12.083
14571W        W78339  22.657  41.813   0.444
14572W        W78340  21.148  26.063   4.607
14573W        W78341  39.344  29.095   5.203
14574W        W78342  41.538  22.093  13.801
14575W        W78343  19.074  31.568   1.724
14576W        W78344  42.338   3.868   4.633
14577W        W78345  26.011  20.159  11.578
14578W        W78346  28.442  34.532   3.644
14579W        W78347  40.517  39.933  14.028
14580W        W78348   9.792  16.163  13.998
14581W        W78349  13.655  19.195   1.814
14582W        W78350  41.944   1.743  12.560
14583W        W78351  14.626  40.854   3.640
14584W        W78352  21.212  34.482  11.975
14585W        W78353   7.172   0.897   2.406
14586W        W78354  41.432  22.534   0.369
14587W        W78355   8.262   5.891  13.494
14588W        W78356   8.732  36.958   2.707
14589W        W78357  20.590  11.335  13.371
14590W        W78358  10.325   7.377   2.289
14591W        W78359  33.070  15.659  10.982
14592W        W78360  21.545  30.461   3.767
14593W        W78361  31.557  17.101   3.832
14594W        W78362  11.646  34.548  13.835
14595W        W78363   6.738  29.670  12.389
14596W        W78364  35.481  12.672   0.782
14597W        W78365   0.285  23.989  10.977
14598W        W78366  31.466  16.278  12.826
14599W        W78367   2.383  33.102  11.560
14600W        W78368  25.526  35.980   4.784
14601W        W78369   8.667  37.989   0.936
14602W        W78370  31.440  10.725   4.233
14603W        W78371  27.512  21.202  14.984
14604W        W78372  37.402  29.446   2.371
14605W        W78373   6.195   3.270  10.525
14606W        W78374   4.820  35.447  13.536
14607W        W78375  27.554  10.639  11.409
14608W        W78376   5.426  32.488   0.452
14609W        W78377   5.774  14.782   0.862
14610W        W78378   7.416  30.063  13.501
14611W        W78379  38.561  43.361  14.004
14612W        W78380  10.721  28.490   0.255
14613W        W78381  10.216  28.978  10.051
14614W        W78382  39.558  40.876   3.261
14615W        W78383  18.654  39.517  12.382
14616W        W78384  10.227  35.532  14.389
14617W        W78385  12.798   9.828  10.609
14618W        W78386  19.564  19.116   4.161
14619W        W78387  21.147  30.534   3.327
14620W        W78388   1.465  21.585  11.425
14621W        W78389  27.470   8.302  11.430
14622W        W78390   6.813  24.572  13.490
14623W        W78391  43.500  27.634   0.881
14624W        W78392   5.804   6.920   1.858
14625W        W78393  41.954  39.938   4.128
14626W        W78394   1.286  15.267   3.182
14627W        W78395  38.896  28.600  11.092
14628W        W78396  29.052   1.879  12.469
14629W        W78397  18.707  27.689  12.077
14630W        W78398   9.392  28.039   0.795
14631W        W78399  28.489  36.045  13.454
14632W        W78400   4.837  36.456   3.659
14633W        W78401  15.692  21.527  14.514
14634W        W78402  39.356  30.110  13.029
14635W        W78403  28.018   8.303  10.420
14636W        W78404  36.879  13.650  10.424
14637W        W78405  35.930  12.341   0.954
14638W        W78406  32.043   2.334  12.089
14639W        W78407  21.607  40.888   2.339
14640W        W78408   3.340  14.124  13.831
14641W        W78409   5.764   5.334   0.424
14642W        W78410  38.848  15.314  13.880
14643W        W78411   8.835  15.639  13.050
14644W        W78412  10.748  44.890   1.428
14645W        W78413  34.561  15.087   2.417
14646W        W78414  29.151   9.855  11.986
14647W        W78415  40.923  37.555   1.293
14648W        W78416  25.519  15.685  10.094
14649W        W78417  39.423  37.494   1.874
14650W        W78418  18.050  38.942  12.349
14651W        W78419  42.928  10.377   3.163
14652W        W78420  12.213  20.663  11.532
14653W        W78421  33.883  23.170   2.185
14654W        W78422  37.074   8.405  11.968
14655W        W78423  21.631  19.620   4.807
14656W        W78424   0.261   7.184   1.275
14657W        W78425  13.175  42.502   4.208
14658W        W78426   8.264  32.103  11.451
14659W        W78427  32.094  44.301  11.464
14660W        W78428  38.402  27.611  12.389
14661W        W78429  33.421  35.482  13.824
14662W        W78430  31.584  29.919  12.088
14663W        W78431   0.863  40.502   2.276
14664W        W78432  25.504   3.951   1.878
14665W        W78433  23.208  20.724   0.372
14666W        W78434  25.678  24.113  12.473
14667W        W78435  36.512  22.031   2.324
14668W        W78436   2.362   5.850  11.109
14669W        W78437   4.258  14.334  11.492
14670W        W78438  39.514  24.551   4.146
14671W        W78439  35.380  17.640   1.774
14672W        W78440  15.217  42.483  13.476
14673W        W78441  31.420  29.649   3.667
14674W        W78442  38.001   7.855  14.991
14675W        W78443  41.945  16.669   2.672
14676W        W78444  27.550  44.946  12.345
14677W        W78445  33.466  14.792   4.144
14678W        W78446  34.391   4.230   4.261
14679W        W78447  27.659  17.128   4.151
14680W        W78448  37.961  21.194   0.372
14681W        W78449  14.133  37.001  14.497
14682W        W78450   4.238  16.578   4.736
14683W        W78451  19.701  35.993  11.108
14684W        W78452   5.273  41.454  11.609
14685W        W78453   8.677  20.088  12.097
14686W        W78454  30.619  36.511   4.324
14687W        W78455  43.909  21.722  12.971
14688W        W78456  38.863  17.093   2.240
14689W        W78457  39.817  30.992   1.408
14690W        W78458  25.705  20.203  11.955
14691W        W78459   7.298   1.310   1.805
14692W        W78460  37.551  31.150  11.412
14693W        W78461  12.319  25.484  13.412
14694W        W78462  37.960  23.004  12.934
14695W        W78463  42.992  32.535  14.508
14696W        W78464  24.130   8.786  14.943
14697W        W78465   0.485  26.169  11.089
14698W        W78466  30.082  17.088  12.504
14699W        W78467  29.095  36.013  10.989
14700W        W78468  20.727  23.072  12.402
14701W        W78469   5.785  41.834  12.002
14702W        W78470  30.150  16.629   3.208
14703W        W78471  38.877   8.355   9.649
14704W        W78472  26.461   7.175   3.790
14705W        W78473  34.397  44.785  11.101
14706W        W78474  20.213   9.309  11.927
14707W        W78475  38.951  15.626   1.922
14708W        W78476  12.233  22.209   3.640
14709W        W78477   3.710  34.580   0.361
14710W        W78478  13.109  27.076  12.994
14711W        W78479  37.431  19.234  14.907
14712W        W78480  36.045  14.733  14.390
14713W        W78481  20.695   3.854  11.112
14714W        W78482   8.747  22.593  13.455
14715W        W78483   1.247  44.291  13.861
14716W        W78484  30.148   2.309   0.249
14717W        W78485   3.814  20.738  14.464
14718W        W78486   9.260  36.901   0.268
14719W        W78487  31.032  27.061   0.389
14720W        W78488  12.264   6.893  13.402
14721W        W78489  10.226  20.766   1.895
14722W        W78490  30.449  22.087  11.485
14723W        W78491  27.563   6.299   1.320
14724W        W78492  15.159  14.180  12.003
14725W        W78493   1.812   9.691   2.855
14726W        W78494   0.864  29.492  13.863
14727W        W78495  27.458  18.566   0.457
14728W        W78496   7.205   1.402  13.882
14729W        W78497  15.130  29.641  10.609
14730W        W78498  17.761   1.438  14.343
14731W        W78499  38.506   2.896  14.333
14732W        W78500  30.020  32.560  14.943
14733W        W78501   2.769  23.645  13.846
14734W        W78502  25.211  37.071   4.695
14735W        W78503  23.093   8.844   4.778
14736W        W78504  39.349  16.222   3.246
14737W        W78505  43.411  35.555  11.475
14738W        W78506   7.272  17.791  12.543
14739W        W78507  40.312   6.222   0.945
14740W        W78508  22.733  33.874   4.270
14741W        W78509  32.014  29.031   1.447
14742W        W78510  26.644  25.570   0.388
14743W        W78511  24.005  28.116  14.450
14744W        W78512  22.998  36.075  14.879
14745W        W78513  36.384  37.400  12.078
14746W        W78514  38.060   4.328   1.868
14747W        W78515  41.439  42.527  10.437
14748W        W78516   0.785  26.017  14.297
14749W        W78517  31.507  25.561  11.965
14750W        W78518  43.275  40.980  11.569
14751W        W78519  42.511   7.343  12.389
14752W        W78520   1.886  37.028  14.765
14753W        W78521  33.613  20.753   3.644
14754W        W78522  25.031  43.854   4.791
14755W        W78523   3.891  13.610   2.375
14756W        W78524  12.683  21.209  13.064
14757W        W78525  10.177   8.806  14.348
14758W        W78526  21.641  29.091  11.568
14759W        W78527  33.442  15.154   2.221
14760W        W78528   2.907  24.536  11.093
14761W        W78529  38.933  38.486   4.646
14762W        W78530  39.544  22.124  11.903
14763W        W78531  33.431  28.161   1.731
14764W        W78532  34.111  23.056   0.469
14765W        W78533  24.508   7.832   0.379
14766W        W78534  35.104   7.187   2.710
14767W        W78535  24.127  25.971  13.994
14768W        W78536  41.812  36.546   1.863
14769W        W78537   2.918  26.582   2.289
14770W        W78538  12.287  17.108  12.035
14771W        W78539  44.870   3.401  10.939
14772W        W78540  19.041  30.495  14.358
14773W        W78541   5.896  33.484  10.042
14774W        W78542  41.907   0.397  13.886
14775W        W78543  15.095  41.492   1.216
14776W        W78544  26.080   6.332  11.448
14777W        W78545  35.944  19.140   1.927
14778W        W78546  35.105  12.636   0.342
14779W        W78547  37.059  16.144  12.826
14780W        W78548  26.085  38.968  13.470
14781W        W78549   7.674  23.732  13.347
14782W        W78550  18.257   9.808  12.826
14783W        W78551   8.685  22.087  14.911
14784W        W78552   4.742  25.599  13.505
14785W        W78553   0.846  32.633   1.870
14786W        W78554  36.431  33.401  14.437
14787W        W78555  36.535   9.676   0.911
14788W        W78556   8.238  36.347   1.249
14789W        W78557  33.955  28.985  12.389
14790W        W78558  20.566   3.944  13.978
14791W        W78559  19.102  17.261  14.396
14792W        W78560  10.339  38.025   3.241
14793W        W78561  25.500  43.453   3.285
14794W        W78562  21.520  10.680   2.711
14795W        W78563  10.280  38.450  10.010
14796W        W78564  11.788  28.442  14.935
14797W        W78565  35.864  41.329  10.500
14798W        W78566  20.687  39.477  10.919
14799W        W78567   3.748  44.326  14.997
14800W        W78568  14.240  36.942  12.500
14801W        W78569  43.429  44.263  10.415
14802W        W78570  20.075  16.637  11.932
14803W        W78571  42.027   8.758  14.003
14804W        W78572  39.996  17.280   2.822
14805W        W78573  41.346  23.066  14.856
14806W        W78574   4.787  42.843   2.264
14807W        W78575   6.808  43.984   4.116
14808W        W78576  39.402  24.102   4.806
14809W        W78577   4.303  15.787  13.894
14810W        W78578  43.294  11.236  10.623
14811W        W78579  10.720   6.203  14.927
14812W        W78580  35.982  29.971  10.099
14813W        W78581   3.935  25.493   3.793
14814W        W78582   8.687  34.609   2.746
14815W        W78583  24.127  24.572   2.881
14816W        W78584  21.089  26.648   4.196
14817W        W78585  28.616   1.762  12.529
14818W        W78586  32.464  18.073   4.292
14819W        W78587  19.117   2.286  14.514
14820W        W78588   8.405  14.605   0.348
14821W        W78589  33.581  34.960  12.458
14822W        W78590  11.722  21.078   2.795
14823W        W78591  25.189  30.983  14.947
14824W        W78592  40.535  18.573  12.077
14825W        W78593  34.606  33.453  11.496
14826W        W78594  41.315  30.433   9.661
14827W        W78595  39.983  40.978   1.815
14828W        W78596  21.608  16.217   1.370
14829W        W78597  10.364  43.924  10.431
14830W        W78598  39.443  22.041  12.380
14831W        W78599  40.462   2.390  13.358
14832W        W78600   4.719  18.730   4.117
14833W        W78601  43.841  16.131  11.448
14834W        W78602  13.312  37.970  11.571
14835W        W78603   4.771  25.011   0.322
14836W        W78604   1.822  16.606   3.853
14837W        W78605   2.839  33.594   1.740
14838W        W78606  19.664  24.520  13.867
14839W        W78607  17.568  39.916  11.876
14840W        W78608  12.169  35.914   2.889
14841W        W78609  35.956  43.988   1.380
14842W        W78610  10.369  34.438  11.947
14843W        W78611  15.656   2.735   4.209
14844W        W78612  20.715   0.421  13.323
14845W        W78613  17.752  17.240  11.452
14846W        W78614   5.368  24.542  14.920
14847W        W78615  23.728   9.889   1.226
14848W        W78616  19.694  43.424   3.387
14849W        W78617  28.650  31.898  14.985
14850W        W78618   3.744  36.428  12.500
14851W        W78619  34.377   5.823  14.995
14852W        W78620   1.772  44.404  10.032
14853W        W78621  21.538  13.275  13.505
14854W        W78622  28.570  32.903  12.067
14855W        W78623  18.665   1.351   3.199
14856W        W78624  39.390  38.891   3.165
14857W        W78625  11.701  28.623  13.039
14858W        W78626  20.165  40.441  12.436
14859W        W78627  32.081  28.520   0.792
14860W        W78628  44.898  33.063   3.308
14861W        W78629  15.252  24.585  12.880
14862W        W78630  27.655  11.750   1.335
14863W        W78631  15.687  35.868  11.018
14864W        W78632   6.769  11.329  13.993
14865W        W78633  40.861   7.721  14.870
14866W        W78634  41.409  43.305   1.245
14867W        W78635  22.037   0.337   3.297
14868W        W78636   2.334  40.392   0.798
14869W        W78637  14.746   8.266   3.384
14870W        W78638   8.786  16.774  14.886
14871W        W78639  20.698  14.823  13.381
14872W        W78640  13.673  21.123   4.122
14873W        W78641   7.764   7.842   4.738
14874W        W78642  23.672  27.496   4.145
14875W        W78643   4.418  22.067   1.763
14876W        W78644  25.076   8.342  13.432
14877W        W78645  35.427  32.538   1.415
14878W        W78646  21.034  18.115  14.933
14879W        W78647  27.083  22.122   0.388
14880W        W78648  22.577  34.952   5.100
14881W        W78649   4.921   1.940  14.938
14882W        W78650  16.220  29.564   4.740
14883W        W78651  19.565  42.016   1.271
14884W        W78652  40.992   0.850   4.340
14885W        W78653  31.597   2.889   1.843
14886W        W78654  17.233  20.082   5.309
14887W        W78655  17.761  20.223   0.766
14888W        W78656   6.330  28.532  11.531
14889W        W78657  44.373   5.272  11.925
14890W        W78658  16.638  29.609  14.777
14891W        W78659  19.282   7.386  11.499
14892W        W78660  42.913   1.734  13.872
14893W        W78661   5.428  37.358   2.807
14894W        W78662  24.988  40.518   2.830
14895W        W78663  10.758  13.613  12.061
14896W        W78664  34.927  43.346  14.899
14897W        W78665  36.384   3.882   1.834
14898W        W78666  31.043  42.306   1.697
14899W        W78667  35.530   0.438  13.898
14900W        W78668  25.502  35.408  13.020
14901W        W78669  29.080   2.816  13.530
14902W        W78670   2.345  40.819   4.815
14903W        W78671  40.303  13.702  11.431
14904W        W78672  25.005  18.057  14.396
14905W        W78673  26.972  42.340   0.416
14906W        W78674  28.599  42.459   2.284
14907W        W78675  27.566  28.988   1.930
14908W        W78676  23.228  15.239  13.377
14909W        W78677  31.570  17.151  11.612
14910W        W78678  26.004  25.485   0.445
14911W        W78679  24.600  35.968   2.757
14912W        W78680  27.581  18.584   3.227
14913W        W78681  42.343  12.150   4.814
14914W        W78682  34.967  17.294   4.800
14915W        W78683   0.437  16.267  11.991
14916W        W78684  43.863  34.563   2.356
14917W        W78685   4.895   6.711  14.840
14918W        W78686   9.714   4.875  12.457
14919W        W78687  11.770  21.217  11.498
14920W        W78688   1.466  33.913   0.441
14921W        W78689  41.474   8.792   3.814
14922W        W78690  35.864  41.870  14.865
14923W        W78691  19.131   8.306   0.451
14924W        W78692  29.647  13.173  12.064
14925W        W78693  40.446  30.614  13.844
14926W        W78694  10.678   9.255   2.888
14927W        W78695   4.859  25.983  11.957
14928W        W78696   3.713  35.017  13.807
14929W        W78697  39.445   7.744  12.431
14930W        W78698  26.475  35.433  13.415
14931W        W78699  30.432  39.010  12.972
14932W        W78700  33.403  14.797   3.339
14933W        W78701   9.386  30.468   4.196
14934W        W78702  39.514   0.419  13.439
14935W        W78703  32.028   5.357  12.378
14936W        W78704  19.127  31.938  10.962
14937W        W78705  24.686  19.587  13.967
14938W        W78706  12.141  32.550   0.353
14939W        W78707   0.888  18.672   4.641
14940W        W78708  28.570  30.091   0.423
14941W        W78709  17.715  36.467  13.039
14942W        W78710   4.873   5.336   2.797
14943W        W78711  33.442  24.586   0.893
14944W        W78712  16.116   2.824  10.522
14945W        W78713   0.965  43.473   0.367
14946W        W78714  16.758  36.912   1.837
14947W        W78715  35.995   9.292   3.227
14948W        W78716  39.348  42.324   2.736
14949W        W78717  34.085  40.394   1.389
14950W        W78718  14.751  38.548  12.000
14951W        W78719  37.053  20.647  13.513
14952W        W78720  25.483  15.275  10.967
14953W        W78721  16.262  27.970   3.771
14954W        W78722  44.994  43.499   1.342
14955W        W78723  42.002  36.521  13.062
14956W        W78724   2.255  32.455   4.821
14957W        W78725  44.972  12.188   4.125
14958W        W78726  34.405  20.655  10.567
14959W        W78727  22.728  18.051   3.771
14960W        W78728  41.002  19.249   4.707
14961W        W78729  29.526  16.214   0.758
14962W        W78730  24.999  12.149   4.133
14963W        W78731  12.755  15.322   4.272
14964W        W78732  15.279  30.616   0.286
14965W        W78733   3.433  29.094   2.257
14966W        W78734  10.710   0.864   2.371
14967W        W78735  27.198  37.068   4.160
14968W        W78736  31.485  36.038  14.917
14969W        W78737  10.765  23.053  13.936
14970W        W78738   9.762  10.771  14.369
14971W        W78739  24.130   4.918   0.845
14972W        W78740  36.586  14.761  14.492
14973W        W78741  41.311  36.000  12.963
14974W        W78742  38.932  30.110  12.568
14975W        W78743  15.778  30.123   2.407
14976W        W78744  34.881  28.032  12.474
14977W        W78745   6.351   9.384   3.304
14978W        W78746   8.169  34.452   2.385
14979W        W78747   4.422  30.650   1.881
14980W        W78748  25.993   8.217   0.749
14981W        W78749  24.679  15.584  10.916
14982W        W78750  42.881  13.207   3.179
14983W        W78751  17.103  21.700   0.967
14984W        W78752  19.164  26.591  10.423
14985W        W78753   5.702   3.823   4.657
14986W        W78754   1.269  24.128  11.483
14987W        W78755   9.315  24.645   0.911
14988W        W78756  21.262  34.882   2.881
14989W        W78757  24.060  36.872  11.403
14990W        W78758  34.466  21.199  14.963
14991W        W78759  12.650  31.547   4.222
14992W        W78760  41.938   5.762   2.339
14993W        W78761  29.095  13.144   1.925
14994W        W78762  25.980  40.870  13.396
14995W        W78763  34.088  20.613   2.314
14996W        W78764  29.669   7.668   2.322
14997W        W78765  24.070  35.048  12.063
14998W        W78766  34.483   4.798  14.318
14999W        W78767  10.714  30.583   1.369
15000W        W78768   8.768  15.149  10.966
15001W        W78769   9.696  44.427   1.298
15002W        W78770   1.463  35.989  14.823
15003W        W78771  29.145  32.543   4.324
15004W        W78772  33.888  39.836   4.603
15005W        W78773   9.352  32.412  14.407
15006W        W78774  22.743  16.284  11.483
15007W        W78775   5.910  17.605   4.279
15008W        W78776   2.778  28.997  13.024
15009W        W78777  10.846  25.078   0.729
15010W        W78778  26.077   3.924   0.446
15011W        W78779  30.626  14.658  12.355
15012W        W78780   5.373  23.124  13.884
15013W        W78781  26.141  12.146  11.580
15014W        W78782   5.791  19.266  12.401
15015W        W78783  28.575  44.789   1.266
15016W        W78784   9.765  29.919   3.777
15017W        W78785  14.318  25.028  13.474
15018W        W78786  26.485  43.837   3.709
15019W        W78787   8.321  36.439   2.671
15020W        W78788  16.303  29.041   3.707
15021W        W78789   1.476   9.170   4.313
15022W        W78790  23.535  10.634  10.465
15023W        W78791  25.095   9.738   3.323
15024W        W78792  11.718  43.497   2.850
15025W        W78793  21.172  22.171   2.229
15026W        W78794  24.632  19.598  12.442
15027W        W78795  11.251  41.818  14.385
15028W        W78796  23.235  14.221  11.540
15029W        W78797   5.337   4.843  12.528
15030W        W78798  17.743  30.046  13.495
15031W        W78799  25.985   1.338   1.284
15032W        W78800  18.597  43.498   2.178
15033W        W78801  25.116  19.233  14.412
15034W        W78802  15.326  17.610  10.948
15035W        W78803   1.236  16.235  11.043
15036W        W78804  31.488  26.031  14.339
15037W        W78805   7.682  28.964   1.793
15038W        W78806  25.995  19.158  12.936
15039W        W78807  27.589  21.142  10.616
15040W        W78808  34.101   0.407   4.336
15041W        W78809  35.933  35.877   1.813
15042W        W78810   4.295   5.910   3.210
15043W        W78811  16.176   4.860  14.396
15044W        W78812   4.854  21.667  12.923
15045W        W78813   6.199  26.459   2.352
15046W        W78814  34.053  15.598  11.958
15047W        W78815  27.592  33.400   0.731
15048W        W78816  44.293  33.114  14.470
15049W        W78817  39.955  42.462  13.359
15050W        W78818  33.494  25.013  10.499
15051W        W78819  19.673   5.755   4.640
15052W        W78820  24.498  24.986  11.857
15053W        W78821  31.104   9.289   4.672
15054W        W78822  26.094  41.037   4.836
15055W        W78823  25.981  36.575   3.692
15056W        W78824   5.393  11.821  10.941
15057W        W78825   0.788  10.771  13.400
15058W        W78826   3.769   6.830   1.774
15059W        W78827  42.521  26.026  14.854
15060W        W78828   0.303  12.269   2.783
15061W        W78829   6.410   9.158   4.229
15062W        W78830   9.825   6.800   2.235
15063W        W78831   0.334  11.639   2.406
15064W        W78832  10.771  18.585   3.853
15065W        W78833   1.762  22.215  12.511
15066W        W78834   8.167  18.099  13.992
15067W        W78835  40.512  23.643   2.338
15068W        W78836  24.037  12.227   3.863
15069W        W78837  12.283   2.854   2.824
15070W        W78838  37.087  13.331  14.477
15071W        W78839  21.699  20.722   1.316
15072W        W78840  19.726  15.588   2.417
15073W        W78841  20.763  28.010   2.183
15074W        W78842  17.797   8.319   4.766
15075W        W78843  34.401  33.972   3.747
15076W        W78844  41.880  44.921  11.594
15077W        W78845  29.661  36.369  13.336
15078W        W78846  10.707  21.132   3.281
15079W        W78847  18.150  12.626  14.458
15080W        W78848  17.698  16.647   2.401
15081W        W78849  15.638  35.544  13.011
15082W        W78850  41.031  35.069  12.078
15083W        W78851  27.457  25.188  14.846
15084W        W78852  25.564  41.989  11.889
15085W        W78853  44.833   7.734  11.109
15086W        W78854   1.353  42.926   3.267
15087W        W78855  42.486  17.128  12.925
15088W        W78856  13.285  19.056  13.523
15089W        W78857  36.928  35.528  10.928
15090W        W78858   0.854  21.559   3.825
15091W        W78859  12.117  41.965   4.342
15092W        W78860   8.727   1.358  10.594
15093W        W78861  37.952  19.057   3.214
15094W        W78862  37.542   3.950   0.424
15095W        W78863  37.582  27.178   2.247
15096W        W78864  28.616   4.899   2.805
15097W        W78865  41.474  20.094   4.345
15098W        W78866  39.971  34.540  10.483
15099W        W78867  24.185   8.691   3.866
15100W        W78868   1.454  34.398   4.688
15101W        W78869  35.025  33.099  12.414
15102W        W78870  37.491  21.525   2.283
15103W        W78871  27.185  19.172  14.416
15104W        W78872  37.904  28.046  12.344
15105W        W78873  32.951  25.528   2.815
15106W        W78874  22.606  30.629   0.844
15107W        W78875  38.039   8.214   4.189
15108W        W78876  38.836  13.270   0.481
15109W        W78877   5.876   2.811   3.355
15110W        W78878  27.948  37.990   3.797
15111W        W78879  44.814   0.450  14.853
15112W        W78880   6.831  33.950  11.087
15113W        W78881   2.461   5.396   2.320
15114W        W78882  19.660  34.446   4.677
15115W        W78883  36.862  16.677   2.685
15116W        W78884  44.761  17.297  12.061
15117W        W78885  30.999  11.797   1.226
15118W        W78886   4.802  37.926  12.446
15119W        W78887   6.283  15.704   2.787
15120W        W78888  30.636  19.240   5.146
15121W        W78889  24.660  10.705  11.926
15122W        W78890  26.043   0.900  13.903
15123W        W78891   3.278  11.822  10.899
15124W        W78892  42.796   0.333  12.515
15125W        W78893   5.862  25.117  12.864
15126W        W78894  32.535   8.663  13.978
15127W        W78895   8.191  24.635  14.484
15128W        W78896  14.618  31.615  14.331
15129W        W78897  29.481  16.151   1.360
15130W        W78898  39.511   0.381  11.446
15131W        W78899  34.600  21.678   2.706
15132W        W78900  28.559   6.823  13.050
15133W        W78901  31.063  21.741   3.248
15134W        W78902  31.041   2.898   0.906
15135W        W78903  16.111  18.209  13.366
15136W        W78904  30.976  29.598  12.949
15137W        W78905  41.415  10.725   3.370
15138W        W78906  30.625   5.294  12.424
15139W        W78907  11.317   8.324  14.468
15140W        W78908  38.513  22.504  13.800
15141W        W78909   5.419  37.373   2.334
15142W        W78910  26.560  12.792  10.987
15143W        W78911  31.079   2.812  13.483
15144W        W78912   7.319  22.520   4.775
15145W        W78913  19.590  23.225   0.739
15146W        W78914  13.346  41.913  11.975
15147W        W78915  29.623  35.594  12.040
15148W        W78916  36.552   5.843   4.653
15149W        W78917  19.610   9.209   3.803
15150W        W78918   2.247   9.358   3.350
15151W        W78919  42.887  13.195  12.506
15152W        W78920  35.409  26.473  13.853
15153W        W78921  24.071   4.777  13.923
15154W        W78922  44.311  15.763   3.775
15155W        W78923  41.475  43.862  11.974
15156W        W78924  30.598   8.288   0.411
15157W        W78925  21.024  16.570   9.993
15158W        W78926   9.647  27.500   0.447
15159W        W78927  43.970  32.527   1.250
15160W        W78928  38.922   9.354  12.022
15161W        W78929  41.852  25.219  11.538
15162W        W78930  29.440   2.457  12.495
15163W        W78931  24.672  28.003  13.311
15164W        W78932  31.004  33.894  14.474
15165W        W78933  29.506  32.556   1.442
15166W        W78934  37.958  11.190   3.338
15167W        W78935  30.437  32.129   4.334
15168W        W78936  32.920  10.677   2.387
15169W        W78937  12.856   1.356  12.829
15170W        W78938  35.975  25.145   3.687
15171W        W78939  11.841  32.628  14.970
15172W        W78940   6.812  14.619  12.876
15173W        W78941  32.425  20.668   0.409
15174W        W78942  34.898   1.896   4.621
15175W        W78943  14.239  34.459  13.393
15176W        W78944   9.218  31.405  13.470
15177W        W78945  15.214  23.992  13.896
15178W        W78946  35.494   9.835   3.799
15179W        W78947  13.613   2.268   1.359
15180W        W78948  37.037  27.621   0.930
15181W        W78949   3.946  39.544   2.754
15182W        W78950  24.567  22.236   2.409
15183W        W78951  41.906  23.098   2.327
15184W        W78952  24.087  26.656   1.774
15185W        W78953   5.724  37.973   3.261
15186W        W78954  40.436  19.664  14.953
15187W        W78955  10.147  39.487  11.992
15188W        W78956  34.532  33.902   3.334
15189W        W78957  12.696  18.598  10.987
15190W        W78958   5.851  21.750   4.316
15191W        W78959  44.964   6.872   2.188
15192W        W78960  39.877  35.902  14.828
15193W        W78961  37.453  31.999   3.806
15194W        W78962  14.784  23.137   1.714
15195W        W78963   1.369  18.640  11.048
15196W        W78964  40.444  35.915   5.094
15197W        W78965  12.120   1.461  14.514
15198W        W78966  36.542  42.810   3.691
15199W        W78967  23.511  41.009   3.717
15200W        W78968  18.766   9.879   2.355
15201W        W78969  42.953  23.549   3.865
15202W        W78970   2.413   5.358  14.937
15203W        W78971  42.969  36.002  14.798
15204W        W78972  21.744  22.539  10.624
15205W        W78973  17.714  12.661  13.909
15206W        W78974  24.631  20.679  14.004
15207W        W78975  11.314  34.886   2.762
15208W        W78976  15.815  21.613   2.252
15209W        W78977  24.512  44.346  13.399
15210W        W78978   3.719  43.872  11.504
15211W        W78979   6.257   4.409   2.670
15212W        W78980  32.575  35.557   3.660
15213W        W78981  30.600  10.712  11.126
15214W        W78982  35.001   0.472   4.601
15215W        W78983  20.647   1.955   2.683
15216W        W78984  25.169  11.682   0.326
15217W        W78985  18.692  31.420   5.738
15218W        W78986  43.995  27.061  11.422
15219W        W78987  41.501  21.625  12.494
15220W        W78988  15.778  38.013  10.610
15221W        W78989  34.566   7.327  13.407
15222W        W78990  13.123   3.223   3.767
15223W        W78991  16.145  27.988   0.315
15224W        W78992   1.440  22.569  13.416
15225W        W78993  16.204  38.500   3.208
15226W        W78994  18.733  35.006   1.701
15227W        W78995  25.030   3.342  14.007
15228W        W78996  26.692  36.003   2.789
15229W        W78997  36.958  31.939   2.882
15230W        W78998  41.007   7.688  12.441
15231W        W78999  33.920   3.861   1.924
15232W        W79000  35.574  43.454   1.365
15233W        W79001   7.810  10.330  14.930
15234W        W79002  28.949   8.785  11.857
15235W        W79003  10.306  33.457   1.861
15236W        W79004   1.917  42.017   4.821
15237W        W79005  31.525  30.014   0.298
15238W        W79006  19.042  20.045   2.307
15239W        W79007  31.018  35.972  10.415
15240W        W79008  41.013   7.351  13.539
15241W        W79009  42.478  44.419  14.328
15242W        W79010  20.621  15.259  12.865
15243W        W79011  43.487   8.292  12.428
15244W        W79012  36.009  30.978   0.803
15245W        W79013  28.008  16.797  13.467
15246W        W79014   9.756  30.472   3.652
15247W        W79015   0.844   4.837  10.513
15248W        W79016  39.392  29.116  14.434
15249W        W79017   5.326  18.095   0.245
15250W        W79018  15.806  20.769   3.304
15251W        W79019  14.129   5.892   0.460
15252W        W79020   3.890   8.399   1.703
15253W        W79021  22.663  13.147   2.744
15254W        W79022  27.611  14.212   1.225
15255W        W79023  38.539  11.326   0.743
15256W        W79024   8.722   5.318   1.846
15257W        W79025  10.157   8.257  10.958
15258W        W79026   3.346  29.972  10.455
15259W        W79027  31.568  36.038  12.571
15260W        W79028  38.942  39.951   1.696
15261W        W79029  14.113  26.193  14.998
15262W        W79030  11.856  39.952  14.884
15263W        W79031  40.898   2.820  14.782
15264W        W79032   6.819  15.214  14.328
15265W        W79033  33.942  19.046  14.340
15266W        W79034  10.826  11.737   2.871
15267W        W79035  41.478  35.511   0.446
15268W        W79036   1.732   8.844   1.363
15269W        W79037  26.145  21.245   0.814
15270W        W79038  10.284  41.921  14.826
15271W        W79039   8.226  25.205   2.855
15272W        W79040  39.010   3.860   1.775
15273W        W79041  15.597   6.726  14.388
15274W        W79042  31.560  24.016  13.325
15275W        W79043   0.945  36.441  10.889
15276W        W79044   9.671  20.556  13.359
15277W        W79045  16.716  41.332  13.884
15278W        W79046  18.206  33.980  13.471
15279W        W79047  22.079  26.618   1.710
15280W        W79048   9.879  41.845   2.809
15281W        W79049  16.140  25.705   4.600
15282W        W79050   3.878  18.599  10.417
15283W        W79051   7.269  22.157   0.329
15284W        W79052   0.954   8.838   4.151
15285W        W79053  24.048  41.484  13.533
15286W        W79054  10.203   7.305   0.955
15287W        W79055  13.237  14.142   4.204
15288W        W79056  20.660   5.365  14.505
15289W        W79057  37.418  26.165  14.938
15290W        W79058  42.916  14.649  12.563
15291W        W79059   3.386  32.512   3.697
15292W        W79060   4.701  43.814   4.159
15293W        W79061  11.291  36.567   2.731
15294W        W79062  36.550  39.350   2.687
15295W        W79063  21.523  32.442  10.561
15296W        W79064   1.750  31.134  11.594
15297W        W79065  15.600  36.029  10.120
15298W        W79066  15.213   8.806   1.397
15299W        W79067  39.414  13.161  12.502
15300W        W79068  10.264  21.020   2.290
15301W        W79069  34.543  13.251   1.448
15302W        W79070  32.572   7.313  13.964
15303W        W79071   8.364  36.948  12.542
15304W        W79072  22.114  10.246  11.032
15305W        W79073  36.087   5.836  13.960
15306W        W79074  28.642  12.312  11.092
15307W        W79075   0.981   3.461  11.457
15308W        W79076   2.324   7.905  11.053
15309W        W79077  41.945   9.886  11.574
15310W        W79078   7.400  21.547  12.389
15311W        W79079  40.847  39.436  10.594
15312W        W79080   2.738  40.982   1.795
15313W        W79081   9.299   1.313   1.849
15314W        W79082  40.813  22.642  11.900
15315W        W79083  27.099   2.290  13.422
15316W        W79084   6.313  13.288  14.315
15317W        W79085  13.702  41.933  11.989
15318W        W79086  37.895  12.199   3.712
15319W        W79087  25.100   0.924   2.845
15320W        W79088  15.166  35.430  13.452
15321W        W79089  40.500   1.445   3.221
15322W        W79090  20.655  35.558   0.730
15323W        W79091  19.238   9.798  13.886
15324W        W79092  36.967  18.782   3.717
15325W        W79093   9.826  40.862  10.602
15326W        W79094  17.798  18.728   2.664
15327W        W79095  10.765  42.989   0.778
15328W        W79096  19.704  26.503  12.072
15329W        W79097  31.030  14.323   2.392
15330W        W79098  32.901  34.054   2.903
15331W        W79099   6.217  41.870   4.264
15332W        W79100  16.783  30.117  12.020
15333W        W79101   4.838  39.357   0.268
15334W        W79102   1.370  34.368  10.599
15335W        W79103  43.937  17.156  14.791
15336W        W79104   1.456  22.039   0.448
15337W        W79105  32.968   0.971   4.657
15338W        W79106  28.015  26.545  12.919
15339W        W79107   9.839  13.764   0.810
15340W        W79108   3.387  24.526   4.626
15341W        W79109  18.214  39.012  14.837
15342W        W79110   1.833   3.224   3.661
15343W        W79111  28.463  35.411  12.389
15344W        W79112  20.210   7.798   2.717
15345W        W79113  13.721  31.529   4.216
15346W        W79114  43.816  17.706   0.828
15347W        W79115   8.761  18.675  13.398
15348W        W79116   7.777  39.393  14.296
15349W        W79117  15.647   0.890  13.475
15350W        W79118  20.162  13.262   4.178
15351W        W79119  26.070   8.404  12.530
15352W        W79120  38.071   2.940  14.373
15353W        W79121  23.515   8.178  10.977
15354W        W79122  11.284  12.813   5.786
15355W        W79123   8.840  27.486  14.469
15356W        W79124   5.306   2.909   1.734
15357W        W79125  25.708  42.801   0.474
15358W        W79126  19.574  26.983   0.332
15359W        W79127   5.208   1.252  12.088
15360W        W79128  34.569  29.093  12.024
15361W        W79129   2.886  24.042   3.326
15362W        W79130  10.723  23.137   1.362
15363W        W79131  23.572  11.698   2.746
15364W        W79132   8.316  43.971  14.417
15365W        W79133   9.863  11.753   2.413
15366W        W79134   8.186  14.286  14.407
15367W        W79135  12.198   8.767   1.310
15368W        W79136  26.998   7.883   0.462
15369W        W79137  41.005  24.623   3.691
15370W        W79138  43.430  32.522   0.935
15371W        W79139  30.633  33.088  11.481
15372W        W79140  30.419  31.974   4.634
15373W        W79141  19.758  21.108   2.336
15374W        W79142  37.462  13.243  12.824
15375W        W79143  27.559  33.603   1.229
15376W        W79144  23.598  27.466  12.870
15377W        W79145   9.643  19.280  10.588
15378W        W79146   5.804   2.419  12.833
15379W        W79147  17.580  11.649   2.352
15380W        W79148  43.422   1.435   0.275
15381W        W79149  14.710   5.388   4.759
15382W        W79150  16.105  36.000  14.490
15383W        W79151   4.417  19.760   3.152
15384W        W79152  23.073   4.283   1.866
15385W        W79153   0.352  30.093  14.827
15386W        W79154  10.266   1.801   2.756
15387W        W79155  28.629  35.071   9.550
15388W        W79156  39.385  33.566  13.968
15389W        W79157  29.595  28.461   2.850
15390W        W79158  30.148  26.461  14.955
15391W        W79159  24.004  13.733  11.988
15392W        W79160   4.376  32.918   3.356
15393W        W79161  13.765  37.933  12.930
15394W        W79162  42.010  27.676   0.932
15395W        W79163  12.854  14.615   5.242
15396W        W79164  19.673  31.511   3.748
15397W        W79165  15.723  23.594   0.853
15398W        W79166   7.192  32.415   3.647
15399W        W79167  36.892  15.618   2.215
15400W        W79168  19.652   9.689  13.451
15401W        W79169  38.505  22.130  12.378
15402W        W79170   6.699   6.776   2.366
15403W        W79171  38.554  40.868   0.391
15404W        W79172  35.018  20.258  11.487
15405W        W79173   2.848  37.445   3.651
15406W        W79174  36.980  21.247   4.137
15407W        W79175  28.490  39.059   2.302
15408W        W79176   3.349  19.069   3.820
15409W        W79177   1.855  34.523   5.640
15410W        W79178  13.737  12.267   0.950
15411W        W79179  42.025  19.212   3.146
15412W        W79180  34.086  28.094  10.510
15413W        W79181  42.472  29.038   3.745
15414W        W79182  35.984  17.756  13.404
15415W        W79183  41.808  28.542   0.371
15416W        W79184   2.295  44.840   2.381
15417W        W79185  10.800  30.418   2.208
15418W        W79186   5.799  39.517  13.810
15419W        W79187  19.197  13.323  13.992
15420W        W79188   9.728  28.469  13.919
15421W        W79189  13.125  15.600  11.944
15422W        W79190  41.793   2.845   2.400
15423W        W79191  31.999  19.218  10.151
15424W        W79192   0.420  12.817   2.887
15425W        W79193  18.717  39.325  11.947
15426W        W79194  25.102  15.275  13.366
15427W        W79195  34.964   6.920   0.867
15428W        W79196  33.905  21.031  14.933
15429W        W79197  19.244  33.459  11.991
15430W        W79198  41.966  42.439  12.546
15431W        W79199  35.359   5.932   1.912
15432W        W79200   4.386  31.084  14.293
15433W        W79201  18.242  23.057  13.828
15434W        W79202  43.768  42.032  11.432
15435W        W79203  21.113  25.216   4.622
15436W        W79204  14.737  36.994   4.683
15437W        W79205  16.679  30.533   0.381
15438W        W79206   2.891   7.380  11.510
15439W        W79207   3.267   9.342   2.258
15440W        W79208  22.087  40.849   3.340
15441W        W79209  26.962  35.580  14.493
15442W        W79210   1.900   6.276  14.512
15443W        W79211   0.328  35.877  13.525
15444W        W79212  33.928  26.634  10.552
15445W        W79213  39.036  36.528   5.321
15446W        W79214  41.924  26.681   1.221
15447W        W79215  32.492  21.088   9.944
15448W        W79216  36.379  13.654   0.877
15449W        W79217  23.648  34.024   0.846
15450W        W79218  44.489  13.768   3.681
15451W        W79219  38.537  30.009   4.246
15452W        W79220  19.168   4.896  13.031
15453W        W79221  26.049  41.832   3.728
15454W        W79222  32.897  31.024  14.783
15455W        W79223  19.087  14.162   0.312
15456W        W79224  29.600  16.768  10.972
15457W        W79225  38.433  44.853   3.325
15458W        W79226  23.704  16.138  14.941
15459W        W79227  12.231   5.425  12.370
15460W        W79228  12.780  16.284   2.301
15461W        W79229  23.116  30.032   1.709
15462W        W79230  19.559  44.339  12.389
15463W        W79231  15.606  41.961  12.859
15464W        W79232  22.513  11.343   9.998
15465W        W79233   4.332  24.504  13.441
15466W        W79234  14.103  23.586   4.240
15467W        W79235  44.397  25.994   4.162
15468W        W79236  26.504  38.875   3.171
15469W        W79237   9.877  40.498   3.329
15470W        W79238  21.562  18.652   2.794
15471W        W79239   9.661  41.511   3.379
15472W        W79240  36.517   3.426   9.957
15473W        W79241  38.926  43.351   3.181
15474W        W79242   2.470  42.429  13.384
15475W        W79243  41.301  39.367   3.359
15476W        W79244  26.190  39.045  11.005
15477W        W79245  18.609  17.152  10.042
15478W        W79246  22.577  29.149  14.788
15479W        W79247  19.189  30.907  11.953
15480W        W79248  31.642  42.875   3.728
15481W        W79249  35.421  10.292  11.577
15482W        W79250  17.576  27.142   2.229
15483W        W79251  29.006  44.411   4.121
15484W        W79252  33.590  39.934   2.337
15485W        W79253   5.907  43.851   1.715
15486W        W79254  14.620  16.611  11.429
15487W        W79255  34.113  19.113  11.031
15488W        W79256   1.943  31.405   1.933
15489W        W79257  17.749  42.336   3.736
15490W        W79258  30.054   9.316  13.351
15491W        W79259   3.904  30.495  13.391
15492W        W79260  31.419  25.659   1.733
15493W        W79261   0.971  44.466   9.964
15494W        W79262   4.897  35.020   0.887
15495W        W79263  26.542  13.757  13.516
15496W        W79264  32.568  23.699   2.721
15497W        W79265  11.154  39.338  13.945
15498W        W79266  35.377   3.272   3.855
15499W        W79267  36.917  43.509   2.838
15500W        W79268  29.670  41.968   4.815
15501W        W79269  11.707  15.254   2.241
15502W        W79270   5.811  12.154   3.356
15503W        W79271  32.959  18.748  12.887
15504W        W79272  27.494  20.146   0.933
15505W        W79273  44.964  33.925  11.537
15506W        W79274  16.281  33.014   1.757
15507W        W79275  17.761  42.806   4.354
15508W        W79276  38.497  38.394   4.645
15509W        W79277  15.276  13.836  10.893
15510W        W79278   2.401  40.947  13.868
15511W        W79279  26.055   7.678   4.129
15512W        W79280  26.089  37.979   0.401
15513W        W79281   9.204  19.101  13.819
15514W        W79282  28.592  17.798   4.345
15515W        W79283  41.945   9.251   1.449
15516W        W79284  24.097  13.709  12.418
15517W        W79285  30.119   6.679  14.795
15518W        W79286  31.945  27.999  13.368
15519W        W79287   2.468  12.169   3.312
15520W        W79288   9.259  35.029  11.908
15521W        W79289   1.772  37.885   4.146
15522W        W79290   9.838  29.445  13.308
15523W        W79291  42.312  30.986   0.384
15524W        W79292   5.851  19.771  10.570
15525W        W79293  23.148  32.581  10.418
15526W        W79294   0.753  33.441  14.975
15527W        W79295   4.229   8.812  11.531
15528W        W79296  41.794  32.509  13.000
15529W        W79297  10.811   4.222   3.343
15530W        W79298  34.552  21.085   2.845
15531W        W79299  42.997   2.444  12.856
15532W        W79300   4.870  28.465  14.434
15533W        W79301  17.168   3.730   1.886
15534W        W79302  44.425  28.655  14.451
15535W        W79303  19.715   3.839  11.881
15536W        W79304  21.211  23.984   1.332
15537W        W79305  16.738  30.090  10.639
15538W        W79306  28.960  27.140  12.942
15539W        W79307  19.222  44.394   3.244
15540W        W79308  32.903  24.997   1.330
15541W        W79309   9.734  38.873   1.397
15542W        W79310  16.802   7.793   1.326
15543W        W79311  44.465  37.980  11.129
15544W        W79312   1.799   0.978   0.812
15545W        W79313  20.199  25.202   0.854
15546W        W79314  36.355  31.029  13.822
15547W        W79315   6.877  23.162  10.453
15548W        W79316  36.517  16.238  12.343
15549W        W79317   1.395  27.002  14.817
15550W        W79318  22.624  39.006  12.536
15551W        W79319  30.055  16.222  12.092
15552W        W79320  37.965  13.172   1.245
15553W        W79321  39.420  28.948   1.775
15554W        W79322  16.572  16.717  12.873
15555W        W79323   0.880  44.304   0.949
15556W        W79324  13.707  16.158   9.606
15557W        W79325   5.824  21.222   4.207
15558W        W79326  32.476  34.043   0.296
15559W        W79327  40.367   4.790   1.785
15560W        W79328  15.821  27.111  12.369
15561W        W79329  15.803  16.213  13.328
15562W        W79330  21.224  39.904  12.440
15563W        W79331  12.729   5.902  11.438
15564W        W79332  43.872  38.965   1.845
15565W        W79333  23.584  22.199   2.661
15566W        W79334  29.962  23.654   2.852
15567W        W79335   0.804   7.704   0.451
15568W        W79336  23.556  13.271   1.344
15569W        W79337  41.958  35.529   2.267
15570W        W79338  35.456  23.163   2.344
15571W        W79339  16.787   1.761  10.536
15572W        W79340  32.400  26.177  14.823
15573W        W79341   2.294  22.166  10.436
15574W        W79342  10.762  17.093   2.369
15575W        W79343  20.237  40.465   1.307
15576W        W79344   5.403   8.875   1.705
15577W        W79345  38.043  44.978  11.095
15578W        W79346  24.034  43.916  13.808
15579W        W79347  33.567  37.055   3.650
15580W        W79348  30.969   6.691   4.749
15581W        W79349  24.651   0.960   2.672
15582W        W79350  24.646  34.117  13.794
15583W        W79351   3.818  27.168  11.426
15584W        W79352   1.976  22.635   2.865
15585W        W79353  35.974  42.795   2.245
15586W        W79354  28.493  17.285  10.026
15587W        W79355  43.009  10.289   3.668
15588W        W79356  41.372   7.894   0.247
15589W        W79357  39.975   9.841   4.221
15590W        W79358  26.100   5.898   0.733
15591W        W79359  24.994  36.385  12.378
15592W        W79360  32.401  40.536   3.253
15593W        W79361  12.188  25.124  11.013
15594W        W79362  35.407  38.473  13.513
15595W        W79363  34.441  40.904  13.512
15596W        W79364  21.725  38.863  14.817
15597W        W79365  35.063   5.717   1.389
15598W        W79366  21.731  25.979  13.349
15599W        W79367  35.909  18.779   2.335
15600W        W79368  27.046  15.605  12.413
15601W        W79369  32.604   3.409  13.064
15602W        W79370  20.205  15.308   3.208
15603W        W79371  22.610   7.854  11.127
15604W        W79372  21.170  33.556  12.449
15605W        W79373  28.934  28.594   2.695
15606W        W79374   9.216   3.881  12.393
15607W        W79375  34.050  39.034   2.354
15608W        W79376   3.904  39.912   4.709
15609W        W79377  27.471  15.689   3.780
15610W        W79378  15.725  26.127   3.772
15611W        W79379  40.464  36.949  10.490
15612W        W79380   4.775  44.495   4.144
15613W        W79381  30.966   5.756  12.508
15614W        W79382  17.622   8.829   3.828
15615W        W79383   6.828  17.687  10.966
15616W        W79384  25.129  33.987  14.959
15617W        W79385  18.190   8.822   4.155
15618W        W79386  31.045  14.140  11.402
15619W        W79387   8.654  32.123   5.235
15620W        W79388   2.336  13.775  14.435
15621W        W79389   8.883  11.370  13.536
15622W        W79390  25.179  14.759   1.371
15623W        W79391  27.019  44.275   2.892
15624W        W79392  36.905  23.119  11.382
15625W        W79393  27.004  24.523   2.710
15626W        W79394  40.873  30.961   4.670
15627W        W79395  21.256   2.763  11.599
15628W        W79396  35.423  17.070   0.287
15629W        W79397  13.665  39.428   1.811
15630W        W79398   0.315  36.379   1.371
15631W        W79399  43.400  26.568  10.007
15632W        W79400   1.480  10.710   4.786
15633W        W79401  30.648  33.987   4.601
15634W        W79402  31.493  43.003   0.434
15635W        W79403  19.071  10.795   3.715
15636W        W79404  35.512   9.804   2.202
15637W        W79405  25.046  37.576  14.836
15638W        W79406  10.763  32.913   3.250
15639W        W79407  37.045  10.207  10.014
15640W        W79408  39.353  34.470  12.073
15641W        W79409  42.862  14.273  11.112
15642W        W79410  36.987   3.313  12.949
15643W        W79411  31.407  24.694   1.435
15644W        W79412  37.479   7.239  11.054
15645W        W79413  41.421  10.200   3.233
15646W        W79414   2.720  42.485   4.239
15647W        W79415  36.420  40.854  13.470
15648W        W79416   7.378  44.479   3.738
15649W        W79417  40.427   3.434  12.375
15650W        W79418  32.610   0.334   2.746
15651W        W79419  20.664  32.950   0.370
15652W        W79420  36.077  37.451  12.477
15653W        W79421  41.969  20.094  14.760
15654W        W79422   5.403  36.858   5.142
15655W        W79423  18.620  17.087  13.447
15656W        W79424  42.441  15.616  13.515
15657W        W79425  21.063  32.432   3.654
15658W        W79426  31.141  37.430  14.377
15659W        W79427  10.750   0.844   4.165
15660W        W79428  39.451  22.030   2.324
15661W        W79429  27.025  37.995  13.494
15662W        W79430  39.452   5.736  14.920
15663W        W79431  37.566  11.694  14.961
15664W        W79432  25.130  36.969  13.819
15665W        W79433  20.568  26.507   0.298
15666W        W79434   2.784  17.561   3.307
15667W        W79435  19.636  35.443  12.057
15668W        W79436   4.788  21.524   1.854
15669W        W79437   2.935  24.138   2.191
15670W        W79438   8.716  41.958   1.783
15671W        W79439  34.995  22.734  14.340
15672W        W79440  12.194   4.378  10.909
15673W        W79441  41.839  30.443   3.190
15674W        W79442   6.722  20.248  14.360
15675W        W79443  19.105  26.986  10.927
15676W        W79444  36.065  43.444  13.439
15677W        W79445   9.255  30.652  11.384
15678W        W79446   8.230  18.134  13.525
15679W        W79447  33.098  36.885   1.216
15680W        W79448   4.426  39.395  14.459
15681W        W79449   6.245   1.815   0.869
15682W        W79450  39.824   8.713   4.182
15683W        W79451   2.262  34.556  14.776
15684W        W79452  37.993  24.675   4.273
15685W        W79453   1.799  31.125   0.394
15686W        W79454   6.722  31.040  14.484
15687W        W79455  20.761  42.514  14.937
15688W        W79456   8.744  30.650   0.281
15689W        W79457  12.746  43.807   1.375
15690W        W79458  22.712  24.102   9.987
15691W        W79459  31.628  39.944  10.595
15692W        W79460  24.623  13.154   1.345
15693W        W79461  16.227  15.762  10.035
15694W        W79462  31.100  32.463   1.746
15695W        W79463   3.938  21.690  14.815
15696W        W79464  13.782  40.954  13.857
15697W        W79465  32.619  41.467  13.878
15698W        W79466  27.944  38.925   0.861
15699W        W79467  31.585  21.091  13.404
15700W        W79468   8.695   4.884   3.838
15701W        W79469  40.489   2.831   4.224
15702W        W79470  27.554  33.580   1.726
15703W        W79471  15.264   9.335  11.431
15704W        W79472  44.848  35.956   4.344
15705W        W79473  19.225  27.020   4.746
15706W        W79474  41.459   3.909   0.400
15707W        W79475  32.935  34.601  14.910
15708W        W79476  42.004  33.440   5.106
15709W        W79477  30.428  17.577  12.885
15710W        W79478   6.272   1.261   3.261
15711W        W79479  37.462  43.938   0.460
15712W        W79480  33.932  30.064   4.246
15713W        W79481   9.242  31.109   4.244
15714W        W79482  29.588   4.820   3.219
15715W        W79483   0.459  35.504  13.891
15716W        W79484  25.541   1.802  14.331
15717W        W79485  10.305   6.234   5.244
15718W        W79486  28.653  14.096   1.220
15719W        W79487   7.878  17.618   0.353
15720W        W79488  15.708   4.867   2.856
15721W        W79489   5.266  27.191   0.382
15722W        W79490  23.037  20.097  11.949
15723W        W79491   3.892   7.874  12.031
15724W        W79492  37.079  40.363  13.535
15725W        W79493  22.137   3.221  12.459
15726W        W79494  44.395   5.709  12.839
15727W        W79495  28.623  18.718  12.930
15728W        W79496   3.269  42.442   3.199
15729W        W79497  15.110  43.866  12.428
15730W        W79498   5.408  29.169   3.336
15731W        W79499  18.231  33.105  12.937
15732W        W79500  27.616  32.123  13.803
15733W        W79501  39.818   5.892   2.772
15734W        W79502  29.087  11.325   3.747
15735W        W79503  21.243  37.971   2.261
15736W        W79504   6.331  16.096  10.543
15737W        W79505  24.635   3.262   0.783
15738W        W79506  18.296   3.366   3.340
15739W        W79507  21.076   5.801   1.295
15740W        W79508  43.922  38.827   0.844
15741W        W79509  31.645  35.927  10.466
15742W        W79510  21.547  38.364   2.189
15743W        W79511   9.211   2.391  11.900
15744W        W79512  12.799   6.306   2.751
15745W        W79513  42.408  27.072  13.833
15746W        W79514  13.682  17.678   3.815
15747W        W79515  37.374   6.332   5.220
15748W        W79516   2.340  37.487  10.567
15749W        W79517  19.040   5.381  11.565
15750W        W79518  23.498   1.763  13.905
15751W        W79519  43.868  42.366   1.222
15752W        W79520  22.622  33.553  14.310
15753W        W79521  37.513   9.334   5.625
15754W        W79522  18.696  23.566  11.877
15755W        W79523  43.785  38.941   0.446
15756W        W79524  26.104  12.769   3.153
15757W        W79525  19.661   0.284  14.812
15758W        W79526  24.716   4.792   3.731
15759W        W79527  20.534   0.874  14.366
15760W        W79528  22.589  11.625   2.192
15761W        W79529   0.363  25.520  14.297
15762W        W79530   1.381  44.347  10.068
15763W        W79531  24.149  16.285  10.548
15764W        W79532  15.170  40.831  10.591
15765W        W79533  11.328  13.617   3.751
15766W        W79534   7.667  39.438   0.473
15767W        W79535  16.686  34.882  10.574
15768W        W79536  34.888  13.827  11.523
15769W        W79537  28.672  13.328   3.662
15770W        W79538  12.694  25.603   2.328
15771W        W79539   2.897   4.855  13.484
15772W        W79540   3.412  26.644   4.269
15773W        W79541   6.418  34.962  13.944
15774W        W79542   4.919  41.510   0.864
15775W        W79543  28.600   8.717   2.213
15776W        W79544   3.296  30.043  11.520
15777W        W79545  26.109  17.120   2.344
15778W        W79546  26.646  12.192   1.730
15779W        W79547   4.711  17.581   9.965
15780W        W79548  19.557  18.697   2.269
15781W        W79549  20.264  35.604  14.996
15782W        W79550   2.801  33.579   3.360
15783W        W79551  27.631  42.947   3.341
15784W        W79552   6.224  20.544  12.488
15785W        W79553  13.272   2.421  10.974
15786W        W79554  41.419  11.679   4.204
15787W        W79555  22.207  24.060  12.557
15788W        W79556  23.074  39.967  11.042
15789W        W79557  27.951   6.900   2.242
15790W        W79558  13.246  17.090  14.985
15791W        W79559  10.318  33.399  10.628
15792W        W79560  16.090   9.387   0.260
15793W        W79561  13.252  33.983   0.341
15794W        W79562  25.622  13.754   3.325
15795W        W79563  35.437  40.958   0.739
15796W        W79564  10.775   2.784   3.252
15797W        W79565  22.725  21.577   2.700
15798W        W79566  38.909  42.367  14.827
15799W        W79567   3.863  42.946  10.899
15800W        W79568  19.165  33.959  10.932
15801W        W79569   5.874  33.584   0.788
15802W        W79570  19.684   3.255   4.137
15803W        W79571  17.591  28.605  13.443
15804W        W79572  42.401   0.965   1.227
15805W        W79573  15.685  34.075   2.898
15806W        W79574  31.421  42.489   3.794
15807W        W79575  24.186  23.990   5.095
15808W        W79576  12.247  38.833   3.678
15809W        W79577  29.536   9.869  10.415
15810W        W79578  13.765  33.614  11.581
15811W        W79579  14.232  17.264   0.307
15812W        W79580  23.692  16.650  12.339
15813W        W79581  39.371  11.725  14.377
15814W        W79582  41.491  39.317  11.016
15815W        W79583  40.812  13.675   1.446
15816W        W79584  23.653  40.929  12.402
15817W        W79585  32.030  11.631  11.411
15818W        W79586  19.281  13.223  12.959
15819W        W79587   0.277  44.499   0.903
15820W        W79588  43.480  27.176   4.145
15821W        W79589  16.128   8.284   3.683
15822W        W79590  16.212  24.034  11.023
15823W        W79591  43.406  19.117  10.556
15824W        W79592   5.347   9.310  11.484
15825W        W79593  31.979  27.633  14.853
15826W        W79594  28.997  32.462   1.357
15827W        W79595  40.458  29.546  10.910
15828W        W79596  28.022  22.610  14.012
15829W        W79597  29.662  24.581   1.734
15830W        W79598  31.096  42.021  12.361
15831W        W79599  42.313  30.490   1.866
15832W        W79600  24.046   1.910   5.197
15833W        W79601  18.757  44.412  14.772
15834W        W79602   9.195   5.334  13.891
15835W        W79603  31.130   1.801   3.785
15836W        W79604   7.846  30.116   4.162
15837W        W79605  32.637  15.668   4.713
15838W        W79606  34.559   9.724   0.749
15839W        W79607  12.140  26.112   3.650
15840W        W79608   7.709  42.414   0.276
15841W        W79609  16.213   9.885  12.417
15842W        W79610   1.862   3.771   3.182
15843W        W79611  12.705  20.128   4.326
15844W        W79612  36.568  18.150   2.257
15845W        W79613   0.416  43.485   3.722
15846W        W79614  31.027   4.379   4.654
15847W        W79615  30.585   2.941   4.209
15848W        W79616  12.216  21.735   2.846
15849W        W79617  42.379  36.450   0.313
15850W        W79618  14.636  21.161   4.814
15851W        W79619  14.127  15.197  14.515
15852W        W79620  19.146  39.037  14.308
15853W        W79621  37.558  41.865   1.210
15854W        W79622   7.416  41.481   0.758
15855W        W79623  32.631  14.702   4.824
15856W        W79624  26.668  10.705   0.410
15857W        W79625  36.498  39.395  12.551
15858W        W79626  10.285   4.865   5.250
15859W        W79627  20.768   4.311   1.410
15860W        W79628  28.661  36.033   0.270
15861W        W79629  25.151   7.700   0.775
15862W        W79630  35.855  37.474   0.394
15863W        W79631  24.105  41.401   4.275
15864W        W79632  36.014   4.819  13.793
15865W        W79633  17.662  28.517   2.364
15866W        W79634  19.077   3.804  12.015
15867W        W79635  34.373  37.988  12.881
15868W        W79636  23.684   1.483  12.558
15869W        W79637  17.090   8.298  14.307
15870W        W79638  33.551  32.121  11.415
15871W        W79639  26.982  17.240  10.082
15872W        W79640  28.474  41.003  13.831
15873W        W79641  38.861  13.653  14.958
15874W        W79642  39.380  38.503  14.876
15875W        W79643  14.663  14.790  13.352
15876W        W79644  21.670  42.880  11.482
15877W        W79645  21.514   2.401  12.548
15878W        W79646  19.049  28.054   1.425
15879W        W79647   4.708  42.889  13.995
15880W        W79648  11.647  31.584   2.401
15881W        W79649  41.877  23.202   1.716
15882W        W79650   8.343  20.040  12.497
15883W        W79651  21.594   1.306  11.082
15884W        W79652  20.166  22.582   0.260
15885W        W79653  42.806  38.975   1.703
15886W        W79654  11.189  16.703   2.383
15887W        W79655  20.669  37.029   0.778
15888W        W79656  23.582  31.942  14.288
15889W        W79657   7.415  11.175   1.912
15890W        W79658  36.883  43.009  14.879
15891W        W79659  41.034  35.462  11.861
15892W        W79660  33.470  36.904  13.047
15893W        W79661  29.428  32.056  12.834
15894W        W79662  25.059  25.704   0.424
15895W        W79663  24.191  43.288  12.525
15896W        W79664  33.597  10.761   4.742
15897W        W79665  30.431  22.562  12.533
15898W        W79666   6.257  17.768   2.323
15899W        W79667  28.541  38.495   4.354
15900W        W79668   0.494  10.147   2.723
15901W        W79669  25.110   2.862  14.369
15902W        W79670  12.706  27.039   4.789
15903W        W79671  18.657  33.029   1.448
15904W        W79672  35.858  13.171   4.121
15905W        W79673  32.583  30.108   3.161
15906W        W79674  27.102   5.827   3.380
15907W        W79675  29.587   5.392   2.241
15908W        W79676  21.233  22.612  11.899
15909W        W79677  28.013  24.197  12.548
15910W        W79678  25.542   6.239   3.225
15911W        W79679  41.482   9.664  11.890
15912W        W79680  16.259  42.440   0.407
15913W        W79681  33.897  16.206  10.127
15914W        W79682  16.149  33.914   2.874
15915W        W79683   8.737   1.475  11.470
15916W        W79684  16.708   1.735  13.373
15917W        W79685  30.115  26.960  14.361
15918W        W79686  17.073   7.331   4.293
15919W        W79687  29.643  13.193   4.136
15920W        W79688  30.598   7.892  11.968
15921W        W79689  39.832  34.462   2.267
15922W        W79690  38.824  43.411   2.788
15923W        W79691  44.875  44.353   1.760
15924W        W79692  15.823  44.476  14.987
15925W        W79693  33.618  19.595  10.127
15926W        W79694  37.468   6.732   0.372
15927W        W79695  36.893  11.839   0.260
15928W        W79696  34.097   8.845   3.779
15929W        W79697   9.834  42.026  10.945
15930W        W79698  18.580  24.982   0.938
15931W        W79699  20.602  16.655  14.002
15932W        W79700  38.482   6.326   0.254
15933W        W79701  42.317  36.512  12.049
15934W        W79702  16.221  10.766  13.334
15935W        W79703   9.209  16.726  14.768
15936W        W79704  30.506  28.605  14.276
15937W        W79705  34.115  39.907  14.928
15938W        W79706   7.339   5.812  11.937
15939W        W79707   7.205  20.620  14.327
15940W        W79708   7.259  11.750  11.523
15941W        W79709  36.880  35.557  13.437
15942W        W79710  32.426   8.223   0.864
15943W        W79711  20.062  17.224  11.988
15944W        W79712   5.292  36.490   0.376
15945W        W79713   9.718  39.955   1.310
15946W        W79714  31.979   4.924   2.691
15947W        W79715  38.044  23.617   4.297
15948W        W79716  26.599  32.091   4.790
15949W        W79717  23.201   2.880  13.484
15950W        W79718  33.573   7.372  13.945
15951W        W79719   6.871  40.860   3.267
15952W        W79720  44.885   2.451  14.960
15953W        W79721   3.755  24.003  12.529
15954W        W79722  34.394  12.214   0.316
15955W        W79723  33.942  24.098   4.679
15956W        W79724   5.906  21.082   2.877
15957W        W79725  14.715   9.349  14.812
15958W        W79726  14.254  11.196   3.842
15959W        W79727  18.639  43.296  10.474
15960W        W79728  15.592   2.773   1.896
15961W        W79729   9.200  28.027  13.500
15962W        W79730  15.684  12.164   1.421
15963W        W79731  44.284  23.498  14.811
15964W        W79732   2.451   7.221  14.795
15965W        W79733  16.710  24.667  13.942
15966W        W79734   5.810  17.619  11.408
15967W        W79735  16.779   5.344   0.427
15968W        W79736  33.932  10.864  14.017
15969W        W79737  31.633  31.025  14.009
15970W        W79738   0.248  42.805   3.849
15971W        W79739  20.568  34.887   1.836
15972W        W79740  23.562  28.586   0.420
15973W        W79741  38.562  14.651  10.540
15974W        W79742  22.011  28.085  12.495
15975W        W79743  23.163  11.155   5.265
15976W        W79744   1.430  38.046   1.805
15977W        W79745   7.762  44.965  11.943
15978W        W79746  14.807  15.237  11.034
15979W        W79747   0.806  10.250   2.786
15980W        W79748  24.685  14.211   3.649
15981W        W79749  20.189   6.335   4.680
15982W        W79750  42.331  19.103   0.272
15983W        W79751  13.687  23.530  13.371
15984W        W79752  37.507  38.009  13.841
15985W        W79753  37.562   5.878  13.384
15986W        W79754  20.640  18.761  11.918
15987W        W79755  16.715  35.402   5.271
15988W        W79756  38.074   5.423  13.535
15989W        W79757   8.725   2.235  10.895
15990W        W79758   9.158  27.145  12.454
15991W        W79759  16.689  30.057  14.329
15992W        W79760  31.504  34.551  14.285
15993W        W79761  31.036  14.672  13.009
15994W        W79762   4.884  20.209  14.862
15995W        W79763   4.757  19.040   1.906
15996W        W79764  40.447  33.499  10.908
15997W        W79765  21.250  39.017  10.983
15998W        W79766  33.440  16.662   1.927
15999W        W79767  39.498  43.410   1.229
16000W        W79768   4.213  25.473   4.121
16001W        W79769   2.786  23.115  11.056
16002W        W79770  24.618  41.488  12.012
16003W        W79771  37.833  19.709   4.692
16004W        W79772  17.191  42.479   4.177
16005W        W79773   5.805   1.903  12.093
16006W        W79774  42.813  38.996  10.642
16007W        W79775  33.534  42.006   4.625
16008W        W79776  19.164  10.817  13.345
16009W        W79777   7.344   2.813   2.686
16010W        W79778  42.800  10.758   4.205
16011W        W79779  28.440   9.277  13.345
16012W        W79780  43.390   3.388  14.473
16013W        W79781  14.788  37.931  13.411
16014W        W79782  26.156  29.145  10.553
16015W        W79783  38.341  10.177   3.776
16016W        W79784   9.684  13.841  10.488
16017W        W79785  12.826  14.275   3.164
16018W        W79786  21.557  27.574   4.220
16019W        W79787   6.778  37.376  11.600
16020W        W79788  37.393  42.360   4.191
16021W        W79789  38.497  18.220   3.228
16022W        W79790   7.364  13.670  14.896
16023W        W79791  24.115  18.090   0.347
16024W        W79792  31.457  34.943   1.827
16025W        W79793  40.028  43.896   2.204
16026W        W79794  19.065  37.402  10.600
16027W        W79795  41.927   0.759  13.888
16028W        W79796  32.029  19.707  10.537
16029W        W79797  33.473  23.150   3.194
16030W        W79798  33.608  20.529   1.912
16031W        W79799  39.322  37.476   3.148
16032W        W79800  11.151  38.973   2.873
16033W        W79801  29.437  26.201   2.707
16034W        W79802  43.840   3.243   1.288
16035W        W79803   7.361   7.697  11.087
16036W        W79804  43.773  37.578   0.855
16037W        W79805   5.928   3.839  14.802
16038W        W79806  15.131   4.206   1.918
16039W        W79807  23.728  27.116   3.344
16040W        W79808  42.493  28.106  14.889
16041W        W79809  22.707  22.644   2.181
16042W        W79810  38.465  32.628   3.782
16043W        W79811  31.900  33.534  11.041
16044W        W79812  20.156   9.747  11.512
16045W        W79813   9.352  31.590  11.865
16046W        W79814  36.508  12.798   0.780
16047W        W79815   6.744  28.107  14.456
16048W        W79816  42.488   6.376   1.727
16049W        W79817  41.907  21.119  12.999
16050W        W79818  35.519  16.252  13.469
16051W        W79819  10.767  24.163  10.939
16052W        W79820   7.786  21.541   4.234
16053W        W79821  14.808  25.066  11.473
16054W        W79822  29.160  38.552   4.678
16055W        W79823  29.091  12.820   3.710
16056W        W79824  27.071  36.843  14.894
16057W        W79825  30.909  20.158  12.938
16058W        W79826  43.824  33.402  10.113
16059W        W79827   6.187  39.506  14.933
16060W        W79828   0.410  37.521   0.881
16061W        W79829  26.017   5.357  11.498
16062W        W79830  33.999  43.794  14.313
16063W        W79831  29.171   6.401   2.848
16064W        W79832   9.330  34.454   2.766
16065W        W79833  20.689  27.943  14.510
16066W        W79834  28.061  27.675   0.271
16067W        W79835  29.605  39.434  11.868
16068W        W79836  27.987  26.184   4.346
16069W        W79837  41.044  40.030  13.480
16070W        W79838  22.519  22.610   4.334
16071W        W79839   4.273  17.136   4.712
16072W        W79840  43.799  10.676   4.819
16073W        W79841  29.057  24.004  10.552
16074W        W79842   3.823  24.491  10.887
16075W        W79843  28.480   5.344  13.403
16076W        W79844  10.817  34.405   3.799
16077W        W79845   5.413  39.964  11.900
16078W        W79846  13.608  12.771  13.468
16079W        W79847  23.123   8.781  12.893
16080W        W79848  24.574   8.819  10.987
16081W        W79849  13.663  17.713  14.833
16082W        W79850  20.210  17.616  14.902
16083W        W79851  43.967  10.737   0.468
16084W        W79852  20.594  10.635  10.897
16085W        W79853  31.978  13.117   0.385
16086W        W79854  34.614  36.081  12.009
16087W        W79855  15.238  12.157  13.333
16088W        W79856   5.283   8.221  12.340
16089W        W79857   1.915   3.836  12.562
16090W        W79858  39.328  35.439  12.546
16091W        W79859  41.964  33.514  13.822
16092W        W79860  41.036  13.277   3.664
16093W        W79861  40.395  13.672  12.869
16094W        W79862  44.820  10.172   4.627
16095W        W79863  22.057  42.380  12.053
16096W        W79864  38.388  14.813  14.514
16097W        W79865   2.761  31.006   1.267
16098W        W79866   3.894  16.628   2.337
16099W        W79867  11.127  19.624  10.964
16100W        W79868  32.561  44.987  11.076
16101W        W79869  20.199  32.392  11.030
16102W        W79870   0.758  40.414   1.716
16103W        W79871  36.593  18.578   2.255
16104W        W79872   3.729   7.846  11.075
16105W        W79873  22.113   3.405   3.203
16106W        W79874  20.702  31.005  13.013
16107W        W79875  25.172  11.842  13.906
16108W        W79876   4.810  42.501  13.453
16109W        W79877   8.693   1.823   0.345
16110W        W79878   3.832  28.162  10.158
16111W        W79879  13.779  43.798   1.378
16112W        W79880  30.072  42.475  11.897
16113W        W79881  37.990  36.504   4.298
16114W        W79882  30.036   9.222   1.311
16115W        W79883   7.215  17.251  13.879
16116W        W79884  34.476  23.101   2.266
16117W        W79885  11.295   6.365   3.194
16118W        W79886  40.829  15.599  12.020
16119W        W79887   1.752  18.061  13.859
16120W        W79888  37.964  30.655  14.383
16121W        W79889  42.377  20.223  10.891
16122W        W79890  14.779  39.988  11.541
16123W        W79891  20.527  18.173  12.036
16124W        W79892  35.047  38.893   0.261
16125W        W79893  38.326  39.377  10.915
16126W        W79894  31.004  33.041  10.428
16127W        W79895   5.279  12.126   0.955
16128W        W79896  39.499  17.160  10.098
16129W        W79897  38.356   1.255  14.356
16130W        W79898  18.231  10.758   2.204
16131W        W79899  24.203  44.867   2.728
16132W        W79900  40.405  30.047  13.900
16133W        W79901  44.910  13.673  13.965
16134W        W79902   5.214   9.865   4.142
16135W        W79903  10.216  37.345   2.360
16136W        W79904  25.051  34.026  14.336
16137W        W79905  21.684  36.540   0.260
16138W        W79906  30.503  23.684   1.863
16139W        W79907  15.216  36.891   1.434
16140W        W79908  33.007   2.890   3.662
16141W        W79909  17.777  12.702  12.547
16142W        W79910  42.804   4.257   1.774
16143W        W79911  28.946  32.122   2.232
16144W        W79912  32.924   8.221   2.679
16145W        W79913  38.412  36.870  14.010
16146W        W79914  18.273  27.190   1.891
16147W        W79915   2.452  42.448  14.808
16148W        W79916  40.450  32.464  12.093
16149W        W79917  16.684   4.732  10.924
16150W        W79918  12.186  43.866  13.439
16151W        W79919  15.607  16.112   3.716
16152W        W79920  39.960  15.201   2.246
16153W        W79921  14.739  34.103   2.192
16154W        W79922  37.851   1.866   0.934
16155W        W79923  44.488  33.494   2.802
16156W        W79924  10.354  25.000   2.686
16157W        W79925  39.059  32.569  14.916
16158W        W79926  17.720   1.314   3.234
16159W        W79927   9.840  44.995  13.838
16160W        W79928   2.384   4.329   1.214
16161W        W79929   1.856   5.313   4.747
16162W        W79930  39.017  44.774   4.177
16163W        W79931  37.946  17.245  10.639
16164W        W79932  28.547  18.769  12.043
16165W        W79933  36.961  17.654  14.949
16166W        W79934  25.615   9.353   4.242
16167W        W79935  32.623  17.672  10.481
16168W        W79936   1.395  29.078  12.531
16169W        W79937  20.035  37.952   4.833
16170W        W79938  14.291  23.050   1.241
16171W        W79939  23.624  20.031  11.462
16172W        W79940  11.264  28.021  14.945
16173W        W79941   2.757  18.718   2.850
16174W        W79942  24.129  35.074  13.538
16175W        W79943  30.566  12.765  11.984
16176W        W79944  28.128  26.043  12.922
16177W        W79945  31.111  28.177   1.931
16178W        W79946   4.885  42.949   4.711
16179W        W79947   3.869   1.406   2.793
16180W        W79948  42.013  39.020  14.479
16181W        W79949  22.512  18.572  11.608
16182W        W79950  28.518  34.093   1.717
16183W        W79951  37.831  30.528  11.094
16184W        W79952  15.582  39.822  11.390
16185W        W79953   7.665  16.811  10.601
16186W        W79954  31.069  22.240  13.448
16187W        W79955  44.351   0.440  14.982
16188W        W79956   4.390  32.393   4.670
16189W        W79957  30.038  34.514   2.670
16190W        W79958  19.625   3.408  10.124
16191W        W79959  36.484   3.437   5.231
16192W        W79960  19.778  43.019  11.062
16193W        W79961  22.710   4.278  14.347
16194W        W79962  27.962  18.295   1.429
16195W        W79963   7.279  11.309  11.441
16196W        W79964  40.923  38.981  13.390
16197W        W79965  41.857  20.151  10.972
16198W        W79966  15.160  24.501  11.995
16199W        W79967  14.279  40.038   3.800
16200W        W79968   5.377  25.542   1.829
16201W        W79969  33.939  44.859  10.479
16202W        W79970  16.807  43.417  10.537
16203W        W79971  24.689   5.752  13.800
16204W        W79972  43.855  37.540   1.918
16205W        W79973  43.507  40.888  11.892
16206W        W79974  29.603  21.659   4.234
16207W        W79975   9.255  19.632   3.173
16208W        W79976  44.837  19.094   4.211
16209W        W79977   0.917  11.262  13.060
16210W        W79978  25.142  17.620   3.644
16211W        W79979  17.694  33.068  12.484
16212W        W79980   2.756  16.142  12.461
16213W        W79981  34.379  38.048  13.896
16214W        W79982   3.780  26.598  10.111
16215W        W79983  17.716  37.525  13.972
16216W        W79984   9.651  38.924   4.740
16217W        W79985   1.878   8.883   4.220
16218W        W79986  20.583  12.846   3.231
16219W        W79987  19.148   8.777  14.871
16220W        W79988  42.454   7.895  13.886
16221W        W79989  15.649  34.983  12.855
16222W        W79990  27.588  31.533  14.794
16223W        W79991  37.473   5.775  12.507
16224W        W79992  33.556  31.480  12.459
16225W        W79993  20.121  44.335   4.227
16226W        W79994  34.549  10.849  12.477
16227W        W79995   4.349  35.863  12.381
16228W        W79996  11.769  36.575   4.212
16229W        W79997   0.872  25.204   0.404
16230W        W79998  31.450   9.270   2.814
16231W        W79999   5.251  18.081   4.153
16232W        W80000  10.373  16.188   2.240
16233W        W80001  34.880  30.551   4.663
16234W        W80002  37.858   2.723   4.113
16235W        W80003  40.899   0.912  13.457
16236W        W80004  37.923   0.839  14.441
16237W        W80005   2.231  38.932  12.539
16238W        W80006  23.657   8.702   2.282
16239W        W80007  26.979   3.916   1.308
16240W        W80008  24.518   4.276  10.538
16241W        W80009  29.005  21.043  11.079
16242W        W80010  11.827  17.763  14.365
16243W        W80011  38.367  35.471  10.965
16244W        W80012  19.138  38.372  12.393
16245W        W80013  42.290  21.034   4.151
16246W        W80014  15.104  19.149  13.062
16247W        W80015  38.466  35.557  14.351
16248W        W80016   9.713  32.509  13.449
16249W        W80017   7.290  27.013   2.293
16250W        W80018  22.529  43.297   1.376
16251W        W80019   5.342  42.817   3.834
16252W        W80020  27.593   8.671  11.918
16253W        W80021  29.578  33.459  13.894
16254W        W80022   5.773  27.675   1.815
16255W        W80023  32.994  37.885   4.690
16256W        W80024  23.521  28.054   4.120
16257W        W80025  44.323  10.638   2.332
16258W        W80026   7.842  14.822  13.473
16259W        W80027  35.417  18.636  13.451
16260W        W80028  33.535  28.535   4.800
16261W        W80029  11.711  14.253   2.869
16262W        W80030  35.370  38.335  10.980
16263W        W80031  26.045  31.571  12.404
16264W        W80032  24.126  28.023  14.021
16265W        W80033  12.757  21.061  11.976
16266W        W80034   5.284   3.734   3.280
16267W        W80035  11.657   6.350  14.284
16268W        W80036  15.795  31.034  14.400
16269W        W80037   9.863   1.859  14.803
16270W        W80038  23.013  22.080  13.521
16271W        W80039   5.895   4.771   3.701
16272W        W80040  12.124  28.514   2.765
16273W        W80041  43.964  10.270  11.091
16274W        W80042   1.354  29.546   4.785
16275W        W80043  26.683  14.589   4.769
16276W        W80044   7.203  34.050   1.450
16277W        W80045  34.060  44.407  13.792
16278W        W80046   1.740  14.316  14.456
16279W        W80047  23.688  37.544  12.002
16280W        W80048  10.371  17.139   1.383
16281W        W80049  37.383   0.925  14.796
16282W        W80050  25.530  38.351   3.330
16283W        W80051  11.805  35.096   4.178
16284W        W80052   1.481  17.676   4.646
16285W        W80053  41.477  40.324   2.891
16286W        W80054  20.551  32.994   2.281
16287W        W80055  42.825  36.559   0.878
16288W        W80056  23.642  18.729   3.243
16289W        W80057  39.960   4.211  14.976
16290W        W80058   0.427  18.291   4.161
16291W        W80059  24.679  29.997  14.921
16292W        W80060  38.442  35.108  12.496
16293W        W80061   2.278  25.661  13.317
16294W        W80062  31.483  10.366   2.819
16295W        W80063  39.895  30.652   0.957
16296W        W80064  35.964  38.487  12.083
16297W        W80065  43.466  22.066   4.772
16298W        W80066  26.650  29.443  14.866
16299W        W80067  17.226  38.446   1.292
16300W        W80068  32.460  43.906   3.856
16301W        W80069  17.144   9.682   4.354
16302W        W80070  13.328  21.169   0.962
16303W        W80071   2.826  23.641   3.158
16304W        W80072   4.364  36.084   3.705
16305W        W80073  36.946  15.785   4.298
16306W        W80074  44.983  40.885  10.506
16307W        W80075  43.368  19.193   2.714
16308W        W80076  23.229  13.162  14.394
16309W        W80077  37.512  10.276   2.413
16310W        W80078  21.637   2.754   3.698
16311W        W80079  19.093  17.222  12.466
16312W        W80080  12.244  24.185  11.037
16313W        W80081   0.446  37.011  11.990
16314W        W80082  33.078  28.553   0.760
16315W        W80083   7.849   8.777   9.985
16316W        W80084   6.841  28.643   4.724
16317W        W80085  36.044  28.104  11.084
16318W        W80086  27.107   4.241  13.884
16319W        W80087  40.920  29.628   4.657
16320W        W80088  14.200  43.481  10.998
16321W        W80089  30.555  31.944   0.337
16322W        W80090  40.047  34.499   1.862
16323W        W80091   9.176   6.322   4.208
16324W        W80092   7.191  27.011   0.267
16325W        W80093   2.858   4.347  11.474
16326W        W80094  27.637  13.169   2.199
16327W        W80095  14.298  17.627   2.773
16328W        W80096  11.147  26.161   3.283
16329W        W80097  16.262  39.558  11.074
16330W        W80098  14.140   9.358  12.949
16331W        W80099  26.609  41.336  14.028
16332W        W80100  11.781  23.697   1.232
16333W        W80101  29.027  14.104   1.357
16334W        W80102  32.102  27.587  12.049
16335W        W80103  28.673  39.880   4.246
16336W        W80104   8.854  15.308   2.883
16337W        W80105   2.902  29.072   1.900
16338W        W80106  25.110  22.636  14.376
16339W        W80107   4.374  11.317   2.704
16340W        W80108  24.991  13.739   3.298
16341W        W80109  31.564   8.749   3.685
16342W        W80110  24.539  21.140   2.790
16343W        W80111  34.441  13.177   2.331
16344W        W80112   3.440   3.751   4.819
16345W        W80113   9.258   9.379  13.872
16346W        W80114   7.171  10.690   0.297
16347W        W80115  22.594  17.245   5.087
16348W        W80116  16.265   4.260   4.147
16349W        W80117  21.533   8.161  12.560
16350W        W80118  31.049   1.344   0.309
16351W        W80119  18.703  27.517   4.779
16352W        W80120  17.214   0.915  12.076
16353W        W80121  34.969  43.384  14.414
16354W        W80122  17.774   3.309   4.295
16355W        W80123  25.547  41.462  13.540
16356W        W80124  23.238  17.657   4.744
16357W        W80125  16.163  43.975  13.414
16358W        W80126  22.163  42.909  10.586
16359W        W80127  17.757  18.152   3.288
16360W        W80128  39.394  24.688  14.892
16361W        W80129  35.973  24.226  11.556
16362W        W80130  40.021  26.083  14.449
16363W        W80131  24.543  44.008   0.768
16364W        W80132  40.050  17.639   3.244
16365W        W80133  43.465   5.893  10.952
16366W        W80134  34.034  39.330   0.248
16367W        W80135  23.056  19.730  10.410
16368W        W80136  34.573  10.785  14.781
16369W        W80137   0.831  42.972  13.055
16370W        W80138  15.590  18.581   3.767
16371W        W80139  16.748  34.027  10.056
16372W        W80140  24.676   0.834  13.842
16373W        W80141  39.438  38.332   4.127
16374W        W80142   0.980  22.128   2.289
16375W        W80143  31.586   8.702   4.692
16376W        W80144  13.265  34.406   1.719
16377W        W80145   1.450   3.739   3.231
16378W        W80146   4.874  17.620  13.455
16379W        W80147   1.914  19.268   2.900
16380W        W80148  29.598  17.237  10.076
16381W        W80149   7.208  13.194  11.026
16382W        W80150  34.518   4.764  12.467
16383W        W80151   0.863   7.230  13.324
16384W        W80152   9.699  30.985  13.473
16385W        W80153  14.185  17.774  12.566
16386W        W80154   1.895  34.014   1.705
16387W        W80155  27.942  33.457   0.965
16388W        W80156  20.548  11.726  12.344
16389W        W80157  28.940  15.254   4.603
16390W        W80158  10.711   8.285  14.857
16391W        W80159  26.483  39.856   4.249
16392W        W80160  36.394  27.606  13.942
16393W        W80161   2.254  16.704  14.366
16394W        W80162  40.981  15.209  11.547
16395W        W80163  42.869  30.133   1.849
16396W        W80164  33.080  31.460  11.595
16397W        W80165  17.688  28.114  14.408
16398W        W80166  35.954  29.067  14.008
16399W        W80167  22.629  24.590   1.779
16400W        W80168  43.298  25.014  13.341
16401W        W80169   1.447  19.049   4.157
16402W        W80170  44.352   6.901   0.853
16403W        W80171  42.432  38.930  14.516
16404W        W80172  43.442  15.725  13.064
16405W        W80173  20.556   8.233  12.023
16406W        W80174  17.662  34.944  12.368
16407W        W80175  22.248  17.758  10.497
16408W        W80176   9.810  17.563   1.359
16409W        W80177  28.616  41.036  14.375
16410W        W80178  16.785  17.746   4.829
16411W        W80179   1.439  37.026   2.236
16412W        W80180  41.853   9.766   2.747
16413W        W80181  37.558   4.249   4.265
16414W        W80182   2.360  28.946  10.637
16415W        W80183  18.154   6.368   2.181
16416W        W80184  34.913  31.432  12.551
16417W        W80185  38.478   1.383  12.956
16418W        W80186  16.739   6.245  13.925
16419W        W80187   3.430  34.949   0.735
16420W        W80188  22.110  41.479  10.996
16421W        W80189  41.803  42.849  10.986
16422W        W80190  26.676  28.516   3.731
16423W        W80191  18.659   6.349  12.567
16424W        W80192   7.816  28.522   1.292
16425W        W80193  35.424  10.728  13.917
16426W        W80194  32.547  20.644   3.381
16427W        W80195  19.624  20.570   4.730
16428W        W80196  29.066  14.600  10.513
16429W        W80197  27.646  40.990   0.408
16430W        W80198  44.321  18.053   3.364
16431W        W80199   1.856   4.358  13.397
16432W        W80200  28.165  41.023  14.762
16433W        W80201  43.843   4.220   2.232
16434W        W80202  29.473  44.802  10.414
16435W        W80203  19.067  41.464   2.794
16436W        W80204  34.120   7.707   3.671
16437W        W80205  14.163   3.800   3.724
16438W        W80206  21.523  11.761   2.276
16439W        W80207  26.502   5.873   9.930
16440W        W80208  17.673  17.575  11.023
16441W        W80209  34.415  40.451  13.921
16442W        W80210  10.740  22.651   4.661
16443W        W80211  33.076  34.998   2.333
16444W        W80212  40.450  16.586   1.351
16445W        W80213  15.250  27.514   3.816
16446W        W80214  34.600  39.864  14.880
16447W        W80215   3.739  44.388   2.375
16448W        W80216   0.376  44.429   1.873
16449W        W80217  14.642  16.226  12.981
16450W        W80218  21.093  28.599  14.355
16451W        W80219  12.330  33.057   2.348
16452W        W80220  35.362  32.513  11.492
16453W        W80221  40.327  33.430   5.316
16454W        W80222   2.353  18.101  14.767
16455W        W80223  36.482  33.532   1.280
16456W        W80224  32.017  14.212  10.592
16457W        W80225   0.386  14.781  12.832
16458W        W80226   9.375  41.886  10.908
16459W        W80227   7.858  34.519   1.805
16460W        W80228  26.695   7.264  11.577
16461W        W80229  35.865  28.061   2.710
16462W        W80230  36.498  32.619   1.299
16463W        W80231  42.958   4.408   3.750
16464W        W80232  37.547  18.626  14.824
16465W        W80233  44.818  21.528   3.831
16466W        W80234  36.370  12.739  12.509
16467W        W80235  30.151  41.891   1.888
16468W        W80236   4.732   6.906   3.189
16469W        W80237  30.115   4.922   3.696
16470W        W80238  30.573  16.724   1.309
16471W        W80239  18.260  33.542   2.182
16472W        W80240  44.387  17.742  10.159
16473W        W80241  35.399  13.208  13.522
16474W        W80242  31.090  31.477  11.060
16475W        W80243  41.030  30.473  13.821
16476W        W80244  37.575  27.127   4.120
16477W        W80245  38.501  25.183   3.275
16478W        W80246   5.397  26.490  14.458
16479W        W80247   1.278  27.195  12.409
16480W        W80248  21.692   3.818  11.981
16481W        W80249   0.930  43.020   3.704
16482W        W80250  15.218   3.264   4.311
16483W        W80251  20.682  44.463   3.712
16484W        W80252  18.586   5.885  12.460
16485W        W80253  30.493  44.488  12.379
16486W        W80254  35.864  22.593   3.753
16487W        W80255  12.611  28.070  11.566
16488W        W80256   4.399  33.419   3.677
16489W        W80257  32.424   5.731   3.290
16490W        W80258  25.012   4.779   0.441
16491W        W80259   1.314  30.547  13.032
16492W        W80260  15.120  11.812   4.788
16493W        W80261   6.905  37.061  10.497
16494W        W80262   8.873  21.641  14.921
16495W        W80263  30.025  38.426  11.950
16496W        W80264  27.585  21.660  11.994
16497W        W80265  19.617  15.706   3.711
16498W        W80266  13.630   0.437   0.454
16499W        W80267  14.237   6.759   3.807
16500W        W80268  44.276  29.053  10.587
16501W        W80269  39.555  38.870   1.820
16502W        W80270  11.634  39.352   2.365
16503W        W80271   7.680  33.473  13.851
16504W        W80272  37.830  23.598   1.913
16505W        W80273  30.486  42.821   3.357
16506W        W80274  10.144   0.872  13.336
16507W        W80275  12.325  33.512   0.359
16508W        W80276   6.374  20.713   3.759
16509W        W80277  44.271  32.000   2.207
16510W        W80278  17.289  31.142  12.929
16511W        W80279  12.768   8.772   1.288
16512W        W80280  11.152  22.126   3.762
16513W        W80281  10.272   1.436   1.719
16514W        W80282  15.220  11.352  13.847
16515W        W80283  21.102   0.957  13.366
16516W        W80284  15.740  42.394   4.793
16517W        W80285  20.046  29.630  13.390
16518W        W80286  29.148  15.737  11.509
16519W        W80287  11.197  37.859  14.308
16520W        W80288   3.914  28.556  11.535
16521W        W80289  14.300  16.087   3.382
16522W        W80290   9.286   7.396  14.900
16523W        W80291  25.575   2.273   3.243
16524W        W80292   9.226   0.483   1.714
16525W        W80293  40.908  10.205  14.335
16526W        W80294  34.515  39.948  12.484
16527W        W80295  24.126  30.094  11.859
16528W        W80296   6.728  14.656   0.876
16529W        W80297  29.110  42.899   5.086
16530W        W80298  41.793  23.150   3.238
16531W        W80299   0.401  11.631   2.679
16532W        W80300  38.868  16.245   2.866
16533W        W80301  28.491  18.708  14.279
16534W        W80302  17.089  21.742  13.954
16535W        W80303  13.321  24.531  14.396
16536W        W80304  44.440  23.599   0.820
16537W        W80305  21.727  19.714  13.038
16538W        W80306  35.559  15.303  11.882
16539W        W80307  41.802  13.603  14.476
16540W        W80308  41.803  36.578  13.363
16541W        W80309  38.501  27.605  11.548
16542W        W80310  15.127  42.511   4.279
16543W        W80311  21.228  43.998   4.297
16544W        W80312  22.998  11.244   4.226
16545W        W80313  43.384   7.400   3.825
16546W        W80314  40.483  11.328   1.421
16547W        W80315  43.280  43.416   2.874
16548W        W80316  39.480   6.315  11.516
16549W        W80317  28.447   5.771   0.268
16550W        W80318  43.866   6.771  13.795
16551W        W80319  38.550  35.540   3.197
16552W        W80320  13.720   4.938  10.541
16553W        W80321  36.586   3.765  10.480
16554W        W80322  31.044  20.576  13.949
16555W        W80323  14.100  11.696   0.415
16556W        W80324   1.464   6.891  12.458
16557W        W80325   2.231  15.117  11.049
16558W        W80326  34.378  20.592   0.290
16559W        W80327  22.151  20.149  12.467
16560W        W80328  30.975  40.799  14.503
16561W        W80329  11.663  38.347  10.547
16562W        W80330  31.639  26.084   2.788
16563W        W80331  21.047  39.045   1.877
16564W        W80332  31.545  28.981  13.547
16565W        W80333  16.118  39.977   4.288
16566W        W80334  19.608   4.768   1.875
16567W        W80335   8.713  28.457  13.996
16568W        W80336  35.394   1.335   0.743
16569W        W80337  37.382  24.168  11.866
16570W        W80338  40.499  42.388   2.867
16571W        W80339   6.208  41.001  11.517
16572W        W80340  21.646  22.563   2.688
16573W        W80341   8.389  31.418   1.832
16574W        W80342  17.668   6.860  11.869
16575W        W80343  33.447  31.998   2.185
16576W        W80344   8.881  18.079  12.413
16577W        W80345  28.636   4.733   4.637
16578W        W80346   5.807  14.134  11.503
16579W        W80347  22.591  12.181   2.717
16580W        W80348  26.676  18.067  11.542
16581W        W80349   1.268  40.428   4.714
16582W        W80350   6.899  39.037   0.433
16583W        W80351  43.990  20.117   2.281
16584W        W80352  37.996   5.409   5.703
16585W        W80353  21.054  40.028  11.535
16586W        W80354   4.205  12.697   1.290
16587W        W80355  17.116  26.489   1.847
16588W        W80356   2.389   3.240   5.229
16589W        W80357   1.802  21.195   1.862
16590W        W80358  33.591  12.293  14.474
16591W        W80359  15.810  16.158  12.470
16592W        W80360  29.038  44.488  12.366
16593W        W80361   9.804  22.517   2.364
16594W        W80362  43.836  17.718  14.775
16595W        W80363  31.578  13.664   3.235
16596W        W80364   8.351  26.127  11.469
16597W        W80365  32.004   5.841  13.518
16598W        W80366  33.071  11.723   4.766
16599W        W80367  42.017  27.067   0.809
16600W        W80368  28.674  41.910   3.174
16601W        W80369   2.356  19.157   1.716
16602W        W80370  28.940  28.574  14.810
16603W        W80371  27.607  34.425  13.923
16604W        W80372  24.664  29.503  13.428
16605W        W80373   1.323  19.691  12.500
16606W        W80374  26.176  27.682  13.825
16607W        W80375  12.826  42.393   1.425
16608W        W80376  23.147  26.560   3.249
16609W        W80377  44.834  44.480  14.460
16610W        W80378  14.783  31.584  12.944
16611W        W80379  34.472  11.819  13.360
16612W        W80380  16.232  16.623  14.377
16613W        W80381  34.035  12.717   2.791
16614W        W80382  23.180  44.796  13.457
16615W        W80383  26.034  33.457  13.452
16616W        W80384  17.176  35.468   3.250
16617W        W80385  14.146   9.772   4.830
16618W        W80386  44.436  30.131   2.273
16619W        W80387  29.127  41.446  14.928
16620W        W80388  21.248  37.556  10.593
16621W        W80389   3.222  10.266   4.309
16622W        W80390  39.552  17.300  11.451
16623W        W80391  26.566  41.414  10.605
16624W        W80392  19.575   8.870   5.274
16625W        W80393  37.864  33.510  11.574
16626W        W80394  29.474  40.987   4.646
16627W        W80395  36.482   3.390  11.538
16628W        W80396  19.558   2.228  12.969
16629W        W80397  41.034  18.263   4.622
16630W        W80398  38.843  44.349  13.928
16631W        W80399  20.722  44.407  12.485
16632W        W80400  38.889   8.780   4.317
16633W        W80401  27.674  19.086  14.415
16634W        W80402  25.670  36.480   1.927
16635W        W80403   0.469  36.511  12.031
16636W        W80404  32.409  32.980  11.492
16637W        W80405  31.983  36.853  14.867
16638W        W80406  31.111  25.025   3.656
16639W        W80407  15.722  21.532   1.346
16640W        W80408  11.238  22.115   0.339
16641W        W80409  13.169   8.894   2.701
16642W        W80410  23.617  25.142   1.918
16643W        W80411   3.776  14.768   3.358
16644W        W80412  31.459  28.169  12.424
16645W        W80413  38.562  25.995  13.963
16646W        W80414  37.351  36.376   0.406
16647W        W80415  26.123  39.813   4.139
16648W        W80416  41.330   9.335  11.007
16649W        W80417  23.142   6.710  12.013
16650W        W80418  22.725  17.697  12.488
16651W        W80419  23.649  19.646  12.575
16652W        W80420  29.975  33.399   4.662
16653W        W80421  35.476  33.089  12.426
16654W        W80422   1.762   9.383  14.498
16655W        W80423  23.013   5.751  12.979
16656W        W80424   4.219   8.376  14.018
16657W        W80425   4.297  37.530  11.417
16658W        W80426   5.849  42.997   2.325
16659W        W80427  37.405   9.215   4.284
16660W        W80428   4.268  29.964   4.635
16661W        W80429  15.245  25.064   4.746
16662W        W80430  40.357   0.952  10.981
16663W        W80431  43.794  26.199   3.803
16664W        W80432  41.986  38.881   0.760
16665W        W80433  10.216   8.334  14.802
16666W        W80434  36.452  19.144   3.771
16667W        W80435   1.333  10.153  13.938
16668W        W80436  31.977  18.599   2.374
16669W        W80437  31.097  22.082  11.610
16670W        W80438  31.497  29.460  14.791
16671W        W80439  14.616  20.039  13.438
16672W        W80440  13.624  20.249   0.882
16673W        W80441  30.955  34.492   4.689
16674W        W80442  13.248   2.889   2.674
16675W        W80443  16.124  23.132  12.398
16676W        W80444  37.554  19.680  14.799
16677W        W80445  29.150  41.003   2.806
16678W        W80446  21.680  21.673  14.456
16679W        W80447   1.326  38.059   4.793
16680W        W80448  11.214  10.260   1.808
16681W        W80449  19.687  12.260  10.426
16682W        W80450  44.937  39.351  12.472
16683W        W80451  16.809  24.069   0.420
16684W        W80452  32.545  18.671  13.531
16685W        W80453  19.730  43.894  14.826
16686W        W80454  36.906  13.221   2.308
16687W        W80455  37.532  22.189  12.094
16688W        W80456  16.169   6.871  10.530
16689W        W80457   1.359  16.701  12.346
16690W        W80458  40.430  35.397   4.232
16691W        W80459  40.000  31.507   2.669
16692W        W80460  41.521  35.061   4.266
16693W        W80461  34.072   2.956   4.197
16694W        W80462  39.540  17.191  13.409
16695W        W80463  39.383   0.378  10.441
16696W        W80464  31.475  33.501  11.380
16697W        W80465  26.069   3.446  14.998
16698W        W80466   1.375   0.294   3.171
16699W        W80467  22.691  29.151   0.960
16700W        W80468  32.896  24.026  14.811
16701W        W80469   4.818  17.232  10.597
16702W        W80470  44.895  38.062  14.287
16703W        W80471  10.145  39.439   0.369
16704W        W80472  29.653   5.408   0.833
16705W        W80473   6.908  14.713  13.886
16706W        W80474  23.215  24.677   0.459
16707W        W80475  39.397  22.591  13.366
16708W        W80476  14.292  30.433   1.423
16709W        W80477  14.671  38.946   4.809
16710W        W80478  25.494  21.205  12.445
16711W        W80479  15.277  21.660  10.432
16712W        W80480  43.967  19.148   3.803
16713W        W80481   3.235  33.129  10.919
16714W        W80482  39.825  42.864  12.040
16715W        W80483  26.037   6.895   3.807
16716W        W80484   4.908  38.923   2.673
16717W        W80485  16.798  32.024   4.169
16718W        W80486  23.043  25.000   1.323
16719W        W80487  37.895  35.550   1.931
16720W        W80488  10.658  23.512   4.707
16721W        W80489  30.109  40.043   3.164
16722W        W80490  28.487   1.261   2.243
16723W        W80491  10.230  12.772   5.287
16724W        W80492  37.382  35.106   1.891
16725W        W80493   1.394  13.315   2.889
16726W        W80494  36.926  24.092   0.330
16727W        W80495  22.536   0.832  10.073
16728W        W80496  18.555  41.821  12.516
16729W        W80497   9.702  16.128  12.949
16730W        W80498   5.712  35.037   3.678
16731W        W80499  13.287  36.551   1.823
16732W        W80500   9.708  44.337  11.015
16733W        W80501  11.768  12.359   2.289
16734W        W80502  32.065  43.922  12.442
16735W        W80503  27.127  21.630   4.654
16736W        W80504  41.023  44.915  12.085
16737W        W80505  38.485  10.287  10.423
16738W        W80506  35.576  19.143  14.497
16739W        W80507  27.476  16.580   4.742
16740W        W80508  38.478  43.989  14.793
16741W        W80509   8.245  35.573   1.799
16742W        W80510  17.723  20.692  12.541
16743W        W80511  31.966  19.631   3.360
16744W        W80512  23.239  34.005   0.244
16745W        W80513  30.628  13.808   1.799
16746W        W80514   2.858   5.916  13.034
16747W        W80515  25.994   4.744  12.886
16748W        W80516  11.776  38.940  13.532
16749W        W80517   1.265  17.609   4.290
16750W        W80518   4.810  27.541  13.452
16751W        W80519  10.691  37.879   3.801
16752W        W80520  15.682  14.260   2.882
16753W        W80521  40.842  43.512  11.111
16754W        W80522   4.209  33.064  11.578
16755W        W80523  20.650  43.432   2.414
16756W        W80524  39.012   0.449  14.403
16757W        W80525  38.419  36.995  12.961
16758W        W80526  34.548  27.522  11.959
16759W        W80527  28.547  13.264  11.912
16760W        W80528  28.947   6.230   3.203
16761W        W80529  16.809   2.429  13.368
16762W        W80530  12.677   2.377  14.814
16763W        W80531   2.384  17.791  11.604
16764W        W80532  31.403  19.221   2.679
16765W        W80533  30.555  44.335  13.838
16766W        W80534  42.322  31.484   1.338
16767W        W80535  27.578  42.835   2.262
16768W        W80536  28.568   3.319  12.391
16769W        W80537  37.462  41.044   4.326
16770W        W80538  27.956  32.442  13.532
16771W        W80539   6.414  14.738   3.164
16772W        W80540   4.742  17.244  14.812
16773W        W80541  25.587  19.285   2.786
16774W        W80542  42.987  30.109  11.399
16775W        W80543  21.188   6.234  12.540
16776W        W80544  43.926   6.903   2.844
16777W        W80545   9.268  13.656  13.934
16778W        W80546  32.100   3.900   4.836
16779W        W80547  18.659  34.496  13.445
16780W        W80548  25.511  16.667   1.924
16781W        W80549  39.479   0.969  13.354
16782W        W80550   4.293  11.701   0.737
16783W        W80551   2.266   6.223  11.998
16784W        W80552  37.907  43.377   3.803
16785W        W80553  16.157  40.396   1.896
16786W        W80554   8.294   7.709   2.733
16787W        W80555  22.223  26.588   4.127
16788W        W80556  22.660  31.151   3.225
16789W        W80557  42.891  30.431   2.406
16790W        W80558   4.863  30.455  10.617
16791W        W80559  22.555  30.631  13.872
16792W        W80560   7.848  38.911  13.836
16793W        W80561   9.717  26.699  10.636
16794W        W80562  25.705   3.428   4.266
16795W        W80563  20.185  32.069   0.369
16796W        W80564  43.885  38.334  11.395
16797W        W80565  12.761  24.573   0.430
16798W        W80566  23.183  20.108  13.042
16799W        W80567  24.606  17.295   1.411
16800W        W80568  26.113  36.528  13.438
16801W        W80569  42.312  37.059   0.821
16802W        W80570  39.429  33.611   3.715
16803W        W80571  37.838   5.226  14.868
16804W        W80572  34.980  15.772  14.348
16805W        W80573  34.877  27.575  11.544
16806W        W80574   6.756  37.872   2.774
16807W        W80575  14.805   5.319   0.301
16808W        W80576  10.790  36.528  10.912
16809W        W80577  36.845  10.199  11.920
16810W        W80578  23.114   1.454  10.923
16811W        W80579  24.510  33.915   2.761
16812W        W80580  32.049  33.626  12.864
16813W        W80581  28.589  16.281  10.518
16814W        W80582   5.867  16.725   2.218
16815W        W80583  36.368  15.112   1.260
16816W        W80584  34.447  37.412   2.878
16817W        W80585  14.299  16.255  13.024
16818W        W80586  24.660   9.318   1.915
16819W        W80587   3.452   5.807   2.884
16820W        W80588  20.188  28.483  12.416
16821W        W80589  40.865   7.721   3.652
16822W        W80590  30.988   8.835  10.949
16823W        W80591  12.265  41.797  12.870
16824W        W80592  20.144  25.191  14.364
16825W        W80593  21.103   0.461   2.287
16826W        W80594  24.070  36.887   0.386
16827W        W80595  41.351  28.459  10.612
16828W        W80596  14.168   5.768   1.757
16829W        W80597  41.891  36.093   0.938
16830W        W80598  24.229  19.701  11.488
16831W        W80599  33.392  18.679   3.687
16832W        W80600  44.842  42.874   1.737
16833W        W80601  14.244  33.128  12.467
16834W        W80602  12.228  10.286   3.240
16835W        W80603  29.073  32.456  12.405
16836W        W80604  22.062   6.713  10.480
16837W        W80605  42.470  22.037   4.712
16838W        W80606   4.837  21.549  13.975
16839W        W80607  25.998  43.349   3.238
16840W        W80608   6.885   9.204  11.392
16841W        W80609  18.676   4.311  11.578
16842W        W80610  14.620   6.207   2.860
16843W        W80611  38.905  30.960  12.018
16844W        W80612   8.746  28.617   0.281
16845W        W80613  31.123  44.464  10.554
16846W        W80614  18.605   4.415  12.096
16847W        W80615  41.493  43.958   1.837
16848W        W80616  43.452  27.465   4.153
16849W        W80617   8.848  32.513  11.573
16850W        W80618   3.352  16.575   0.761
16851W        W80619  10.214   0.405  14.400
16852W        W80620  19.557  23.027   2.411
16853W        W80621  32.013   8.715  13.395
16854W        W80622  28.107   6.815  11.916
16855W        W80623   7.768  11.181  10.511
16856W        W80624  10.327  13.304   0.333
16857W        W80625  10.221  23.631  10.099
16858W        W80626  40.022   1.408   4.290
16859W        W80627  24.019  14.818  11.395
16860W        W80628  15.279  17.194   0.365
16861W        W80629  10.248  36.013  11.466
16862W        W80630  26.006  19.693   1.724
16863W        W80631  22.572  42.423  11.910
16864W        W80632  12.230  23.708   3.705
16865W        W80633   9.367  39.543   4.286
16866W        W80634  42.012  30.084   1.875
16867W        W80635   6.710  27.594  13.344
16868W        W80636  32.497  33.622  10.986
16869W        W80637  40.886  15.731   3.662
16870W        W80638  17.114  24.164   2.712
16871W        W80639  30.503   7.822  12.926
16872W        W80640  11.857   3.336   0.829
16873W        W80641   1.371  26.521  11.856
16874W        W80642  38.394  14.227  13.997
16875W        W80643  16.751   3.242   1.849
16876W        W80644   6.363   8.781   0.771
16877W        W80645  37.522  40.898  11.399
16878W        W80646   6.272  38.330   4.634
16879W        W80647  21.151  28.458  13.362
16880W        W80648  34.386  39.861  11.611
16881W        W80649  10.657  29.659  10.590
16882W        W80650  30.971  31.515  12.464
16883W        W80651  11.649  14.161   1.223
16884W        W80652  37.406  41.787   4.764
16885W        W80653  42.507  43.478   0.791
16886W        W80654   1.288  24.692   3.754
16887W        W80655  13.107  36.900   2.355
16888W        W80656  13.138  24.513   3.851
16889W        W80657  36.455  44.885   0.287
16890W        W80658  34.597  12.761  14.013
16891W        W80659   6.724  11.198   4.183
16892W        W80660  36.550  37.076  10.508
16893W        W80661   6.232  33.563   1.695
16894W        W80662  31.471   8.334   4.228
16895W        W80663  35.485   1.938  10.443
16896W        W80664  14.710  35.483   2.235
16897W        W80665  35.033  41.947  11.421
16898W        W80666   9.672   8.332   3.690
16899W        W80667  39.493  31.570   3.688
16900W        W80668  40.347   9.790   1.342
16901W        W80669  24.005  20.098   0.371
16902W        W80670  26.571   1.302   0.814
16903W        W80671  16.169  20.724  13.535
16904W        W80672   5.799   5.344  13.027
16905W        W80673  40.350  43.435   4.117
16906W        W80674   6.208  26.020   1.292
16907W        W80675  12.210  19.139  13.061
16908W        W80676   6.398   9.288  11.477
16909W        W80677  25.205  11.201   9.657
16910W        W80678  16.300  44.403  12.883
16911W        W80679  37.425   0.428   3.257
16912W        W80680  33.042  14.736   0.312
16913W        W80681  14.175  12.840   3.643
16914W        W80682  37.380  30.636   2.869
16915W        W80683  24.158  13.665   1.322
16916W        W80684  26.507  15.695   1.304
16917W        W80685  24.595  24.145   3.339
16918W        W80686  35.493  36.043  12.396
16919W        W80687  20.709  32.440  10.047
16920W        W80688  27.636   0.283   4.161
16921W        W80689   5.799   2.392   0.372
16922W        W80690   7.297   0.414   1.329
16923W        W80691  29.972  36.573   2.852
16924W        W80692   8.402  17.302  11.373
16925W        W80693  27.155  21.071  14.336
16926W        W80694  20.167  39.959   4.294
16927W        W80695   9.760   6.908   1.903
16928W        W80696  38.002  27.959   1.779
16929W        W80697  16.280  16.596   2.383
16930W        W80698   7.372   8.213  13.442
16931W        W80699  37.409   5.759  10.438
16932W        W80700   2.798  26.664   4.195
16933W        W80701  14.744  32.495  14.873
16934W        W80702  27.183   4.317   0.364
16935W        W80703   4.838   5.793  13.057
16936W        W80704  29.947  41.523   3.236
16937W        W80705  28.630  32.586   0.854
16938W        W80706  43.514  35.109   0.438
16939W        W80707  36.910  36.495   2.878
16940W        W80708  36.377  34.530   2.826
16941W        W80709   8.895  15.231   1.907
16942W        W80710  28.479   8.258  11.473
16943W        W80711  40.421  21.218   3.166
16944W        W80712   2.429  21.677  10.509
16945W        W80713  37.471   2.242   1.232
16946W        W80714  20.074   4.423  14.893
16947W        W80715  29.568  10.812  12.021
16948W        W80716  14.685  40.420   3.736
16949W        W80717  23.601  26.508  10.476
16950W        W80718   7.255  17.285  13.454
16951W        W80719  33.997   9.672   0.932
16952W        W80720   6.235   2.902  14.014
16953W        W80721   3.794  40.932   1.783
16954W        W80722  23.087  24.979   4.689
16955W        W80723  29.098  28.136   4.178
16956W        W80724  40.400  21.188   9.984
16957W        W80725   8.176  25.668   2.774
16958W        W80726  12.168  40.055   4.620
16959W        W80727   9.825   8.739  12.367
16960W        W80728   8.305  13.775   2.346
16961W        W80729   9.647   9.735   0.857
16962W        W80730  11.132  31.538   0.877
16963W        W80731  27.645   9.845   4.143
16964W        W80732  27.060  13.795   0.245
16965W        W80733  19.753   1.808  11.033
16966W        W80734  38.419  25.101   2.808
16967W        W80735   3.324  44.758   0.288
16968W        W80736   2.366  37.367   2.340
16969W        W80737  44.832  38.456   4.659
16970W        W80738  10.197  15.168   1.702
16971W        W80739  22.208   9.689  13.922
16972W        W80740  41.965  33.110   2.673
16973W        W80741  28.672  12.682  10.117
16974W        W80742  13.758  24.706  12.945
16975W        W80743  17.202  32.485   2.394
16976W        W80744   2.423  13.840  12.492
16977W        W80745  34.422  11.811  11.893
16978W        W80746  25.491  18.282   3.187
16979W        W80747  33.041  27.504   0.774
16980W        W80748  32.949   3.269  14.356
16981W        W80749   8.758  29.171  12.880
16982W        W80750  24.717  42.920  13.413
16983W        W80751  17.718  38.560   2.769
16984W        W80752  14.119  16.569  10.977
16985W        W80753   4.700  35.577   4.304
16986W        W80754   3.910  23.714  13.418
16987W        W80755  43.851  22.035   3.196
16988W        W80756   5.709   0.859  14.424
16989W        W80757  35.958  24.060   2.414
16990W        W80758  17.757   8.857   4.141
16991W        W80759   6.757  43.849   2.220
16992W        W80760  36.492  22.722   9.966
16993W        W80761  25.496  38.034  14.452
16994W        W80762   7.406  30.968   3.705
16995W        W80763  31.530  41.823  14.355
16996W        W80764   2.356   6.286   5.211
16997W        W80765   8.821  39.882   4.698
16998W        W80766  27.090   1.818  12.473
16999W        W80767  24.117  24.485   3.368
17000W        W80768   8.771  25.032   2.291
17001W        W80769   1.324  21.051  12.541
17002W        W80770  16.656  41.994   3.689
17003W        W80771  10.296  18.562  14.322
17004W        W80772  31.104  12.336  12.876
17005W        W80773  10.844  19.249   1.848
17006W        W80774  28.640   1.321  10.474
17007W        W80775  16.625   4.445  14.450
17008W        W80776  24.118   0.923   2.853
17009W        W80777  12.790   0.938  11.099
17010W        W80778  28.671  38.868   1.827
17011W        W80779  30.537  40.314   2.863
17012W        W80780  10.798  36.968  11.976
17013W        W80781  42.504  18.123   4.173
17014W        W80782   5.270  37.884  13.973
17015W        W80783  36.934  42.361  11.546
17016W        W80784  23.110  12.851   9.465
17017W        W80785  38.395  20.657   4.671
17018W        W80786  39.819  21.088  10.636
17019W        W80787  16.284  34.059  11.519
17020W        W80788  16.250  33.477  11.429
17021W        W80789  32.470  30.909  14.309
17022W        W80790  23.131   2.906  10.962
17023W        W80791  43.867   2.243   2.219
17024W        W80792   8.748  11.249   0.761
17025W        W80793  28.511  12.767   2.217
17026W        W80794  11.234  17.673  12.564
17027W        W80795  10.318  41.921   3.319
17028W        W80796  15.208  39.836   3.785
17029W        W80797  38.466  17.286  12.541
17030W        W80798  25.118  42.298  13.475
17031W        W80799  37.985   2.252   4.781
17032W        W80800  43.502  36.883   0.943
17033W        W80801  30.492   7.743   3.265
17034W        W80802  35.487  33.505   3.274
17035W        W80803  11.276  39.879  12.024
17036W        W80804  39.366  34.916  13.485
17037W        W80805   1.891  18.690   3.806
17038W        W80806   5.200   2.408   4.798
17039W        W80807  22.041  41.842  11.084
17040W        W80808  16.671  32.041   1.757
17041W        W80809  30.984   9.320  13.837
17042W        W80810  40.454  10.257   4.616
17043W        W80811  27.106   5.280  14.428
17044W        W80812   3.795  12.751  12.577
17045W        W80813   5.694  41.347  10.551
17046W        W80814  30.957  43.334   3.202
17047W        W80815  21.659  34.013  13.810
17048W        W80816   5.332  28.579   3.248
17049W        W80817  24.028  23.718   2.744
17050W        W80818  18.151  23.725  14.474
17051W        W80819   1.261  17.102   2.838
17052W        W80820  20.185  36.056   1.289
17053W        W80821  16.678   9.741  10.928
17054W        W80822  37.972  22.011  10.623
17055W        W80823   2.274  12.177  13.832
17056W        W80824  15.731  41.907   1.736
17057W        W80825  13.176  12.309  14.928
17058W        W80826  39.435  18.166   4.822
17059W        W80827  19.735  35.986  12.477
17060W        W80828  32.955  39.326   2.728
17061W        W80829  16.731  43.278   4.140
17062W        W80830   0.293  25.193  12.065
17063W        W80831  34.403  25.467   3.748
17064W        W80832  27.117  27.059   0.926
17065W        W80833   0.488  28.651   0.904
17066W        W80834   5.894  17.221   0.851
17067W        W80835   8.224  29.610   0.298
17068W        W80836  36.370   5.776   2.372
17069W        W80837  35.958  27.193  10.611
17070W        W80838   3.756  25.209   4.148
17071W        W80839   9.779  25.968   2.746
17072W        W80840  18.771  14.167   2.844
17073W        W80841  25.048   2.433   4.344
17074W        W80842  17.748   5.805  14.809
17075W        W80843  22.150   1.408  14.486
17076W        W80844  43.909  11.145   1.269
17077W        W80845  23.524  30.453   1.291
17078W        W80846  32.980  14.623   1.286
17079W        W80847   7.222  42.410  11.439
17080W        W80848  18.221  24.106  12.343
17081W        W80849  44.303   1.247  12.434
17082W        W80850  16.791   4.768  10.512
17083W        W80851  26.502  36.877   0.369
17084W        W80852  11.849  21.243   1.404
17085W        W80853  32.992  28.553  10.523
17086W        W80854   6.422   7.704   4.739
17087W        W80855  21.634  30.635  14.879
17088W        W80856   6.875  28.467   1.225
17089W        W80857  14.102  27.103  11.013
17090W        W80858  40.528  12.701   1.409
17091W        W80859  27.658  15.755   3.378
17092W        W80860  23.599   5.932  13.461
17093W        W80861  18.585  29.473   0.319
17094W        W80862   9.267   6.701   0.954
17095W        W80863  21.140  14.636  13.526
17096W        W80864   7.310  41.890   1.316
17097W        W80865  27.964  29.963  11.972
17098W        W80866  39.476  36.098  10.507
17099W        W80867  43.431   9.644   2.234
17100W        W80868  35.481  37.426  13.455
17101W        W80869   1.277  29.925   3.328
17102W        W80870  34.051   6.820  13.007
17103W        W80871  32.565  17.623   0.785
17104W        W80872  38.928  26.570   3.727
17105W        W80873  44.869  40.984  14.380
17106W        W80874  18.088  16.809   3.174
17107W        W80875  18.548  40.493   1.864
17108W        W80876  26.968  44.278  11.522
17109W        W80877  21.109  23.225   0.930
17110W        W80878  11.316  15.758   1.910
17111W        W80879  42.930  25.620  12.913
17112W        W80880  40.307  31.102  11.904
17113W        W80881  37.921   3.945   1.312
17114W        W80882  41.835   8.250   2.830
17115W        W80883  12.704  15.630   5.170
17116W        W80884  35.996  28.094  13.939
17117W        W80885  16.104  16.588  11.981
17118W        W80886  21.550  13.827   2.409
17119W        W80887  32.625   8.336   4.208
17120W        W80888  37.569  39.825  10.584
17121W        W80889  37.017  39.357  13.442
17122W        W80890  16.797  43.424   0.958
17123W        W80891  44.886  12.149  13.332
17124W        W80892   9.792  25.040  13.468
17125W        W80893  12.649   2.271   2.332
17126W        W80894  19.136  24.063   4.236
17127W        W80895  39.823  18.185   4.195
17128W        W80896  28.122  24.029   0.964
17129W        W80897  38.829  13.675   0.343
17130W        W80898  26.569  15.118  10.907
17131W        W80899  14.148  20.575  11.474
17132W        W80900  17.618  29.521  11.073
17133W        W80901  15.639  34.045   3.702
17134W        W80902  22.694  11.171   4.830
17135W        W80903  12.784  31.068  12.071
17136W        W80904  14.261  21.672  11.923
17137W        W80905  41.810  29.061   9.962
17138W        W80906  42.987  20.260   0.252
17139W        W80907  40.922  22.666   0.456
17140W        W80908  37.457   1.947   3.702
17141W        W80909  10.792  13.759   3.858
17142W        W80910  23.236  14.166   3.741
17143W        W80911  29.608  31.106   1.814
17144W        W80912  35.959  21.715  13.458
17145W        W80913  36.899  30.524  13.383
17146W        W80914   1.736   5.256   2.328
17147W        W80915  17.073  40.887   2.192
17148W        W80916  30.100  25.189  12.540
17149W        W80917  41.865  10.659  12.445
17150W        W80918  11.789   2.825  12.029
17151W        W80919   0.444  13.727  11.003
17152W        W80920   1.334  14.170   2.351
17153W        W80921  43.004  34.509  14.407
17154W        W80922  40.441   5.345  11.908
17155W        W80923  32.894  39.469   0.882
17156W        W80924  33.907  16.259  13.376
17157W        W80925  39.505  25.553   1.336
17158W        W80926  19.580   8.815  11.508
17159W        W80927  17.682  43.295   1.881
17160W        W80928  36.074   7.334  11.440
17161W        W80929  30.934  39.050  13.846
17162W        W80930  22.719  29.989  12.510
17163W        W80931  31.145  19.691  11.539
17164W        W80932   4.784  10.779   0.871
17165W        W80933   5.198  37.909  11.068
17166W        W80934   9.179  33.520  10.430
17167W        W80935  14.244  32.935   3.199
17168W        W80936  35.954  17.721   2.853
17169W        W80937  40.957  25.690  13.391
17170W        W80938   6.384  37.922   1.910
17171W        W80939  31.575   7.204   4.692
17172W        W80940  33.505  25.171  14.889
17173W        W80941  19.130  27.186  10.467
17174W        W80942   2.762  32.891   4.265
17175W        W80943  37.000  16.203  12.474
17176W        W80944  14.598  12.761  13.062
17177W        W80945   2.281  43.778   3.755
17178W        W80946  14.622  34.003   4.777
17179W        W80947  11.133  36.869  10.634
17180W        W80948   0.793  25.216  11.534
17181W        W80949  39.055  18.113  12.379
17182W        W80950  24.006  41.337  14.968
17183W        W80951  38.511  22.612  12.514
17184W        W80952  25.669  30.508   1.804
17185W        W80953  28.656   9.239  11.870
17186W        W80954  29.428  16.124   1.893
17187W        W80955  15.652  15.219  13.958
17188W        W80956  35.951  36.095  10.977
17189W        W80957  18.103   4.771  14.023
17190W        W80958  32.007  28.147  14.836
17191W        W80959  31.407  29.468   1.797
17192W        W80960  18.140  17.655   0.839
17193W        W80961  31.992  21.128  13.841
17194W        W80962  32.512  44.371   2.252
17195W        W80963  38.485  38.472  10.444
17196W        W80964  15.785  20.671   1.271
17197W        W80965  43.795  27.579   1.412
17198W        W80966   9.663  17.117   2.232
17199W        W80967  34.041  13.811  13.861
17200W        W80968  30.587   5.374  13.840
17201W        W80969  26.008  21.061   3.273
17202W        W80970  11.662  15.771  14.344
17203W        W80971  40.895   1.882  12.417
17204W        W80972   8.691   4.261   2.889
17205W        W80973  35.585  37.952   0.243
17206W        W80974  24.665  34.018   3.237
17207W        W80975  42.491   7.417   3.332
17208W        W80976  33.470  21.225  10.505
17209W        W80977   5.700   0.911  13.815
17210W        W80978   4.754  41.851  13.430
17211W        W80979   9.887  14.311  11.565
17212W        W80980  35.526  30.058   1.783
17213W        W80981  33.405  29.080  11.459
17214W        W80982  11.129  23.076   0.357
17215W        W80983   3.420   5.273  13.484
17216W        W80984  25.578  26.037   3.312
17217W        W80985  37.026  27.976   0.324
17218W        W80986  33.938  19.071   3.828
17219W        W80987  18.126   9.347   2.227
17220W        W80988  22.511  20.125   2.221
17221W        W80989   6.250   9.172  10.945
17222W        W80990  25.550  18.689  13.998
17223W        W80991  21.530  12.184  11.894
17224W        W80992  27.066  36.516  10.962
17225W        W80993   1.358  38.446  12.345
17226W        W80994  22.188   0.485   1.309
17227W        W80995  39.930  41.437  10.482
17228W        W80996  37.564  33.965  12.450
17229W        W80997  38.843   0.761  13.896
17230W        W80998  21.694  30.615  14.012
17231W        W80999  40.877  38.826   0.863
17232W        W81000  10.265  37.069   9.925
17233W        W81001  42.857  23.239   0.942
17234W        W81002  24.593  32.035  13.946
17235W        W81003  36.885  22.668  11.452
17236W        W81004   0.866  36.894  14.887
17237W        W81005  27.022  35.429  13.828
17238W        W81006   1.861  32.475  12.084
17239W        W81007  14.312  15.129  13.872
17240W        W81008  34.951  22.560   1.874
17241W        W81009  20.610  19.627  10.405
17242W        W81010  22.702  12.221  12.509
17243W        W81011  11.824  24.693   1.349
17244W        W81012  21.604   7.841  10.416
17245W        W81013   4.745  12.155   2.812
17246W        W81014  24.143  36.439  14.800
17247W        W81015  26.583  29.073  13.996
17248W        W81016  34.590  15.627  10.994
17249W        W81017   3.274  26.191   1.325
17250W        W81018  43.956   7.883  10.578
17251W        W81019  36.477  29.942  13.022
17252W        W81020   4.304  21.513  11.871
17253W        W81021   4.275  22.668  12.479
17254W        W81022  12.168   3.410   4.682
17255W        W81023  44.429  43.357  13.469
17256W        W81024   4.773  39.989   0.252
17257W        W81025  43.774  32.412   0.346
17258W        W81026  17.160   0.964  14.342
17259W        W81027  43.809  17.115   3.725
17260W        W81028  23.138  41.344   1.231
17261W        W81029  36.039  26.550   1.851
17262W        W81030   2.333  15.121  13.907
17263W        W81031  25.545  41.450   1.828
17264W        W81032   5.816  22.043  12.473
17265W        W81033   7.359  31.967   2.850
17266W        W81034  38.372  36.463  14.861
17267W        W81035  32.064  23.679   0.794
17268W        W81036  30.129  24.038   0.466
17269W        W81037  41.515  41.313  13.875
17270W        W81038  41.497   1.759   2.364
17271W        W81039  44.462  44.988  14.280
17272W        W81040  25.117  10.791   4.138
17273W        W81041  36.506  20.033  12.506
17274W        W81042  37.889  21.529  12.009
17275W        W81043  41.845  42.412  10.962
17276W        W81044  18.169  10.338  10.906
17277W        W81045  32.487  23.635   5.225
17278W        W81046   8.830   3.215  14.863
17279W        W81047  35.884   1.286  13.000
17280W        W81048  31.566  12.187   1.916
17281W        W81049  44.446  14.205   9.957
17282W        W81050  27.004  18.206   4.779
17283W        W81051  11.146  28.582  14.920
17284W        W81052  32.563   6.318  11.973
17285W        W81053  15.595  21.661  11.011
17286W        W81054   2.803  34.981   0.920
17287W        W81055  37.421  34.971  10.421
17288W        W81056   5.284  18.055  11.544
17289W        W81057   4.934  24.078   1.256
17290W        W81058  42.325  44.863  10.633
17291W        W81059  18.642   6.821  11.117
17292W        W81060  24.577  26.527  11.484
17293W        W81061   9.773  29.119  13.977
17294W        W81062   8.879  35.438  14.867
17295W        W81063  40.489   2.935  11.045
17296W        W81064   9.857  39.931   2.255
17297W        W81065  26.644  23.163   4.690
17298W        W81066  41.355  22.534   0.762
17299W        W81067  23.557  38.052  10.497
17300W        W81068  17.739  23.504  11.373
17301W        W81069  43.488   5.233   4.347
17302W        W81070  22.177  39.951  14.926
17303W        W81071  20.652  24.016  11.017
17304W        W81072  19.744   0.757   0.889
17305W        W81073  21.217   1.789  12.433
17306W        W81074  30.545  35.035   2.334
17307W        W81075   8.251  44.295  12.909
17308W        W81076  22.636   4.860  14.472
17309W        W81077  12.302  35.470  12.500
17310W        W81078  20.212   4.825  10.423
17311W        W81079  33.045  28.665   3.295
17312W        W81080  25.474  37.428   1.915
17313W        W81081  10.700   3.725  13.474
17314W        W81082  32.059  20.648   4.707
17315W        W81083   5.910  29.929   3.202
17316W        W81084   7.720  15.690  14.026
17317W        W81085  43.331  40.881  10.595
17318W        W81086  28.105  27.116  12.342
17319W        W81087  30.064  17.561  12.406
17320W        W81088  35.002   1.857   0.417
17321W        W81089  24.117  17.072   3.836
17322W        W81090  14.710  13.707   2.723
17323W        W81091   9.210   4.935  11.473
17324W        W81092  23.044  30.031   3.313
17325W        W81093  15.140  35.020  14.488
17326W        W81094   3.411  35.006  12.992
17327W        W81095  41.467   5.757  13.794
17328W        W81096  21.746  42.318   4.193
17329W        W81097   5.212  32.520   3.256
17330W        W81098   0.748  39.481  10.620
17331W        W81099  19.710  19.547  10.580
17332W        W81100  25.997   3.345   4.607
17333W        W81101  21.526  35.399   1.779
17334W        W81102  44.975   2.237  14.499
17335W        W81103  29.938  28.459   0.785
17336W        W81104  42.431  18.591   3.180
17337W        W81105  23.712  25.079   3.629
17338W        W81106  18.070   7.283  11.607
17339W        W81107   2.376  24.685  10.965
17340W        W81108  21.620  33.448  10.890
17341W        W81109  26.129  27.484   0.361
17342W        W81110  31.078  19.064  12.427
17343W        W81111  23.150  16.626   2.221
17344W        W81112   3.355   6.305   2.297
17345W        W81113  29.460  40.468   0.481
17346W        W81114  12.168   9.712   4.765
17347W        W81115   3.305  36.921  14.347
17348W        W81116  32.982  33.983   0.733
17349W        W81117  19.155  11.731  14.415
17350W        W81118  29.538  15.647  11.999
17351W        W81119  21.674   5.920  10.567
17352W        W81120  41.473   1.738  11.549
17353W        W81121   0.775  40.319   4.164
17354W        W81122  30.089  21.188  13.449
17355W        W81123  16.298   5.298   1.345
17356W        W81124  35.546  13.317  14.819
17357W        W81125  26.536  33.072  12.424
17358W        W81126  38.332   4.369  12.919
17359W        W81127   0.409   1.419  12.365
17360W        W81128  31.547  42.367  13.919
17361W        W81129  35.964   4.406   2.850
17362W        W81130  32.014  16.198   1.450
17363W        W81131  18.170  19.582   4.751
17364W        W81132  18.135   1.743   3.189
17365W        W81133  15.215  26.966   1.870
17366W        W81134  23.608  30.534  14.444
17367W        W81135  40.456   8.737   0.738
17368W        W81136  27.539  17.694  13.339
17369W        W81137  29.961  15.164   4.166
17370W        W81138  21.137  36.414   5.163
17371W        W81139   6.855   4.810  12.472
17372W        W81140   0.762  19.139   4.227
17373W        W81141  32.571   2.449   4.834
17374W        W81142  39.996  10.249   4.350
17375W        W81143  25.587  39.531  14.758
17376W        W81144  38.456  42.472  11.587
17377W        W81145  18.135  39.842   1.709
17378W        W81146  22.535  12.762  11.895
17379W        W81147  31.621  26.569   1.800
17380W        W81148   6.198  28.488   0.885
17381W        W81149  38.053   5.426  10.459
17382W        W81150   0.387  23.185   2.881
17383W        W81151  35.459  38.942   2.390
17384W        W81152  28.664   5.821  12.500
17385W        W81153   6.834   2.836  12.076
17386W        W81154  31.498  30.059   1.339
17387W        W81155   0.406   6.323  14.305
17388W        W81156   2.304  14.327   5.285
17389W        W81157  12.311   0.339  11.504
17390W        W81158   4.747   0.277  11.454
17391W        W81159  41.526  44.962  11.879
17392W        W81160   8.313  38.325   2.720
17393W        W81161  11.813   9.286  11.593
17394W        W81162  35.039  28.620   4.323
17395W        W81163  43.473  21.152   1.864
17396W        W81164  12.779  38.545  12.037
17397W        W81165  16.597   6.199   4.178
17398W        W81166  43.998  17.114   0.818
17399W        W81167  42.424  42.795  14.856
17400W        W81168  44.899  28.484  12.026
17401W        W81169  27.546  26.640  14.423
17402W        W81170  43.424  17.561   3.662
17403W        W81171  39.496   6.222   0.914
17404W        W81172   4.820   4.258   1.450
17405W        W81173  32.076   9.701   3.837
17406W        W81174  20.221  37.889  10.550
17407W        W81175   5.711  10.745   0.251
17408W        W81176   3.836  42.893  12.460
17409W        W81177  40.830  37.004   1.388
17410W        W81178  35.941   3.373   4.239
17411W        W81179  26.623  42.497  13.406
17412W        W81180  12.258  37.483  10.138
17413W        W81181   9.687  23.105  12.432
17414W        W81182  19.169   2.752  12.051
17415W        W81183  41.332  28.947   9.970
17416W        W81184  16.659  28.049   1.841
17417W        W81185   9.759  10.201  13.810
17418W        W81186  33.067  28.490   0.414
17419W        W81187  15.698  21.548   2.873
17420W        W81188  22.073  21.600  12.904
17421W        W81189  39.430   3.913  10.453
17422W        W81190  30.114  26.004  12.040
17423W        W81191   0.810  39.355   1.281
17424W        W81192  36.093  33.075   4.629
17425W        W81193  20.551  13.163   4.651
17426W        W81194   2.298   0.884   2.405
17427W        W81195  37.895  31.066  14.369
17428W        W81196  40.543  17.628  11.558
17429W        W81197  27.460  40.379  14.994
17430W        W81198  23.107   6.812   0.348
17431W        W81199  39.047  16.302  14.435
17432W        W81200  43.897  16.227   4.788
17433W        W81201  13.814  32.900  10.544
17434W        W81202  32.412  18.612   1.292
17435W        W81203   2.935  15.119  12.974
17436W        W81204  19.758   7.353  13.895
17437W        W81205   8.280   1.960  13.027
17438W        W81206  19.212  44.995   0.459
17439W        W81207  35.872  24.071  10.618
17440W        W81208  31.531  17.144  14.443
17441W        W81209  37.548   5.849   1.789
17442W        W81210  17.121   1.761   0.777
17443W        W81211  44.005  21.097  10.459
17444W        W81212  42.799  16.200  12.347
17445W        W81213  11.324  32.440  14.286
17446W        W81214  15.642  29.569  13.360
17447W        W81215  17.565   8.880  11.403
17448W        W81216  22.677   0.878  12.904
17449W        W81217  31.493  17.688   0.964
17450W        W81218  41.427  25.157  10.444
17451W        W81219  22.228  19.114  14.875
17452W        W81220  34.613  13.267  10.996
17453W        W81221  19.112  10.184  11.975
17454W        W81222   4.315  23.028   1.314
17455W        W81223  39.894   9.280   9.951
17456W        W81224  19.136  24.494  12.408
17457W        W81225  28.531   0.415   0.748
17458W        W81226  40.320  20.118   3.192
17459W        W81227  37.843  32.970  12.914
17460W        W81228  44.320   9.775   0.949
17461W        W81229  19.540  17.630  11.533
17462W        W81230  22.106  17.145   3.306
17463W        W81231  27.135  19.185   3.331
17464W        W81232   4.283  31.130   3.822
17465W        W81233  44.974  14.333  10.478
17466W        W81234  29.131  17.083   1.837
17467W        W81235  13.780  31.926  10.568
17468W        W81236  12.677  25.047   1.432
17469W        W81237  35.038   7.328   3.851
17470W        W81238  19.592  34.037  13.912
17471W        W81239  20.180  16.187   1.870
17472W        W81240  25.119  25.144  11.883
17473W        W81241  13.614  15.223   2.795
17474W        W81242  43.283  14.696  11.589
17475W        W81243  19.765  40.899  11.924
17476W        W81244  17.263  35.374   1.438
17477W        W81245  12.786  44.928   0.455
17478W        W81246  35.504  42.858  14.783
17479W        W81247  36.017   2.821   0.945
17480W        W81248  14.642  15.731  11.410
17481W        W81249  21.732  28.975   4.326
17482W        W81250  35.520  21.021  14.812
17483W        W81251  25.626  19.638  11.441
17484W        W81252   8.876   3.407  10.554
17485W        W81253   0.776  15.185  13.822
17486W        W81254  22.733  35.011  10.890
17487W        W81255  32.434  17.273   0.414
17488W        W81256   4.360  43.326  10.483
17489W        W81257  37.508  19.703   2.687
17490W        W81258  15.186  18.139   1.933
17491W        W81259  44.284  19.617  10.433
17492W        W81260  19.699   0.765  14.433
17493W        W81261  10.237  21.240  13.527
17494W        W81262  32.095  22.596  13.038
17495W        W81263  18.706  28.076  13.944
17496W        W81264  25.535  40.046  14.858
17497W        W81265  21.736  11.295  13.802
17498W        W81266   7.715   1.796  14.456
17499W        W81267   2.769  42.356   0.426
17500W        W81268  14.777  42.464  13.334
17501W        W81269  18.746  13.329  12.549
17502W        W81270  24.992   1.329   0.373
17503W        W81271  24.683  23.551   3.819
17504W        W81272  33.522  11.842  13.313
17505W        W81273  33.519  34.551   0.449
17506W        W81274   9.793  32.910   3.669
17507W        W81275  22.168  38.990  11.049
17508W        W81276  28.564  17.123  11.017
17509W        W81277   0.806   5.876   3.155
17510W        W81278  27.055  23.638  12.523
17511W        W81279  29.498   7.356   0.842
17512W        W81280   0.872  26.526  13.891
17513W        W81281  29.515  32.033  11.944
17514W        W81282  16.758  44.463  14.450
17515W        W81283   5.931   1.753   3.661
17516W        W81284  11.763   5.712   2.319
17517W        W81285   8.170  18.761   4.754
17518W        W81286  44.862   6.761   2.713
17519W        W81287  32.503  22.067  12.991
17520W        W81288  25.573  31.108  11.067
17521W        W81289  32.021  11.690   4.601
17522W        W81290   4.219  26.987  13.526
17523W        W81291   0.934  14.128  10.404
17524W        W81292  26.984  22.686   3.365
17525W        W81293  44.497  29.476  10.478
17526W        W81294  26.187  10.208   2.829
17527W        W81295  32.604  23.078  12.978
17528W        W81296  17.101   6.301  10.889
17529W        W81297   5.309  44.898  11.401
17530W        W81298   7.198   4.213   2.844
17531W        W81299  20.687   2.279   1.396
17532W        W81300  29.951   7.250  12.440
17533W        W81301  12.771  16.216   3.151
17534W        W81302  35.514  40.517   2.818
17535W        W81303  29.465  33.420  12.521
17536W        W81304  17.149  33.384   0.833
17537W        W81305  13.141  33.959  13.318
17538W        W81306  36.438  43.833  14.365
17539W        W81307  20.697   5.748  11.080
17540W        W81308  24.101  39.916   9.970
17541W        W81309  13.837  19.637  11.515
17542W        W81310  21.251  16.096   3.865
17543W        W81311  35.546  25.656   4.177
17544W        W81312  18.070  32.039   3.227
17545W        W81313  35.414  12.159  12.569
17546W        W81314  42.029  44.333  11.959
17547W        W81315  24.002  43.331   0.402
17548W        W81316  27.492  30.453  14.927
17549W        W81317   0.360  21.117   4.259
17550W        W81318  28.648  34.905   5.246
17551W        W81319  23.620  33.619   1.829
17552W        W81320  23.025  17.591  12.525
17553W        W81321  13.753   2.871   3.762
17554W        W81322   0.777  21.690   3.383
17555W        W81323   6.266  20.691   3.282
17556W        W81324  24.576  40.800   2.719
17557W        W81325  40.803  15.288   1.856
17558W        W81326  25.471  11.198  12.059
17559W        W81327  15.299  14.639  14.284
17560W        W81328  31.553   6.357   2.212
17561W        W81329   3.944  26.123   0.883
17562W        W81330  30.141  26.988   2.890
17563W        W81331  25.671  12.329  12.508
17564W        W81332   5.195  29.451   3.153
17565W        W81333   3.222   7.826  13.403
17566W        W81334  43.326   5.275  13.828
17567W        W81335  16.157  15.125  14.838
17568W        W81336  25.083  17.706   3.334
17569W        W81337  16.085  42.908  10.974
17570W        W81338  33.580   4.940  11.107
17571W        W81339  17.629  22.190  12.080
17572W        W81340  44.502  36.036  11.552
17573W        W81341  33.485  38.822  10.567
17574W        W81342  42.800  37.462  14.889
17575W        W81343  43.805   8.798  13.353
17576W        W81344  33.609  25.492  11.539
17577W        W81345   8.242  42.931   2.204
17578W        W81346  27.568  37.967  13.974
17579W        W81347   0.850  23.597  12.560
17580W        W81348  40.536  17.195  14.514
17581W        W81349  22.083  42.483   0.331
17582W        W81350  30.915  24.482   2.248
17583W        W81351  22.670  29.481  14.305
17584W        W81352   5.873  25.637  12.518
17585W        W81353  15.634  43.501   2.820
17586W        W81354   5.340  24.493  10.487
17587W        W81355  38.377  27.545  10.143
17588W        W81356  32.596  25.122  12.898
17589W        W81357  43.332  26.635   4.685
17590W        W81358   0.345  14.198   2.784
17591W        W81359  30.582  25.206   1.424
17592W        W81360  11.635  42.790   4.203
17593W        W81361  11.657  25.700  10.544
17594W        W81362  16.743  36.870  12.846
17595W        W81363  41.495  28.034  13.887
17596W        W81364  32.602  44.917   1.726
17597W        W81365  13.334   7.864  12.987
17598W        W81366  16.662  33.960  14.455
17599W        W81367  17.255  43.452  14.423
17600W        W81368  31.994  23.166  13.040
17601W        W81369   9.224  16.199   1.850
17602W        W81370  19.535  23.111  13.883
17603W        W81371  15.648  28.562  14.383
17604W        W81372  19.185  43.951  13.876
17605W        W81373   8.397  25.175   2.244
17606W        W81374  19.057   4.256   4.171
17607W        W81375  19.628  12.165   1.740
17608W        W81376  22.747   9.295   4.236
17609W        W81377   9.759   8.770  13.026
17610W        W81378  20.591  32.413   1.234
17611W        W81379   9.741  23.498  13.995
17612W        W81380   7.714  28.644  12.086
17613W        W81381  26.063  39.337  10.974
17614W        W81382  17.793  31.586   9.936
17615W        W81383   2.962  21.635   1.887
17616W        W81384   0.868  11.221  10.415
17617W        W81385  24.602  42.830   4.609
17618W        W81386   3.845  31.985   4.654
17619W        W81387  18.053  23.103  14.894
17620W        W81388  30.530  25.131   1.860
17621W        W81389  37.473  11.321  12.096
17622W        W81390   6.416  18.064   3.155
17623W        W81391   6.334  28.119   3.642
17624W        W81392  14.625  20.649   4.269
17625W        W81393  17.565   7.369  10.468
17626W        W81394   0.823  44.786  11.085
17627W        W81395  36.562   4.310  12.514
17628W        W81396   7.813  13.215  11.524
17629W        W81397  32.530  13.184   2.730
17630W        W81398  41.520  13.692  14.867
17631W        W81399   2.237  42.974  10.592
17632W        W81400  16.291  31.588  10.596
17633W        W81401  43.019   1.817   4.599
17634W        W81402  24.157   6.238  12.559
17635W        W81403   4.767  23.116   3.713
17636W        W81404   1.783   0.285  12.052
17637W        W81405  27.960  37.053   4.684
17638W        W81406  25.544  17.207  12.488
17639W        W81407  23.532  13.681  11.122
17640W        W81408  24.161  29.039   3.671
17641W        W81409  20.764  20.102   3.840
17642W        W81410  33.527  29.668   0.407
17643W        W81411  19.661  31.962   2.206
17644W        W81412  26.082  12.805  12.994
17645W        W81413  10.329  41.359   2.668
17646W        W81414   5.276  42.281  12.926
17647W        W81415  22.563  40.952  11.392
17648W        W81416   0.433  25.150  10.915
17649W        W81417  41.324  25.496  12.949
17650W        W81418  38.054  36.928  11.603
17651W        W81419   6.792  44.381  14.790
17652W        W81420  22.196  32.893   2.887
17653W        W81421  26.973  10.359  11.593
17654W        W81422  17.566   6.382   3.815
17655W        W81423  41.302  30.153  11.119
17656W        W81424  14.166  44.500   2.195
17657W        W81425  29.593   4.353   1.327
17658W        W81426  43.869   2.878  10.450
17659W        W81427  13.637  16.123  13.452
17660W        W81428  42.962   6.325   5.102
17661W        W81429   4.346   1.895  14.494
17662W        W81430  44.934  31.503   0.790
17663W        W81431   8.185  12.236   2.832
17664W        W81432  36.939  13.339   4.758
17665W        W81433  26.058  20.733  14.482
17666W        W81434   9.720  11.154   9.925
17667W        W81435  13.689   8.295  12.513
17668W        W81436  15.784   6.323   4.263
17669W        W81437  40.507  22.679   0.407
17670W        W81438  28.512  18.246  11.391
17671W        W81439  43.795  42.859  14.762
17672W        W81440  11.189  22.152   3.324
17673W        W81441   7.688  17.731  11.473
17674W        W81442  31.458   1.476  12.988
17675W        W81443  15.722  32.434  14.017
17676W        W81444  20.257  15.127  13.426
17677W        W81445  18.578   3.425  10.446
17678W        W81446  30.658  21.061   1.212
17679W        W81447  14.678  22.124   3.682
17680W        W81448  18.291   5.339   1.696
17681W        W81449  40.963  22.622   4.639
17682W        W81450  32.048  14.210  12.354
17683W        W81451   7.405  16.189  11.858
17684W        W81452  44.326  13.122   5.139
17685W        W81453  37.908  18.160   0.770
17686W        W81454  44.767  15.285  14.466
17687W        W81455  19.253  17.711  10.986
17688W        W81456  38.553  24.007   2.888
17689W        W81457  33.083  35.359  10.591
17690W        W81458  17.264  42.509  12.018
17691W        W81459  19.074  39.028   0.457
17692W        W81460  19.222  27.457  13.435
17693W        W81461  43.389   5.763  13.851
17694W        W81462  23.719  34.613   4.278
17695W        W81463  23.695  20.632   2.841
17696W        W81464  16.089  35.459   2.695
17697W        W81465  15.713   5.214   2.747
17698W        W81466  21.231  41.792  13.833
17699W        W81467  12.785  20.533  12.514
17700W        W81468  44.366  43.831   3.256
17701W        W81469  35.439  27.008   4.229
17702W        W81470  20.166   7.352   0.309
17703W        W81471  25.132  21.518   0.379
17704W        W81472   0.440  10.150  11.951
17705W        W81473  34.550  39.439  10.631
17706W        W81474   5.413  39.334   0.466
17707W        W81475  25.694  18.584  14.484
17708W        W81476   2.297  41.356   3.387
17709W        W81477  30.123  15.691  10.909
17710W        W81478   6.409  42.931   1.429
17711W        W81479  35.078   3.790   2.209
17712W        W81480  21.757  28.096   4.192
17713W        W81481  12.235   2.247   2.754
17714W        W81482  30.946  18.057   4.200
17715W        W81483   1.480  33.625  10.585
17716W        W81484   7.234  12.638   3.780
17717W        W81485  14.324  44.476  14.343
17718W        W81486   3.400  16.178   3.831
17719W        W81487  10.698  34.436   1.717
17720W        W81488   2.392  33.525   0.803
17721W        W81489  16.686  34.885   9.538
17722W        W81490  40.839  10.286  10.633
17723W        W81491  19.572  36.447   2.676
17724W        W81492  25.997   3.318  14.446
17725W        W81493  39.889  16.150  12.362
17726W        W81494  27.028   8.832   2.732
17727W        W81495  13.155   0.987   2.367
17728W        W81496  11.852   9.798  11.080
17729W        W81497  12.285  11.785   5.188
17730W        W81498  36.037  32.134   1.771
17731W        W81499  14.699  44.281  11.380
17732W        W81500  13.166   7.902  11.042
17733W        W81501  30.940  25.675   4.191
17734W        W81502  26.591  30.913   2.233
17735W        W81503  31.089   3.441  12.507
17736W        W81504  43.787   3.229   4.659
17737W        W81505  33.952  43.398   0.951
17738W        W81506  13.706  42.320  14.838
17739W        W81507   3.856  10.229   2.208
17740W        W81508  13.818  13.660  11.520
17741W        W81509  21.109  43.963  13.442
17742W        W81510  42.791  44.261   2.696
17743W        W81511  34.435  18.605  13.362
17744W        W81512  15.239  17.164   4.283
17745W        W81513  19.573  35.063  11.966
17746W        W81514   2.310  37.021  12.028
17747W        W81515   3.290   2.740  11.513
17748W        W81516  36.063  41.016  10.634
17749W        W81517  32.530  12.224   2.230
17750W        W81518   7.696  41.026   4.635
17751W        W81519  20.072  23.645  10.588
17752W        W81520   3.774  14.696  11.026
17753W        W81521   5.198  22.689  14.346
17754W        W81522  39.035  31.523  11.039
17755W        W81523  27.581  35.595  10.091
17756W        W81524   3.332  17.638  12.394
17757W        W81525  22.057  26.108  14.024
17758W        W81526  19.718   2.286  11.983
17759W        W81527  20.253  17.267  11.468
17760W        W81528  23.011   0.876   4.186
17761W        W81529  27.538  38.490  13.993
17762W        W81530  43.838  12.259   2.814
17763W        W81531  40.350  38.460   3.294
17764W        W81532  37.036  37.436  14.462
17765W        W81533  23.241  33.538  13.043
17766W        W81534  10.671  31.996  10.964
17767W        W81535   4.361   1.746  14.787
17768W        W81536  40.428  37.488  14.886
17769W        W81537  39.930   1.767  14.478
17770W        W81538  41.989  25.681   2.824
17771W        W81539  19.091  17.761  14.366
17772W        W81540   2.887   4.755   4.700
17773W        W81541  15.751  29.429   1.329
17774W        W81542  38.540   9.247  12.992
17775W        W81543  38.944   9.815  12.541
17776W        W81544  30.601  25.113   0.257
17777W        W81545  24.143  40.022   1.252
17778W        W81546  18.605  15.814   4.158
17779W        W81547   2.242  31.551  10.558
17780W        W81548   5.288  10.209   2.414
17781W        W81549  10.255   1.967  11.438
17782W        W81550   1.779  30.502   4.656
17783W        W81551  16.282  12.318   1.772
17784W        W81552  40.936  34.413   4.786
17785W        W81553  35.906   3.231   3.756
17786W        W81554  24.008  11.273  12.456
17787W        W81555   8.176  38.434  12.959
17788W        W81556   7.762   1.790   0.825
17789W        W81557  24.213  42.847  13.527
17790W        W81558   3.721   1.328   3.757
17791W        W81559   2.747   2.361  10.612
17792W        W81560  18.230   3.425  12.341
17793W        W81561  11.372  28.143  13.492
17794W        W81562  12.726  15.259   5.141
17795W        W81563  16.702   0.853   2.744
17796W        W81564  21.185   3.408   0.348
17797W        W81565   6.834  22.054  12.381
17798W        W81566   6.275   4.246   3.811
17799W        W81567  12.227   6.767   1.735
17800W        W81568  32.941  13.682   3.246
17801W        W81569  31.065  20.677  10.909
17802W        W81570  17.281  44.444  14.958
17803W        W81571  42.503   8.392   1.410
17804W        W81572  42.319  37.406   3.741
17805W        W81573  43.961  35.499   4.702
17806W        W81574   6.886   5.366   4.160
17807W        W81575  43.460   8.208   0.876
17808W        W81576   8.838   0.393   0.400
17809W        W81577  31.584  15.809   4.724
17810W        W81578   2.350   9.786   3.633
17811W        W81579   8.887  25.618  14.779
17812W        W81580  31.139  16.299  14.423
17813W        W81581  32.916  36.885  14.312
17814W        W81582  22.143  42.461  10.931
17815W        W81583  32.117  41.384   1.297
17816W        W81584   9.150  21.113  12.851
17817W        W81585  40.421  30.965  12.359
17818W        W81586  39.047   1.843   3.831
17819W        W81587  32.077  35.502  11.114
17820W        W81588  14.140   8.373  11.541
17821W        W81589  24.187  42.444  10.471
17822W        W81590   7.223  10.306  13.038
17823W        W81591  12.807   3.954   3.286
17824W        W81592  34.528  43.980  13.992
17825W        W81593  35.989  33.073   1.707
17826W        W81594  39.546  22.679  11.516
17827W        W81595  36.513  19.593   0.296
17828W        W81596  19.126   0.814  11.417
17829W        W81597  25.117  43.293   4.153
17830W        W81598  26.999  42.788   1.259
17831W        W81599  19.195  28.943  14.770
17832W        W81600  14.743   4.865   1.342
17833W        W81601   9.364   6.757   4.789
17834W        W81602  37.467  27.067  13.367
17835W        W81603  42.799  33.031   2.874
17836W        W81604  25.609   4.938  14.907
17837W        W81605   1.794  23.009   1.768
17838W        W81606  27.609  16.622  14.998
17839W        W81607  38.327  30.512  11.403
17840W        W81608   9.364  31.420  14.957
17841W        W81609  24.079  22.058  14.450
17842W        W81610  19.660  34.110   1.911
17843W        W81611  33.969  43.892  12.850
17844W        W81612  24.011  29.981  10.997
17845W        W81613  13.223  26.988  14.292
17846W        W81614  13.232  39.015  14.944
17847W        W81615  23.538   6.321   2.871
17848W        W81616  17.200   8.760  11.475
17849W        W81617  24.219  36.074   1.416
17850W        W81618   1.260   1.908   2.787
17851W        W81619  21.596  26.987  14.988
17852W        W81620   8.791   5.704   2.773
17853W        W81621  17.709   0.258  12.498
17854W        W81622   0.763  16.086   0.446
17855W        W81623  11.721  29.147   1.726
17856W        W81624  26.560  21.620  14.788
17857W        W81625  25.142  28.131   3.726
17858W        W81626  23.564  22.140   0.372
17859W        W81627  35.086   3.790  13.043
17860W        W81628  37.383  39.965   0.437
17861W        W81629  16.125   1.940  13.548
17862W        W81630  10.799   0.337  13.063
17863W        W81631  15.700  31.536   2.405
17864W        W81632  15.755  12.307  10.430
17865W        W81633  27.557  17.678  10.558
17866W        W81634  13.200  33.911   3.368
17867W        W81635   4.274   3.375  12.048
17868W        W81636  44.454  21.645  13.423
17869W        W81637   7.761  16.591   3.319
17870W        W81638  43.876   5.319   1.399
17871W        W81639  14.703  22.098   1.774
17872W        W81640  44.288  40.895   0.836
17873W        W81641  33.601  30.130   4.654
17874W        W81642  17.613  26.668   0.272
17875W        W81643   7.213  28.117  12.845
17876W        W81644  22.667  40.894   2.287
17877W        W81645  17.680  22.026   3.703
17878W        W81646  44.878  41.536   2.242
17879W        W81647  24.056   6.745  13.831
17880W        W81648  33.047  33.011   3.771
17881W        W81649  10.348  14.700   0.481
17882W        W81650  17.670   1.865  14.335
17883W        W81651  10.826  34.114  14.761
17884W        W81652  20.577   8.259  10.626
17885W        W81653  38.373   5.695  12.888
17886W        W81654  10.682  22.084   2.221
17887W        W81655  27.026  30.524  12.524
17888W        W81656  37.534  38.071   2.876
17889W        W81657   1.310  24.715   4.225
17890W        W81658  38.537  30.930   3.718
17891W        W81659  22.177  11.154   4.318
17892W        W81660   8.208   4.702   0.343
17893W        W81661  24.567   2.257   1.326
17894W        W81662  16.729  39.439  10.994
17895W        W81663  37.065  44.902   2.760
17896W        W81664  36.931  32.452   9.995
17897W        W81665   4.437  25.188   3.271
17898W        W81666  11.704  27.509  12.521
17899W        W81667  12.319  25.126  12.364
17900W        W81668  33.101  36.980  13.998
17901W        W81669  12.213  18.251   2.362
17902W        W81670   8.355  39.545   2.326
17903W        W81671   0.945  17.775  14.792
17904W        W81672  26.087  20.091  11.043
17905W        W81673   7.812  42.490   2.283
17906W        W81674  14.177  16.616  12.076
17907W        W81675  30.597  14.767   1.358
17908W        W81676  38.821  23.546   2.704
17909W        W81677  23.215  35.091   1.404
17910W        W81678  41.907  20.243   0.292
17911W        W81679  32.610   5.897   0.449
17912W        W81680  28.079  16.157   2.742
17913W        W81681  39.484   0.417   4.285
17914W        W81682  43.337  16.611  13.439
17915W        W81683   4.338   4.819  11.401
17916W        W81684  30.546  33.493  10.571
17917W        W81685  29.121  14.141  11.559
17918W        W81686  28.184  24.999   4.171
17919W        W81687  28.662  33.033  13.425
17920W        W81688   9.190   5.690  14.923
17921W        W81689  41.898  13.796  12.942
17922W        W81690  21.037  32.074  14.771
17923W        W81691  14.685  26.120  14.863
17924W        W81692  41.518   4.791  14.974
17925W        W81693  23.184   1.414   0.343
17926W        W81694  42.897   0.906  11.494
17927W        W81695  16.605   4.915   1.322
17928W        W81696  32.139  42.865  12.033
17929W        W81697  11.684  41.994   1.785
17930W        W81698   6.300   8.242   2.373
17931W        W81699  38.563  37.458  11.890
17932W        W81700   7.848  42.492  10.474
17933W        W81701   8.254  16.144  12.911
17934W        W81702  44.309  37.432   4.118
17935W        W81703  26.187  30.461  13.805
17936W        W81704  24.606  39.340  11.515
17937W        W81705  34.055  18.593  13.324
17938W        W81706   2.373  14.130   3.858
17939W        W81707  29.939  25.710   4.682
17940W        W81708  29.150   7.241   3.231
17941W        W81709  30.997   6.845   3.859
17942W        W81710  18.237  10.755  13.519
17943W        W81711   0.397  24.663   3.750
17944W        W81712   6.337  18.151   1.368
17945W        W81713  37.830  39.887   3.243
17946W        W81714  27.027   2.305   3.380
17947W        W81715  28.127  34.482   3.207
17948W        W81716  37.378  43.406   3.335
17949W        W81717  32.523  44.447   1.713
17950W        W81718  10.750  36.516  13.527
17951W        W81719   9.687  42.965  13.905
17952W        W81720  20.633  13.231   0.247
17953W        W81721  22.610  34.013  12.920
17954W        W81722  13.225  40.845   4.690
17955W        W81723  25.154  29.951  13.447
17956W        W81724  15.610  23.039  11.921
17957W        W81725   1.405  10.773   3.338
17958W        W81726  12.719  42.900  10.573
17959W        W81727  10.861  38.430  11.410
17960W        W81728  27.044  41.397   5.121
17961W        W81729   3.255  43.774  12.511
17962W        W81730  29.924  14.260   2.785
17963W        W81731  39.042  38.030  11.547
17964W        W81732  43.994  10.281  11.974
17965W        W81733  19.086  10.369   5.211
17966W        W81734  17.108  32.103   3.387
17967W        W81735  41.430   1.832  12.985
17968W        W81736  28.466  14.801   1.918
17969W        W81737  21.755  29.569  12.495
17970W        W81738  28.445  32.936  13.801
17971W        W81739  13.146   4.793  11.540
17972W        W81740  44.002  23.037  10.638
17973W        W81741   0.412  29.971   0.940
17974W        W81742  31.504  14.332   4.777
17975W        W81743  19.573  24.649   3.174
17976W        W81744   5.402   1.910  14.881
17977W        W81745  15.727  21.625  10.561
17978W        W81746  10.739  10.633   2.184
17979W        W81747  25.542  32.117   2.736
17980W        W81748  12.353  14.248   1.781
17981W        W81749  17.704  42.932  13.798
17982W        W81750  24.576   7.195   4.805
17983W        W81751  13.323   8.276   0.745
17984W        W81752   5.403  36.580  14.932
17985W        W81753  10.275  37.533   1.235
17986W        W81754  31.601  37.063  12.069
17987W        W81755  34.416  39.969   3.738
17988W        W81756  39.421  21.251  11.476
17989W        W81757  42.860   2.737   4.679
17990W        W81758   3.416  33.440   3.863
17991W        W81759  33.923  37.524   4.733
17992W        W81760  37.531   1.323   1.394
17993W        W81761  29.126   6.779   0.940
17994W        W81762   4.296   4.254  11.907
17995W        W81763  21.705   9.651   0.262
17996W        W81764   0.484  27.561   2.767
17997W        W81765  23.081  36.559   2.789
17998W        W81766   3.921  28.439   0.303
17999W        W81767  40.821   1.966   3.385
18000W        W81768  13.348  35.004   1.914
18001W        W81769  27.508  21.544   2.709
18002W        W81770  28.650  41.315  11.398
18003W        W81771  34.583  26.524   4.606
18004W        W81772   7.305  42.873  10.565
18005W        W81773  15.101   0.362  11.560
18006W        W81774  17.233  14.250   3.762
18007W        W81775  36.504  13.147  11.897
18008W        W81776   2.465  39.435  12.040
18009W        W81777  30.044  23.520   0.467
18010W        W81778  10.734  39.408  13.452
18011W        W81779  13.627  36.060  11.015
18012W        W81780  21.155  10.857   3.662
18013W        W81781  27.957  25.616  12.476
18014W        W81782  12.173   6.205   4.805
18015W        W81783  38.890  34.574   2.260
18016W        W81784  24.009  33.474  12.970
18017W        W81785  42.291   9.723   0.847
18018W        W81786  24.184  16.317   1.266
18019W        W81787   1.466  28.582  13.926
18020W        W81788  15.725  40.871   1.733
18021W        W81789  34.913  25.045   4.606
18022W        W81790  11.807  43.375   3.218
18023W        W81791  41.957  11.128  11.970
18024W        W81792  21.669  38.958   9.965
18025W        W81793  24.603  43.786   1.812
18026W        W81794   5.438   1.352   1.221
18027W        W81795  31.520   3.710  10.444
18028W        W81796  25.188  37.945   0.352
18029W        W81797  41.530  38.465  11.418
18030W        W81798  25.698  26.598   2.679
18031W        W81799  17.071  10.814   4.823
18032W        W81800  39.015   7.731  13.387
18033W        W81801  14.646  19.581   1.269
18034W        W81802   3.937  32.491  14.850
18035W        W81803   9.714  29.103   4.226
18036W        W81804  24.174  42.407   4.736
18037W        W81805  30.949  27.604  14.801
18038W        W81806   6.302  11.866   1.835
18039W        W81807   0.373  21.619   2.409
18040W        W81808  17.130   5.378  12.520
18041W        W81809  13.797  43.786  10.896
18042W        W81810  27.520   7.236  14.454
18043W        W81811  18.666  16.701  11.921
18044W        W81812  39.383  28.024   3.644
18045W        W81813  35.107   6.797  11.611
18046W        W81814  29.670  38.922  14.375
18047W        W81815  19.625   8.822   1.762
18048W        W81816  36.877   1.947  14.891
18049W        W81817  37.538   7.900  11.874
18050W        W81818   4.918  26.962   4.209
18051W        W81819  42.285  26.565   0.297
18052W        W81820   3.901  37.465   1.883
18053W        W81821   1.313  12.285  12.063
18054W        W81822  33.064   5.911  12.984
18055W        W81823  12.725   2.898  13.946
18056W        W81824  12.626  37.938  14.332
18057W        W81825  35.473  35.493   2.817
18058W        W81826   1.340  20.213  11.501
18059W        W81827  31.032   1.808  11.588
18060W        W81828   4.303  25.647   2.193
18061W        W81829  19.065   1.853  12.365
18062W        W81830  26.107   1.409   3.182
18063W        W81831  34.487  43.421   0.431
18064W        W81832  41.357   9.806  13.353
18065W        W81833  37.830  10.242  11.549
18066W        W81834   2.332  28.965  10.015
18067W        W81835  31.966  15.651   3.678
18068W        W81836  41.805  11.789   4.606
18069W        W81837  36.455  10.712   2.706
18070W        W81838  37.350   5.380  14.872
18071W        W81839  27.149  16.211  10.994
18072W        W81840  21.614  16.656  12.833
18073W        W81841   0.462  11.739  10.942
18074W        W81842   5.193   4.396   0.771
18075W        W81843  28.512  35.526  11.092
18076W        W81844   6.725  33.936  14.909
18077W        W81845  23.007  27.080  12.876
18078W        W81846   9.327  13.285   2.759
18079W        W81847  22.195  27.510  13.921
18080W        W81848  39.536  27.473  13.515
18081W        W81849  34.002   7.383  12.906
18082W        W81850  10.841   6.371   2.723
18083W        W81851  40.535   9.341  11.540
18084W        W81852  22.742  41.470  11.008
18085W        W81853   2.426  30.013  13.995
18086W        W81854  22.537   1.443  10.110
18087W        W81855  13.110  44.991  13.015
18088W        W81856  36.428  32.069   9.998
18089W        W81857  27.996  42.316   2.200
18090W        W81858   9.303   0.466   2.877
18091W        W81859  39.928  32.024   1.330
18092W        W81860  31.001  42.931   1.233
18093W        W81861  25.518  18.246  14.318
18094W        W81862  24.013   4.408  11.955
18095W        W81863  38.562  38.873  10.983
18096W        W81864  26.471  40.498  14.894
18097W        W81865  17.125  44.875   3.717
18098W        W81866  33.424  29.980   3.368
18099W        W81867  32.449  41.457   0.921
18100W        W81868  37.371  14.303  14.384
18101W        W81869  39.377  36.069  14.993
18102W        W81870  38.989  11.356   5.239
18103W        W81871  34.983  34.600   2.686
18104W        W81872  43.466  34.417   0.916
18105W        W81873  36.512  34.931   4.630
18106W        W81874  37.360  18.095  14.887
18107W        W81875  41.317  22.616   1.398
18108W        W81876  43.498   1.448   2.796
18109W        W81877  23.018  19.077   4.725
18110W        W81878  39.366  19.178  10.890
18111W        W81879  29.999  36.959   0.288
18112W        W81880  44.440  39.449   0.757
18113W        W81881  13.673   2.267  12.096
18114W        W81882  34.868   1.895   1.434
18115W        W81883  32.588  25.997  13.905
18116W        W81884  16.631  42.801   1.864
18117W        W81885  41.878  41.487  11.997
18118W        W81886  34.030   2.423  14.488
18119W        W81887  34.977  23.725  12.963
18120W        W81888  40.485  32.943  14.989
18121W        W81889  42.013  41.970  12.536
18122W        W81890  39.939   2.299   2.816
18123W        W81891  23.015   7.752   3.358
18124W        W81892   7.753  43.278  11.547
18125W        W81893  39.528  32.508   5.239
18126W        W81894   4.323  33.538  14.305
18127W        W81895  33.467  31.520   0.832
18128W        W81896  15.083  27.121  14.313
18129W        W81897   3.819   8.265  13.451
18130W        W81898  16.759  23.062   1.347
18131W        W81899  22.554  17.067   2.358
18132W        W81900  21.691  25.648  10.968
18133W        W81901  44.269  29.021  12.513
18134W        W81902  44.007  30.595  12.890
18135W        W81903  13.269  30.983   0.790
18136W        W81904   4.876   4.730   2.393
18137W        W81905  23.212  44.331  12.365
18138W        W81906  12.261  22.584   1.335
18139W        W81907  22.113   0.277  14.908
18140W        W81908  32.983  44.900   0.421
18141W        W81909  20.618  22.742   4.606
18142W        W81910  18.687   1.305  11.593
18143W        W81911  11.730   7.232  13.842
18144W        W81912  43.988  34.015  12.949
18145W        W81913   0.272  19.663   2.842
18146W        W81914  20.135   0.854   1.766
18147W        W81915  36.376  40.530   0.951
18148W        W81916  35.565  34.477   0.375
18149W        W81917  44.414  20.218   4.201
18150W        W81918  40.888  20.738  10.566
18151W        W81919  24.132  15.098   0.804
18152W        W81920  18.270   3.953  12.580
18153W        W81921  42.449  39.810  12.580
18154W        W81922  25.705   6.822  11.027
18155W        W81923   4.932  19.627  14.912
18156W        W81924  43.432  19.179   0.756
18157W        W81925  23.724  32.485   9.936
18158W        W81926  11.188  31.628  13.408
18159W        W81927   7.703   5.735   0.482
18160W        W81928  32.055   2.918   4.699
18161W        W81929  28.561  31.463  14.899
18162W        W81930  19.059  22.146  12.541
18163W        W81931  35.094  15.815  13.945
18164W        W81932  10.703  11.855  11.933
18165W        W81933  12.346  14.690  12.838
18166W        W81934   9.184  34.410  13.876
18167W        W81935  10.721  42.897   4.691
18168W        W81936  36.947  42.466  13.967
18169W        W81937  30.115   0.947   3.714
18170W        W81938  36.935  20.084  14.493
18171W        W81939  33.595   5.284   0.796
18172W        W81940  40.526  10.256  11.872
18173W        W81941   9.728  31.544  12.440
18174W        W81942  14.719  32.008   4.225
18175W        W81943   1.262  12.118  11.418
18176W        W81944   9.203  21.212   0.344
18177W        W81945   8.305  16.156   2.822
18178W        W81946  33.995  38.950   1.902
18179W        W81947  44.320   2.948  13.894
18180W        W81948  28.973  29.624   2.286
18181W        W81949  28.948   3.949  11.520
18182W        W81950  26.509  33.533   3.382
18183W        W81951  21.180  27.959  14.311
18184W        W81952  37.409  30.968   0.381
18185W        W81953  37.896  23.049   3.243
18186W        W81954  21.601  38.442   4.145
18187W        W81955  40.483  23.076   2.669
18188W        W81956  18.700   5.776   0.857
18189W        W81957  10.218  20.690   1.341
18190W        W81958  19.209  32.512  14.377
18191W        W81959  34.430   3.895  14.919
18192W        W81960  18.120  31.419   0.799
18193W        W81961   6.775  25.132   3.358
18194W        W81962  11.780   5.278  13.464
18195W        W81963  10.781  32.067   2.829
18196W        W81964  27.626  22.246   4.294
18197W        W81965  29.998  35.917  10.584
18198W        W81966  23.081  33.424  14.985
18199W        W81967  18.571  14.783  14.784
18200W        W81968   8.372   3.237   3.779
18201W        W81969   0.252  30.549   2.676
18202W        W81970  39.406  25.964   2.735
18203W        W81971  26.129  26.100  13.913
18204W        W81972  22.709  42.799  10.440
18205W        W81973  22.550  18.289   1.344
18206W        W81974  42.011   2.430  11.050
18207W        W81975  38.021  14.270  12.940
18208W        W81976  42.303   1.428  10.921
18209W        W81977  15.235   9.321  11.967
18210W        W81978   1.366  30.438  13.906
18211W        W81979  27.958   3.347   4.760
18212W        W81980  38.937  27.078  11.589
18213W        W81981   1.896  18.069  13.505
18214W        W81982  27.621  38.991   4.298
18215W        W81983  11.699  19.691  13.908
18216W        W81984  27.593  13.611  14.872
18217W        W81985   5.770   1.824   2.705
18218W        W81986   1.857  40.910   1.782
18219W        W81987  21.749  26.202  13.005
18220W        W81988   3.461  24.147  13.954
18221W        W81989  16.593  16.590  14.778
18222W        W81990  31.087  41.393  11.488
18223W        W81991   8.184  40.849  14.359
18224W        W81992  33.044  14.180  10.532
18225W        W81993  15.176  37.432   0.303
18226W        W81994  27.959  11.145  13.384
18227W        W81995  37.947   0.947  10.072
18228W        W81996  14.127  13.344  12.094
18229W        W81997   4.391  25.609   0.252
18230W        W81998  16.134  30.950  10.536
18231W        W81999   7.327  28.645  14.506
18232W        W82000  44.472   3.252   1.261
18233W        W82001  37.558  23.026  13.345
18234W        W82002   4.323  24.705  11.607
18235W        W82003  34.494  20.108   2.708
18236W        W82004  35.396  25.972  11.386
18237W        W82005  34.904  21.148  10.997
18238W        W82006  27.557   3.225  10.552
18239W        W82007  37.981  10.853  11.864
18240W        W82008  28.105  29.559   2.223
18241W        W82009  24.537  34.889   3.803
18242W        W82010  38.399  23.019   4.784
18243W        W82011  20.243   7.371  11.924
18244W        W82012  43.511  14.211   1.295
18245W        W82013  26.130  44.965  14.335
18246W        W82014  25.075   4.815  12.990
18247W        W82015  32.437  26.656  13.920
18248W        W82016  35.447   9.376   0.937
18249W        W82017   7.184  17.137  10.524
18250W        W82018  28.103  20.134  13.047
18251W        W82019  13.219   9.865  11.372
18252W        W82020  10.713  37.974   1.439
18253W        W82021   1.267   8.252  11.866
18254W        W82022   6.210  23.062   2.824
18255W        W82023  35.949  29.510  14.412
18256W        W82024  43.853  26.646   1.247
18257W        W82025  36.093  16.567   4.726
18258W        W82026   0.846  20.144   0.426
18259W        W82027   2.900  29.073  10.638
18260W        W82028  22.629  10.728   1.874
18261W        W82029  39.388  27.446   3.175
18262W        W82030   4.428  21.261  13.950
18263W        W82031  44.991  15.593  11.424
18264W        W82032  25.144  43.378   2.365
18265W        W82033  36.369  24.498   0.364
18266W        W82034  36.543  33.997   1.290
18267W        W82035   9.284   7.392  11.067
18268W        W82036  31.085  41.903   2.662
18269W        W82037  18.762   0.423  13.818
18270W        W82038  21.054  21.721  13.468
18271W        W82039  24.492   3.236   4.185
18272W        W82040  17.617  16.575  12.360
18273W        W82041   9.339  44.889   1.934
18274W        W82042  23.181  37.534  14.930
18275W        W82043  20.186  22.065  12.835
18276W        W82044  15.092   1.844  14.907
18277W        W82045  19.581  13.667  13.977
18278W        W82046  39.316   0.424  11.032
18279W        W82047   3.817  24.031   4.715
18280W        W82048  27.664  17.195  13.480
18281W        W82049   7.182   1.397  13.377
18282W        W82050  22.508  23.095  12.017
18283W        W82051   2.845  30.053   4.180
18284W        W82052  22.656  44.381   3.854
18285W        W82053  37.837  16.150  10.436
18286W        W82054  31.097  38.971  11.558
18287W        W82055  21.615  29.938  14.383
18288W        W82056  11.749  15.271  10.585
18289W        W82057   3.381   8.688  14.869
18290W        W82058  13.625  28.587   1.336
18291W        W82059  29.931  18.690   3.246
18292W        W82060  23.521  25.072   0.809
18293W        W82061  36.032  17.617  14.812
18294W        W82062  33.425  22.245   1.735
18295W        W82063   9.372  13.648  12.416
18296W        W82064  13.184  21.731   2.854
18297W        W82065  20.523  32.579   2.398
18298W        W82066   0.823  40.898   4.735
18299W        W82067  36.977  16.632   1.311
18300W        W82068  31.902  41.504   3.345
18301W        W82069  10.748   8.836   3.763
18302W        W82070  26.155   8.215  14.308
18303W        W82071  38.501  26.167   4.779
18304W        W82072  22.732  32.098   0.344
18305W        W82073  41.323  21.133  10.635
18306W        W82074  41.794  16.768   2.309
18307W        W82075  44.437   5.322   0.437
18308W        W82076   5.317  39.322   2.810
18309W        W82077   1.345   5.273   3.700
18310W        W82078  29.609  23.112   2.793
18311W        W82079  41.471  42.525   4.280
18312W        W82080   0.386  25.093  11.493
18313W        W82081  21.575  16.809   0.945
18314W        W82082   8.875  33.495   4.313
18315W        W82083  33.562   7.795   4.804
18316W        W82084   5.323   1.269  11.006
18317W        W82085  31.402  34.936  13.418
18318W        W82086  11.259  22.674   0.790
18319W        W82087  35.069  44.494   5.289
18320W        W82088  17.258  24.673   0.900
18321W        W82089  25.624  26.196   1.433
18322W        W82090  38.517  12.207   4.760
18323W        W82091   2.411  24.054   3.353
18324W        W82092   4.940  11.156  12.390
18325W        W82093   6.806  40.337   0.841
18326W        W82094   4.789   5.750  14.310
18327W        W82095  24.653  40.875   3.716
18328W        W82096  34.101   8.379   1.377
18329W        W82097   6.800  24.051   0.907
18330W        W82098  44.905  36.380   1.267
18331W        W82099  41.376   7.285   2.406
18332W        W82100  35.964  30.499   1.257
18333W        W82101  36.530  20.167   0.332
18334W        W82102   1.974  30.087  12.548
18335W        W82103  18.289  43.494   1.813
18336W        W82104  40.317  33.491   3.322
18337W        W82105   4.708  21.602  10.641
18338W        W82106  17.577  17.760   2.724
18339W        W82107  15.673  42.008   3.309
18340W        W82108  42.452  17.722  11.894
18341W        W82109  19.616  33.098   1.816
18342W        W82110  33.886  38.349   2.844
18343W        W82111   3.417  18.262  10.944
18344W        W82112  20.079   6.354  12.576
18345W        W82113  36.858  35.917   3.742
18346W        W82114  39.055   0.338  11.867
18347W        W82115  33.099  21.046  13.025
18348W        W82116  34.547   0.800   2.790
18349W        W82117   6.893  38.871   1.400
18350W        W82118   0.853  18.700  13.056
18351W        W82119  16.729   9.199   0.815
18352W        W82120  18.210  20.075   5.306
18353W        W82121  28.644  41.932   4.327
18354W        W82122  31.067  15.113   1.430
18355W        W82123   3.797  40.016   4.317
18356W        W82124  25.551  10.239  12.921
18357W        W82125   2.270  38.030  14.988
18358W        W82126   4.252  41.301   3.777
18359W        W82127  42.485   6.363  12.997
18360W        W82128  40.835  13.771  11.106
18361W        W82129  21.241  43.826   0.421
18362W        W82130   2.235   6.304  14.978
18363W        W82131  19.714   9.877   4.837
18364W        W82132  22.023   4.391  14.469
18365W        W82133  18.183  26.205   2.331
18366W        W82134  13.177  16.144  14.815
18367W        W82135  18.162  18.054   2.192
18368W        W82136   9.344  16.741  13.006
18369W        W82137  39.065  17.611  10.586
18370W        W82138   9.251  30.910   4.630
18371W        W82139  43.851  21.541   4.201
18372W        W82140   8.755  23.667   2.885
18373W        W82141  15.805  34.894  11.054
18374W        W82142   1.800   8.870   2.408
18375W        W82143  17.282  38.397   0.855
18376W        W82144  19.600  36.421   5.139
18377W        W82145  13.190  11.268   4.155
18378W        W82146   3.299   3.756  13.911
18379W        W82147   2.376  20.719  12.900
18380W        W82148  10.675  43.972   4.609
18381W        W82149  42.471  19.101   1.921
18382W        W82150  14.782  31.634   2.875
18383W        W82151  20.736   5.784   4.610
18384W        W82152  17.569  36.359  14.903
18385W        W82153   3.713   1.961   3.728
18386W        W82154  36.508  22.640   0.943
18387W        W82155   9.271   0.255  11.855
18388W        W82156   3.893  42.289  11.566
18389W        W82157   1.779   4.845  14.360
18390W        W82158  13.610  44.983   0.847
18391W        W82159   1.812  20.560  12.455
18392W        W82160   8.404  26.088  10.927
18393W        W82161  23.553   8.829   2.745
18394W        W82162  29.481  22.585   0.834
18395W        W82163  16.641  22.113   4.612
18396W        W82164  21.701  26.195  14.876
18397W        W82165   0.439  41.441   1.759
18398W        W82166  30.159  15.582   2.865
18399W        W82167  42.827  33.932  12.000
18400W        W82168  16.146  31.468   4.213
18401W        W82169  36.518   3.257   0.846
18402W        W82170  30.547  23.500   4.719
18403W        W82171  37.467  34.391   4.130
18404W        W82172  31.118  38.553   4.653
18405W        W82173  20.730   2.372   2.353
18406W        W82174  19.147  35.948  11.015
18407W        W82175  43.865  16.639  14.482
18408W        W82176  37.374  40.477   0.287
18409W        W82177  12.684  16.668   1.760
18410W        W82178   9.742  44.350   0.965
18411W        W82179   0.359  20.086  12.390
18412W        W82180  17.256  30.101   2.287
18413W        W82181   5.830  32.539   0.452
18414W        W82182   3.215  31.976  10.989
18415W        W82183   7.819  12.208  14.944
18416W        W82184  36.586  29.951   0.738
18417W        W82185  33.058  17.670   0.279
18418W        W82186   4.892  44.951  11.997
18419W        W82187   8.400  16.727   3.238
18420W        W82188  24.022  32.513  10.956
18421W        W82189  30.466  15.267  12.049
18422W        W82190  19.127  43.909   1.258
18423W        W82191  28.102  34.067   1.384
18424W        W82192  33.598  29.464  13.513
18425W        W82193   9.193  44.350   0.296
18426W        W82194  19.681  31.023  13.911
18427W        W82195  12.295  34.569  13.352
18428W        W82196  18.124  36.896  11.099
18429W        W82197   4.710  29.019  13.863
18430W        W82198   0.422  40.368   3.661
18431W        W82199   1.820   7.825   4.125
18432W        W82200  28.565  19.143  14.435
18433W        W82201  16.200   0.801  12.962
18434W        W82202  44.882  18.198  12.577
18435W        W82203  32.946   6.269   4.838
18436W        W82204  40.494   0.369   4.328
18437W        W82205  14.113  21.059   4.685
18438W        W82206  35.385   1.322  11.520
18439W        W82207  22.187  13.342  10.522
18440W        W82208  38.866  11.830  13.983
18441W        W82209  11.671  25.619   0.874
18442W        W82210  31.410  32.447  10.624
18443W        W82211  33.015  26.675   2.816
18444W        W82212  39.332  20.603   3.768
18445W        W82213  11.660   0.334  14.937
18446W        W82214  42.846  19.176  10.915
18447W        W82215  24.095  10.727   4.708
18448W        W82216  37.964  21.525   2.863
18449W        W82217  20.063  37.888   0.360
18450W        W82218   4.772  37.857   1.388
18451W        W82219  22.710  26.595   2.664
18452W        W82220  14.262  38.516  14.466
18453W        W82221  29.943  18.085   3.235
18454W        W82222  29.524  21.534   0.277
18455W        W82223  24.630   0.473   1.909
18456W        W82224  39.881  15.105   4.150
18457W        W82225   1.331  28.557   1.443
18458W        W82226  36.988  43.806  13.316
18459W        W82227  13.204  35.920  13.534
18460W        W82228  12.668   3.281   2.818
18461W        W82229  21.210  16.753  11.098
18462W        W82230   2.847  11.821  13.458
18463W        W82231  28.085  25.033   0.304
18464W        W82232  17.801  37.847   4.707
18465W        W82233  32.996   0.858   3.280
18466W        W82234  41.038  40.359   3.719
18467W        W82235  29.428  36.508   0.457
18468W        W82236  25.481  25.220  11.432
18469W        W82237  32.944  19.272   5.292
18470W        W82238  44.883  30.947  12.901
18471W        W82239  30.099  10.721   0.279
18472W        W82240   9.844  40.994   1.791
18473W        W82241  42.508  24.973   2.199
18474W        W82242   3.828  12.663   1.313
18475W        W82243   2.313  14.722  11.030
18476W        W82244  26.139  19.050   4.303
18477W        W82245  38.342  32.542   0.250
18478W        W82246  29.142   2.374   0.762
18479W        W82247  13.348  33.010   0.328
18480W        W82248  17.555  16.750   2.762
18481W        W82249  35.456  39.932   3.207
18482W        W82250  30.468  31.445  14.985
18483W        W82251  21.638   1.784   0.412
18484W        W82252  12.227  12.820  11.864
18485W        W82253  17.068  25.557  10.638
18486W        W82254  40.529  43.013  13.434
18487W        W82255  16.271  23.058   0.394
18488W        W82256  27.452  38.032  14.292
18489W        W82257   4.935  12.164  10.469
18490W        W82258   7.792  38.959   1.889
18491W        W82259  37.429  39.983  12.079
18492W        W82260  32.509  18.645  11.966
18493W        W82261  38.821  34.981   4.250
18494W        W82262  15.617  44.965  12.502
18495W        W82263  17.090  44.011  14.821
18496W        W82264   0.292   9.693  10.957
18497W        W82265  35.951  34.396  14.915
18498W        W82266  14.737  21.681  13.413
18499W        W82267   3.324  23.211  13.353
18500W        W82268  27.626  19.097   1.736
18501W        W82269  16.749  16.153  12.416
18502W        W82270  30.541  19.618   4.627
18503W        W82271  21.232   5.885  10.476
18504W        W82272  34.468  21.261   4.771
18505W        W82273  28.573  30.965   3.642
18506W        W82274  41.307   2.451  14.809
18507W        W82275  11.669  37.538  11.610
18508W        W82276   8.221   3.825  10.976
18509W        W82277   1.792  31.949   2.361
18510W        W82278  43.908  18.159   1.813
18511W        W82279  30.515  23.655  13.307
18512W        W82280  19.039  37.002   0.904
18513W        W82281   1.761  21.048   0.259
18514W        W82282  18.568  16.185  14.894
18515W        W82283  41.389   2.963  11.524
18516W        W82284   4.849  31.904   4.208
18517W        W82285  36.000  10.269   4.115
18518W        W82286  27.179  12.194   3.686
18519W        W82287   8.231  32.605   1.408
18520W        W82288  28.523  21.739  13.350
18521W        W82289  28.068  43.838  13.403
18522W        W82290  22.156  30.457  12.372
18523W        W82291  20.152  22.171   1.903
18524W        W82292   2.262  31.993  10.959
18525W        W82293  13.319  39.860  14.010
18526W        W82294  42.842  32.577   4.268
18527W        W82295   9.364  25.593   1.297
18528W        W82296  16.646  29.071  10.950
18529W        W82297  12.200  36.883  11.086
18530W        W82298   7.388  35.066   1.418
18531W        W82299  24.140  12.691   1.885
18532W        W82300   4.869  31.955  12.057
18533W        W82301  32.112  33.502   4.151
18534W        W82302   2.771  26.141  13.420
18535W        W82303  17.130  35.012  14.768
18536W        W82304   1.894   1.426  12.081
18537W        W82305  17.158  39.015   2.296
18538W        W82306  25.209  27.173  14.936
18539W        W82307  10.739   0.759  11.583
18540W        W82308   6.744   7.279  11.915
18541W        W82309  12.738  33.545  10.407
18542W        W82310  22.155  27.456   1.895
18543W        W82311   6.404   9.644   3.835
18544W        W82312   9.825  24.604   1.786
18545W        W82313   8.811  32.541  13.932
18546W        W82314  38.036  38.501   1.365
18547W        W82315  12.775  26.128   1.732
18548W        W82316  44.295  25.612   2.242
18549W        W82317  20.646   4.863   1.287
18550W        W82318  10.809   0.901   3.651
18551W        W82319   3.308  23.111  11.041
18552W        W82320   0.945   0.360  13.942
18553W        W82321  12.324  11.147   3.198
18554W        W82322  23.710  35.007  13.059
18555W        W82323   5.796  32.039  14.771
18556W        W82324  16.756   0.891  14.290
18557W        W82325  32.890   1.249  14.981
18558W        W82326  29.450   9.300   4.274
18559W        W82327  13.766   2.454  11.416
18560W        W82328   1.267   3.335  14.905
18561W        W82329  41.006  31.478  13.536
18562W        W82330  40.489  15.137   4.223
18563W        W82331  40.533  42.492  14.387
18564W        W82332  31.924   7.239  10.495
18565W        W82333  37.357  24.683  14.007
18566W        W82334   9.163   9.283   1.299
18567W        W82335   3.932  18.210  11.436
18568W        W82336  31.059  28.166   3.218
18569W        W82337  19.230  24.557   1.913
18570W        W82338  28.133   0.985  10.587
18571W        W82339  23.506  36.457  11.542
18572W        W82340   2.239  25.104   1.771
18573W        W82341  30.420  10.746   0.851
18574W        W82342  18.772   9.391  13.866
18575W        W82343  28.586  34.419   4.806
18576W        W82344  43.792   7.416  13.949
18577W        W82345  26.483  33.503   0.277
18578W        W82346  33.548  30.570   3.638
18579W        W82347  11.807  41.929   3.336
18580W        W82348  40.990   9.670   3.649
18581W        W82349  35.013  37.432   4.181
18582W        W82350  30.130  19.648   3.731
18583W        W82351  16.300  22.540  12.480
18584W        W82352  40.522  18.705   2.221
18585W        W82353   7.909   0.257   4.619
18586W        W82354   3.796  24.610  12.494
18587W        W82355  33.968  16.295   2.403
18588W        W82356  12.815  18.251  14.312
18589W        W82357   3.314  19.244   0.362
18590W        W82358  25.068  39.989  14.872
18591W        W82359  10.233  39.855   4.330
18592W        W82360  28.439   0.492  14.412
18593W        W82361   5.688  40.814   4.348
18594W        W82362  41.876  36.079  11.877
18595W        W82363  34.952  28.037   0.400
18596W        W82364   7.390  23.545  12.505
18597W        W82365  43.003  21.563   3.208
18598W        W82366  40.011   8.269  13.844
18599W        W82367  12.787  35.094  10.566
18600W        W82368  21.233  19.221  11.012
18601W        W82369   2.239  25.583  13.862
18602W        W82370  29.511  30.581   1.756
18603W        W82371  42.963   5.394   2.239
18604W        W82372  28.647  43.281   3.856
18605W        W82373  15.324   2.858  10.960
18606W        W82374  39.532  15.795   2.815
18607W        W82375  22.040  23.638  10.901
18608W        W82376  32.620  32.537  10.983
18609W        W82377  40.893  16.792  10.890
18610W        W82378   2.884  38.359   2.664
18611W        W82379   0.910  34.056   0.262
18612W        W82380  30.644  35.603  12.491
18613W        W82381  17.142  11.311   2.381
18614W        W82382  15.647  43.859  13.413
18615W        W82383  26.520  40.979   3.307
18616W        W82384   5.346  11.657   4.635
18617W        W82385  20.029  20.596   2.281
18618W        W82386   4.788  25.145  14.289
18619W        W82387  44.340  29.959  11.090
18620W        W82388  15.601  23.078   0.826
18621W        W82389  37.559   0.490   0.295
18622W        W82390   8.357  33.987   0.831
18623W        W82391  31.606   4.247   4.114
18624W        W82392  42.427  12.171  14.771
18625W        W82393  17.076  10.688  14.303
18626W        W82394   2.345  35.477   3.249
18627W        W82395   7.747  42.417   3.631
18628W        W82396  34.945  16.707  11.429
18629W        W82397   2.363  27.995   4.715
18630W        W82398  23.046  20.273  11.078
18631W        W82399   2.911  31.030  10.452
18632W        W82400   6.759   3.877  12.923
18633W        W82401  15.783  10.758   0.834
18634W        W82402   1.255  13.308   4.329
18635W        W82403  14.811  24.605  13.373
18636W        W82404  39.893  13.260   0.456
18637W        W82405  15.823  13.786  12.022
18638W        W82406   7.381  19.771   3.311
18639W        W82407  26.527   7.308   9.971
18640W        W82408  27.550  13.769   1.809
18641W        W82409  24.189  36.004   4.613
18642W        W82410   9.712  14.263   0.957
18643W        W82411   1.956   0.745  11.902
18644W        W82412  35.010  32.479  10.630
18645W        W82413  42.286  29.429  10.906
18646W        W82414   3.905  18.067  10.091
18647W        W82415  38.503  39.507   2.866
18648W        W82416   8.199  21.723  11.461
18649W        W82417  41.304  11.193   4.289
18650W        W82418  43.893  29.601   4.778
18651W        W82419  34.538  17.148  10.964
18652W        W82420  27.971  17.680   0.901
18653W        W82421  11.160  34.903   0.851
18654W        W82422  26.582  42.888  14.956
18655W        W82423  20.537  43.994  12.350
18656W        W82424   4.440  31.591  12.406
18657W        W82425  32.622   7.737  10.962
18658W        W82426  13.642  40.446  11.900
18659W        W82427  13.610  33.510   3.767
18660W        W82428  33.043  34.528  13.833
18661W        W82429  17.230  35.061   2.685
18662W        W82430  32.459  34.987  13.315
18663W        W82431  26.003  30.006  14.025
18664W        W82432  42.373  20.211   4.351
18665W        W82433  41.964   6.229  11.866
18666W        W82434  21.177   7.187   0.894
18667W        W82435  17.666  32.902  14.277
18668W        W82436   1.397  29.024   4.181
18669W        W82437  28.134  21.722  13.874
18670W        W82438  29.001  39.840  13.359
18671W        W82439  42.836  19.559  11.474
18672W        W82440   2.949  33.124   2.896
18673W        W82441  16.133  35.524  11.913
18674W        W82442  16.079  25.626   0.340
18675W        W82443  22.693  23.097   2.237
18676W        W82444  16.134  15.715  13.950
18677W        W82445  36.536  19.705  11.505
18678W        W82446  14.255  11.272   3.188
18679W        W82447  39.967  28.466  12.906
18680W        W82448   4.831   7.306  13.995
18681W        W82449  36.530  11.317   2.745
18682W        W82450  16.766  22.597  13.350
18683W        W82451  14.201  43.856   0.328
18684W        W82452  28.622   8.708  10.417
18685W        W82453  35.471  31.963   4.249
18686W        W82454  42.494  37.354  11.127
18687W        W82455  24.104  39.856   3.381
18688W        W82456  23.128   1.839   1.319
18689W        W82457  14.305  22.225   0.963
18690W        W82458  17.563  37.885   0.814
18691W        W82459  42.929  30.091  11.892
18692W        W82460  22.731  36.423  12.991
18693W        W82461  42.299  28.461  13.997
18694W        W82462   9.853  41.413  12.078
18695W        W82463  37.416  40.858   1.878
18696W        W82464   7.784  40.948   2.786
18697W        W82465  20.237  36.993  12.974
18698W        W82466  12.815   7.766   2.725
18699W        W82467  10.316  35.402   3.218
18700W        W82468   3.233  20.222  10.511
18701W        W82469   4.425   7.856   2.772
18702W        W82470  11.249   1.292   1.241
18703W        W82471  16.574  19.141   1.426
18704W        W82472  33.588  44.908  12.054
18705W        W82473  28.134  26.999   1.776
18706W        W82474   6.838  30.655   2.794
18707W        W82475  38.049  44.840   2.189
18708W        W82476  14.731  40.812  10.505
18709W        W82477  29.560  21.178  13.535
18710W        W82478   8.333  35.094   3.329
18711W        W82479   0.801  40.312  11.108
18712W        W82480  13.259  11.763   2.270
18713W        W82481  34.531   8.863   9.964
18714W        W82482  17.686   5.410   4.298
18715W        W82483  30.062  42.422   3.242
18716W        W82484   5.827  23.687  11.919
18717W        W82485   1.850  44.362  13.994
18718W        W82486  32.091   4.849  11.087
18719W        W82487  36.551  36.849   3.684
18720W        W82488  34.459   1.418   1.749
18721W        W82489  44.964   1.858  14.813
18722W        W82490  42.446  12.246   1.301
18723W        W82491   7.771  31.146   2.210
18724W        W82492  25.029  37.856   3.193
18725W        W82493  26.522  26.141  11.477
18726W        W82494   5.326  35.567  10.538
18727W        W82495   0.977   1.760   2.870
18728W        W82496  33.986  31.500   2.815
18729W        W82497  35.531  41.813   2.210
18730W        W82498  32.927  19.172   0.403
18731W        W82499  28.449  37.468   1.823
18732W        W82500  42.885  18.227  10.644
18733W        W82501   9.823  28.479  10.513
18734W        W82502  29.172   4.707   0.811
18735W        W82503  34.460   4.892   1.769
18736W        W82504  22.593  11.197   4.147
18737W        W82505   9.188  33.973  13.332
18738W        W82506   8.381  42.378   2.280
18739W        W82507  14.686  11.712  12.502
18740W        W82508  10.277   9.229   2.693
18741W        W82509  42.295  33.614   3.668
18742W        W82510  20.109   1.359   1.419
18743W        W82511  14.294   5.278   1.225
18744W        W82512  13.219   3.936   4.805
18745W        W82513  24.583  41.409   0.246
18746W        W82514  18.709  42.467   0.784
18747W        W82515  18.762  24.636   3.299
18748W        W82516   4.306  19.601  14.809
18749W        W82517  36.358  38.058   1.809
18750W        W82518  22.119  41.537   3.833
18751W        W82519   2.290  40.906   2.382
18752W        W82520  28.067   7.742   2.412
18753W        W82521  16.264   1.244   0.945
18754W        W82522  29.927  33.501  10.928
18755W        W82523  22.518  19.055   4.133
18756W        W82524  19.568  10.338   3.737
18757W        W82525  26.634   5.806   1.802
18758W        W82526  31.441  10.662   0.781
18759W        W82527   7.367  35.490   3.241
18760W        W82528  42.513  40.022   4.164
18761W        W82529  24.183  11.185  10.624
18762W        W82530  41.532  22.247   3.799
18763W        W82531  27.449  17.659   1.364
18764W        W82532  28.494  34.607   4.130
18765W        W82533  16.650   0.953  13.423
18766W        W82534   1.292  29.603  13.899
18767W        W82535  41.027   2.829  11.917
18768W        W82536  41.898  17.207  13.442
18769W        W82537  13.779  38.015  13.861
18770W        W82538  23.637  37.422   3.231
18771W        W82539  22.145  34.868   3.795
18772W        W82540  13.227  39.973   4.213
18773W        W82541  31.588  14.177  13.992
18774W        W82542  17.126  22.042   0.306
18775W        W82543   1.478   6.912   4.681
18776W        W82544  37.922   9.265  14.967
18777W        W82545  11.157   4.441   4.305
18778W        W82546  36.045   0.939  12.024
18779W        W82547  21.718  17.772  14.863
18780W        W82548  14.229  31.578  10.888
18781W        W82549  34.466   6.398  13.513
18782W        W82550  44.459  35.563  10.118
18783W        W82551  17.680  44.862  13.366
18784W        W82552  40.024  31.605   0.876
18785W        W82553  20.748  10.166  11.428
18786W        W82554  44.477  15.297   1.293
18787W        W82555  37.376   5.207   3.169
18788W        W82556  29.129  22.008  11.412
18789W        W82557  15.173  23.715   2.844
18790W        W82558  38.066  41.335   2.881
18791W        W82559   2.422  35.939   9.928
18792W        W82560  14.188  21.155  12.345
18793W        W82561  23.511  44.373  14.307
18794W        W82562  36.393  36.575  10.549
18795W        W82563  41.028   4.812   4.158
18796W        W82564  40.399   4.777  14.452
18797W        W82565  33.394  17.625   1.286
18798W        W82566  29.670  26.206  13.949
18799W        W82567   0.986  39.813  13.864
18800W        W82568  19.669  27.576   0.385
18801W        W82569  25.109  43.292   1.336
18802W        W82570  23.090  23.142   0.747
18803W        W82571  12.810   5.225  13.005
18804W        W82572  18.090  40.537  14.894
18805W        W82573  15.202  30.957  12.020
18806W        W82574  28.442  37.929  10.563
18807W        W82575  28.443  15.084  12.829
18808W        W82576  42.443  14.118   4.278
18809W        W82577  10.276  18.241  12.934
18810W        W82578  41.393   3.920  10.424
18811W        W82579  26.624   2.772   1.300
18812W        W82580  11.229  33.592  13.894
18813W        W82581  41.341  17.642  12.878
18814W        W82582  11.360  39.012  13.810
18815W        W82583  21.066   2.333  12.548
18816W        W82584  34.418  43.896  11.591
18817W        W82585  26.512  20.638  12.026
18818W        W82586   3.454  39.915   1.233
18819W        W82587   9.720  43.441  12.345
18820W        W82588  12.617   1.334   0.881
18821W        W82589  33.481  19.668   5.309
18822W        W82590   2.797  15.649  12.840
18823W        W82591  20.546  41.515   1.905
18824W        W82592  15.143  40.355  14.851
18825W        W82593  39.838   6.410   0.462
18826W        W82594   1.934   4.701   3.204
18827W        W82595  12.638  35.467  12.897
18828W        W82596   0.793  27.066   3.663
18829W        W82597  13.234   8.876   0.864
18830W        W82598  22.602   8.277   0.310
18831W        W82599  25.518  43.896  14.328
18832W        W82600  23.210  39.999  12.413
18833W        W82601  31.528  19.253   0.935
18834W        W82602  22.112  27.056   1.816
18835W        W82603  41.422   1.915   1.369
18836W        W82604  26.960  37.978   2.345
18837W        W82605  16.289  38.045  12.899
18838W        W82606  28.006  39.914  12.890
18839W        W82607  29.638  27.985   4.772
18840W        W82608  15.215   5.785   2.674
18841W        W82609  25.049  35.520  12.396
18842W        W82610  22.203   1.399  13.898
18843W        W82611  33.059   5.283   0.948
18844W        W82612  23.055  41.044  11.061
18845W        W82613   9.742  44.299   2.668
18846W        W82614  17.583   4.435  12.847
18847W        W82615  33.943  35.885  13.481
18848W        W82616  38.051  43.968  13.534
18849W        W82617  37.959  28.607   3.788
18850W        W82618  40.037  21.567  12.922
18851W        W82619  43.485  36.573  14.449
18852W        W82620  39.394  42.829   4.773
18853W        W82621  17.257  29.529  10.535
18854W        W82622  22.006  33.021   4.785
18855W        W82623  41.898  30.578  10.099
18856W        W82624  41.817   6.348  14.869
18857W        W82625  24.999  10.163   0.245
18858W        W82626  25.177  17.210  10.548
18859W        W82627  38.488  26.030  11.384
18860W        W82628  30.047   2.313  12.439
18861W        W82629   5.826   2.795   4.243
18862W        W82630  15.219  25.639  12.074
18863W        W82631  42.467  17.751  11.008
18864W        W82632   3.235  43.936   4.632
18865W        W82633  10.648  24.538  10.573
18866W        W82634  19.100  25.592  12.364
18867W        W82635  33.496  14.829  11.065
18868W        W82636   0.405  29.924  10.597
18869W        W82637  28.581  20.078   0.834
18870W        W82638  21.205   2.356  14.810
18871W        W82639  11.200  10.764   3.323
18872W        W82640  42.503  31.617   0.809
18873W        W82641  19.741  29.072  12.054
18874W        W82642   5.761   0.334   4.206
18875W        W82643   1.361  36.529  12.949
18876W        W82644   0.352  25.082   3.647
18877W        W82645  13.842   0.273   1.375
18878W        W82646   5.726  20.100   1.323
18879W        W82647   0.895  11.208   4.320
18880W        W82648  29.525  22.102   0.739
18881W        W82649  34.595  11.202  10.479
18882W        W82650   8.727   4.418  11.379
18883W        W82651  28.608  41.036   4.724
18884W        W82652   8.271   0.431  14.504
18885W        W82653   1.242  13.184  14.009
18886W        W82654  31.043  24.507   1.390
18887W        W82655   0.415   3.766  12.434
18888W        W82656  39.397  39.809   2.270
18889W        W82657  10.249  10.243   4.268
18890W        W82658  26.488  19.063   1.270
18891W        W82659   3.437  13.759   2.183
18892W        W82660  31.058  36.061  14.378
18893W        W82661  35.546  26.628   2.768
18894W        W82662   1.751   7.694  12.508
18895W        W82663  39.988  40.458   2.270
18896W        W82664  25.509  22.020  10.547
18897W        W82665  31.973   5.822   3.291
18898W        W82666  35.490  10.761  13.064
18899W        W82667  19.675  42.350   1.930
18900W        W82668  44.347  23.154   1.235
18901W        W82669  21.519  31.907   1.248
18902W        W82670  35.508  29.128  14.864
18903W        W82671  24.505  11.629   0.847
18904W        W82672  20.543   6.349   2.254
18905W        W82673  22.746  23.029  11.604
18906W        W82674  31.618   3.264  14.456
18907W        W82675  27.943  33.977  12.422
18908W        W82676  43.913   4.827   2.711
18909W        W82677  44.336  38.452   2.205
18910W        W82678  38.050  15.138  13.949
18911W        W82679   6.791   6.366   2.313
18912W        W82680  36.977  41.987   3.266
18913W        W82681   2.922  22.179   0.780
18914W        W82682  43.481  15.658   0.417
18915W        W82683  30.006  24.033  10.979
18916W        W82684  16.636  34.570  10.498
18917W        W82685  19.139  37.370  12.910
18918W        W82686  13.109   3.810  13.522
18919W        W82687  22.160   1.968  11.088
18920W        W82688   9.267   3.408   4.628
18921W        W82689  11.790  22.024  12.375
18922W        W82690  40.009   8.706   1.404
18923W        W82691  26.064  15.260   5.224
18924W        W82692   8.350  10.271  11.533
18925W        W82693  39.334  31.420  12.034
18926W        W82694  20.715   6.738  14.998
18927W        W82695  29.485  39.471   1.319
18928W        W82696   8.384  25.024   0.954
18929W        W82697   8.207  26.540   3.154
18930W        W82698  11.725  13.207   3.234
18931W        W82699   4.805   7.343   5.204
18932W        W82700   3.792  31.931  12.496
18933W        W82701  13.251  32.072  11.457
18934W        W82702  12.753  41.809  14.461
18935W        W82703  33.996  13.148  11.112
18936W        W82704  24.991  13.711   5.759
18937W        W82705  14.189  23.151   0.423
18938W        W82706  27.501   8.232  11.861
18939W        W82707   3.215  29.551  10.525
18940W        W82708  23.499  42.780   4.155
18941W        W82709  26.639  44.873   0.950
18942W        W82710  16.271  29.072  14.877
18943W        W82711  26.171  26.616   1.838
18944W        W82712  41.017  43.877   4.796
18945W        W82713   5.320  41.830   0.248
18946W        W82714  36.518  12.121   1.264
18947W        W82715  21.210  30.057  10.442
18948W        W82716  44.846  10.371  14.340
18949W        W82717  13.738  31.042  13.953
18950W        W82718  39.372  28.109  11.573
18951W        W82719   5.411  10.808  13.007
18952W        W82720   3.922  23.210   2.839
18953W        W82721  37.931  15.102   4.195
18954W        W82722  36.411  13.327   4.304
18955W        W82723  19.775  29.506  14.804
18956W        W82724   6.775  13.139  10.572
18957W        W82725  44.344  33.126  11.906
18958W        W82726  44.791  44.782   2.666
18959W        W82727  13.130  27.068   1.348
18960W        W82728  17.600  34.958   3.774
18961W        W82729  42.911  44.926   3.340
18962W        W82730  21.674  24.618   3.831
18963W        W82731  32.032  39.434   3.320
18964W        W82732  34.878  31.142   4.735
18965W        W82733   5.740  38.060   3.676
18966W        W82734  38.898  33.467  12.991
18967W        W82735   2.469   6.746   2.772
18968W        W82736  15.172  26.682  14.958
18969W        W82737  20.727  27.127   1.769
18970W        W82738  43.440  40.490   0.757
18971W        W82739  15.179  15.132   1.763
18972W        W82740  13.726  43.882  12.026
18973W        W82741  16.646   3.938  11.028
18974W        W82742  22.197  36.923   3.804
18975W        W82743  13.715  32.955   1.708
18976W        W82744  32.037  14.750  12.866
18977W        W82745  33.079  14.095  13.909
18978W        W82746  30.629  23.506  14.816
18979W        W82747   4.923  13.323   4.259
18980W        W82748  18.623  35.864   3.234
18981W        W82749  41.923  27.036  13.333
18982W        W82750  17.743   3.288  14.969
18983W        W82751   3.450  35.057  13.465
18984W        W82752  42.029  10.235  10.529
18985W        W82753  39.947  12.319  12.907
18986W        W82754  17.596  33.515  11.995
18987W        W82755  38.531  41.995  13.050
18988W        W82756  23.549  35.597  14.462
18989W        W82757  43.797  17.652   0.393
18990W        W82758   7.212  10.158   0.390
18991W        W82759  27.039   6.268   3.284
18992W        W82760  23.605  25.196   4.139
18993W        W82761  27.958  19.724  14.846
18994W        W82762  30.127  43.412   4.157
18995W        W82763  11.284  40.501  11.551
18996W        W82764  24.663  24.125  13.441
18997W        W82765  27.666  34.505   2.704
18998W        W82766  27.083  43.986   4.276
18999W        W82767  31.422  25.003   4.669
19000W        W82768  43.326  38.913   1.717
19001W        W82769  31.520  14.106   2.287
19002W        W82770  10.656  26.976  14.972
19003W        W82771  26.053  39.954  10.562
19004W        W82772  41.334  15.138  14.369
19005W        W82773   5.402  34.009  14.024
19006W        W82774  37.025  33.595  12.521
19007W        W82775  25.182  17.231   2.757
19008W        W82776  33.063   0.951   3.786
19009W        W82777   0.488   8.354   3.820
19010W        W82778  12.350  29.100  13.911
19011W        W82779  16.768  31.408   3.177
19012W        W82780   2.297   1.914  13.933
19013W        W82781  18.642  37.941   0.332
19014W        W82782   6.804  25.051  14.280
19015W        W82783  10.163  32.521  14.761
19016W        W82784   1.375   4.343  13.844
19017W        W82785  18.270  28.562   3.661
19018W        W82786  44.308  44.908   4.634
19019W        W82787   8.773  22.626   3.382
19020W        W82788  34.889  32.135  14.823
19021W        W82789   5.250   8.799   0.410
19022W        W82790  32.540  12.626  10.424
19023W        W82791  19.572  22.165  14.892
19024W        W82792  29.468  25.058   0.939
19025W        W82793  44.471   5.797  12.510
19026W        W82794  24.710  18.167   0.924
19027W        W82795  40.970   5.361   1.365
19028W        W82796  15.100   9.252   1.846
19029W        W82797   8.225   4.698   4.207
19030W        W82798  44.764  40.870  13.880
19031W        W82799  14.795  29.656  11.550
19032W        W82800  13.216   9.374   4.691
19033W        W82801  36.055  17.246  10.544
19034W        W82802  10.227   6.239   2.873
19035W        W82803  14.589   9.879  12.855
19036W        W82804  17.129  30.102  14.459
19037W        W82805   4.750  17.779  10.949
19038W        W82806  44.824   8.866   1.875
19039W        W82807  14.107   1.290   2.353
19040W        W82808  38.498  18.658   0.340
19041W        W82809  29.618  17.177   4.283
19042W        W82810  29.637  23.620   1.282
19043W        W82811   2.441  33.616  14.816
19044W        W82812  30.080  44.489  14.816
19045W        W82813  44.963  18.062   1.375
19046W        W82814  12.738  15.213   2.700
19047W        W82815  29.539   4.304   2.375
19048W        W82816  13.641  13.173  12.092
19049W        W82817   0.788  35.045  11.918
19050W        W82818  16.134  22.535   9.491
19051W        W82819  11.289  32.885  11.391
19052W        W82820  32.534   1.842   4.118
19053W        W82821  35.008   9.327  11.582
19054W        W82822  34.948  38.003  13.333
19055W        W82823  19.567  21.125   3.727
19056W        W82824  33.972  25.663   0.263
19057W        W82825  43.968  28.641  13.414
19058W        W82826  22.242  25.566   1.783
19059W        W82827  33.594  14.781  14.762
19060W        W82828  33.078  20.184   3.190
19061W        W82829  13.301   5.875  12.972
19062W        W82830  21.119  32.632  12.531
19063W        W82831  18.576  35.868  10.113
19064W        W82832  10.289  35.949   0.947
19065W        W82833   7.367  44.481  11.382
19066W        W82834  35.096   7.899   1.835
19067W        W82835  18.214  29.452   1.774
19068W        W82836   4.345   4.916  13.483
19069W        W82837  32.580   3.943   4.675
19070W        W82838   4.230  38.820   3.351
19071W        W82839  34.897  26.561  11.569
19072W        W82840  32.114  25.171   4.249
19073W        W82841  35.500  25.036   4.749
19074W        W82842  40.475  43.882   3.826
19075W        W82843  28.088  38.367   1.386
19076W        W82844   0.915  22.213  10.899
19077W        W82845  16.615   6.249  10.614
19078W        W82846  28.119  20.745   1.694
19079W        W82847   0.882   8.671   0.455
19080W        W82848  13.823   3.910  11.045
19081W        W82849  14.704  34.389  12.903
19082W        W82850  36.456   2.753  10.443
19083W        W82851  21.601   7.724  12.935
19084W        W82852  22.090  29.541   2.747
19085W        W82853   3.852  44.922   2.216
19086W        W82854  13.337   8.218   2.792
19087W        W82855   9.384  39.362   2.388
19088W        W82856   8.266  15.807  13.946
19089W        W82857  22.721  37.024  10.508
19090W        W82858  15.815  38.858   4.777
19091W        W82859  20.182  23.624   4.787
19092W        W82860  14.223  10.244  11.499
19093W        W82861  34.572  10.874   2.775
19094W        W82862  19.159  18.232  13.494
19095W        W82863  42.900  40.931   2.203
19096W        W82864  33.546  11.700   1.355
19097W        W82865  42.430  21.150  13.423
19098W        W82866   1.467   5.817  13.365
19099W        W82867  32.056  37.356   4.634
19100W        W82868  28.066  37.337   1.760
19101W        W82869  22.065  28.595  14.440
19102W        W82870  28.052   4.266  13.874
19103W        W82871  30.577   2.764  10.525
19104W        W82872   2.354  36.514   3.250
19105W        W82873  28.628   2.966  14.867
19106W        W82874  17.234  16.701   9.444
19107W        W82875   0.906  14.692  13.019
19108W        W82876   4.801  44.280   3.281
19109W        W82877  37.568  38.049   2.251
19110W        W82878  36.058  44.985   4.754
19111W        W82879  10.737  23.584   1.816
19112W        W82880  36.488  17.099  10.060
19113W        W82881  26.630  13.176  14.408
19114W        W82882   3.266  37.997  11.030
19115W        W82883  43.896   2.833   3.345
19116W        W82884   6.332  17.630   3.690
19117W        W82885   5.357  27.964  11.893
19118W        W82886  15.607  44.360   3.367
19119W        W82887   1.814  34.584   3.675
19120W        W82888  20.107  41.036   1.806
19121W        W82889   1.421   7.191  13.502
19122W        W82890  34.468  17.232  14.953
19123W        W82891  13.267  14.298   5.318
19124W        W82892  10.815  26.477   3.783
19125W        W82893   1.961  35.957  12.378
19126W        W82894  40.982  44.851   1.790
19127W        W82895  28.975   2.948  10.932
19128W        W82896  21.242  19.084   0.796
19129W        W82897  31.596  40.981   0.382
19130W        W82898  28.090  26.548  12.491
19131W        W82899  32.410  43.484  12.419
19132W        W82900   3.321   7.285  11.000
19133W        W82901  26.179  17.240  12.873
19134W        W82902  20.637  13.127  13.369
19135W        W82903   6.701  11.855   1.826
19136W        W82904  24.591  10.856   2.786
19137W        W82905  14.779   7.411   2.383
19138W        W82906  44.878  29.660   2.216
19139W        W82907   6.371  30.459  12.971
19140W        W82908  44.799   5.925  13.389
19141W        W82909  18.550   4.835   5.155
19142W        W82910  38.858   7.728   1.295
19143W        W82911  28.964  22.675   3.264
19144W        W82912  39.015  44.885   1.913
19145W        W82913  19.184   4.760  12.356
19146W        W82914  38.890  26.636  13.802
19147W        W82915  11.665  19.056   1.444
19148W        W82916  43.281  38.920  12.967
19149W        W82917  18.690  32.108  10.908
19150W        W82918   9.160   6.910   3.857
19151W        W82919  17.212  26.571  10.950
19152W        W82920  19.631   0.307   0.344
19153W        W82921  40.819   5.707   4.340
19154W        W82922  14.683  11.347  14.350
19155W        W82923  38.902   5.307   4.601
19156W        W82924   1.405  43.285   1.216
19157W        W82925  25.145   8.204  14.839
19158W        W82926  21.116  25.108   0.798
19159W        W82927   8.717  25.602  11.406
19160W        W82928   9.150  25.209   4.682
19161W        W82929   6.257  27.513  11.057
19162W        W82930  20.643  16.115  13.372
19163W        W82931  13.740  33.075   0.400
19164W        W82932  16.792  41.493  10.933
19165W        W82933   5.208  12.358  13.342
19166W        W82934  40.305  27.503   4.346
19167W        W82935  27.164  30.645   1.245
19168W        W82936  15.674   2.915  12.398
19169W        W82937  14.096   9.758   2.321
19170W        W82938   7.885  17.196  14.960
19171W        W82939  29.116  26.094   0.442
19172W        W82940  22.585  39.379   3.836
19173W        W82941  22.227  43.459  11.407
19174W        W82942   4.274   8.654   3.683
19175W        W82943  13.737   0.286  10.556
19176W        W82944  15.108  42.030   0.760
19177W        W82945  44.891  24.673   1.806
19178W        W82946  43.817   8.178   2.763
19179W        W82947   8.219  41.435  12.979
19180W        W82948   4.365  42.286   2.773
19181W        W82949  41.854  14.096  10.980
19182W        W82950  27.667  22.206   2.690
19183W        W82951   6.259   0.832  13.927
19184W        W82952  32.021  33.093  10.540
19185W        W82953  20.056   4.432  14.311
19186W        W82954  15.329  35.519  13.994
19187W        W82955  17.567  40.393  11.927
19188W        W82956  17.695  43.298   0.921
19189W        W82957  24.098  39.921  10.915
19190W        W82958  28.934  32.555   3.634
19191W        W82959  16.194  35.002   1.703
19192W        W82960  19.670   6.307   0.266
19193W        W82961  21.091  19.711  12.553
19194W        W82962  18.287   4.281   3.667
19195W        W82963  43.303   5.385  10.566
19196W        W82964  44.801  32.506  11.549
19197W        W82965   9.886  10.767   5.237
19198W        W82966  17.786  12.156   2.877
19199W        W82967  18.107  16.775   1.756
19200W        W82968  22.690  33.113   3.817
19201W        W82969  35.896  10.696  11.584
19202W        W82970  25.203   8.748   0.836
19203W        W82971  12.332   2.934   4.172
19204W        W82972  41.492  21.193   0.343
19205W        W82973  25.967  24.649  12.542
19206W        W82974  44.787  22.736   4.318
19207W        W82975  23.191   7.786  13.981
19208W        W82976  23.188   4.409   3.710
19209W        W82977  16.100  11.622   3.189
19210W        W82978  15.180   4.275  13.827
19211W        W82979  23.113  44.392  10.435
19212W        W82980  42.841   7.736   1.413
19213W        W82981   9.840   6.393  11.467
19214W        W82982  24.657   2.772   2.212
19215W        W82983  15.767  10.840  12.018
19216W        W82984  43.806  28.153   4.717
19217W        W82985  31.616  21.213   0.480
19218W        W82986   8.283  21.240  14.514
19219W        W82987  29.015  13.344   0.896
19220W        W82988  24.496  42.006  11.399
19221W        W82989  21.213  22.109  11.539
19222W        W82990  36.073  21.141  11.533
19223W        W82991  40.051  21.154   1.359
19224W        W82992  16.800  26.640   3.644
19225W        W82993   4.827  12.146   1.894
19226W        W82994  33.399  31.446   2.328
19227W        W82995  44.377  35.052  12.011
19228W        W82996   1.831  22.659  14.442
19229W        W82997  42.943  38.340  14.430
19230W        W82998   2.871  28.964  13.461
19231W        W82999  43.351  23.592   1.314
19232W        W83000  25.703  43.368   4.813
19233W        W83001  39.509   3.725  11.927
19234W        W83002  13.105   2.868  13.998
19235W        W83003  15.327  16.237  14.982
19236W        W83004   3.747  13.841  12.032
19237W        W83005  41.318  11.240  14.384
19238W        W83006  13.645  23.016  14.479
19239W        W83007  35.042  37.520  14.394
19240W        W83008  32.588  10.354  12.478
19241W        W83009  44.937  25.017   3.265
19242W        W83010   8.704  29.089   1.747
19243W        W83011   2.231   3.375  10.572
19244W        W83012  20.764  25.632   4.233
19245W        W83013  11.148  38.397   1.882
19246W        W83014  30.984  28.963  10.074
19247W        W83015  33.403  33.126  14.769
19248W        W83016   9.195  37.898  14.927
19249W        W83017   9.353  29.091   4.200
19250W        W83018  37.497   5.220  14.480
19251W        W83019  30.132  17.166  13.960
19252W        W83020   4.270  44.880  11.557
19253W        W83021   9.841   9.266  10.448
19254W        W83022  16.672  37.838   2.322
19255W        W83023   7.730  32.048   5.199
19256W        W83024  40.373  40.439   4.640
19257W        W83025  40.502  19.181  13.928
19258W        W83026  29.599  26.545  10.585
19259W        W83027  28.498  13.347  14.997
19260W        W83028  30.128  43.413  14.918
19261W        W83029  15.601   3.341  12.442
19262W        W83030  17.237  43.962  12.852
19263W        W83031  44.945  38.073  11.988
19264W        W83032  33.103  39.464   4.167
19265W        W83033  40.311  35.504   4.616
19266W        W83034  37.864   7.379   0.338
19267W        W83035   1.740  43.976  10.428
19268W        W83036   2.868  18.558  10.422
19269W        W83037  27.947   9.858   1.814
19270W        W83038  33.940  19.626  12.521
19271W        W83039   5.791   9.781  12.844
19272W        W83040  43.454   0.956  11.999
19273W        W83041  11.771  36.879  12.867
19274W        W83042  42.980  31.123   4.750
19275W        W83043  22.510  29.434   0.790
19276W        W83044  27.126  20.078  14.915
19277W        W83045   3.747  30.030   2.245
19278W        W83046  41.487  30.543  12.496
19279W        W83047  24.094   6.900  12.084
19280W        W83048  13.162  30.462  14.510
19281W        W83049   6.742   4.215   1.372
19282W        W83050  41.030   3.939  14.780
19283W        W83051   7.255  42.313   1.285
19284W        W83052  38.342  34.119  12.089
19285W        W83053  36.072   2.325   0.355
19286W        W83054   4.932   0.968  12.896
19287W        W83055  29.552  37.018  14.385
19288W        W83056  43.910  22.177  14.374
19289W        W83057   2.289   3.712  11.455
19290W        W83058   1.748  40.854  10.553
19291W        W83059  44.957   8.716  11.509
19292W        W83060   9.216  13.261   3.644
19293W        W83061  12.127  21.722   1.794
19294W        W83062   3.811   7.839  10.591
19295W        W83063  39.451  17.185  12.484
19296W        W83064  14.702  30.454  12.887
19297W        W83065  27.474  16.226   3.346
19298W        W83066   2.934   3.229   0.300
19299W        W83067  36.365  15.663   3.190
19300W        W83068  12.625   3.949   0.316
19301W        W83069  41.920  26.022  13.912
19302W        W83070  40.040  43.011   1.829
19303W        W83071   0.865   9.715   2.377
19304W        W83072   6.253   0.868   0.829
19305W        W83073  30.652   5.816  13.435
19306W        W83074  39.440  14.806   2.662
19307W        W83075  20.552  31.979  12.460
19308W        W83076   6.313  13.788   2.410
19309W        W83077  28.045   6.288  10.116
19310W        W83078  16.754  13.723   0.954
19311W        W83079  44.792  19.599   4.685
19312W        W83080  43.825  31.075   2.691
19313W        W83081  35.910  34.418  14.490
19314W        W83082  42.803  39.906   2.193
19315W        W83083  44.468  27.533  13.999
19316W        W83084  33.908   7.313  12.037
19317W        W83085  10.162  17.061  13.418
19318W        W83086  21.671  41.438   0.318
19319W        W83087  27.468  30.154   0.363
19320W        W83088   9.890  18.671  10.917
19321W        W83089  10.321  34.984   2.306
19322W        W83090  43.879   7.411  13.527
19323W        W83091  14.128  16.733   0.761
19324W        W83092  24.124  31.512  13.387
19325W        W83093   1.747  30.636  11.398
19326W        W83094  13.613  44.374   0.441
19327W        W83095   2.337   2.472  14.403
19328W        W83096  34.028  43.481   0.246
19329W        W83097  27.047  34.558  11.936
19330W        W83098   1.334  38.467  14.995
19331W        W83099   5.268  30.502  14.358
19332W        W83100  36.364   0.436  11.591
19333W        W83101   5.353  38.877  10.910
19334W        W83102   5.690  38.351   2.871
19335W        W83103  44.817  19.577  14.417
19336W        W83104  36.384   2.464  14.413
19337W        W83105  11.638  44.877  13.547
19338W        W83106  20.250  34.553   4.652
19339W        W83107  10.300  43.816  10.036
19340W        W83108  11.168  14.126   2.818
19341W        W83109  12.352   8.404  12.832
19342W        W83110  28.610   4.786  10.556
19343W        W83111  13.246  30.972  11.526
19344W        W83112  34.035   9.665   1.735
19345W        W83113   4.331  33.438  12.094
19346W        W83114  11.733  31.634  11.586
19347W        W83115  22.236  16.690  14.383
19348W        W83116  44.453   2.230  13.029
19349W        W83117   4.785  19.637  12.577
19350W        W83118   0.939  36.920  10.933
19351W        W83119  10.296  40.811  11.483
19352W        W83120  14.621  22.523  11.082
19353W        W83121  37.496  29.056   0.350
19354W        W83122  11.642  44.885   1.722
19355W        W83123  17.723   3.737  10.634
19356W        W83124   7.835  39.371   1.935
19357W        W83125   2.782   3.220   3.353
19358W        W83126  15.624  39.861  14.991
19359W        W83127   5.302  26.538  10.928
19360W        W83128  34.539  39.499  11.943
19361W        W83129  13.804  38.538  10.442
19362W        W83130  14.104  26.106   0.745
19363W        W83131  40.912   9.688  14.292
19364W        W83132  39.929  32.129  11.965
19365W        W83133  14.704  14.182  11.556
19366W        W83134   7.190  31.610  10.977
19367W        W83135  39.546  14.177   3.687
19368W        W83136  21.107  39.044  14.862
19369W        W83137  10.645  14.335  13.061
19370W        W83138   3.299  32.593  12.886
19371W        W83139  10.729  22.631  14.954
19372W        W83140  31.068   0.264   4.635
19373W        W83141  39.395  16.741   0.330
19374W        W83142  41.804  25.074   9.987
19375W        W83143  11.753  22.713  13.892
19376W        W83144  37.891  25.135  14.924
19377W        W83145  30.931  22.052  11.060
19378W        W83146  29.583  19.701  14.807
19379W        W83147   1.344  25.989   1.698
19380W        W83148  43.853  14.290   0.815
19381W        W83149  19.206  14.775  13.502
19382W        W83150  22.585  25.560   2.664
19383W        W83151  18.684   4.811   2.810
19384W        W83152   8.356  30.090  13.493
19385W        W83153  38.910  22.560  14.404
19386W        W83154  43.310  21.161  13.460
19387W        W83155  16.128  13.274  13.001
19388W        W83156   0.320  27.190   1.889
19389W        W83157  22.727  37.421   5.100
19390W        W83158  29.441  22.010  11.964
19391W        W83159  25.982   6.783  13.514
19392W        W83160  33.075  37.978  14.031
19393W        W83161   3.263  21.055   5.200
19394W        W83162   9.216  40.394   3.291
19395W        W83163  29.630  14.123  10.892
19396W        W83164  27.099  17.067   2.792
19397W        W83165  33.430  23.228  11.525
19398W        W83166  20.761   9.279   3.642
19399W        W83167  31.912  30.133  10.435
19400W        W83168  39.372  19.173   2.764
19401W        W83169  27.651  31.468   4.799
19402W        W83170   2.456  17.230  14.501
19403W        W83171  28.135  13.746  12.875
19404W        W83172  41.437  41.533   4.719
19405W        W83173  36.038   2.809  12.041
19406W        W83174   9.850  34.990  10.409
19407W        W83175  24.069  30.148   3.357
19408W        W83176  40.837   1.374   0.285
19409W        W83177  26.574  22.214   2.210
19410W        W83178   7.826  31.498  12.095
19411W        W83179  10.206   1.306  10.436
19412W        W83180   6.734  40.799   4.160
19413W        W83181   7.354   4.253   1.809
19414W        W83182  36.000   6.763   0.902
19415W        W83183   1.408  30.637  13.450
19416W        W83184  18.599  24.992   1.800
19417W        W83185   7.767  22.518   1.391
19418W        W83186   3.772  27.470  11.003
19419W        W83187  28.101  41.380   1.276
19420W        W83188  29.944  34.572  10.905
19421W        W83189   4.925   9.215   3.652
19422W        W83190  18.282  11.798  10.412
19423W        W83191   8.230  30.116   2.217
19424W        W83192  36.041   7.207  12.377
19425W        W83193  14.767  18.782  12.486
19426W        W83194  17.736   7.871  11.570
19427W        W83195   6.314  18.141  10.900
19428W        W83196  27.050  26.682  13.893
19429W        W83197   4.435  20.174   2.216
19430W        W83198  23.129  36.921   3.792
19431W        W83199  24.013   3.838  13.322
19432W        W83200  42.458   2.816  11.074
19433W        W83201  30.102  24.687  14.466
19434W        W83202  32.513   8.822   5.285
19435W        W83203  43.376  22.602   1.295
19436W        W83204   3.771  29.943   0.815
19437W        W83205  11.267  35.009  14.822
19438W        W83206  42.472   6.368   1.219
19439W        W83207  44.865  44.428  12.089
19440W        W83208   1.254   3.339   4.280
19441W        W83209  38.989  42.814   4.633
19442W        W83210  31.934  32.398  10.898
19443W        W83211   9.258   8.167   3.665
19444W        W83212  29.153  31.044   2.661
19445W        W83213  11.357  42.913   2.765
19446W        W83214  41.950  23.603   0.726
19447W        W83215   8.680  24.494   4.115
19448W        W83216  43.480  26.647   0.874
19449W        W83217  40.481   9.156   2.281
19450W        W83218   1.297  18.709  11.976
19451W        W83219  36.552  40.849  11.485
19452W        W83220  34.957   6.694   3.858
19453W        W83221   2.228   3.225  13.945
19454W        W83222  43.349  21.602  14.913
19455W        W83223  43.294   6.804  14.382
19456W        W83224  21.238  10.322  14.458
19457W        W83225  18.162  15.321   0.855
19458W        W83226  31.421   3.328   0.427
19459W        W83227  24.602  44.873  13.327
19460W        W83228  10.633  30.550  13.854
19461W        W83229  18.202  11.246   3.208
19462W        W83230  27.044  22.194  11.987
19463W        W83231   4.875  35.510  12.054
19464W        W83232  14.108   4.346  10.614
19465W        W83233  33.565  24.030  11.126
19466W        W83234   5.393  10.826  13.470
19467W        W83235  42.490  36.514   1.302
19468W        W83236  35.366  37.001  13.356
19469W        W83237  27.660  44.491  14.953
19470W        W83238  28.639  43.861   4.824
19471W        W83239  42.374   3.435   4.309
19472W        W83240  22.737  24.042   4.201
19473W        W83241  32.510   1.777   1.433
19474W        W83242  33.922  30.536  10.485
19475W        W83243  40.487  31.495  14.932
19476W        W83244   5.795   9.367   4.774
19477W        W83245  31.532  36.470  11.985
19478W        W83246  30.495   7.871   5.176
19479W        W83247   6.766  22.159   2.696
19480W        W83248  23.143  16.104  12.454
19481W        W83249  39.390  10.262   3.286
19482W        W83250   1.898   4.335   1.846
19483W        W83251   8.163   3.372   0.890
19484W        W83252   2.452  10.831  12.944
19485W        W83253   9.375   7.836   3.381
19486W        W83254  28.452  24.006  11.522
19487W        W83255  25.216  43.764  14.451
19488W        W83256  13.748  24.584  10.559
19489W        W83257  21.180   6.198   0.836
19490W        W83258   8.317  38.865  14.428
19491W        W83259  22.221  27.562  14.926
19492W        W83260  34.399  10.221   2.756
19493W        W83261  25.477  33.486   4.775
19494W        W83262  33.499  31.470  13.495
19495W        W83263  16.297  34.382  13.832
19496W        W83264  20.042  28.584  11.012
19497W        W83265  33.985  11.189   4.187
19498W        W83266  21.169  42.855  11.979
19499W        W83267   9.803  32.936   0.408
19500W        W83268   2.266  28.451  13.845
19501W        W83269  18.258  25.588   2.308
19502W        W83270   8.853  12.231  13.997
19503W        W83271   9.729  20.650  12.500
19504W        W83272  28.166  33.974   1.845
19505W        W83273  29.641  36.486   2.241
19506W        W83274  18.204  19.736   3.775
19507W        W83275  14.789   8.392  14.514
19508W        W83276  24.974  39.531  12.836
19509W        W83277  14.731  36.086   2.871
19510W        W83278  34.598  25.103  12.359
19511W        W83279  41.952   7.856   1.299
19512W        W83280  27.482   1.286   3.852
19513W        W83281  19.098  12.334   3.715
19514W        W83282  24.714   7.329   3.633
19515W        W83283  10.213  29.123   3.338
19516W        W83284  22.114  42.500  12.540
19517W        W83285   1.970  19.121  13.960
19518W        W83286   6.758  18.579   0.332
19519W        W83287  41.418   6.240  11.507
19520W        W83288   7.802  19.088  12.949
19521W        W83289   8.853   2.897  10.607
19522W        W83290  37.941  20.640  10.593
19523W        W83291  19.256  30.110   5.318
19524W        W83292  35.406   1.871  12.963
19525W        W83293  35.387  21.746   2.349
19526W        W83294   4.798  26.971   0.381
19527W        W83295  22.635  35.970  11.598
19528W        W83296   5.700  44.455  13.035
19529W        W83297   9.873  21.209  11.460
19530W        W83298  24.548   6.902  10.407
19531W        W83299  11.784   0.438   2.299
19532W        W83300  43.444  11.712  11.907
19533W        W83301   0.794   3.830   0.728
19534W        W83302  14.201  10.792  10.604
19535W        W83303   9.153  13.295  13.018
19536W        W83304  11.240   5.405   2.243
19537W        W83305  30.579   4.379  10.980
19538W        W83306  10.175  12.718  14.938
19539W        W83307   7.750  16.226  12.462
19540W        W83308  27.031  11.769  12.912
19541W        W83309  11.260  24.585   3.832
19542W        W83310  30.528   3.388   4.609
19543W        W83311  11.708  41.394  12.414
19544W        W83312  18.109  34.606   0.880
19545W        W83313   8.318  21.736  13.890
19546W        W83314  38.912   4.259   4.312
19547W        W83315   4.768   1.390   2.690
19548W        W83316  28.043  40.487  12.911
19549W        W83317   5.849   9.675   4.608
19550W        W83318   5.281  23.034  14.393
19551W        W83319  25.472  15.129  11.402
19552W        W83320  36.906   6.721   1.807
19553W        W83321  19.671  28.653  10.585
19554W        W83322   5.403  29.493  11.990
19555W        W83323   6.690   9.220  14.881
19556W        W83324   2.378  24.664  13.963
19557W        W83325  42.306  11.351  14.925
19558W        W83326  41.802  31.578   0.327
19559W        W83327   7.337  27.975  12.085
19560W        W83328  41.531  37.963   1.718
19561W        W83329  11.679  39.981   2.381
19562W        W83330  32.451  21.602  10.930
19563W        W83331  36.446  22.639  13.992
19564W        W83332  36.453  22.073  10.428
19565W        W83333  36.093   6.184  13.898
19566W        W83334  14.721  13.646  13.047
19567W        W83335  18.554  18.103   2.382
19568W        W83336  24.987   9.789  12.370
19569W        W83337   4.324  29.511   1.849
19570W        W83338  43.436  29.168   1.397
19571W        W83339  43.319  28.471  13.497
19572W        W83340  30.461  22.224   3.769
19573W        W83341   7.327  37.853   4.742
19574W        W83342  16.136   1.424   2.837
19575W        W83343  32.964  14.796  12.431
19576W        W83344  40.478  33.565   4.220
19577W        W83345   5.331  15.632   0.858
19578W        W83346  35.101  21.046   4.139
19579W        W83347   1.751  14.135  11.996
19580W        W83348  42.350  27.129   3.778
19581W        W83349  34.521   9.231   4.182
19582W        W83350  32.910   1.398   2.384
19583W        W83351  42.387   0.905   4.232
19584W        W83352  34.898  20.716  13.928
19585W        W83353  22.110  26.076  14.779
19586W        W83354   4.720  14.728  14.331
19587W        W83355  26.110  15.796  14.029
19588W        W83356  16.199   5.909   4.169
19589W        W83357  29.057  15.674  11.910
19590W        W83358   5.353  23.087   1.790
19591W        W83359   8.746  13.772  13.440
19592W        W83360   2.267  14.800  12.091
19593W        W83361  20.137   0.333  13.867
19594W        W83362   1.848  25.054  12.923
19595W        W83363  33.895  12.175   4.774
19596W        W83364  20.567  37.384  13.539
19597W        W83365  14.221  25.516  10.132
19598W        W83366  38.909   7.354   0.846
19599W        W83367  35.910  31.150   3.197
19600W        W83368  16.749  12.795   3.655
19601W        W83369  44.937  42.972   5.099
19602W        W83370   6.828  11.821   3.326
19603W        W83371  16.164  35.496   4.616
19604W        W83372   0.807  26.553  11.027
19605W        W83373   1.744  44.303  14.899
19606W        W83374  12.754  14.167  13.965
19607W        W83375  18.052  27.675  12.060
19608W        W83376  21.647   7.331  14.803
19609W        W83377  17.198  37.545   1.426
19610W        W83378  39.341  32.403   3.790
19611W        W83379   5.752  42.471   1.887
19612W        W83380  13.342  19.635   3.278
19613W        W83381  14.280   5.932   1.232
19614W        W83382  39.453  43.494  13.516
19615W        W83383   4.860   1.923   1.912
19616W        W83384   1.438  30.089  10.440
19617W        W83385  14.140   2.455   2.705
19618W        W83386   8.833  18.779  13.924
19619W        W83387  19.163   0.433   4.609
19620W        W83388  20.105  11.708   3.859
19621W        W83389   4.736  20.731  14.970
19622W        W83390  34.033  33.569   1.385
19623W        W83391  37.870   1.387  11.422
19624W        W83392  27.973  22.198  14.388
19625W        W83393  18.782  16.209  10.407
19626W        W83394  31.020  11.747   3.773
19627W        W83395  16.282  28.631   1.384
19628W        W83396  14.767  31.438  12.551
19629W        W83397  13.651  34.061  11.125
19630W        W83398  21.083  27.503   1.394
19631W        W83399  25.166  11.832  14.406
19632W        W83400  20.166   3.403  12.354
19633W        W83401  44.934  16.620   4.625
19634W        W83402  43.343  29.494   4.822
19635W        W83403  41.971   9.871  10.405
19636W        W83404   0.883  23.657  13.813
19637W        W83405  25.149  14.202  10.042
19638W        W83406  20.654   3.353  13.433
19639W        W83407   0.834  26.684   0.324
19640W        W83408   7.246  43.348   3.651
19641W        W83409   9.799  16.102   1.771
19642W        W83410  34.454  39.026   1.350
19643W        W83411  34.398  16.722   3.711
19644W        W83412   9.363  27.111   2.814
19645W        W83413  14.324   0.903  13.408
19646W        W83414   1.745  17.221   1.372
19647W        W83415  38.343  38.368  14.495
19648W        W83416  28.676  27.607   1.262
19649W        W83417  32.048   1.252   0.903
19650W        W83418  17.171  43.841   2.866
19651W        W83419  33.117   9.738   1.775
19652W        W83420   3.723   3.901  11.611
19653W        W83421  20.651  38.399   0.324
19654W        W83422  37.361   0.892  10.440
19655W        W83423  43.400   8.346   0.305
19656W        W83424  27.997  27.473  14.990
19657W        W83425  33.497   2.456   2.861
19658W        W83426  32.584  16.604   1.351
19659W        W83427  18.594  32.050   1.760
19660W        W83428  38.923  32.954  13.945
19661W        W83429  17.216   1.836  13.450
19662W        W83430  29.959  43.764   0.937
19663W        W83431   4.872  10.356  11.544
19664W        W83432  18.706  27.549  13.487
19665W        W83433  14.318  15.617   3.660
19666W        W83434  38.500  23.149  10.965
19667W        W83435  38.558   7.896   2.376
19668W        W83436  37.937  10.712   3.644
19669W        W83437  21.211  23.605  11.996
19670W        W83438   6.317  25.126   9.924
19671W        W83439  37.361  28.490   0.261
19672W        W83440   6.909   8.754   0.925
19673W        W83441  20.621  43.409  12.002
19674W        W83442  40.850  14.311  10.580
19675W        W83443  16.278   8.664   1.726
19676W        W83444  41.019  38.894   2.366
19677W        W83445  38.045  11.313  13.900
19678W        W83446  27.499  20.696  14.397
19679W        W83447   9.267   9.296  11.021
19680W        W83448  25.049  26.995  11.914
19681W        W83449  41.341   4.285   4.202
19682W        W83450   5.269   5.421  14.502
19683W        W83451   9.281  10.260  12.346
19684W        W83452  31.970  31.997   2.374
19685W        W83453  27.048  13.628   5.198
19686W        W83454  30.089  30.929   1.771
19687W        W83455  23.651  32.560  14.414
19688W        W83456   5.717  32.995   0.347
19689W        W83457  35.454  31.931   2.717
19690W        W83458  24.200  30.926  12.375
19691W        W83459  28.463  21.155   3.292
19692W        W83460   4.927  34.984  12.957
19693W        W83461   3.850  23.202   3.222
19694W        W83462   2.298  21.031  11.027
19695W        W83463  31.490  31.095  13.473
19696W        W83464  41.509  12.699   0.325
19697W        W83465  19.614  22.159   2.251
19698W        W83466  29.657  33.875   1.744
19699W        W83467  27.991  16.300   2.344
19700W        W83468  31.148  23.674   4.159
19701W        W83469  39.883  14.745  12.404
19702W        W83470  26.651   9.830  12.489
19703W        W83471  35.873   4.246  14.410
19704W        W83472  44.458   0.978  12.393
19705W        W83473  39.466  41.004   0.251
19706W        W83474   3.947   2.759   3.326
19707W        W83475  11.352  22.672   3.741
19708W        W83476  35.590  28.608   0.903
19709W        W83477  42.964   2.868   3.195
19710W        W83478  25.516  30.150  13.930
19711W        W83479   6.876  23.014  13.980
19712W        W83480  35.891  20.589  14.911
19713W        W83481  34.562  41.343  13.895
19714W        W83482  20.160  33.397   9.493
19715W        W83483  25.997  28.135   0.732
19716W        W83484  28.120   7.197   2.799
19717W        W83485  40.028  17.615   2.833
19718W        W83486  40.406  41.379   3.161
19719W        W83487  33.403   2.439  14.317
19720W        W83488   9.389  27.452   2.776
19721W        W83489  17.634  10.159  11.526
19722W        W83490  21.574  13.336   0.757
19723W        W83491  42.389  31.928   3.377
19724W        W83492  25.003   0.860   1.727
19725W        W83493  40.415  31.416   4.140
19726W        W83494  34.061  28.551   3.157
19727W        W83495  27.605  21.648  13.973
19728W        W83496  40.306   4.731   2.308
19729W        W83497  41.794   1.966   4.179
19730W        W83498   4.286  29.663  11.075
19731W        W83499  33.963  15.640  10.963
19732W        W83500  17.264  37.379  10.601
19733W        W83501  15.277  19.210  11.536
19734W        W83502   6.809  16.802  13.997
19735W        W83503  42.821  41.929  14.769
19736W        W83504  16.284  27.629   4.319
19737W        W83505  29.064  19.045  11.462
19738W        W83506  31.533   0.916   1.855
19739W        W83507   4.835   0.363   3.677
19740W        W83508  36.364  17.108   0.847
19741W        W83509  36.372  24.693   1.434
19742W        W83510  43.828  28.042   1.225
19743W        W83511  22.072  11.692   4.184
19744W        W83512  23.583   6.690   3.327
19745W        W83513   0.903  28.076  12.869
19746W        W83514  15.197  31.916   3.199
19747W        W83515  16.673  14.138  10.895
19748W        W83516   8.833  32.989   0.755
19749W        W83517   1.785  21.087   4.244
19750W        W83518   2.768  40.858  12.093
19751W        W83519  25.026  37.859   0.961
19752W        W83520   0.424  43.288  10.609
19753W        W83521  19.071   0.835   4.828
19754W        W83522  32.551  41.408   1.259
19755W        W83523   7.697   6.715   4.832
19756W        W83524  36.886   2.853  12.989
19757W        W83525   1.450   1.482  10.988
19758W        W83526  22.191  34.084  14.336
19759W        W83527  16.746  25.482   4.676
19760W        W83528  25.156  19.048   0.474
19761W        W83529  31.543   6.321  11.468
19762W        W83530  30.092  42.298  12.432
19763W        W83531  34.073  26.165  12.453
19764W        W83532   3.824  11.853  11.509
19765W        W83533  22.635  42.475  14.446
19766W        W83534  42.794  17.181  12.375
19767W        W83535  13.644  24.525   1.225
19768W        W83536  18.679   4.912  11.599
19769W        W83537  18.159  32.919   3.278
19770W        W83538  36.015  41.463  12.922
19771W        W83539  22.607  32.061   1.812
19772W        W83540  18.124  41.538   0.420
19773W        W83541  10.815  44.412   4.213
19774W        W83542  30.500   9.168   0.893
19775W        W83543  10.691  30.157   4.316
19776W        W83544  39.449  29.126   3.857
19777W        W83545  38.534  18.566  11.496
19778W        W83546  41.854  44.343   2.312
19779W        W83547  38.007  16.679  14.386
19780W        W83548  21.579  37.980   3.641
19781W        W83549  32.998  42.522  11.063
19782W        W83550  15.321  37.860   2.706
19783W        W83551  38.396  22.704  10.958
19784W        W83552  30.516  21.236   3.725
19785W        W83553  10.786  40.954  12.860
19786W        W83554  16.648  26.020  12.406
19787W        W83555   4.365  33.124   1.745
19788W        W83556  17.137  44.800  12.031
19789W        W83557  40.320   1.808  10.518
19790W        W83558  34.569  11.267   4.721
19791W        W83559  27.502  26.048   3.796
19792W        W83560  17.233  41.810  14.011
19793W        W83561  43.929  31.505   3.751
19794W        W83562   2.791  19.690  10.989
19795W        W83563  20.768  10.357   2.811
19796W        W83564  22.677   9.223   4.681
19797W        W83565   6.757  19.224   3.185
19798W        W83566  36.529  41.974  12.387
19799W        W83567  11.729  42.428  12.928
19800W        W83568   9.678  38.059  14.441
19801W        W83569  15.682  15.596  12.068
19802W        W83570  31.027  33.899  11.025
19803W        W83571  33.436  30.137  12.386
19804W        W83572  12.308  44.288   4.618
19805W        W83573  36.453  11.328   1.393
19806W        W83574  13.292  12.692   1.741
19807W        W83575  31.566  16.229  14.447
19808W        W83576  42.488   0.428  11.021
19809W        W83577  37.835  26.159   3.862
19810W        W83578  14.185   3.280  13.320
19811W        W83579  24.050  38.475   3.183
19812W        W83580  38.945  14.189  11.936
19813W        W83581  43.273  29.067  12.500
19814W        W83582  33.107  11.667   2.667
19815W        W83583  37.495  12.149   3.737
19816W        W83584  18.236  20.270   0.831
19817W        W83585  15.317  10.369   0.441
19818W        W83586  14.299  40.989   0.873
19819W        W83587  38.047  14.323   4.737
19820W        W83588  33.540  13.335   4.748
19821W        W83589  10.241  14.251   1.818
19822W        W83590  41.537   5.289   0.954
19823W        W83591  13.124  28.035  13.403
19824W        W83592  17.752  14.218   3.345
19825W        W83593  23.213  30.516  10.630
19826W        W83594   6.735  23.988   2.700
19827W        W83595   3.350  42.379   2.402
19828W        W83596  32.937   4.313  14.917
19829W        W83597  42.362  12.294  14.460
19830W        W83598  15.288  14.808  11.884
19831W        W83599  43.798  34.875  12.855
19832W        W83600  26.069   6.425   4.679
19833W        W83601   3.245  35.487  14.005
19834W        W83602  38.472  33.569   1.855
19835W        W83603  40.900   7.403  11.093
19836W        W83604   1.342  26.620  12.446
19837W        W83605   7.210  16.655   0.244
19838W        W83606  29.595  11.665  10.969
19839W        W83607  27.462  39.467  10.533
19840W        W83608  15.767  42.898   5.193
19841W        W83609   9.715  30.965  11.087
19842W        W83610  25.013  40.350  12.407
19843W        W83611  41.511  19.120  14.995
19844W        W83612  37.078  10.331   2.272
19845W        W83613  39.490  23.610  11.383
19846W        W83614  26.038  42.876  14.865
19847W        W83615  40.972   6.246  12.029
19848W        W83616   5.249   4.371  14.444
19849W        W83617  33.480  12.328   3.224
19850W        W83618   0.831   2.437  10.981
19851W        W83619  39.500  25.556   4.728
19852W        W83620  34.093   2.262   0.855
19853W        W83621  31.635  34.039  10.570
19854W        W83622  31.987  10.746  11.963
19855W        W83623  37.055  28.458   5.692
19856W        W83624  40.508  24.485   3.173
19857W        W83625   5.396  24.975   0.891
19858W        W83626   3.376  12.162  14.012
19859W        W83627  42.312  12.162   0.861
19860W        W83628  21.053  13.258  11.500
19861W        W83629  42.969  24.563  13.044
19862W        W83630  44.004  32.082  10.495
19863W        W83631   6.878  38.513   3.671
19864W        W83632  24.047   8.889  12.539
19865W        W83633   1.951  36.008   3.273
19866W        W83634   2.844  33.083  11.006
19867W        W83635  15.806  33.006  14.481
19868W        W83636  37.530  40.329  12.869
19869W        W83637  22.671  26.481   1.364
19870W        W83638  42.332  23.607  10.421
19871W        W83639  34.011  40.429  13.539
19872W        W83640   0.766  43.994   0.360
19873W        W83641   3.446   3.416  10.916
19874W        W83642  18.768  33.562   3.714
19875W        W83643  40.488   3.755   2.755
19876W        W83644  24.173  29.041   4.648
19877W        W83645  37.423   7.283   2.398
19878W        W83646   1.286  11.235  13.920
19879W        W83647  37.481  20.715  10.957
19880W        W83648  21.633  43.431  13.307
19881W        W83649  37.867   3.435  10.562
19882W        W83650  38.049   7.220  11.864
19883W        W83651  29.508  33.945   4.202
19884W        W83652  38.893  15.813  13.848
19885W        W83653  22.572  14.686  10.404
19886W        W83654   8.404  40.370  13.806
19887W        W83655  14.600  29.437  14.947
19888W        W83656  30.523  17.792   4.653
19889W        W83657  29.582  41.535  10.521
19890W        W83658   7.812   9.160   1.384
19891W        W83659  35.947  42.779  11.960
19892W        W83660  21.017  43.297   1.913
19893W        W83661   9.223  26.087  12.866
19894W        W83662  17.745  15.085  12.465
19895W        W83663   7.869  26.522   4.228
19896W        W83664  43.018  40.421  11.003
19897W        W83665  26.027  17.102   0.733
19898W        W83666  19.770   6.254  14.797
19899W        W83667  43.438  33.569  13.010
19900W        W83668  17.152  24.200  13.324
19901W        W83669  32.051  31.039   4.814
19902W        W83670  24.149  11.867  14.893
19903W        W83671  38.505  19.555  14.429
19904W        W83672  32.489   4.285   3.636
19905W        W83673  15.268  10.345  13.800
19906W        W83674  40.033  30.579   3.798
19907W        W83675  18.275  10.203  11.580
19908W        W83676  26.612  29.995   4.652
19909W        W83677  27.521  35.075   1.288
19910W        W83678  17.775  29.102   0.911
19911W        W83679  22.076  33.924  11.483
19912W        W83680  17.197  33.570   1.378
19913W        W83681  43.865  15.271   3.704
19914W        W83682  44.474  15.633  10.598
19915W        W83683  20.049  12.257  11.377
19916W        W83684  32.091  20.067   0.923
19917W        W83685  32.630  11.631  10.969
19918W        W83686  26.677   0.958  13.470
19919W        W83687  12.632   6.783  11.042
19920W        W83688  37.457  15.651   5.261
19921W        W83689  39.816  30.934   0.359
19922W        W83690  27.960  43.398   2.789
19923W        W83691  34.120  41.446  12.418
19924W        W83692   8.668  16.642  10.556
19925W        W83693  11.848  25.625  12.991
19926W        W83694  11.756  31.467   1.413
19927W        W83695   6.726  15.589   3.734
19928W        W83696  31.904  27.983  11.999
19929W        W83697  43.512  26.523  13.052
19930W        W83698   5.782  36.907  11.007
19931W        W83699  43.987   7.911   3.297
19932W        W83700  29.965  44.493   1.703
19933W        W83701  18.239  22.186  10.429
19934W        W83702  39.937  20.178   4.781
19935W        W83703  43.944  37.999   4.163
19936W        W83704   3.924  23.615   2.895
19937W        W83705  19.065   2.799  11.408
19938W        W83706  26.655  29.045  12.542
19939W        W83707  31.130  18.215  14.480
19940W        W83708   8.837  28.056   3.769
19941W        W83709  10.260   1.444   3.666
19942W        W83710  17.670  17.745   3.329
19943W        W83711  13.284  25.468   4.257
19944W        W83712  15.231  14.144  12.362
19945W        W83713  24.487   2.751  12.454
19946W        W83714  13.675  18.677  14.503
19947W        W83715   0.809  38.834   0.758
19948W        W83716  13.300   3.301   4.144
19949W        W83717  37.337  10.209  10.609
19950W        W83718   0.358   6.881   3.691
19951W        W83719  15.603  17.123  12.546
19952W        W83720   0.824  36.365   3.802
19953W        W83721  22.529   3.894  14.397
19954W        W83722  43.299  26.558  13.355
19955W        W83723  20.068  20.256   2.859
19956W        W83724  44.503  36.574  13.420
19957W        W83725  36.991  38.370  13.947
19958W        W83726  21.080   8.406   3.846
19959W        W83727  20.761  32.585  13.809
19960W        W83728  31.560  20.669  13.944
19961W        W83729  42.371  29.483  13.438
19962W        W83730  39.494   6.774   9.979
19963W        W83731  38.036  32.916   4.823
19964W        W83732  12.271  25.214   3.179
19965W        W83733   3.913  16.643  13.437
19966W        W83734  31.909  21.044  10.575
19967W        W83735   6.304  44.002  11.003
19968W        W83736  41.339  31.018   5.110
19969W        W83737   3.317  42.014  11.050
19970W        W83738   5.422   5.433   4.136
19971W        W83739  34.526  44.425  13.418
19972W        W83740  15.691  41.458  12.351
19973W        W83741  43.425  44.302  13.837
19974W        W83742  40.925  42.836  14.432
19975W        W83743   1.423  13.158  14.953
19976W        W83744   1.736  32.620  10.496
19977W        W83745  22.624  18.191   0.342
19978W        W83746  41.849  40.898   0.924
19979W        W83747  44.272  27.118   4.241
19980W        W83748   7.842  12.231  11.860
19981W        W83749   0.851   8.883  12.976
19982W        W83750  35.862   6.751  13.491
19983W        W83751  41.473  39.809  10.944
19984W        W83752  25.189  36.581  14.371
19985W        W83753  24.673   3.338   4.789
19986W        W83754  38.402  32.481  10.920
19987W        W83755  10.808   4.248   4.146
19988W        W83756  38.961  38.367   0.893
19989W        W83757  12.615  36.482   2.662
19990W        W83758   1.924  17.796  13.924
19991W        W83759  16.199  43.777   0.255
19992W        W83760  38.855  31.508   1.273
19993W        W83761   8.878   6.228   2.374
19994W        W83762  15.245   8.228   4.700
19995W        W83763   8.779  38.433   3.684
19996W        W83764   2.760  34.005   3.820
19997W        W83765  36.929  33.559   3.712
19998W        W83766  18.726  40.866  12.977
19999W        W83767  13.203  22.539  12.431
20000W        W83768   4.213   2.793  13.021
20001W        W83769  16.757   8.732   5.278
20002W        W83770  10.220   4.891   2.890
20003W        W83771  44.263  34.966   1.341
20004W        W83772  12.722  42.801  14.001
20005W        W83773  23.534  11.622   5.569
20006W        W83774  23.682  24.695   0.959
20007W        W83775  10.874  29.501   1.833
20008W        W83776  28.022  33.016  14.967
20009W        W83777  10.222  21.140   3.709
20010W        W83778  25.526  31.420  12.401
20011W        W83779   0.779  15.760   1.217
20012W        W83780   6.217  12.351   4.233
20013W        W83781  10.651   6.788  10.451
20014W        W83782   8.314  18.144  12.923
20015W        W83783  21.246  21.089   4.724
20016W        W83784  26.546  36.885   4.260
20017W        W83785  20.179  11.202   1.866
20018W        W83786  18.600  25.127   2.775
20019W        W83787  27.078  22.722   0.360
20020W        W83788  38.882  36.360  12.530
20021W        W83789  24.543  17.746  11.075
20022W        W83790  24.162  17.267  11.529
20023W        W83791  23.133  38.384   0.432
20024W        W83792   0.480  26.690  11.884
20025W        W83793  14.795  39.894  12.495
20026W        W83794  26.019  14.242   1.898
20027W        W83795  24.137  39.024  11.490
20028W        W83796  14.751  31.949  11.015
20029W        W83797  15.719   7.871  11.549
20030W        W83798  27.982  23.493  12.408
20031W        W83799  44.954  14.616   1.252
20032W        W83800   8.402  27.030  14.307
20033W        W83801  39.476  34.026   0.764
20034W        W83802  26.456  44.837  10.614
20035W        W83803   1.794  17.644  12.050
20036W        W83804   7.317  40.429  12.005
20037W        W83805   2.304  30.459   1.417
20038W        W83806  22.578  20.561   3.351
20039W        W83807   6.188   7.198  13.510
20040W        W83808  41.326   9.731  12.430
20041W        W83809  38.369  27.582  13.840
20042W        W83810  28.474  14.282   2.343
20043W        W83811  31.624   6.768   0.812
20044W        W83812   5.851  21.168  11.528
20045W        W83813  21.161  26.483   3.766
20046W        W83814   1.869  26.499  14.782
20047W        W83815  44.811  36.913   5.226
20048W        W83816  39.464  16.182  10.561
20049W        W83817   4.440  39.063  11.391
20050W        W83818  37.034  28.482  12.001
20051W        W83819   8.385   7.176   2.299
20052W        W83820  29.965   9.346   2.736
20053W        W83821  35.084  33.079  11.480
20054W        W83822  22.643  31.945  12.434
20055W        W83823  37.916  33.078   1.746
20056W        W83824  30.985   9.297   0.408
20057W        W83825  29.969  39.322   2.382
20058W        W83826  42.015  40.882  12.931
20059W        W83827  10.824   5.328  12.423
20060W        W83828   9.212   3.847  11.091
20061W        W83829  25.606  31.095   4.175
20062W        W83830  32.456  33.427  11.411
20063W        W83831  33.967  11.760  14.324
20064W        W83832  43.497  19.678   3.190
20065W        W83833   5.918  43.515  12.554
20066W        W83834  18.237   0.896  10.597
20067W        W83835  11.272  27.520   1.804
20068W        W83836  16.672   1.930   4.181
20069W        W83837  21.700   4.822   4.759
20070W        W83838  21.524  31.128  13.878
20071W        W83839  28.990  27.024   3.258
20072W        W83840  34.519  28.997   1.309
20073W        W83841  33.913  18.735   0.321
20074W        W83842  28.548  37.374  11.957
20075W        W83843  21.089  15.797   4.235
20076W        W83844  40.885   8.706  10.411
20077W        W83845   5.855   9.838  12.449
20078W        W83846  14.660  10.872   2.400
20079W        W83847  11.780  25.569  14.906
20080W        W83848  32.063  15.152  13.837
20081W        W83849  21.720  23.683  13.376
20082W        W83850  11.280  39.867  12.488
20083W        W83851   4.890  28.140   1.282
20084W        W83852   2.866  22.069  14.031
20085W        W83853  25.676  14.598  11.000
20086W        W83854   6.314  17.224  11.925
20087W        W83855  20.587  13.820  14.884
20088W        W83856  32.132  36.570  10.490
20089W        W83857  38.827   5.933  13.998
20090W        W83858  13.240  21.222   4.343
20091W        W83859   2.294   8.751   4.119
20092W        W83860  27.466   9.280   3.295
20093W        W83861  12.695  33.059   3.755
20094W        W83862  31.023  15.688  13.991
20095W        W83863  35.513  31.097   3.663
20096W        W83864  35.397  21.695  13.801
20097W        W83865  39.808   8.761  14.797
20098W        W83866  17.225  37.049   3.211
20099W        W83867  30.012  24.481   0.920
20100W        W83868  14.649  11.223   2.772
20101W        W83869   7.227  21.628  12.968
20102W        W83870  19.247  22.743  11.371
20103W        W83871  22.060  24.603   1.848
20104W        W83872   7.714  35.971   2.349
20105W        W83873  21.102   2.763   2.799
20106W        W83874   3.246  23.663   0.433
20107W        W83875  36.902  20.698  12.876
20108W        W83876  25.678  15.790  14.826
20109W        W83877  27.997  28.086  11.877
20110W        W83878  13.662  21.582   0.418
20111W        W83879  38.337  28.611   2.741
20112W        W83880  38.406  25.160   4.190
20113W        W83881  23.174   7.771  13.350
20114W        W83882  17.664  15.589   0.435
20115W        W83883  21.104  15.120   3.652
20116W        W83884  35.996  19.601   3.711
20117W        W83885   3.358  44.326   4.602
20118W        W83886  12.833  31.544  13.983
20119W        W83887  27.162  11.131   4.290
20120W        W83888   2.815   5.719   2.778
20121W        W83889  17.568  42.419   0.956
20122W        W83890   6.401  39.902   1.735
20123W        W83891  37.387  27.502  14.374
20124W        W83892  21.193   9.198   4.600
20125W        W83893   4.236  40.822  12.922
20126W        W83894  29.578  12.190  11.465
20127W        W83895  22.506  41.960  13.958
20128W        W83896  10.384  16.190  11.867
20129W        W83897  31.435  30.053  10.454
20130W        W83898  18.772   1.794  10.001
20131W        W83899  41.389   6.412   4.688
20132W        W83900  18.202  39.366  14.818
20133W        W83901  31.607  27.985  14.977
20134W        W83902  42.455  30.525   3.756
20135W        W83903   8.736  23.705   3.763
20136W        W83904  11.661  25.470   9.996
20137W        W83905  25.700  16.140   4.123
20138W        W83906  30.908   3.311   0.740
20139W        W83907  26.097  44.807  12.562
20140W        W83908   0.815  43.854  11.563
20141W        W83909  13.651  27.561  11.058
20142W        W83910  23.068  40.460   0.905
20143W        W83911  10.805   7.195   3.171
20144W        W83912  24.550  33.983  12.836
20145W        W83913  14.794  10.247   0.832
20146W        W83914  13.113  28.963   3.191
20147W        W83915  17.717  21.252  14.817
20148W        W83916  17.060   5.853  12.007
20149W        W83917   4.816  40.410   0.940
20150W        W83918   8.760  13.212  10.471
20151W        W83919   6.244  42.789   9.989
20152W        W83920  21.183  24.696  14.961
20153W        W83921   9.176  38.522  12.011
20154W        W83922   4.235   2.947  11.603
20155W        W83923   6.845  24.627  12.483
20156W        W83924  18.172  33.077   0.357
20157W        W83925  23.091  12.689   1.216
20158W        W83926  23.710  39.847  14.365
20159W        W83927  12.736  12.652  14.352
20160W        W83928   6.856  31.040  10.510
20161W        W83929  26.477  34.532  11.437
20162W        W83930  41.004  27.497   2.320
20163W        W83931  25.168  36.912   4.336
20164W        W83932  10.257  18.647   1.830
20165W        W83933  30.054  35.543   3.828
20166W        W83934   4.895  19.161  14.366
20167W        W83935  20.717   2.932  10.552
20168W        W83936  44.372  26.641   3.303
20169W        W83937  34.603  32.533  14.463
20170W        W83938   9.879  39.334   4.223
20171W        W83939   7.668  32.993  11.460
20172W        W83940  34.930  35.592   2.380
20173W        W83941  29.004  21.575   0.794
20174W        W83942  41.844  19.069   1.885
20175W        W83943   4.210  26.984   3.342
20176W        W83944  42.869  37.029   3.215
20177W        W83945  23.523  23.094  14.471
20178W        W83946   0.282  19.723  14.884
20179W        W83947  37.461  15.641   3.690
20180W        W83948  10.654  18.161  11.084
20181W        W83949  21.034  11.356   3.714
20182W        W83950  43.415  26.625   0.345
20183W        W83951   7.316  23.176  12.413
20184W        W83952  33.886  26.044  10.631
20185W        W83953  43.357   4.369  13.881
20186W        W83954   6.190  43.422   4.331
20187W        W83955  35.885   6.286   0.814
20188W        W83956  29.519  22.121  10.011
20189W        W83957  28.537  25.591  13.524
20190W        W83958  24.503  27.511  13.892
20191W        W83959  38.033   4.243  10.455
20192W        W83960  14.766  18.621   0.822
20193W        W83961  28.962  18.639   4.661
20194W        W83962  19.707  19.039   2.272
20195W        W83963  33.612  26.662   0.784
20196W        W83964  40.412  10.806   3.360
20197W        W83965  44.375  35.573   1.367
20198W        W83966  11.183  32.036  13.814
20199W        W83967   0.346   9.847  14.991
20200W        W83968  17.251  18.098   1.700
20201W        W83969  34.906  29.424   5.264
20202W        W83970  37.004  16.222  14.894
20203W        W83971   7.251   8.883  13.975
20204W        W83972  34.061   3.784   0.901
20205W        W83973  20.181  36.402   2.207
20206W        W83974  21.236  13.111  13.969
20207W        W83975  19.077  32.988   4.217
20208W        W83976  14.603  21.514  14.992
20209W        W83977  28.521  12.126  13.880
20210W        W83978   7.797  43.813  14.479
20211W        W83979  13.775  32.902  14.884
20212W        W83980  27.502   7.276  11.893
20213W        W83981  11.700  40.493   0.281
20214W        W83982  17.737  19.751  12.355
20215W        W83983  19.240  15.244  13.504
20216W        W83984  32.129  29.654   2.733
20217W        W83985   3.405  33.399   4.641
20218W        W83986  13.694  24.161   2.301
20219W        W83987   0.425  11.689   4.161
20220W        W83988  35.464  34.008  13.003
20221W        W83989  36.433  16.247  11.504
20222W        W83990  27.985   7.296  13.308
20223W        W83991   2.230  32.548   3.679
20224W        W83992  36.011   0.251   0.370
20225W        W83993  18.635   9.218  12.039
20226W        W83994  36.863  41.380   3.190
20227W        W83995   7.409  27.619   3.784
20228W        W83996  33.000  35.462   4.816
20229W        W83997  30.457  39.988   2.769
20230W        W83998  22.680  13.123   1.907
20231W        W83999  22.153  31.922  13.038
20232W        W84000   3.850  31.490  10.938
20233W        W84001  28.987  25.500   4.174
20234W        W84002  35.046   6.186  10.404
20235W        W84003  12.330   2.453  10.975
20236W        W84004  33.569  13.173  12.565
20237W        W84005  13.816   8.204  13.978
20238W        W84006  33.080  42.491   4.172
20239W        W84007   2.269  28.680  10.962
20240W        W84008   6.885   8.847   3.639
20241W        W84009  32.131   8.262   3.175
20242W        W84010  26.486   4.301   3.207
20243W        W84011   8.402   7.251  11.414
20244W        W84012  29.653  29.974  14.278
20245W        W84013   7.744  34.450  12.419
20246W        W84014  14.313  11.246  10.077
20247W        W84015  12.225  41.495   4.805
20248W        W84016  18.557  39.542  14.869
20249W        W84017  36.542  20.148  10.635
20250W        W84018  43.323  29.432  12.909
20251W        W84019  32.452  35.540  13.333
20252W        W84020  42.965  40.533   2.183
20253W        W84021  31.115   7.743  11.911
20254W        W84022  22.592  44.815   4.754
20255W        W84023  16.593  37.048   0.741
20256W        W84024  25.618   3.824  14.277
20257W        W84025  24.518  27.483   0.437
20258W        W84026  18.187   7.751   4.650
20259W        W84027  22.515  40.025   0.399
20260W        W84028   2.815  28.993   0.893
20261W        W84029  29.059  23.572   3.672
20262W        W84030   1.478   7.700   1.313
20263W        W84031   7.343   4.780   4.327
20264W        W84032  33.436  36.363  12.869
20265W        W84033  38.902  11.373  13.365
20266W        W84034  14.203  32.017  12.559
20267W        W84035  22.742  13.224  14.821
20268W        W84036  31.105  40.053  12.044
20269W        W84037  21.113  40.832  13.478
20270W        W84038   5.867  23.210   4.636
20271W        W84039  18.068  44.784  11.020
20272W        W84040   6.276  12.615  12.377
20273W        W84041  14.236  18.214  14.512
20274W        W84042   7.704  26.510  12.453
20275W        W84043   6.384  34.589   3.637
20276W        W84044   2.470  15.138   4.744
20277W        W84045  25.190  44.890  13.888
20278W        W84046  15.743  23.631   3.798
20279W        W84047   0.940  29.155   2.683
20280W        W84048  39.317  17.723   2.220
20281W        W84049  19.666   6.766  14.777
20282W        W84050   3.854   2.363  12.913
20283W        W84051  32.038   8.799  10.925
20284W        W84052  42.362  13.825   4.605
20285W        W84053  20.656  35.600  13.522
20286W        W84054  32.100  12.675  12.872
20287W        W84055  25.135   0.302   0.752
20288W        W84056  41.795   1.735   4.614
20289W        W84057  13.128  28.973  12.970
20290W        W84058   2.269  44.876  11.046
20291W        W84059  25.035  43.483  12.843
20292W        W84060  15.690  17.769  13.429
20293W        W84061  23.058  18.776   2.413
20294W        W84062   1.800  13.348  13.515
20295W        W84063  23.541   2.323   3.310
20296W        W84064  35.496  31.467   3.762
20297W        W84065  25.650   6.745   2.807
20298W        W84066  36.498   8.371   0.858
20299W        W84067  23.571  21.162  14.959
20300W        W84068  40.417   6.807  13.477
20301W        W84069  38.432  42.855   0.906
20302W        W84070  42.948  15.749  13.792
20303W        W84071  19.104   5.692  13.991
20304W        W84072  24.159  12.350  11.521
20305W        W84073  44.328  10.773   4.656
20306W        W84074  11.677  14.112  13.884
20307W        W84075  30.064  32.580  10.934
20308W        W84076  36.380  15.604   2.247
20309W        W84077  40.903  10.227  14.763
20310W        W84078  24.217   7.325  10.567
20311W        W84079  35.571  25.206  13.358
20312W        W84080   9.821  37.521   4.245
20313W        W84081  18.554  21.703   4.333
20314W        W84082  40.524  37.929  14.373
20315W        W84083  32.472  25.084   3.336
20316W        W84084  21.084   5.749  13.346
20317W        W84085  14.709  37.446  14.401
20318W        W84086  35.463  23.990   0.785
20319W        W84087  23.224  18.544   2.739
20320W        W84088   1.880  24.589   4.244
20321W        W84089  14.589  17.648   0.929
20322W        W84090   2.753  11.682   0.314
20323W        W84091   9.388  34.486   1.218
20324W        W84092  28.545  34.909  12.354
20325W        W84093  19.081  11.735  11.921
20326W        W84094  12.669  42.003  12.532
20327W        W84095  28.483  27.123  13.320
20328W        W84096  28.141   4.281  13.500
20329W        W84097  20.550   2.939  10.967
20330W        W84098  37.009  37.925   3.829
20331W        W84099  14.703  23.171   0.879
20332W        W84100  30.104   0.851   2.670
20333W        W84101  38.557  42.397  14.993
20334W        W84102  41.330  10.284  14.937
20335W        W84103  37.074  20.117  12.041
20336W        W84104  13.221  20.748  12.915
20337W        W84105   7.816  43.278  11.957
20338W        W84106  19.664  13.147  11.486
20339W        W84107   3.954  36.912  10.453
20340W        W84108  21.732  38.886  14.294
20341W        W84109   7.818   4.327   1.318
20342W        W84110   9.331   1.450   0.312
20343W        W84111  17.643   2.811   0.328
20344W        W84112  33.593  36.841   0.748
20345W        W84113  24.202  10.357  12.480
20346W        W84114   8.876   5.358   2.286
20347W        W84115   9.175  36.572  13.446
20348W        W84116  43.438  30.074  12.348
20349W        W84117  43.803  19.551   4.727
20350W        W84118  39.879  40.517   2.888
20351W        W84119  15.089  13.335  12.406
20352W        W84120  42.369  12.132  11.126
20353W        W84121  35.878   7.358   1.308
20354W        W84122  33.562  36.438   4.243
20355W        W84123   3.766  38.014  13.041
20356W        W84124  26.108  43.828   1.898
20357W        W84125  16.587   8.356  10.900
20358W        W84126   1.908   8.347  14.488
20359W        W84127   0.774   8.315   2.381
20360W        W84128  28.590   1.308   4.834
20361W        W84129  14.814   5.246  10.538
20362W        W84130  39.328  19.592  14.304
20363W        W84131  18.075  33.882  11.973
20364W        W84132  25.183  14.774   1.862
20365W        W84133  14.620  13.657   3.777
20366W        W84134  25.517   8.683  14.866
20367W        W84135  24.229  38.962  14.477
20368W        W84136  42.976  29.951  13.460
20369W        W84137  38.077  11.695  12.069
20370W        W84138  33.469  35.942   1.339
20371W        W84139  42.834  37.372  14.428
20372W        W84140  24.138  29.572  13.992
20373W        W84141  43.871  21.585  13.834
20374W        W84142  33.974  26.577  13.325
20375W        W84143   4.313  12.810   0.326
20376W        W84144  21.540  15.718  13.816
20377W        W84145   1.390  37.396   0.852
20378W        W84146   5.260  11.274  12.501
20379W        W84147  34.893  29.614  13.311
20380W        W84148  33.411  25.589  14.026
20381W        W84149  34.893   1.786   5.317
20382W        W84150  26.584   4.787  11.544
20383W        W84151   0.264  18.116  14.947
20384W        W84152  12.665  40.317   1.769
20385W        W84153   8.769  20.117   0.794
20386W        W84154   7.295  32.113  11.880
20387W        W84155  14.696  19.773  14.938
20388W        W84156   2.431  21.514   4.197
20389W        W84157   2.917   1.833  11.510
20390W        W84158  19.606  33.549   1.354
20391W        W84159  32.556  41.312  10.418
20392W        W84160  29.536  26.616   3.180
20393W        W84161  18.709   6.721  12.504
20394W        W84162  28.616  31.000   0.880
20395W        W84163   1.354   7.888   2.419
20396W        W84164  22.526  39.395  11.947
20397W        W84165  39.853  12.310  11.442
20398W        W84166   7.767  30.109   4.630
20399W        W84167  29.098  35.448  12.465
20400W        W84168  20.711  29.105  13.808
20401W        W84169  21.607  32.126  12.537
20402W        W84170  42.513  23.062   1.865
20403W        W84171  18.068  44.332   3.340
20404W        W84172   9.647  30.599  13.391
20405W        W84173  39.358  25.582   2.362
20406W        W84174  24.194  38.861  10.050
20407W        W84175  10.732  14.174  10.496
20408W        W84176  21.021  30.026   4.773
20409W        W84177  41.791   3.866  11.422
20410W        W84178  33.899  15.675   2.695
20411W        W84179   2.966  25.063   3.214
20412W        W84180  36.551   0.881   3.260
20413W        W84181   8.321  24.979   4.608
20414W        W84182  42.501  32.987   1.212
20415W        W84183  13.190  24.691  10.444
20416W        W84184   1.363  34.969  11.527
20417W        W84185  32.020  25.201   3.630
20418W        W84186  16.759  20.043  13.496
20419W        W84187  44.951  18.051   2.811
20420W        W84188  19.054  24.070   2.668
20421W        W84189  34.076  11.178  12.032
20422W        W84190   3.309  30.991  12.438
20423W        W84191  20.212   3.253   3.800
20424W        W84192  37.415  26.153  13.961
20425W        W84193  12.292  40.830   2.893
20426W        W84194  17.293  24.518  14.812
20427W        W84195   9.394  37.854   4.143
20428W        W84196  23.147  15.315   2.737
20429W        W84197  42.415  22.523   2.191
20430W        W84198  28.963   2.462   0.436
20431W        W84199  31.500  21.632   4.262
20432W        W84200  29.542  27.166  14.279
20433W        W84201   4.216  38.930   4.837
20434W        W84202  33.488  14.683  10.563
20435W        W84203  37.862  23.730   2.332
20436W        W84204  17.183  17.569  13.454
20437W        W84205  11.754   3.305  14.447
20438W        W84206  19.150  42.471  13.924
20439W        W84207  43.844   2.797  11.870
20440W        W84208  10.870   1.870  14.834
20441W        W84209  26.094  17.125  11.551
20442W        W84210  38.038  18.698   2.215
20443W        W84211   4.770  39.889  11.867
20444W        W84212  38.340  16.220  10.988
20445W        W84213   4.437  26.054  11.451
20446W        W84214  37.953   5.840  12.084
20447W        W84215  29.466  22.628  11.409
20448W        W84216  12.216  13.312  10.076
20449W        W84217  20.054  29.586   2.402
20450W        W84218  14.321  27.141   2.742
20451W        W84219  21.522   4.449   3.236
20452W        W84220  17.618  39.047   0.808
20453W        W84221  38.396  16.238   1.740
20454W        W84222  42.388  33.131   2.231
20455W        W84223  39.409  14.625  14.843
20456W        W84224  20.687  21.662  11.029
20457W        W84225   4.874   0.365  12.468
20458W        W84226   3.397  43.299  11.566
20459W        W84227   4.766  12.848  11.529
20460W        W84228  43.515   2.387  14.999
20461W        W84229  34.982  42.362  13.051
20462W        W84230  14.109  26.179   3.826
20463W        W84231   4.891  31.047   0.482
20464W        W84232  26.190  18.229  14.483
20465W        W84233  20.732  40.024   3.267
20466W        W84234  31.142  30.417   2.210
20467W        W84235   9.324  39.861   0.931
20468W        W84236  25.054   4.811   3.715
20469W        W84237  20.090  13.760  12.913
20470W        W84238   7.721  26.951   4.338
20471W        W84239  13.719  20.764  12.482
20472W        W84240  33.549  19.587   4.236
20473W        W84241   4.242  19.241  13.015
20474W        W84242   5.688  30.161   2.410
20475W        W84243  31.137  40.913   2.355
20476W        W84244  40.006  23.025  12.887
20477W        W84245  19.100  33.114   3.779
20478W        W84246   0.285   2.855   2.855
20479W        W84247  15.120  13.262  10.527
20480W        W84248   8.231  42.804  10.904
20481W        W84249   8.406  14.761  10.921
20482W        W84250   8.855  41.031  14.812
20483W        W84251  26.670  30.463  12.021
20484W        W84252  37.910  11.800  14.444
20485W        W84253  43.781  27.540  12.538
20486W        W84254   6.774  26.519  10.547
20487W        W84255  42.883  25.656   3.698
20488W        W84256   4.828  23.649   0.880
20489W        W84257  36.953  31.036   0.249
20490W        W84258  17.210  32.119  13.943
20491W        W84259  36.908  44.383  14.491
20492W        W84260  26.058  34.906   2.750
20493W        W84261  33.478   2.786   3.325
20494W        W84262  24.668   3.854   2.284
20495W        W84263  21.556  17.635  11.374
20496W        W84264  38.850  28.181   2.877
20497W        W84265   0.466  20.214  14.931
20498W        W84266  33.928  23.563   0.953
20499W        W84267  23.496  10.695   3.364
20500W        W84268   1.868  39.050  14.905
20501W        W84269   4.734  27.130  13.368
20502W        W84270  35.416  34.923   4.333
20503W        W84271   3.848   3.811   1.934
20504W        W84272   0.422  41.509   3.705
20505W        W84273  37.994  22.086   2.298
20506W        W84274  25.186  32.035   3.681
20507W        W84275  13.790  29.601  12.850
20508W        W84276  31.537  15.688  14.939
20509W        W84277   4.936  43.399   2.241
20510W        W84278  23.234  26.030  12.860
20511W        W84279  34.406  36.015   2.731
20512W        W84280  18.218  36.873   4.786
20513W        W84281  44.474  16.746   3.754
20514W        W84282  18.650  25.072  14.880
20515W        W84283   1.335  39.528   4.281
20516W        W84284   8.694  12.699   4.240
20517W        W84285  15.233   4.299  12.395
20518W        W84286  22.720  12.230   2.323
20519W        W84287   8.331   8.694  13.904
20520W        W84288  41.512   5.735  10.458
20521W        W84289   4.904  18.076   1.219
20522W        W84290  42.503  24.116   0.812
20523W        W84291  32.912   4.784   1.290
20524W        W84292  24.119  29.497  10.566
20525W        W84293  43.961  19.157   2.403
20526W        W84294   0.872  40.901   0.307
20527W        W84295  13.830  32.141  14.338
20528W        W84296  43.514  39.958  14.357
20529W        W84297  31.000  21.106   0.942
20530W        W84298  16.216  33.411   3.197
20531W        W84299  10.769  37.459   4.838
20532W        W84300  30.605  28.144  12.879
20533W        W84301  39.512   7.900  12.055
20534W        W84302  18.194  18.717   2.406
20535W        W84303   8.276  41.292  13.802
20536W        W84304  35.522  36.399  12.935
20537W        W84305   3.328  31.611   2.788
20538W        W84306  34.074  26.577   2.795
20539W        W84307  17.219   9.158  13.469
20540W        W84308   8.685  43.384   3.745
20541W        W84309  35.853   8.338   3.722
20542W        W84310  15.158  15.162   3.364
20543W        W84311  11.729  10.694   3.176
20544W        W84312  29.065  29.019  12.475
20545W        W84313  24.182  28.176  12.444
20546W        W84314  43.874  19.195  13.523
20547W        W84315  21.184  38.542  13.312
20548W        W84316  37.843   8.777  14.351
20549W        W84317   7.800  10.213   0.829
20550W        W84318  19.098  44.445   0.850
20551W        W84319  15.765  27.960  14.998
20552W        W84320  42.305   6.188   3.638
20553W        W84321   6.206  42.026   3.664
20554W        W84322  41.464  40.053   3.659
20555W        W84323  15.209  18.664   0.424
20556W        W84324  42.401  20.211   2.231
20557W        W84325  22.075  20.126  10.430
20558W        W84326  36.069  35.463   0.342
20559W        W84327  33.469   1.478   3.280
20560W        W84328  37.013  39.826   1.246
20561W        W84329  43.935  22.592  12.038
20562W        W84330  37.026  39.918   3.684
20563W        W84331  38.868  25.690   3.789
20564W        W84332  38.924  24.534  12.853
20565W        W84333  18.096   0.473  10.512
20566W        W84334  44.429  13.256  13.357
20567W        W84335  30.102  31.111   0.311
20568W        W84336  41.457  40.936  14.780
20569W        W84337   4.898  43.414  12.898
20570W        W84338   9.362   3.330   2.410
20571W        W84339  31.050  19.595  13.440
20572W        W84340  26.112  16.804  11.552
20573W        W84341  29.075  27.531  14.351
20574W        W84342  23.578  15.260  13.476
20575W        W84343  36.544  23.673  14.923
20576W        W84344  43.886  17.664   2.679
20577W        W84345   8.213  30.455   3.784
20578W        W84346  42.981  31.411  14.846
20579W        W84347  18.060  28.166   3.710
20580W        W84348  42.889  24.991   3.857
20581W        W84349  15.822  36.496   3.250
20582W        W84350  37.978  34.484  13.032
20583W        W84351  43.945  10.649   1.751
20584W        W84352  18.064  31.436   1.374
20585W        W84353  18.752  22.006  12.032
20586W        W84354  21.199  43.331  11.056
20587W        W84355  43.310  43.895  14.853
20588W        W84356  42.509  26.632   2.377
20589W        W84357  33.541  36.415  14.783
20590W        W84358  35.092   5.831  11.047
20591W        W84359  25.502   9.755   2.825
20592W        W84360  40.419  23.659  11.967
20593W        W84361  19.540  11.840  13.881
20594W        W84362  32.118  27.473  11.591
20595W        W84363  31.505  21.056   3.707
20596W        W84364  44.275   1.239   1.915
20597W        W84365  33.566  42.965   1.220
20598W        W84366  42.379   7.804   4.711
20599W        W84367  40.335  12.270  12.049
20600W        W84368   9.337   8.252  13.824
20601W        W84369  11.849  21.701  10.913
20602W        W84370  41.949  26.685  13.028
20603W        W84371  35.003  29.075   4.266
20604W        W84372  40.539  25.587  13.536
20605W        W84373   5.435  31.472  11.502
20606W        W84374   5.402   9.383  13.544
20607W        W84375  11.822  39.414   0.475
20608W        W84376  32.993  39.022  13.311
20609W        W84377   1.737  12.239  14.893
20610W        W84378  29.068  40.521  13.495
20611W        W84379  37.862  25.139   4.717
20612W        W84380  25.481  12.289  14.294
20613W        W84381   2.724  16.112  11.535
20614W        W84382  36.375  26.538   9.935
20615W        W84383  15.626  15.291   1.435
20616W        W84384  12.292  44.483  13.943
20617W        W84385  35.543  42.865  11.959
20618W        W84386  23.618  36.883  11.385
20619W        W84387  14.151   9.243  11.419
20620W        W84388  10.336   9.368  13.028
20621W        W84389  37.079  28.131   0.885
20622W        W84390  43.495   7.196   0.828
20623W        W84391  26.034  31.468   2.893
20624W        W84392  29.648  20.583  11.434
20625W        W84393  10.190   6.841   1.700
20626W        W84394   7.331  16.787   4.663
20627W        W84395  27.006  32.561   3.776
20628W        W84396  19.599  25.584   1.267
20629W        W84397  24.190  10.193   0.736
20630W        W84398   8.244   0.895   1.341
20631W        W84399  41.838  30.915  10.027
20632W        W84400  17.749  14.250  13.498
20633W        W84401   8.746  44.406  14.435
20634W        W84402  20.186  34.905  12.564
20635W        W84403  44.789  36.575  12.565
20636W        W84404  20.042  23.107   4.193
20637W        W84405  18.706  20.725  13.051
20638W        W84406  34.874  33.466   0.451
20639W        W84407  40.871   5.733  12.412
20640W        W84408  31.067  21.067   4.300
20641W        W84409   9.313  32.940   3.803
20642W        W84410  19.716  36.395  14.897
20643W        W84411   7.248  21.594   0.369
20644W        W84412   6.349   3.800   4.255
20645W        W84413  42.490  21.221  14.277
20646W        W84414  28.585  24.115  12.457
20647W        W84415   2.724  44.875  13.387
20648W        W84416  28.582  33.446   4.808
20649W        W84417  16.302  28.170  13.503
20650W        W84418  41.468  37.982  12.412
20651W        W84419  11.193   2.761   4.226
20652W        W84420  44.468  16.223  12.907
20653W        W84421  43.492  11.195   0.472
20654W        W84422  36.971  44.324  10.560
20655W        W84423  41.515   2.455  10.487
20656W        W84424  16.597   6.279  13.346
20657W        W84425  19.151   4.739   4.124
20658W        W84426  32.958  14.205  14.985
20659W        W84427  43.827  17.167  11.573
20660W        W84428  22.103   6.734   1.924
20661W        W84429  19.268  41.904  10.942
20662W        W84430  30.013  11.158  14.383
20663W        W84431  15.798   8.275  10.556
20664W        W84432   9.823   7.252  13.856
20665W        W84433  41.945   3.713  13.797
20666W        W84434   5.847  11.699  11.585
20667W        W84435  41.300   7.273  10.989
20668W        W84436  21.654   4.335  12.860
20669W        W84437  33.406   5.202  10.014
20670W        W84438  42.904  13.663  14.766
20671W        W84439  37.485  43.981  11.400
20672W        W84440  33.563   2.798  13.368
20673W        W84441   1.977  18.746   2.695
20674W        W84442  42.864  20.153  11.071
20675W        W84443  28.635  36.038   2.243
20676W        W84444  40.451   6.784   3.242
20677W        W84445  10.818  14.228  12.430
20678W        W84446   5.262  40.526  10.606
20679W        W84447  28.058  42.300   2.661
20680W        W84448  36.884  30.152   3.868
20681W        W84449  26.684  16.727   4.353
20682W        W84450  13.207  24.118   5.213
20683W        W84451  34.874  10.252  12.443
20684W        W84452  14.666  31.467   3.166
20685W        W84453  22.608  39.335   2.722
20686W        W84454   4.207  35.447   5.266
20687W        W84455  30.066  38.498  10.496
20688W        W84456  18.617  18.230  13.894
20689W        W84457  32.545  44.293  14.771
20690W        W84458  16.298  29.967   0.915
20691W        W84459   6.684   5.704   3.149
20692W        W84460  25.178  26.505   1.411
20693W        W84461  34.448  27.503  13.341
20694W        W84462  17.269   4.878   1.357
20695W        W84463   2.272  30.487  12.437
20696W        W84464  11.853  10.343   1.858
20697W        W84465  39.342   8.321  13.327
20698W        W84466  27.072   9.863  10.613
20699W        W84467  40.831  18.065   1.314
20700W        W84468  21.584   3.257   2.184
20701W        W84469  13.235   3.337  14.962
20702W        W84470  44.871  26.107   1.843
20703W        W84471  24.991  26.521   0.887
20704W        W84472  14.759  21.054   9.924
20705W        W84473  28.667  16.648  12.347
20706W        W84474  30.039  33.881  14.418
20707W        W84475  38.017  24.125   3.319
20708W        W84476  41.351  32.076   0.431
20709W        W84477  11.660  34.420   4.767
20710W        W84478   0.381  15.252  11.873
20711W        W84479  16.621   8.162  10.414
20712W        W84480  42.289   2.442   3.789
20713W        W84481  34.109  11.218   2.669
20714W        W84482  15.278  29.447  11.871
20715W        W84483  42.032   1.390  10.892
20716W        W84484   6.857  42.480  12.481
20717W        W84485   4.810  30.543  12.017
20718W        W84486  33.067   4.280  11.461
20719W        W84487  34.902  39.421  14.002
20720W        W84488  10.646  27.136  13.804
20721W        W84489  22.737  31.550  11.874
20722W        W84490  36.426   7.730  11.015
20723W        W84491  19.087  36.051   5.236
20724W        W84492  27.053  23.586   2.306
20725W        W84493  36.522   4.441  14.336
20726W        W84494  44.999  42.396   0.814
20727W        W84495  44.790  38.404  12.909
20728W        W84496  19.088   9.676  11.451
20729W        W84497  43.825  32.597   1.717
20730W        W84498  21.083  44.373  14.882
20731W        W84499  23.625   2.430  13.945
20732W        W84500  16.750   1.287  13.992
20733W        W84501  17.105  44.825  12.395
20734W        W84502  22.150  28.025  10.939
20735W        W84503  31.963  35.086  14.456
20736W        W84504  20.245   4.382  10.496
20737W        W84505  26.141  39.533  10.492
20738W        W84506  29.559  29.962   0.466
20739W        W84507  33.585   4.744  13.473
20740W        W84508  13.216  22.542   4.268
20741W        W84509  41.819  15.131  11.044
20742W        W84510  11.279   8.773   0.822
20743W        W84511   3.259  20.661   2.707
20744W        W84512   4.299  42.898  12.928
20745W        W84513  25.523  38.543   1.229
20746W        W84514  21.605   9.149  13.339
20747W        W84515  21.235  34.093  12.914
20748W        W84516  28.486  42.511  14.023
20749W        W84517  17.111  36.435  14.488
20750W        W84518   6.801  33.928   4.799
20751W        W84519  40.350  44.783  11.607
20752W        W84520  16.269   0.292  13.922
20753W        W84521  12.191  11.191  11.992
20754W        W84522  41.945   3.891  14.465
20755W        W84523  17.189  41.858   2.841
20756W        W84524   8.826  27.020   4.646
20757W        W84525  37.861  32.135   1.448
20758W        W84526  38.570  36.945   2.839
20759W        W84527  40.008   3.757  13.965
20760W        W84528  30.628  17.567  13.869
20761W        W84529  26.687  26.491   3.160
20762W        W84530   5.296  32.442   1.317
20763W        W84531  40.011  30.414  13.547
20764W        W84532   2.274  42.450  11.577
20765W        W84533  31.005  36.928  14.496
20766W        W84534   9.856  17.624   4.797
20767W        W84535  18.692   5.359  14.428
20768W        W84536  34.944  13.178  10.450
20769W        W84537  31.940   2.336   1.275
20770W        W84538  29.017  14.774  11.907
20771W        W84539   1.879  26.589   1.818
20772W        W84540  10.791  10.791  10.889
20773W        W84541   6.239  28.164   5.220
20774W        W84542  23.735  35.571  13.013
20775W        W84543   6.877  34.100   2.809
20776W        W84544   3.815  15.600   0.372
20777W        W84545  20.744  12.357  14.867
20778W        W84546  24.095   6.788   0.899
20779W        W84547  31.572  25.079  11.979
20780W        W84548  42.515  38.013   2.311
20781W        W84549   9.356   9.299   3.839
20782W        W84550  21.255  44.398  10.935
20783W        W84551  22.741   9.713  12.495
20784W        W84552  27.089  25.963   4.208
20785W        W84553   8.254  43.946  10.936
20786W        W84554  15.246   6.285  11.072
20787W        W84555  12.281  15.182   1.275
20788W        W84556  13.714   5.840  13.833
20789W        W84557  22.682  37.487  11.512
20790W        W84558  16.718   6.914  13.872
20791W        W84559  22.179  40.496  12.924
20792W        W84560   1.784  15.666  11.971
20793W        W84561   5.264  36.092   4.641
20794W        W84562   3.264  31.955   5.265
20795W        W84563  28.575  12.616  11.108
20796W        W84564  18.061  44.010   4.123
20797W        W84565   6.388   1.804   5.267
20798W        W84566  44.467  13.738   4.209
20799W        W84567  20.131  15.134  13.986
20800W        W84568  28.509  22.158  14.789
20801W        W84569  11.711  22.713  14.293
20802W        W84570  26.520  31.074   3.190
20803W        W84571  12.625  41.967   1.903
20804W        W84572   4.944  18.599  11.045
20805W        W84573  27.059  18.092  12.858
20806W        W84574  38.393  26.086   0.400
20807W        W84575  33.031   2.404   1.704
20808W        W84576  34.048  25.517   0.958
20809W        W84577   1.393  44.463   1.288
20810W        W84578  25.569   8.711   4.337
20811W        W84579  27.663  40.805   1.259
20812W        W84580   0.920  11.256   2.232
20813W        W84581  11.696  22.998  12.823
20814W        W84582  12.351  25.056  13.832
20815W        W84583   1.373  29.053  11.101
20816W        W84584   8.334  43.282  11.522
20817W        W84585  39.441  21.530  13.929
20818W        W84586  18.256   2.885   0.921
20819W        W84587  40.949   9.794   0.253
20820W        W84588  12.179  39.049  13.850
20821W        W84589  31.154  23.050   2.328
20822W        W84590  10.262  27.173   1.706
20823W        W84591   9.866   6.409   4.696
20824W        W84592  23.502  29.652  12.976
20825W        W84593  12.648  44.958   4.193
20826W        W84594   2.866   4.316  13.811
20827W        W84595  30.936   3.245  11.561
20828W        W84596  19.539   5.381   3.856
20829W        W84597  21.139  41.995  12.366
20830W        W84598  31.598  28.660  14.471
20831W        W84599  29.603   2.342   2.409
20832W        W84600  31.999   8.871  11.401
20833W        W84601  27.118  41.495   4.250
20834W        W84602  39.514  41.975   4.667
20835W        W84603   3.320  28.140  13.335
20836W        W84604  27.137  25.014  12.399
20837W        W84605  35.465  20.606   2.734
20838W        W84606   7.348  22.543   2.873
20839W        W84607  37.875   2.920   3.169
20840W        W84608  41.951  39.496   1.749
20841W        W84609  24.677  43.816   4.306
20842W        W84610  44.263   0.482  10.531
20843W        W84611  40.345   5.857   0.837
20844W        W84612  15.722  16.788   0.286
20845W        W84613  28.630   9.319   1.448
20846W        W84614  29.159  35.862   4.227
20847W        W84615  22.162   3.843   3.169
20848W        W84616   5.875  24.127   2.390
20849W        W84617  29.022   8.893  12.920
20850W        W84618  10.825  24.016   0.727
20851W        W84619  30.000   1.434  13.385
20852W        W84620   8.342  21.099   0.377
20853W        W84621   5.241  37.868  14.382
20854W        W84622  39.923  15.306  11.913
20855W        W84623  13.823   5.335   2.726
20856W        W84624  22.651  22.600   9.964
20857W        W84625  32.104  37.473  11.857
20858W        W84626  39.333  25.669  14.800
20859W        W84627  16.735  40.995  14.853
20860W        W84628   8.698  29.454   4.709
20861W        W84629  29.602  20.267   3.869
20862W        W84630  11.255   9.338   4.305
20863W        W84631  19.047  13.282   1.344
20864W        W84632  44.827  23.135  10.906
20865W        W84633  37.579  12.148   0.362
20866W        W84634  10.293  43.451   1.766
20867W        W84635  35.018  17.075   4.240
20868W        W84636  36.481  21.083   4.726
20869W        W84637  36.499  10.274  10.127
20870W        W84638  12.766  37.086   1.437
20871W        W84639  37.841   7.709  12.540
20872W        W84640  21.030   5.709   4.739
20873W        W84641  26.547  17.225   4.211
20874W        W84642   5.891  24.192  12.835
20875W        W84643  29.132  28.019  13.431
20876W        W84644   6.855   1.357   1.852
20877W        W84645  42.377  18.763  14.283
20878W        W84646  28.605  34.410   2.840
20879W        W84647  17.154  28.677  14.832
20880W        W84648   9.795  14.281   4.186
20881W        W84649  31.577  44.457  14.332
20882W        W84650  42.361   2.864   4.701
20883W        W84651   4.762  19.162  11.116
20884W        W84652  32.564  18.690   9.622
20885W        W84653  20.123  19.050   0.784
20886W        W84654  44.339  18.726   0.274
20887W        W84655  43.972  43.487   4.659
20888W        W84656   2.358  39.424  10.064
20889W        W84657  27.155   7.193   4.608
20890W        W84658  37.988  26.049  14.392
20891W        W84659  35.939  10.253   1.287
20892W        W84660  20.146  18.143   3.640
20893W        W84661  42.795  20.677   3.219
20894W        W84662  18.627  21.135   3.301
20895W        W84663  22.064  24.172   2.192
20896W        W84664  38.819  32.465  12.380
20897W        W84665   5.267  23.516   3.754
20898W        W84666  30.635  17.697  11.387
20899W        W84667  35.880   8.225  12.025
20900W        W84668   3.410   3.932   2.700
20901W        W84669  17.755  34.891  10.894
20902W        W84670  13.807  18.680  10.421
20903W        W84671   4.772  34.055   2.293
20904W        W84672  12.257   9.783  10.031
20905W        W84673  20.270  37.360   1.754
20906W        W84674  19.686  11.724   1.732
20907W        W84675  20.062   1.817  11.459
20908W        W84676  39.455  29.961   3.379
20909W        W84677  41.481   9.667   1.234
20910W        W84678  11.790  44.866  12.403
20911W        W84679  31.979  37.842   2.320
20912W        W84680  37.907  28.622   0.889
20913W        W84681   5.696  24.146   4.765
20914W        W84682  22.507  19.692  12.462
20915W        W84683  26.618   2.752  11.027
20916W        W84684  38.480  12.214  10.985
20917W        W84685  33.068  22.251  13.346
20918W        W84686  22.173  30.647   4.323
20919W        W84687  42.858  20.065   1.255
20920W        W84688   5.704   5.432   3.349
20921W        W84689  42.456  13.661  12.363
20922W        W84690  10.251  33.983  14.363
20923W        W84691  41.962  40.476   5.190
20924W        W84692  31.462  32.114   3.358
20925W        W84693  29.169  30.952  13.519
20926W        W84694  44.337  25.121   9.956
20927W        W84695   1.735  40.542   3.165
20928W        W84696  17.298  23.147   4.620
20929W        W84697   8.671  39.864   1.859
20930W        W84698  35.947  11.734   3.778
20931W        W84699  29.435  34.599   1.411
20932W        W84700  28.529  36.078   1.713
20933W        W84701  40.879  21.588   4.836
20934W        W84702  39.977  13.772  13.996
20935W        W84703  33.422  31.154   0.435
20936W        W84704   6.278  18.210   4.807
20937W        W84705   5.417  37.367   0.747
20938W        W84706  23.714  27.155  14.832
20939W        W84707  42.021  16.683  13.995
20940W        W84708  34.549   6.263   4.241
20941W        W84709  10.294  14.299  13.405
20942W        W84710  12.275  24.603  11.993
20943W        W84711  14.183  22.561  12.532
20944W        W84712  18.706  33.387   0.760
20945W        W84713   1.378   9.283  10.584
20946W        W84714   6.689   9.346   2.678
20947W        W84715   0.927   0.388  11.589
20948W        W84716   9.726  27.514  12.442
20949W        W84717   1.880  17.775   0.441
20950W        W84718  30.108  41.975   3.796
20951W        W84719  38.825   3.716  10.904
20952W        W84720  10.219  27.550  13.327
20953W        W84721  35.927   1.479   0.344
20954W        W84722  44.269  38.977  10.983
20955W        W84723  24.055  35.582  14.969
20956W        W84724  19.534  36.533  11.601
20957W        W84725  26.608  16.221   4.738
20958W        W84726  42.283  35.584   1.429
20959W        W84727   0.250  18.612  13.534
20960W        W84728  41.372  33.590   4.722
20961W        W84729  27.175  44.502   0.952
20962W        W84730  42.499  42.843  10.587
20963W        W84731  14.611  21.640  11.485
20964W        W84732   2.228  25.192  11.055
20965W        W84733  14.648   9.661   3.703
20966W        W84734  33.488   8.711  10.041
20967W        W84735   5.891  38.938  13.998
20968W        W84736  10.302   8.381   1.420
20969W        W84737   8.338  31.447   2.178
20970W        W84738  37.438  13.834   2.395
20971W        W84739  35.445  20.639  11.061
20972W        W84740  13.609   1.935  14.990
20973W        W84741  28.615   3.942   4.631
20974W        W84742   7.818  33.968  13.392
20975W        W84743   5.247  26.547   0.915
20976W        W84744  32.460  19.675  11.608
20977W        W84745  36.877  16.803  10.509
20978W        W84746  37.853  15.225  10.928
20979W        W84747  43.372  43.304   3.723
20980W        W84748   1.867  23.147  13.315
20981W        W84749  28.633  42.797   2.694
20982W        W84750  16.571   6.328   4.736
20983W        W84751  29.629  23.705  12.992
20984W        W84752  15.591  33.083  13.048
20985W        W84753  14.323   3.342   0.954
20986W        W84754  28.140  31.966   4.827
20987W        W84755  37.942  33.080  12.560
20988W        W84756   6.823   8.401  13.884
20989W        W84757   1.819  41.920   3.314
20990W        W84758  43.795  29.058  14.828
20991W        W84759  11.186   4.813  10.447
20992W        W84760   3.953  27.046  10.494
20993W        W84761  24.194  44.417  10.959
20994W        W84762  19.119  27.138  11.411
20995W        W84763  40.499  29.453   1.868
20996W        W84764  27.633  36.581   4.350
20997W        W84765   0.867   4.295   3.777
20998W        W84766   1.801   5.208   0.300
20999W        W84767  18.176  37.414  11.105
21000W        W84768   8.198  12.219  13.348
21001W        W84769  12.222  31.917  11.910
21002W        W84770   5.917  44.305  13.988
21003W        W84771  18.661  31.599  11.450
21004W        W84772  26.473  12.185  12.075
21005W        W84773  18.086   4.797  13.050
21006W        W84774  36.038  21.562   2.281
21007W        W84775   7.211  14.292  14.006
21008W        W84776  18.139  34.371   1.270
21009W        W84777  21.695  36.437  12.423
21010W        W84778   2.237  18.265  11.891
21011W        W84779  15.137   6.235  14.881
21012W        W84780  36.939  14.258  14.810
21013W        W84781  20.259  20.080   0.863
21014W        W84782  26.099  30.444   0.345
21015W        W84783  20.642  42.392   1.422
21016W        W84784   7.387  37.938  11.971
21017W        W84785  16.090  27.464   0.738
21018W        W84786  19.240   4.867  11.024
21019W        W84787  41.963  36.065  10.142
21020W        W84788   9.180  30.989  14.317
21021W        W84789  28.600  29.449  10.972
21022W        W84790  36.461  32.487   0.918
21023W        W84791  15.209  33.014  10.523
21024W        W84792   6.840  42.512  14.877
21025W        W84793   8.656  43.798   2.700
21026W        W84794  24.122  14.330   0.250
21027W        W84795  16.604  26.029   0.323
21028W        W84796   4.399  34.484   3.689
21029W        W84797   3.791  23.147  14.495
21030W        W84798   1.414  15.168  13.903
21031W        W84799  26.160  11.792   4.242
21032W        W84800  35.090  12.700  14.327
21033W        W84801  17.266  13.137  14.904
21034W        W84802   2.944  11.373   4.196
21035W        W84803   5.307  17.629  13.485
21036W        W84804  36.492  31.569  12.509
21037W        W84805  21.196  26.083  11.066
21038W        W84806  39.390  20.266   3.248
21039W        W84807  17.677  38.364  13.011
21040W        W84808  41.496  44.275   1.373
21041W        W84809  17.195  15.172   5.130
21042W        W84810  44.267  40.319  13.970
21043W        W84811  11.730  14.716   4.354
21044W        W84812  28.081  13.310   3.382
21045W        W84813   0.877   8.878  13.877
21046W        W84814  40.934  16.148  14.277
21047W        W84815  44.266   9.159  14.899
21048W        W84816  20.539  41.386   1.325
21049W        W84817  19.748  36.060   3.380
21050W        W84818   1.848  19.225  12.890
21051W        W84819  42.963  13.335   5.248
21052W        W84820  29.659  27.125  11.510
21053W        W84821  33.518   3.782  14.832
21054W        W84822  28.939  18.675   3.176
21055W        W84823  31.057  21.601   0.908
21056W        W84824   5.792  26.468   2.411
21057W        W84825  18.656  31.998  13.837
21058W        W84826  42.958   0.951  10.972
21059W        W84827  34.448   4.843   1.250
21060W        W84828  23.147  43.898   4.672
21061W        W84829   2.758  44.971  10.560
21062W        W84830  23.043   0.779   0.479
21063W        W84831   5.256  18.664   1.844
21064W        W84832  30.611  32.573  11.902
21065W        W84833   7.886  23.987   4.136
21066W        W84834  11.187  39.024   3.215
21067W        W84835   0.957  26.671   2.801
21068W        W84836  21.221   9.226   0.861
21069W        W84837  37.473  39.943   0.882
21070W        W84838  27.593   1.247   4.623
21071W        W84839  19.134  38.965  13.476
21072W        W84840  42.398  31.922   1.342
21073W        W84841  16.286  22.006   1.856
21074W        W84842  12.784  13.745  10.499
21075W        W84843   0.889  39.464  14.978
21076W        W84844   2.858   5.345   4.266
21077W        W84845  44.901   6.718  11.486
21078W        W84846  12.186   3.289   4.231
21079W        W84847  43.319  21.209   2.280
21080W        W84848  24.653  30.952   4.673
21081W        W84849  32.974   3.747  13.930
21082W        W84850  15.189  38.828  14.013
21083W        W84851  21.125  17.744  14.925
21084W        W84852  26.116  17.789   0.344
21085W        W84853   6.182  33.507  14.812
21086W        W84854   5.289  30.923  11.977
21087W        W84855  32.894  13.122   3.193
21088W        W84856  44.398  22.158  11.421
21089W        W84857  44.504   8.400  14.379
21090W        W84858  31.522   7.856  14.884
21091W        W84859  38.370  19.111  12.879
21092W        W84860  35.479  44.007  12.569
21093W        W84861  29.923  16.649  11.450
21094W        W84862  13.697   2.247  12.931
21095W        W84863  40.521  33.910  11.543
21096W        W84864  44.985  42.499   4.645
21097W        W84865  41.814  38.926   2.418
21098W        W84866   6.684   4.444   4.304
21099W        W84867   1.474  28.474   0.872
21100W        W84868  19.652  29.549   0.881
21101W        W84869  36.961  37.475   2.364
21102W        W84870  40.451  17.792   3.243
21103W        W84871  12.352  25.667  11.125
21104W        W84872  40.532  30.140   1.772
21105W        W84873  36.971   8.176   0.825
21106W        W84874  16.303  34.062  11.100
21107W        W84875  27.461  43.333  10.432
21108W        W84876  37.053  44.812   0.760
21109W        W84877  36.580  15.695   4.605
21110W        W84878  18.213   1.911   0.469
21111W        W84879  24.675  37.853   1.832
21112W        W84880   9.339  33.891   4.178
21113W        W84881  23.654   8.206  11.869
21114W        W84882  29.004  38.979  11.380
21115W        W84883  32.957  31.961   4.708
21116W        W84884   9.207   9.166  12.553
21117W        W84885  13.609  16.708  13.054
21118W        W84886   8.312  27.475  11.045
21119W        W84887  44.263   1.831   0.256
21120W        W84888  12.724  32.402  12.400
21121W        W84889  19.705   4.296  14.319
21122W        W84890  29.491  32.391   2.844
21123W        W84891   4.707  26.667  12.924
21124W        W84892  44.294  44.861  10.136
21125W        W84893  25.082  11.860   4.227
21126W        W84894   2.949   8.265   1.747
21127W        W84895  19.098  38.460  12.841
21128W        W84896  17.216  23.068   5.298
21129W        W84897  40.401   6.823   4.817
21130W        W84898  23.070   2.780   0.954
21131W        W84899  38.392   1.774   1.882
21132W        W84900  18.280   4.255  10.609
21133W        W84901   8.231  19.080  11.407
21134W        W84902  36.059  14.808   2.200
21135W        W84903  40.308  37.992   2.360
21136W        W84904  33.051  20.159   1.729
21137W        W84905  13.221   7.389  13.524
21138W        W84906  12.634   1.868  12.906
21139W        W84907   9.334  23.563   3.242
21140W        W84908  31.612  43.278   3.870
21141W        W84909  36.884   8.753   5.267
21142W        W84910   2.385  25.024   4.735
21143W        W84911  29.512   8.346  10.575
21144W        W84912  31.509  44.988   0.426
21145W        W84913  23.105  34.955  14.975
21146W        W84914  24.165  44.458  14.296
21147W        W84915  18.139  15.824   2.821
21148W        W84916   9.199  27.093  11.420
21149W        W84917   3.838  19.198   1.447
21150W        W84918   4.902  16.268   4.656
21151W        W84919  11.273  42.479   4.153
21152W        W84920  32.533  27.999   1.211
21153W        W84921  14.631  44.862  12.580
21154W        W84922  38.508  12.771   0.428
21155W        W84923  24.052   7.293  12.501
21156W        W84924  17.149  19.560  10.583
21157W        W84925   0.293   7.684  14.906
21158W        W84926  31.516   9.212   2.411
21159W        W84927  19.592  20.566   2.691
21160W        W84928  40.406  17.770  10.905
21161W        W84929  25.691  27.188   4.606
21162W        W84930  23.703   0.431  13.035
21163W        W84931  18.674  10.346  11.513
21164W        W84932  15.308  41.980  14.991
21165W        W84933   1.248  38.489  14.275
21166W        W84934  40.897  37.863   1.850
21167W        W84935  16.093   8.677  12.025
21168W        W84936  13.603  42.831  12.455
21169W        W84937   2.738  34.974  14.296
21170W        W84938  42.865  27.963   3.821
21171W        W84939  16.697  37.906  11.516
21172W        W84940  33.920  35.533  12.414
21173W        W84941  23.551   4.245  10.973
21174W        W84942  41.929  23.228  12.985
21175W        W84943   8.750   8.288   2.723
21176W        W84944  35.884  13.226   5.199
21177W        W84945  18.746  22.058  12.487
21178W        W84946  41.352  17.716  14.497
21179W        W84947   8.369  37.336   0.381
21180W        W84948  17.226  15.697   4.116
21181W        W84949  10.737   0.283   2.703
21182W        W84950   5.405  40.516  13.414
21183W        W84951  13.123  16.735   2.299
21184W        W84952  42.890  39.994   1.380
21185W        W84953  15.721   4.305   2.195
21186W        W84954   9.822  22.042   2.739
21187W        W84955  32.532   4.905   3.773
21188W        W84956  11.308  44.490   2.285
21189W        W84957  13.750  16.201   1.347
21190W        W84958   2.780  35.373   2.385
21191W        W84959   5.350  13.230   1.705
21192W        W84960   4.848  37.567   3.751
21193W        W84961  12.856  36.520  12.886
21194W        W84962  40.451   3.924  10.478
21195W        W84963   6.913  37.992  12.374
21196W        W84964  32.483   3.327   0.783
21197W        W84965  35.489  17.582  11.446
21198W        W84966   5.409   3.278   4.732
21199W        W84967   6.781  34.615   4.794
21200W        W84968  29.456  38.449   0.837
21201W        W84969  13.741  25.475   0.847
21202W        W84970  31.646  25.488  10.641
21203W        W84971  20.710  26.135   0.965
21204W        W84972  31.492   7.241  11.125
21205W        W84973   3.724   8.185  14.852
21206W        W84974   4.396  13.189   2.901
21207W        W84975   8.841  25.038  13.544
21208W        W84976  31.623  13.671  11.872
21209W        W84977  40.388  21.149  13.393
21210W        W84978  30.973  28.554   4.832
21211W        W84979   9.843  21.677  13.523
21212W        W84980  25.668  38.427  11.481
21213W        W84981  33.390   6.801   2.341
21214W        W84982  42.822  40.045  12.569
21215W        W84983  10.860   1.901   5.260
21216W        W84984  38.413   7.778  14.402
21217W        W84985  38.878  38.842   3.278
21218W        W84986  25.522  42.777  11.461
21219W        W84987  16.792  36.467   0.882
21220W        W84988  11.779  40.877  11.083
21221W        W84989  35.450  10.714   0.378
21222W        W84990   2.861  23.006   2.270
21223W        W84991  41.855  16.607  11.409
21224W        W84992  37.955   1.344  11.876
21225W        W84993  23.053  30.009  13.999
21226W        W84994  27.684   3.217  14.886
21227W        W84995  20.215  28.095   3.709
21228W        W84996  25.147  39.830  12.522
21229W        W84997  10.708  22.522   0.857
21230W        W84998  42.364  12.824  13.967
21231W        W84999  26.088  26.582  12.569
21232W        W85000  27.030  29.098   0.466
21233W        W85001  12.611  44.760   2.734
21234W        W85002  19.672  14.638  12.461
21235W        W85003  10.843  18.551  13.322
21236W        W85004  35.061  11.645  10.635
21237W        W85005  31.611  37.531  11.526
21238W        W85006  39.986  29.106  14.459
21239W        W85007  11.216  30.640  14.911
21240W        W85008  43.896  29.538   1.234
21241W        W85009  43.342  43.298  11.954
21242W        W85010   2.365   1.435   3.201
21243W        W85011  22.574  40.436   1.738
21244W        W85012  29.544  27.646   3.344
21245W        W85013  42.402  12.652   0.466
21246W        W85014  11.665  13.137   2.265
21247W        W85015  37.536  20.614   3.165
21248W        W85016   4.944   1.806   0.945
21249W        W85017  25.548  16.121   3.777
21250W        W85018  37.018   7.762   2.718
21251W        W85019   2.465  42.518  11.038
21252W        W85020   6.409  42.521   0.376
21253W        W85021  38.915  31.626  11.997
21254W        W85022  23.562  41.984  11.491
21255W        W85023  17.124  19.668   2.332
21256W        W85024  21.552  19.659   0.834
21257W        W85025  13.200   3.808  12.461
21258W        W85026  40.413   0.978  11.425
21259W        W85027   3.336  21.137   4.743
21260W        W85028  25.129  22.154   3.780
21261W        W85029  15.813  25.592   0.423
21262W        W85030  31.016  39.410  14.796
21263W        W85031   0.482   9.231   2.240
21264W        W85032   8.657  26.120  13.541
21265W        W85033  21.575  20.209   2.816
21266W        W85034  23.505   0.881   3.162
21267W        W85035  44.932  37.378   0.357
21268W        W85036  41.972  13.179   0.307
21269W        W85037  16.269  14.723   3.778
21270W        W85038  24.131  36.940   3.852
21271W        W85039   4.286  27.959   4.162
21272W        W85040  36.018   1.471   1.319
21273W        W85041  15.815   4.272   3.666
21274W        W85042  25.116  39.536  10.607
21275W        W85043  13.293  38.879  14.499
21276W        W85044  17.628  12.239  14.323
21277W        W85045  23.539  21.175   2.295
21278W        W85046  17.563  25.211   3.631
21279W        W85047  11.730  15.317   4.652
21280W        W85048   3.435  32.112   3.334
21281W        W85049  31.548  42.387  11.886
21282W        W85050  41.490  12.186  13.012
21283W        W85051  26.502  44.499   4.613
21284W        W85052  41.867   1.770  14.507
21285W        W85053   2.808  29.002   3.708
21286W        W85054  23.532   5.760  10.626
21287W        W85055   0.375   9.298  10.899
21288W        W85056  44.884  10.218  14.841
21289W        W85057  34.923  41.949   5.214
21290W        W85058  18.770  43.309   3.846
21291W        W85059  27.633  21.068  13.451
21292W        W85060  11.810   2.923   1.444
21293W        W85061  19.656  39.520  11.589
21294W        W85062  17.098  43.513  11.007
21295W        W85063  14.220  44.467   5.321
21296W        W85064  22.715  43.851  12.560
21297W        W85065   4.871  43.410   4.793
21298W        W85066   9.790  39.064  10.530
21299W        W85067  31.920  21.086   3.757
21300W        W85068  15.751  44.446   5.202
21301W        W85069  43.016   7.727  14.783
21302W        W85070  15.258  12.850  11.506
21303W        W85071  21.255  16.215  12.834
21304W        W85072  26.204  41.831   3.247
21305W        W85073  42.827  21.690  13.397
21306W        W85074   3.867  17.625   2.355
21307W        W85075  26.129  33.074   1.376
21308W        W85076  43.469  12.255   4.700
21309W        W85077   6.696   8.371  12.910
21310W        W85078  38.368  32.889   0.269
21311W        W85079  33.128  27.487   2.397
21312W        W85080  20.199  39.911  13.884
21313W        W85081  40.047  16.634   1.758
21314W        W85082  37.360  28.441  14.810
21315W        W85083  17.064   1.968   1.288
21316W        W85084  35.475   3.421  13.873
21317W        W85085  14.590  13.775   0.727
21318W        W85086  10.338  19.766   9.919
21319W        W85087   7.852  36.958  12.540
21320W        W85088  26.589   2.742   2.669
21321W        W85089  41.351  26.076  10.970
21322W        W85090  32.416  14.823  10.963
21323W        W85091  15.251  39.982  14.850
21324W        W85092  27.614  19.102  11.530
21325W        W85093  39.404  28.664   0.816
21326W        W85094  19.229  44.428  14.001
21327W        W85095  38.468  21.648  10.953
21328W        W85096  33.600   8.790  14.416
21329W        W85097  23.529  32.998   2.367
21330W        W85098  23.509  36.565  11.858
21331W        W85099  14.130  38.350  12.063
21332W        W85100  28.960  17.108  13.849
21333W        W85101  15.219  13.278  11.556
21334W        W85102  14.267   7.190   3.646
21335W        W85103  17.110   4.854   4.686
21336W        W85104  34.600  25.020   0.811
21337W        W85105  40.342  43.015  10.150
21338W        W85106  12.819   5.775   2.879
21339W        W85107  16.799  43.954  13.318
21340W        W85108  34.048  29.052  13.913
21341W        W85109  10.275   8.284  10.514
21342W        W85110  24.028   5.315   3.200
21343W        W85111  28.464  23.210  10.500
21344W        W85112   4.713  43.817  13.462
21345W        W85113  19.161  29.545  10.424
21346W        W85114  36.957   4.212   3.728
21347W        W85115   6.292  35.051   9.950
21348W        W85116   4.247   2.946  11.992
21349W        W85117  42.493  10.740   0.816
21350W        W85118  25.187   3.935  10.625
21351W        W85119  28.507  33.950  10.988
21352W        W85120  44.300   5.251   2.795
21353W        W85121  43.892   8.172  11.931
21354W        W85122  16.681  36.542  11.095
21355W        W85123   3.315  28.044  11.441
21356W        W85124  23.560   6.685  12.366
21357W        W85125  24.503  40.539  13.816
21358W        W85126   5.438   5.198  13.898
21359W        W85127  16.251  15.096   3.814
21360W        W85128   9.847  14.181  11.104
21361W        W85129  39.383  44.877  14.914
21362W        W85130   3.779  42.438   3.332
21363W        W85131  33.059  11.184   0.823
21364W        W85132  23.004   1.828   4.810
21365W        W85133  28.128  33.033  10.606
21366W        W85134   5.716  29.035  11.435
21367W        W85135   0.378  27.081  11.874
21368W        W85136   9.252  40.860   0.734
21369W        W85137  35.560  36.373   3.278
21370W        W85138  42.790  39.058   2.812
21371W        W85139   1.740  29.083   2.235
21372W        W85140  10.256  35.054  14.804
21373W        W85141  29.528  35.982  13.837
21374W        W85142  40.960   9.728   2.664
21375W        W85143  30.513   1.466  14.763
21376W        W85144  26.625  20.671   2.404
21377W        W85145   2.773  26.090  10.421
21378W        W85146   5.306  33.024  10.959
21379W        W85147  14.801  35.976  14.807
21380W        W85148  20.169  33.101   0.360
21381W        W85149  21.560  17.092  11.485
21382W        W85150  44.369  35.394  14.451
21383W        W85151  39.006  38.418  13.900
21384W        W85152   2.269  44.388  11.536
21385W        W85153  32.955   8.253  11.411
21386W        W85154  35.943  17.299  13.837
21387W        W85155  26.089  33.933  12.370
21388W        W85156  42.286  44.318  14.865
21389W        W85157  43.275  27.178  13.820
21390W        W85158  41.360  31.533  10.893
21391W        W85159  29.504  24.178   1.333
21392W        W85160  22.679  36.419   3.774
21393W        W85161  15.705   1.299   1.375
21394W        W85162  41.384   9.263   3.660
21395W        W85163  25.496  38.042   2.343
21396W        W85164  36.369   9.724   2.326
21397W        W85165   9.253  34.943   3.199
21398W        W85166  15.291   2.883  12.988
21399W        W85167  13.305  43.939  11.930
21400W        W85168  17.173  14.648  14.418
21401W        W85169  23.138  15.094   0.914
21402W        W85170  20.768  21.057   2.809
21403W        W85171  22.673  17.795   1.381
21404W        W85172   3.244   2.836   0.421
21405W        W85173  15.102  17.124  13.407
21406W        W85174  26.673   4.217  13.027
21407W        W85175  10.854  18.216   4.127
21408W        W85176   1.375  40.364  12.398
21409W        W85177   2.289  29.597  13.025
21410W        W85178  32.003  28.148   4.687
21411W        W85179  42.361   4.258   0.285
21412W        W85180  42.325  27.952  12.426
21413W        W85181  28.117  38.973   4.802
21414W        W85182  15.091  29.625   2.804
21415W        W85183  13.136   7.370  14.299
21416W        W85184  21.586  29.490  14.792
21417W        W85185   7.222   1.852  10.979
21418W        W85186  39.007  18.157  11.587
21419W        W85187  29.589  20.688  14.368
21420W        W85188  16.268  35.444  12.933
21421W        W85189  20.116  21.663   1.885
21422W        W85190  24.149   2.747   3.305
21423W        W85191   0.450  25.120  13.061
21424W        W85192  13.611   9.266  11.521
21425W        W85193  25.055  25.008  10.995
21426W        W85194  29.475  13.751   0.740
21427W        W85195  19.578  18.273   3.823
21428W        W85196  11.664   8.771  10.447
21429W        W85197  12.181  19.062   1.766
21430W        W85198  26.041  34.093   2.771
21431W        W85199  24.020  22.229  13.511
21432W        W85200  39.355  19.084   1.337
21433W        W85201  12.145   0.429  13.311
21434W        W85202   6.690  14.118   3.159
21435W        W85203  30.469  12.856   4.649
21436W        W85204  40.971  28.992   4.787
21437W        W85205   6.690  29.008  11.560
21438W        W85206  18.232  38.020   4.273
21439W        W85207  26.548  26.033  10.986
21440W        W85208   5.267  19.048   0.377
21441W        W85209  18.584  24.588   3.844
21442W        W85210  15.638  41.361   0.844
21443W        W85211   0.957  20.095   4.236
21444W        W85212  17.234  34.906   4.795
21445W        W85213  29.489   6.228   4.821
21446W        W85214  22.061  32.464   3.255
21447W        W85215  20.745  31.559  11.105
21448W        W85216  35.007   7.389   0.961
21449W        W85217  41.509  17.275   1.844
21450W        W85218  33.536  39.336   2.223
21451W        W85219  15.189  11.782  12.025
21452W        W85220  25.070  38.924   3.867
21453W        W85221  40.520  44.009  12.841
21454W        W85222  43.809  42.420  12.377
21455W        W85223  34.051  35.532  11.371
21456W        W85224  12.270  41.298   1.840
21457W        W85225  12.645  29.983  13.861
21458W        W85226   4.834  40.840  12.465
21459W        W85227   5.765  12.771  12.474
21460W        W85228  20.733  13.807  11.481
21461W        W85229  31.140  43.892   4.650
21462W        W85230  43.960   1.335   0.420
21463W        W85231   7.186  24.593  13.984
21464W        W85232   4.448   7.867   1.410
21465W        W85233  13.106  37.084  12.994
21466W        W85234  12.821  36.978  14.823
21467W        W85235  28.940  40.452  12.500
21468W        W85236  26.076  11.654  12.545
21469W        W85237  43.348  28.086  12.386
21470W        W85238  13.757  10.742   3.251
21471W        W85239  11.731  39.840  13.812
21472W        W85240   0.890   2.840   4.820
21473W        W85241  26.493  44.387  12.829
21474W        W85242  17.189  36.434   3.860
21475W        W85243  15.225  28.544   3.367
21476W        W85244  43.406  19.772   5.102
21477W        W85245  31.539  16.724  14.977
21478W        W85246  12.702  13.178   3.287
21479W        W85247  31.977  27.193   3.640
21480W        W85248   8.302   6.790   0.397
21481W        W85249  27.950  35.981  14.409
21482W        W85250   9.156   5.331  10.988
21483W        W85251  25.029  38.843   0.441
21484W        W85252  32.406   6.418  11.115
21485W        W85253  17.287   4.915   5.190
21486W        W85254  41.364  21.710   1.274
21487W        W85255  11.227  26.960  14.861
21488W        W85256  23.522  15.710  14.494
21489W        W85257  20.102  37.019   1.313
21490W        W85258  38.412  31.610  10.118
21491W        W85259  35.427  38.333   0.960
21492W        W85260  32.526  19.071  11.414
21493W        W85261  29.935  17.256  11.012
21494W        W85262  14.231  31.493   3.341
21495W        W85263  38.522   2.722   1.229
21496W        W85264  43.939  44.316   1.313
21497W        W85265  26.557   9.327  12.452
21498W        W85266  26.135  23.158  12.864
21499W        W85267   1.794  39.970  14.998
21500W        W85268  15.313   9.682   1.916
21501W        W85269   6.230  35.389   3.335
21502W        W85270  44.473  35.023  14.365
21503W        W85271  23.494   5.297  10.638
21504W        W85272  12.161  33.922  14.779
21505W        W85273  20.599  25.514  13.523
21506W        W85274  42.497  33.990  12.989
21507W        W85275  31.619  32.891   3.161
21508W        W85276  17.108  24.051   2.296
21509W        W85277  15.670  38.063   1.858
21510W        W85278  31.531   7.259  12.891
21511W        W85279   5.739  36.561  10.937
21512W        W85280  23.657  31.517   0.962
21513W        W85281  30.016  33.130   3.311
21514W        W85282   4.367  35.463   3.173
21515W        W85283  10.240  27.060   2.889
21516W        W85284   4.381  18.696  10.984
21517W        W85285  16.784  44.889   0.807
21518W        W85286  30.485   0.278  11.108
21519W        W85287  44.299  27.601   4.622
21520W        W85288   8.250  13.679   1.357
21521W        W85289  20.539  20.610   4.133
21522W        W85290  12.334   6.187  10.578
21523W        W85291  23.040   6.715  13.453
21524W        W85292  14.249  34.414   3.685
21525W        W85293  40.351  25.080   0.406
21526W        W85294  30.072  32.600   2.798
21527W        W85295  20.744  37.841   1.754
21528W        W85296  31.475  14.105  13.420
21529W        W85297   1.892  28.113  13.052
21530W        W85298  24.525  33.422   9.532
21531W        W85299  35.407  19.766   0.286
21532W        W85300  18.774   0.305  14.419
21533W        W85301  43.785  19.714  12.548
21534W        W85302   6.799   3.719  14.366
21535W        W85303   4.327  32.098  13.936
21536W        W85304  25.605   3.758   4.737
21537W        W85305  37.876  41.970  10.531
21538W        W85306  35.530   5.243   2.324
21539W        W85307  39.413  11.824  10.945
21540W        W85308  10.138  39.036  14.418
21541W        W85309  23.236  25.007   2.679
21542W        W85310  43.979  32.094  11.598
21543W        W85311  36.473  24.117  13.544
21544W        W85312  41.532   4.719   4.746
21545W        W85313  31.112  30.061   2.899
21546W        W85314  17.120  10.827   3.341
21547W        W85315  41.453  34.558  11.435
21548W        W85316  13.748  30.960   0.880
21549W        W85317  19.540  27.550  13.342
21550W        W85318   6.882  22.997   1.383
21551W        W85319  23.006  28.515   4.721
21552W        W85320  15.628  41.331   4.240
21553W        W85321  20.140  34.865   0.880
21554W        W85322  31.956   5.438   0.303
21555W        W85323  11.855  44.822   3.343
21556W        W85324  24.597  27.581   2.193
21557W        W85325   7.180  21.680   1.246
21558W        W85326  36.044  29.441   9.997
21559W        W85327  29.477  41.377   0.777
21560W        W85328  25.608  16.617   3.815
21561W        W85329   7.670  35.548   4.314
21562W        W85330  23.493  36.953   3.260
21563W        W85331  31.914   4.842  12.444
21564W        W85332  36.420   8.342   1.711
21565W        W85333  35.572  24.613   3.737
21566W        W85334  18.277   9.230  11.000
21567W        W85335  30.553  23.025  14.997
21568W        W85336   3.751   3.870  13.912
21569W        W85337  30.119  29.921   1.342
21570W        W85338  23.634   9.219  14.994
21571W        W85339  39.835  29.593   3.309
21572W        W85340  31.629  41.522  12.428
21573W        W85341  40.475  17.730  12.869
21574W        W85342  25.187   0.440   3.171
21575W        W85343  35.483  33.083  13.507
21576W        W85344   7.834  22.731  14.440
21577W        W85345  25.569  27.070  11.029
21578W        W85346  14.193  36.963   0.367
21579W        W85347   4.822  14.796   2.319
21580W        W85348  26.983  37.363   4.275
21581W        W85349  20.585  35.405   0.439
21582W        W85350  10.284  12.782   4.202
21583W        W85351  42.777  36.453  14.462
21584W        W85352  44.843   1.906  12.463
21585W        W85353  34.396  20.098  14.503
21586W        W85354   5.204   6.782   4.675
21587W        W85355  16.765   3.271  12.974
21588W        W85356  34.870  18.197  12.571
21589W        W85357  22.078   0.325  10.936
21590W        W85358  29.111  36.451  13.986
21591W        W85359  25.166  25.093   0.474
21592W        W85360  39.429  10.719  11.442
21593W        W85361  30.532  12.795   0.947
21594W        W85362  33.393  21.230  13.980
21595W        W85363  31.140  32.974   3.743
21596W        W85364  43.000  41.384   3.803
21597W        W85365  39.363   6.739   5.235
21598W        W85366  36.040   8.765  11.090
21599W        W85367  16.715  24.986   2.367
21600W        W85368  36.970  10.264   0.759
21601W        W85369   9.354  44.953  12.832
21602W        W85370   0.396  43.383  14.509
21603W        W85371   3.887   6.287  12.400
21604W        W85372  21.732  13.218   4.140
21605W        W85373  35.083  23.087   0.923
21606W        W85374  27.529   6.680   1.705
21607W        W85375  43.373  36.954  13.859
21608W        W85376  10.374  31.444   0.335
21609W        W85377  18.279  40.018   0.407
21610W        W85378   6.256   0.854  11.576
21611W        W85379  16.757  16.306   9.971
21612W        W85380   0.841  16.682  14.416
21613W        W85381  32.474  23.503   0.435
21614W        W85382  32.935  10.217  14.893
21615W        W85383  38.841  13.315  11.120
21616W        W85384  28.116  43.452   4.133
21617W        W85385  27.127  13.688   1.791
21618W        W85386  17.224  29.978   0.883
21619W        W85387  18.242  35.491   2.301
21620W        W85388  12.819  22.642   2.883
21621W        W85389  15.153  13.658   4.176
21622W        W85390   6.894  24.700  11.949
21623W        W85391  36.352  39.974   1.790
21624W        W85392  34.898  13.753   4.247
21625W        W85393  20.186  26.134  11.051
21626W        W85394  23.206  26.527  14.021
21627W        W85395  11.624  22.188  14.844
21628W        W85396  34.526  28.498  14.855
21629W        W85397  22.735  36.555  13.923
21630W        W85398  22.534  25.713  10.403
21631W        W85399  13.336  42.405   1.424
21632W        W85400   2.880  44.009   3.225
21633W        W85401  17.653  22.639  13.494
21634W        W85402  39.826  42.986  13.325
21635W        W85403  29.918   0.449   2.899
21636W        W85404  43.314  26.169  13.338
21637W        W85405  25.122  17.125   4.612
21638W        W85406  35.484  41.421   4.143
21639W        W85407  20.186  29.540   1.881
21640W        W85408  43.403  39.064   0.874
21641W        W85409  11.151  33.577  13.380
21642W        W85410   8.718  37.881   3.215
21643W        W85411   4.792   8.395   2.686
21644W        W85412   8.859  11.147   0.387
21645W        W85413  32.950  21.223  11.986
21646W        W85414  39.922   3.885   1.700
21647W        W85415  24.545  42.410  12.343
21648W        W85416  10.141  33.453   0.363
21649W        W85417  37.054   9.664  13.933
21650W        W85418  15.315  24.190  11.863
21651W        W85419  32.120  19.738  11.515
21652W        W85420   3.865  30.028  11.500
21653W        W85421  20.649  33.548   2.901
21654W        W85422  31.136  31.991   2.318
21655W        W85423  15.147  12.319  12.519
21656W        W85424  26.088  22.710  13.897
21657W        W85425  19.285  21.584   4.253
21658W        W85426  23.494  31.082  12.875
21659W        W85427  44.989   1.285   0.284
21660W        W85428  25.176  37.479   1.295
21661W        W85429  40.801  30.472   9.676
21662W        W85430  10.752  17.759  11.967
21663W        W85431   2.838  25.644   4.676
21664W        W85432  22.711  26.119  14.792
21665W        W85433   4.790  33.565  14.352
21666W        W85434  25.144  14.239  10.429
21667W        W85435  28.115  25.050  11.102
21668W        W85436   8.294  34.098   3.180
21669W        W85437  17.556  36.373   1.844
21670W        W85438  16.111  30.136  14.764
21671W        W85439  41.891   2.464  13.345
21672W        W85440  26.994  32.455   2.690
21673W        W85441   3.830  31.637  12.495
21674W        W85442   1.431   9.832   3.811
21675W        W85443  22.555  13.617  14.444
21676W        W85444  17.756  43.315   3.741
21677W        W85445   0.485  19.178   4.818
21678W        W85446   9.723  43.947   1.440
21679W        W85447  10.271  13.715   1.858
21680W        W85448   7.255  35.950   4.136
21681W        W85449  38.899  16.317   4.626
21682W        W85450  42.939  18.563   4.206
21683W        W85451   7.361   9.297   3.199
21684W        W85452  39.948  11.847   0.312
21685W        W85453   4.361  28.153  10.456
21686W        W85454  18.773  42.890   0.800
21687W        W85455  38.820  39.526   2.688
21688W        W85456   7.869  29.521   0.295
21689W        W85457  30.156  30.626  12.912
21690W        W85458  35.544  32.585   1.714
21691W        W85459  31.526   4.838   3.869
21692W        W85460  12.246  19.142   2.790
21693W        W85461  13.615  35.514  12.362
21694W        W85462  38.871  18.050   2.745
21695W        W85463  41.384   5.346  14.472
21696W        W85464   6.854   0.956  12.056
21697W        W85465  19.605  31.905  14.946
21698W        W85466  35.395  26.109   3.258
21699W        W85467  12.144  20.150   3.291
21700W        W85468   1.418  39.042   3.213
21701W        W85469  27.189  11.847   3.686
21702W        W85470  39.343  32.534  11.903
21703W        W85471  43.474   5.202   0.390
21704W        W85472  15.300  15.702   4.264
21705W        W85473   3.817  26.199  11.859
21706W        W85474  22.045   6.696  13.023
21707W        W85475  27.458  28.460  13.316
21708W        W85476  36.879  27.092  10.604
21709W        W85477  24.544  35.359  13.018
21710W        W85478  27.529   2.933   3.156
21711W        W85479  26.186  36.043   1.772
21712W        W85480  38.913  19.616   4.689
21713W        W85481   0.928  14.679  14.928
21714W        W85482  42.810  11.855  11.932
21715W        W85483  17.563   6.188  13.523
21716W        W85484   2.362  31.085   3.826
21717W        W85485   8.880  21.058   3.717
21718W        W85486  44.971   7.312   2.723
21719W        W85487  37.028  28.642  13.366
21720W        W85488  23.160  17.271  10.588
21721W        W85489  31.048  23.554  11.505
21722W        W85490   8.770  14.114  12.398
21723W        W85491  31.492  34.105  13.994
21724W        W85492  23.075  12.362   4.309
21725W        W85493  10.867  35.377  13.491
21726W        W85494  35.375   9.254   0.476
21727W        W85495  22.642  37.484  11.868
21728W        W85496  33.452  24.185   3.311
21729W        W85497   9.191  42.000   0.340
21730W        W85498  27.685   0.271   1.243
21731W        W85499   8.670  30.135  12.051
21732W        W85500  15.096  15.117  14.944
21733W        W85501  19.640  39.970   3.797
21734W        W85502  12.774  21.588  10.434
21735W        W85503   6.684  16.749  13.400
21736W        W85504   0.925   8.395   3.649
21737W        W85505  20.211  43.318   3.272
21738W        W85506  19.221   7.880  11.092
21739W        W85507  14.171  14.814   5.312
21740W        W85508   5.237  37.970   3.349
21741W        W85509  16.297  30.546  12.354
21742W        W85510  27.689  35.494   4.343
21743W        W85511  17.077  11.216  14.919
21744W        W85512  23.052   8.678  14.444
21745W        W85513  15.780  38.549  13.855
21746W        W85514  42.478  22.700  12.846
21747W        W85515   8.711  42.820  13.899
21748W        W85516  20.229  39.902   0.329
21749W        W85517  31.590  33.475  14.951
21750W        W85518  28.164  42.513  12.842
21751W        W85519  29.991  33.975   2.380
21752W        W85520  43.941  36.894   4.656
21753W        W85521  31.479  28.519   4.115
21754W        W85522  13.841  29.137  11.424
21755W        W85523   1.803  25.544   2.692
21756W        W85524  35.076  12.669  12.559
21757W        W85525  15.163  31.559   3.863
21758W        W85526   0.326  27.458  12.933
21759W        W85527  43.404  36.013   5.210
21760W        W85528  43.505  43.487  12.387
21761W        W85529  40.823   7.883  11.067
21762W        W85530   4.734  28.133  14.843
21763W        W85531  29.562   5.360  11.579
21764W        W85532   6.378  38.350   3.731
21765W        W85533  18.671  27.602  11.077
21766W        W85534   6.749  27.137  12.351
21767W        W85535   1.796  41.524  11.610
21768W        W85536  34.043  19.101  11.461
21769W        W85537   5.257  32.897   3.783
21770W        W85538  10.709  22.545   0.386
21771W        W85539  18.645  38.074  12.071
21772W        W85540   8.282  43.496   1.837
21773W        W85541  21.691  44.364  10.501
21774W        W85542  42.511  23.494   4.260
21775W        W85543  35.515  36.428   1.227
21776W        W85544  30.469  11.738   4.606
21777W        W85545  13.752  42.920   1.263
21778W        W85546  42.832   0.434   3.227
21779W        W85547  40.547   9.270   2.845
21780W        W85548  26.025  42.470  12.059
21781W        W85549  16.750  20.559  12.449
21782W        W85550  11.314   0.423  11.610
21783W        W85551  13.179  20.685   1.897
21784W        W85552  41.803  43.925  14.913
21785W        W85553  11.272  30.635   3.220
21786W        W85554   7.704  29.653   2.287
21787W        W85555  11.806  16.153  10.510
21788W        W85556  22.558  41.538  10.000
21789W        W85557  10.861  41.832   3.852
21790W        W85558  28.635   8.777  12.009
21791W        W85559   1.756  44.483   3.848
21792W        W85560  41.367  36.036  14.874
21793W        W85561  29.926   9.290   0.843
21794W        W85562  16.764  16.685   1.350
21795W        W85563   6.246  23.729   2.819
21796W        W85564  36.592  30.909  10.446
21797W        W85565  41.399   8.182  11.866
21798W        W85566  24.643  32.529  14.920
21799W        W85567  24.717   0.267   3.687
21800W        W85568  42.934   3.926  10.574
21801W        W85569   1.972  13.705  12.840
21802W        W85570  42.487  40.033   2.386
21803W        W85571  20.734  17.278  10.449
21804W        W85572   0.415  35.454  14.400
21805W        W85573  38.036  40.497  11.520
21806W        W85574   6.737  41.435  10.991
21807W        W85575  13.660  20.539  11.581
21808W        W85576   9.368  27.982  14.335
21809W        W85577   5.366  10.192   4.778
21810W        W85578  27.136   2.255  11.507
21811W        W85579  39.054  37.362   4.822
21812W        W85580   2.796  19.075  10.978
21813W        W85581  22.643  41.398  12.373
21814W        W85582  37.432  14.289   3.678
21815W        W85583  21.581  20.721   2.282
21816W        W85584   3.847  23.144  12.911
21817W        W85585  11.369  43.318  11.095
21818W        W85586   0.744   7.668  11.897
21819W        W85587  32.438  36.916   4.813
21820W        W85588   4.927  14.209  10.996
21821W        W85589  36.568   9.297   4.205
21822W        W85590   1.275  38.504   0.319
21823W        W85591  37.924   6.698   2.264
21824W        W85592  12.696  44.316   4.261
21825W        W85593  44.295  44.944  13.446
21826W        W85594  13.825  24.568   1.848
21827W        W85595  44.935  17.583  11.399
21828W        W85596  31.616  44.485  13.478
21829W        W85597  17.562  23.692   3.358
21830W        W85598  19.701   6.858   0.292
21831W        W85599  15.655   7.740   0.246
21832W        W85600  31.442  41.457   1.384
21833W        W85601  37.461   9.883   1.353
21834W        W85602  40.522  40.039  10.495
21835W        W85603  29.089  16.728  14.780
21836W        W85604   8.307  29.998  14.387
21837W        W85605  18.626  22.673  12.559
21838W        W85606  28.673  39.408  12.035
21839W        W85607  31.536  15.641   3.356
21840W        W85608  26.662  10.809   2.385
21841W        W85609  12.706  15.594   1.803
21842W        W85610  20.677  23.612   3.244
21843W        W85611  36.898  20.074  10.424
21844W        W85612   1.369  41.404  13.872
21845W        W85613  31.490  34.508   1.841
21846W        W85614  26.471  11.171  11.941
21847W        W85615  20.648  20.594   0.467
21848W        W85616  44.399  24.635   2.889
21849W        W85617   6.707  37.879  10.934
21850W        W85618  42.292  18.061   3.269
21851W        W85619  16.110  36.539  13.018
21852W        W85620  31.078  33.083  11.863
21853W        W85621  25.688  31.115   2.902
21854W        W85622   2.389  39.002   5.084
21855W        W85623  33.978  41.370  11.576
21856W        W85624  22.625  15.319   4.802
21857W        W85625  13.288  12.258   1.931
21858W        W85626  23.539  37.032  14.807
21859W        W85627  40.976  41.967   4.605
21860W        W85628   4.384  40.544  14.293
21861W        W85629  24.480   9.665   0.962
21862W        W85630   1.396  43.815   0.484
21863W        W85631  19.132  36.034  11.923
21864W        W85632  23.197  32.941   4.780
21865W        W85633  10.197   0.904   1.222
21866W        W85634  25.591  22.699   2.823
21867W        W85635  11.270   2.386  14.832
21868W        W85636  25.150   6.735   2.741
21869W        W85637  14.833  32.439  14.446
21870W        W85638   3.950  35.910  11.552
21871W        W85639   4.287  21.246   2.831
21872W        W85640  29.159  25.636   2.783
21873W        W85641   3.285  38.358  10.921
21874W        W85642  38.011  21.547   0.935
21875W        W85643   5.259  32.015   1.934
21876W        W85644  26.047  20.561  12.002
21877W        W85645  37.440  39.397  11.981
21878W        W85646  12.700  13.648   5.730
21879W        W85647  27.022   5.372   4.247
21880W        W85648  21.553  16.631  10.916
21881W        W85649  20.148  29.016   0.810
21882W        W85650  31.086  37.072   2.853
21883W        W85651  24.707  29.086  11.577
21884W        W85652  27.121  15.783   2.270
21885W        W85653  34.441  17.062  12.999
21886W        W85654  13.724  14.162  14.502
21887W        W85655  14.674   1.928  14.887
21888W        W85656  23.116  21.177  11.105
21889W        W85657  21.146  21.231  10.431
21890W        W85658  16.294  34.557  10.442
21891W        W85659  11.704   6.220  14.833
21892W        W85660  10.648  24.633   4.817
21893W        W85661  13.340   6.867   3.867
21894W        W85662  22.522  28.077   0.264
21895W        W85663   0.413  17.767  10.623
21896W        W85664  31.484  36.504  13.535
21897W        W85665  20.611  11.819   0.382
21898W        W85666  30.622   3.373  13.821
21899W        W85667   6.201  37.382   0.861
21900W        W85668  25.001  36.431   1.244
21901W        W85669   4.734  33.011  13.041
21902W        W85670  38.395  19.206  14.484
21903W        W85671  42.858  38.371  10.128
21904W        W85672   4.716  20.042   4.734
21905W        W85673  39.890  12.334  11.952
21906W        W85674   8.343  25.482  12.877
21907W        W85675  40.028  12.740   3.736
21908W        W85676  21.515  43.902   4.633
21909W        W85677  27.105  25.680  10.579
21910W        W85678  20.098  26.024  13.517
21911W        W85679   5.329   8.886   5.197
21912W        W85680  25.634  28.555   4.664
21913W        W85681  19.686   5.336  12.355
21914W        W85682  29.167  30.933  10.421
21915W        W85683  25.557  35.974   4.178
21916W        W85684  23.165  26.480  10.979
21917W        W85685  40.505  10.820   1.304
21918W        W85686  32.418  26.547  14.294
21919W        W85687  43.930  27.976   0.858
21920W        W85688  13.243  37.050  14.460
21921W        W85689  12.779  12.348   1.719
21922W        W85690  28.999  38.488   1.701
21923W        W85691  25.674  10.268   2.269
21924W        W85692  26.654  25.148   5.242
21925W        W85693  35.576  11.146  11.990
21926W        W85694  30.921  10.872   0.764
21927W        W85695  34.471  29.044   4.783
21928W        W85696   5.320  11.246  14.293
21929W        W85697   5.737  11.838   3.220
21930W        W85698  12.257  30.633  12.030
21931W        W85699  33.534   4.326   1.286
21932W        W85700   1.445  31.080  12.401
21933W        W85701  33.953  34.411   3.281
21934W        W85702  43.976  32.531   0.880
21935W        W85703  41.371  39.432  13.545
21936W        W85704  20.532  42.450   2.696
21937W        W85705  33.489   6.375   1.771
21938W        W85706  28.474   6.186   1.337
21939W        W85707  26.679   2.829  10.625
21940W        W85708  11.774  30.939   4.664
21941W        W85709  22.147   5.387   2.820
21942W        W85710  17.062  36.556  12.511
21943W        W85711  29.062   8.787   0.472
21944W        W85712  34.518   1.806   1.363
21945W        W85713  16.165  15.147  12.442
21946W        W85714  28.504   0.324   1.422
21947W        W85715   2.272  42.010   2.877
21948W        W85716  11.739   7.206   3.228
21949W        W85717  36.069  18.184  10.559
21950W        W85718  42.832  32.059   2.244
21951W        W85719   5.275  20.637   4.325
21952W        W85720   3.710  32.972  10.488
21953W        W85721  42.525  37.975  10.515
21954W        W85722  16.793  19.605  11.950
21955W        W85723  13.138  16.587   2.726
21956W        W85724   9.160  23.240  12.858
21957W        W85725   7.395   7.409  10.617
21958W        W85726  14.603  21.132  12.361
21959W        W85727   2.328  19.248  14.771
21960W        W85728   8.272  27.662   4.705
21961W        W85729   9.858   6.872   4.770
21962W        W85730  17.061  29.485   2.860
21963W        W85731  33.550  11.282  10.517
21964W        W85732   4.701  11.631  14.892
21965W        W85733  36.982  24.522  13.899
21966W        W85734   5.433   1.753  13.389
21967W        W85735  22.707  17.131  11.414
21968W        W85736  28.995  17.697   0.746
21969W        W85737  26.104  24.108  12.539
21970W        W85738  16.266  11.833  13.792
21971W        W85739  26.565  22.056  14.443
21972W        W85740   8.361  42.826  11.518
21973W        W85741   7.221   4.237  14.392
21974W        W85742  14.157  32.972  13.950
21975W        W85743  43.020  40.511  12.359
21976W        W85744  26.116  10.817   1.843
21977W        W85745  28.584  23.047  12.088
21978W        W85746   8.283  30.490  12.883
21979W        W85747  22.184  23.988  10.635
21980W        W85748  23.125  40.305   1.852
21981W        W85749  41.374  37.047  12.927
21982W        W85750  18.093  15.674  10.638
21983W        W85751  15.650  14.274  11.466
21984W        W85752  35.087  15.127  10.483
21985W        W85753  23.701  44.346   3.740
21986W        W85754  17.665   2.947  14.762
21987W        W85755  23.579  44.449  11.492
21988W        W85756  11.346  43.974   3.671
21989W        W85757   0.774  18.552  10.614
21990W        W85758   6.217  11.142  14.015
21991W        W85759  18.666  11.195   2.296
21992W        W85760  22.095   5.748  14.967
21993W        W85761  21.247  38.070  11.892
21994W        W85762  18.705   4.272   0.957
21995W        W85763   6.857  36.980   1.775
21996W        W85764  30.967  40.995   1.303
21997W        W85765  25.665  39.382  13.818
21998W        W85766  34.924   2.323   1.310
21999W        W85767  20.539  12.246   3.847
22000W        W85768  37.342  27.491  11.558
22001W        W85769  39.383  24.680   2.801
22002W        W85770  34.896   4.934   3.378
22003W        W85771   3.943  36.506  14.405
22004W        W85772  17.265  33.034   0.468
22005W        W85773  43.812   5.367  14.491
22006W        W85774  40.469  31.979  13.325
22007W        W85775  22.628  28.134   2.901
22008W        W85776   2.892  19.705  11.415
22009W        W85777  44.779   7.743  14.403
22010W        W85778  23.162  37.398   0.263
22011W        W85779  26.057  22.237   0.482
22012W        W85780   3.785  12.138   2.672
22013W        W85781  16.762  18.564  13.383
22014W        W85782  42.027  12.637   2.340
22015W        W85783  31.080  31.124  14.998
22016W        W85784  33.027  41.400   4.707
22017W        W85785  21.746  27.660  12.961
22018W        W85786   4.860  23.624  14.930
22019W        W85787  38.433  40.020  11.433
22020W        W85788  26.168   1.802  11.110
22021W        W85789  43.798   5.863  12.432
22022W        W85790  41.915  10.176  10.106
22023W        W85791  35.465  23.101  12.002
22024W        W85792  18.270   2.839  14.827
22025W        W85793  36.037  25.472  10.547
22026W        W85794  18.703  11.141   4.335
22027W        W85795  26.009   4.424   2.233
22028W        W85796   4.878  29.030   4.671
22029W        W85797  30.138  25.162  11.938
22030W        W85798  35.532   7.172  13.372
22031W        W85799  23.644  40.312  13.812
22032W        W85800  12.162   0.784  11.871
22033W        W85801  39.980  17.177   2.215
22034W        W85802  17.659   1.452  14.889
22035W        W85803  42.022  20.598  10.533
22036W        W85804  12.251   4.895  10.462
22037W        W85805  10.756  17.776   3.251
22038W        W85806  41.442   4.708   0.375
22039W        W85807  17.785  10.689   4.222
22040W        W85808   2.749  10.328   0.862
22041W        W85809  34.052  36.486  14.769
22042W        W85810  10.384  35.019  10.584
22043W        W85811   6.811  16.300  12.984
22044W        W85812  10.764  28.590   2.286
22045W        W85813  16.775  18.259  10.459
22046W        W85814  11.227  28.673   4.218
22047W        W85815  24.984  30.550  11.904
22048W        W85816  18.587  33.065   3.678
22049W        W85817  40.012  28.675   4.306
22050W        W85818  32.560  19.112   0.955
22051W        W85819  26.528   1.396  13.012
22052W        W85820  20.742  41.486   4.273
22053W        W85821  16.234  19.631  10.470
22054W        W85822  18.265  10.175   3.331
22055W        W85823   5.762  13.215  14.388
22056W        W85824  25.200  13.122   2.780
22057W        W85825  37.973  41.010   3.810
22058W        W85826  10.350  32.973  12.934
22059W        W85827  37.370  41.906   2.806
22060W        W85828  26.962  17.195  10.905
22061W        W85829   1.911  40.420  14.425
22062W        W85830  21.660  31.567  11.436
22063W        W85831  13.768  30.638   1.253
22064W        W85832  40.864  34.568  11.512
22065W        W85833  16.301  19.572   1.443
22066W        W85834  27.497  31.516   3.736
22067W        W85835  40.037  17.746   1.417
22068W        W85836  23.104  38.057  14.385
22069W        W85837  18.565  15.084   0.457
22070W        W85838  26.969  38.067  11.902
22071W        W85839  17.192  37.536   4.829
22072W        W85840  31.003   5.804   3.166
22073W        W85841   3.353  26.530   1.864
22074W        W85842  26.660  29.019   4.701
22075W        W85843  25.538  23.501  14.849
22076W        W85844  24.500  19.611  10.557
22077W        W85845   3.302  27.614   4.804
22078W        W85846  29.999  22.735  10.926
22079W        W85847  23.034   8.384   1.694
22080W        W85848  25.632  15.216   0.386
22081W        W85849  40.028   3.405   1.367
22082W        W85850  14.649   0.315  10.631
22083W        W85851  27.009  30.616  12.911
22084W        W85852   1.482  26.527  10.461
22085W        W85853  43.275   8.842  13.396
22086W        W85854  14.125  23.708   1.779
22087W        W85855  24.985  19.191   0.845
22088W        W85856   9.863   5.690   4.160
22089W        W85857  29.606   5.193  14.027
22090W        W85858   7.669   5.384  10.613
22091W        W85859  29.664   7.397   1.896
22092W        W85860  10.869  31.460  13.536
22093W        W85861  26.099   7.691  14.027
22094W        W85862  34.966  24.978  11.527
22095W        W85863  35.433  13.281   1.397
22096W        W85864  21.578  14.297  11.589
22097W        W85865  26.478  16.718   4.781
22098W        W85866  26.465  32.592  13.811
22099W        W85867  15.788  17.713   3.667
22100W        W85868  39.553  12.680   0.862
22101W        W85869  19.189  17.662  13.402
22102W        W85870  19.131  18.754   5.235
22103W        W85871  35.880   5.750   1.254
22104W        W85872   1.380  31.587   1.810
22105W        W85873  19.158   4.450  12.996
22106W        W85874  19.659  28.469  10.915
22107W        W85875  37.010  26.471  13.938
22108W        W85876  11.320  14.599  11.509
22109W        W85877   3.253  20.761  14.840
22110W        W85878  42.872  18.589  14.363
22111W        W85879   1.456   6.777   1.879
22112W        W85880  27.500  19.625   0.397
22113W        W85881  14.149  38.410  14.776
22114W        W85882  36.983  20.163   3.662
22115W        W85883  42.833  33.428   3.155
22116W        W85884   6.196  17.219  11.407
22117W        W85885  43.021  21.613  11.456
22118W        W85886  38.999  34.394   1.301
22119W        W85887  11.154  22.245   0.810
22120W        W85888  11.855   9.866   5.718
22121W        W85889   5.228  37.862   1.384
22122W        W85890   8.880   5.258  14.800
22123W        W85891  21.231  16.142  11.038
22124W        W85892  37.909   6.902   2.878
22125W        W85893  30.968  19.058  11.856
22126W        W85894  36.846  11.304   3.826
22127W        W85895  15.297  14.236  11.535
22128W        W85896  30.433  23.102   2.316
22129W        W85897  20.094  24.977   0.328
22130W        W85898  13.728  10.753  12.853
22131W        W85899   4.306   0.926   1.339
22132W        W85900  15.275  19.776  10.902
22133W        W85901  12.272  39.063   0.874
22134W        W85902  44.994  27.970   3.273
22135W        W85903  38.548  38.918  11.927
22136W        W85904  26.629  42.966   4.296
22137W        W85905  34.486  32.440  13.471
22138W        W85906   6.777  33.407   4.221
22139W        W85907  35.054  42.877  10.127
22140W        W85908  36.362  11.201  11.857
22141W        W85909  12.203  14.830  12.412
22142W        W85910  26.183  11.132   2.895
22143W        W85911  33.122  17.789  14.281
22144W        W85912  34.572  24.690  11.060
22145W        W85913  26.179  32.018  13.022
22146W        W85914  32.590  36.934   1.702
22147W        W85915  32.507  41.437  11.103
22148W        W85916  36.019  41.448  12.021
22149W        W85917  16.734  14.119  14.869
22150W        W85918   5.392  41.537  13.498
22151W        W85919  24.048   4.316  13.930
22152W        W85920   9.789  13.259  12.014
22153W        W85921   3.341  12.349  13.373
22154W        W85922   5.313  37.415   0.427
22155W        W85923  23.613  15.724  11.429
22156W        W85924  15.117  43.360  13.478
22157W        W85925  24.645  25.566  14.427
22158W        W85926   1.343  39.926  11.127
22159W        W85927  15.579  27.615  13.421
22160W        W85928  37.570  32.915   0.280
22161W        W85929   0.761   1.238  12.912
22162W        W85930  36.383  42.890  14.390
22163W        W85931   8.319  38.889   2.820
22164W        W85932  10.193   1.965   3.715
22165W        W85933  10.663  41.359   2.240
22166W        W85934   6.395  27.476  12.404
22167W        W85935  11.295  35.016   1.448
22168W        W85936   2.957  10.304  10.536
22169W        W85937  13.815  15.303   4.130
22170W        W85938  42.312  37.553  14.288
22171W        W85939  17.771  15.617   1.866
22172W        W85940   0.273  36.957   2.401
22173W        W85941  15.665  20.212   4.232
22174W        W85942  25.539  29.662   0.407
22175W        W85943  43.505   1.335  11.880
22176W        W85944  11.757  26.185   1.346
22177W        W85945  29.461  20.691   2.842
22178W        W85946   3.880  31.923   3.154
22179W        W85947  43.824  37.865  12.541
22180W        W85948  14.777  34.494  12.357
22181W        W85949  39.891  24.596  13.021
22182W        W85950  38.501  13.210  12.054
22183W        W85951  28.507  30.956   3.326
22184W        W85952   5.325  22.719   3.149
22185W        W85953  25.584   9.291   3.659
22186W        W85954   3.393  32.481   4.820
22187W        W85955   8.794  19.271  12.855
22188W        W85956  18.773  15.156  11.582
22189W        W85957  32.073  24.211   1.855
22190W        W85958  42.383  44.941   2.768
22191W        W85959  42.803  33.568   2.374
22192W        W85960  38.518  10.181   4.278
22193W        W85961  26.599  28.105   0.966
22194W        W85962  19.105  38.394   3.639
22195W        W85963  38.011  38.053  11.383
22196W        W85964  20.049  20.616  12.884
22197W        W85965  29.433  14.601   4.806
22198W        W85966  40.304  30.658  11.511
22199W        W85967   8.372  31.000   2.335
22200W        W85968  40.873  32.928  11.987
22201W        W85969  10.801  18.104   0.429
22202W        W85970  12.117  19.533  14.937
22203W        W85971  41.484  24.702  10.453
22204W        W85972  44.275  10.849  12.994
22205W        W85973  38.339  10.721  12.349
22206W        W85974  12.699  41.989  12.059
22207W        W85975  20.116  18.674  11.612
22208W        W85976  37.385  35.388  11.432
22209W        W85977  40.384  21.588  13.915
22210W        W85978  25.993  14.321   2.414
22211W        W85979   4.366  17.145  14.887
22212W        W85980  39.353  32.065   5.250
22213W        W85981  36.913   3.431   3.734
22214W        W85982  37.085  21.714   2.866
22215W        W85983  14.282   1.410   0.445
22216W        W85984  17.641  14.276  14.784
22217W        W85985  29.170  27.606   1.229
22218W        W85986  19.734  21.029  10.615
22219W        W85987  34.518   9.733  11.896
22220W        W85988  21.542  10.270   0.849
22221W        W85989  17.306  18.279   1.393
22222W        W85990  19.570  37.355   1.358
22223W        W85991  35.448  30.128   2.367
22224W        W85992  12.804  43.877   4.302
22225W        W85993  19.078  41.821   2.739
22226W        W85994   7.321  22.251  12.420
22227W        W85995  18.113  44.947   1.258
22228W        W85996   4.225   2.305  14.838
22229W        W85997   5.330   1.910  10.910
22230W        W85998  17.272  42.876  11.033
22231W        W85999  27.669  28.116   3.670
22232W        W86000  42.017  15.306  12.941
22233W        W86001  37.422  30.513   4.305
22234W        W86002  21.542  17.241   4.271
22235W        W86003  42.989   7.667   4.275
22236W        W86004  29.555  25.038   4.662
22237W        W86005  14.689  31.077  11.382
22238W        W86006  10.727  23.985   3.299
22239W        W86007   9.802  21.183   1.239
22240W        W86008   3.791  37.875   4.598
22241W        W86009  10.372  36.351   1.324
22242W        W86010  31.566   1.904   2.357
22243W        W86011   2.859   0.470  10.918
22244W        W86012   5.382  42.281   4.124
22245W        W86013  38.860   7.773   3.718
22246W        W86014   4.862   6.336  12.046
22247W        W86015  26.531   0.887  12.955
22248W        W86016  27.072  43.455   2.195
22249W        W86017  34.517  11.845   0.481
22250W        W86018  16.812  17.664   3.310
22251W        W86019   8.233   6.807   4.801
22252W        W86020   7.763   9.348   2.812
22253W        W86021  36.513  15.096   4.825
22254W        W86022  28.085  16.209   0.912
22255W        W86023  21.105  40.449  11.428
22256W        W86024  12.707  24.599  13.454
22257W        W86025   0.835   6.678  10.951
22258W        W86026   2.249   4.846   1.711
22259W        W86027  34.061  33.460  14.280
22260W        W86028   0.297  27.084   2.674
22261W        W86029  25.536   4.778   0.829
22262W        W86030  12.670  43.869   3.698
22263W        W86031  11.637  10.688  13.859
22264W        W86032  10.789  35.952   1.823
22265W        W86033   3.856  40.024   3.808
22266W        W86034  22.555  42.001   1.311
22267W        W86035  17.064  20.132   3.824
22268W        W86036   4.205  27.020  12.057
22269W        W86037  21.169  32.967  13.830
22270W        W86038  41.466  18.605  13.825
22271W        W86039   7.187  36.943   1.808
22272W        W86040  17.728  44.875   3.845
22273W        W86041  12.802   6.886  14.907
22274W        W86042  40.854   8.678  12.908
22275W        W86043  10.199  22.620  12.959
22276W        W86044  44.465  26.187   1.380
22277W        W86045   5.285  18.159   5.260
22278W        W86046  28.596  19.678   2.876
22279W        W86047   8.268  24.547   1.320
22280W        W86048  25.568  13.757   1.783
22281W        W86049  23.017  33.985   2.727
22282W        W86050  18.555  16.719   1.234
22283W        W86051  35.365  39.023  13.883
22284W        W86052  31.518  24.707   2.406
22285W        W86053  14.625  36.981  12.906
22286W        W86054  16.105  24.164  13.329
22287W        W86055  20.153  38.825   4.297
22288W        W86056   0.764   5.349   3.739
22289W        W86057  36.016  20.661   2.841
22290W        W86058  27.194  22.193   3.158
22291W        W86059  44.768  32.515   3.366
22292W        W86060  44.901   2.460  12.094
22293W        W86061  17.621  25.981   2.200
22294W        W86062  18.617  16.682   0.843
22295W        W86063  10.174  43.003  12.052
22296W        W86064  35.000  42.860   4.836
22297W        W86065  29.936  19.198  13.000
22298W        W86066  34.476  13.147  14.935
22299W        W86067   1.400   8.698   0.433
22300W        W86068  29.035   8.318   1.294
22301W        W86069  19.139  23.204   0.327
22302W        W86070  10.659  38.889   1.274
22303W        W86071  18.785  43.929  11.001
22304W        W86072  11.316  12.747   2.746
22305W        W86073  43.350  24.648   2.819
22306W        W86074  32.899  38.933  14.010
22307W        W86075   3.943  17.602   2.857
22308W        W86076   9.742  44.795   0.769
22309W        W86077  40.508  25.474  12.467
22310W        W86078   4.352  24.140   2.276
22311W        W86079   9.682   3.724   4.316
22312W        W86080  12.308  21.524  13.035
22313W        W86081  14.756  11.157   3.186
22314W        W86082  37.060  31.630   3.237
22315W        W86083  39.043  12.779   3.196
22316W        W86084   8.231  25.579   2.339
22317W        W86085  29.031  28.663   1.746
22318W        W86086  31.964   9.680   4.602
22319W        W86087  18.782   5.370   3.286
22320W        W86088  24.486  29.470   3.291
22321W        W86089  42.934  30.642  13.979
22322W        W86090  27.009  11.763   1.868
22323W        W86091   8.877  39.507  12.978
22324W        W86092   9.318  15.819  10.500
22325W        W86093  28.119  34.560  14.983
22326W        W86094  40.000  40.321  12.880
22327W        W86095   8.338  17.563  11.557
22328W        W86096  31.601  27.560  13.403
22329W        W86097  33.621   0.253   4.676
22330W        W86098  11.334  16.246   1.771
22331W        W86099  12.618  27.579   3.167
22332W        W86100  34.533  12.279  12.847
22333W        W86101   5.842  19.776  12.364
22334W        W86102  28.166  44.401   4.791
22335W        W86103  40.847  12.782  12.476
22336W        W86104  42.877  21.017  13.339
22337W        W86105   5.311  15.230  12.373
22338W        W86106  31.911  11.716   2.179
22339W        W86107  10.157   1.340  10.925
22340W        W86108  24.700  26.964  11.124
22341W        W86109   0.385  14.794   2.367
22342W        W86110  14.746  24.135  11.869
22343W        W86111  20.589  17.704  14.355
22344W        W86112   3.814  14.110   1.709
22345W        W86113   3.457  37.561   3.270
22346W        W86114   3.276  41.433   2.383
22347W        W86115   4.334  32.498   1.789
22348W        W86116   6.229  26.614  13.968
22349W        W86117  27.685  34.383   4.135
22350W        W86118  37.536  13.222  12.057
22351W        W86119  33.407   9.788   3.262
22352W        W86120   1.401   1.322  13.323
22353W        W86121  44.834  13.662  11.910
22354W        W86122  28.555   4.853  13.437
22355W        W86123   6.349  11.760  12.351
22356W        W86124   3.256  20.141   4.600
22357W        W86125  39.931   2.814  12.041
22358W        W86126  40.954  33.032  12.406
22359W        W86127   8.348  40.036   3.268
22360W        W86128  29.440   1.859   3.787
22361W        W86129   1.369   8.793   1.437
22362W        W86130  22.017  16.634   3.673
22363W        W86131  11.250  37.488  11.979
22364W        W86132  35.863  41.851   3.182
22365W        W86133  11.727   1.797   4.603
22366W        W86134  29.048  31.488  14.508
22367W        W86135   8.300  17.624   4.346
22368W        W86136  27.625   3.754  12.890
22369W        W86137  22.640   7.224   2.811
22370W        W86138  36.863  28.618   4.298
22371W        W86139  19.768   5.912  14.495
22372W        W86140  10.771   1.394   4.332
22373W        W86141   7.319   9.687   4.155
22374W        W86142  29.442  34.976  11.124
22375W        W86143  39.540  22.136  14.436
22376W        W86144  40.493  24.643   2.746
22377W        W86145  11.795  12.805   1.868
22378W        W86146  25.963  25.193  11.521
22379W        W86147  42.309  32.897   1.793
22380W        W86148  31.537  40.304   3.774
22381W        W86149  27.095  25.176  12.929
22382W        W86150   4.255  28.018   1.341
22383W        W86151  27.179   4.239   3.768
22384W        W86152  41.957  14.302   2.317
22385W        W86153  23.493  23.520   0.466
22386W        W86154  44.479  11.154   1.835
22387W        W86155   2.445  22.521  11.418
22388W        W86156  21.093  21.742   4.159
22389W        W86157  14.653  34.068   3.267
22390W        W86158  20.622  24.545   2.227
22391W        W86159  30.428  13.646  10.942
22392W        W86160  27.501  31.971   4.678
22393W        W86161  34.002  22.252   1.765
22394W        W86162   1.307   1.745  11.477
22395W        W86163  22.617  25.568  14.990
22396W        W86164   0.984  28.540  13.855
22397W        W86165  24.692   6.769  13.057
22398W        W86166  18.697  37.942   3.146
22399W        W86167  23.680  36.844   1.287
22400W        W86168  29.067  24.669  11.477
22401W        W86169  36.426  35.920  12.905
22402W        W86170   0.289  41.412  10.563
22403W        W86171  18.079  40.929  13.528
22404W        W86172  36.496  42.477  13.030
22405W        W86173  13.242  19.263   3.172
22406W        W86174   6.326  19.749   0.936
22407W        W86175  26.593   4.280   2.713
22408W        W86176  19.074  28.045  11.116
22409W        W86177  21.550  20.171  11.124
22410W        W86178  33.380   7.831  12.430
22411W        W86179  30.156  31.905  14.818
22412W        W86180  10.692  14.600   5.740
22413W        W86181  22.208   2.831  10.559
22414W        W86182  32.088  40.335  13.419
22415W        W86183  38.975   3.277   0.448
22416W        W86184   6.875  16.110   4.832
22417W        W86185  29.470  19.182   1.765
22418W        W86186   9.697  26.536  12.087
22419W        W86187  10.359  41.818   2.198
22420W        W86188  29.547  28.559  12.437
22421W        W86189   2.265   2.778  10.534
22422W        W86190  21.033  40.876   1.344
22423W        W86191   7.714   4.905  13.363
22424W        W86192   2.459  19.278  13.015
22425W        W86193   5.397  34.884  13.347
22426W        W86194  31.991  18.660   1.267
22427W        W86195   9.875  11.739  10.117
22428W        W86196  14.185  12.334   1.886
22429W        W86197  19.107  37.351   0.383
22430W        W86198   3.929  30.921  10.929
22431W        W86199  33.970  37.456   2.233
22432W        W86200  43.007  43.879  12.066
22433W        W86201  18.765  15.721   0.431
22434W        W86202  44.491  33.590  12.037
22435W        W86203   9.686   2.262   0.318
22436W        W86204  43.335  14.635  10.639
22437W        W86205  31.005   8.405  11.914
22438W        W86206  30.942  39.823   4.660
22439W        W86207  36.484   9.864   0.456
22440W        W86208  17.686   6.300   0.348
22441W        W86209   3.367  31.429   4.793
22442W        W86210   4.299  16.668   0.736
22443W        W86211  16.092  24.546   3.691
22444W        W86212   9.814  40.039  14.783
22445W        W86213  40.984  14.787   1.773
22446W        W86214  36.564  44.294  11.865
22447W        W86215  12.153   1.891  10.931
22448W        W86216   4.900  18.108   9.989
22449W        W86217  14.593  31.505  14.808
22450W        W86218   2.902  18.775  12.852
22451W        W86219   9.254  34.925  14.403
22452W        W86220  20.184  41.456  14.779
22453W        W86221  23.231   1.476   1.356
22454W        W86222   5.220  38.828  11.989
22455W        W86223  35.011   2.364   3.723
22456W        W86224   5.687  36.570   2.229
22457W        W86225   3.420  21.118  14.999
22458W        W86226   2.886  21.255   0.929
22459W        W86227  13.846  38.440   1.381
22460W        W86228  23.129  44.493  12.931
22461W        W86229   2.441   7.877   1.364
22462W        W86230  29.118   7.796   1.905
22463W        W86231   5.807  38.409   1.303
22464W        W86232  33.922  34.962   2.681
22465W        W86233  37.058   2.439  13.489
22466W        W86234  36.418   2.859  13.379
22467W        W86235   2.376  36.900   0.426
22468W        W86236  38.040   4.839   0.350
22469W        W86237  21.752  19.193  13.866
22470W        W86238  14.254  22.585  11.921
22471W        W86239   2.806  16.264   1.850
22472W        W86240  16.627  21.601   1.835
22473W        W86241  40.487  18.662  12.976
22474W        W86242  41.398  37.453  12.464
22475W        W86243  12.203  26.512   4.604
22476W        W86244  14.220  12.651   1.366
22477W        W86245  32.919  17.712  14.758
22478W        W86246  13.137  18.791  10.435
22479W        W86247   7.230  24.150   4.609
22480W        W86248  29.668   7.734  14.769
22481W        W86249  18.606  20.645  13.929
22482W        W86250  37.051  33.612   0.410
22483W        W86251  15.768  37.035  11.108
22484W        W86252  20.140  37.069   0.826
22485W        W86253  38.411  26.189  13.521
22486W        W86254  38.540  15.598  10.968
22487W        W86255  24.568  44.987   0.840
22488W        W86256   5.814  17.257   3.283
22489W        W86257  26.607  19.628   2.834
22490W        W86258  26.172  11.301   1.829
22491W        W86259   6.814  33.460  14.954
22492W        W86260   7.252  23.187   1.878
22493W        W86261   5.305  25.709  10.556
22494W        W86262  18.657  41.862  13.358
22495W        W86263  17.748  10.644   2.188
22496W        W86264   5.751  11.698   2.673
22497W        W86265  44.277  23.176  14.278
22498W        W86266  40.988  15.586   0.831
22499W        W86267  27.632   6.384  12.985
22500W        W86268  20.200  36.935  12.015
22501W        W86269  22.184  38.919  11.876
22502W        W86270  44.931  29.622  13.332
22503W        W86271  22.548   9.198   3.165
22504W        W86272  16.243  26.152  12.362
22505W        W86273  31.122   5.279  14.491
22506W        W86274  41.790   0.487   1.928
22507W        W86275  44.868  19.052   0.791
22508W        W86276   9.349  11.343   3.165
22509W        W86277  44.470  22.528   5.195
22510W        W86278  32.604  28.990   4.796
22511W        W86279  34.923  24.703   4.244
22512W        W86280  15.147   4.734   4.808
22513W        W86281  27.508  44.830   0.456
22514W        W86282  24.123  22.666  11.991
22515W        W86283   4.214   4.317  11.479
22516W        W86284  32.077   1.351  10.952
22517W        W86285  31.620  42.009   2.218
22518W        W86286  19.604  15.266   1.330
22519W        W86287  21.574  16.728   3.713
22520W        W86288  44.313  32.900  11.075
22521W        W86289   7.812  41.480  11.559
22522W        W86290  42.929  28.042   2.289
22523W        W86291  11.186  25.677  12.042
22524W        W86292   6.293  21.162  11.068
22525W        W86293   9.693  17.627  13.309
22526W        W86294  44.474  41.982  10.460
22527W        W86295   7.251  39.870  13.410
22528W        W86296  10.211  22.554   2.245
22529W        W86297  31.487   9.224   3.676
22530W        W86298   1.319  32.141   1.394
22531W        W86299  21.060  21.045   1.764
22532W        W86300  44.005  31.113   1.266
22533W        W86301  23.183  43.321  12.457
22534W        W86302  27.509  14.108   0.280
22535W        W86303   3.391  20.078   1.907
22536W        W86304   9.332  27.967   3.221
22537W        W86305  27.085  36.892   0.939
22538W        W86306  21.094  35.884  13.315
22539W        W86307  21.253  28.093  13.409
22540W        W86308   1.460   0.861   0.959
22541W        W86309   9.858  43.958   1.778
22542W        W86310   9.318  12.774   1.252
22543W        W86311  34.590  37.965  10.592
22544W        W86312  19.572  28.108   1.830
22545W        W86313  24.141  42.837  14.415
22546W        W86314  18.615   1.946  12.529
22547W        W86315  15.095  21.021   0.779
22548W        W86316  29.924  12.637   1.270
22549W        W86317  30.988  24.155  10.472
22550W        W86318  22.702  25.545   3.745
22551W        W86319  18.113   8.655   2.873
22552W        W86320  26.053  12.132  11.000
22553W        W86321  22.123  31.992   2.330
22554W        W86322   3.808  17.198  14.785
22555W        W86323  35.877  31.634   2.331
22556W        W86324  36.466  44.399  10.121
22557W        W86325  30.619  42.005   2.292
22558W        W86326  23.601  33.390   2.692
22559W        W86327  32.914  21.237   2.275
22560W        W86328   1.400  17.156   1.802
22561W        W86329   5.698  14.609   4.194
22562W        W86330  32.479  15.144  11.065
22563W        W86331  20.756  23.231   0.418
22564W        W86332   4.372  33.907  14.915
22565W        W86333   7.177  10.769   3.659
22566W        W86334  40.000  33.550   4.751
22567W        W86335  38.829  13.132   4.241
22568W        W86336  29.122  14.121   0.730
22569W        W86337  24.546  20.138  11.020
22570W        W86338  22.565  44.473   0.729
22571W        W86339   0.944  25.190  12.051
22572W        W86340   8.898  36.544  11.443
22573W        W86341  15.091  19.656   4.620
22574W        W86342  33.966  31.026  10.478
22575W        W86343   0.911  26.655  12.921
22576W        W86344  21.194  42.451   4.122
22577W        W86345  40.505  14.772   0.897
22578W        W86346  13.606  14.674   2.827
22579W        W86347   8.270  11.192  13.025
22580W        W86348  29.939   7.288  10.641
22581W        W86349  12.854  42.339   3.296
22582W        W86350  27.547  23.085   1.369
22583W        W86351   0.317  44.299   2.353
22584W        W86352  43.395  24.624  12.448
22585W        W86353  40.980   7.259   1.422
22586W        W86354   2.753  31.501   4.226
22587W        W86355   1.753  18.266   2.365
22588W        W86356  32.446   8.246  11.495
22589W        W86357  10.788  17.609   2.872
22590W        W86358   1.237  34.532   4.262
22591W        W86359  22.137  25.193  10.502
22592W        W86360  22.114  17.568  14.339
22593W        W86361   1.891  44.448  12.843
22594W        W86362  39.542  30.643  10.950
22595W        W86363  38.561  18.216  11.881
22596W        W86364  37.398   4.724   0.808
22597W        W86365  15.306   8.224   1.723
22598W        W86366  22.161   2.889   4.301
22599W        W86367   6.255  13.689  13.840
22600W        W86368  27.146  34.046   0.440
22601W        W86369  21.691  12.289   4.327
22602W        W86370   2.887  40.376  14.023
22603W        W86371  26.685   0.323   4.712
22604W        W86372  30.540   0.397   2.407
22605W        W86373  34.018  18.099   0.949
22606W        W86374  30.018  27.686   2.392
22607W        W86375   7.272   9.867  14.492
22608W        W86376   4.944  16.273   2.706
22609W        W86377   9.277  16.104   2.214
22610W        W86378   6.343  19.640  10.020
22611W        W86379  14.735  33.390   1.272
22612W        W86380  34.906  31.466   3.315
22613W        W86381   4.701   7.824  12.013
22614W        W86382  38.331  44.448   2.894
22615W        W86383  27.503   1.466   1.274
22616W        W86384  31.072  30.129  10.974
22617W        W86385  13.275  22.147   2.782
22618W        W86386   0.946  16.266  10.935
22619W        W86387  44.884  24.170   1.328
22620W        W86388  18.091  28.058   1.873
22621W        W86389  14.794  44.769   2.676
22622W        W86390  32.077  21.598  14.889
22623W        W86391  38.829   6.700  14.782
22624W        W86392   5.401  20.168   1.812
22625W        W86393   6.702  35.898  14.441
22626W        W86394  29.173  27.170  14.380
22627W        W86395  12.351  34.403   2.391
22628W        W86396  16.642  44.817  11.995
22629W        W86397  35.420  36.410   4.654
22630W        W86398  43.319  19.278   0.327
22631W        W86399  35.483  12.817  11.118
22632W        W86400   7.319  16.263   1.709
22633W        W86401   1.915  41.954  13.045
22634W        W86402  32.919  10.692  13.001
22635W        W86403   9.370  24.705   1.216
22636W        W86404  19.205   8.673  11.075
22637W        W86405   7.304  27.551  12.014
22638W        W86406  38.386   4.805  14.806
22639W        W86407  26.969  22.193  14.767
22640W        W86408  34.978  24.127   4.299
22641W        W86409  44.849   0.323   4.733
22642W        W86410  28.960  32.943  11.860
22643W        W86411  36.576   2.934   1.780
22644W        W86412  27.561   8.298  13.825
22645W        W86413  25.687  24.040   0.743
22646W        W86414  37.500   7.360   0.934
22647W        W86415  32.989  15.091  12.918
22648W        W86416  38.889  22.545   2.377
22649W        W86417  17.765   0.287  11.108
22650W        W86418   5.219   6.240   3.799
22651W        W86419  31.561  33.520   0.852
22652W        W86420   0.759  18.773  12.561
22653W        W86421  36.545  38.826   9.992
22654W        W86422   9.339   7.318   4.319
22655W        W86423   2.281   9.825   3.186
22656W        W86424  38.008   9.656  10.515
22657W        W86425  42.908  11.783  10.993
22658W        W86426  38.976  43.298  14.934
22659W        W86427  44.779  44.494  14.022
22660W        W86428   0.758  30.015   1.331
22661W        W86429   8.403  42.014  12.473
22662W        W86430  16.568  40.906   1.439
22663W        W86431  38.913  29.063  11.526
22664W        W86432  41.367   6.735  10.533
22665W        W86433  10.151  24.978   4.623
22666W        W86434  19.534  26.480   4.827
22667W        W86435   8.727  41.421  14.274
22668W        W86436   8.837  18.216  11.382
22669W        W86437  16.160  31.537   3.160
22670W        W86438  17.600  20.229   0.305
22671W        W86439  25.590  25.074   1.716
22672W        W86440  34.518   7.760  15.000
22673W        W86441   9.253  35.104   0.857
22674W        W86442  27.482  10.222   3.662
22675W        W86443  13.341  12.249   0.947
22676W        W86444  44.870  33.115   3.700
22677W        W86445  32.595  29.560  10.425
22678W        W86446  42.430  15.587  14.392
22679W        W86447   4.324  14.694  10.457
22680W        W86448   2.461  20.192   1.741
22681W        W86449   9.834  22.683   3.790
22682W        W86450  25.521  42.476  12.942
22683W        W86451  32.550   4.868   3.329
22684W        W86452   1.404  18.220  10.616
22685W        W86453  40.002   8.358  14.425
22686W        W86454  44.473  39.368  13.874
22687W        W86455  15.713  27.616   2.328
22688W        W86456   0.806  25.648  12.383
22689W        W86457  33.916  33.604  12.579
22690W        W86458  22.693  27.612  14.356
22691W        W86459  27.196  16.576   4.317
22692W        W86460  17.203  19.644   4.278
22693W        W86461   5.438   5.379  11.048
22694W        W86462  26.573   1.888  13.024
22695W        W86463  30.936  26.670   1.874
22696W        W86464  27.616   9.686  13.933
22697W        W86465  37.398   3.713   4.753
22698W        W86466   3.459  14.816   0.387
22699W        W86467   5.312  24.045   2.761
22700W        W86468  36.479  14.111  11.087
22701W        W86469  13.256  44.978  11.938
22702W        W86470  26.978  42.802   1.733
22703W        W86471  40.822  28.011  11.567
22704W        W86472  28.986   2.318  14.900
22705W        W86473  33.397  14.210  14.890
22706W        W86474  41.922  10.734  11.518
22707W        W86475  39.360  27.559   1.911
22708W        W86476  22.648  38.405  13.848
22709W        W86477  40.970   3.281  13.534
22710W        W86478   2.252  18.680  12.977
22711W        W86479  27.031  31.046  10.904
22712W        W86480  22.219  26.493  12.061
22713W        W86481  28.000  22.040  13.844
22714W        W86482  23.545   4.768  14.504
22715W        W86483  30.581  19.603   3.244
22716W        W86484  38.470  31.584  11.861
22717W        W86485  16.586  20.273   3.765
22718W        W86486  17.061  40.326  11.420
22719W        W86487  28.634  33.571  14.337
22720W        W86488  25.031   2.338   1.731
22721W        W86489  13.160   3.270   5.236
22722W        W86490  15.248  37.442  14.320
22723W        W86491   5.869  41.909  11.441
22724W        W86492  32.100  15.083  10.128
22725W        W86493   6.701   0.746  10.887
22726W        W86494   1.898   0.886   4.650
22727W        W86495  37.083  42.494   1.736
22728W        W86496  44.501   1.910  13.488
22729W        W86497  43.346   2.928  13.983
22730W        W86498  41.839  34.960   0.877
22731W        W86499  23.161  42.914  12.834
22732W        W86500  43.899  16.694   1.711
22733W        W86501  31.563   7.760   3.286
22734W        W86502  40.033  25.477   1.251
22735W        W86503   0.945  15.153  10.416
22736W        W86504  25.170  15.815   0.484
22737W        W86505  17.204  27.460  11.926
22738W        W86506  19.237  26.967   1.355
22739W        W86507  44.299  41.918   1.818
22740W        W86508  27.155  29.158  10.961
22741W        W86509  30.097  23.158  12.542
22742W        W86510  28.435  41.408  11.051
22743W        W86511  24.560  24.009  12.041
22744W        W86512  18.704  43.339   1.379
22745W        W86513  15.266  10.254   4.136
22746W        W86514  42.880  32.594   5.171
22747W        W86515  13.191  41.454  11.985
22748W        W86516  14.137  12.750  14.804
22749W        W86517   9.834  23.712   1.401
22750W        W86518  25.178  27.112  10.464
22751W        W86519  42.887  27.074  12.973
22752W        W86520  29.015  35.485  13.815
22753W        W86521  24.718  20.151   3.195
22754W        W86522  17.176   1.285  13.909
22755W        W86523   9.174  27.041   3.815
22756W        W86524   1.870  41.378   4.617
22757W        W86525  40.992  39.336  13.496
22758W        W86526  21.124   0.425   2.686
22759W        W86527  40.361  12.827   3.166
22760W        W86528  19.582  33.924   2.322
22761W        W86529  29.618  32.455  10.905
22762W        W86530  30.584  28.605  13.937
22763W        W86531   1.865   1.757   0.777
22764W        W86532  30.045   9.682  11.125
22765W        W86533  23.589  21.639  10.465
22766W        W86534  21.057   3.768   3.748
22767W        W86535  40.373   7.734   1.928
22768W        W86536  38.419  35.504  11.415
22769W        W86537   3.270  36.999   2.695
22770W        W86538  31.597  39.930  13.961
22771W        W86539   9.744  36.583  13.054
22772W        W86540  10.205  39.817   1.401
22773W        W86541  32.635  31.627   4.258
22774W        W86542   4.324   5.769  12.431
22775W        W86543   8.303  33.452   2.837
22776W        W86544   0.810  31.024  14.414
22777W        W86545  33.115  43.511   3.728
22778W        W86546  41.939   6.904  10.609
22779W        W86547  37.529   9.231  10.145
22780W        W86548  31.593  24.221   4.688
22781W        W86549  38.350  16.115   2.376
22782W        W86550  39.415  31.609   2.874
22783W        W86551  30.481   0.489   1.335
22784W        W86552  36.536  34.945  13.028
22785W        W86553  13.761   9.772  13.477
22786W        W86554  42.318  20.177  11.398
22787W        W86555   6.874  12.210  11.376
22788W        W86556  21.591  14.815   4.326
22789W        W86557  44.803  36.399  10.607
22790W        W86558  28.146  37.433   1.257
22791W        W86559   4.300  15.178   3.779
22792W        W86560  18.699  39.888   0.784
22793W        W86561  44.006  16.719   2.894
22794W        W86562  15.286  31.083   3.333
22795W        W86563  19.207  41.364   1.363
22796W        W86564  25.579  28.077  10.471
22797W        W86565  40.501  39.474  14.337
22798W        W86566  20.753  15.629  12.525
22799W        W86567  11.824  40.431   0.756
22800W        W86568  25.707  24.030   3.177
22801W        W86569   2.957  15.180   0.369
22802W        W86570  25.112   4.723  11.105
22803W        W86571  38.066   5.821   5.705
22804W        W86572   8.763  24.553  14.404
22805W        W86573  10.195  25.588  13.973
22806W        W86574   0.409   3.320  12.555
22807W        W86575  42.775  29.161   4.239
22808W        W86576  25.556  31.024   3.643
22809W        W86577  41.933  40.504  12.892
22810W        W86578  29.014  31.517   3.715
22811W        W86579  23.545   2.759  14.834
22812W        W86580  25.622   5.889   4.218
22813W        W86581  29.438  20.070  10.553
22814W        W86582  17.750   8.320   2.408
22815W        W86583   5.422  12.620  14.949
22816W        W86584  17.688  13.652   0.765
22817W        W86585  14.602   9.715   3.234
22818W        W86586  29.136  44.871   1.391
22819W        W86587   3.289  12.206  10.451
22820W        W86588  22.239  42.872   4.597
22821W        W86589  21.251  29.438   3.674
22822W        W86590  19.218   4.215  13.408
22823W        W86591  11.867  18.737  12.376
22824W        W86592  18.725  32.415  12.886
22825W        W86593  34.427  30.934   4.201
22826W        W86594  32.520   8.789   3.731
22827W        W86595  40.468  16.200  12.444
22828W        W86596  29.661  44.290  10.472
22829W        W86597   5.745  20.259  10.916
22830W        W86598  44.996   1.340  10.458
22831W        W86599   3.784   9.684  11.030
22832W        W86600  13.344  34.505   0.902
22833W        W86601  33.993  38.563   1.886
22834W        W86602  22.711  29.996   0.244
22835W        W86603  21.226   0.788  14.829
22836W        W86604  23.549  13.685   2.371
22837W        W86605  28.663  14.717  13.943
22838W        W86606  39.461  25.099   0.255
22839W        W86607  11.731  21.673   4.221
22840W        W86608  38.876  41.026   3.257
22841W        W86609  19.652  35.440   0.743
22842W        W86610  17.677   1.435  13.422
22843W        W86611   3.928  33.979  11.980
22844W        W86612  44.785  10.146   4.199
22845W        W86613  15.747  13.228   0.468
22846W        W86614   0.403  16.135  10.516
22847W        W86615  19.740  37.498   4.716
22848W        W86616  10.735  11.783   4.249
22849W        W86617  42.482  26.566  12.068
22850W        W86618   9.321  21.229  12.445
22851W        W86619  18.597  24.172  14.440
22852W        W86620  11.152  44.005   4.652
22853W        W86621   3.889  39.424   0.940
22854W        W86622  18.665   0.743   2.696
22855W        W86623   4.384   3.788  12.348
22856W        W86624  19.699   8.390  14.285
22857W        W86625  43.378  17.793  13.899
22858W        W86626  38.383  27.595   1.268
22859W        W86627  27.626  40.028   2.758
22860W        W86628  37.552  28.510   2.352
22861W        W86629  23.134  38.864  13.909
22862W        W86630  17.284  25.681  11.935
22863W        W86631  38.991   8.780  11.872
22864W        W86632  42.960  42.463  13.910
22865W        W86633  37.876  32.926  12.035
22866W        W86634  40.902  41.951  14.021
22867W        W86635  16.623  17.789  11.969
22868W        W86636   8.683  24.536   1.819
22869W        W86637   2.293  21.100  14.295
22870W        W86638  39.533   6.755  12.051
22871W        W86639  34.084  30.653   2.666
22872W        W86640  41.851   7.680   4.807
22873W        W86641  39.328  38.896  12.849
22874W        W86642  44.339  33.129  13.439
22875W        W86643  33.610  40.524   3.324
22876W        W86644  24.103  37.906   1.355
22877W        W86645  30.103  18.065  12.578
22878W        W86646   8.385  14.625   1.319
22879W        W86647  29.558   3.277  13.994
22880W        W86648  40.047  28.004   2.807
22881W        W86649  25.660  36.554  12.080
22882W        W86650  30.919  10.378   1.362
22883W        W86651  20.266  42.888  10.037
22884W        W86652  34.502  23.553   0.328
22885W        W86653   4.707  38.005  13.978
22886W        W86654  42.009  44.317   3.233
22887W        W86655  38.385   8.752  13.918
22888W        W86656  20.194   1.759   3.780
22889W        W86657  11.786  36.090  12.938
22890W        W86658  41.022   8.267  14.349
22891W        W86659   9.340  39.058  10.105
22892W        W86660  28.510  19.151   3.294
22893W        W86661  11.288  15.728  12.901
22894W        W86662  18.248   4.242   2.737
22895W        W86663  23.056   5.262   2.357
22896W        W86664  31.153   9.196  13.370
22897W        W86665  29.024  37.040  13.395
22898W        W86666  13.839  33.943  12.378
22899W        W86667  41.948  24.101  10.906
22900W        W86668  29.559  11.782  10.553
22901W        W86669  27.011  23.217   3.377
22902W        W86670   9.342  37.049  12.956
22903W        W86671  20.544  43.450   1.898
22904W        W86672  32.542  17.178  14.005
22905W        W86673  43.806   1.243   3.227
22906W        W86674   8.736  20.194  13.459
22907W        W86675  12.824  26.526   1.860
22908W        W86676  37.083   6.205   4.654
22909W        W86677   9.781  19.646  11.101
22910W        W86678  42.889   6.917   4.691
22911W        W86679   2.821  17.644  14.024
22912W        W86680  23.523   5.819  12.032
22913W        W86681   2.246   9.301  14.799
22914W        W86682  23.220  27.457   3.711
22915W        W86683  43.447  38.343   3.696
22916W        W86684  44.323  35.412  13.426
22917W        W86685  37.026  42.830   1.904
22918W        W86686  25.176   5.268   2.743
22919W        W86687  23.587  14.313  14.999
22920W        W86688  26.498  22.033   3.631
22921W        W86689  27.490  36.360  10.411
22922W        W86690  27.955  27.630  10.626
22923W        W86691  21.019  34.464   4.319
22924W        W86692  17.739  44.833   2.790
22925W        W86693  23.512   0.810   1.287
22926W        W86694  14.758   5.215   0.906
22927W        W86695   4.713  42.463   4.597
22928W        W86696  25.694  41.856   3.150
22929W        W86697  33.906  33.098   1.365
22930W        W86698  32.055  16.623   1.398
22931W        W86699  33.513   2.461   1.825
22932W        W86700  32.622  16.204   4.312
22933W        W86701   9.374  31.501  11.386
22934W        W86702  17.760  20.653   0.438
22935W        W86703  34.918  13.181  14.368
22936W        W86704  13.250  31.430   0.379
22937W        W86705  34.865  19.104   3.764
22938W        W86706   9.858   1.796  13.329
22939W        W86707  20.035   6.252   0.847
22940W        W86708  24.666  11.671  13.385
22941W        W86709  28.545  41.864   1.792
22942W        W86710  36.377  10.817  13.865
22943W        W86711  29.564  43.968   4.195
22944W        W86712  22.128  44.826   4.291
22945W        W86713  32.041  14.162  11.053
22946W        W86714  31.068   5.209   2.372
22947W        W86715  42.875  30.653   3.289
22948W        W86716  21.216  29.961  11.402
22949W        W86717  28.092  26.951  13.319
22950W        W86718  18.743  32.396  14.922
22951W        W86719  43.919  19.612   4.122
22952W        W86720   6.330   1.921   4.761
22953W        W86721   2.278  39.859   1.820
22954W        W86722  20.555   3.352   2.822
22955W        W86723  41.467  17.798   4.656
22956W        W86724  36.044  25.705   2.776
22957W        W86725   4.862  31.618  14.340
22958W        W86726   3.385  15.188  10.985
22959W        W86727  15.296  14.294  14.982
22960W        W86728   9.344  40.371  14.824
22961W        W86729  22.653  35.945  10.502
22962W        W86730  40.475  27.023  13.489
22963W        W86731  18.140   2.737   4.668
22964W        W86732  18.589  20.210   3.789
22965W        W86733   9.346  25.515  12.019
22966W        W86734  23.520  43.838  14.849
22967W        W86735  30.916   1.887  14.361
22968W        W86736  10.254   6.318   1.448
22969W        W86737  27.944  10.176  10.488
22970W        W86738   1.840  37.446   5.103
22971W        W86739  38.469  31.918  12.885
22972W        W86740   8.747   9.761   4.670
22973W        W86741  20.039   8.736  12.900
22974W        W86742  36.517   8.214   3.799
22975W        W86743  18.097  30.459  13.977
22976W        W86744  39.503  18.579  10.436
22977W        W86745  34.966  34.870   4.147
22978W        W86746  10.139  38.918  13.514
22979W        W86747  11.292  42.465  12.070
22980W        W86748  14.779  38.398  14.349
22981W        W86749   7.227  27.618  14.816
22982W        W86750  44.406   2.295   2.835
22983W        W86751  18.157  20.252  13.369
22984W        W86752  16.165  15.751   3.650
22985W        W86753  26.542  38.951   4.712
22986W        W86754  35.999  44.783  13.903
22987W        W86755  14.110  25.483  12.870
22988W        W86756  16.613  18.747   0.760
22989W        W86757  14.263   1.840   2.373
22990W        W86758   6.855   0.324   0.470
22991W        W86759  17.698  34.108   0.443
22992W        W86760  11.802  19.145  13.793
22993W        W86761  32.422  20.182  10.947
22994W        W86762   5.271  30.971  13.420
22995W        W86763  15.618   4.311  13.020
22996W        W86764  10.836  20.145  10.528
22997W        W86765   3.342  10.699   2.182
22998W        W86766   4.267   1.821   0.278
22999W        W86767  37.974  37.392   2.229
23000W        W86768  34.092  38.865  13.955
23001W        W86769  35.495  12.212   0.440
23002W        W86770  36.384   8.837   4.316
23003W        W86771   1.311  38.827   2.373
23004W        W86772  32.566  41.981  10.555
23005W        W86773  43.907  44.335  12.544
23006W        W86774  21.247  34.607  14.479
23007W        W86775   8.320  10.711   2.301
23008W        W86776  24.027  29.955   1.386
23009W        W86777  40.909   6.707   0.846
23010W        W86778  36.944  12.706   4.230
23011W        W86779  36.846   4.767   1.401
23012W        W86780  43.373  29.131   3.636
23013W        W86781   8.198  23.732  14.362
23014W        W86782  35.491  33.019  12.049
23015W        W86783  16.679   6.271   3.866
23016W        W86784  25.963  43.855   3.797
23017W        W86785  17.152  14.147   1.253
23018W        W86786   2.322  35.431  12.564
23019W        W86787  28.180  20.073  11.443
23020W        W86788  10.780  13.346  12.055
23021W        W86789  33.106   7.349  13.844
23022W        W86790  19.197  37.893  11.470
23023W        W86791  34.988  34.989   0.411
23024W        W86792   4.868  32.568  12.083
23025W        W86793  40.030   7.179  12.972
23026W        W86794  11.243   8.159   3.188
23027W        W86795  34.112  21.515   3.746
23028W        W86796  30.472   7.210   4.349
23029W        W86797  13.304  25.670   1.745
23030W        W86798  25.708   4.823   2.783
23031W        W86799  28.168  32.008   3.738
23032W        W86800  29.041  13.843   3.704
23033W        W86801  32.998   7.723   3.163
23034W        W86802   9.353  23.166   2.791
23035W        W86803  35.527  17.201  12.417
23036W        W86804   1.334  44.831   0.885
23037W        W86805  29.436  42.958  10.465
23038W        W86806  18.222   5.436  12.566
23039W        W86807   4.382  22.209  13.446
23040W        W86808  14.805  17.066   5.703
23041W        W86809  41.808  41.450   2.294
23042W        W86810  31.028  38.380   2.335
23043W        W86811   2.884  35.514   1.931
23044W        W86812  27.066  27.475   1.394
23045W        W86813  37.417  34.916   3.299
23046W        W86814   4.405  37.068  13.930
23047W        W86815   2.296   9.241  12.555
23048W        W86816  37.858  26.132  13.491
23049W        W86817  44.863  39.814  13.011
23050W        W86818  36.585  16.234   3.299
23051W        W86819  12.360  42.911   4.254
23052W        W86820   4.242  32.402  13.545
23053W        W86821  14.711  34.106  12.340
23054W        W86822  30.427  43.901  12.842
23055W        W86823   1.433  31.597   3.206
23056W        W86824  40.538  36.592  12.392
23057W        W86825  26.487   5.263   1.825
23058W        W86826  31.543   1.950  13.447
23059W        W86827   1.796  39.453   3.242
23060W        W86828  44.478  27.137   4.773
23061W        W86829  32.077   7.847  12.980
23062W        W86830  16.799   9.780   4.635
23063W        W86831  35.976  31.515   3.861
23064W        W86832   0.913  12.318   1.254
23065W        W86833  26.113  13.260   3.779
23066W        W86834  22.538  18.296  14.968
23067W        W86835  37.558  17.630   3.816
23068W        W86836   6.313  25.597   1.751
23069W        W86837  16.580   2.905  14.283
23070W        W86838  18.672   9.355   3.177
23071W        W86839  12.751   4.793   2.212
23072W        W86840   7.838  22.680   4.700
23073W        W86841  23.114  42.373   1.442
23074W        W86842  15.123  35.411   3.213
23075W        W86843  32.619  14.300   4.343
23076W        W86844  34.476  37.980   4.339
23077W        W86845   4.340   6.375  10.542
23078W        W86846   3.216  12.820  14.767
23079W        W86847  12.630  32.574  12.081
23080W        W86848   6.711  17.089  14.980
23081W        W86849  42.958  21.238   2.318
23082W        W86850  18.605   1.872  14.498
23083W        W86851  23.006  29.173  12.913
23084W        W86852   5.903  39.064  14.296
23085W        W86853  35.079  34.436   9.942
23086W        W86854   8.235   6.801   4.282
23087W        W86855  10.697  23.540   4.190
23088W        W86856  29.939  27.009   4.632
23089W        W86857   1.336  38.077   4.243
23090W        W86858  36.402   0.428  13.002
23091W        W86859  18.758  18.054   5.300
23092W        W86860  18.547  18.591   1.371
23093W        W86861  29.543  40.451   2.262
23094W        W86862  13.798   1.781  12.450
23095W        W86863   9.346   3.949   4.175
23096W        W86864  29.437   3.806  12.445
23097W        W86865  15.244  30.437   0.810
23098W        W86866  15.684  15.304   5.280
23099W        W86867  24.513  30.436  13.404
23100W        W86868   6.763  13.233   1.286
23101W        W86869  21.245   8.391  12.528
23102W        W86870  27.195   1.815   1.918
23103W        W86871   9.884  37.087   4.697
23104W        W86872  39.002  43.996   1.219
23105W        W86873   2.882   7.199  10.612
23106W        W86874  10.348  22.095  14.801
23107W        W86875  18.664  33.461  10.968
23108W        W86876  34.486  36.403   0.367
23109W        W86877  40.367  22.118  14.373
23110W        W86878  21.153  42.931   2.895
23111W        W86879  30.465  25.090   4.771
23112W        W86880  27.053   6.237   1.228
23113W        W86881  12.322  17.662  14.414
23114W        W86882  41.496  42.525   0.426
23115W        W86883  41.350  35.409  10.600
23116W        W86884   1.818  41.926  10.532
23117W        W86885  10.823  25.987  13.855
23118W        W86886  16.692   5.913  11.566
23119W        W86887  36.918  29.486   0.314
23120W        W86888  42.952   0.378  10.626
23121W        W86889  38.984  35.439   2.741
23122W        W86890  24.211  32.971  13.938
23123W        W86891  23.543  23.730  10.454
23124W        W86892  10.785  35.373  14.804
23125W        W86893  11.338  28.651   0.455
23126W        W86894  40.931  44.330  13.026
23127W        W86895  31.489  15.752  13.049
23128W        W86896  17.630  41.916   2.695
23129W        W86897  40.051  36.061  10.619
23130W        W86898  10.778  15.793   1.825
23131W        W86899  36.915  38.360   0.312
23132W        W86900   0.408   6.715  14.483
23133W        W86901  40.459  39.834   2.197
23134W        W86902  12.787  25.709   0.950
23135W        W86903  39.954  34.573  12.964
23136W        W86904  24.713   6.232   1.807
23137W        W86905  42.962  33.428  13.345
23138W        W86906  21.691  20.077  14.901
23139W        W86907  44.915   0.883   3.149
23140W        W86908  18.555  40.469  12.854
23141W        W86909   4.834  38.486  13.021
23142W        W86910  26.033  44.322   4.825
23143W        W86911   5.252  36.355   2.708
23144W        W86912  23.200  14.789  14.783
23145W        W86913  11.685  16.261   1.383
23146W        W86914   2.368   4.410   1.846
23147W        W86915   1.392  21.648   1.790
23148W        W86916  16.674  24.061   3.761
23149W        W86917  42.922  12.256   0.424
23150W        W86918  31.463  14.661  10.032
23151W        W86919  26.465   4.729   0.778
23152W        W86920  33.003  40.968  12.901
23153W        W86921  44.462   1.795  13.882
23154W        W86922   4.714  33.047  14.345
23155W        W86923   6.779  44.830  11.556
23156W        W86924  29.973  25.703  11.964
23157W        W86925   6.780  25.642   3.349
23158W        W86926  19.104  31.609   4.708
23159W        W86927   6.847   8.279   4.151
23160W        W86928  14.317  23.136  14.918
23161W        W86929   7.283  11.257   0.763
23162W        W86930   5.908  44.319  10.587
23163W        W86931  11.858  24.616   3.198
23164W        W86932  27.598   9.168  11.415
23165W        W86933  18.710  25.624   4.695
23166W        W86934   7.832  33.407   1.260
23167W        W86935  17.664  29.026   2.350
23168W        W86936   5.786  10.321   1.445
23169W        W86937  14.285   3.267   3.660
23170W        W86938   2.789  37.919   4.313
23171W        W86939  23.058  22.551   2.378
23172W        W86940  29.543  14.798  13.936
23173W        W86941   7.330  42.345   3.771
23174W        W86942  12.117   2.314  14.284
23175W        W86943  18.220  19.097  13.325
23176W        W86944  31.535  36.423  11.024
23177W        W86945  41.331  29.047  10.564
23178W        W86946  15.273  18.058   4.243
23179W        W86947   6.737   6.235   0.944
23180W        W86948   6.702   4.229   2.190
23181W        W86949  15.685  20.035   2.315
23182W        W86950  18.743  29.974  11.042
23183W        W86951  35.926  17.143  10.903
23184W        W86952  27.941   0.342  13.542
23185W        W86953   7.194   5.745   4.267
23186W        W86954  13.265  15.091   4.190
23187W        W86955  43.018   3.363   2.698
23188W        W86956  11.792  16.164   4.283
23189W        W86957  22.093  23.106   2.748
23190W        W86958  28.049  26.062  11.414
23191W        W86959  28.629  29.015  14.976
23192W        W86960  37.410  10.242   1.261
23193W        W86961   5.874  14.290   2.376
23194W        W86962  23.228  18.191   3.668
23195W        W86963   9.248  26.052   0.809
23196W        W86964  31.425  24.198  10.936
23197W        W86965  42.786  22.103  11.110
23198W        W86966  38.970   4.731   3.838
23199W        W86967  19.173  18.208  14.444
23200W        W86968  43.491  12.730   3.205
23201W        W86969  41.857  36.066   4.636
23202W        W86970  39.456   8.240   0.426
23203W        W86971  42.996  34.084   3.815
23204W        W86972  29.140  38.395   2.221
23205W        W86973   1.935   9.866   4.608
23206W        W86974  23.617   3.353  11.081
23207W        W86975  14.733  16.680  10.118
23208W        W86976  20.540  11.259  12.001
23209W        W86977   6.861   2.459   1.855
23210W        W86978  36.421  18.293   1.331
23211W        W86979  38.942  44.868   3.630
23212W        W86980  40.536  40.999   4.308
23213W        W86981   0.318  35.568   3.156
23214W        W86982  36.973  44.777  13.470
23215W        W86983  30.014  18.221   0.286
23216W        W86984  25.159  20.247   3.738
23217W        W86985  31.616  38.956  10.517
23218W        W86986  36.465  10.380   2.852
23219W        W86987  20.236  26.566  11.882
23220W        W86988  31.902  10.754   0.929
23221W        W86989  43.372   3.381   0.794
23222W        W86990  41.333   7.705  12.057
23223W        W86991  23.054  20.761  11.437
23224W        W86992  24.688   5.920   1.851
23225W        W86993   5.750   6.250  11.086
23226W        W86994  15.708  16.096  11.087
23227W        W86995  27.665  43.347   3.700
23228W        W86996   7.679  21.692  12.877
23229W        W86997   6.254  30.046  12.519
23230W        W86998   6.371  29.126   3.158
23231W        W86999  14.657   3.744  11.492
23232W        W87000  14.661   1.851   2.374
23233W        W87001  26.121  30.914   3.730
23234W        W87002  29.540  30.934   4.691
23235W        W87003  22.576   4.767  10.888
23236W        W87004  41.009  38.860   3.199
23237W        W87005  31.917  41.385  14.455
23238W        W87006   7.676  16.269   4.636
23239W        W87007   1.441  10.724  12.020
23240W        W87008  39.381   9.230   4.645
23241W        W87009   1.305  43.374   2.359
23242W        W87010   0.259   6.386   2.202
23243W        W87011  37.896  31.439   3.652
23244W        W87012  34.072  17.172   4.344
23245W        W87013  30.612  43.278   0.364
23246W        W87014  28.094  30.641  13.322
23247W        W87015  41.536  23.609  10.621
23248W        W87016   4.286   7.262  13.436
23249W        W87017   3.328   4.277  12.973
23250W        W87018   7.821  23.024  13.985
23251W        W87019  32.490  30.646  11.046
23252W        W87020   0.476  34.958   2.406
23253W        W87021  10.171  33.992   4.318
23254W        W87022  41.421   3.721  12.985
23255W        W87023  10.349  19.641  12.005
23256W        W87024  36.593   7.803  12.882
23257W        W87025  17.708  30.578  14.867
23258W        W87026  30.001  43.466  10.410
23259W        W87027  21.585  20.154  13.515
23260W        W87028  33.049  44.383  14.772
23261W        W87029  16.649  29.961  11.494
23262W        W87030  33.448  24.181   0.872
23263W        W87031  38.365  32.447   4.340
23264W        W87032  21.616   6.677  12.459
23265W        W87033   0.302  30.620   5.203
23266W        W87034  28.980  17.567   1.828
23267W        W87035   8.294  10.375  13.802
23268W        W87036  43.834  39.555  14.454
23269W        W87037  23.493  44.852   0.427
23270W        W87038  14.803  11.774   0.906
23271W        W87039  28.173  10.274   0.315
23272W        W87040  38.525  13.757   4.334
23273W        W87041  17.561   7.195  14.404
23274W        W87042  10.866  32.137  13.383
23275W        W87043  25.627  32.016  14.020
23276W        W87044  13.163  34.444   3.635
23277W        W87045  44.292  19.124  12.531
23278W        W87046  38.933   9.159  13.349
23279W        W87047   6.696  15.631   2.881
23280W        W87048  12.347   2.291   3.808
23281W        W87049  20.600  22.228   4.352
23282W        W87050  25.538  26.100   0.739
23283W        W87051  36.436   5.916  10.405
23284W        W87052   0.792  34.555  12.517
23285W        W87053  22.714  35.969  11.016
23286W        W87054  16.200   7.683   1.796
23287W        W87055  18.639  42.328   1.239
23288W        W87056  21.071  33.565   5.314
23289W        W87057   5.295   7.281  14.850
23290W        W87058   1.454   2.310  14.788
23291W        W87059   5.706   6.747   4.654
23292W        W87060  26.017  25.971   0.462
23293W        W87061  10.290  25.689   3.684
23294W        W87062   5.719   0.445   0.826
23295W        W87063  40.982  35.441   4.244
23296W        W87064  42.395  19.131  13.357
23297W        W87065  23.047  12.225  14.894
23298W        W87066  21.253  12.308   0.895
23299W        W87067  22.198   6.336   4.773
23300W        W87068   8.219  43.779   4.817
23301W        W87069  25.118   1.830   3.690
23302W        W87070  27.571   4.761   4.668
23303W        W87071  42.371  10.359  13.450
23304W        W87072   0.747  36.569  14.961
23305W        W87073   6.410  37.374   5.306
23306W        W87074  14.662  21.563  14.438
23307W        W87075  18.084  28.178  11.089
23308W        W87076  10.726  35.092  12.900
23309W        W87077  42.936  35.069   2.362
23310W        W87078  23.574  37.423   1.381
23311W        W87079  34.525  11.326   1.309
23312W        W87080  29.471   2.281   5.303
23313W        W87081   7.241  33.565   2.723
23314W        W87082  32.518   5.329   0.349
23315W        W87083   1.354  44.938   1.269
23316W        W87084  36.425  39.323  10.963
23317W        W87085  14.627   9.824  13.804
23318W        W87086  32.905  19.204   5.643
23319W        W87087  18.734   3.779   0.296
23320W        W87088  14.695  36.930   1.788
23321W        W87089   1.278  21.527   3.360
23322W        W87090  21.649  18.263   0.407
23323W        W87091  17.117  32.137   4.246
23324W        W87092  39.904  14.801   1.894
23325W        W87093   7.811   6.211  13.031
23326W        W87094  36.087  39.530  11.529
23327W        W87095   8.383  12.261   4.301
23328W        W87096   7.741   9.245   3.640
23329W        W87097  40.053  19.129   1.300
23330W        W87098  14.284  13.153  13.038
23331W        W87099  23.659  32.999   4.295
23332W        W87100  34.096  34.910   2.307
23333W        W87101  26.510  19.274   3.288
23334W        W87102  42.983  19.093   1.319
23335W        W87103  14.686   0.284   1.901
23336W        W87104  41.027  15.230  11.963
23337W        W87105   5.791  12.306   3.761
23338W        W87106  13.656  40.894  12.519
23339W        W87107  23.069   3.289   0.875
23340W        W87108  25.208  15.751   2.776
23341W        W87109  32.408  28.033  10.032
23342W        W87110   2.846  14.687  12.562
23343W        W87111   8.767   0.302   1.768
23344W        W87112  36.491  38.051  11.102
23345W        W87113  39.424  41.306   1.882
23346W        W87114  21.071  20.274  10.542
23347W        W87115   5.923  16.238   2.319
23348W        W87116   0.486   4.388  14.808
23349W        W87117  38.556   0.356  13.444
23350W        W87118  15.786  22.118   2.399
23351W        W87119  17.754  36.361   0.911
23352W        W87120  38.350   1.876   3.794
23353W        W87121  28.009  40.515  12.500
23354W        W87122  35.483   2.351   3.756
23355W        W87123  16.618  28.515  11.595
23356W        W87124   2.228  11.834  14.984
23357W        W87125  19.702  21.217  12.909
23358W        W87126   7.719  18.602   2.302
23359W        W87127  10.147  26.557  11.022
23360W        W87128   6.268  42.349   3.186
23361W        W87129  15.582  13.814   1.705
23362W        W87130  17.081  10.878   3.739
23363W        W87131  20.181  17.149   3.738
23364W        W87132  16.620   9.229   0.478
23365W        W87133   8.391  43.372  12.500
23366W        W87134   6.923  19.613   4.154
23367W        W87135  40.412  43.914   1.264
23368W        W87136  42.865  43.498   1.343
23369W        W87137   6.188  14.245  12.456
23370W        W87138  19.149  43.397  10.542
23371W        W87139  33.076  41.820  12.900
23372W        W87140  20.106  11.212  10.983
23373W        W87141   6.245  32.623  10.057
23374W        W87142  21.211  22.517   4.332
23375W        W87143   2.455  11.701  11.460
23376W        W87144  34.441  40.369  12.354
23377W        W87145  36.905  41.817   1.316
23378W        W87146  28.051   3.843   3.303
23379W        W87147  11.822  38.354   3.816
23380W        W87148  36.008   2.941  14.023
23381W        W87149  18.153  35.543   1.830
23382W        W87150   8.275  18.782   3.306
23383W        W87151  32.414  37.848   2.362
23384W        W87152  42.481  25.668  13.047
23385W        W87153  33.035  32.089  13.811
23386W        W87154  41.382  13.840   0.760
23387W        W87155  38.895  14.176  13.509
23388W        W87156   7.835  25.975   4.197
23389W        W87157  26.194  29.507   2.710
23390W        W87158   4.351   7.705  11.482
23391W        W87159   4.300  17.694   3.193
23392W        W87160  12.200   0.914  14.861
23393W        W87161  20.144  36.912   0.284
23394W        W87162   6.844  15.804  13.525
23395W        W87163  16.686  25.219  14.793
23396W        W87164  23.210  17.633  14.911
23397W        W87165  38.055  29.000   2.361
23398W        W87166  43.435  21.121   1.231
23399W        W87167  17.579   0.455   4.144
23400W        W87168  12.236  33.415   3.315
23401W        W87169  27.600  38.363  14.463
23402W        W87170  22.616   0.472   3.309
23403W        W87171   6.302  14.276  10.512
23404W        W87172  24.076  35.602   0.378
23405W        W87173   0.410  16.096   1.216
23406W        W87174   2.858  38.441   9.598
23407W        W87175  36.985   1.399  11.976
23408W        W87176  44.298   0.491   4.177
23409W        W87177   8.822  34.597  11.592
23410W        W87178  20.550  18.204   3.195
23411W        W87179  29.447   0.264   3.858
23412W        W87180  37.560  43.812   1.365
23413W        W87181  35.870  35.496  14.009
23414W        W87182  16.290  40.343  11.409
23415W        W87183  29.660   2.744   3.327
23416W        W87184  28.660  40.905  11.007
23417W        W87185  27.190  26.098  12.490
23418W        W87186  11.779  10.377   0.342
23419W        W87187  36.382  43.401   3.243
23420W        W87188  18.228  44.323   3.630
23421W        W87189  33.561   2.228  10.907
23422W        W87190  19.170  16.604   2.797
23423W        W87191   6.387  25.580  13.923
23424W        W87192  11.718  22.238   4.636
23425W        W87193   1.787  25.089   1.320
23426W        W87194   0.824   0.434   2.399
23427W        W87195  32.009  40.019  12.021
23428W        W87196  37.364   5.303  11.576
23429W        W87197  21.061   3.363  14.028
23430W        W87198  42.979   1.962  12.495
23431W        W87199  27.511  11.367   2.380
23432W        W87200  42.912  33.918  14.792
23433W        W87201  39.867  21.115   3.379
23434W        W87202   6.215  19.541   1.268
23435W        W87203  44.345  18.176  13.064
23436W        W87204  37.031  17.769  12.399
23437W        W87205  13.153  11.204  13.415
23438W        W87206  11.168  13.643   2.368
23439W        W87207  30.541  14.177   3.736
23440W        W87208  16.694  43.958   4.159
23441W        W87209  37.832  29.617   3.163
23442W        W87210  37.957  18.584   4.134
23443W        W87211  37.085  22.183  12.512
23444W        W87212   7.818   0.877   0.459
23445W        W87213  28.622  38.460   4.710
23446W        W87214   7.311   4.419  13.828
23447W        W87215  16.631   4.382  14.795
23448W        W87216  24.099  28.520  12.530
23449W        W87217  19.162  12.277  12.076
23450W        W87218  20.598  32.515  11.558
23451W        W87219  20.087  20.650   2.743
23452W        W87220  24.525  36.050   0.414
23453W        W87221  43.509   9.231  12.391
23454W        W87222  41.412  41.335  12.957
23455W        W87223  20.126   9.744   2.411
23456W        W87224  40.864  39.379   2.838
23457W        W87225   9.317  25.689  11.566
23458W        W87226  15.769  16.742   2.355
23459W        W87227  19.166   1.352  11.930
23460W        W87228  29.108  23.087   3.825
23461W        W87229  34.090  17.766   2.755
23462W        W87230   0.763   5.262   2.328
23463W        W87231  28.167   0.972   1.228
23464W        W87232  12.643  15.692   0.426
23465W        W87233  27.662  31.491  13.887
23466W        W87234   3.458  12.619  12.841
23467W        W87235  26.471  42.495   4.777
23468W        W87236  43.347   5.832   3.228
23469W        W87237  26.144   7.721  12.379
23470W        W87238   8.404  44.445  11.485
23471W        W87239  43.828  33.962   2.249
23472W        W87240  12.675  23.667   0.380
23473W        W87241  40.798  38.958   1.813
23474W        W87242  21.092  19.767  14.836
23475W        W87243  17.185   2.440   0.844
23476W        W87244   4.748  16.676   0.824
23477W        W87245  16.581   8.327  12.866
23478W        W87246   7.719  30.937   2.838
23479W        W87247  23.242  43.921   3.328
23480W        W87248   8.739  21.599  11.931
23481W        W87249  12.816  10.724   0.365
23482W        W87250  29.127  18.558  14.498
23483W        W87251  15.292  44.394  13.471
23484W        W87252  13.710  41.459   4.644
23485W        W87253   0.903  36.462   2.266
23486W        W87254  10.803   1.439   4.620
23487W        W87255  35.392  29.473   3.763
23488W        W87256  13.144  22.699  13.441
23489W        W87257   7.747  22.215  12.513
23490W        W87258   6.686  16.128  14.779
23491W        W87259  14.667  25.993   9.970
23492W        W87260  13.203  38.881   0.267
23493W        W87261  28.937  12.337  11.065
23494W        W87262  11.290   9.209  12.051
23495W        W87263  30.066  19.551  14.973
23496W        W87264  19.759  16.293   4.337
23497W        W87265  14.299  34.614   3.310
23498W        W87266  24.711  25.091   0.744
23499W        W87267  19.656  42.291  10.593
23500W        W87268   7.271  41.521  14.020
23501W        W87269  33.576  31.911  12.350
23502W        W87270  37.414  21.211  12.453
23503W        W87271   8.809   8.839  11.539
23504W        W87272  32.510  28.577  14.348
23505W        W87273   5.254  30.051   1.838
23506W        W87274   6.794  43.417   3.358
23507W        W87275   8.687  28.146  11.609
23508W        W87276  25.160   6.730   3.175
23509W        W87277   9.737  40.349   1.332
23510W        W87278  42.015   7.799   4.153
23511W        W87279  41.446  11.767  13.495
23512W        W87280  33.075   5.696  13.432
23513W        W87281  28.990   3.222   2.662
23514W        W87282  31.426  39.867   2.329
23515W        W87283   5.395  34.460   1.701
23516W        W87284  38.344   1.393  11.952
23517W        W87285  28.547   7.732   4.177
23518W        W87286  28.152  18.081   0.470
23519W        W87287  35.080  42.937   5.217
23520W        W87288   7.878   1.421   2.814
23521W        W87289  26.537  23.587   0.943
23522W        W87290  32.912  16.190  13.386
23523W        W87291   5.922  18.755  14.432
23524W        W87292  10.669  20.229  12.523
23525W        W87293  11.743   6.270  11.604
23526W        W87294   0.826  42.483   2.237
23527W        W87295  12.255  36.077  12.854
23528W        W87296  10.685  28.968   1.268
23529W        W87297  23.120  18.672  13.455
23530W        W87298  20.761  27.957   4.681
23531W        W87299  27.140  31.960  14.343
23532W        W87300   7.350  39.444  13.935
23533W        W87301  35.506  43.467  12.437
23534W        W87302  27.633   5.889   0.907
23535W        W87303   5.315  35.859  13.006
23536W        W87304  18.730  24.178   2.852
23537W        W87305   6.811  18.095  13.495
23538W        W87306  19.605  27.940   3.163
23539W        W87307  19.767  22.629   0.264
23540W        W87308  18.217  28.576  14.373
23541W        W87309  11.648  36.096  13.413
23542W        W87310  39.956   9.181  11.407
23543W        W87311  17.649  12.265   4.319
23544W        W87312  39.432  12.236   4.243
23545W        W87313  17.243  36.842  12.863
23546W        W87314  17.091  36.898   0.360
23547W        W87315  36.364  13.185   4.709
23548W        W87316  21.627  30.604  11.466
23549W        W87317  43.992   6.797   0.480
23550W        W87318  31.469  43.904   3.675
23551W        W87319  41.518  36.538   1.408
23552W        W87320  39.849  14.801   4.790
23553W        W87321   8.862  21.737  13.418
23554W        W87322   2.457  21.240   1.742
23555W        W87323  10.208   4.273   2.667
23556W        W87324  22.677  42.935  12.906
23557W        W87325  25.994  13.158   2.314
23558W        W87326  12.807  12.795  13.954
23559W        W87327  12.272  40.998   1.224
23560W        W87328  27.642  32.467  11.956
23561W        W87329  44.444  20.661   2.868
23562W        W87330  28.181  37.047   4.170
23563W        W87331  41.996  16.604  11.946
23564W        W87332   4.233   1.320  13.441
23565W        W87333  30.112  12.252  12.345
23566W        W87334   4.410  40.947  11.889
23567W        W87335   3.822   0.412  14.407
23568W        W87336  14.673   4.718   3.364
23569W        W87337   4.438  25.032  11.483
23570W        W87338  34.865  40.462   5.249
23571W        W87339  14.282   3.429   3.254
23572W        W87340  42.812  42.855   1.270
23573W        W87341   6.885   0.942   0.340
23574W        W87342  22.510  26.954   0.288
23575W        W87343  37.041  35.898   0.733
23576W        W87344  29.016  44.992  13.053
23577W        W87345   1.921  39.058   3.674
23578W        W87346  37.343  11.316  10.519
23579W        W87347  16.302  37.975   3.186
23580W        W87348   0.321  37.449  13.443
23581W        W87349   3.798  14.685   2.382
23582W        W87350  27.547  26.501   2.326
23583W        W87351  21.131  34.388  13.386
23584W        W87352  32.065   1.275   2.333
23585W        W87353  38.352  42.015   0.781
23586W        W87354  41.880  27.087   3.218
23587W        W87355   9.186  42.900   2.228
23588W        W87356  41.399  44.929   1.870
23589W        W87357   7.901   0.966  12.545
23590W        W87358   4.913  38.330   4.278
23591W        W87359  26.619  43.275  11.489
23592W        W87360   3.252  44.321   0.832
23593W        W87361  33.072   5.438   3.367
23594W        W87362  38.550  12.184   3.781
23595W        W87363  28.125  20.631   4.678
23596W        W87364  42.390   6.205   3.185
23597W        W87365   3.231  37.540   4.768
23598W        W87366  32.091   6.847  11.539
23599W        W87367  17.293  34.019   2.260
23600W        W87368  13.761  31.420   3.793
23601W        W87369  19.630  25.710  12.007
23602W        W87370   7.738  26.110   4.797
23603W        W87371  29.428  37.353   4.742
23604W        W87372  16.805  17.091  11.584
23605W        W87373  26.007  43.978  12.060
23606W        W87374   5.840  22.218  13.455
23607W        W87375  24.081  20.223   2.297
23608W        W87376  21.679  36.992   3.286
23609W        W87377  43.483  34.964   4.167
23610W        W87378  43.946  30.917   3.308
23611W        W87379  30.557  37.434  11.511
23612W        W87380  20.589  44.272  14.408
23613W        W87381  23.139  14.723   3.789
23614W        W87382  23.189  34.407  14.953
23615W        W87383  38.433  36.031  14.014
23616W        W87384   1.347  24.067  13.810
23617W        W87385  41.395   2.945   3.748
23618W        W87386  40.477  10.769  12.504
23619W        W87387  39.024  28.626   4.801
23620W        W87388  39.868  24.999   1.766
23621W        W87389  21.234  33.483   1.434
23622W        W87390  29.544   6.850   4.282
23623W        W87391  20.670  17.691   2.410
23624W        W87392  37.470  43.937  12.990
23625W        W87393   5.196   1.307   1.711
23626W        W87394   6.717  34.461   2.774
23627W        W87395  28.436   0.920   0.465
23628W        W87396  20.764  33.040   5.570
23629W        W87397  15.204  20.149  10.413
23630W        W87398  35.993  38.346  10.994
23631W        W87399  44.306  32.053   1.370
23632W        W87400  22.118  30.018  12.508
23633W        W87401  12.654  31.498   0.730
23634W        W87402  16.110  21.196  14.455
23635W        W87403  37.409  15.318  12.418
23636W        W87404   4.767  37.511   1.429
23637W        W87405  25.013  11.152   2.676
23638W        W87406  44.936  22.672  13.314
23639W        W87407   0.441  27.622   0.426
23640W        W87408  33.435  20.559   2.258
23641W        W87409   1.762  13.666  13.358
23642W        W87410  44.868  36.850  11.876
23643W        W87411  38.486  33.561  14.787
23644W        W87412   2.901  17.172   2.196
23645W        W87413  26.656   4.788   4.186
23646W        W87414  44.398  12.242  11.517
23647W        W87415   9.154   0.816  10.942
23648W        W87416  36.502  32.956   1.306
23649W        W87417  11.245  13.135  11.071
23650W        W87418  41.944  32.072  13.506
23651W        W87419  30.988  30.017  11.529
23652W        W87420   2.772  17.649  11.579
23653W        W87421  41.372  29.642   3.185
23654W        W87422  11.214   0.954  11.514
23655W        W87423  19.723   0.266  12.887
23656W        W87424  20.683  20.589  13.831
23657W        W87425  33.608  17.647   1.901
23658W        W87426   3.403  11.792   4.666
23659W        W87427  40.892   4.364  12.882
23660W        W87428  22.006   2.729   1.400
23661W        W87429  26.654  12.730  12.409
23662W        W87430  12.828   9.199  12.898
23663W        W87431   1.942  34.546   4.242
23664W        W87432  17.596  27.171   1.290
23665W        W87433  40.881  30.463   2.677
23666W        W87434  17.229  37.962  12.856
23667W        W87435  33.410   3.402   2.179
23668W        W87436  19.231  39.552   2.876
23669W        W87437  13.191  22.204  11.375
23670W        W87438  16.628  21.633  13.425
23671W        W87439  39.949   2.363  12.479
23672W        W87440  12.191  15.313  14.796
23673W        W87441  36.884  23.175  14.915
23674W        W87442  14.684   7.212   0.731
23675W        W87443  25.122  41.370   0.948
23676W        W87444   3.277   2.343   1.233
23677W        W87445  30.542  13.124   4.768
23678W        W87446   4.936  16.134   3.208
23679W        W87447  26.090  10.861  11.565
23680W        W87448  40.317  33.111  14.447
23681W        W87449  31.624  30.605  10.638
23682W        W87450   5.757  29.553   3.650
23683W        W87451  28.971  38.386   0.801
23684W        W87452  25.066   6.380   4.682
23685W        W87453  25.166  11.220   0.285
23686W        W87454  17.279  13.217  11.480
23687W        W87455  43.789  27.481   4.783
23688W        W87456  36.074  17.647   1.448
23689W        W87457  33.037   3.370  12.022
23690W        W87458  19.041  19.228   2.725
23691W        W87459  39.934  43.011  11.096
23692W        W87460  37.535  17.199   1.701
23693W        W87461  37.571  19.098   2.794
23694W        W87462  33.466  27.563  10.491
23695W        W87463   9.335  28.628  13.856
23696W        W87464   4.277  26.187  11.930
23697W        W87465  17.577  40.007   4.180
23698W        W87466  38.034  26.043   2.815
23699W        W87467  18.666  44.481  13.863
23700W        W87468  19.216  27.597  11.962
23701W        W87469   9.777  12.747   3.321
23702W        W87470   0.918   1.271   1.787
23703W        W87471  35.967  35.557  10.963
23704W        W87472  44.008  18.204  10.966
23705W        W87473   2.234   9.288  12.046
23706W        W87474   4.816  26.624  14.967
23707W        W87475  38.566  13.771  14.963
23708W        W87476  10.719   1.432  11.070
23709W        W87477  43.954   3.324   4.190
23710W        W87478  44.985  18.661  12.840
23711W        W87479  21.750   6.198   0.912
23712W        W87480   2.933  21.566  12.357
23713W        W87481  11.864   9.686  12.015
23714W        W87482  43.846  24.571   1.420
23715W        W87483   4.419  15.201  11.096
23716W        W87484  19.744  13.328  14.506
23717W        W87485   8.177  38.451   0.304
23718W        W87486  43.816  19.169   3.262
23719W        W87487  32.453   5.300   4.259
23720W        W87488   1.423  27.643   3.845
23721W        W87489   2.880  30.469  12.963
23722W        W87490   4.791   4.773  10.086
23723W        W87491  20.140  24.596  11.536
23724W        W87492  40.915  43.795   0.331
23725W        W87493  19.743  11.332   1.928
23726W        W87494   8.886  37.966   2.339
23727W        W87495  44.758  18.260   3.829
23728W        W87496  23.070  30.062   3.780
23729W        W87497  30.160  24.056   3.179
23730W        W87498   0.777  18.639  10.944
23731W        W87499   1.758  27.643  12.001
23732W        W87500   2.855  24.201  12.348
23733W        W87501  35.052   7.705   0.791
23734W        W87502  40.896   6.861  13.998
23735W        W87503   4.770  24.101  11.415
23736W        W87504   7.268  15.585   1.268
23737W        W87505  11.210  38.905  12.557
23738W        W87506  33.566  30.605  12.877
23739W        W87507  18.258   2.834  11.424
23740W        W87508  16.654  31.498  11.585
23741W        W87509  29.133  21.527  14.281
23742W        W87510  40.851  28.963  10.999
23743W        W87511  10.287  34.402  14.949
23744W        W87512   2.963  41.469   4.833
23745W        W87513   3.368  40.030   3.644
23746W        W87514  24.062  15.785  13.928
23747W        W87515  25.111  40.843   3.844
23748W        W87516   1.954   7.750  13.832
23749W        W87517   2.809  34.571   2.327
23750W        W87518  29.434  38.464  14.835
23751W        W87519  16.144  22.593   3.699
23752W        W87520  13.600  21.571  11.903
23753W        W87521   7.248  28.626  13.985
23754W        W87522  17.610  22.712   2.274
23755W        W87523  39.362  30.140   2.716
23756W        W87524  35.925  21.610  14.948
23757W        W87525  39.813  11.824  10.498
23758W        W87526  20.107   7.187  11.512
23759W        W87527  36.510  22.653  13.447
23760W        W87528  43.910  11.801  13.363
23761W        W87529  10.327  19.156   2.311
23762W        W87530  30.116   3.875  11.889
23763W        W87531  27.060  12.345   1.721
23764W        W87532   1.381  18.140  13.048
23765W        W87533  11.141  25.100   0.868
23766W        W87534  18.157  11.277   0.901
23767W        W87535  34.986   3.330   1.291
23768W        W87536   9.678   3.846  11.465
23769W        W87537   5.866  19.275  10.983
23770W        W87538  35.360  33.958  11.577
23771W        W87539  27.645  39.533  13.481
23772W        W87540  27.532   6.419   0.938
23773W        W87541  38.020   6.217   5.297
23774W        W87542   4.374  39.446   3.154
23775W        W87543  33.467  25.649  14.374
23776W        W87544  44.842   2.429  12.428
23777W        W87545  27.981  42.983   4.628
23778W        W87546   8.716  16.566  13.903
23779W        W87547  37.013  18.157  12.936
23780W        W87548  18.199  19.219  11.934
23781W        W87549   7.344  39.512  12.027
23782W        W87550  35.008  37.353   3.341
23783W        W87551   7.242  35.076  14.971
23784W        W87552  42.840  19.771   2.221
23785W        W87553   3.393  25.491  14.420
23786W        W87554  23.549  24.040  13.998
23787W        W87555  43.791  17.289  14.486
23788W        W87556  32.924  41.401  14.301
23789W        W87557  35.359  37.581  10.481
23790W        W87558  40.991  39.846   1.699
23791W        W87559  26.597  10.665   4.765
23792W        W87560   9.380  29.642  10.538
23793W        W87561   9.153  15.759   4.349
23794W        W87562  26.637  37.855   4.247
23795W        W87563  15.302  10.633  11.447
23796W        W87564  28.050  33.095  10.967
23797W        W87565   8.726  20.193  14.912
23798W        W87566   1.361  44.393   3.706
23799W        W87567   6.862  22.239   4.179
23800W        W87568  22.671  44.907   3.304
23801W        W87569   1.834  28.961   3.683
23802W        W87570  27.592  34.929  10.100
23803W        W87571  14.165  42.940   0.948
23804W        W87572   9.319  37.967   0.738
23805W        W87573  41.798  30.955  13.883
23806W        W87574  33.984  11.138  11.014
23807W        W87575  42.887  12.240  11.977
23808W        W87576  17.263  11.772   4.342
23809W        W87577  36.855  32.516   3.641
23810W        W87578  19.759  10.778  10.950
23811W        W87579  42.379  21.188   3.774
23812W        W87580  13.120  42.376   1.869
23813W        W87581  31.911  12.166  10.919
23814W        W87582   2.847  12.698  13.404
23815W        W87583  36.094  19.099   2.355
23816W        W87584  30.108   2.856   4.147
23817W        W87585  10.668   2.345  13.321
23818W        W87586  31.637  29.494  12.559
23819W        W87587   1.479   7.251  14.972
23820W        W87588  36.431   7.193  11.429
23821W        W87589  12.675  10.686   2.209
23822W        W87590  35.101  41.488  12.895
23823W        W87591  16.177  33.587  11.892
23824W        W87592  27.193  38.840   1.805
23825W        W87593   9.661  13.198  12.852
23826W        W87594  36.562  35.451  10.968
23827W        W87595   1.421  41.464  12.565
23828W        W87596  43.789  31.543  12.872
23829W        W87597  18.214  37.494   3.804
23830W        W87598   6.884  30.966   1.883
23831W        W87599  19.598  23.120   3.328
23832W        W87600  43.286  30.949   4.600
23833W        W87601   8.324  26.038  13.310
23834W        W87602  42.819  15.804   0.848
23835W        W87603  34.962  28.457   2.878
23836W        W87604   6.786  33.481   0.918
23837W        W87605  31.041  14.783  14.361
23838W        W87606  14.733  27.112  13.877
23839W        W87607  42.364  24.525  10.453
23840W        W87608  14.311  38.368   2.782
23841W        W87609   5.687   5.917  12.465
23842W        W87610  35.916  36.484   4.283
23843W        W87611  39.405  34.614  10.594
23844W        W87612  31.942  39.384   2.662
23845W        W87613  38.991  40.985   0.935
23846W        W87614  22.629  40.549   3.722
23847W        W87615  43.793  12.834   3.777
23848W        W87616  13.620  35.521  11.022
23849W        W87617  28.667  22.551  13.454
23850W        W87618   3.377  16.635  13.972
23851W        W87619  22.188  24.190   1.882
23852W        W87620  14.724  41.841   3.830
23853W        W87621  43.392  13.106   4.276
23854W        W87622   1.821  33.570  14.828
23855W        W87623  25.684  17.136   2.195
23856W        W87624  34.912  13.117   3.156
23857W        W87625  37.918   6.695  14.763
23858W        W87626  19.201  23.056   2.744
23859W        W87627  26.005  29.098   0.768
23860W        W87628   4.435  42.852  12.447
23861W        W87629  40.418  27.665   3.688
23862W        W87630  29.455  13.652  12.402
23863W        W87631   4.698  11.264   4.287
23864W        W87632  21.553  35.456  13.481
23865W        W87633  21.226  22.501   0.459
23866W        W87634  44.294   5.260   3.808
23867W        W87635  34.863  38.532   2.894
23868W        W87636  32.513  41.013   2.279
23869W        W87637   3.292   6.390  14.761
23870W        W87638  40.023  22.515   4.222
23871W        W87639  16.193   7.413  14.812
23872W        W87640  36.566  19.659   1.855
23873W        W87641   0.886  15.194   1.233
23874W        W87642   8.317   9.235   3.146
23875W        W87643  39.491   6.277  12.484
23876W        W87644  16.129   2.893   4.799
23877W        W87645   6.764  30.019  11.890
23878W        W87646  24.017  15.173  11.405
23879W        W87647   8.879  15.622   3.249
23880W        W87648  20.590   0.862   2.817
23881W        W87649  27.668  13.210  10.974
23882W        W87650  23.684   0.981   2.681
23883W        W87651  25.705  26.038  14.991
23884W        W87652  16.574  39.465   3.782
23885W        W87653  12.624  27.584   4.699
23886W        W87654   9.760   1.904   3.294
23887W        W87655   2.240  23.664  12.345
23888W        W87656   4.274   6.746   2.236
23889W        W87657  31.529   8.361  14.933
23890W        W87658  36.352  10.360   1.329
23891W        W87659  42.506  39.877  12.823
23892W        W87660  28.496   9.742   1.709
23893W        W87661   8.273  30.073   3.802
23894W        W87662  27.115  25.219   5.284
23895W        W87663  21.066  25.030  10.635
23896W        W87664  13.287   2.947   3.343
23897W        W87665  32.428  23.698   1.314
23898W        W87666  22.573  39.875  13.313
23899W        W87667   6.361  14.340   9.959
23900W        W87668  20.555  24.624   4.615
23901W        W87669   9.387  26.019   0.248
23902W        W87670  17.700  24.487  11.989
23903W        W87671  27.109  35.948   1.422
23904W        W87672  18.571   2.379   2.280
23905W        W87673   8.257  12.753  14.314
23906W        W87674   4.411  34.563   4.175
23907W        W87675  27.520   9.178  11.965
23908W        W87676  26.580  44.969  14.341
23909W        W87677  44.994  14.727   3.268
23910W        W87678  20.534  14.140  13.937
23911W        W87679   5.238  14.321  12.543
23912W        W87680  21.712  26.059   2.737
23913W        W87681   9.271  13.724   2.403
23914W        W87682  25.536  17.706   1.742
23915W        W87683  11.165  10.788  14.355
23916W        W87684  35.979  27.942  12.864
23917W        W87685  11.756  37.986  14.802
23918W        W87686  30.075   1.470  10.425
23919W        W87687  28.652  44.267   2.197
23920W        W87688  44.790  13.779   3.777
23921W        W87689  36.357   8.803  10.158
23922W        W87690  17.194  44.444   4.818
23923W        W87691  11.281  39.880   0.337
23924W        W87692  30.161  38.950   1.266
23925W        W87693   4.900  25.478  14.398
23926W        W87694  16.724  41.474   2.870
23927W        W87695  24.095  22.192   0.450
23928W        W87696   5.858  41.302   3.857
23929W        W87697  37.385  34.380   0.811
23930W        W87698  30.030  42.465   1.872
23931W        W87699  25.987  40.462  14.804
23932W        W87700  40.014  40.836   3.687
23933W        W87701  30.016  28.614   3.296
23934W        W87702   6.755   2.355   3.710
23935W        W87703  19.676   6.771  14.002
23936W        W87704   1.820  18.786  10.940
23937W        W87705  13.828  26.998   2.672
23938W        W87706  23.024   3.768   2.735
23939W        W87707  43.861  32.448   3.284
23940W        W87708  36.987  10.298   0.418
23941W        W87709   1.758  31.123   3.805
23942W        W87710  28.057  44.995   2.271
23943W        W87711  16.206  12.347  12.930
23944W        W87712  11.633  42.821  11.033
23945W        W87713  39.844  12.137   0.822
23946W        W87714   5.723  31.423  11.908
23947W        W87715   0.934  35.970   3.281
23948W        W87716   8.849  23.515  11.948
23949W        W87717   0.927   6.268  12.027
23950W        W87718  31.572  40.858  14.340
23951W        W87719   8.275   9.710   4.237
23952W        W87720  18.604  18.655   9.947
23953W        W87721  25.584  40.894   0.871
23954W        W87722   0.963  14.727  13.512
23955W        W87723  17.101  22.083   3.227
23956W        W87724  11.795  36.001   2.359
23957W        W87725  44.771  20.703  10.643
23958W        W87726  37.975  44.885   4.348
23959W        W87727  17.567  40.941   3.826
23960W        W87728  21.734   2.892   3.246
23961W        W87729   2.888  10.312   0.369
23962W        W87730  26.478  14.234  11.595
23963W        W87731  39.528  28.636   1.821
23964W        W87732  20.136  24.078   0.333
23965W        W87733   2.963   7.890  11.377
23966W        W87734  29.629  36.513  14.893
23967W        W87735  25.638   0.276   2.262
23968W        W87736  19.150  23.038  11.577
23969W        W87737  40.821  21.689  13.483
23970W        W87738  42.526  28.111  14.408
23971W        W87739  39.528  31.436   3.194
23972W        W87740  43.417   6.811  12.063
23973W        W87741  18.161   5.264  10.981
23974W        W87742  21.698  39.047   0.929
23975W        W87743  15.219  22.502   2.384
23976W        W87744  13.268  30.427  10.475
23977W        W87745  11.228  13.634   0.890
23978W        W87746   1.875   3.365  12.843
23979W        W87747  27.474  14.640  11.401
23980W        W87748   0.372   3.265  11.592
23981W        W87749  20.664  30.466   4.783
23982W        W87750  14.624  42.343   2.853
23983W        W87751  20.633  21.159  12.400
23984W        W87752   7.891  24.507  12.412
23985W        W87753   0.292  23.569  11.942
23986W        W87754  22.732  39.867   4.795
23987W        W87755  15.177  13.218   1.737
23988W        W87756   3.742  34.576  11.414
23989W        W87757  37.482   1.274  11.544
23990W        W87758  16.721  24.606  13.461
23991W        W87759  37.060   5.424   4.326
23992W        W87760  21.719  31.965   2.387
23993W        W87761  17.283  18.788   3.741
23994W        W87762  43.949  31.105  10.933
23995W        W87763  25.644  18.141  13.033
23996W        W87764  31.506   8.804   3.348
23997W        W87765  29.449  13.115   1.433
23998W        W87766   5.730  14.601   3.154
23999W        W87767  22.218   0.473   0.887
24000W        W87768  22.603  18.577  11.060
24001W        W87769  21.662  40.801   4.135
24002W        W87770  10.753  19.625   4.787
24003W        W87771  23.181  44.914   1.427
24004W        W87772  25.105  15.768   1.384
24005W        W87773   5.754  17.668  12.924
24006W        W87774  40.876  36.024  11.012
24007W        W87775   1.886   8.392   4.319
24008W        W87776  20.203   4.823   0.350
24009W        W87777  19.600  15.750   1.352
24010W        W87778  29.100  40.393  11.562
24011W        W87779  10.178  21.630   4.118
24012W        W87780  15.811  20.030   3.346
24013W        W87781  26.014   2.277  14.512
24014W        W87782  36.906  39.522   1.326
24015W        W87783  37.874  39.943  11.561
24016W        W87784  28.995  34.121   2.662
24017W        W87785  17.266  34.429  13.825
24018W        W87786   8.739  34.965  14.449
24019W        W87787  40.929   9.201   4.796
24020W        W87788  27.139   3.311   3.777
24021W        W87789  37.570  18.768  10.546
24022W        W87790  11.722   1.479  14.910
24023W        W87791   7.276  39.062  10.967
24024W        W87792  34.443  27.049   2.863
24025W        W87793   0.901  19.075  12.966
24026W        W87794  24.988  14.743   5.226
24027W        W87795  25.554   8.327  13.045
24028W        W87796   4.333  26.959  13.833
24029W        W87797  39.850  21.603   0.380
24030W        W87798  25.157   3.344  11.423
24031W        W87799  44.879  42.315  12.842
24032W        W87800   8.696  33.088  12.340
24033W        W87801  35.390  40.368  13.822
24034W        W87802  17.215  23.191  11.075
24035W        W87803   4.726  15.601   0.865
24036W        W87804   5.276  11.210   3.638
24037W        W87805   0.492  15.208  11.081
24038W        W87806   0.974  36.956   1.876
24039W        W87807  36.570  29.958   4.827
24040W        W87808  36.541  15.170  11.867
24041W        W87809  32.533  36.939   2.737
24042W        W87810  30.076  42.031  10.414
24043W        W87811  33.566  25.070  12.914
24044W        W87812  32.446  12.275  14.417
24045W        W87813   4.720  10.283  12.387
24046W        W87814  10.686  34.520  14.843
24047W        W87815   2.870  40.967   2.276
24048W        W87816  19.277  31.456   1.438
24049W        W87817  12.689  25.025   4.209
24050W        W87818  25.472  27.574   1.269
24051W        W87819  10.784  36.053   0.869
24052W        W87820  19.091  36.466   5.659
24053W        W87821  18.128   2.275  14.969
24054W        W87822   8.742  16.580  11.040
24055W        W87823  43.865  36.050  12.950
24056W        W87824  26.179   7.844  11.041
24057W        W87825  35.102  12.354  14.461
24058W        W87826  43.963   5.415  12.088
24059W        W87827  42.343  22.194  10.419
24060W        W87828  41.329   3.850  13.872
24061W        W87829  20.073   8.247  11.444
24062W        W87830   2.821  36.349  13.018
24063W        W87831   1.247  23.640  14.776
24064W        W87832  10.163  11.141   3.636
24065W        W87833  28.180   5.694   4.156
24066W        W87834  24.513  37.538   5.244
24067W        W87835   5.218  40.837   4.646
24068W        W87836  34.455  14.103   2.825
24069W        W87837  20.721  20.267   3.346
24070W        W87838  13.792  33.018  12.999
24071W        W87839  31.964   8.819  13.945
24072W        W87840  20.701  31.012   0.303
24073W        W87841  41.954  21.019   2.260
24074W        W87842  13.311  28.149   4.296
24075W        W87843  19.777  10.808   1.835
24076W        W87844  23.237  36.561  13.915
24077W        W87845  19.568  42.996  13.821
24078W        W87846   3.735   7.397   1.391
24079W        W87847   3.320  37.854   0.434
24080W        W87848  16.229  13.277   3.649
24081W        W87849  37.932  37.513  12.428
24082W        W87850   3.415   5.890   1.853
24083W        W87851   9.889  38.497   1.213
24084W        W87852   8.773  38.537  13.329
24085W        W87853   5.435  24.039   4.335
24086W        W87854   8.270  41.829  11.866
24087W        W87855  26.206  16.133  13.794
24088W        W87856  10.239  21.600  13.439
24089W        W87857  44.863   0.385  13.820
24090W        W87858  42.902  33.021   1.878
24091W        W87859  43.967  42.779  12.081
24092W        W87860   0.400  20.052   4.148
24093W        W87861  30.069  26.103   4.677
24094W        W87862  15.148  29.046   4.819
24095W        W87863  44.468  22.121   3.792
24096W        W87864  25.986  43.271   0.431
24097W        W87865  27.661  30.093  13.461
24098W        W87866  27.570  38.528   4.677
24099W        W87867  36.448  37.912  10.569
24100W        W87868  41.410  29.023   4.719
24101W        W87869  12.127  43.868   0.349
24102W        W87870   0.877  25.021  13.902
24103W        W87871   3.367  13.670  12.982
24104W        W87872  32.033  39.835   0.875
24105W        W87873  31.448   9.785   1.792
24106W        W87874  44.310   4.259   2.862
24107W        W87875  31.545  29.136  12.358
24108W        W87876  10.349  41.465  14.476
24109W        W87877  25.128   6.351   4.147
24110W        W87878  27.539  19.073  13.368
24111W        W87879  44.468  42.850   2.248
24112W        W87880  44.877   7.174   3.200
24113W        W87881  18.635   1.245  14.380
24114W        W87882  19.197  37.488  13.846
24115W        W87883  10.836   4.926  11.596
24116W        W87884  42.993  24.612  10.601
24117W        W87885  44.888  26.532   3.697
24118W        W87886  25.032   9.180  12.081
24119W        W87887  32.895  27.604   2.769
24120W        W87888  40.914   1.978   4.695
24121W        W87889  38.396  15.631   1.717
24122W        W87890  22.194  41.878  13.793
24123W        W87891   8.330  11.791  10.920
24124W        W87892  26.155  27.481   2.677
24125W        W87893  35.033  31.125   0.347
24126W        W87894  18.265   7.304   2.371
24127W        W87895  33.598  35.102  10.007
24128W        W87896  42.953   5.930   0.926
24129W        W87897  28.104  33.031   1.854
24130W        W87898   0.273  31.625  10.889
24131W        W87899  23.170  22.634   2.800
24132W        W87900  25.198   2.796  11.385
24133W        W87901  17.796  43.771   0.441
24134W        W87902  30.122  22.027  12.564
24135W        W87903  25.476  18.608  12.044
24136W        W87904  35.001  26.486   5.221
24137W        W87905  20.538  21.140  13.323
24138W        W87906  28.131   9.718  12.852
24139W        W87907  27.664   0.827   3.860
24140W        W87908  16.738  35.909  13.892
24141W        W87909  24.167  16.625  12.030
24142W        W87910  42.381   9.858   0.408
24143W        W87911  14.595   9.161  13.980
24144W        W87912   5.199  19.694   3.335
24145W        W87913  36.387  10.212  14.863
24146W        W87914  41.501   2.423  11.125
24147W        W87915  18.547  26.650   5.272
24148W        W87916  31.413  32.429   4.291
24149W        W87917  36.394  35.377   4.723
24150W        W87918   0.821   3.897   1.408
24151W        W87919  14.754  43.434  14.377
24152W        W87920  40.965  22.510   0.893
24153W        W87921  30.111  28.573   3.771
24154W        W87922  28.507  15.318  10.468
24155W        W87923  16.119   6.750  14.515
24156W        W87924  14.613  10.677   0.447
24157W        W87925   5.783  23.111  10.997
24158W        W87926   6.241  33.080   0.862
24159W        W87927  13.200  36.425   3.805
24160W        W87928   7.372  31.150   0.950
24161W        W87929  27.106   3.951   0.418
24162W        W87930  17.168  24.000  11.873
24163W        W87931  27.506   2.850  12.499
24164W        W87932   3.322  17.161  12.504
24165W        W87933  41.804  15.716   1.817
24166W        W87934  25.022  21.034  12.531
24167W        W87935   4.383  34.116  14.437
24168W        W87936  23.163  10.661   4.695
24169W        W87937  28.083   2.383  12.453
24170W        W87938  23.045  29.662   4.281
24171W        W87939  15.805  44.785  14.497
24172W        W87940  35.096  14.675  11.012
24173W        W87941  36.590   7.175   3.822
24174W        W87942   5.277   3.350  11.512
24175W        W87943  29.092  34.605  10.446
24176W        W87944  38.051   5.247   4.816
24177W        W87945  21.665  16.303   0.937
24178W        W87946  14.737  32.452  10.461
24179W        W87947  28.161  35.024   1.339
24180W        W87948  20.668   2.285   0.832
24181W        W87949   3.769  41.348  13.454
24182W        W87950  26.570  18.613   2.400
24183W        W87951  31.407  44.481   1.930
24184W        W87952  10.702  28.466  11.097
24185W        W87953  38.075  26.660  14.879
24186W        W87954   6.332  16.686  13.397
24187W        W87955  26.111  40.401   2.246
24188W        W87956   9.282   3.342   3.240
24189W        W87957  13.303  22.247   3.743
24190W        W87958  16.806  28.030  13.392
24191W        W87959  40.357  10.690  13.917
24192W        W87960  34.931   7.375   1.312
24193W        W87961  44.804  18.279  12.096
24194W        W87962  38.901   0.917  14.977
24195W        W87963  24.154   5.828   1.302
24196W        W87964  41.509  38.338   2.817
24197W        W87965   9.680  20.580   4.151
24198W        W87966   2.294  39.844  13.346
24199W        W87967   0.760   3.412   4.136
24200W        W87968  18.568   5.878   1.891
24201W        W87969  34.952  41.325   2.842
24202W        W87970  27.090  27.599   0.797
24203W        W87971  10.151  23.104  12.843
24204W        W87972   8.175  30.946   0.758
24205W        W87973  33.457  43.494  12.564
24206W        W87974   6.680   3.727   1.327
24207W        W87975  17.214  32.476  12.845
24208W        W87976  25.078  26.645   4.270
24209W        W87977  32.039  18.103   4.234
24210W        W87978  39.492   7.189  14.804
24211W        W87979   6.767  31.543  14.795
24212W        W87980   3.265  41.517   1.860
24213W        W87981   1.814  25.629  11.587
24214W        W87982  14.194  31.055  11.122
24215W        W87983   9.367   4.752  12.441
24216W        W87984  12.340  30.435   0.478
24217W        W87985   5.405   7.912  11.069
24218W        W87986   1.367  19.250  14.441
24219W        W87987  19.245  24.591   2.178
24220W        W87988   7.675  24.539   1.440
24221W        W87989   9.238  11.743  12.854
24222W        W87990  30.080  15.668  11.941
24223W        W87991  12.750  32.400  13.313
24224W        W87992  28.479  32.445   2.362
24225W        W87993  30.574   7.289   1.797
24226W        W87994  21.232  19.113  14.865
24227W        W87995  24.548  41.498   2.771
24228W        W87996  10.288   8.786   5.253
24229W        W87997  28.119  15.671   3.729
24230W        W87998   5.858   4.704  13.410
24231W        W87999  22.687   9.649  10.915
24232W        W88000  40.426   9.684   1.776
24233W        W88001  16.272  37.501  14.393
24234W        W88002  31.126  24.119  10.957
24235W        W88003  41.824  11.716  13.310
24236W        W88004  19.257   8.318  14.019
24237W        W88005  38.884  35.897  11.036
24238W        W88006  29.026   0.751  14.282
24239W        W88007   8.220   7.336  13.805
24240W        W88008  33.990  24.054   2.357
24241W        W88009  33.092   7.221  10.608
24242W        W88010  32.546  35.876   2.847
24243W        W88011   0.862  39.064  10.495
24244W        W88012  32.963   2.293  12.052
24245W        W88013  30.568  29.922  12.848
24246W        W88014   7.356  22.142   3.666
24247W        W88015  26.187   9.852   3.266
24248W        W88016  13.278   7.215   3.676
24249W        W88017  26.198  41.021  10.464
24250W        W88018  13.614  33.443   2.260
24251W        W88019   6.377   4.336  14.909
24252W        W88020  32.437  17.198  14.998
24253W        W88021  25.661   4.240  13.428
24254W        W88022  30.502  33.393   0.278
24255W        W88023  40.482  44.895   2.386
24256W        W88024   5.901  20.731  11.522
24257W        W88025  26.530  42.797   4.683
24258W        W88026  30.605  16.190  11.555
24259W        W88027  17.635   3.246   2.717
24260W        W88028  35.952   2.953   4.191
24261W        W88029   1.752   2.880  12.364
24262W        W88030  20.702  11.801   0.768
24263W        W88031  23.037  35.505  11.032
24264W        W88032  13.333  20.633  14.947
24265W        W88033  14.185  22.695   5.312
24266W        W88034  20.670  44.386   1.242
24267W        W88035   5.363  32.546   4.645
24268W        W88036  23.725  38.395  14.966
24269W        W88037  20.202  41.294  10.037
24270W        W88038  12.247  27.169   2.403
24271W        W88039  34.416  10.779  12.007
24272W        W88040   9.161  39.339  11.875
24273W        W88041  28.058  42.469   4.116
24274W        W88042  28.636  37.445  13.310
24275W        W88043   1.959  31.402  11.878
24276W        W88044  15.212  30.501  10.484
24277W        W88045  25.680  19.636   1.296
24278W        W88046  22.167  25.477   2.786
24279W        W88047  32.054  35.960   2.334
24280W        W88048  20.716  15.587   4.814
24281W        W88049   4.721  14.340   0.757
24282W        W88050  12.804  38.338  11.064
24283W        W88051  30.965  11.841  13.395
24284W        W88052  19.778  24.691   1.228
24285W        W88053   8.370  11.844   1.697
24286W        W88054  25.192   1.373  12.526
24287W        W88055  28.097  43.488   2.374
24288W        W88056  21.737   8.378  11.967
24289W        W88057  16.160  21.260   9.486
24290W        W88058   0.337  22.025   1.836
24291W        W88059   8.835  27.600  10.905
24292W        W88060  37.577  10.775  14.384
24293W        W88061   6.917  18.206  11.914
24294W        W88062  16.103  26.091  11.454
24295W        W88063  34.049  28.597  12.001
24296W        W88064   4.266   4.824   3.822
24297W        W88065  43.873  12.237   1.799
24298W        W88066  26.543   4.790   9.959
24299W        W88067  33.395  26.590   2.815
24300W        W88068   8.280   9.710   0.359
24301W        W88069  27.011  42.033   1.854
24302W        W88070  40.358  19.070  10.435
24303W        W88071  35.498  42.797   2.875
24304W        W88072  26.576  11.712  11.520
24305W        W88073  28.967  33.954   0.425
24306W        W88074  19.136  37.910   0.812
24307W        W88075   1.333  18.761   2.823
24308W        W88076  18.151  38.494   3.228
24309W        W88077  27.534  30.093  12.846
24310W        W88078  33.509   3.733   4.667
24311W        W88079  19.257  27.603   4.704
24312W        W88080  18.174  27.996   4.121
24313W        W88081  43.827  10.797  13.031
24314W        W88082  21.121  18.223   0.460
24315W        W88083  34.929  40.353   0.312
24316W        W88084  20.527  31.907   4.783
24317W        W88085  19.537  39.453  14.761
24318W        W88086  18.624  35.867   0.743
24319W        W88087   5.802   5.892   1.217
24320W        W88088   9.729  28.958   2.692
24321W        W88089   0.303   8.695  13.037
24322W        W88090  33.937  10.182   4.810
24323W        W88091  35.473  42.887  13.008
24324W        W88092  16.159  17.128  11.584
24325W        W88093  23.172   9.239   2.673
24326W        W88094  25.127   1.438   0.838
24327W        W88095   8.873  23.702   0.728
24328W        W88096   2.229  44.966  12.544
24329W        W88097  29.452  37.341  14.897
24330W        W88098  32.953  38.552   1.246
24331W        W88099  35.983   6.689   9.538
24332W        W88100  42.868   5.915  13.926
24333W        W88101  28.546   7.864   1.450
24334W        W88102  42.790  11.727  10.580
24335W        W88103  23.533  12.191   0.773
24336W        W88104   8.286  11.676  13.835
24337W        W88105   3.954  13.722   0.756
24338W        W88106  21.663  44.366  11.098
24339W        W88107  13.159  40.872  13.829
24340W        W88108  27.644  34.871   1.729
24341W        W88109  40.911   8.234  13.439
24342W        W88110  22.524  41.849  11.495
24343W        W88111   7.204  33.034   1.327
24344W        W88112   9.811  30.439  14.340
24345W        W88113  36.069   1.964  11.056
24346W        W88114  32.900  13.119  14.770
24347W        W88115  33.892  29.095  12.069
24348W        W88116  38.017  39.916  14.012
24349W        W88117  12.125   4.384  13.433
24350W        W88118  29.975  43.505   0.742
24351W        W88119  10.780  35.903  11.550
24352W        W88120  15.269  35.016   1.248
24353W        W88121  18.227  15.270  11.427
24354W        W88122   2.229  44.366   3.304
24355W        W88123  36.872  16.792   4.641
24356W        W88124  17.263   8.775   4.824
24357W        W88125   2.891  17.214  12.863
24358W        W88126  25.555  44.760  11.437
24359W        W88127  17.667  11.317  13.459
24360W        W88128  16.118   7.224  13.032
24361W        W88129  31.036  41.845  14.834
24362W        W88130   0.431  17.061   2.730
24363W        W88131  38.995   4.348   2.232
24364W        W88132  36.901   7.370  11.105
24365W        W88133  42.803  25.581  12.565
24366W        W88134  36.347  42.309  10.605
24367W        W88135  34.504  30.534  13.943
24368W        W88136  11.200  28.934   4.837
24369W        W88137  33.432   1.898   2.797
24370W        W88138  43.015  39.913   2.874
24371W        W88139  42.826  37.359   1.447
24372W        W88140  31.073  37.878  13.993
24373W        W88141  26.538  19.254  14.827
24374W        W88142  33.995   5.424  12.041
24375W        W88143  16.596   8.657  13.033
24376W        W88144  35.577   0.330  11.870
24377W        W88145  41.305   1.475   0.375
24378W        W88146  23.617  42.880  14.410
24379W        W88147  35.906  38.350   4.602
24380W        W88148   9.285   8.806  12.033
24381W        W88149  37.574  19.722   4.762
24382W        W88150   1.351   2.453   2.353
24383W        W88151  32.947  40.492   3.249
24384W        W88152  22.206  20.163   3.798
24385W        W88153  43.455   2.419   2.810
24386W        W88154  15.173  15.243  13.878
24387W        W88155  29.153  24.061  13.421
24388W        W88156   8.853  17.074  13.461
24389W        W88157  29.944  42.405  11.105
24390W        W88158  37.861  36.576   4.787
24391W        W88159  14.652  12.649   0.806
24392W        W88160  22.655  16.192   4.740
24393W        W88161  15.229   6.707  11.010
24394W        W88162  17.146  27.005   0.288
24395W        W88163   9.370   3.292  12.993
24396W        W88164  40.339  24.063   3.373
24397W        W88165   7.837   1.811   1.931
24398W        W88166  20.637   7.222   0.739
24399W        W88167  10.754   5.437  11.047
24400W        W88168  35.536   4.224   3.262
24401W        W88169  39.824  21.046  13.498
24402W        W88170  16.156  43.406  14.402
24403W        W88171  41.903   6.231  10.047
24404W        W88172  43.478   1.959  12.860
24405W        W88173  40.812  35.076   0.941
24406W        W88174  14.786  42.817  11.419
24407W        W88175  14.714  27.182   4.153
24408W        W88176  22.526  30.914  12.829
24409W        W88177  42.998  23.664  12.873
24410W        W88178  36.884  19.602   1.803
24411W        W88179   9.769  39.346  11.536
24412W        W88180  39.388   5.773   2.727
24413W        W88181  32.125   5.750   4.227
24414W        W88182  16.084  31.905  12.887
24415W        W88183   5.688  35.077   2.849
24416W        W88184  44.333  20.743   4.744
24417W        W88185   3.876  21.592   0.467
24418W        W88186  22.540   9.833   2.261
24419W        W88187   1.830  19.679   3.636
24420W        W88188  30.570  12.264  13.893
24421W        W88189  17.769   4.300  13.808
24422W        W88190   9.319  20.164   0.375
24423W        W88191   3.797   9.339   2.806
24424W        W88192  17.187  14.134   0.340
24425W        W88193  20.685  20.062   4.668
24426W        W88194  26.098  30.047   4.289
24427W        W88195  32.056  17.141   0.770
24428W        W88196  28.028  22.620  13.046
24429W        W88197   1.975  13.842  12.096
24430W        W88198  31.442  10.854   3.734
24431W        W88199  21.583  24.990  10.605
24432W        W88200  41.316  19.056  13.513
24433W        W88201  16.318  10.816   0.766
24434W        W88202   5.246  33.912   2.376
24435W        W88203  10.782   2.389  12.555
24436W        W88204  18.780  13.835   3.693
24437W        W88205  37.356  31.976  12.033
24438W        W88206  17.075  30.609  14.452
24439W        W88207  24.042  37.885   3.769
24440W        W88208   4.752  20.593   2.391
24441W        W88209  28.521  26.965   2.352
24442W        W88210   5.361  39.948  13.045
24443W        W88211  42.518  35.430  13.056
24444W        W88212  33.427  15.615  11.572
24445W        W88213  17.581  11.783  13.042
24446W        W88214  30.584   0.754   1.434
24447W        W88215  37.929  35.029  12.427
24448W        W88216  31.500  38.437   4.711
24449W        W88217  24.982   6.264  12.874
24450W        W88218  11.807  14.311   0.373
24451W        W88219   6.261  20.184  10.494
24452W        W88220   9.302  20.752  11.069
24453W        W88221   2.292  15.219   1.879
24454W        W88222  41.871  31.918  12.990
24455W        W88223  11.263  18.091   1.925
24456W        W88224   5.859  16.792   1.414
24457W        W88225  22.636  36.078   0.281
24458W        W88226  39.831  41.472   4.620
24459W        W88227   8.316  11.132  11.053
24460W        W88228   9.698   4.945  13.852
24461W        W88229  31.068  23.685   1.430
24462W        W88230   0.436  37.835  11.040
24463W        W88231  10.229  10.874  13.436
24464W        W88232   0.872  36.990  12.075
24465W        W88233   5.288  36.521  14.408
24466W        W88234  11.147   5.242  12.968
24467W        W88235   4.907  39.820  13.843
24468W        W88236  36.046   7.823   4.124
24469W        W88237  43.848  16.150  14.983
24470W        W88238  32.933  11.806   3.853
24471W        W88239  41.363  13.129   4.295
24472W        W88240   6.316   7.187   1.766
24473W        W88241   4.214   8.680  12.841
24474W        W88242  18.570  22.087   2.282
24475W        W88243  13.776  19.145  12.571
24476W        W88244  29.634   4.368  11.900
24477W        W88245  20.595  23.500  13.348
24478W        W88246  20.565  25.964   2.787
24479W        W88247  22.052  39.826  14.430
24480W        W88248  42.983  11.681   4.622
24481W        W88249   1.372  44.492  11.039
24482W        W88250  27.449   1.968   3.750
24483W        W88251  20.643  43.856   1.868
24484W        W88252  26.606  28.436  11.110
24485W        W88253  13.844  17.115   5.196
24486W        W88254   8.865  27.597  10.540
24487W        W88255  20.550  16.614   2.267
24488W        W88256   6.681   9.649  12.880
24489W        W88257  32.475   0.911  11.103
24490W        W88258  33.390  19.251   1.838
24491W        W88259  36.590  13.622   3.790
24492W        W88260   5.850  37.446   3.799
24493W        W88261  10.332  28.548  13.344
24494W        W88262   3.395  17.279   5.144
24495W        W88263  29.622  19.198  13.945
24496W        W88264  23.707  11.825   1.249
24497W        W88265  28.555  36.398  11.096
24498W        W88266   7.202  44.925  12.044
24499W        W88267  25.491   4.764  14.339
24500W        W88268  35.855  44.762   3.355
24501W        W88269  10.263   0.445  12.524
24502W        W88270  25.120  36.412  14.780
24503W        W88271  24.978  14.675  12.513
24504W        W88272  37.379  44.916  13.005
24505W        W88273  15.693  11.187   1.732
24506W        W88274  28.966   9.828   0.468
24507W        W88275  42.776  14.740  10.574
24508W        W88276  21.039  11.720  12.450
24509W        W88277   1.473  31.996  14.003
24510W        W88278   5.249  24.161  12.579
24511W        W88279  40.956   2.742   1.307
24512W        W88280  13.804  44.352   2.257
24513W        W88281  27.534  22.192   0.937
24514W        W88282   9.231   8.169  10.555
24515W        W88283  32.601  11.656  13.050
24516W        W88284  19.111  36.094   3.358
24517W        W88285  29.605  11.654   2.870
24518W        W88286   3.312  43.284   4.769
24519W        W88287  33.511   7.829  14.430
24520W        W88288  14.790  14.653   1.349
24521W        W88289  23.151  17.249  13.874
24522W        W88290   0.449  24.561   2.314
24523W        W88291  28.517  30.964   4.280
24524W        W88292  29.155  27.954  11.939
24525W        W88293  38.328  33.446   9.650
24526W        W88294  38.965  30.559   0.360
24527W        W88295  30.413  29.487  14.906
24528W        W88296   8.728   8.660  10.501
24529W        W88297   3.420  30.155  13.833
24530W        W88298  37.348  41.847   1.860
24531W        W88299  26.645  16.208   0.332
24532W        W88300   4.233  28.582  14.476
24533W        W88301  16.607  44.380   1.222
24534W        W88302  38.359   8.699   3.308
24535W        W88303  10.186   7.666  11.585
24536W        W88304  35.524   0.777   2.348
24537W        W88305   8.396  43.496  11.933
24538W        W88306   5.196  17.612   3.193
24539W        W88307  37.050  11.787  12.359
24540W        W88308   4.909   3.375   5.086
24541W        W88309  37.964  30.421   1.325
24542W        W88310  26.505  32.390  10.621
24543W        W88311   5.814   4.790   2.665
24544W        W88312  37.468  42.285   1.713
24545W        W88313   6.283  38.474  13.058
24546W        W88314   5.867  41.991  11.055
24547W        W88315  22.599  35.873   4.622
24548W        W88316  12.211  44.826  11.427
24549W        W88317  43.404  40.457  13.524
24550W        W88318  17.758  25.712   3.657
24551W        W88319   6.215   8.246   0.296
24552W        W88320  28.991  38.403  11.580
24553W        W88321  26.010  23.202  13.938
24554W        W88322  17.117  27.097  13.911
24555W        W88323  40.367   2.317   3.710
24556W        W88324  24.566  40.952   1.433
24557W        W88325  40.884   1.463   1.741
24558W        W88326  32.027   2.866  13.472
24559W        W88327  38.879  29.073   1.783
24560W        W88328  20.271  32.965   2.747
24561W        W88329  41.470  35.399  12.356
24562W        W88330  14.779  12.637  14.483
24563W        W88331  25.020   9.337   1.874
24564W        W88332  11.753   4.296   4.154
24565W        W88333  19.758  11.209   3.808
24566W        W88334  19.047  38.035   4.287
24567W        W88335   6.393  41.402  13.889
24568W        W88336  28.613   6.369  11.061
24569W        W88337  42.900  41.354  12.951
24570W        W88338  27.162   0.979  13.382
24571W        W88339  20.049  23.654  10.065
24572W        W88340  19.752  19.283   4.806
24573W        W88341  44.826  26.691  10.544
24574W        W88342  31.904  41.021  14.983
24575W        W88343  30.986   0.891   1.733
24576W        W88344  22.085   0.864  13.417
24577W        W88345   1.743   3.414   0.345
24578W        W88346   4.291  13.171  14.883
24579W        W88347  35.980  35.534   2.790
24580W        W88348   1.816   4.420   3.295
24581W        W88349  32.485  32.886   1.409
24582W        W88350  29.445  12.840   2.722
24583W        W88351  29.028  17.185   3.647
24584W        W88352  31.039   9.729  13.041
24585W        W88353  38.003   9.169  10.036
24586W        W88354  27.597   3.900   0.476
24587W        W88355  23.508  44.307  12.093
24588W        W88356  10.671  43.923   0.432
24589W        W88357  32.594  37.018   2.280
24590W        W88358  13.274  15.673   1.933
24591W        W88359  42.357   9.768  13.515
24592W        W88360  39.986   3.446   1.806
24593W        W88361  36.348   4.343   1.301
24594W        W88362  37.371  30.920   2.777
24595W        W88363  31.559   3.278   4.221
24596W        W88364  43.828  35.599  11.012
24597W        W88365  22.217  24.509   4.708
24598W        W88366  15.189  11.867  10.556
24599W        W88367  29.646   8.850  14.916
24600W        W88368  24.517  35.533   0.946
24601W        W88369   0.803   6.876   1.707
24602W        W88370   9.305  17.737   0.340
24603W        W88371  43.888  16.259   0.946
24604W        W88372   4.834   5.206   0.451
24605W        W88373  34.103   2.915   2.668
24606W        W88374  26.516  17.601   2.228
24607W        W88375   7.273  22.556  14.959
24608W        W88376  34.468  24.214   1.823
24609W        W88377   6.379  26.550   9.949
24610W        W88378  12.243  19.201  14.433
24611W        W88379  19.257  27.015  14.490
24612W        W88380  24.201   0.441  14.961
24613W        W88381   7.231   9.391   1.292
24614W        W88382  40.435  21.577  13.433
24615W        W88383  27.164  15.228   2.858
24616W        W88384  38.993  33.066   0.963
24617W        W88385  26.640  10.756  12.496
24618W        W88386  44.918  41.933   4.770
24619W        W88387   1.424  20.160   3.777
24620W        W88388   5.907  19.114   0.869
24621W        W88389  44.270  24.981  11.470
24622W        W88390  43.855  36.383   1.412
24623W        W88391   8.702  40.810   2.757
24624W        W88392   1.885  39.540   1.725
24625W        W88393  12.240  20.540  12.354
24626W        W88394   8.378  24.541  11.515
24627W        W88395   0.482  20.177   2.823
24628W        W88396   9.790  31.571  12.847
24629W        W88397  11.707  21.078  11.942
24630W        W88398  42.914  31.484   1.343
24631W        W88399  33.626  36.421   1.319
24632W        W88400  30.554   1.245   2.684
24633W        W88401  35.983   2.956   1.835
24634W        W88402  22.171   9.648  11.860
24635W        W88403  33.578  11.302  11.935
24636W        W88404  34.566  24.594   0.348
24637W        W88405  24.675  13.186   3.349
24638W        W88406  31.957  15.315  11.924
24639W        W88407  40.810  16.298   3.288
24640W        W88408  19.192   2.860  12.453
24641W        W88409  39.826   5.307  10.546
24642W        W88410  43.390  37.339   2.410
24643W        W88411  27.644  30.651  12.944
24644W        W88412  34.886  44.436  12.051
24645W        W88413  23.603  31.555   4.302
24646W        W88414  32.470   1.403  14.875
24647W        W88415  21.739  18.176   2.829
24648W        W88416  17.102  30.067   1.696
24649W        W88417  39.908   3.448   4.316
24650W        W88418  43.834   1.876   0.927
24651W        W88419   9.744  27.651  14.855
24652W        W88420  18.109  43.948   2.767
24653W        W88421  12.750   4.358   4.824
24654W        W88422  10.179  16.163  13.490
24655W        W88423  25.045  43.963   3.255
24656W        W88424  36.067   3.317  12.406
24657W        W88425  37.529   7.284  10.566
24658W        W88426  14.244  26.148  11.610
24659W        W88427  28.097  12.237   0.935
24660W        W88428  19.082   0.921   0.255
24661W        W88429  39.401   0.877  11.933
24662W        W88430  39.512  29.584  12.841
24663W        W88431  15.200   2.916   0.465
24664W        W88432  25.493  28.483  11.119
24665W        W88433   6.917  28.595  13.803
24666W        W88434  30.570  16.758  13.371
24667W        W88435  36.379  44.386  14.995
24668W        W88436  26.155  33.889  14.894
24669W        W88437  18.571  20.610  11.381
24670W        W88438  20.550  16.082  11.902
24671W        W88439  14.739   2.828   0.729
24672W        W88440  43.361  25.476  11.086
24673W        W88441  10.638  38.334  10.461
24674W        W88442  42.360  23.169  14.823
24675W        W88443   3.729   6.922   0.309
24676W        W88444  11.319  13.831   4.607
24677W        W88445  10.802  44.972   0.745
24678W        W88446  20.736   7.756  10.929
24679W        W88447   7.397   3.408  11.882
24680W        W88448   2.371  21.245  13.935
24681W        W88449  19.759  19.045   0.926
24682W        W88450  28.071  10.804  11.538
24683W        W88451  22.536  43.991   3.642
24684W        W88452   6.190  16.167  13.000
24685W        W88453  26.961  16.212   3.318
24686W        W88454  16.180  34.451   0.895
24687W        W88455  40.391  38.354   3.829
24688W        W88456  37.984  33.967  13.827
24689W        W88457  25.666  15.764  12.969
24690W        W88458  36.882  41.864   4.329
24691W        W88459  27.479  35.968   4.323
24692W        W88460  11.249  13.780   3.190
24693W        W88461  16.608  13.183   3.225
24694W        W88462  25.055  18.225  12.929
24695W        W88463  39.015  42.283   2.408
24696W        W88464  28.536  31.581  13.917
24697W        W88465  26.116  12.240   3.202
24698W        W88466  36.517  17.213   4.643
24699W        W88467  44.353  28.124   0.826
24700W        W88468  12.644  40.899   1.759
24701W        W88469  28.127   5.274  11.384
24702W        W88470  17.715   9.290  12.039
24703W        W88471  13.641  27.000   1.451
24704W        W88472  43.277  37.487   4.301
24705W        W88473  29.437  30.413   2.795
24706W        W88474  27.559   2.425   4.775
24707W        W88475  35.407   9.209   4.273
24708W        W88476   9.743  27.164   3.735
24709W        W88477  20.546  36.921   2.691
24710W        W88478   3.785  30.935   2.384
24711W        W88479  16.590  34.454  12.000
24712W        W88480  35.052  29.487  13.015
24713W        W88481  14.751   9.350  11.066
24714W        W88482  28.496  39.509  13.039
24715W        W88483   6.399  36.354   2.735
24716W        W88484  10.633  27.984  10.070
24717W        W88485   6.230  12.230   3.762
24718W        W88486  36.503  39.343  14.893
24719W        W88487  44.343  44.775   1.922
24720W        W88488   2.888   2.385   0.276
24721W        W88489  17.251  44.423   9.991
24722W        W88490  43.797  25.620   4.700
24723W        W88491  18.703  41.801   3.730
24724W        W88492  10.644   7.180   1.799
24725W        W88493   2.317  21.514  11.480
24726W        W88494  29.427  28.175  13.926
24727W        W88495  11.651  14.214   4.791
24728W        W88496  29.575  25.631   2.274
24729W        W88497  16.259  20.603   1.330
24730W        W88498  39.483  25.564   0.271
24731W        W88499  19.209  34.035   1.244
24732W        W88500   3.366  42.502  14.937
24733W        W88501   8.803  35.535   0.288
24734W        W88502  24.707  17.231   4.676
24735W        W88503  13.335  17.801  14.965
24736W        W88504  26.667  25.205   0.290
24737W        W88505  10.803   3.940  10.930
24738W        W88506  19.754  26.553  14.311
24739W        W88507  30.629  25.118  13.001
24740W        W88508  21.092  30.613  14.949
24741W        W88509  39.485  26.582  13.792
24742W        W88510  36.550  35.530   3.152
24743W        W88511  15.639  16.118   1.422
24744W        W88512  40.365  34.053   1.870
24745W        W88513  39.497  23.109  11.549
24746W        W88514   6.257  30.543   5.145
24747W        W88515  20.244   9.323  14.478
24748W        W88516   0.436  36.076  11.993
24749W        W88517  22.008  37.360  12.868
24750W        W88518  40.420  13.778  11.977
24751W        W88519  10.204   7.324  12.525
24752W        W88520  41.336   4.926   2.278
24753W        W88521  28.504   3.719  12.856
24754W        W88522  27.953  42.977  13.433
24755W        W88523   9.732  41.907   3.715
24756W        W88524  36.915  31.947   3.674
24757W        W88525  38.396   6.721  13.342
24758W        W88526  16.579  10.746  14.827
24759W        W88527  19.252  35.566   1.441
24760W        W88528   9.655  13.833  11.576
24761W        W88529  13.675  20.103   9.576
24762W        W88530   2.927  11.282   3.811
24763W        W88531  40.974  29.998   4.839
24764W        W88532  11.711  41.360  14.308
24765W        W88533   1.752  13.793   1.821
24766W        W88534  29.494  19.558   3.833
24767W        W88535  36.014  14.725   5.130
24768W        W88536  22.140  36.428   4.229
24769W        W88537  14.774   7.788   0.903
24770W        W88538  44.399  31.021  12.040
24771W        W88539   7.843  29.630  10.427
24772W        W88540  31.497  15.286  11.040
24773W        W88541  29.448   0.980  12.831
24774W        W88542   4.732   9.320  11.044
24775W        W88543  35.506  40.960  14.974
24776W        W88544  10.671  39.848  13.988
24777W        W88545  10.832   6.817   3.347
24778W        W88546   6.782  10.290   3.826
24779W        W88547  27.684  37.405   4.173
24780W        W88548  30.109  37.914  10.936
24781W        W88549  15.249   8.738  10.578
24782W        W88550  26.534   7.360  12.383
24783W        W88551  18.227  41.429   3.797
24784W        W88552  33.615   4.793   3.292
24785W        W88553  40.402   5.689   4.753
24786W        W88554  41.526  17.271  14.507
24787W        W88555  44.759  32.009  13.793
24788W        W88556   6.329  26.991  11.559
24789W        W88557   3.433  41.370   4.735
24790W        W88558  25.479  36.535   2.403
24791W        W88559  40.911  29.479  14.391
24792W        W88560  15.300  17.226  12.002
24793W        W88561  41.928  35.989   2.298
24794W        W88562  42.428   5.843   1.213
24795W        W88563  18.177  29.462  14.852
24796W        W88564  31.918  25.209  13.455
24797W        W88565  23.560  28.065  11.034
24798W        W88566  36.058  23.056  10.497
24799W        W88567  26.630  23.715   1.827
24800W        W88568   7.708   5.927  12.850
24801W        W88569  19.562   7.679  12.445
24802W        W88570  33.618  20.637   3.387
24803W        W88571  32.067  42.415  13.973
24804W        W88572  12.723  13.761   4.721
24805W        W88573   0.394  19.207  10.419
24806W        W88574  28.147  44.290   2.691
24807W        W88575  13.614   4.204  13.333
24808W        W88576   7.325  35.493   1.757
24809W        W88577  26.519  40.486  10.988
24810W        W88578  37.963   4.404  14.392
24811W        W88579  39.816  25.629  12.455
24812W        W88580  28.445  27.025  14.817
24813W        W88581  10.685  11.789  12.989
24814W        W88582  43.820  20.767  12.066
24815W        W88583  37.033   5.697   1.261
24816W        W88584  40.848  16.794  10.428
24817W        W88585  41.425  24.493  14.465
24818W        W88586  10.724  16.746  12.931
24819W        W88587  20.610  39.323   3.710
24820W        W88588  13.755   0.792   3.319
24821W        W88589  10.353  18.117   4.162
24822W        W88590  41.016  20.547  11.583
24823W        W88591  23.196  41.806   3.652
24824W        W88592  31.525  26.581   3.175
24825W        W88593  43.916  23.542   2.344
24826W        W88594  30.651  24.048  14.919
24827W        W88595  44.816  34.582  10.909
24828W        W88596   1.949  14.234   2.327
24829W        W88597  13.769   5.413  11.416
24830W        W88598  33.922  35.088  12.542
24831W        W88599  14.114  39.400  13.915
24832W        W88600   4.400   8.257  14.888
24833W        W88601  39.420  12.326   3.320
24834W        W88602  30.051  40.812   0.400
24835W        W88603   5.866  41.531  12.425
24836W        W88604  30.558  34.485  10.541
24837W        W88605  25.198  19.548  14.514
24838W        W88606   5.887  44.357   4.298
24839W        W88607  26.681   2.928   2.330
24840W        W88608  18.595  12.721   0.837
24841W        W88609  36.858  24.498  14.932
24842W        W88610   2.792  18.708   4.791
24843W        W88611  25.587  28.138   4.738
24844W        W88612  44.398  15.329   3.802
24845W        W88613  26.015  39.480   3.771
24846W        W88614  34.863  44.753  12.533
24847W        W88615  44.864  25.209   4.598
24848W        W88616   9.263   0.365  11.586
24849W        W88617  36.854   9.226   0.881
24850W        W88618   8.250  35.483   4.321
24851W        W88619  44.460  31.143   1.297
24852W        W88620  20.526  26.470   0.826
24853W        W88621  37.959  31.090   1.431
24854W        W88622  10.201   5.351   0.399
24855W        W88623  39.931   7.749  12.343
24856W        W88624   4.296  38.967   2.325
24857W        W88625  29.648  10.149   9.930
24858W        W88626  13.205  15.690   2.353
24859W        W88627  35.523  41.789  12.387
24860W        W88628   6.386  21.623   1.898
24861W        W88629   2.810  36.013   3.298
24862W        W88630  20.269  38.551   4.322
24863W        W88631  31.579  18.056   3.148
24864W        W88632  35.099  19.739  11.600
24865W        W88633  20.545  39.016   2.697
24866W        W88634  44.963  11.691  12.511
24867W        W88635  41.399  29.468  11.104
24868W        W88636   4.360  16.711  14.284
24869W        W88637  29.445   8.350   2.380
24870W        W88638  41.469  29.962  14.802
24871W        W88639  39.392  33.436  13.064
24872W        W88640  30.157   6.223  11.020
24873W        W88641   5.769  23.009  11.991
24874W        W88642  13.247   1.829   3.162
24875W        W88643  39.391  44.408   2.316
24876W        W88644  11.288  40.378   3.858
24877W        W88645  41.445   3.220   0.808
24878W        W88646  39.444  31.077   3.258
24879W        W88647   1.966  25.506   1.777
24880W        W88648   2.374  20.582   1.774
24881W        W88649  36.441   1.897  12.004
24882W        W88650  33.470   0.452  13.945
24883W        W88651  33.997  29.667   1.696
24884W        W88652   9.819   2.452   3.287
24885W        W88653  44.494  29.097   0.262
24886W        W88654  12.182  36.478  11.552
24887W        W88655  29.467   2.928   2.303
24888W        W88656   6.726  31.922   4.190
24889W        W88657  13.309   7.691   3.677
24890W        W88658  35.905  12.768   0.454
24891W        W88659  25.085  16.175   2.319
24892W        W88660  23.634   5.790  10.962
24893W        W88661   7.670   0.299  11.885
24894W        W88662  21.516  21.084  14.317
24895W        W88663  17.665  34.993   1.214
24896W        W88664   6.346  38.064   4.656
24897W        W88665  44.805   8.677   3.368
24898W        W88666  16.176   3.764   1.270
24899W        W88667   9.216  44.917  14.397
24900W        W88668  33.091   7.276   0.257
24901W        W88669  18.646  39.865  11.590
24902W        W88670  15.710  15.270   3.761
24903W        W88671   2.928  28.496  13.922
24904W        W88672  22.078  43.509  14.434
24905W        W88673  19.744  44.846   2.268
24906W        W88674  38.506  33.621  12.834
24907W        W88675  31.585  26.514   0.480
24908W        W88676   7.753  30.071   2.801
24909W        W88677  39.951  44.348  14.953
24910W        W88678  44.861  36.542  13.348
24911W        W88679  22.505  34.369   3.848
24912W        W88680  37.477   6.383   0.884
24913W        W88681  34.025  31.562  13.400
24914W        W88682  20.240  22.704   2.690
24915W        W88683  21.207   9.670   4.312
24916W        W88684  40.812   1.824   0.865
24917W        W88685  14.311  12.712   0.379
24918W        W88686  36.561  40.317  14.889
24919W        W88687  34.910  16.123  12.575
24920W        W88688   8.709  41.983  13.333
24921W        W88689  18.730  28.471  12.537
24922W        W88690  25.571  14.790  13.030
24923W        W88691  15.705  11.825  11.427
24924W        W88692  29.161   8.379  11.078
24925W        W88693  34.419   8.679  11.583
24926W        W88694  40.905   1.769   2.745
24927W        W88695  20.066  10.671  13.952
24928W        W88696  15.185   9.695  11.868
24929W        W88697  22.194  27.171   4.202
24930W        W88698  18.255   5.821   0.937
24931W        W88699  22.203  19.070   2.691
24932W        W88700   3.919  30.482   2.293
24933W        W88701  12.276  31.506  13.320
24934W        W88702  24.594  12.164   2.713
24935W        W88703  17.213  36.993   2.198
24936W        W88704  23.097  43.789  12.042
24937W        W88705  11.684  34.390   3.371
24938W        W88706  29.563  28.174   4.315
24939W        W88707  17.145   2.325   3.240
24940W        W88708  35.386  11.713  12.908
24941W        W88709  12.229   9.683   3.298
24942W        W88710  14.147  32.072  14.312
24943W        W88711  13.142  22.246   3.211
24944W        W88712   0.777   3.275   3.869
24945W        W88713  23.723  18.204  14.301
24946W        W88714  20.738  28.073  14.871
24947W        W88715  12.244  22.551  14.979
24948W        W88716  14.244  12.228  11.963
24949W        W88717  17.126  28.995  10.503
24950W        W88718  41.800  20.097  12.459
24951W        W88719  41.330  36.852  14.506
24952W        W88720  27.968   0.403   0.753
24953W        W88721  10.692  10.878   0.763
24954W        W88722  35.598   3.357  10.033
24955W        W88723  32.407   2.847  11.011
24956W        W88724  42.384   4.223   3.634
24957W        W88725  40.902  21.219   4.219
24958W        W88726  17.205   0.317  14.364
24959W        W88727   7.360  22.077  14.944
24960W        W88728   1.772  19.645  11.442
24961W        W88729   0.425  11.722   4.646
24962W        W88730  23.082   4.255   4.226
24963W        W88731  14.129   9.858   1.219
24964W        W88732  20.734  17.250  11.058
24965W        W88733  35.358   8.336  13.438
24966W        W88734   4.750  23.219  11.111
24967W        W88735  17.725  22.109   3.284
24968W        W88736   0.955  21.218   3.181
24969W        W88737  22.576  10.138   0.381
24970W        W88738   1.358  20.225  10.509
24971W        W88739  19.114  33.047  12.026
24972W        W88740  12.161  36.908   3.281
24973W        W88741  28.123  21.182   2.330
24974W        W88742  10.232   0.846  10.916
24975W        W88743  27.974   1.397  14.820
24976W        W88744   7.672  13.264  13.911
24977W        W88745  18.105   8.874   1.760
24978W        W88746  21.159  19.182   1.731
24979W        W88747  30.003  32.477  11.461
24980W        W88748  21.113   6.201   2.243
24981W        W88749  26.599   9.280   3.795
24982W        W88750  18.561  21.587  11.505
24983W        W88751  42.979   3.267  10.607
24984W        W88752  42.514  14.785   2.732
24985W        W88753  11.201  21.553   1.257
24986W        W88754  19.152   3.848   1.231
24987W        W88755  14.283  24.097   5.658
24988W        W88756  17.697   0.970   3.853
24989W        W88757  12.838  29.510   0.377
24990W        W88758  31.545   8.232  10.422
24991W        W88759  44.756  28.468  11.554
24992W        W88760  14.735  22.170  12.427
24993W        W88761  33.583  26.569  11.468
24994W        W88762  37.846   0.320  11.373
24995W        W88763  40.978  11.279  10.618
24996W        W88764   7.701  33.992   3.201
24997W        W88765   8.217  25.661   1.735
24998W        W88766   1.329  38.917   0.290
24999W        W88767  16.700  18.065  12.989
25000W        W88768  13.743  16.679   4.646
25001W        W88769  10.165  11.305   2.376
25002W        W88770   0.931  23.507   1.396
25003W        W88771  41.457   6.766   3.253
25004W        W88772   9.317  39.851   3.301
25005W        W88773  33.977  13.652   2.379
25006W        W88774  13.112  42.341   0.343
25007W        W88775  29.036  19.652  11.451
25008W        W88776  37.426   8.310   4.215
25009W        W88777  17.299  23.065  13.454
25010W        W88778  32.603  38.919  14.914
25011W        W88779  29.063  24.482   0.477
25012W        W88780  42.823  21.661   4.195
25013W        W88781   4.312  36.045  10.563
25014W        W88782  12.250  41.816  13.923
25015W        W88783   3.814  16.658  10.967
25016W        W88784  31.564  42.356  14.867
25017W        W88785  27.457  17.164  10.914
25018W        W88786  31.443  35.592   0.728
25019W        W88787   7.413   8.201   2.664
25020W        W88788  21.087  26.655  12.465
25021W        W88789  43.315  17.137   3.752
25022W        W88790  41.875  21.537  14.834
25023W        W88791  16.678  23.142   2.708
25024W        W88792  18.735   2.743  13.518
25025W        W88793  34.508  36.411   2.681
25026W        W88794  44.010  32.980  10.955
25027W        W88795  35.450  28.141  14.919
25028W        W88796   0.416   1.870  14.296
25029W        W88797  17.305   1.438  10.891
25030W        W88798  42.852   4.906  10.596
25031W        W88799   2.817  30.062   3.190
25032W        W88800  15.816  36.971  12.068
25033W        W88801  39.404  33.995   4.829
25034W        W88802   9.867   1.420   3.640
25035W        W88803   7.795  10.648   1.337
25036W        W88804  18.621   1.795   4.231
25037W        W88805   3.431  26.032   1.874
25038W        W88806  16.200  39.509   0.333
25039W        W88807  36.916  10.183  13.908
25040W        W88808   7.684  35.027   0.763
25041W        W88809  23.230  38.530  10.530
25042W        W88810   5.892  15.786   0.749
25043W        W88811  44.785  40.501   0.381
25044W        W88812  19.264  20.679  10.551
25045W        W88813  17.693  27.504   2.782
25046W        W88814   6.817   5.824   2.344
25047W        W88815  14.802  32.467  12.994
25048W        W88816   3.926  10.199   1.913
25049W        W88817  41.424  26.617   5.246
25050W        W88818  43.968  28.497  11.017
25051W        W88819   2.866  30.125   3.831
25052W        W88820  38.554  42.005  11.052
25053W        W88821  33.964   2.881   4.833
25054W        W88822  34.988  29.078  13.350
25055W        W88823  18.195  17.166   4.302
25056W        W88824   7.340   9.684   0.770
25057W        W88825  16.687  43.423   4.806
25058W        W88826  35.921  27.604  11.127
25059W        W88827  44.402  18.691   2.783
25060W        W88828  32.915  39.365   4.705
25061W        W88829  12.323   1.811  13.540
25062W        W88830   2.268  40.878   4.213
25063W        W88831  24.081  23.107   1.703
25064W        W88832  31.086  17.216   0.477
25065W        W88833  40.833  13.154   1.238
25066W        W88834  44.404  42.841  13.339
25067W        W88835  26.479  19.082  10.888
25068W        W88836   3.405  12.832   0.366
25069W        W88837  20.755   3.427  11.965
25070W        W88838  43.927  30.080  14.275
25071W        W88839   4.803  41.933  11.017
25072W        W88840  32.063   9.815   4.311
25073W        W88841  24.194  15.651  14.328
25074W        W88842  44.793  28.588   0.811
25075W        W88843  22.187  13.306   1.219
25076W        W88844  43.777  15.651  13.881
25077W        W88845  28.175   4.405  11.096
25078W        W88846  13.697   8.814  12.037
25079W        W88847  36.994  21.048  13.538
25080W        W88848   7.366  30.431   3.859
25081W        W88849   7.316   2.813  12.370
25082W        W88850  32.549  10.773   4.628
25083W        W88851   2.940  44.957   4.652
25084W        W88852  20.164  40.443  14.485
25085W        W88853  33.046  24.016   0.821
25086W        W88854   5.223  39.824   2.385
25087W        W88855  36.976   2.727  14.836
25088W        W88856  21.243  43.350   3.724
25089W        W88857  34.892  36.040  14.315
25090W        W88858  22.169  15.317   3.779
25091W        W88859   1.324   8.250   4.206
25092W        W88860   9.756  12.805   3.703
25093W        W88861   4.923  19.268   3.175
25094W        W88862  11.795  10.180   2.334
25095W        W88863  38.053   1.432  14.317
25096W        W88864  28.991  13.766  10.935
25097W        W88865  31.026  17.198  11.121
25098W        W88866   9.837  28.457  11.974
25099W        W88867  20.538  26.483   4.767
25100W        W88868  25.975  12.153   1.349
25101W        W88869   8.856  26.498  11.571
25102W        W88870  31.474  33.602   3.704
25103W        W88871  33.465  33.988  13.955
25104W        W88872  34.021  43.927   2.407
25105W        W88873  34.414   6.689  13.926
25106W        W88874  34.605   0.308  11.079
25107W        W88875  38.547  30.600  11.997
25108W        W88876   5.251  23.189   4.724
25109W        W88877  11.325  36.915  14.931
25110W        W88878  30.457  20.268  11.575
25111W        W88879  34.579  26.510  10.982
25112W        W88880  44.444  19.580  14.796
25113W        W88881  30.552   9.170   4.175
25114W        W88882   9.363  42.443  11.985
25115W        W88883  25.049   3.925   0.346
25116W        W88884   8.850  15.733   4.827
25117W        W88885   2.329  44.878  14.423
25118W        W88886  33.878  28.546   2.291
25119W        W88887  43.385  17.281  11.548
25120W        W88888   8.671  37.831   2.895
25121W        W88889  30.469   2.406   4.737
25122W        W88890  23.510  35.579   3.631
25123W        W88891  32.445  18.051   1.362
25124W        W88892  12.634   8.854   2.727
25125W        W88893  44.900  16.700  11.505
25126W        W88894  12.359  11.184   0.363
25127W        W88895  32.923  15.171  10.543
25128W        W88896   2.760  28.626   4.717
25129W        W88897  19.241  43.346   4.618
25130W        W88898   3.867  27.634  13.373
25131W        W88899  15.796   6.320   2.222
25132W        W88900  17.116  38.887   3.379
25133W        W88901  19.071   9.735   2.866
25134W        W88902  30.984  12.307  13.453
25135W        W88903  14.767   2.897  13.478
25136W        W88904  14.725  32.542   2.370
25137W        W88905  37.904   0.845   1.815
25138W        W88906  40.797  25.179  10.517
25139W        W88907   7.198  38.835  13.919
25140W        W88908  42.461  41.510  10.576
25141W        W88909  34.551  43.503   3.196
25142W        W88910  30.540   4.837  10.891
25143W        W88911  30.997   6.713   3.296
25144W        W88912  24.002  29.590   1.843
25145W        W88913  34.913  44.796   0.827
25146W        W88914  21.719  40.365   2.773
25147W        W88915  18.062  19.779   3.272
25148W        W88916  11.335  32.445  12.569
25149W        W88917  20.211  16.231  11.082
25150W        W88918   1.886   2.733   4.707
25151W        W88919  25.470  33.503   3.675
25152W        W88920  44.309  41.437   0.286
25153W        W88921   6.423  16.789   4.684
25154W        W88922  16.156  20.258   2.897
25155W        W88923   9.155  35.371   1.345
25156W        W88924   1.798  26.991   4.682
25157W        W88925   3.893  42.775   3.318
25158W        W88926   6.426   2.926  11.384
25159W        W88927   4.821   0.761  13.516
25160W        W88928  38.505  39.334  12.874
25161W        W88929  32.518   5.435  14.278
25162W        W88930  23.731  22.148  14.855
25163W        W88931  34.967   3.756   2.864
25164W        W88932   4.896  42.282   1.245
25165W        W88933  38.548   6.750  12.963
25166W        W88934  39.384  41.910  11.481
25167W        W88935  42.806  20.759   4.814
25168W        W88936  26.490  44.955  13.962
25169W        W88937  42.788   7.865  10.643
25170W        W88938  19.282   5.285  14.843
25171W        W88939  23.018  20.666   1.796
25172W        W88940  22.214  13.138  13.822
25173W        W88941  34.110  37.876  10.403
25174W        W88942  41.818   5.712   4.736
25175W        W88943  41.434  32.625   0.924
25176W        W88944  14.654  37.425   1.814
25177W        W88945  35.925  25.519   4.696
25178W        W88946  31.090   7.306  12.084
25179W        W88947  14.746  29.509   4.343
25180W        W88948  31.070  39.910   1.809
25181W        W88949   9.789  39.915  14.435
25182W        W88950  43.849   7.723  12.491
25183W        W88951  20.622  20.179  12.838
25184W        W88952  17.704  10.746  13.987
25185W        W88953  16.211  22.241   1.233
25186W        W88954  24.629  42.288  12.878
25187W        W88955  26.110  25.096  10.536
25188W        W88956  28.175   9.278  12.386
25189W        W88957  31.976  12.195   3.223
25190W        W88958   0.263   2.418   3.367
25191W        W88959   6.326  14.755  14.424
25192W        W88960  42.992  14.165  10.506
25193W        W88961   4.302   6.312   2.261
25194W        W88962  19.542  38.021   3.699
25195W        W88963   4.234  23.620   4.639
25196W        W88964  14.705  39.478  12.981
25197W        W88965   4.226  34.386   4.703
25198W        W88966  18.154   1.336  12.070
25199W        W88967  19.692  24.568  12.041
25200W        W88968  39.004   1.838  12.915
25201W        W88969  37.467  36.965  13.010
25202W        W88970   7.836   8.734   3.376
25203W        W88971  17.761   6.810  14.360
25204W        W88972   4.415  16.761   3.295
25205W        W88973  41.914  20.209  13.897
25206W        W88974   2.240   9.768   0.288
25207W        W88975  14.762  34.485  13.392
25208W        W88976  44.412  43.937  14.768
25209W        W88977   3.790  17.721   0.786
25210W        W88978  23.616  15.277   1.233
25211W        W88979   8.828  29.492   2.259
25212W        W88980  41.462  20.632  10.575
25213W        W88981  23.699  22.997  12.370
25214W        W88982  27.018   7.308  11.999
25215W        W88983  35.520  32.903   4.736
25216W        W88984  27.967  25.142  14.326
25217W        W88985  19.057  22.569  13.002
25218W        W88986  28.592   3.446   3.267
25219W        W88987  42.487   0.393  13.831
25220W        W88988  19.654  27.663   2.846
25221W        W88989  22.047  30.107  13.420
25222W        W88990   2.282  13.117   4.158
25223W        W88991  24.646   4.939  10.643
25224W        W88992   3.720  13.729  14.500
25225W        W88993  24.124   0.928  14.427
25226W        W88994   0.878   3.833   0.385
25227W        W88995  31.633  12.701  12.564
25228W        W88996   3.409  21.208   1.228
25229W        W88997  23.151   0.896  13.912
25230W        W88998  26.659  30.529  13.376
25231W        W88999  30.529  20.058   3.288
25232W        W89000   6.279  25.694  10.976
25233W        W89001  40.921  37.933  14.430
25234W        W89002  16.592  36.542   4.829
25235W        W89003   5.247  21.032   0.746
25236W        W89004  37.979  32.551  14.446
25237W        W89005  34.880  32.635  13.921
25238W        W89006  25.618   0.435  12.869
25239W        W89007   4.759  40.530   1.362
25240W        W89008   3.410  30.439  12.548
25241W        W89009  31.050  25.072  10.423
25242W        W89010   5.860   5.689  14.376
25243W        W89011  24.211  13.258  10.912
25244W        W89012  20.582  22.611  11.863
25245W        W89013  39.809  25.154   0.273
25246W        W89014  36.542  33.021  11.379
25247W        W89015  39.506  32.498  12.497
25248W        W89016  17.616  35.973   3.738
25249W        W89017  31.027  39.323   1.274
25250W        W89018  28.584  22.051  10.600
25251W        W89019  31.555  24.653   0.821
25252W        W89020  23.085  44.829  12.070
25253W        W89021  44.376  33.556   0.830
25254W        W89022  15.163  33.071   2.816
25255W        W89023  12.662  25.161  14.766
25256W        W89024  26.079   8.219   2.319
25257W        W89025  25.209  25.588  14.289
25258W        W89026   0.954  38.434  10.635
25259W        W89027   8.350  17.588  14.931
25260W        W89028  19.190  35.997   0.802
25261W        W89029  18.566   5.765  13.951
25262W        W89030  14.291  18.174   0.748
25263W        W89031  39.503   7.886  11.021
25264W        W89032   3.342  11.159   3.326
25265W        W89033  16.772  35.422   4.837
25266W        W89034  23.606  13.683  13.334
25267W        W89035  10.829   3.298   1.918
25268W        W89036  41.461  19.240   0.445
25269W        W89037  15.200  30.574  12.399
25270W        W89038  31.493  20.040   5.607
25271W        W89039  15.824  17.281  14.427
25272W        W89040  10.140  17.307   4.330
25273W        W89041  10.818  37.361   2.684
25274W        W89042  37.883   0.988   0.329
25275W        W89043  10.872  15.262  14.853
25276W        W89044  43.957  18.706  13.539
25277W        W89045  17.580  26.997   0.880
25278W        W89046  36.916   8.661   1.720
25279W        W89047   9.315  27.637   2.355
25280W        W89048  20.267  36.016  11.923
25281W        W89049  43.438  40.890   4.200
25282W        W89050  19.114  44.340  10.634
25283W        W89051  18.545  10.679   3.644
25284W        W89052   0.760  18.055   1.907
25285W        W89053   8.393   5.326  14.908
25286W        W89054  12.228   1.786  10.556
25287W        W89055  23.706   8.661   1.263
25288W        W89056  25.128  35.887   2.291
25289W        W89057  43.506  25.018  11.411
25290W        W89058  23.639  25.126   2.681
25291W        W89059  27.668   9.677  13.353
25292W        W89060   4.230  36.490  11.951
25293W        W89061  40.974  23.736   1.840
25294W        W89062  35.930  22.069   1.300
25295W        W89063   9.696  30.517   2.270
25296W        W89064  28.590  23.002   0.843
25297W        W89065  25.477  17.751   0.791
25298W        W89066  23.225  18.602  14.795
25299W        W89067  35.919  24.707   0.466
25300W        W89068  11.368  40.444  14.399
25301W        W89069  14.749  28.633   3.175
25302W        W89070  15.749   0.360  11.407
25303W        W89071  13.638  12.775   9.620
25304W        W89072  12.809  28.139   1.898
25305W        W89073   9.764   2.362  14.784
25306W        W89074  36.908   6.206  13.428
25307W        W89075  40.797  15.235  10.640
25308W        W89076   3.241   2.411   2.831
25309W        W89077  31.607  44.439  12.345
25310W        W89078   4.377  30.421   2.357
25311W        W89079   0.792  12.827  10.993
25312W        W89080  19.133   3.791  14.812
25313W        W89081   1.804  44.414  11.446
25314W        W89082  28.029   5.932   0.276
25315W        W89083  25.542  11.319   2.797
25316W        W89084  34.875  37.545   3.767
25317W        W89085   1.307  23.995   0.812
25318W        W89086  44.496  20.124  14.469
25319W        W89087   1.859   9.738   1.792
25320W        W89088  16.785  42.372   3.215
25321W        W89089  15.726  36.027   0.467
25322W        W89090  38.519   4.727  12.951
25323W        W89091   7.770  17.764   3.255
25324W        W89092  41.005   6.246  11.480
25325W        W89093  39.908  21.699  11.438
25326W        W89094  38.384  38.021   3.813
25327W        W89095  34.390  32.127  14.293
25328W        W89096  21.035  16.750  13.992
25329W        W89097  31.463  41.852  12.387
25330W        W89098  10.811  40.949  12.389
25331W        W89099  34.425  29.013   0.930
25332W        W89100  38.857  18.666   4.666
25333W        W89101   5.828  28.012  11.863
25334W        W89102  35.869  40.045   1.916
25335W        W89103  44.359  38.047  13.917
25336W        W89104  18.766  26.584   3.726
25337W        W89105   8.838  19.245   2.711
25338W        W89106  43.782  23.632  11.494
25339W        W89107   3.798   0.430   1.879
25340W        W89108  32.100  18.099   3.637
25341W        W89109  22.235  22.205  14.877
25342W        W89110  41.913  15.804   0.836
25343W        W89111  18.688  24.715  13.994
25344W        W89112  18.293  19.062  11.471
25345W        W89113  25.094  20.109   3.329
25346W        W89114  12.708  20.232  11.109
25347W        W89115  42.316  33.046   3.713
25348W        W89116   7.271  35.565  11.495
25349W        W89117  16.220  41.538  12.840
25350W        W89118  39.942  22.590  12.002
25351W        W89119  28.118  19.281   1.827
25352W        W89120  19.599  27.107  13.971
25353W        W89121   4.391  10.279   0.949
25354W        W89122  40.316  33.117  11.577
25355W        W89123  43.932   9.872  11.104
25356W        W89124  29.547   0.783  11.595
25357W        W89125   3.916  25.667  11.960
25358W        W89126  16.092  13.181  14.396
25359W        W89127   1.437  18.297   4.239
25360W        W89128  36.949  23.011   0.967
25361W        W89129  14.746   2.923   0.255
25362W        W89130  15.189  15.083   4.656
25363W        W89131   6.349  10.729  13.520
25364W        W89132  36.898  25.211  10.985
25365W        W89133  12.705   3.420   0.459
25366W        W89134  14.826  30.989   1.304
25367W        W89135  21.591  16.798  14.903
25368W        W89136  14.650  10.820  10.062
25369W        W89137  24.511  26.988  12.435
25370W        W89138  26.635  27.181   0.289
25371W        W89139  44.333  36.885   3.669
25372W        W89140   5.381   5.302   1.309
25373W        W89141  42.916  24.055  10.562
25374W        W89142  32.130  31.457  13.857
25375W        W89143   1.339  40.014   1.772
25376W        W89144  10.871  21.618   4.293
25377W        W89145   9.724  16.668   2.845
25378W        W89146   6.895  33.623   1.903
25379W        W89147  12.689  34.083  10.586
25380W        W89148  16.800   2.955  13.021
25381W        W89149  37.385  36.354  12.346
25382W        W89150  17.744  27.176   3.792
25383W        W89151  24.661  10.863  12.370
25384W        W89152  10.742  27.009  14.360
25385W        W89153   7.695  25.571  13.528
25386W        W89154  35.360  36.562   0.884
25387W        W89155   2.868  38.876  12.014
25388W        W89156  15.591  42.966  10.453
25389W        W89157  18.222  44.308   1.220
25390W        W89158  38.025   2.905  12.058
25391W        W89159  15.178   1.782  13.467
25392W        W89160  10.365  14.726  12.911
25393W        W89161  43.332   2.399  12.427
25394W        W89162  41.031  11.669   3.698
25395W        W89163  37.459  18.740  12.988
25396W        W89164   9.373  11.732  11.090
25397W        W89165  17.194   3.266  14.382
25398W        W89166  32.525  17.079   2.359
25399W        W89167  21.622  29.621   4.794
25400W        W89168  42.959  30.502  12.907
25401W        W89169  30.943  24.553  13.998
25402W        W89170  12.326   7.249  11.471
25403W        W89171  15.628  32.590   1.755
25404W        W89172  17.122  33.388  14.973
25405W        W89173  34.864  43.446  13.888
25406W        W89174  22.655   5.836   2.416
25407W        W89175  28.619   0.937  13.815
25408W        W89176  27.455   6.817   4.345
25409W        W89177  13.139  16.158  11.502
25410W        W89178  19.272  16.754   4.666
25411W        W89179  40.356  32.544   2.184
25412W        W89180  44.385  10.869  11.395
25413W        W89181   1.303   6.197   1.700
25414W        W89182  32.905  33.955   0.258
25415W        W89183   1.326  44.382  11.571
25416W        W89184   2.394  38.468   5.132
25417W        W89185   3.818  28.042   2.315
25418W        W89186  15.779  20.605   1.890
25419W        W89187  20.184  42.315  11.568
25420W        W89188   2.754  35.593   2.802
25421W        W89189  27.649  34.900  13.928
25422W        W89190  34.045  20.549   2.834
25423W        W89191  28.167  15.242  13.337
25424W        W89192  35.358  37.007  13.983
25425W        W89193   2.327  27.659   4.774
25426W        W89194  30.537  38.996   3.340
25427W        W89195   2.430  11.688   0.931
25428W        W89196  27.491  19.651  12.933
25429W        W89197  12.671   6.913   2.272
25430W        W89198  38.860  24.086  11.861
25431W        W89199  26.677   6.708   2.356
25432W        W89200   8.294  39.809   4.128
25433W        W89201   7.766  31.623   3.212
25434W        W89202  36.845  31.092  14.384
25435W        W89203  21.091  34.095  14.913
25436W        W89204   9.314  43.293   0.263
25437W        W89205  42.440  10.656  10.917
25438W        W89206  32.617  44.007  10.557
25439W        W89207  37.015  15.239  12.497
25440W        W89208  19.768   3.842   2.885
25441W        W89209  31.622   0.315  14.874
25442W        W89210   9.211  14.784   4.146
25443W        W89211  41.037  22.512  10.444
25444W        W89212  39.979   1.805  14.914
25445W        W89213  20.697   4.237   3.654
25446W        W89214  12.839  15.774   2.235
25447W        W89215  18.152  24.225  11.400
25448W        W89216  21.136  29.922  12.500
25449W        W89217  33.396  27.160  13.851
25450W        W89218  40.979  19.763  13.358
25451W        W89219  33.593  39.555   3.306
25452W        W89220   4.775  15.291   0.478
25453W        W89221  25.130  37.443   9.962
25454W        W89222   6.312  42.490   1.797
25455W        W89223  12.263  14.626   4.722
25456W        W89224  27.529  38.517  14.850
25457W        W89225  13.816   0.859   3.728
25458W        W89226  30.470  13.250  12.395
25459W        W89227  42.393  23.644   2.238
25460W        W89228  34.478  35.520  13.345
25461W        W89229  15.102   2.369   2.800
25462W        W89230  28.035  37.961  13.969
25463W        W89231   1.469  17.300  14.320
25464W        W89232  19.131  16.178   1.216
25465W        W89233  24.637   4.342   4.770
25466W        W89234   6.406  26.030   3.703
25467W        W89235  30.154   6.423   3.790
25468W        W89236  39.048   1.902   3.234
25469W        W89237  11.240  15.735  13.948
25470W        W89238  31.109  41.005  13.888
25471W        W89239  29.140  41.344   2.876
25472W        W89240  38.025  35.507  10.912
25473W        W89241  43.308  19.285  10.905
25474W        W89242  19.281  43.282   4.305
25475W        W89243  17.171   2.792   3.864
25476W        W89244  27.475  28.676  11.089
25477W        W89245  34.463   8.870  14.908
25478W        W89246  43.976  40.857  11.460
25479W        W89247   6.749  26.175   2.250
25480W        W89248   0.862   8.879  11.124
25481W        W89249  18.166  16.634  10.960
25482W        W89250  36.001  18.263  14.790
25483W        W89251   1.267  20.238   0.324
25484W        W89252  17.226  33.941   4.264
25485W        W89253  41.907  36.911  12.963
25486W        W89254  21.099  41.402   3.644
25487W        W89255  22.219  18.694   4.623
25488W        W89256  35.502  40.024  10.550
25489W        W89257   7.191  32.901  10.913
25490W        W89258  43.470  17.278  13.526
25491W        W89259   5.746  44.487   3.789
25492W        W89260   4.282   7.390  12.363
25493W        W89261  24.104   6.338   4.807
25494W        W89262  29.603  37.383  10.907
25495W        W89263  29.613   9.811   4.776
25496W        W89264  24.991  35.891  13.044
25497W        W89265  16.574  40.883   2.259
25498W        W89266  25.524  41.438  14.476
25499W        W89267   4.375   7.391  11.441
25500W        W89268  27.978   9.690  14.788
25501W        W89269   5.696  11.250   4.186
25502W        W89270   4.944  26.086   4.258
25503W        W89271   8.792  36.999   0.312
25504W        W89272  12.668  44.304   3.688
25505W        W89273  42.315  14.610   4.346
25506W        W89274   3.332   2.796  12.890
25507W        W89275   4.918  43.501  11.372
25508W        W89276  34.462  29.151  10.524
25509W        W89277  22.070  20.703   1.232
25510W        W89278  21.138   3.908   0.853
25511W        W89279   6.314  21.156   0.394
25512W        W89280  25.496  36.890  12.859
25513W        W89281  36.401  26.134   3.695
25514W        W89282   4.848  14.683  12.512
25515W        W89283  21.054   1.434   1.823
25516W        W89284  23.007  29.124   2.346
25517W        W89285  31.408  35.397  14.815
25518W        W89286  24.073  42.903   4.241
25519W        W89287  23.119   9.215   1.437
25520W        W89288  22.215  33.433  13.983
25521W        W89289  33.607  41.828   0.758
25522W        W89290  21.569  33.881   4.144
25523W        W89291  12.174  34.110   3.188
25524W        W89292  25.561  27.519  10.913
25525W        W89293  40.418  44.347  13.990
25526W        W89294  44.361  34.510  11.856
25527W        W89295  30.910   8.711   3.225
25528W        W89296  30.436  44.880  10.581
25529W        W89297  31.454  11.351   3.299
25530W        W89298  42.861  23.991  13.337
25531W        W89299  17.261  10.181   2.241
25532W        W89300  44.497  20.761   0.939
25533W        W89301   9.152  20.113   2.678
25534W        W89302   2.846  28.626   2.708
25535W        W89303  40.420   6.288  14.856
25536W        W89304   7.304  21.638   0.920
25537W        W89305   2.831  37.522  11.598
25538W        W89306   6.240   8.318  10.598
25539W        W89307  11.283   0.861   2.883
25540W        W89308  22.228   0.874   0.305
25541W        W89309  28.184   7.252   3.255
25542W        W89310  16.808  11.820   0.774
25543W        W89311  33.052  37.341  11.465
25544W        W89312   9.156  29.455  13.815
25545W        W89313  35.944  44.951  12.942
25546W        W89314   2.788  25.018  11.981
25547W        W89315  15.695  38.962   4.185
25548W        W89316  32.052  24.051   3.354
25549W        W89317  42.287  23.212   0.252
25550W        W89318   8.230   3.735   1.897
25551W        W89319  21.749   0.830   1.853
25552W        W89320  14.219   9.654   2.711
25553W        W89321  27.003  26.951  13.992
25554W        W89322  36.849  34.543   3.812
25555W        W89323   6.183  27.580  13.015
25556W        W89324  15.634  33.878  12.092
25557W        W89325   2.826  34.573  12.442
25558W        W89326  37.477  30.981   1.406
25559W        W89327  38.888  15.207  10.914
25560W        W89328   0.406  10.719  14.444
25561W        W89329   0.376   7.274  13.509
25562W        W89330  21.594  15.226  11.892
25563W        W89331  39.387  22.151   3.701
25564W        W89332  31.941   1.353   1.401
25565W        W89333  30.629  16.618  14.973
25566W        W89334  33.552  44.425  14.367
25567W        W89335   6.206   5.788   1.251
25568W        W89336  11.330  40.948  10.620
25569W        W89337  27.985   4.278  14.972
25570W        W89338  43.850  10.710  11.560
25571W        W89339   8.876  27.494   0.327
25572W        W89340  22.511  17.276   3.848
25573W        W89341  15.248  29.144   0.961
25574W        W89342  16.735   1.879  10.917
25575W        W89343  15.730  17.089   1.237
25576W        W89344  24.623  44.999  14.799
25577W        W89345  25.713  32.533  14.939
25578W        W89346   6.761  26.486   4.308
25579W        W89347  12.286  37.415  10.630
25580W        W89348   8.324  28.018   0.428
25581W        W89349  11.204  32.958  11.000
25582W        W89350  17.624  27.067  11.908
25583W        W89351  17.231  39.434   4.633
25584W        W89352  14.312   3.731  13.961
25585W        W89353  22.132  15.579   3.678
25586W        W89354  36.448  20.673  11.577
25587W        W89355  37.435  38.030   1.406
25588W        W89356  40.359  14.823   4.185
25589W        W89357  19.549  21.106  13.460
25590W        W89358  42.414  43.464  13.520
25591W        W89359   6.324   5.317  14.453
25592W        W89360   8.875  14.291  10.625
25593W        W89361  32.011  40.386   2.334
25594W        W89362  23.572   3.745   0.755
25595W        W89363  41.808   8.741   0.768
25596W        W89364   2.262   6.314   4.825
25597W        W89365  10.695  37.017   2.373
25598W        W89366  28.105   3.392  14.788
25599W        W89367  15.631   4.290   0.463
25600W        W89368  20.057  21.190   4.612
25601W        W89369  23.604  26.998  10.964
25602W        W89370  12.669  37.520  11.610
25603W        W89371  40.834  16.705   2.315
25604W        W89372  28.540  32.469  11.009
25605W        W89373   5.386  17.104   0.420
25606W        W89374   3.227   0.305  11.106
25607W        W89375   2.758  25.657   1.337
25608W        W89376  18.657   5.820  13.407
25609W        W89377  30.455   5.229   2.814
25610W        W89378  17.787  18.581   3.773
25611W        W89379   0.256  42.315  10.588
25612W        W89380  12.278  21.720  11.975
25613W        W89381  11.664  11.328   0.952
25614W        W89382  30.559   2.840   4.744
25615W        W89383   4.893  23.534  12.985
25616W        W89384  30.458  39.922  13.411
25617W        W89385  18.251  30.561  12.471
25618W        W89386  36.857  15.211  14.487
25619W        W89387  24.496   0.482  13.947
25620W        W89388  44.269  43.000   1.832
25621W        W89389  13.648  19.765  10.015
25622W        W89390   3.946   6.357  10.031
25623W        W89391   4.800  41.397  14.444
25624W        W89392  43.913  10.312  12.403
25625W        W89393  25.972  19.652  11.596
25626W        W89394  23.681  42.371   0.294
25627W        W89395  43.919   2.424  13.377
25628W        W89396  35.364  21.131  12.879
25629W        W89397  37.492  33.476  11.605
25630W        W89398  20.229  32.482   4.766
25631W        W89399  25.181  21.534   3.372
25632W        W89400  38.911  24.983   1.301
25633W        W89401  18.293  12.247  12.999
25634W        W89402  43.898   6.288  14.820
25635W        W89403  41.484  23.021  12.482
25636W        W89404  16.219  37.485   1.435
25637W        W89405  44.466  42.361  14.897
25638W        W89406   4.782  21.091   3.750
25639W        W89407  23.226  33.909   9.600
25640W        W89408  34.546  28.452   0.913
25641W        W89409  16.689   8.889   2.265
25642W        W89410   2.805   6.709  12.064
25643W        W89411   8.672  19.052   3.803
25644W        W89412  29.074  37.478   3.242
25645W        W89413  21.178   2.316   3.208
25646W        W89414  19.282  22.174   1.919
25647W        W89415  27.527  26.533   1.444
25648W        W89416  14.591   7.708  14.840
25649W        W89417   4.924  19.674   0.408
25650W        W89418  27.110   8.306  12.959
25651W        W89419  16.073  43.006  12.096
25652W        W89420  28.518  43.272  10.967
25653W        W89421  16.603  25.092   5.165
25654W        W89422  14.260  24.702  13.934
25655W        W89423   8.834  13.666   3.751
25656W        W89424  20.054  19.194  12.357
25657W        W89425  22.582  29.007   3.187
25658W        W89426  23.659  33.421   1.237
25659W        W89427  12.822  36.591  11.449
25660W        W89428  41.906  36.891   3.787
25661W        W89429  41.841  11.659  10.034
25662W        W89430  27.082  44.765   2.371
25663W        W89431  35.036  24.135   1.293
25664W        W89432  25.641   4.926   1.250
25665W        W89433  17.636  21.732   3.211
25666W        W89434   4.921  29.060  10.101
25667W        W89435   2.860  41.915  14.497
25668W        W89436  39.402  40.379  11.569
25669W        W89437  44.435  10.166  13.840
25670W        W89438  41.880  36.028  14.511
25671W        W89439  24.679  44.434   0.284
25672W        W89440  33.401  32.101  13.836
25673W        W89441  38.375  33.068  12.046
25674W        W89442  24.577  18.287  12.887
25675W        W89443  15.283  33.570   4.831
25676W        W89444   2.331  22.637   3.732
25677W        W89445  44.416  34.568  12.393
25678W        W89446  19.779  19.039  11.058
25679W        W89447  22.040  25.122   3.710
25680W        W89448   7.759  18.662   3.824
25681W        W89449  33.049  33.384   2.342
25682W        W89450  23.717  37.869  13.859
25683W        W89451  28.581  26.150   2.236
25684W        W89452  26.173  27.589   3.720
25685W        W89453  36.474  39.373   0.368
25686W        W89454  36.873  27.681   4.693
25687W        W89455  40.893  37.432  14.797
25688W        W89456  19.609  27.024   2.316
25689W        W89457  14.255  28.550   1.848
25690W        W89458  38.336  17.777   0.320
25691W        W89459  25.596  19.599   2.692
25692W        W89460  20.535  12.334   2.327
25693W        W89461  30.998  18.708  11.987
25694W        W89462  23.500  31.411   3.254
25695W        W89463   9.792  19.138   2.903
25696W        W89464   6.329  12.262  12.994
25697W        W89465  36.428  25.037  14.462
25698W        W89466  20.126  31.457  11.952
25699W        W89467   2.967  37.377   9.958
25700W        W89468  11.192  12.658   1.855
25701W        W89469  36.038  12.330  13.829
25702W        W89470  15.599  28.489   1.808
25703W        W89471  38.845  38.533  12.993
25704W        W89472   7.785  12.313  12.569
25705W        W89473   8.355  15.190  14.912
25706W        W89474   0.397  35.003  14.789
25707W        W89475  24.167  36.960   1.250
25708W        W89476  39.382  41.826   2.390
25709W        W89477  34.072  13.714  13.012
25710W        W89478  37.510   3.314   4.348
25711W        W89479  18.567  35.031  13.988
25712W        W89480   2.886  27.600  11.992
25713W        W89481  15.704   5.821  13.440
25714W        W89482   7.669  31.531  13.870
25715W        W89483  18.789  15.606  14.848
25716W        W89484  40.823  37.573  10.559
25717W        W89485  10.198   7.806   5.214
25718W        W89486  13.844  38.344   4.290
25719W        W89487  26.591  28.149   3.387
25720W        W89488  30.462  18.569   1.334
25721W        W89489  33.446  24.495   2.205
25722W        W89490  12.684  33.083   0.345
25723W        W89491  30.575  25.967   3.191
25724W        W89492  24.560  31.493  14.997
25725W        W89493  33.067  13.262  13.814
25726W        W89494   5.759  44.893   4.192
25727W        W89495   7.313  40.970  13.929
25728W        W89496  42.293  42.993  13.998
25729W        W89497   3.346  38.436   1.808
25730W        W89498  37.344  41.960   4.195
25731W        W89499   4.414  34.981   3.176
25732W        W89500  15.128  18.281   2.257
25733W        W89501  42.429  38.973   0.475
25734W        W89502  44.285  20.084  10.600
25735W        W89503   0.390  34.416  14.975
25736W        W89504  30.492  35.381  10.478
25737W        W89505   1.795  37.363   3.795
25738W        W89506  23.673  14.199  11.502
25739W        W89507  30.441  23.698   3.289
25740W        W89508  31.554   7.678   4.641
25741W        W89509  33.905  14.291   0.897
25742W        W89510  16.174  32.440   5.172
25743W        W89511  10.733  25.485   0.469
25744W        W89512  22.093  43.463  12.037
25745W        W89513   1.760  35.416  12.530
25746W        W89514  39.982  41.995  11.903
25747W        W89515   8.843   2.437  14.858
25748W        W89516  42.475   7.224   2.662
25749W        W89517  25.143   7.904  14.387
25750W        W89518  22.173  32.040   2.753
25751W        W89519  35.457  14.293   2.663
25752W        W89520  36.548  25.209  11.079
25753W        W89521  41.854  23.689   1.275
25754W        W89522   1.417  22.096   0.788
25755W        W89523  32.572  13.119  14.805
25756W        W89524  27.004  12.795   5.800
25757W        W89525  27.194  13.225   3.831
25758W        W89526  10.224   7.210   3.195
25759W        W89527  43.962  41.512  11.068
25760W        W89528  29.098  23.007   3.186
25761W        W89529  33.525  42.381   4.163
25762W        W89530  12.227  18.081  11.116
25763W        W89531   3.775  28.154   2.814
25764W        W89532  43.780  34.899   0.843
25765W        W89533  18.670  36.502  13.431
25766W        W89534  22.641  35.973   5.274
25767W        W89535  42.874  27.944  12.915
25768W        W89536  13.822  11.659  14.788
25769W        W89537  23.055   8.182   2.684
25770W        W89538  37.401  25.655  12.413
25771W        W89539  25.697   8.397   1.228
25772W        W89540   5.704  37.850  11.940
25773W        W89541  13.344  40.376   0.853
25774W        W89542  23.563   1.255   2.379
25775W        W89543  23.231  26.102  12.434
25776W        W89544  43.366  44.876  10.544
25777W        W89545  36.874  32.036  14.805
25778W        W89546  34.515   5.842  13.811
25779W        W89547  35.409   2.453  14.489
25780W        W89548  33.519  34.444  14.386
25781W        W89549  43.885  29.615  11.912
25782W        W89550  29.953  17.114   4.252
25783W        W89551  36.360  30.164   5.193
25784W        W89552  12.128  37.345   4.198
25785W        W89553  20.163   7.730  12.463
25786W        W89554  24.999  17.290   3.328
25787W        W89555  32.116  16.272  11.020
25788W        W89556   6.419   5.886   4.821
25789W        W89557  10.334  27.526   3.651
25790W        W89558  30.584  30.484  11.582
25791W        W89559  42.307  42.409   0.362
25792W        W89560  39.903   1.906   1.844
25793W        W89561  30.154  35.073   0.912
25794W        W89562  29.647  16.164   0.322
25795W        W89563  10.343  20.226   3.857
25796W        W89564   8.302   9.284  12.047
25797W        W89565   8.342   3.435  11.103
25798W        W89566   5.304  15.179  10.988
25799W        W89567  23.149  21.245   2.199
25800W        W89568  37.420   4.829   3.736
25801W        W89569  18.102  38.399  13.308
25802W        W89570   4.383  32.405  12.056
25803W        W89571   8.380  15.306  12.478
25804W        W89572  39.380  13.131  14.985
25805W        W89573   7.837  11.309   0.380
25806W        W89574  18.777  26.691   2.399
25807W        W89575  39.886  11.292  12.576
25808W        W89576   2.255  19.650  11.592
25809W        W89577  20.580  37.432   0.740
25810W        W89578  14.804  36.518   5.289
25811W        W89579   1.806  16.280   3.829
25812W        W89580  21.594  18.617  10.891
25813W        W89581  11.645  43.803   1.345
25814W        W89582  21.234   2.722  13.800
25815W        W89583  36.493  28.670  11.992
25816W        W89584  17.605  19.234  13.419
25817W        W89585  42.954  17.757  11.116
25818W        W89586   9.766  43.880   0.281
25819W        W89587  38.459  28.021   4.119
25820W        W89588  16.610  42.017   1.908
25821W        W89589  15.620  10.765  13.510
25822W        W89590  15.086  28.176  14.276
25823W        W89591  39.950  23.650  13.332
25824W        W89592  33.981  16.654  12.077
25825W        W89593  26.978  24.714  10.633
25826W        W89594  10.768  19.670   0.871
25827W        W89595  23.569  43.394  14.323
25828W        W89596  10.754   2.919   2.352
25829W        W89597  21.120  18.117   4.156
25830W        W89598  38.518  11.738   0.865
25831W        W89599  20.055  42.984   2.763
25832W        W89600  18.657  20.748  14.506
25833W        W89601  31.073   7.675  10.519
25834W        W89602  24.111  34.042  13.430
25835W        W89603   8.686  26.199  12.967
25836W        W89604  42.362  29.495  12.999
25837W        W89605  36.484  29.069  12.528
25838W        W89606   4.777  17.189   5.244
25839W        W89607  35.975  22.692   0.832
25840W        W89608   4.380  29.949  13.449
25841W        W89609  39.505  34.065  11.067
25842W        W89610   3.398  16.260   0.916
25843W        W89611  40.007  21.515   0.867
25844W        W89612  41.024  30.497  12.565
25845W        W89613   0.461  41.305  11.517
25846W        W89614  21.555  34.573  12.350
25847W        W89615  19.131  44.848   0.924
25848W        W89616  29.950  30.609   2.706
25849W        W89617  22.071  34.574  13.003
25850W        W89618  25.124  41.822   2.375
25851W        W89619  33.569  30.502   2.387
25852W        W89620   5.402  22.682  12.345
25853W        W89621  36.423  32.021  11.423
25854W        W89622  13.634  35.452   2.893
25855W        W89623  28.445  31.592   1.844
25856W        W89624  42.398  37.506  13.828
25857W        W89625   4.280   3.344   3.866
25858W        W89626   4.891  28.077   5.228
25859W        W89627  12.801   3.326  10.151
25860W        W89628   5.706  37.527   2.330
25861W        W89629   5.882  22.172  10.584
25862W        W89630   1.400  21.227   2.377
25863W        W89631  19.163   3.358  10.947
25864W        W89632  34.488  19.042   3.327
25865W        W89633   7.379   7.352  14.799
25866W        W89634  44.315  34.443   4.198
25867W        W89635  33.424  20.205   2.903
25868W        W89636  38.418  14.321  10.425
25869W        W89637   0.471  40.806   2.258
25870W        W89638  16.655  22.012   3.190
25871W        W89639  32.950  38.410   0.288
25872W        W89640  34.582  12.176   2.804
25873W        W89641  42.464   9.770  13.947
25874W        W89642   1.385  38.436  12.830
25875W        W89643  40.468  43.400  13.470
25876W        W89644  17.307  40.982  14.506
25877W        W89645  21.528   3.928   0.801
25878W        W89646   5.836   3.351  11.973
25879W        W89647  42.919  37.444  12.410
25880W        W89648  20.033  44.775   2.790
25881W        W89649  43.820  33.396  12.831
25882W        W89650  10.356   9.314  10.642
25883W        W89651  16.778  38.558  14.439
25884W        W89652   7.726  25.169   1.916
25885W        W89653  44.824  14.310  12.952
25886W        W89654   9.887  14.247   3.857
25887W        W89655  41.833  27.613   1.274
25888W        W89656  10.385  34.550   2.224
25889W        W89657  40.841  44.887  10.934
25890W        W89658  12.699   2.938  10.412
25891W        W89659  34.109  21.156   4.257
25892W        W89660  41.949  14.256   0.823
25893W        W89661   6.339  22.083   2.364
25894W        W89662  10.318  42.454   4.263
25895W        W89663  43.839  27.127   0.271
25896W        W89664  25.634  22.557  14.784
25897W        W89665   3.367  32.570   0.419
25898W        W89666  39.437   1.372   3.681
25899W        W89667  15.169  34.082  10.476
25900W        W89668   8.875  16.660   2.855
25901W        W89669   4.348  37.400  10.631
25902W        W89670   2.276   6.213  11.102
25903W        W89671   1.951  13.261  12.918
25904W        W89672  23.714  40.502  11.924
25905W        W89673  42.392  38.021  13.864
25906W        W89674  18.773   3.838  13.013
25907W        W89675  12.819  31.611  14.878
25908W        W89676   8.310   7.355   1.930
25909W        W89677  36.347  16.740   0.782
25910W        W89678  37.461  13.692  14.958
25911W        W89679  44.293  41.830  11.480
25912W        W89680   8.192  23.570   4.299
25913W        W89681  36.374  29.044  10.601
25914W        W89682  18.681  24.668  14.875
25915W        W89683  28.138   2.313  10.474
25916W        W89684  33.448  11.726   2.676
25917W        W89685  36.090  25.603   1.917
25918W        W89686  37.842  24.645   1.271
25919W        W89687  12.660   7.184  10.572
25920W        W89688   0.261  24.708  13.847
25921W        W89689  41.044  35.914  14.930
25922W        W89690  16.621   9.159   1.699
25923W        W89691  34.502   8.312  11.581
25924W        W89692  21.703   3.729  13.441
25925W        W89693  40.549  28.455  12.462
25926W        W89694   8.741  25.114  14.007
25927W        W89695  19.709   6.289   1.859
25928W        W89696  33.994  33.557   0.463
25929W        W89697  26.485  16.623  11.988
25930W        W89698   5.717  39.925  14.955
25931W        W89699   0.324   0.801  11.038
25932W        W89700  24.162  13.128  11.901
25933W        W89701   2.762  14.209  12.909
25934W        W89702   8.761  17.100   1.306
25935W        W89703  36.473  20.201   2.255
25936W        W89704  10.372  20.670   3.801
25937W        W89705   8.736  27.955  14.791
25938W        W89706  38.459  16.765   3.788
25939W        W89707  33.415  25.509  11.926
25940W        W89708  12.118  37.910   0.474
25941W        W89709  18.158   8.243   3.657
25942W        W89710   5.688  13.261   0.242
25943W        W89711  17.161  27.574  14.353
25944W        W89712  31.019  28.981   5.287
25945W        W89713  30.923  42.512  12.885
25946W        W89714  13.837  43.894  11.570
25947W        W89715   4.875   8.163  14.980
25948W        W89716  14.734   0.457   2.686
25949W        W89717   7.880  41.966   4.118
25950W        W89718  26.572  13.803  14.285
25951W        W89719  26.031   9.258  12.840
25952W        W89720  11.695  34.964  14.439
25953W        W89721  19.561  28.550  13.404
25954W        W89722  35.562   5.833  14.345
25955W        W89723  44.401  38.062   3.341
25956W        W89724  24.176  37.855   2.791
25957W        W89725   5.371  19.076  11.068
25958W        W89726   9.773  36.903  14.417
25959W        W89727  43.371  38.520  13.355
25960W        W89728  42.826  11.656   2.801
25961W        W89729  32.970  27.106  13.953
25962W        W89730  24.701   5.923  14.996
25963W        W89731  20.117  11.325   3.265
25964W        W89732  30.109  27.502   3.304
25965W        W89733  32.992  21.224   4.746
25966W        W89734   0.255   1.858   0.890
25967W        W89735   3.790  42.286  13.050
25968W        W89736   2.316  35.998   3.750
25969W        W89737  13.344  41.394   1.724
25970W        W89738  39.864  43.349  10.426
25971W        W89739  17.630  23.662   4.335
25972W        W89740  24.178  32.888   3.300
25973W        W89741  27.509  14.655   1.855
25974W        W89742   2.925   6.773  13.019
25975W        W89743  11.861  35.963   0.809
25976W        W89744  35.968  11.866  10.502
25977W        W89745  31.644  31.092  10.593
25978W        W89746  20.065   0.774   2.678
25979W        W89747  42.318  19.103  11.015
25980W        W89748  28.495  40.879   0.844
25981W        W89749   5.320  22.058   4.201
25982W        W89750  23.164  24.623  12.010
25983W        W89751   6.305   0.785  14.347
25984W        W89752  44.421  24.051   2.191
25985W        W89753  15.691  38.869  12.039
25986W        W89754  39.429  41.801  12.961
25987W        W89755  41.822  10.806  10.473
25988W        W89756   0.812  36.437   4.305
25989W        W89757  35.016  20.656   0.351
25990W        W89758  32.004  10.684  14.857
25991W        W89759  42.883  40.882   4.148
25992W        W89760   0.931  18.088  12.530
25993W        W89761   5.320  34.524  11.530
25994W        W89762  42.019  15.213  14.321
25995W        W89763   2.957  28.475  12.885
25996W        W89764  40.860  29.640  12.053
25997W        W89765  41.911  40.940  14.994
25998W        W89766  13.193  30.617  13.900
25999W        W89767   8.812  17.064   1.747
26000W        W89768   1.287  20.597   1.376
26001W        W89769   6.248   8.700  12.877
26002W        W89770  23.575  38.524  11.953
26003W        W89771  34.414  30.163   2.888
26004W        W89772  10.378  22.030   1.238
26005W        W89773   3.805  30.418  12.935
26006W        W89774   4.826  35.579   1.282
26007W        W89775  21.017  20.607   1.781
26008W        W89776  32.100  38.982   4.730
26009W        W89777  14.119  12.757  13.981
26010W        W89778   6.777  11.691  13.844
26011W        W89779  37.942   2.259  12.543
26012W        W89780  19.169  41.892   4.781
26013W        W89781  25.991  32.460  11.870
26014W        W89782  34.417  14.121  14.989
26015W        W89783   4.330  24.560   3.861
26016W        W89784  24.552  15.106  13.899
26017W        W89785  24.008  19.273   0.754
26018W        W89786  22.032  32.094   1.932
26019W        W89787  40.908  41.511   3.360
26020W        W89788   3.797  31.615  10.580
26021W        W89789   4.367  30.514  10.964
26022W        W89790  41.859   0.981  14.295
26023W        W89791  33.992   2.956  10.580
26024W        W89792  42.781  21.690  13.876
26025W        W89793  37.955  14.760   3.739
26026W        W89794  33.415  25.962   0.316
26027W        W89795  12.322  31.446   1.328
26028W        W89796   8.662  27.449   2.808
26029W        W89797   5.275  32.908   1.827
26030W        W89798  36.920   8.165   3.797
26031W        W89799  20.579  32.447   5.737
26032W        W89800   1.787  24.703  13.877
26033W        W89801  36.057   7.816  11.434
26034W        W89802   0.466  12.754   4.240
26035W        W89803  42.312  17.702  10.407
26036W        W89804  20.261  40.961   2.723
26037W        W89805  31.954   0.826   2.780
26038W        W89806  39.441  17.659  13.313
26039W        W89807   6.226  32.628   4.201
26040W        W89808  28.175  14.593   1.888
26041W        W89809   4.334   6.366   4.713
26042W        W89810  29.019  17.133   1.354
26043W        W89811  20.092   9.797  12.829
26044W        W89812  35.380  41.444  13.460
26045W        W89813  15.672  14.749  13.900
26046W        W89814  25.647  33.927   2.780
26047W        W89815   3.242   2.254   3.281
26048W        W89816   0.336   7.359   2.848
26049W        W89817  12.148  37.403   3.815
26050W        W89818   2.422  24.483  13.371
26051W        W89819  43.990  36.471   4.812
26052W        W89820   2.456  30.619   4.812
26053W        W89821  12.820  19.087  10.939
26054W        W89822   2.346   6.706  13.507
26055W        W89823   9.252   9.801  12.896
26056W        W89824   1.900  44.502  11.985
26057W        W89825  15.794  16.643  14.506
26058W        W89826  23.619  21.127  12.357
26059W        W89827   4.220  17.618  14.493
26060W        W89828  18.144  16.302   3.689
26061W        W89829  41.787  22.603   2.306
26062W        W89830  34.898   9.169  12.843
26063W        W89831  18.633  33.537   3.365
26064W        W89832  14.339  24.046   3.633
26065W        W89833  13.137  21.645   3.356
26066W        W89834  33.626  26.475   5.181
26067W        W89835  22.616  32.517  14.799
26068W        W89836  33.449  38.040   9.957
26069W        W89837  26.086  41.321   0.853
26070W        W89838  44.501  32.415  14.786
26071W        W89839  14.097  21.118  10.433
26072W        W89840  40.840   0.384   4.346
26073W        W89841  27.572   7.911  14.324
26074W        W89842   6.834  11.677   2.412
26075W        W89843  43.992  32.627   3.721
26076W        W89844  38.427  37.526  13.365
26077W        W89845  23.598   4.250  13.938
26078W        W89846  37.554   1.791  14.376
26079W        W89847  29.435  27.982  11.026
26080W        W89848  29.591  35.522  12.547
26081W        W89849   4.825  23.133  14.487
26082W        W89850  19.703  40.391   3.258
26083W        W89851   4.935  21.050  10.490
26084W        W89852   5.431  28.122  13.317
26085W        W89853  44.006  14.603   1.416
26086W        W89854   4.835   4.736  13.816
26087W        W89855  30.655  30.120  14.403
26088W        W89856   6.809  16.208  14.393
26089W        W89857  38.963  18.691  12.964
26090W        W89858  36.593  28.577   0.471
26091W        W89859  15.156  13.817  13.947
26092W        W89860  42.523   0.905  11.050
26093W        W89861  28.097   5.717  14.463
26094W        W89862  19.666  13.701   4.132
26095W        W89863  20.646  27.521  12.861
26096W        W89864  19.262  44.998   1.812
26097W        W89865  39.487  41.376  12.837
26098W        W89866  11.743   2.307  12.926
26099W        W89867  29.089   2.964  13.816
26100W        W89868  27.008  40.894   1.781
26101W        W89869  32.606  21.121   0.731
26102W        W89870   0.980  24.512  13.045
26103W        W89871  20.126   9.745  10.532
26104W        W89872  38.430  34.946  12.912
26105W        W89873  30.621  35.883   3.233
26106W        W89874  20.089   1.261   4.641
26107W        W89875  35.923  40.497  14.427
26108W        W89876   6.692  39.511   2.231
26109W        W89877  26.564  32.502  12.521
26110W        W89878  34.101  42.299   2.685
26111W        W89879  12.292  15.138  13.800
26112W        W89880  41.818  22.737  12.019
26113W        W89881   8.897  43.778   2.419
26114W        W89882  39.427  33.896  12.409
26115W        W89883  39.546  10.728  10.958
26116W        W89884  22.644  39.859   3.217
26117W        W89885  29.473  41.898   1.842
26118W        W89886   5.430  44.365  13.802
26119W        W89887  27.562  44.473   3.146
26120W        W89888  13.667  19.684  10.535
26121W        W89889  10.296   5.390   1.725
26122W        W89890   9.819  29.553   4.328
26123W        W89891   2.296   7.284   0.822
26124W        W89892  11.682  23.728   2.667
26125W        W89893   8.833  27.622   0.767
26126W        W89894   4.701  15.127   1.799
26127W        W89895  37.890  24.545   3.356
26128W        W89896  13.253  10.204  11.932
26129W        W89897  41.019  11.316  13.045
26130W        W89898  44.499   5.802  11.497
26131W        W89899  25.113  17.135   4.158
26132W        W89900  40.946  25.156   1.782
26133W        W89901  21.627  24.549   2.735
26134W        W89902  20.734  10.157   0.352
26135W        W89903  17.264  38.075  14.347
26136W        W89904  35.480  39.479   0.918
26137W        W89905   5.740  41.383  10.925
26138W        W89906  17.250  26.204   0.473
26139W        W89907  19.613  41.530  14.963
26140W        W89908  31.450   3.760   2.852
26141W        W89909  42.989  25.596   4.238
26142W        W89910  10.789  16.796   2.779
26143W        W89911   6.844  15.300   2.779
26144W        W89912  28.159  34.453   9.487
26145W        W89913  41.448  19.248  11.038
26146W        W89914  41.870  44.431   0.785
26147W        W89915  14.115  20.702  13.360
26148W        W89916  26.686   7.792   3.817
26149W        W89917   8.723  32.415   2.673
26150W        W89918   9.217  36.581  11.526
26151W        W89919  33.423  16.167   1.245
26152W        W89920  18.189  43.854   3.827
26153W        W89921  20.695  16.605  12.045
26154W        W89922  11.627  42.458  11.120
26155W        W89923  34.883  38.408  11.867
26156W        W89924  24.571   0.976  11.510
26157W        W89925   8.842   5.802  14.496
26158W        W89926  22.695  39.967   4.253
26159W        W89927  14.219  18.557   4.832
26160W        W89928  14.806  37.404   5.134
26161W        W89929  11.788  33.480  13.037
26162W        W89930  14.297  13.665  14.409
26163W        W89931  38.464  17.761   1.426
26164W        W89932  10.793  29.167   4.658
26165W        W89933   6.854  17.218   4.249
26166W        W89934   6.763  37.520  12.092
26167W        W89935  14.647  31.448  11.008
26168W        W89936  25.129  13.251   3.285
26169W        W89937  41.334  33.044  10.503
26170W        W89938  17.157  44.872   0.950
26171W        W89939  16.750  25.481   0.799
26172W        W89940  25.219  10.787  10.914
26173W        W89941  36.464   8.233  13.480
26174W        W89942   5.920   9.719  11.963
26175W        W89943  38.327  10.310   5.137
26176W        W89944   7.375  11.721   1.311
26177W        W89945  24.651  22.042   0.313
26178W        W89946  41.023  17.748  11.050
26179W        W89947   7.809  40.336   9.968
26180W        W89948  13.221   8.761  13.347
26181W        W89949   2.803  20.111  11.485
26182W        W89950  18.129  25.710   0.757
26183W        W89951  27.538   0.883  13.895
26184W        W89952   8.702   3.931  14.315
26185W        W89953   5.818   9.207   3.692
26186W        W89954   2.790   7.787  14.779
26187W        W89955  37.349  32.074  14.419
26188W        W89956  11.854  41.442   1.394
26189W        W89957  40.403   8.754   0.298
26190W        W89958  44.972  42.005  11.938
26191W        W89959  19.706  36.530   3.727
26192W        W89960  39.008   8.196  12.066
26193W        W89961  35.897  43.892   4.833
26194W        W89962   1.787  44.992  14.890
26195W        W89963   2.282  31.001  11.464
26196W        W89964  26.667  31.127   1.364
26197W        W89965  20.636  19.116   1.715
26198W        W89966  28.523  39.917   3.757
26199W        W89967  40.375  14.640   2.760
26200W        W89968  26.486  34.970  13.420
26201W        W89969  31.911  28.987  14.289
26202W        W89970   9.354   2.396  11.564
26203W        W89971  25.593  10.314   4.714
26204W        W89972   0.284  34.511  10.921
26205W        W89973   7.852  30.581  13.542
26206W        W89974  36.455   3.224   2.878
26207W        W89975  11.255  33.103  14.793
26208W        W89976   4.704  11.660  13.463
26209W        W89977   2.242  20.677   0.371
26210W        W89978  29.452   6.685   3.278
26211W        W89979  42.345  41.864   1.761
26212W        W89980  38.846   2.457  11.116
26213W        W89981   1.297  18.156  11.439
26214W        W89982  36.441  13.665  13.456
26215W        W89983  14.666  41.478   2.670
26216W        W89984  21.618  40.458  13.870
26217W        W89985  35.452  13.691   0.420
26218W        W89986  32.098  38.418   0.274
26219W        W89987  28.552  41.956   0.388
26220W        W89988  36.358  23.115   1.783
26221W        W89989  14.589  26.558  14.939
26222W        W89990  19.758   9.200   1.746
26223W        W89991   7.372  33.042   4.756
26224W        W89992  25.470  23.592   2.359
26225W        W89993  12.843   1.323  11.483
26226W        W89994   7.239   0.492   1.703
26227W        W89995  23.008  34.615   4.281
26228W        W89996  37.865  43.514  11.041
26229W        W89997  18.111  42.512   2.179
26230W        W89998   6.351   0.464   0.468
26231W        W89999  32.934  15.799  14.939
26232W        W90000   2.964  27.181   3.757
26233W        W90001  38.921  34.083  13.512
26234W        W90002   5.725  11.159   2.383
26235W        W90003  24.057  44.333   2.340
26236W        W90004   3.857  36.363  14.905
26237W        W90005  32.052  43.969   4.696
26238W        W90006  44.867   3.400  14.932
26239W        W90007  25.078  30.922   3.193
26240W        W90008  31.541  18.125   5.170
26241W        W90009   3.742   0.262   2.897
26242W        W90010   6.282  43.295  12.486
26243W        W90011  16.709  37.863  10.993
26244W        W90012  33.076   9.297  12.924
26245W        W90013  22.538  32.440   4.738
26246W        W90014   5.359  39.810   3.742
26247W        W90015  24.600  24.055   4.346
26248W        W90016   3.820  33.411   1.258
26249W        W90017  27.185  37.887   2.751
26250W        W90018   1.836  20.647  11.464
26251W        W90019  42.397  16.085  11.515
26252W        W90020  13.607  20.260  14.985
26253W        W90021   7.345  29.468   4.763
26254W        W90022  12.337   2.399   0.931
26255W        W90023   8.750  30.914   3.149
26256W        W90024   3.440   5.703  14.448
26257W        W90025   2.850  13.706  12.087
26258W        W90026  33.567   4.783   4.711
26259W        W90027  26.640   2.338  12.048
26260W        W90028  13.812  34.571  11.007
26261W        W90029  29.093  26.154   2.722
26262W        W90030  18.123   2.257   1.236
26263W        W90031  21.180  32.578  10.927
26264W        W90032  11.321   1.892  13.432
26265W        W90033  24.623  23.150  11.986
26266W        W90034  25.198  11.156   2.401
26267W        W90035  20.086  39.996  14.335
26268W        W90036  16.593  17.652  10.899
26269W        W90037  37.895  27.035   2.766
26270W        W90038   7.718   9.178  10.590
26271W        W90039  10.800  35.087  11.569
26272W        W90040  32.612   4.318   0.801
26273W        W90041  24.036  38.560  10.639
26274W        W90042  40.935  26.557   1.255
26275W        W90043  20.177   4.283   3.675
26276W        W90044  12.737   7.404   2.690
26277W        W90045  15.216  25.027  14.967
26278W        W90046  13.140  38.034  10.605
26279W        W90047  30.625  28.035   3.870
26280W        W90048  11.640  36.414  13.510
26281W        W90049   3.285  22.055  10.905
26282W        W90050  43.389  15.642   1.315
26283W        W90051  10.358  42.405   0.376
26284W        W90052   6.372  23.539  13.901
26285W        W90053   0.298  13.244  12.853
26286W        W90054   7.868  36.576   0.761
26287W        W90055  14.623  21.633   4.752
26288W        W90056  25.163  13.797  14.357
26289W        W90057  12.239  15.595  14.413
26290W        W90058  37.960   5.265   4.181
26291W        W90059  23.012  36.407   9.951
26292W        W90060  19.660  29.630  14.319
26293W        W90061  13.634  38.521   1.754
26294W        W90062  12.831   6.830   3.849
26295W        W90063  36.841  26.115  11.107
26296W        W90064  37.064  44.916   1.838
26297W        W90065  39.874  27.054  12.077
26298W        W90066  31.083  20.199   3.349
26299W        W90067  30.084  12.249   1.256
26300W        W90068  13.135  17.802   0.799
26301W        W90069  30.074  19.162   2.728
26302W        W90070  40.461   6.692  10.971
26303W        W90071  39.534  16.797  12.573
26304W        W90072  28.436  37.454   4.818
26305W        W90073  33.405  23.623  12.427
26306W        W90074  32.517  16.147   0.731
26307W        W90075  39.998   0.790   4.141
26308W        W90076  38.388  38.947  10.035
26309W        W90077  19.164  22.019   2.708
26310W        W90078  42.371  36.941  13.369
26311W        W90079  43.285  26.147   3.162
26312W        W90080  22.528   9.257   1.408
26313W        W90081  35.560  42.376  14.767
26314W        W90082   2.872  12.296  14.328
26315W        W90083   9.392  24.055   3.834
26316W        W90084   9.299   6.276   2.395
26317W        W90085  33.601  39.558  13.308
26318W        W90086  44.502  10.174   4.231
26319W        W90087  12.752  37.366   5.116
26320W        W90088  44.444  21.243   9.937
26321W        W90089   2.246  38.464  13.424
26322W        W90090   9.357   4.881  11.015
26323W        W90091   9.253  25.996  12.083
26324W        W90092  36.029  17.088   4.312
26325W        W90093  16.149  19.256   1.756
26326W        W90094   3.817  24.485   0.940
26327W        W90095  18.229   2.875   4.261
26328W        W90096   5.898  28.137  10.932
26329W        W90097   4.397  44.302   4.258
26330W        W90098  42.826  18.597   4.618
26331W        W90099   6.902  20.101  14.882
26332W        W90100  29.110  19.043  10.889
26333W        W90101  18.764  23.573   4.207
26334W        W90102  28.175   6.304   1.406
26335W        W90103  12.718  37.864   4.144
26336W        W90104   4.785  14.186  10.625
26337W        W90105  20.272  26.559   3.247
26338W        W90106  43.458  25.211  11.012
26339W        W90107  27.053  44.418  12.558
26340W        W90108  33.435  15.605   4.640
26341W        W90109  43.310  15.198   3.361
26342W        W90110  24.525  13.299  11.592
26343W        W90111  33.987   1.783   3.211
26344W        W90112  18.231   9.207  11.896
26345W        W90113  30.008   3.744  10.569
26346W        W90114  20.193  37.866  12.922
26347W        W90115  37.947  21.636   0.471
26348W        W90116   8.304  42.314  14.370
26349W        W90117  21.088  37.340  12.937
26350W        W90118  23.101  12.200   1.291
26351W        W90119  35.602  13.819   4.196
26352W        W90120  36.875  38.566  12.045
26353W        W90121  44.923  16.267   4.650
26354W        W90122  24.614   5.893   1.376
26355W        W90123  20.227  19.042   3.871
26356W        W90124  27.654  41.444   2.216
26357W        W90125  37.472   5.348   0.792
26358W        W90126  35.412  29.925  14.346
26359W        W90127  36.013  13.257   1.906
26360W        W90128   2.298  30.949   2.255
26361W        W90129  44.444  17.563   3.208
26362W        W90130  26.146   8.176   0.244
26363W        W90131   9.297  43.440  13.321
26364W        W90132  17.232  25.538   5.572
26365W        W90133  43.021  38.864   1.363
26366W        W90134  30.589   8.396   3.710
26367W        W90135  31.122   9.178  10.939
26368W        W90136  40.939  29.118  13.834
26369W        W90137  21.695  10.319  14.969
26370W        W90138  42.943  35.528  12.861
26371W        W90139  33.424  12.732   1.276
26372W        W90140  37.980  41.332   1.214
26373W        W90141  27.593   8.190   2.330
26374W        W90142  14.224  26.185   9.969
26375W        W90143  15.279  17.072   3.773
26376W        W90144  11.755  25.532  11.893
26377W        W90145  20.108  25.682  14.396
26378W        W90146  30.967  14.210  13.912
26379W        W90147   9.369  34.464   2.253
26380W        W90148  33.128  30.580  12.823
26381W        W90149   7.885  43.962  12.342
26382W        W90150   1.324  44.805  13.319
26383W        W90151  42.785  26.545   1.412
26384W        W90152   1.832  20.742   3.761
26385W        W90153   2.345  23.157   4.756
26386W        W90154   8.700  37.032  14.503
26387W        W90155  12.170  35.998  12.497
26388W        W90156  43.330  23.724   4.245
26389W        W90157   4.259  33.439   1.311
26390W        W90158  22.592   2.354   2.405
26391W        W90159  29.176  19.201  14.945
26392W        W90160  38.995  15.692   0.760
26393W        W90161  31.414   2.252   3.292
26394W        W90162  40.358  39.446  12.366
26395W        W90163   1.446  29.129   0.400
26396W        W90164  34.419   7.802   1.437
26397W        W90165  20.243  19.540   1.237
26398W        W90166   6.755  29.103   0.368
26399W        W90167  32.985  10.642   1.416
26400W        W90168  26.603  20.732   0.948
26401W        W90169  38.367  33.498  10.156
26402W        W90170   5.244  18.217  13.449
26403W        W90171  31.985   7.710  10.594
26404W        W90172  36.488  12.746   2.765
26405W        W90173  42.835   3.368  12.080
26406W        W90174  40.050  19.054  14.901
26407W        W90175  11.621  40.808  10.639
26408W        W90176  11.843  29.134  13.913
26409W        W90177  43.429  12.694  11.870
26410W        W90178  36.559  43.394   1.748
26411W        W90179  28.476  34.982  14.922
26412W        W90180  32.008  11.245  12.395
26413W        W90181  16.236  27.480   3.630
26414W        W90182  13.783  10.834  13.503
26415W        W90183  32.557   3.746  13.487
26416W        W90184  21.711  29.079   3.363
26417W        W90185  35.050  22.159   3.726
26418W        W90186  28.064  37.537  14.479
26419W        W90187  32.450  17.061  11.581
26420W        W90188  10.370  28.167  13.328
26421W        W90189   3.874  38.049   4.268
26422W        W90190  19.202  18.258  11.935
26423W        W90191  35.553  39.992  11.943
26424W        W90192  31.425  14.782   4.700
26425W        W90193   7.857  23.616  12.076
26426W        W90194  19.593   9.251   4.133
26427W        W90195  42.019  10.282  11.424
26428W        W90196  16.157  31.066   0.753
26429W        W90197  34.016  20.039  12.088
26430W        W90198  33.416  12.361   2.886
26431W        W90199  30.618  29.102  11.117
26432W        W90200  38.860   8.752   4.765
26433W        W90201  12.830  28.620   3.655
26434W        W90202  43.934  14.704  13.013
26435W        W90203   3.761  22.693  10.101
26436W        W90204  35.526  27.559  12.046
26437W        W90205  31.952   2.958  14.446
26438W        W90206  19.580  29.094   1.419
26439W        W90207  30.071   4.726   1.894
26440W        W90208  31.130  11.674   2.178
26441W        W90209  17.752  43.934   2.308
26442W        W90210  20.202   4.431   1.229
26443W        W90211   7.811   0.388  11.376
26444W        W90212  31.995  43.872   2.722
26445W        W90213  15.306   2.741  13.422
26446W        W90214   6.313  23.066  13.453
26447W        W90215   6.348  31.425  10.639
26448W        W90216  22.063  40.373   1.215
26449W        W90217  19.074  43.407   2.839
26450W        W90218  15.823  11.349   5.197
26451W        W90219  10.660  35.424  12.878
26452W        W90220   0.255   4.776  11.979
26453W        W90221  38.839  44.379  11.419
26454W        W90222  39.018  10.280   3.816
26455W        W90223  42.958  27.038   4.262
26456W        W90224  29.119  25.678   0.363
26457W        W90225  39.027   6.390   4.348
26458W        W90226  23.210   8.880   2.209
26459W        W90227  41.532  20.669  12.853
26460W        W90228  35.922   6.186  10.939
26461W        W90229  36.573   3.349  12.951
26462W        W90230   2.314   3.955  10.922
26463W        W90231   2.831  15.302  12.392
26464W        W90232  34.375  11.154  11.451
26465W        W90233  15.250  35.043   3.350
26466W        W90234  20.110  16.140  12.961
26467W        W90235  39.032  20.142  12.070
26468W        W90236   1.925  29.059   4.818
26469W        W90237   0.783  43.788   2.707
26470W        W90238  42.982  28.449  14.861
26471W        W90239  36.054  29.925   2.363
26472W        W90240   2.442  44.861   4.338
26473W        W90241  17.572  23.574  11.996
26474W        W90242  11.714  19.695  14.325
26475W        W90243  22.572  29.106  13.818
26476W        W90244  37.520   1.379  14.380
26477W        W90245  22.242   7.846  12.559
26478W        W90246  25.607   4.936   3.743
26479W        W90247  25.486   6.346  14.346
26480W        W90248   3.233   2.780   3.748
26481W        W90249  33.517  36.423  10.525
26482W        W90250  13.290  26.678  12.383
26483W        W90251  18.166  28.503  12.476
26484W        W90252   5.345  13.191  11.059
26485W        W90253   8.815   2.760  13.363
26486W        W90254   3.891   5.858  12.480
26487W        W90255  18.684   3.866  11.937
26488W        W90256   6.872  31.090   1.429
26489W        W90257  17.075  44.005   2.361
26490W        W90258   2.411   9.225  10.635
26491W        W90259  37.931  27.637   2.809
26492W        W90260  29.494  21.031   5.184
26493W        W90261  39.382   3.769   3.671
26494W        W90262  38.961   7.306   0.403
26495W        W90263  36.347  30.638   2.366
26496W        W90264  24.501  26.113   1.860
26497W        W90265  16.653   0.775   4.616
26498W        W90266  36.867  25.665  13.397
26499W        W90267  14.780  12.695  12.036
26500W        W90268  21.148  17.727  12.462
26501W        W90269   8.405   8.752  11.454
26502W        W90270  26.053  15.742   3.291
26503W        W90271  38.344  16.599  14.377
26504W        W90272  15.084  31.646   2.343
26505W        W90273  23.662  44.354   2.304
26506W        W90274  16.129  25.006  12.961
26507W        W90275   0.876  22.110  13.892
26508W        W90276  24.586  14.694   2.251
26509W        W90277  33.076  42.818   3.197
26510W        W90278   2.310  37.036   1.821
26511W        W90279   5.420  31.455  12.479
26512W        W90280  40.846  32.896  10.980
26513W        W90281  24.039  43.818  11.404
26514W        W90282  32.132  43.361   4.288
26515W        W90283   5.923  19.692   3.689
26516W        W90284  23.996  13.624  10.992
26517W        W90285  39.811  30.099  13.795
26518W        W90286  16.606  39.347   1.413
26519W        W90287  15.317  29.082   2.863
26520W        W90288  11.365   3.838  13.313
26521W        W90289  22.120  13.280  13.315
26522W        W90290  27.534  37.544   1.929
26523W        W90291   8.400   1.308   3.259
26524W        W90292  14.237  42.330  13.812
26525W        W90293   2.389  34.460  11.119
26526W        W90294  11.736  42.967   4.696
26527W        W90295  21.229   7.809   4.778
26528W        W90296  22.580   1.273   0.848
26529W        W90297  16.304  18.185   1.865
26530W        W90298  25.070  42.366  13.976
26531W        W90299  12.837  12.810   1.764
26532W        W90300  11.348   0.846   0.737
26533W        W90301  12.656  16.698   0.302
26534W        W90302  24.122  27.060  11.568
26535W        W90303  10.802   1.868  13.815
26536W        W90304  44.900   9.682  14.920
26537W        W90305  36.965  22.683   4.743
26538W        W90306  40.445   9.388   0.728
26539W        W90307   6.779  26.150  12.008
26540W        W90308   7.232  35.963  14.792
26541W        W90309  25.037  29.146  14.289
26542W        W90310  29.147  17.763  11.482
26543W        W90311  25.676  24.551   0.928
26544W        W90312  14.170  28.635   2.303
26545W        W90313  27.659  27.157   0.769
26546W        W90314  41.368   1.897   1.720
26547W        W90315   6.213  20.123   2.231
26548W        W90316  44.947  15.788  11.061
26549W        W90317  35.080  13.734   2.368
26550W        W90318  27.543  42.505  13.315
26551W        W90319  21.059  29.161   3.212
26552W        W90320  28.626   7.798  10.950
26553W        W90321  39.856  30.136   0.946
26554W        W90322  14.279  41.292  14.304
26555W        W90323  28.565  25.181   4.654
26556W        W90324  39.865  11.742   1.265
26557W        W90325  38.929  23.603  13.466
26558W        W90326  43.504   0.789  12.920
26559W        W90327  33.940  12.853  11.408
26560W        W90328  38.517  35.455  12.909
26561W        W90329  24.517  15.301  14.808
26562W        W90330   7.205  28.113  14.304
26563W        W90331   5.415  29.624  11.028
26564W        W90332  38.405  37.503   2.397
26565W        W90333  16.609  33.068  13.452
26566W        W90334   6.419  42.490  11.471
26567W        W90335  37.526  38.380   2.790
26568W        W90336  14.773  25.653  10.586
26569W        W90337   4.892  32.541  10.485
26570W        W90338  16.776  14.810   1.399
26571W        W90339  35.575  24.639  12.839
26572W        W90340   7.331  35.443   0.899
26573W        W90341  37.040  14.730   4.181
26574W        W90342  44.860  42.503   1.311
26575W        W90343  31.638  28.940  13.792
26576W        W90344  33.914  19.549   3.777
26577W        W90345  19.184  37.383  14.342
26578W        W90346   5.296  22.616   0.795
26579W        W90347  17.132  31.472   2.738
26580W        W90348  20.644  11.139  12.449
26581W        W90349  41.040  38.858  11.933
26582W        W90350  15.143  14.311   0.906
26583W        W90351  23.677  10.698  14.464
26584W        W90352  40.319   6.200   5.288
26585W        W90353  10.303  42.425   1.298
26586W        W90354  35.914  37.040   4.221
26587W        W90355  28.464   4.702  12.457
26588W        W90356   3.741   3.318   3.818
26589W        W90357  11.709  22.173  10.602
26590W        W90358  19.693  35.921   1.835
26591W        W90359  26.473  11.235   4.765
26592W        W90360   0.409  37.907   0.898
26593W        W90361   8.191  31.999  13.525
26594W        W90362  32.127  31.418  10.631
26595W        W90363  21.687  18.266  11.531
26596W        W90364  24.565  31.416  14.429
26597W        W90365   7.744   2.774   0.416
26598W        W90366  19.155  32.000   3.337
26599W        W90367  33.915  43.803  12.408
26600W        W90368  19.261  37.956   1.928
26601W        W90369  18.645   8.240  11.558
26602W        W90370  20.101  11.839   0.885
26603W        W90371   2.896   8.280   1.334
26604W        W90372  34.078  13.672   2.745
26605W        W90373  23.551  11.815   2.248
26606W        W90374  20.124  40.415  12.929
26607W        W90375  37.496  28.663   2.763
26608W        W90376  11.222  15.683   1.270
26609W        W90377  33.999  11.750  10.462
26610W        W90378   1.426  19.215   2.897
26611W        W90379  30.928  16.625   3.843
26612W        W90380  16.722  14.317  11.594
26613W        W90381  18.621  12.237  14.819
26614W        W90382  29.057  15.154   3.236
26615W        W90383  27.626  38.518   3.346
26616W        W90384   3.408  41.824   5.314
26617W        W90385   2.908   8.736   0.863
26618W        W90386  37.496  18.191  12.512
26619W        W90387  21.054  23.157   1.432
26620W        W90388  30.926  15.802  14.437
26621W        W90389  27.519  41.933  13.502
26622W        W90390  22.539  43.019  13.318
26623W        W90391  25.630  36.505   4.645
26624W        W90392  34.424  28.097  14.911
26625W        W90393  18.771  13.113   4.631
26626W        W90394  19.641  39.827  14.332
26627W        W90395  36.444  26.051   3.149
26628W        W90396  34.489   1.334   2.885
26629W        W90397  38.425   8.665   1.399
26630W        W90398  31.102  13.665   1.214
26631W        W90399  37.833  35.098  14.941
26632W        W90400  18.238   9.320   3.265
26633W        W90401  28.490  18.087   4.273
26634W        W90402   9.806  38.012   1.306
26635W        W90403  26.170  29.991  12.915
26636W        W90404  13.107   1.769  11.057
26637W        W90405  21.714  34.944  14.884
26638W        W90406   3.738  11.139  14.335
26639W        W90407  19.747  29.933   0.753
26640W        W90408  18.126  10.811  11.563
26641W        W90409  35.985  23.061   1.322
26642W        W90410  22.207  44.483  10.537
26643W        W90411   6.788   7.171  13.377
26644W        W90412  29.097  21.161  14.927
26645W        W90413  39.320  32.615   1.385
26646W        W90414   9.787  42.410  10.988
26647W        W90415  36.348   4.366  14.917
26648W        W90416  20.167  36.436  13.377
26649W        W90417  17.681   1.255  11.612
26650W        W90418  25.543  13.755   5.804
26651W        W90419  42.944  17.615   2.844
26652W        W90420  25.144  27.483  10.156
26653W        W90421  10.347   7.220   2.829
26654W        W90422   1.786  15.756   2.825
26655W        W90423   0.400  23.640   2.224
26656W        W90424   8.886  43.296  12.911
26657W        W90425  17.184  20.219  10.008
26658W        W90426  35.888  34.985   4.623
26659W        W90427  13.766  33.923  13.902
26660W        W90428  12.839  18.667   0.413
26661W        W90429  31.509  40.475  14.449
26662W        W90430  42.347  26.587   3.800
26663W        W90431   4.263   7.366   1.438
26664W        W90432  25.040   2.307  12.047
26665W        W90433  30.530  16.628  10.906
26666W        W90434  16.633  25.151  13.439
26667W        W90435  18.725   4.824  14.353
26668W        W90436  21.607  36.354  14.410
26669W        W90437  36.414  19.041   3.184
26670W        W90438   5.754  32.550   4.218
26671W        W90439   0.847  43.844   4.152
26672W        W90440  25.965  14.614   1.927
26673W        W90441  21.178  42.854   4.233
26674W        W90442  43.318  37.522  12.042
26675W        W90443  22.055  12.192   0.318
26676W        W90444  24.593  21.212   3.682
26677W        W90445  24.096  26.166   0.474
26678W        W90446  12.719  26.608  11.590
26679W        W90447  40.814  12.274   0.330
26680W        W90448  13.340  13.131  13.899
26681W        W90449  29.500  25.680  11.120
26682W        W90450  38.891  33.060   4.163
26683W        W90451  31.025  17.168  13.930
26684W        W90452  17.658  18.577   3.194
26685W        W90453   6.312  17.599   0.792
26686W        W90454   6.293  28.504  12.954
26687W        W90455  17.585  32.098   3.649
26688W        W90456  19.684  33.565  13.967
26689W        W90457  23.612  28.015   3.162
26690W        W90458   2.440  26.467  12.575
26691W        W90459  24.187  16.220   1.830
26692W        W90460  42.968   1.791  12.993
26693W        W90461  41.870  35.101   4.253
26694W        W90462  44.452  35.087   3.639
26695W        W90463  17.252  29.949  10.973
26696W        W90464  35.417  37.477   4.309
26697W        W90465   6.758   9.332   3.698
26698W        W90466  25.514  14.761  12.060
26699W        W90467  10.278  21.608  12.850
26700W        W90468  44.792  10.865   1.709
26701W        W90469  13.644  11.152  12.424
26702W        W90470  44.487  34.577   1.257
26703W        W90471  24.614  36.012  10.570
26704W        W90472  21.668   4.719   4.296
26705W        W90473  12.333  41.404  14.319
26706W        W90474   7.208   9.703   2.811
26707W        W90475  19.247  18.786   1.897
26708W        W90476   2.916  33.466  12.936
26709W        W90477  29.148  44.336  13.815
26710W        W90478   4.839  20.538   0.266
26711W        W90479  25.489  24.588   2.231
26712W        W90480  34.601  17.794   0.379
26713W        W90481   1.748  35.417   0.739
26714W        W90482   7.680   3.717  11.965
26715W        W90483  16.105  16.787   3.854
26716W        W90484  15.329  25.196  10.445
26717W        W90485   5.749  23.080   1.239
26718W        W90486  35.426  15.110   2.814
26719W        W90487   1.939   1.402   4.331
26720W        W90488   9.705  26.965  13.957
26721W        W90489  11.772   3.777  12.407
26722W        W90490  39.858   6.248  12.936
26723W        W90491   3.900  18.773  13.330
26724W        W90492  31.506  28.610   4.691
26725W        W90493  28.465  33.559   3.776
26726W        W90494   9.186  23.589   4.215
26727W        W90495   6.423  15.785   3.692
26728W        W90496  32.463  13.696  13.999
26729W        W90497  12.249  13.744   1.708
26730W        W90498  18.586  25.198  12.884
26731W        W90499  36.882  35.394   2.862
26732W        W90500  31.993   5.405   1.318
26733W        W90501  12.145  29.501   0.949
26734W        W90502   8.267  17.173  12.485
26735W        W90503  37.037  13.206  14.825
26736W        W90504   8.197  31.104   0.434
26737W        W90505  23.728  24.628   3.699
26738W        W90506  42.335  19.561  12.410
26739W        W90507  21.717  18.736   1.812
26740W        W90508  35.070  41.875  14.422
26741W        W90509   4.924  10.836   4.147
26742W        W90510  15.166  42.901   1.890
26743W        W90511  36.385  40.412  10.895
26744W        W90512  32.630   9.750   2.831
26745W        W90513  30.038  42.462  11.533
26746W        W90514  15.211  28.160   2.385
26747W        W90515   1.894  17.771  13.456
26748W        W90516   8.376  12.711   4.120
26749W        W90517  34.081  36.414   1.362
26750W        W90518   2.276  30.077   3.653
26751W        W90519  16.215  44.002  10.956
26752W        W90520   1.391  33.382   4.832
26753W        W90521  28.947   3.907   1.749
26754W        W90522  35.026  34.600   4.803
26755W        W90523  39.015  35.943  12.830
26756W        W90524  31.959   3.815  10.581
26757W        W90525   3.263  36.347   9.572
26758W        W90526  22.012  30.999   0.331
26759W        W90527  18.785  40.303   0.763
26760W        W90528   0.403  11.174   4.793
26761W        W90529  15.312   5.851  12.456
26762W        W90530  17.302  20.697  10.142
26763W        W90531   6.318   3.388   5.096
26764W        W90532  18.091  35.559   2.851
26765W        W90533   3.897  25.178  12.841
26766W        W90534   4.910  22.724   0.427
26767W        W90535  43.822   9.873   1.903
26768W        W90536  22.512  36.950  14.932
26769W        W90537  33.100  22.571  10.448
26770W        W90538  40.926  14.162  11.900
26771W        W90539  40.397  43.305   1.314
26772W        W90540  41.874  38.047  11.528
26773W        W90541  12.751  17.714  12.501
26774W        W90542   5.272   9.663   0.769
26775W        W90543  15.677  13.783   2.864
26776W        W90544  16.676   8.657   2.813
26777W        W90545  32.538   3.820   1.287
26778W        W90546   5.269   5.785  12.573
26779W        W90547  34.052  31.050  14.311
26780W        W90548  18.225  13.650  12.067
26781W        W90549  17.752   2.289   1.254
26782W        W90550  19.175  28.121  13.837
26783W        W90551  37.899   6.370  10.421
26784W        W90552  11.209  22.662   2.727
26785W        W90553  20.167  28.557   3.757
26786W        W90554  12.844  22.119  12.067
26787W        W90555  14.191  42.014  12.037
26788W        W90556  36.554  26.543  12.351
26789W        W90557  11.285  35.521   2.783
26790W        W90558  36.030  23.227   4.123
26791W        W90559  20.554  41.305   0.811
26792W        W90560  29.969  30.027  11.041
26793W        W90561   6.313  26.992   1.878
26794W        W90562  44.899  15.119  11.384
26795W        W90563  14.159  29.465   3.343
26796W        W90564   8.820  17.653  11.899
26797W        W90565  14.593  27.094  10.435
26798W        W90566  37.070  16.675  11.999
26799W        W90567  28.001   7.414  14.007
26800W        W90568  26.533  10.869   2.896
26801W        W90569   5.373  17.066   3.260
26802W        W90570   6.754   7.722  14.493
26803W        W90571   2.755  11.735  14.021
26804W        W90572  33.508  41.316  12.030
26805W        W90573  43.855  40.423  11.954
26806W        W90574   2.935  29.106   3.255
26807W        W90575  18.102  17.719  10.890
26808W        W90576   4.271  16.789   0.393
26809W        W90577  17.784  14.594  13.513
26810W        W90578   3.348  36.015   0.411
26811W        W90579   4.743  17.673  13.929
26812W        W90580  41.305   7.809  11.445
26813W        W90581   1.236  25.517   0.358
26814W        W90582  41.414  13.714   3.262
26815W        W90583  44.495  38.988  10.473
26816W        W90584  40.935  17.136  10.625
26817W        W90585  35.486  23.548   2.785
26818W        W90586  14.736  16.599   1.404
26819W        W90587  15.767  21.601  14.918
26820W        W90588  13.110  11.229  12.417
26821W        W90589  17.670  18.579  12.432
26822W        W90590   0.363  20.253  10.914
26823W        W90591   2.937  24.026  14.477
26824W        W90592  23.618  30.991   1.803
26825W        W90593  34.035  18.545   2.801
26826W        W90594  24.714  42.291   3.787
26827W        W90595  29.067  16.771  10.151
26828W        W90596  37.413  42.462  10.422
26829W        W90597  20.544  42.028  14.385
26830W        W90598  20.205  31.018   0.870
26831W        W90599  29.625   5.775  11.591
26832W        W90600  13.182   0.392   0.802
26833W        W90601  15.311   2.739  14.362
26834W        W90602   8.659  34.527  12.396
26835W        W90603  43.844  17.632   4.153
26836W        W90604  34.943   1.317   4.123
26837W        W90605  20.107  31.996  10.021
26838W        W90606  10.256  32.997   1.353
26839W        W90607  18.284  23.177   3.255
26840W        W90608  31.937  38.475  10.015
26841W        W90609  30.650  21.235  12.895
26842W        W90610  39.477  19.613   1.278
26843W        W90611  40.045  19.647   4.831
26844W        W90612  31.962  43.016  11.401
26845W        W90613  21.720  42.883   3.178
26846W        W90614   2.398   2.459  12.009
26847W        W90615  13.330   5.366   4.691
26848W        W90616  17.664  10.274   3.754
26849W        W90617  36.567  23.629  11.426
26850W        W90618  10.699  37.888  14.391
26851W        W90619  33.478  40.039  11.459
26852W        W90620  17.280   4.333  11.557
26853W        W90621  34.918  29.447   1.710
26854W        W90622  35.419  27.979   3.664
26855W        W90623  42.926  15.183   1.760
26856W        W90624  12.630  40.370  11.105
26857W        W90625  16.191   1.311   1.318
26858W        W90626  25.669  20.192   1.314
26859W        W90627   5.878   6.194   4.199
26860W        W90628  31.440  38.984  12.425
26861W        W90629   6.771  29.463   4.255
26862W        W90630  34.875  34.431   1.355
26863W        W90631  22.539  10.203  11.020
26864W        W90632  20.064  18.116   1.318
26865W        W90633   6.326  11.805  10.065
26866W        W90634  10.247  38.435   1.430
26867W        W90635  31.423  11.325  12.402
26868W        W90636  39.389  41.926   1.855
26869W        W90637  25.081  30.983   0.754
26870W        W90638  20.261  30.642   5.293
26871W        W90639  18.245   5.862  13.417
26872W        W90640   2.469  19.603  10.590
26873W        W90641  25.620  43.846  13.346
26874W        W90642   5.837   3.362  14.314
26875W        W90643  40.322  37.893   0.471
26876W        W90644  29.018  26.207   1.696
26877W        W90645  19.676  10.238   1.386
26878W        W90646  26.494  10.666   1.400
26879W        W90647  40.915  44.876   0.744
26880W        W90648  36.965  28.931  14.884
26881W        W90649  40.360  20.726  14.880
26882W        W90650  38.360   6.917  14.901
26883W        W90651  44.809  21.700   4.186
26884W        W90652   7.842  33.892   4.824
26885W        W90653  14.631   2.415   2.249
26886W        W90654  42.932  37.472  13.021
26887W        W90655  42.465  21.562   1.449
26888W        W90656  27.577  40.987   3.157
26889W        W90657  25.965  16.578   1.390
26890W        W90658  26.982   6.904  14.844
26891W        W90659  13.820  29.577   4.601
26892W        W90660  20.634  13.673   3.738
26893W        W90661  42.883  34.387  13.379
26894W        W90662   3.927  24.712  12.845
26895W        W90663  23.994   9.731   2.348
26896W        W90664  12.806   0.332  11.417
26897W        W90665  15.777  33.461   4.789
26898W        W90666   1.768  37.444   0.755
26899W        W90667  37.046  39.040   3.257
26900W        W90668  15.286  35.456   0.243
26901W        W90669  25.085  32.905  11.879
26902W        W90670   3.326  34.557   1.373
26903W        W90671  38.391  27.086  12.472
26904W        W90672  15.296  44.490   2.847
26905W        W90673  15.151   2.232  10.419
26906W        W90674  37.369  13.185   3.854
26907W        W90675  19.175  27.561   2.672
26908W        W90676  44.504  14.686   0.308
26909W        W90677   2.367   3.242  12.470
26910W        W90678  43.902   2.828   0.336
26911W        W90679  11.336  33.938   3.316
26912W        W90680  25.149  30.121  14.460
26913W        W90681   9.161  34.408  14.290
26914W        W90682   5.905  32.002   4.145
26915W        W90683  23.211   1.346  10.434
26916W        W90684  18.744  38.979   1.425
26917W        W90685  31.141  12.734   2.798
26918W        W90686  43.436  42.920   2.293
26919W        W90687   2.883   3.884   0.759
26920W        W90688  43.985   0.924  11.555
26921W        W90689  43.955  30.456  11.535
26922W        W90690  36.970  23.503   3.711
26923W        W90691   6.209  34.403  12.443
26924W        W90692  12.210  19.083   2.349
26925W        W90693   3.879  29.091   5.275
26926W        W90694  19.217  31.094   4.784
26927W        W90695  12.651  33.403   1.906
26928W        W90696  19.117  19.647   1.731
26929W        W90697  12.223  39.820  10.625
26930W        W90698  34.492  26.658   2.767
26931W        W90699  10.642  20.145   0.843
26932W        W90700   5.257  28.631  10.413
26933W        W90701  30.601   2.387   0.393
26934W        W90702  34.101  40.808   0.728
26935W        W90703   8.221   3.768   0.443
26936W        W90704  39.930  26.482   2.777
26937W        W90705  15.199   0.807   4.263
26938W        W90706  15.122   0.487   1.753
26939W        W90707   7.260  20.070  12.008
26940W        W90708  33.970  17.635  13.329
26941W        W90709  13.120   0.263  14.326
26942W        W90710  13.752   2.772   1.904
26943W        W90711   3.337   3.267   3.707
26944W        W90712   3.870  41.894  12.531
26945W        W90713  28.604   6.789   1.745
26946W        W90714  16.576  33.923   2.822
26947W        W90715  33.472  11.736   3.209
26948W        W90716   2.942  17.583   4.346
26949W        W90717  35.923  40.479   4.645
26950W        W90718  39.037  32.505   2.703
26951W        W90719  33.104  24.096   1.235
26952W        W90720  40.993  42.775  11.863
26953W        W90721   5.336  42.459  14.501
26954W        W90722  41.809  41.450  14.471
26955W        W90723  15.617  36.531   4.246
26956W        W90724  13.614  37.426   0.794
26957W        W90725  14.658  37.358  11.437
26958W        W90726  36.015  33.110  12.546
26959W        W90727  32.540  39.867   0.791
26960W        W90728  22.672  28.963   3.781
26961W        W90729   6.831  14.312  11.447
26962W        W90730   2.936  20.584   0.302
26963W        W90731   2.254  19.279   4.796
26964W        W90732  37.971   2.398   4.305
26965W        W90733  41.374  43.005  13.040
26966W        W90734   8.271  34.515   1.401
26967W        W90735  14.150  30.483  11.997
26968W        W90736  43.954  21.636   0.483
26969W        W90737  11.647  21.534   1.837
26970W        W90738  36.349  23.987  10.440
26971W        W90739  30.578   8.831   5.136
26972W        W90740   1.253   7.319  12.407
26973W        W90741  44.950   6.294  14.766
26974W        W90742  19.773   6.689   4.138
26975W        W90743  40.428  39.536   2.806
26976W        W90744  36.369  39.473   3.813
26977W        W90745  32.081  44.472  10.638
26978W        W90746  26.077  35.452   5.257
26979W        W90747  32.122  34.539  11.865
26980W        W90748  14.643   5.239  12.416
26981W        W90749  41.343  27.603   0.326
26982W        W90750  38.442  35.109   0.807
26983W        W90751  36.534  31.521  13.935
26984W        W90752  40.383  40.888   0.748
26985W        W90753  18.765   2.817   3.737
26986W        W90754  28.032  43.978  11.887
26987W        W90755   6.223  39.830  10.642
26988W        W90756  28.596  44.311  12.563
26989W        W90757  42.032  27.971   0.768
26990W        W90758  40.861  18.609  13.807
26991W        W90759  14.656  14.706  11.859
26992W        W90760  14.101   7.751  14.411
26993W        W90761  11.340   5.284  12.464
26994W        W90762  34.067   7.271  13.340
26995W        W90763  39.539  29.638  12.481
26996W        W90764   8.288  30.533   1.285
26997W        W90765  20.112  24.975   1.376
26998W        W90766  29.064  44.425  14.832
26999W        W90767   2.234  22.129   3.725
27000W        W90768   2.415  21.029  10.424
27001W        W90769   7.686  13.698  11.515
27002W        W90770  14.257  31.481   1.265
27003W        W90771   6.352   0.257  12.040
27004W        W90772  31.035   9.201  12.438
27005W        W90773  25.491  28.027  11.109
27006W        W90774  23.191  17.114   4.352
27007W        W90775  33.397   1.865  12.540
27008W        W90776   3.828  22.726  13.862
27009W        W90777  12.660  32.946   2.394
27010W        W90778  35.513   3.724  13.907
27011W        W90779  36.018  38.053  14.794
27012W        W90780  35.583  11.858   3.804
27013W        W90781   4.737  31.405   4.174
27014W        W90782  17.649  23.162  11.474
27015W        W90783  37.478  14.643   2.791
27016W        W90784  40.422  15.705  12.823
27017W        W90785  20.186  17.571   4.789
27018W        W90786  31.431  11.756  13.954
27019W        W90787   2.357  41.298   3.813
27020W        W90788  43.485   3.888  13.318
27021W        W90789   9.262  43.018  12.373
27022W        W90790   6.738  16.652  14.500
27023W        W90791   5.285  10.297  12.439
27024W        W90792  36.843  31.563   5.296
27025W        W90793  32.441  11.718  12.074
27026W        W90794  31.634  29.058  14.401
27027W        W90795  12.246  31.959   4.343
27028W        W90796  29.129  33.552  10.978
27029W        W90797  44.434  36.934  14.923
27030W        W90798  20.665  25.053   3.681
27031W        W90799  41.807   1.799  13.946
27032W        W90800  32.017  21.565   1.876
27033W        W90801  39.516  37.425  10.644
27034W        W90802  24.211   9.773  13.804
27035W        W90803  23.614  43.336   2.849
27036W        W90804  32.567   0.789  12.911
27037W        W90805  14.182  32.560   0.806
27038W        W90806  10.787  17.747   3.710
27039W        W90807   8.895   8.777   1.377
27040W        W90808  24.710  18.630  11.043
27041W        W90809  32.599  10.877   1.369
27042W        W90810  40.454  37.081  11.593
27043W        W90811  27.028  41.994  12.055
27044W        W90812  36.073  35.855  14.433
27045W        W90813  42.938  13.773  10.630
27046W        W90814   3.771  12.324   1.370
27047W        W90815  18.641  39.013   4.334
27048W        W90816   1.310  29.613  12.551
27049W        W90817   5.256  22.556   9.957
27050W        W90818   9.852  27.605  12.873
27051W        W90819  24.686  34.926  13.547
27052W        W90820   3.280  41.040   0.381
27053W        W90821  25.644  15.174   2.791
27054W        W90822   5.700   2.427   2.413
27055W        W90823  11.151  13.266  10.623
27056W        W90824  22.672  37.995  12.058
27057W        W90825  19.091  27.132   3.758
27058W        W90826  13.307   5.850   2.330
27059W        W90827   0.253  38.473   5.677
27060W        W90828  38.003  31.404   0.249
27061W        W90829  17.628  20.665   3.290
27062W        W90830   6.360   0.973   1.864
27063W        W90831  42.966  30.574   1.365
27064W        W90832  33.555   2.360  12.913
27065W        W90833  12.240  36.000  11.082
27066W        W90834  16.277  26.130  14.998
27067W        W90835  25.684  33.594   4.300
27068W        W90836  25.553  44.483   4.656
27069W        W90837  13.347  21.696   1.245
27070W        W90838  43.787  23.207   3.742
27071W        W90839  38.835   2.790   1.784
27072W        W90840  38.432  15.611   3.347
27073W        W90841   2.266  22.646  13.864
27074W        W90842  44.500   6.327   4.709
27075W        W90843  26.658  14.638  13.021
27076W        W90844  27.595   7.194  11.521
27077W        W90845   8.328  43.419   3.848
27078W        W90846   4.213  25.154  12.514
27079W        W90847  24.226  21.550  11.444
27080W        W90848  20.531  14.339   1.826
27081W        W90849   3.347  30.019  12.053
27082W        W90850   4.209   5.303  10.613
27083W        W90851  29.083  25.569   1.430
27084W        W90852   5.394  42.780   0.887
27085W        W90853  34.097   4.430  14.471
27086W        W90854  33.418  29.049   0.402
27087W        W90855  19.223  29.505  11.434
27088W        W90856  28.130  16.083   3.737
27089W        W90857  41.479  39.332  14.987
27090W        W90858  29.654  40.394  12.091
27091W        W90859  42.519  29.463  14.880
27092W        W90860   0.946  15.699  10.910
27093W        W90861  24.226  12.648   3.375
27094W        W90862  29.921   9.829   1.763
27095W        W90863   2.441  40.831  10.620
27096W        W90864   1.791  35.444   0.281
27097W        W90865  35.087  39.975  14.391
27098W        W90866   2.231  20.534   0.890
27099W        W90867  37.922  42.408   0.255
27100W        W90868  30.091   0.911   4.200
27101W        W90869  42.027   8.729  11.406
27102W        W90870  39.808  38.513   3.364
27103W        W90871  19.719  22.175   4.200
27104W        W90872  33.934  11.361  12.553
27105W        W90873  28.453  24.639   4.828
27106W        W90874  25.659   3.754   0.834
27107W        W90875  40.012   2.877   2.247
27108W        W90876  23.644   1.416  10.998
27109W        W90877  21.197  43.416   3.263
27110W        W90878  17.202   2.313  12.465
27111W        W90879   6.829  31.982   2.224
27112W        W90880  36.359  12.240  11.983
27113W        W90881  12.235  40.401   1.358
27114W        W90882  30.521  26.078   2.358
27115W        W90883  43.305   1.952  11.900
27116W        W90884   0.282   0.922  10.621
27117W        W90885  15.673  25.019   3.806
27118W        W90886  12.216  13.603  13.895
27119W        W90887  44.898  16.717   4.327
27120W        W90888  11.812  25.557   3.353
27121W        W90889   4.324  11.266   3.692
27122W        W90890  33.105  26.678   1.210
27123W        W90891  39.830  41.455   1.347
27124W        W90892  37.006  31.506  11.862
27125W        W90893  11.712  25.190   1.385
27126W        W90894  11.850   0.855  12.049
27127W        W90895  36.920  10.172   1.778
27128W        W90896  12.679  32.113  11.957
27129W        W90897  23.661   3.921   0.273
27130W        W90898  41.836  31.060   0.836
27131W        W90899  26.606  25.631  13.471
27132W        W90900  35.077  22.533   4.826
27133W        W90901  17.675  37.032  12.478
27134W        W90902  15.207  16.707  10.546
27135W        W90903  25.573  30.960  13.965
27136W        W90904  20.250  20.697  11.456
27137W        W90905   4.370  31.070   0.372
27138W        W90906  23.588  38.021   3.200
27139W        W90907  16.580  30.420  10.420
27140W        W90908  43.937  35.398  12.540
27141W        W90909  17.290  25.543  11.427
27142W        W90910  43.878   3.438  14.479
27143W        W90911  42.430  32.084   2.699
27144W        W90912  11.655  10.306  13.388
27145W        W90913  40.960   5.860  13.491
27146W        W90914  11.199   2.764  14.340
27147W        W90915  41.854  22.553  10.413
27148W        W90916  11.320   6.799  12.563
27149W        W90917  14.782   2.391  10.535
27150W        W90918  18.626  12.852  10.118
27151W        W90919  16.707  40.002  14.028
27152W        W90920  32.966  27.660  13.992
27153W        W90921  43.829  22.252   0.410
27154W        W90922   7.272  11.201  14.787
27155W        W90923  27.599  17.674   3.673
27156W        W90924  10.309   7.355   1.756
27157W        W90925  19.764  30.971  13.450
27158W        W90926  17.609  18.102  12.048
27159W        W90927  15.228  13.290   4.302
27160W        W90928  18.753   2.256  10.626
27161W        W90929  32.558  21.632   0.447
27162W        W90930  10.726  41.524  13.959
27163W        W90931  43.022   4.797  13.814
27164W        W90932   6.414  24.079  14.797
27165W        W90933  15.751  32.508   3.279
27166W        W90934  19.281  15.277   4.159
27167W        W90935  17.281   6.783  12.049
27168W        W90936  20.143  26.038  14.992
27169W        W90937  37.897  43.351   4.678
27170W        W90938   8.764  14.235   1.816
27171W        W90939  43.311  41.946  11.514
27172W        W90940  35.528  12.242   1.727
27173W        W90941  13.190  30.931   3.865
27174W        W90942   7.186  21.090  13.822
27175W        W90943  15.798  18.118   0.478
27176W        W90944  18.061  15.597   0.297
27177W        W90945  16.683   8.694  13.935
27178W        W90946  32.476  35.596   4.128
27179W        W90947   1.287   6.850   0.765
27180W        W90948   5.722  18.114  10.434
27181W        W90949   5.343  21.221  14.353
27182W        W90950  11.355   7.873   3.850
27183W        W90951  28.110  31.075   3.152
27184W        W90952  33.571   7.275   0.296
27185W        W90953   6.758  12.686  11.097
27186W        W90954  20.701  34.440   2.690
27187W        W90955  28.446  41.955  10.473
27188W        W90956  43.343  40.367  14.389
27189W        W90957  44.880  16.146  12.389
27190W        W90958  44.484   0.896   4.625
27191W        W90959   4.895   0.912  11.587
27192W        W90960  14.331  15.718  11.532
27193W        W90961   6.686   6.408  12.447
27194W        W90962  44.878  33.602  14.297
27195W        W90963  43.351   3.223  12.957
27196W        W90964  40.862   4.416  14.792
27197W        W90965  27.012  17.723  11.383
27198W        W90966  36.584   0.267  12.370
27199W        W90967   3.917  34.883   1.701
27200W        W90968  16.252  21.560   5.189
27201W        W90969  25.993  29.949  12.022
27202W        W90970  16.154  38.420   3.741
27203W        W90971   4.395  42.827   3.754
27204W        W90972  38.345  19.559  11.945
27205W        W90973  32.499  22.232   3.340
27206W        W90974   4.303   9.298  12.508
27207W        W90975  23.640   6.317  13.533
27208W        W90976   4.921  27.111  12.574
27209W        W90977  16.113  25.192   0.368
27210W        W90978  22.690  18.699   0.420
27211W        W90979  44.278   4.281   0.861
27212W        W90980  20.640  14.128  10.480
27213W        W90981  21.244  11.174  11.116
27214W        W90982   8.779  39.552  12.497
27215W        W90983  17.786   4.397  11.916
27216W        W90984   3.892  24.007   3.174
27217W        W90985  43.977  40.325   2.691
27218W        W90986  13.111  39.929   2.333
27219W        W90987  14.691  14.818  10.973
27220W        W90988  44.951  13.729   1.848
27221W        W90989  19.179  24.196   9.984
27222W        W90990  16.218  26.178   0.826
27223W        W90991  41.948  34.028  13.820
27224W        W90992   5.904  34.900   2.342
27225W        W90993  20.246  19.205  13.374
27226W        W90994  28.100  30.002  12.901
27227W        W90995  10.238   0.910   1.753
27228W        W90996  32.017  40.313   3.700
27229W        W90997   7.215  35.906  11.940
27230W        W90998  11.313  37.408   1.441
27231W        W90999  18.157  40.443   3.272
27232W        W91000  23.680  22.679  12.894
27233W        W91001   6.309  44.782  10.481
27234W        W91002  19.171  10.266   0.483
27235W        W91003  23.578  26.070  12.487
27236W        W91004  18.226   1.808  14.303
27237W        W91005  22.176  13.772  11.444
27238W        W91006  16.225  31.978  10.441
27239W        W91007  10.743  40.399   3.760
27240W        W91008  44.299  43.509   2.351
27241W        W91009   7.268   6.214   1.711
27242W        W91010  40.435  39.432   1.910
27243W        W91011  40.364  37.562   2.317
27244W        W91012  26.995  11.186   5.127
27245W        W91013   4.929  41.400   4.829
27246W        W91014  16.182  18.642  14.914
27247W        W91015   1.438  31.904  14.875
27248W        W91016  35.994  30.092   4.828
27249W        W91017   9.283  11.676   4.793
27250W        W91018   2.416  29.139  12.853
27251W        W91019  44.986  37.081   2.221
27252W        W91020  10.833  41.926  11.100
27253W        W91021   4.854  10.727   2.740
27254W        W91022  35.949   9.699   0.946
27255W        W91023   4.294  40.522   3.636
27256W        W91024  13.617   5.334  10.961
27257W        W91025  33.403  12.762   1.781
27258W        W91026  24.220   0.462   3.226
27259W        W91027  20.029   8.760   2.237
27260W        W91028  27.647  29.030   3.804
27261W        W91029   3.454   8.180  12.989
27262W        W91030  41.009  30.948  14.453
27263W        W91031  42.372  27.101   2.863
27264W        W91032   8.201  21.027  11.079
27265W        W91033  32.089  12.833   0.353
27266W        W91034  17.607   1.941  14.017
27267W        W91035  30.108  18.692   2.314
27268W        W91036  12.347  25.070  12.000
27269W        W91037  26.061  37.415   2.309
27270W        W91038  43.346   6.693   1.322
27271W        W91039  40.331   9.207   9.980
27272W        W91040  39.461  20.051   2.188
27273W        W91041  20.051  33.522  13.467
27274W        W91042  31.932  12.264   1.920
27275W        W91043  44.458  42.961  12.843
27276W        W91044  41.468  30.909   2.758
27277W        W91045   3.768   0.971  13.014
27278W        W91046  23.700   9.667  11.106
27279W        W91047  25.125  35.938   0.483
27280W        W91048  13.659  23.157   4.663
27281W        W91049  28.937  16.189   0.326
27282W        W91050  26.631  21.575   4.326
27283W        W91051  11.195  30.052   4.650
27284W        W91052  35.519  25.160  12.831
27285W        W91053  35.002  16.745   2.674
27286W        W91054  32.460  31.457  11.872
27287W        W91055  43.816  23.984  12.849
27288W        W91056  18.277  25.662   4.297
27289W        W91057   5.217  29.956   3.238
27290W        W91058  40.898  34.373   1.893
27291W        W91059  42.413   7.750   0.303
27292W        W91060   6.343  38.377  14.802
27293W        W91061  31.904  23.655  11.877
27294W        W91062  29.553  37.482  13.517
27295W        W91063  34.915  28.539  14.822
27296W        W91064  19.771   9.253   0.956
27297W        W91065  17.642  22.636   2.774
27298W        W91066   8.710  24.193   1.309
27299W        W91067  31.444  32.108  11.529
27300W        W91068  14.735  28.059   9.949
27301W        W91069  26.036  42.327  12.941
27302W        W91070   4.445  34.930   1.856
27303W        W91071  29.139  18.078  10.430
27304W        W91072  14.661  43.280   4.612
27305W        W91073  25.488   1.389   1.345
27306W        W91074  16.710   3.721  11.431
27307W        W91075  35.860  10.249  13.492
27308W        W91076  16.228  23.628   3.346
27309W        W91077  26.080  13.671  12.356
27310W        W91078   4.297  43.457   2.373
27311W        W91079  12.168   0.470   2.217
27312W        W91080  21.736  12.165  14.390
27313W        W91081  26.646   3.427   3.691
27314W        W91082  15.784  41.522  11.924
27315W        W91083  35.505   6.718  14.927
27316W        W91084  28.948  32.589   2.752
27317W        W91085  18.626  15.087  11.942
27318W        W91086  35.957  31.106   4.809
27319W        W91087  37.336  20.030   2.262
27320W        W91088  43.372  39.505   1.310
27321W        W91089  18.581  23.622  14.492
27322W        W91090  40.007  43.909  14.767
27323W        W91091  34.080   4.212   3.848
27324W        W91092  26.991  19.678   2.219
27325W        W91093  19.638  31.535   4.743
27326W        W91094  40.990   2.925   3.760
27327W        W91095  22.184   9.208  12.897
27328W        W91096   9.297  38.563  10.438
27329W        W91097  29.019  16.713  12.406
27330W        W91098  27.054  41.898  12.893
27331W        W91099  18.243  40.875  11.961
27332W        W91100  14.240  31.128  12.344
27333W        W91101  33.996   8.337  12.498
27334W        W91102   3.271   1.250  14.916
27335W        W91103  12.133   1.945  14.459
27336W        W91104   4.901  33.880   4.723
27337W        W91105  33.425  32.004  14.309
27338W        W91106  18.055  24.984   9.446
27339W        W91107  40.927  33.391  14.907
27340W        W91108  11.659   0.467   0.402
27341W        W91109  26.078  38.435   3.290
27342W        W91110  44.952  43.438   4.721
27343W        W91111  27.618  18.192   0.322
27344W        W91112  25.158   1.806  14.975
27345W        W91113  37.457  39.995  13.408
27346W        W91114  44.471  39.443   2.878
27347W        W91115  33.020  42.801  12.377
27348W        W91116   5.306   7.809   3.231
27349W        W91117  35.452  26.662  13.059
27350W        W91118  28.080  21.757  10.887
27351W        W91119  39.342  23.618   1.260
27352W        W91120   8.185   4.936  12.424
27353W        W91121  14.634   4.333   0.906
27354W        W91122  19.607  41.895  11.961
27355W        W91123   9.764   0.424   3.194
27356W        W91124   6.881   4.300   3.706
27357W        W91125  15.800   5.253   4.122
27358W        W91126   1.309  43.786   3.191
27359W        W91127   3.954   2.230   3.201
27360W        W91128  24.642   5.827   4.344
27361W        W91129  27.192  28.063  13.037
27362W        W91130  35.569   7.813   1.241
27363W        W91131  17.641  37.028  12.970
27364W        W91132  24.987  32.088  14.957
27365W        W91133  43.849  26.184   2.413
27366W        W91134  37.065   2.414   1.428
27367W        W91135  13.180  30.614  10.904
27368W        W91136  44.379  10.652  13.483
27369W        W91137  12.617  42.496  11.881
27370W        W91138   6.868  42.463   0.482
27371W        W91139  15.646  35.540   2.748
27372W        W91140  29.935  27.955   3.237
27373W        W91141  16.702  37.533  12.410
27374W        W91142   7.693  18.636  14.852
27375W        W91143  37.948  14.688   0.429
27376W        W91144  19.759  36.959  12.451
27377W        W91145  20.619   8.179  13.524
27378W        W91146   5.356   2.418  10.482
27379W        W91147  13.695  41.345  13.420
27380W        W91148  26.988  10.775   1.695
27381W        W91149   7.209  23.712   2.840
27382W        W91150  19.112  22.615  14.922
27383W        W91151   8.294  11.252  13.808
27384W        W91152   2.902   9.848   4.657
27385W        W91153   8.348   1.924  10.437
27386W        W91154  34.611  41.371  10.928
27387W        W91155  20.522  29.575  14.777
27388W        W91156  25.542  11.216  11.511
27389W        W91157  22.576  26.625  11.385
27390W        W91158  32.523  20.668   0.811
27391W        W91159  25.502  23.729  10.608
27392W        W91160   9.670   4.720   3.665
27393W        W91161  22.697  30.448   2.701
27394W        W91162  23.052  35.871  10.455
27395W        W91163  35.860  44.876  13.499
27396W        W91164  30.525  34.495   0.458
27397W        W91165  14.715  30.938   4.182
27398W        W91166  11.632  43.901  12.455
27399W        W91167  31.533  42.818  10.479
27400W        W91168  37.050  42.797  10.481
27401W        W91169  37.431  33.045  10.467
27402W        W91170  23.736  15.148   0.864
27403W        W91171  21.595  23.549   2.875
27404W        W91172  12.309  30.124  11.042
27405W        W91173   8.840   6.274   0.384
27406W        W91174  17.172   5.227  12.964
27407W        W91175  12.206  33.420  11.424
27408W        W91176   5.711  12.223   2.886
27409W        W91177  35.562  36.440  12.563
27410W        W91178  21.177  16.644   3.247
27411W        W91179  27.194   0.959   3.171
27412W        W91180  30.656  43.317  11.387
27413W        W91181  16.098  22.694   4.161
27414W        W91182  25.189  20.073  11.095
27415W        W91183  37.549  28.557   4.142
27416W        W91184  11.229  27.007  12.379
27417W        W91185  15.823  12.127  13.892
27418W        W91186  24.495  25.088  12.496
27419W        W91187   1.777  14.179  12.839
27420W        W91188  24.568  24.705  12.343
27421W        W91189  29.435   1.320   1.311
27422W        W91190  34.501  18.217  12.031
27423W        W91191   0.398  14.273  12.414
27424W        W91192  17.769  31.419  14.986
27425W        W91193  32.626  16.256   9.499
27426W        W91194  32.399  23.074   3.816
27427W        W91195  24.621  44.814   0.338
27428W        W91196  30.083  31.618   0.809
27429W        W91197  25.473  25.013   3.343
27430W        W91198  42.441  13.623   0.827
27431W        W91199  36.982  42.900   3.148
27432W        W91200  35.424  19.542   4.272
27433W        W91201  22.152  26.060   4.148
27434W        W91202   6.294  41.996   0.879
27435W        W91203  20.193  13.307   0.859
27436W        W91204   0.485  21.151  11.061
27437W        W91205   7.260  32.935   4.195
27438W        W91206  43.010  15.282  12.825
27439W        W91207  41.510  37.035  14.823
27440W        W91208  42.964  38.356  13.334
27441W        W91209   7.331  26.033  11.479
27442W        W91210  40.861  15.637  12.445
27443W        W91211   5.288  22.621   2.332
27444W        W91212  43.332  24.994   0.761
27445W        W91213   5.243  43.435   0.901
27446W        W91214   7.375  29.523  11.413
27447W        W91215   7.325   4.282   3.330
27448W        W91216  26.494  39.010   0.780
27449W        W91217  29.164  33.484  10.421
27450W        W91218  21.652  23.601   4.786
27451W        W91219  40.043  24.214  12.848
27452W        W91220  33.595  30.917  10.913
27453W        W91221   8.671  26.651   2.715
27454W        W91222  41.453  20.133  12.412
27455W        W91223  20.768   1.874  13.849
27456W        W91224  13.319   8.763  10.996
27457W        W91225  32.112  12.211  12.516
27458W        W91226  38.344  19.647   0.918
27459W        W91227  30.545  20.036  13.408
27460W        W91228  16.261  18.630   1.293
27461W        W91229  27.484   4.273   0.964
27462W        W91230  32.582  37.894  12.083
27463W        W91231  22.129  32.441  12.477
27464W        W91232  22.159  30.612   3.793
27465W        W91233   2.400  31.598   1.871
27466W        W91234  30.059  36.422   4.822
27467W        W91235  38.482  18.782  12.920
27468W        W91236   8.301  13.337   4.172
27469W        W91237  27.975  27.579   4.263
27470W        W91238  25.217  42.811  10.565
27471W        W91239  25.640   9.153  14.883
27472W        W91240  18.674   4.283  14.338
27473W        W91241  29.456  39.905  12.343
27474W        W91242  13.766  19.196  14.463
27475W        W91243  10.336   7.816  12.023
27476W        W91244   7.858  10.711   2.260
27477W        W91245  44.281  37.964   3.705
27478W        W91246   9.792  10.221   0.862
27479W        W91247  15.211  38.045   3.244
27480W        W91248   4.791   8.795   4.181
27481W        W91249  30.092  15.787  14.805
27482W        W91250  39.988   0.461  11.080
27483W        W91251   7.417  42.355   4.720
27484W        W91252  43.873  33.611   3.323
27485W        W91253  23.990   6.366  12.828
27486W        W91254  19.280  40.963   0.786
27487W        W91255  19.125  10.307  10.486
27488W        W91256  44.272  44.486   4.781
27489W        W91257  34.078  32.934   4.191
27490W        W91258  24.662  21.740  13.435
27491W        W91259   7.370  29.583  12.093
27492W        W91260   5.195  15.115  11.475
27493W        W91261   0.812   0.288  14.275
27494W        W91262   2.910  18.782   1.274
27495W        W91263   0.479  20.241  14.025
27496W        W91264  37.993  44.337  12.436
27497W        W91265  29.449  25.671  14.426
27498W        W91266  30.150  36.044   2.289
27499W        W91267  35.994   8.319  12.459
27500W        W91268  11.640  16.763   0.927
27501W        W91269   4.854  44.309  13.486
27502W        W91270  35.950  41.525   0.965
27503W        W91271  36.844  36.863   4.300
27504W        W91272  16.698  31.526   1.843
27505W        W91273  36.052  36.996   2.276
27506W        W91274  30.456  28.179   1.711
27507W        W91275  18.778  38.021   1.784
27508W        W91276  19.056  37.530  10.968
27509W        W91277  31.983  44.964   3.818
27510W        W91278   6.427  35.556  14.901
27511W        W91279  21.594  14.229   2.892
27512W        W91280  26.991   4.837   1.217
27513W        W91281   3.327  28.945   3.649
27514W        W91282  13.349  38.930   4.144
27515W        W91283  18.156  30.500   4.605
27516W        W91284  14.105  39.480  11.903
27517W        W91285  16.212   7.674   3.713
27518W        W91286  10.690  15.258   4.737
27519W        W91287   6.258  36.518   1.424
27520W        W91288   8.331  19.070   3.181
27521W        W91289  36.019   7.213   2.194
27522W        W91290  34.471  33.016   1.868
27523W        W91291  19.744  19.742  14.306
27524W        W91292  30.569   9.208   3.869
27525W        W91293  44.967  38.906  12.417
27526W        W91294   7.683  35.420   0.375
27527W        W91295  29.565  11.623   5.087
27528W        W91296  39.949   2.742  14.454
27529W        W91297   5.819   6.380  12.061
27530W        W91298  24.660  25.664   4.670
27531W        W91299  10.728   9.885   3.189
27532W        W91300  28.519  29.505  13.396
27533W        W91301  39.333   5.240   1.266
27534W        W91302  31.473  31.498   4.599
27535W        W91303  42.378  17.307  13.882
27536W        W91304  16.184  40.026  14.782
27537W        W91305  13.111  40.962  11.436
27538W        W91306  29.497  22.551   2.841
27539W        W91307  24.546  27.076  14.762
27540W        W91308  42.463  38.500  14.829
27541W        W91309  26.571  41.927   0.786
27542W        W91310  38.014  20.091   2.787
27543W        W91311   5.319  30.426   4.130
27544W        W91312  16.774  40.054   3.199
27545W        W91313  15.175   2.276   2.178
27546W        W91314  38.016  15.811   1.725
27547W        W91315   5.252   8.347   1.220
27548W        W91316  12.208  21.688  10.627
27549W        W91317  10.361  26.185  11.419
27550W        W91318  40.916  15.253  13.861
27551W        W91319  19.538  20.222   3.248
27552W        W91320  19.751  13.195  12.895
27553W        W91321  42.316   0.889   0.303
27554W        W91322  35.061  14.818   4.141
27555W        W91323  33.439   3.455   2.723
27556W        W91324   1.248  31.472   4.828
27557W        W91325  20.215  19.625  13.003
27558W        W91326  24.039   8.687  14.357
27559W        W91327  26.023  29.072   0.278
27560W        W91328  11.668  41.950  12.527
27561W        W91329  44.341  41.876  12.879
27562W        W91330  27.169  37.855  11.431
27563W        W91331  35.053  10.337  14.365
27564W        W91332  30.479  16.683   4.713
27565W        W91333   8.685   7.300   0.308
27566W        W91334  31.639   0.815   4.732
27567W        W91335   1.731  26.689   1.354
27568W        W91336  42.372   9.183  12.348
27569W        W91337  17.712  24.019   1.714
27570W        W91338  30.159  38.448   1.899
27571W        W91339  28.643   9.278   1.727
27572W        W91340   6.196  27.518   1.343
27573W        W91341  19.150   6.362  14.348
27574W        W91342  37.474  30.009  12.436
27575W        W91343   9.312  38.031  10.545
27576W        W91344  32.037  15.739   1.443
27577W        W91345  44.380  16.107   2.186
27578W        W91346  20.724  44.788   4.210
27579W        W91347  21.024  27.589  11.994
27580W        W91348  16.607  21.094   1.725
27581W        W91349  10.263  38.431  14.845
27582W        W91350  19.654  22.694   1.278
27583W        W91351   0.892  13.730  11.912
27584W        W91352  30.005  30.992   2.862
27585W        W91353  33.419  44.763  13.353
27586W        W91354  39.488  25.574  11.951
27587W        W91355  14.643  33.081  14.296
27588W        W91356  12.314  19.633   0.392
27589W        W91357   7.909   7.197   1.240
27590W        W91358  34.475   9.644  13.361
27591W        W91359  11.834  21.537   4.702
27592W        W91360  26.539  19.695   3.779
27593W        W91361  24.655  18.564   3.347
27594W        W91362   7.378  40.891   2.315
27595W        W91363   7.250  14.195   5.236
27596W        W91364  35.458   9.743  11.528
27597W        W91365  39.550  31.132  13.018
27598W        W91366  38.529   9.671   0.248
27599W        W91367  37.564   7.199   1.242
27600W        W91368   2.829   8.363   2.798
27601W        W91369  18.124  40.520  12.007
27602W        W91370  15.105   8.166  11.415
27603W        W91371   7.873  16.715   2.892
27604W        W91372  33.510   9.211   1.896
27605W        W91373  20.665  10.824   3.208
27606W        W91374  20.551  41.004  13.930
27607W        W91375   4.387  24.003   3.271
27608W        W91376  37.492  22.178  13.980
27609W        W91377  16.147  18.204   4.226
27610W        W91378  41.037  20.143  13.050
27611W        W91379   3.746  10.151  14.309
27612W        W91380   8.717  12.197   2.337
27613W        W91381  16.725  12.691  14.800
27614W        W91382  14.705   2.866  10.426
27615W        W91383  27.138  24.167   3.771
27616W        W91384  20.229  15.137  14.292
27617W        W91385  23.096  19.103   3.693
27618W        W91386  21.071  44.264   0.265
27619W        W91387   6.897  38.008  12.013
27620W        W91388  25.628  26.612   9.938
27621W        W91389  33.408  18.561   4.653
27622W        W91390  31.584  12.638  13.018
27623W        W91391  35.023  30.944  10.977
27624W        W91392  39.065  20.200   2.888
27625W        W91393  29.110  33.394   1.706
27626W        W91394  31.407  27.476  12.890
27627W        W91395  37.033  43.514  14.854
27628W        W91396  10.167  17.575  10.905
27629W        W91397  25.568  12.711   4.198
27630W        W91398  10.711  42.409   4.284
27631W        W91399  12.212  26.673  13.853
27632W        W91400   1.466   0.329  12.406
27633W        W91401  30.098  44.378   0.468
27634W        W91402  22.516  10.845  12.853
27635W        W91403  19.539  11.827   3.351
27636W        W91404  20.767  11.745   2.827
27637W        W91405  13.690  19.759   3.789
27638W        W91406  42.507   8.847   3.333
27639W        W91407  11.636  25.628   1.866
27640W        W91408  15.678  36.388  12.531
27641W        W91409  14.189  36.473  11.051
27642W        W91410  13.653  22.694   2.792
27643W        W91411  37.877  35.991   1.927
27644W        W91412  44.990  35.872   1.862
27645W        W91413   1.316  37.458   1.695
27646W        W91414  33.616  35.448  13.006
27647W        W91415   0.809  14.314   1.717
27648W        W91416   4.756  44.306   0.791
27649W        W91417   5.818  10.263  11.916
27650W        W91418   2.385  24.045  13.793
27651W        W91419  39.960  22.011  11.120
27652W        W91420  26.683  36.010  13.872
27653W        W91421  24.539   5.412   2.252
27654W        W91422  34.920  26.150  14.483
27655W        W91423  42.344  30.950   4.243
27656W        W91424   4.326  19.752  14.337
27657W        W91425   2.404  15.194   3.711
27658W        W91426  18.265  20.579  10.595
27659W        W91427  41.842  31.487  11.548
27660W        W91428  30.451  24.069   3.345
27661W        W91429  30.098  25.575   2.865
27662W        W91430  43.783  37.907  14.018
27663W        W91431  43.462   2.965   4.665
27664W        W91432   1.430   8.163   2.310
27665W        W91433  32.442   7.741   3.277
27666W        W91434   6.364  44.399  12.928
27667W        W91435  14.706   1.404  11.590
27668W        W91436  30.939   2.960   1.697
27669W        W91437   4.803  32.890   2.267
27670W        W91438  32.018  16.745  10.600
27671W        W91439  14.156  18.696  10.444
27672W        W91440  12.164  33.604  14.963
27673W        W91441  15.238  19.776  13.497
27674W        W91442  34.508  12.695  11.506
27675W        W91443  39.026  38.558  10.924
27676W        W91444  43.443  27.030  12.986
27677W        W91445  16.793   1.395  10.923
27678W        W91446  19.205  25.684  12.918
27679W        W91447  19.604  19.639   3.228
27680W        W91448  40.054  10.721  10.905
27681W        W91449  25.130  33.044  10.622
27682W        W91450   8.783  17.801  11.548
27683W        W91451  20.627  15.162   1.702
27684W        W91452  41.837  13.115   3.821
27685W        W91453  29.489  42.011   2.238
27686W        W91454   9.313  12.258  11.994
27687W        W91455  30.032  31.411  12.558
27688W        W91456  18.760  21.116   5.110
27689W        W91457  43.454  31.944  10.451
27690W        W91458  41.814   9.218  14.926
27691W        W91459   3.852   6.775  13.482
27692W        W91460   1.751   4.755  12.872
27693W        W91461   0.989  13.290   3.643
27694W        W91462  14.702   5.830  13.890
27695W        W91463  37.567  26.050  13.453
27696W        W91464   2.731  10.671   1.254
27697W        W91465  43.838  13.192   0.752
27698W        W91466   8.880  25.713   1.879
27699W        W91467  19.279  34.594  14.018
27700W        W91468  14.656  23.174  12.395
27701W        W91469   5.831   6.859  13.316
27702W        W91470  30.955  10.234  13.480
27703W        W91471  37.939  35.441  11.951
27704W        W91472  17.708   5.380  11.584
27705W        W91473  22.205  42.977   1.737
27706W        W91474   4.319  39.834   4.604
27707W        W91475   1.782   7.232   4.687
27708W        W91476  28.622  17.710  13.947
27709W        W91477   6.708   8.720  13.364
27710W        W91478   5.263  15.683   0.264
27711W        W91479  13.122  18.549   3.813
27712W        W91480   4.830  34.499   3.746
27713W        W91481  28.146   6.210  10.911
27714W        W91482  41.786  13.737  11.441
27715W        W91483  28.613  31.968   1.369
27716W        W91484  44.830  11.621  12.888
27717W        W91485  33.468  35.583   4.182
27718W        W91486   3.435   1.427  12.986
27719W        W91487  31.030   8.351   2.850
27720W        W91488  40.428  17.099   4.146
27721W        W91489   8.831   4.423   1.850
27722W        W91490  36.526  44.474   3.310
27723W        W91491  33.387  13.147   0.853
27724W        W91492  19.218  35.371   4.679
27725W        W91493  42.435  18.761   2.736
27726W        W91494   8.728   6.252  13.497
27727W        W91495  12.173  14.693   0.873
27728W        W91496  10.685  12.631  11.431
27729W        W91497  38.034  27.055  11.514
27730W        W91498  35.394   5.291  11.591
27731W        W91499  44.869  24.648   3.315
27732W        W91500   4.377   9.343   1.364
27733W        W91501  12.777   4.826  12.340
27734W        W91502  31.003   6.888  14.960
27735W        W91503  34.065  17.113   1.923
27736W        W91504  25.546   4.871   3.199
27737W        W91505  40.346  34.470  11.027
27738W        W91506   3.216  14.242  13.393
27739W        W91507  36.016  37.380  14.283
27740W        W91508  38.832  32.422  11.048
27741W        W91509  20.254   6.830   3.849
27742W        W91510  37.863  13.791  11.566
27743W        W91511   7.174  11.692   2.183
27744W        W91512  43.365  14.107  10.619
27745W        W91513   1.940  29.126   3.250
27746W        W91514  30.472  40.933   3.179
27747W        W91515  33.031  11.213  14.411
27748W        W91516  12.239   0.802   1.853
27749W        W91517  24.637  12.650   3.302
27750W        W91518   7.806  37.970  12.493
27751W        W91519   6.799  24.079  14.990
27752W        W91520  14.814  15.695  13.384
27753W        W91521  26.497  11.327   0.857
27754W        W91522  37.399   1.939  11.572
27755W        W91523  19.612   2.266  12.499
27756W        W91524  19.685  17.582   4.193
27757W        W91525  40.913   9.783  10.585
27758W        W91526  28.478   3.302   3.687
27759W        W91527  12.644   6.685   3.287
27760W        W91528   9.306  18.234  10.945
27761W        W91529  30.562   3.453  11.911
27762W        W91530  16.250  13.793   0.739
27763W        W91531  25.509  12.301  13.991
27764W        W91532  23.149  38.350  13.872
27765W        W91533   1.970   2.329   0.443
27766W        W91534   3.935  28.502   1.893
27767W        W91535  43.398  16.214   2.185
27768W        W91536  22.579  25.213   1.817
27769W        W91537  43.853  40.001   4.156
27770W        W91538  12.824  30.564  14.877
27771W        W91539   4.914  17.127  14.408
27772W        W91540  20.066   7.904  10.489
27773W        W91541   6.325  42.775   2.769
27774W        W91542  15.225  26.179  13.015
27775W        W91543   6.370  14.198  14.024
27776W        W91544  18.148   3.709  10.556
27777W        W91545  20.556  26.665   2.293
27778W        W91546  27.175  28.541  12.995
27779W        W91547  33.919  42.353   4.633
27780W        W91548  21.603   0.293  13.519
27781W        W91549  23.037  12.646  10.942
27782W        W91550   7.403  30.070  12.418
27783W        W91551  23.207  18.209  10.427
27784W        W91552   0.851  16.576  14.908
27785W        W91553  28.012  20.183   3.649
27786W        W91554  33.407   4.231  13.519
27787W        W91555  34.402  16.163  11.056
27788W        W91556   9.330  37.502  10.538
27789W        W91557  31.916  37.370  13.541
27790W        W91558  22.199  25.991  12.502
27791W        W91559  24.093  25.048  12.996
27792W        W91560  18.710   7.673   2.398
27793W        W91561  30.927  24.704  10.440
27794W        W91562  25.111  33.529  14.485
27795W        W91563  29.003  29.919  11.928
27796W        W91564   9.313  41.998   1.366
27797W        W91565  30.558  11.824  12.937
27798W        W91566  44.480  44.337   2.398
27799W        W91567  25.980   9.662   4.794
27800W        W91568  23.503  12.289  14.809
27801W        W91569  39.000  42.339   3.371
27802W        W91570  31.517  25.972  14.955
27803W        W91571   4.865  39.847   3.853
27804W        W91572  21.582  38.988   3.793
27805W        W91573  34.921  16.783   1.869
27806W        W91574  21.645  38.370   1.246
27807W        W91575   9.159  19.116  14.992
27808W        W91576  11.157  35.506  13.846
27809W        W91577  42.813  24.116   2.266
27810W        W91578  10.257  42.353  10.910
27811W        W91579  20.260  30.633  10.040
27812W        W91580  40.544  23.002   4.179
27813W        W91581  44.784  38.515  11.543
27814W        W91582  13.259   9.350  11.409
27815W        W91583  14.186   7.383   2.816
27816W        W91584   5.428  16.722   4.327
27817W        W91585  28.574  15.612   0.733
27818W        W91586   3.216  23.569   3.172
27819W        W91587  38.468   8.273  14.369
27820W        W91588  23.539   1.288  13.332
27821W        W91589  27.606  10.328  10.539
27822W        W91590  24.075  43.435  13.994
27823W        W91591  18.067  40.945   3.292
27824W        W91592  15.606  34.006  13.976
27825W        W91593  11.687   4.720   0.262
27826W        W91594  30.165  11.335  12.376
27827W        W91595  34.580  23.152   2.808
27828W        W91596   0.465  40.843  13.037
27829W        W91597  42.355  19.274  14.759
27830W        W91598  26.078  19.208  10.429
27831W        W91599   8.351   0.421   2.373
27832W        W91600  23.489  44.851  12.074
27833W        W91601  18.108  19.279  13.803
27834W        W91602   6.753   2.369  14.319
27835W        W91603  37.997  41.908  14.864
27836W        W91604   2.248  30.033  13.398
27837W        W91605  44.427  34.586  14.395
27838W        W91606  25.606   4.895  10.550
27839W        W91607  24.699  33.503  10.979
27840W        W91608  41.325   6.810   1.754
27841W        W91609  22.580  39.419   0.278
27842W        W91610   8.672  19.704   2.257
27843W        W91611  41.508   7.802  13.344
27844W        W91612  24.717  14.810  10.888
27845W        W91613   4.897  44.487   1.233
27846W        W91614  35.000  38.016   2.814
27847W        W91615  25.680  32.429   0.756
27848W        W91616  35.973  29.632  13.889
27849W        W91617  23.538  27.124  12.941
27850W        W91618  15.794   9.214   3.719
27851W        W91619  43.810  26.644   2.872
27852W        W91620  44.352   6.724   1.914
27853W        W91621  40.432  13.292   2.752
27854W        W91622  42.864   8.820  12.918
27855W        W91623  21.018  37.366   0.446
27856W        W91624  13.774   2.840   0.352
27857W        W91625   6.349  23.065   3.224
27858W        W91626  23.024  36.941  11.012
27859W        W91627   2.770   3.364  14.922
27860W        W91628  22.205  32.907   4.262
27861W        W91629   6.687  39.039   4.247
27862W        W91630  43.866   6.311  12.875
27863W        W91631  11.315  34.492   1.757
27864W        W91632  10.324  40.358   1.280
27865W        W91633   1.360  10.253  10.990
27866W        W91634   7.761  31.990  10.123
27867W        W91635  13.783  18.120  14.422
27868W        W91636   7.338  37.553   2.390
27869W        W91637   7.841   8.716  12.481
27870W        W91638  44.002  22.008  10.432
27871W        W91639   8.674   7.774  12.992
27872W        W91640  42.799  42.859   3.151
27873W        W91641  15.653  43.787   3.631
27874W        W91642  32.947   5.854   0.309
27875W        W91643   7.412  35.943  13.849
27876W        W91644   6.762  37.866   3.154
27877W        W91645  32.122  10.352  11.600
27878W        W91646  36.530  20.767   2.202
27879W        W91647  14.799  14.152  11.877
27880W        W91648  29.079  21.169   2.876
27881W        W91649  26.640  26.149   2.409
27882W        W91650  37.353  22.203  10.959
27883W        W91651  17.716  14.673  14.887
27884W        W91652  34.430  30.129  10.450
27885W        W91653  35.559  41.819   0.344
27886W        W91654   0.457  18.186   0.787
27887W        W91655  28.177  39.034   5.123
27888W        W91656  44.336  34.388   0.342
27889W        W91657  37.896  24.137  14.492
27890W        W91658   7.268  18.161  13.495
27891W        W91659   6.301   1.963   1.779
27892W        W91660  40.984  28.496  11.455
27893W        W91661  43.764  34.613   2.787
27894W        W91662  32.031  27.158  14.364
27895W        W91663  12.150  30.593   3.686
27896W        W91664  35.395   9.665  13.809
27897W        W91665  40.339  34.087   0.252
27898W        W91666  39.334  39.965  12.888
27899W        W91667  24.118  40.023  13.325
27900W        W91668  21.692  13.661  10.630
27901W        W91669  28.982  13.328  13.914
27902W        W91670   9.341  24.103  12.853
27903W        W91671   6.345  34.556   4.605
27904W        W91672   3.402   9.656  12.989
27905W        W91673   5.267  36.531   3.776
27906W        W91674  32.106  33.613   3.673
27907W        W91675   1.483  13.130  11.887
27908W        W91676  16.627   0.774   1.913
27909W        W91677  40.905  15.193  11.114
27910W        W91678   2.235   9.745   4.246
27911W        W91679  41.484  13.600  13.046
27912W        W91680  18.641  18.067   3.827
27913W        W91681  28.101  27.030  14.925
27914W        W91682  23.196   2.380  14.926
27915W        W91683  30.951  34.957  11.935
27916W        W91684   3.752  22.690  14.774
27917W        W91685  11.159   8.756  11.016
27918W        W91686   2.811  42.984   0.479
27919W        W91687  15.639   5.416  11.886
27920W        W91688   1.824  36.559  13.465
27921W        W91689  21.730  15.204  11.128
27922W        W91690  41.513   1.318   4.679
27923W        W91691  27.560   3.753   0.773
27924W        W91692  21.613  24.154   4.717
27925W        W91693  18.546  39.347   1.835
27926W        W91694  44.404  42.283  10.413
27927W        W91695   6.428  17.686  14.910
27928W        W91696  11.177   6.758   2.725
27929W        W91697  36.920   8.855   3.339
27930W        W91698  40.483  20.578   2.344
27931W        W91699  19.182   7.764  10.611
27932W        W91700  37.530   4.370   0.730
27933W        W91701  43.292  38.473   2.322
27934W        W91702  41.032   4.901   0.325
27935W        W91703   9.763   8.834   4.192
27936W        W91704  40.000  34.604   4.774
27937W        W91705  32.910   9.274   4.241
27938W        W91706  22.714  35.502  13.498
27939W        W91707  13.348   3.220   4.782
27940W        W91708  28.525   0.418   1.919
27941W        W91709  39.886   3.216   2.381
27942W        W91710  44.843  18.181   4.326
27943W        W91711  36.563   6.749  12.861
27944W        W91712  32.401  21.153  13.502
27945W        W91713  22.739  17.590  13.526
27946W        W91714   3.838  13.183   2.242
27947W        W91715  44.485  36.441   5.158
27948W        W91716   5.212  35.084  11.921
27949W        W91717  43.947   3.949  13.361
27950W        W91718  27.976  44.287   1.795
27951W        W91719  37.862  20.550  10.997
27952W        W91720  13.773   2.411  14.014
27953W        W91721  13.711  12.664  14.926
27954W        W91722   4.229  37.847   3.748
27955W        W91723  33.513  39.847  12.936
27956W        W91724  25.032  12.311   1.242
27957W        W91725  37.568   1.385  12.502
27958W        W91726  36.024  31.438  12.504
27959W        W91727  39.411   8.333  13.987
27960W        W91728  25.712  14.822  11.488
27961W        W91729  17.798  43.919   1.704
27962W        W91730  44.423  18.151  13.460
27963W        W91731   9.797  24.494   0.439
27964W        W91732   7.309   6.209  12.839
27965W        W91733   2.759  44.473  14.452
27966W        W91734   5.204  31.487  13.029
27967W        W91735   6.264   3.841   3.724
27968W        W91736  15.234  31.631   1.762
27969W        W91737  19.279  12.640   2.678
27970W        W91738   5.831  18.192  13.909
27971W        W91739  37.020  42.400   0.345
27972W        W91740  43.330  26.150   4.346
27973W        W91741  13.326  33.449  12.494
27974W        W91742  38.041  12.686  11.429
27975W        W91743  33.622  33.509   4.115
27976W        W91744  24.538   3.724  10.404
27977W        W91745  13.209  26.085   1.844
27978W        W91746  37.056   1.258  14.971
27979W        W91747  36.087  42.967  14.402
27980W        W91748  44.881   6.267   0.257
27981W        W91749  39.429  35.063   1.740
27982W        W91750  34.559  37.929  12.365
27983W        W91751  22.061  31.940   0.318
27984W        W91752  39.989  16.165   3.675
27985W        W91753  44.286  28.028   2.293
27986W        W91754  29.992  14.595  14.857
27987W        W91755  19.641  14.271  10.950
27988W        W91756  41.300   9.838  14.287
27989W        W91757   8.401  34.007   1.846
27990W        W91758  22.518  14.303   9.970
27991W        W91759  43.830  39.388   0.289
27992W        W91760  20.764  19.620  14.339
27993W        W91761  41.370  19.567  13.973
27994W        W91762  35.433  17.778   4.227
27995W        W91763  32.985  43.804   3.246
27996W        W91764  14.711   0.920  13.486
27997W        W91765  37.376  30.960   3.334
27998W        W91766   6.389  17.644  12.884
27999W        W91767  18.757  28.487  13.015
28000W        W91768  10.871  26.172   4.336
28001W        W91769  18.096  10.818   1.755
28002W        W91770  33.536  14.137   5.156
28003W        W91771  42.430  33.545   2.195
28004W        W91772  29.496  35.918   0.361
28005W        W91773  33.926  24.120   1.801
28006W        W91774  36.933  10.262  14.380
28007W        W91775  29.453  31.023  14.017
28008W        W91776   2.877  14.829  13.373
28009W        W91777  20.703  43.505   0.276
28010W        W91778   9.319  43.926   3.705
28011W        W91779  19.041   2.766  14.447
28012W        W91780  33.433  35.887  10.443
28013W        W91781   5.881   4.789   0.414
28014W        W91782  26.008  44.856  13.000
28015W        W91783   0.251  33.103   2.413
28016W        W91784  12.769  43.816  12.946
28017W        W91785  35.429  41.957   4.656
28018W        W91786  21.534  26.683   1.814
28019W        W91787  11.770   8.744   4.641
28020W        W91788  11.251  32.489   3.722
28021W        W91789  28.940  12.636   3.218
28022W        W91790  25.220   5.694  14.810
28023W        W91791   2.834  13.280  14.452
28024W        W91792  16.183  26.502   4.256
28025W        W91793   3.853  40.409  12.868
28026W        W91794  26.656  20.593  14.011
28027W        W91795  42.324  11.702   3.638
28028W        W91796   8.867  11.692  11.019
28029W        W91797  29.063  30.514  12.090
28030W        W91798  21.559  24.611   4.118
28031W        W91799  25.570  11.825  13.379
28032W        W91800  21.560  44.949   3.315
28033W        W91801  14.626  18.565  13.526
28034W        W91802  22.145  13.130   2.327
28035W        W91803  40.523   7.308  12.897
28036W        W91804  17.675  21.126  13.020
28037W        W91805  30.150  19.076   3.668
28038W        W91806  35.453  23.125   4.349
28039W        W91807  17.775  28.118   4.649
28040W        W91808   7.777  11.799  11.452
28041W        W91809  41.327   2.353  13.994
28042W        W91810   3.255   0.265   2.736
28043W        W91811  31.511  35.868  13.975
28044W        W91812   8.659  21.582  12.845
28045W        W91813  24.567  44.391  14.811
28046W        W91814  39.523  21.652  14.436
28047W        W91815  32.543  34.902  12.392
28048W        W91816   2.326  42.369   3.721
28049W        W91817  31.011  22.714   0.814
28050W        W91818  25.208  13.822  13.398
28051W        W91819  34.434  42.014  13.537
28052W        W91820  14.808   4.267  11.041
28053W        W91821   3.831  16.309   4.641
28054W        W91822  15.114  21.707  12.964
28055W        W91823  37.494  12.273   1.755
28056W        W91824  14.140  35.372   3.303
28057W        W91825  21.067  23.646  10.544
28058W        W91826   6.341  36.905  12.083
28059W        W91827  14.187  17.751   5.236
28060W        W91828  16.631  18.755  11.588
28061W        W91829   0.917  21.092   3.748
28062W        W91830  31.402   4.724   2.249
28063W        W91831   8.763  12.766   1.371
28064W        W91832  19.082   4.896   3.831
28065W        W91833   4.940  43.328  13.858
28066W        W91834  15.786  30.655  12.957
28067W        W91835  13.733  30.643  14.031
28068W        W91836  37.979   5.194  11.579
28069W        W91837  28.027  43.875  14.013
28070W        W91838  27.029  42.862  10.926
28071W        W91839  15.650  30.545   4.619
28072W        W91840  14.761  11.657   9.595
28073W        W91841   3.800  11.711   4.304
28074W        W91842  29.629  19.106   0.959
28075W        W91843   6.268  38.472   1.857
28076W        W91844  31.080   5.904   3.794
28077W        W91845  23.173  11.648  12.941
28078W        W91846  23.080  31.037   2.198
28079W        W91847  35.982  15.700   1.270
28080W        W91848  20.245  16.253   2.805
28081W        W91849  30.970  10.781  10.920
28082W        W91850  36.867  29.498   4.714
28083W        W91851  19.712  16.190  10.429
28084W        W91852   5.210   3.954   4.722
28085W        W91853  13.782  26.657   0.839
28086W        W91854  41.405  15.134   1.270
28087W        W91855  39.904  40.829  10.523
28088W        W91856  34.928  36.911  11.115
28089W        W91857  18.648  13.266  10.628
28090W        W91858  11.201  25.066   4.745
28091W        W91859  12.355  36.549   3.235
28092W        W91860   8.768  34.031   1.380
28093W        W91861  44.987  22.096   0.894
28094W        W91862  41.364  27.610  14.324
28095W        W91863  40.384  29.084   2.418
28096W        W91864  20.253  24.152   2.220
28097W        W91865  32.434  23.683  12.517
28098W        W91866  33.929  14.834   1.812
28099W        W91867  44.439  36.934  13.531
28100W        W91868   6.883   7.278  12.851
28101W        W91869   1.470  23.663  10.460
28102W        W91870  43.823  14.755  10.464
28103W        W91871  41.007  30.073  10.571
28104W        W91872  21.614  23.142   0.417
28105W        W91873  22.096  33.603   3.820
28106W        W91874  41.508  31.062   9.938
28107W        W91875  15.165  36.455  14.439
28108W        W91876  15.217   9.827  14.500
28109W        W91877   6.372   3.774  12.394
28110W        W91878  14.333   7.759   3.283
28111W        W91879  26.618   4.722  13.422
28112W        W91880  10.226   1.877  14.337
28113W        W91881  10.370  22.251  12.996
28114W        W91882  19.666  14.738   3.740
28115W        W91883  43.471  13.287  11.436
28116W        W91884  31.084  40.534  11.927
28117W        W91885  42.029  10.750   3.196
28118W        W91886  31.943  25.702  11.579
28119W        W91887  42.334  19.249   4.604
28120W        W91888  27.160   4.859  11.066
28121W        W91889  32.978  27.177  12.473
28122W        W91890  20.234   5.438   3.833
28123W        W91891  22.577   8.327  13.841
28124W        W91892  25.549   3.419   1.752
28125W        W91893  42.917  33.441  11.483
28126W        W91894  44.868  40.999   3.634
28127W        W91895  38.071  10.211  13.536
28128W        W91896  23.117   1.949  10.610
28129W        W91897  22.999  40.921   0.481
28130W        W91898  41.391  39.528  13.955
28131W        W91899  36.563  34.033  14.415
28132W        W91900  16.248   1.954   0.962
28133W        W91901  27.459  33.415  11.577
28134W        W91902  21.536  16.168   2.816
28135W        W91903   1.759  20.248   2.725
28136W        W91904   5.752  38.422  12.437
28137W        W91905  21.635  24.590  13.450
28138W        W91906  17.625  27.061   3.238
28139W        W91907   4.350   6.343  12.897
28140W        W91908  30.995   7.274   3.212
28141W        W91909  31.146  20.648  12.495
28142W        W91910  17.580  17.700   4.113
28143W        W91911  35.395  31.047  12.825
28144W        W91912  38.025   0.319  14.355
28145W        W91913  10.304   9.861  11.014
28146W        W91914   5.406   8.699  13.402
28147W        W91915  12.310  12.193   3.782
28148W        W91916  13.680   6.820   4.662
28149W        W91917   3.370  18.202   4.267
28150W        W91918  25.578   2.809  12.997
28151W        W91919  19.701  25.126  11.014
28152W        W91920  30.953  26.507   4.800
28153W        W91921  28.105  23.995  11.582
28154W        W91922   4.928   8.284  13.483
28155W        W91923  23.527  29.624  11.885
28156W        W91924   9.279  13.690  11.484
28157W        W91925  37.474  25.689   3.764
28158W        W91926   6.739  29.498  11.492
28159W        W91927  35.502  43.368   4.821
28160W        W91928  41.839   6.377   1.302
28161W        W91929  44.930   1.825   0.358
28162W        W91930  17.666   8.288   1.354
28163W        W91931  38.453  19.759   0.378
28164W        W91932  43.899  44.756  10.904
28165W        W91933   4.925   2.896  13.798
28166W        W91934   0.357  35.048   3.742
28167W        W91935  40.877  39.393  12.916
28168W        W91936  12.297  22.008   3.298
28169W        W91937   2.341  29.159   1.272
28170W        W91938  39.532  17.713   4.316
28171W        W91939  34.923  29.040  14.867
28172W        W91940   5.815  33.068  10.528
28173W        W91941  20.128  10.289  11.566
28174W        W91942  14.658  15.763  13.871
28175W        W91943  11.761  38.955  13.813
28176W        W91944  17.587  44.792   2.225
28177W        W91945  19.257  38.040   0.469
28178W        W91946  15.740   1.903   1.420
28179W        W91947  32.942  29.639  12.445
28180W        W91948  29.472  43.997   4.637
28181W        W91949  37.072  20.177  12.852
28182W        W91950   4.834  33.408   0.966
28183W        W91951   2.451  36.463   2.200
28184W        W91952  40.321  10.317  13.994
28185W        W91953  22.009  19.248  13.505
28186W        W91954   3.425  19.210  13.055
28187W        W91955  33.424  30.560   1.219
28188W        W91956   3.929  30.151   3.783
28189W        W91957  40.890  22.579  11.030
28190W        W91958  16.666  15.743  10.501
28191W        W91959  40.956   9.762   2.181
28192W        W91960  18.642  38.478   1.770
28193W        W91961  39.902  18.256   1.762
28194W        W91962  26.149  34.066   3.802
28195W        W91963   8.769   9.328  11.599
28196W        W91964  19.708  12.277   0.816
28197W        W91965  23.173  13.221   4.183
28198W        W91966  24.520   5.436   3.792
28199W        W91967  24.230   8.187   2.766
28200W        W91968  26.954  41.912   2.187
28201W        W91969  28.087  18.286   5.235
28202W        W91970  37.355  15.261  10.458
28203W        W91971  31.065  26.064  11.087
28204W        W91972   3.907  26.076  13.872
28205W        W91973  37.478  23.589   4.704
28206W        W91974  34.056  18.702  12.011
28207W        W91975   5.810  38.409   0.280
28208W        W91976  34.530  31.478   3.209
28209W        W91977   8.310  26.535   0.267
28210W        W91978  13.232  44.008   4.669
28211W        W91979  23.193   0.492  11.411
28212W        W91980  31.538  42.365   4.619
28213W        W91981   7.712  27.143   3.665
28214W        W91982   9.807  36.003   4.644
28215W        W91983  31.939  29.982  11.612
28216W        W91984  20.572  18.115   0.374
28217W        W91985  37.881   1.444  14.859
28218W        W91986  44.403  12.272  12.896
28219W        W91987   7.272  31.492  13.888
28220W        W91988  12.749  17.694   4.783
28221W        W91989   6.686  43.932  14.807
28222W        W91990  31.473  20.168   2.198
28223W        W91991  40.309  39.342   4.318
28224W        W91992  38.896  20.602  12.975
28225W        W91993   1.410  44.921  12.349
28226W        W91994  16.609  15.229  12.097
28227W        W91995  21.733   0.874   0.313
28228W        W91996  36.401  31.027  12.015
28229W        W91997  30.572  27.453  14.901
28230W        W91998  36.965  23.658   3.179
28231W        W91999  43.337   8.282  13.362
28232W        W92000  30.143  44.904   4.762
28233W        W92001  43.906  21.613  14.431
28234W        W92002   6.377  36.913  13.971
28235W        W92003  41.856  43.951   2.261
28236W        W92004  16.290  40.964  14.926
28237W        W92005  16.233  14.828  12.341
28238W        W92006   4.859   9.870  10.488
28239W        W92007  44.308  43.286  12.553
28240W        W92008  37.074  16.785  13.981
28241W        W92009  39.519   4.390   2.293
28242W        W92010  18.252  35.501  10.942
28243W        W92011   2.773   8.693  10.523
28244W        W92012   2.950  28.938   4.175
28245W        W92013  17.141  17.637   0.913
28246W        W92014  29.140   3.734   4.747
28247W        W92015  12.824   6.861  10.532
28248W        W92016  25.609  13.199  14.311
28249W        W92017  29.924  40.380  12.486
28250W        W92018  11.281  15.264   0.730
28251W        W92019  36.455   9.313   3.169
28252W        W92020  16.260   1.341  12.450
28253W        W92021  40.902  29.526  10.976
28254W        W92022  14.757  13.267   2.767
28255W        W92023   8.321   5.908  13.869
28256W        W92024  32.036   3.240  14.927
28257W        W92025  18.604   0.915  11.897
28258W        W92026  35.507  11.269   2.240
28259W        W92027   3.863   6.401  13.335
28260W        W92028   5.415   4.357  11.494
28261W        W92029  32.572  44.447  12.372
28262W        W92030   1.347  37.462  10.998
28263W        W92031  16.711  26.551  13.042
28264W        W92032  16.785  38.960   2.289
28265W        W92033  29.518  18.677  12.025
28266W        W92034  18.249  16.660   1.441
28267W        W92035  28.449  43.459   1.815
28268W        W92036  34.870  26.030   3.770
28269W        W92037   4.888  36.966   1.350
28270W        W92038  20.567  14.236  14.806
28271W        W92039  41.030  41.381   2.744
28272W        W92040  25.114  20.051  12.831
28273W        W92041  44.502  12.223   2.686
28274W        W92042  34.078  15.226   0.796
28275W        W92043   4.383  35.026  13.499
28276W        W92044  27.518   1.928  10.982
28277W        W92045  22.192  41.900   1.364
28278W        W92046  21.030  22.092   1.876
28279W        W92047  41.792  32.033   0.434
28280W        W92048   9.277  28.560   4.288
28281W        W92049  33.541  36.038   2.195
28282W        W92050  13.753  25.137   2.771
28283W        W92051  42.907  16.217   2.766
28284W        W92052  28.472   5.734   4.813
28285W        W92053  40.307  11.767  12.081
28286W        W92054  28.122   6.275   1.784
28287W        W92055   0.290  13.599   0.771
28288W        W92056  29.618  23.608  10.588
28289W        W92057  41.411  42.967  14.783
28290W        W92058  18.214  12.707   0.967
28291W        W92059  13.202   7.394  12.457
28292W        W92060  19.102  24.654   3.223
28293W        W92061  22.729  23.693   1.781
28294W        W92062  22.653   3.302  11.420
28295W        W92063   6.195  32.572   3.759
28296W        W92064   1.342   7.790  11.959
28297W        W92065  33.429  40.018   3.325
28298W        W92066  24.168  36.873  10.086
28299W        W92067  34.503  37.383   1.824
28300W        W92068  44.487  38.061  12.982
28301W        W92069  35.545  37.375  13.874
28302W        W92070  18.187   1.976  13.862
28303W        W92071  34.080  14.237   3.791
28304W        W92072  17.121  31.545  14.000
28305W        W92073   5.866   8.807  14.950
28306W        W92074   4.714  34.988   2.376
28307W        W92075   4.794  25.658   1.421
28308W        W92076  43.372  43.022   5.108
28309W        W92077  37.448  11.761   5.160
28310W        W92078   4.850  20.062   3.380
28311W        W92079  23.671   7.409  14.424
28312W        W92080   1.474   7.215   0.954
28313W        W92081  25.068  36.999  11.537
28314W        W92082  17.756  41.957   2.396
28315W        W92083  10.834  40.309   4.284
28316W        W92084   0.284  15.225  13.036
28317W        W92085  13.600   6.733  12.466
28318W        W92086  10.870   2.863   1.764
28319W        W92087   6.902  40.864  12.520
28320W        W92088  42.851  43.808  13.847
28321W        W92089  32.054  23.634   4.198
28322W        W92090  40.309  23.650   4.694
28323W        W92091   9.800  33.106   4.756
28324W        W92092  42.004  40.993   3.177
28325W        W92093  37.991  28.132  13.307
28326W        W92094  42.354  31.985  13.436
28327W        W92095   3.818  11.800  12.488
28328W        W92096  15.726  43.361   0.737
28329W        W92097   4.871  30.562   4.162
28330W        W92098  25.116  20.095  12.471
28331W        W92099  13.308  12.215   2.722
28332W        W92100   3.886  42.909   2.406
28333W        W92101  34.481   1.241   4.654
28334W        W92102  11.690  10.691   4.126
28335W        W92103   1.950  40.498   3.784
28336W        W92104  43.999  20.039  12.999
28337W        W92105  12.677  10.273  10.547
28338W        W92106  41.472   3.293  14.369
28339W        W92107  41.464  39.481   2.294
28340W        W92108   3.861  33.920  14.293
28341W        W92109  21.197  14.165   0.298
28342W        W92110  18.256  31.534   2.714
28343W        W92111  25.168  33.951  12.979
28344W        W92112  13.804  25.965   1.261
28345W        W92113  12.613  24.180  11.042
28346W        W92114  28.070  39.051   3.278
28347W        W92115  36.350  21.751   0.421
28348W        W92116  20.608  31.580   2.234
28349W        W92117   6.865   7.859  11.907
28350W        W92118  39.559  30.565   1.428
28351W        W92119  29.093  43.940  10.477
28352W        W92120   6.386  34.886   2.413
28353W        W92121  22.087  27.079  11.058
28354W        W92122  26.033  26.610   0.779
28355W        W92123  12.645  25.605  10.525
28356W        W92124  32.104  39.475   2.345
28357W        W92125  21.613  22.169   0.846
28358W        W92126  39.465  32.400  14.914
28359W        W92127  30.593  39.814   0.348
28360W        W92128  40.542  28.111   1.249
28361W        W92129  25.067   3.450  13.396
28362W        W92130  23.615  15.168  10.596
28363W        W92131  17.757  36.845  14.509
28364W        W92132  43.839   9.157  14.419
28365W        W92133  19.719  12.624   0.870
28366W        W92134  28.505  13.331   0.381
28367W        W92135  13.181  19.168  11.402
28368W        W92136  23.674  12.626  13.859
28369W        W92137   5.276  29.510  14.867
28370W        W92138  35.907  34.605   2.730
28371W        W92139  38.821  21.205  12.524
28372W        W92140  31.537  15.094   3.855
28373W        W92141  14.605  39.889   1.383
28374W        W92142  28.633  25.161   1.340
28375W        W92143  30.070  19.589   2.663
28376W        W92144  11.639  25.140  14.976
28377W        W92145  12.152  40.911  12.370
28378W        W92146  31.127  42.949  11.428
28379W        W92147   3.906  33.065   2.791
28380W        W92148  19.720  12.638   4.629
28381W        W92149  18.087  28.031  14.291
28382W        W92150  29.115  37.419  10.503
28383W        W92151  40.382  20.551   4.809
28384W        W92152   2.822   1.434  11.916
28385W        W92153  20.689  37.910   4.772
28386W        W92154   6.782   5.796  13.444
28387W        W92155  30.130   2.831   1.871
28388W        W92156  39.432  25.612  11.488
28389W        W92157  35.913   9.327   0.951
28390W        W92158   4.792  33.101  11.375
28391W        W92159  32.416  43.371  11.383
28392W        W92160  39.948  21.696  13.350
28393W        W92161  15.617  44.837   2.802
28394W        W92162  37.956  24.974  12.947
28395W        W92163  27.068  25.117  14.428
28396W        W92164   3.263  36.876  14.997
28397W        W92165  12.646  29.145  10.405
28398W        W92166   5.696  20.708   1.265
28399W        W92167  12.334   5.342   3.147
28400W        W92168  39.880  25.016  13.825
28401W        W92169  41.792  33.445  14.312
28402W        W92170   4.874   1.421   2.328
28403W        W92171   6.388  16.287  11.569
28404W        W92172   9.246   4.295   3.183
28405W        W92173  43.456  18.772   3.659
28406W        W92174   1.330  13.735   3.259
28407W        W92175  44.991   8.864  12.067
28408W        W92176  37.510  41.513  10.973
28409W        W92177   1.431  24.024  12.395
28410W        W92178  21.658   5.192   3.245
28411W        W92179  29.562  43.942  12.520
28412W        W92180  12.186  23.592   1.873
28413W        W92181  31.123  14.620   1.303
28414W        W92182  22.063  22.250   1.270
28415W        W92183  25.089  15.302   3.192
28416W        W92184  42.841  10.315  13.011
28417W        W92185  12.802  23.991  14.514
28418W        W92186  32.918  33.592  12.502
28419W        W92187  30.972  42.387   0.346
28420W        W92188  22.561  15.637   3.685
28421W        W92189  44.786  27.186   4.801
28422W        W92190  39.417   3.446  12.067
28423W        W92191   9.218  11.698  13.482
28424W        W92192  36.570  24.607  13.952
28425W        W92193  12.837  16.643   3.161
28426W        W92194  39.333  26.115  13.930
28427W        W92195  10.759  19.575   1.378
28428W        W92196   5.721  31.486   1.441
28429W        W92197  15.105  43.988   4.319
28430W        W92198  14.148  10.779   0.286
28431W        W92199  43.992   6.338   2.707
28432W        W92200   2.300   9.813  12.887
28433W        W92201  24.132   4.329   4.617
28434W        W92202   8.728  15.295   4.310
28435W        W92203  19.549  16.166  13.487
28436W        W92204   4.855  12.167   4.273
28437W        W92205  13.144  26.638   4.333
28438W        W92206   2.938  36.374  11.547
28439W        W92207  11.159  17.254  13.531
28440W        W92208  11.162   7.727  13.514
28441W        W92209  38.439  39.396   1.380
28442W        W92210  16.206  30.431  14.802
28443W        W92211  25.121   8.782  11.546
28444W        W92212   1.426  38.927  13.493
28445W        W92213  36.582  24.629   2.892
28446W        W92214  16.618  41.908   3.263
28447W        W92215   7.796  20.751   0.349
28448W        W92216   6.820  18.083  13.007
28449W        W92217  42.930  13.798  11.088
28450W        W92218  23.670   0.480   0.860
28451W        W92219  43.413  13.711   2.328
28452W        W92220  14.629  30.105  13.012
28453W        W92221  31.989   7.768  14.312
28454W        W92222  15.722  15.595   5.120
28455W        W92223   6.368  10.841  12.561
28456W        W92224   1.422  27.079   4.712
28457W        W92225  18.610  34.955  10.606
28458W        W92226  33.023   5.772  12.496
28459W        W92227   0.269   2.946   1.864
28460W        W92228  15.695  43.286  10.549
28461W        W92229  15.124  18.564   5.268
28462W        W92230  15.672  20.102   9.954
28463W        W92231  28.678  37.416   0.481
28464W        W92232  28.615  41.393   2.365
28465W        W92233  17.801  40.513  12.347
28466W        W92234  15.698  40.516   0.283
28467W        W92235  12.300  10.285  11.439
28468W        W92236  26.664  43.500   4.747
28469W        W92237  32.443   8.235   2.823
28470W        W92238  23.591  20.028  13.910
28471W        W92239  14.248   8.721  14.419
28472W        W92240  14.638  17.700   0.423
28473W        W92241  13.636  17.136   4.618
28474W        W92242   6.696  13.722   0.737
28475W        W92243  20.036  38.991  12.904
28476W        W92244  33.983  38.991  12.832
28477W        W92245   8.872  11.664   0.850
28478W        W92246  37.482  36.086  12.864
28479W        W92247  17.713  25.696  11.441
28480W        W92248  37.567   7.266  10.154
28481W        W92249   8.360  29.590  12.906
28482W        W92250  20.701  34.015   1.889
28483W        W92251  19.712  35.934  14.923
28484W        W92252  20.220  15.238   3.862
28485W        W92253  11.763  10.688   0.734
28486W        W92254  24.531  37.386  13.023
28487W        W92255  26.582   1.795  13.889
28488W        W92256  39.963   1.390   2.900
28489W        W92257  31.961  35.981  14.454
28490W        W92258  42.801  32.546  13.998
28491W        W92259  43.781  23.096   1.210
28492W        W92260   5.846  34.536   2.273
28493W        W92261  44.330  31.947   1.727
28494W        W92262  33.497  22.542   2.342
28495W        W92263  25.159  30.036  13.888
28496W        W92264  44.994  14.645  10.557
28497W        W92265  11.770  37.541  12.842
28498W        W92266   9.797  24.537   2.793
28499W        W92267  36.546  16.648  10.483
28500W        W92268  18.291  21.745   4.694
28501W        W92269  13.305   7.816  13.533
28502W        W92270   0.426  43.488   2.273
28503W        W92271  22.072  35.485   2.786
28504W        W92272  30.160  10.152  10.575
28505W        W92273  23.236  18.064  11.105
28506W        W92274  30.475  24.581   1.762
28507W        W92275  28.561  35.390   1.362
28508W        W92276  14.713   0.345  13.542
28509W        W92277  14.600  27.022  11.607
28510W        W92278  12.612  23.574   3.254
28511W        W92279  26.112   4.302  13.349
28512W        W92280  16.659   3.392  13.823
28513W        W92281  22.017  37.508  14.856
28514W        W92282  37.347  38.874  13.861
28515W        W92283  15.110  30.938   1.415
28516W        W92284  15.714  11.633  14.958
28517W        W92285  35.997  26.673  14.922
28518W        W92286  18.119  14.630  13.844
28519W        W92287  12.825  40.814  11.589
28520W        W92288  39.929   8.727   3.150
28521W        W92289  26.051  31.500   5.612
28522W        W92290  43.507  44.448   2.675
28523W        W92291   2.939  26.070   2.256
28524W        W92292  31.897  35.596  10.467
28525W        W92293  35.974  15.123   0.815
28526W        W92294  18.098  44.497  12.480
28527W        W92295  11.327  23.493   2.268
28528W        W92296  35.927  15.581   4.694
28529W        W92297  31.098  16.309  12.486
28530W        W92298  25.643  17.097  10.442
28531W        W92299  14.127  26.121   0.371
28532W        W92300  19.258  25.028  10.518
28533W        W92301  13.698  26.973  13.414
28534W        W92302  27.592  32.491   4.619
28535W        W92303  14.780  27.654  12.989
28536W        W92304   7.708  43.467   3.255
28537W        W92305  26.032  41.451  13.480
28538W        W92306  30.556  40.443  11.374
28539W        W92307  42.409  34.441   2.694
28540W        W92308  13.212  14.798   4.706
28541W        W92309   8.855   3.455   0.829
28542W        W92310  19.561  44.838  13.499
28543W        W92311   2.838  32.407   2.676
28544W        W92312  15.741  21.671   3.385
28545W        W92313  23.200  27.534   2.400
28546W        W92314  12.686   4.910  14.951
28547W        W92315  11.285  44.427   3.259
28548W        W92316  24.082  34.513   0.912
28549W        W92317  21.654   3.240  10.036
28550W        W92318  44.002  11.144  10.598
28551W        W92319  27.651   3.774   2.707
28552W        W92320  43.814  31.956   3.650
28553W        W92321  11.320  13.648  11.467
28554W        W92322  24.688  14.309  13.809
28555W        W92323  23.100   7.276   3.770
28556W        W92324  30.057   4.772   2.751
28557W        W92325  20.647   9.346   2.772
28558W        W92326  37.890  36.590  12.081
28559W        W92327  16.807   5.428  13.840
28560W        W92328  32.942  40.945   3.848
28561W        W92329  30.162  24.533   4.777
28562W        W92330  37.579  27.982   1.744
28563W        W92331  21.104  40.844   3.865
28564W        W92332  23.589  41.791   4.831
28565W        W92333  17.167  26.461   3.261
28566W        W92334  27.668  22.657   1.828
28567W        W92335  15.255   4.808   1.887
28568W        W92336  30.431  24.710   3.710
28569W        W92337  43.370  34.064  12.348
28570W        W92338  22.620   3.724   0.790
28571W        W92339  18.771  37.941  12.353
28572W        W92340  19.572   0.493  10.602
28573W        W92341  21.542  20.737   3.302
28574W        W92342  14.291  10.868   2.306
28575W        W92343  16.185   9.370   0.797
28576W        W92344   1.250   8.705   0.911
28577W        W92345  41.468  42.916   3.269
28578W        W92346  11.264  11.639  13.000
28579W        W92347  39.053  16.084   1.243
28580W        W92348  41.440  35.933   0.317
28581W        W92349  30.058   7.405  14.361
28582W        W92350   3.255  34.093   4.157
28583W        W92351  24.604  15.183  13.488
28584W        W92352  38.916  33.888   2.898
28585W        W92353   7.872  41.004  11.473
28586W        W92354  37.438  16.742  10.053
28587W        W92355  17.179  19.166  10.043
28588W        W92356  38.990  29.559  14.343
28589W        W92357  37.946  44.794  14.359
28590W        W92358  39.818  40.911   4.650
28591W        W92359  29.940  30.922  14.015
28592W        W92360  36.851  31.139   3.644
28593W        W92361  15.596  14.653   3.328
28594W        W92362  20.639  35.106   3.217
28595W        W92363  29.555   9.865   2.688
28596W        W92364  23.240   2.832   4.727
28597W        W92365  44.402  31.509  14.328
28598W        W92366   8.181  20.560   3.844
28599W        W92367  26.205   0.931   1.712
28600W        W92368  43.302   2.868  13.439
28601W        W92369  41.483  15.696   1.700
28602W        W92370  33.914   9.703  11.425
28603W        W92371  21.667  44.920  10.926
28604W        W92372  16.254   0.456  14.279
28605W        W92373   0.441  23.627  14.354
28606W        W92374  30.015  11.318  12.951
28607W        W92375  43.818  32.008   5.162
28608W        W92376  30.133  40.035   0.788
28609W        W92377   3.290  10.334  10.937
28610W        W92378  38.899  23.561   0.872
28611W        W92379   9.732  12.627   1.280
28612W        W92380  31.406  36.476   2.183
28613W        W92381  36.581  18.291   0.869
28614W        W92382  25.982  23.680  11.427
28615W        W92383  19.616  35.935   2.387
28616W        W92384  24.589   6.428   3.236
28617W        W92385  43.856  35.556   1.388
28618W        W92386  35.597   3.310   4.151
28619W        W92387   6.880  15.697   1.772
28620W        W92388  10.647  18.100  14.013
28621W        W92389   0.413  22.691  10.918
28622W        W92390   9.799   0.951  13.516
28623W        W92391  19.720  36.593  12.539
28624W        W92392   0.315  27.445   1.448
28625W        W92393  43.963  20.548  12.987
28626W        W92394  26.070  23.016   3.155
28627W        W92395  24.629   5.249  11.063
28628W        W92396  37.063  25.564   1.923
28629W        W92397  15.302  41.938  13.939
28630W        W92398  41.926  35.893  12.519
28631W        W92399  20.696   7.736   3.368
28632W        W92400  18.086  16.699  12.395
28633W        W92401  10.663  34.077   4.146
28634W        W92402  39.903  30.428   4.187
28635W        W92403  31.032  26.549  10.419
28636W        W92404  36.979  37.070  14.307
28637W        W92405  24.080  16.132  14.993
28638W        W92406  34.506  14.331   0.308
28639W        W92407  28.631   5.776   4.276
28640W        W92408   6.251  15.260   1.743
28641W        W92409  13.819  10.644  14.888
28642W        W92410  24.660   9.302   4.747
28643W        W92411   3.746  24.065  14.943
28644W        W92412  39.940  16.621   4.622
28645W        W92413  36.949  38.973   3.733
28646W        W92414  12.289  42.495  10.504
28647W        W92415  32.101   9.259  11.009
28648W        W92416  20.739  13.225  10.641
28649W        W92417   2.310  13.675  12.079
28650W        W92418  33.598  23.004   3.706
28651W        W92419   9.166   4.259  12.361
28652W        W92420  37.058  40.925  12.512
28653W        W92421  26.193   2.866   0.402
28654W        W92422  27.954  32.602  14.809
28655W        W92423  38.343  25.671   1.446
28656W        W92424   3.286  30.912   0.419
28657W        W92425  38.854  33.059  14.899
28658W        W92426  36.033  14.723  10.618
28659W        W92427  31.045  14.258   4.166
28660W        W92428  25.111  33.079  12.914
28661W        W92429  32.939  33.505   2.710
28662W        W92430  33.090   1.886   4.652
28663W        W92431  22.695  34.005   1.812
28664W        W92432   8.272  10.748  10.404
28665W        W92433  17.717  30.930  14.388
28666W        W92434   6.292  31.024  13.876
28667W        W92435  11.738   1.851  13.059
28668W        W92436  22.116   2.358  10.585
28669W        W92437  15.272  10.371  11.119
28670W        W92438  34.565   4.419  10.968
28671W        W92439   4.774  33.541   9.949
28672W        W92440  35.573  11.865   4.629
28673W        W92441  26.668  33.620   4.281
28674W        W92442  42.370  42.348   2.407
28675W        W92443  43.384  17.173  14.310
28676W        W92444  38.851   0.382  11.423
28677W        W92445  20.584  17.154  12.935
28678W        W92446  24.721  28.552  10.475
28679W        W92447  24.026  10.878   1.334
28680W        W92448  39.895  41.531   2.222
28681W        W92449   1.753   7.173  12.551
28682W        W92450  41.441  36.377   2.703
28683W        W92451  42.009  19.172   0.902
28684W        W92452  30.961  43.768  13.307
28685W        W92453  21.039   6.775  13.443
28686W        W92454   8.682  18.213   2.773
28687W        W92455  31.011  19.679   2.827
28688W        W92456  23.192   9.756  12.063
28689W        W92457  33.890   9.820  14.496
28690W        W92458  28.533   9.299  14.418
28691W        W92459  19.746  30.640   1.751
28692W        W92460  31.031  15.124  13.796
28693W        W92461   4.348   3.815   2.279
28694W        W92462  28.149  28.016  14.862
28695W        W92463  37.430  20.731   0.869
28696W        W92464   0.463  33.083  13.454
28697W        W92465  37.008  33.074   3.170
28698W        W92466  34.420  10.253  11.976
28699W        W92467  32.958  23.171  11.990
28700W        W92468  15.707   7.895   4.597
28701W        W92469   4.371  37.844   4.163
28702W        W92470  31.630   6.248  10.481
28703W        W92471  25.125  19.633  12.880
28704W        W92472  33.422  40.880  12.347
28705W        W92473   8.356  24.216  10.568
28706W        W92474  32.508   2.468  12.495
28707W        W92475  42.411  21.206  10.533
28708W        W92476   0.449  36.382  11.380
28709W        W92477  28.535  23.099  14.430
28710W        W92478  15.207  27.585  14.850
28711W        W92479  21.741  11.772  11.992
28712W        W92480  16.195  36.972   4.622
28713W        W92481  16.619  22.210  11.968
28714W        W92482  33.501   5.263   1.703
28715W        W92483   1.844  16.640  14.496
28716W        W92484   8.271   6.689  10.935
28717W        W92485  14.593  20.764  10.539
28718W        W92486  35.075  28.074  10.964
28719W        W92487  30.113   4.876  13.812
28720W        W92488   6.844  35.854   4.599
28721W        W92489  43.402  13.828  12.486
28722W        W92490  32.544  24.722  14.302
28723W        W92491  10.645  24.500   1.904
28724W        W92492   4.218  35.453   1.259
28725W        W92493   4.705   8.196  12.435
28726W        W92494  43.275  33.485  10.016
28727W        W92495  44.402  39.830  12.871
28728W        W92496  32.099  29.492  14.326
28729W        W92497   0.982  20.218   2.802
28730W        W92498   9.212  44.910   3.705
28731W        W92499  11.776  29.131  13.474
28732W        W92500  16.715  26.080   5.688
28733W        W92501   2.443  28.087  13.541
28734W        W92502  14.779  12.848   4.141
28735W        W92503  39.494  35.855  12.978
28736W        W92504  43.911  13.757  12.998
28737W        W92505  30.501  15.751   5.096
28738W        W92506   1.815  24.558   2.775
28739W        W92507  20.730  39.463   4.295
28740W        W92508  11.189   3.904   2.774
28741W        W92509   8.742   5.353   4.829
28742W        W92510  38.927  32.561   1.340
28743W        W92511  10.713  21.105  13.823
28744W        W92512   2.885   2.288   1.843
28745W        W92513  38.486  22.128  14.873
28746W        W92514   4.270  32.921  13.983
28747W        W92515  18.099  41.329   1.327
28748W        W92516  14.221  32.136  11.068
28749W        W92517  34.460  10.647   1.893
28750W        W92518  24.718  35.081   0.868
28751W        W92519  43.001  26.033  13.461
28752W        W92520  22.084  42.976  12.938
28753W        W92521  29.087  37.068  11.435
28754W        W92522  29.635  33.554   4.147
28755W        W92523  39.952  41.322   2.662
28756W        W92524  35.857   6.892  11.893
28757W        W92525  43.387  15.185  11.931
28758W        W92526  17.639  34.499  11.532
28759W        W92527  38.526  38.349  10.954
28760W        W92528  18.131  30.625  13.372
28761W        W92529  35.520  35.447  14.508
28762W        W92530  40.457   5.221  13.950
28763W        W92531   0.979  40.316  11.945
28764W        W92532   0.905  16.674   0.735
28765W        W92533  34.016  36.036  14.798
28766W        W92534  36.403  41.925   2.841
28767W        W92535   3.357  42.467  13.873
28768W        W92536  17.200   4.243   1.413
28769W        W92537  21.090   9.334  14.794
28770W        W92538  31.113  36.533   0.377
28771W        W92539  19.155  20.523  11.438
28772W        W92540   5.303   2.878   3.266
28773W        W92541  10.353  32.503  13.815
28774W        W92542  41.439  14.763   4.737
28775W        W92543   7.392   5.814   2.793
28776W        W92544  18.107  36.862   2.778
28777W        W92545  35.383  24.985   0.444
28778W        W92546  35.400  23.085  13.383
28779W        W92547  40.340  10.142   3.797
28780W        W92548  17.651  18.631  13.889
28781W        W92549  16.168   9.755  13.797
28782W        W92550  27.946  43.957   1.843
28783W        W92551   8.318  28.004  13.946
28784W        W92552  38.023  41.040  13.812
28785W        W92553  18.261  27.120  12.899
28786W        W92554  44.337  39.418  14.408
28787W        W92555   3.714  30.490   0.265
28788W        W92556  31.009  34.911   2.781
28789W        W92557  17.673   0.986  14.468
28790W        W92558  22.075  20.164   2.759
28791W        W92559  40.033  29.450   0.851
28792W        W92560  39.059  18.583   4.270
28793W        W92561   4.910  29.537  12.479
28794W        W92562  22.071  11.291  11.928
28795W        W92563  32.573   8.373  14.887
28796W        W92564  31.080  11.163   3.350
28797W        W92565  33.494  43.844  11.896
28798W        W92566   5.342  24.030   0.385
28799W        W92567  41.963  10.360   3.847
28800W        W92568  28.933   8.704   3.283
28801W        W92569  17.718  44.275   1.221
28802W        W92570  13.298   2.358   3.336
28803W        W92571  21.228  14.665   1.266
28804W        W92572  26.457  39.371   4.613
28805W        W92573  11.759  13.171   1.924
28806W        W92574  28.045  29.570  10.404
28807W        W92575  37.972  40.525  10.539
28808W        W92576   8.729  39.061   4.293
28809W        W92577  41.482   8.824  11.897
28810W        W92578   8.793  35.041   2.182
28811W        W92579  12.712  21.186  11.385
28812W        W92580   1.352  23.035  14.359
28813W        W92581  43.513  15.298  13.806
28814W        W92582  23.219   1.878   0.961
28815W        W92583  10.286  21.559  11.424
28816W        W92584  33.004  37.428  11.026
28817W        W92585  38.862  27.064   3.172
28818W        W92586  16.672   6.256   1.814
28819W        W92587  25.144  24.208  13.341
28820W        W92588  34.496   3.910   4.176
28821W        W92589  10.383  15.598  12.830
28822W        W92590  21.514  40.923  11.592
28823W        W92591  34.978  26.565  10.637
28824W        W92592  33.118   9.377   3.266
28825W        W92593  40.331  43.446  10.535
28826W        W92594  37.430  32.601   3.365
28827W        W92595  16.582   4.208  11.021
28828W        W92596  20.188  26.564   0.957
28829W        W92597   6.260   1.368  14.475
28830W        W92598   0.828  11.692   5.127
28831W        W92599  15.723  35.511  14.887
28832W        W92600  22.074  37.087  13.869
28833W        W92601   1.793   1.881   4.305
28834W        W92602  10.152  30.469   4.748
28835W        W92603   7.864  12.617   3.728
28836W        W92604   0.987   3.793  13.307
28837W        W92605  37.070  29.993  12.508
28838W        W92606   5.712  13.143   1.222
28839W        W92607  11.177  40.408   4.772
28840W        W92608  13.679  25.169   9.930
28841W        W92609   5.790  21.691  12.914
28842W        W92610   3.450  29.130  10.477
28843W        W92611  23.008   6.195  13.405
28844W        W92612  32.493  16.748   2.255
28845W        W92613  31.960  44.835  13.903
28846W        W92614  44.959  21.153  10.943
28847W        W92615  32.463   5.280   2.307
28848W        W92616  18.645  32.972   5.273
28849W        W92617  42.437  42.486  13.376
28850W        W92618  34.385  42.024   2.722
28851W        W92619  15.264   0.488   2.824
28852W        W92620   7.188  17.112   0.395
28853W        W92621  26.085  20.650  13.813
28854W        W92622  15.165  22.570   1.815
28855W        W92623  41.038  37.497   2.236
28856W        W92624  11.276  37.940  14.014
28857W        W92625  10.235  40.452  14.851
28858W        W92626  20.154   6.357  14.372
28859W        W92627  42.347   5.744  13.418
28860W        W92628  32.390   7.184   2.184
28861W        W92629  15.820  42.469   3.226
28862W        W92630  40.304  20.079  11.864
28863W        W92631  39.389  32.125  12.439
28864W        W92632  39.554   5.897  11.085
28865W        W92633  30.159  43.807   4.223
28866W        W92634  35.409  33.464  14.304
28867W        W92635  30.944  15.626   0.936
28868W        W92636  28.167  32.902   1.268
28869W        W92637  10.868  37.428  10.628
28870W        W92638   4.282   1.428  12.913
28871W        W92639  39.515   5.932   2.296
28872W        W92640  41.843  19.702   5.159
28873W        W92641  44.427  19.151   3.272
28874W        W92642  43.324   2.445   4.156
28875W        W92643  37.485  34.093   2.765
28876W        W92644  20.636   5.750  12.985
28877W        W92645  34.117  34.927  13.970
28878W        W92646  32.422   4.356  13.009
28879W        W92647  33.416  36.465  10.891
28880W        W92648  22.608   9.710   0.408
28881W        W92649  41.402   7.763  13.932
28882W        W92650  37.062   3.253  14.884
28883W        W92651  12.774  28.019  12.404
28884W        W92652  33.481  23.092  14.429
28885W        W92653  19.159  18.550   3.643
28886W        W92654  35.408  33.449  11.053
28887W        W92655  39.335   7.870   4.231
28888W        W92656   2.869  16.088  10.572
28889W        W92657  34.115  36.849  14.908
28890W        W92658   9.841  42.021  14.760
28891W        W92659   6.743  21.197   3.794
28892W        W92660  18.051   8.364  14.779
28893W        W92661  19.577  16.181   0.752
28894W        W92662  31.988  14.770   4.715
28895W        W92663   2.246   6.252  12.461
28896W        W92664  29.556  12.789  13.001
28897W        W92665  29.464   3.931   2.786
28898W        W92666  44.953  32.121  14.445
28899W        W92667  31.074   4.395   2.662
28900W        W92668  28.636  15.602   4.705
28901W        W92669  34.953  14.801  12.375
28902W        W92670  14.761  20.169   3.677
28903W        W92671   6.396  25.581  14.828
28904W        W92672  30.533  16.727  11.471
28905W        W92673   6.905  23.203  11.890
28906W        W92674  14.663  21.712  11.087
28907W        W92675   8.366  21.147  12.364
28908W        W92676  19.150  16.263   9.936
28909W        W92677  44.857  25.709  12.390
28910W        W92678  17.107  18.633  13.490
28911W        W92679   6.804  31.509  13.534
28912W        W92680   7.757   2.442   1.863
28913W        W92681  23.692  35.427  11.054
28914W        W92682  13.626  20.590  11.105
28915W        W92683  28.985   4.718   2.802
28916W        W92684  13.694  11.234  11.958
28917W        W92685  14.726   3.364  11.417
28918W        W92686  13.823  37.460  13.894
28919W        W92687  12.617  11.277  11.967
28920W        W92688  12.727   1.806   4.332
28921W        W92689   0.339  18.208  12.532
28922W        W92690   2.363  37.831  11.387
28923W        W92691  12.319  41.816   4.688
28924W        W92692  26.675  17.121   5.248
28925W        W92693  24.703   0.453  14.502
28926W        W92694   1.314  11.657  12.897
28927W        W92695   9.686   0.249   4.163
28928W        W92696  37.358  25.617   2.881
28929W        W92697   6.407  29.017   4.140
28930W        W92698  35.510  34.543  14.307
28931W        W92699  20.605   3.763   3.842
28932W        W92700  19.763  43.467   4.603
28933W        W92701   7.186  28.627   2.181
28934W        W92702  42.995  13.148   1.359
28935W        W92703   2.814  41.333  14.769
28936W        W92704   6.219  40.972  10.514
28937W        W92705   5.193  37.474  10.543
28938W        W92706  39.869  24.199   4.821
28939W        W92707  42.337  20.182  10.602
28940W        W92708  33.955   5.885   3.782
28941W        W92709  40.914  15.308   0.824
28942W        W92710  24.193   8.758   9.962
28943W        W92711   2.734  37.500   0.292
28944W        W92712  13.342  25.217   0.853
28945W        W92713   5.771  15.268  12.943
28946W        W92714   6.808  28.095  11.595
28947W        W92715  14.654   7.800   2.403
28948W        W92716  27.473  18.223  12.826
28949W        W92717  27.193  20.639  12.932
28950W        W92718   2.462  40.532   4.634
28951W        W92719  44.774  40.953   1.813
28952W        W92720  13.682  28.936  12.411
28953W        W92721  28.544  37.877  13.937
28954W        W92722  10.179  20.092   2.331
28955W        W92723  14.612  28.031  11.581
28956W        W92724  28.009  21.093  10.910
28957W        W92725  30.653  24.223  10.936
28958W        W92726  34.592  37.545  12.872
28959W        W92727  27.055   3.277  10.495
28960W        W92728  22.067  32.446   2.760
28961W        W92729  34.942  40.477  14.987
28962W        W92730  26.654  35.914  11.465
28963W        W92731  12.276  17.084  12.508
28964W        W92732  32.452  30.487   0.823
28965W        W92733  35.513   1.288  10.907
28966W        W92734  19.119  30.613  10.988
28967W        W92735  30.591  19.714  14.964
28968W        W92736  43.982   7.882   0.816
28969W        W92737   4.267  15.176   1.442
28970W        W92738  19.632  34.959  10.421
28971W        W92739  34.061  35.485  14.763
28972W        W92740   1.883  32.627   1.340
28973W        W92741  44.385  25.494  11.883
28974W        W92742  19.274   7.746   1.847
28975W        W92743   8.884  39.552   0.291
28976W        W92744  27.164  23.708   4.170
28977W        W92745  15.636  19.077  13.470
28978W        W92746   9.821  13.706   2.393
28979W        W92747  17.121  35.525  12.930
28980W        W92748  26.112  10.877   4.348
28981W        W92749  10.234  18.091  12.544
28982W        W92750  44.938  12.850   2.295
28983W        W92751  41.388  27.447   0.910
28984W        W92752  18.594  41.531   2.667
28985W        W92753  30.150  26.583  14.402
28986W        W92754   9.736   4.835   0.361
28987W        W92755  31.528  43.982  13.976
28988W        W92756  16.652   0.293   3.296
28989W        W92757  21.690  33.966   0.927
28990W        W92758  35.078  44.366   2.894
28991W        W92759  32.933   7.311  12.478
28992W        W92760   5.781   0.431   2.377
28993W        W92761  15.771   5.799   0.389
28994W        W92762  44.848   8.791   5.167
28995W        W92763  36.368   7.845   4.278
28996W        W92764  18.232  38.864   1.769
28997W        W92765  34.930  33.454  13.999
28998W        W92766  23.567  21.534   2.724
28999W        W92767  37.963  34.368   4.277
29000W        W92768  43.852  43.514   4.322
29001W        W92769  20.248  23.524  13.426
29002W        W92770   9.776  22.659   0.801
29003W        W92771   9.290  34.984  12.980
29004W        W92772   8.766  25.625  13.495
29005W        W92773  13.262  37.476   2.367
29006W        W92774  40.004  42.350  11.113
29007W        W92775   4.331  10.273   1.922
29008W        W92776  10.757   3.861   4.185
29009W        W92777  15.266  25.207   3.225
29010W        W92778  37.026   3.715   3.269
29011W        W92779  24.064  21.233  13.960
29012W        W92780  10.153   3.328  13.544
29013W        W92781  26.642  43.465  12.057
29014W        W92782   1.816  19.169  12.452
29015W        W92783  33.534  44.992   2.236
29016W        W92784   5.260  13.719  10.431
29017W        W92785  35.991  10.217  14.803
29018W        W92786  17.594  12.217   0.741
29019W        W92787  38.360  27.620   1.889
29020W        W92788  44.898  35.511  13.459
29021W        W92789  41.525  15.662   3.745
29022W        W92790  31.491  28.117   2.412
29023W        W92791  25.065  44.332  12.908
29024W        W92792  25.470  10.678   5.778
29025W        W92793   0.347  15.298   4.146
29026W        W92794  19.050  22.185  14.502
29027W        W92795  15.693  10.316   2.263
29028W        W92796  43.280   0.339   3.643
29029W        W92797  38.372  35.084  13.957
29030W        W92798   2.253  28.443   0.770
29031W        W92799   3.870  29.610   1.753
29032W        W92800  25.106  24.991   3.162
29033W        W92801  21.080  23.687   0.382
29034W        W92802  39.347  31.982  10.434
29035W        W92803  11.769  22.212  13.338
29036W        W92804  41.505  10.824   4.612
29037W        W92805   0.768  18.642  11.951
29038W        W92806  44.831  18.195  14.387
29039W        W92807  44.358   1.282  14.454
29040W        W92808  32.065  35.966  12.407
29041W        W92809  39.381  36.060   0.853
29042W        W92810  31.467  30.005  12.409
29043W        W92811  31.017  18.241   2.885
29044W        W92812  21.147  38.041  10.968
29045W        W92813  32.120  25.192   0.296
29046W        W92814  13.833  41.529  14.014
29047W        W92815   5.784  11.673  12.489
29048W        W92816  23.716   7.700   3.794
29049W        W92817  10.845  23.656   0.867
29050W        W92818  27.062  30.958   1.855
29051W        W92819   5.797   3.378   2.778
29052W        W92820  27.520  15.227  10.478
29053W        W92821  29.550  16.569   0.903
29054W        W92822  33.103  10.288   4.334
29055W        W92823  25.180  12.637   4.230
29056W        W92824  20.182  10.701  13.524
29057W        W92825  44.286  30.633  10.480
29058W        W92826   3.330   6.270  13.327
29059W        W92827  35.488  34.608   0.939
29060W        W92828   3.733  19.266   2.687
29061W        W92829  32.601  12.729  13.894
29062W        W92830   3.795  38.466  14.364
29063W        W92831  13.208  37.850   3.706
29064W        W92832  35.576   3.434  14.328
29065W        W92833  30.645   2.319   0.809
29066W        W92834  22.517  37.867  10.087
29067W        W92835  18.278   1.247   4.288
29068W        W92836  28.009  20.170  10.889
29069W        W92837   5.857  25.571   4.298
29070W        W92838  44.771  22.684  12.376
29071W        W92839  31.429  36.426   1.290
29072W        W92840  31.597  34.458   3.820
29073W        W92841  16.144  32.473   3.211
29074W        W92842  10.171   8.776   0.427
29075W        W92843  20.605  17.221  13.847
29076W        W92844  27.472  16.200   1.906
29077W        W92845  41.927  36.035  13.426
29078W        W92846  36.896  41.400  14.504
29079W        W92847  13.349  13.828   1.277
29080W        W92848  11.235  15.207  14.366
29081W        W92849   2.849  40.337  10.438
29082W        W92850   0.339   6.693   4.202
29083W        W92851  17.198  19.248   0.398
29084W        W92852  11.314   7.736   0.386
29085W        W92853  42.893  41.523  11.434
29086W        W92854  12.845  35.389   2.272
29087W        W92855  21.224   5.308   1.285
29088W        W92856  15.595   5.719   4.156
29089W        W92857   3.371  23.558  14.952
29090W        W92858  34.909   9.374   9.654
29091W        W92859  38.363   6.765  11.375
29092W        W92860   8.209  42.521  13.425
29093W        W92861  37.561  22.519   2.705
29094W        W92862  29.501  34.401  14.456
29095W        W92863  19.130  30.115   3.843
29096W        W92864  13.129  32.018  14.820
29097W        W92865  35.073   4.264  11.012
29098W        W92866  31.152  33.038  12.463
29099W        W92867  41.042  23.105   1.818
29100W        W92868  31.003  42.304   2.334
29101W        W92869  27.640   1.846  13.362
29102W        W92870   9.165  22.612   1.884
29103W        W92871   2.952  21.524   3.327
29104W        W92872  37.509  30.081   2.768
29105W        W92873  15.626   7.788   2.183
29106W        W92874  18.188  44.867  12.420
29107W        W92875  31.562  26.609  11.049
29108W        W92876  35.540  23.735  12.938
29109W        W92877  14.107  20.109   0.420
29110W        W92878  29.516   6.272   1.933
29111W        W92879   4.898   5.369  14.814
29112W        W92880   2.364  13.732   1.722
29113W        W92881   1.918  20.066  11.883
29114W        W92882  37.366  44.331  13.859
29115W        W92883  29.494  22.132  12.883
29116W        W92884  39.482  11.226   4.788
29117W        W92885  16.810  33.537  13.379
29118W        W92886  15.143  28.469   4.274
29119W        W92887   2.275  43.513  14.787
29120W        W92888  13.751  12.631   3.255
29121W        W92889  21.669  22.165  11.090
29122W        W92890   6.864  28.127   3.358
29123W        W92891  12.804   1.785   3.287
29124W        W92892  40.458  39.404  11.567
29125W        W92893  22.115  14.740   3.751
29126W        W92894  14.721  11.763  13.948
29127W        W92895  25.482   2.445   2.393
29128W        W92896  34.112  14.217  10.481
29129W        W92897  16.692  34.467  12.344
29130W        W92898   0.452  11.693   3.841
29131W        W92899  21.040  13.272   3.659
29132W        W92900  15.775  17.275  12.941
29133W        W92901  10.339   2.797   4.784
29134W        W92902   1.248   3.428   3.379
29135W        W92903   0.307  11.272   1.851
29136W        W92904   9.212  29.923  11.537
29137W        W92905  18.118   2.806   1.873
29138W        W92906  31.955  38.989   2.187
29139W        W92907  11.641   3.856   3.255
29140W        W92908  37.459  26.190  10.630
29141W        W92909   0.354   7.685  13.008
29142W        W92910  33.996  36.855  13.907
29143W        W92911  30.150  33.616   3.803
29144W        W92912  43.002   5.403  13.997
29145W        W92913  27.584  20.198  14.964
29146W        W92914   1.384  18.102  13.337
29147W        W92915  30.934   1.246  10.955
29148W        W92916  41.826  11.776  12.930
29149W        W92917  29.641   4.247   1.932
29150W        W92918  42.966  24.102  12.488
29151W        W92919  13.648  28.072  12.356
29152W        W92920   9.767  33.524  13.510
29153W        W92921  18.248  12.645  11.885
29154W        W92922  14.716  42.976   0.253
29155W        W92923   9.871  31.141   1.431
29156W        W92924   1.372  39.907   0.349
29157W        W92925  44.756  25.988  14.977
29158W        W92926  16.244  11.739   4.722
29159W        W92927  37.060  32.549  10.982
29160W        W92928  36.522  14.616  10.423
29161W        W92929  44.293  37.476  14.940
29162W        W92930  32.576  22.165  10.440
29163W        W92931  42.374   0.903   3.846
29164W        W92932   1.803  34.016   1.404
29165W        W92933  18.556  44.323   5.277
29166W        W92934  32.947  42.009   0.355
29167W        W92935   0.355  14.177  14.818
29168W        W92936  10.237  44.769  10.970
29169W        W92937  44.817  38.336   1.707
29170W        W92938  41.964  18.181  11.456
29171W        W92939   1.932   8.245  14.830
29172W        W92940  38.833  40.430  10.438
29173W        W92941  17.633   1.301   1.774
29174W        W92942  41.805  12.620  14.820
29175W        W92943  41.962   2.725   3.376
29176W        W92944  33.424  26.570   1.303
29177W        W92945  11.758   6.685   4.640
29178W        W92946  22.686  22.515   2.809
29179W        W92947  18.711  40.840   0.294
29180W        W92948  34.409  27.121  11.371
29181W        W92949  31.093   9.351  11.483
29182W        W92950  34.080   5.755   0.359
29183W        W92951  23.135  21.231  10.460
29184W        W92952  21.655  28.153  14.934
29185W        W92953  22.221  27.117  12.975
29186W        W92954  42.513  35.103  13.352
29187W        W92955  35.014   5.300   4.635
29188W        W92956  40.390  19.094   0.465
29189W        W92957   1.790   0.257  13.318
29190W        W92958  15.624  42.932   0.753
29191W        W92959  44.469  28.064  10.628
29192W        W92960  31.509  30.423  14.016
29193W        W92961  39.318  35.967  12.557
29194W        W92962  26.069   7.824  13.394
29195W        W92963  13.171  39.496  13.346
29196W        W92964  17.562  28.985   4.760
29197W        W92965  28.569   4.326  14.949
29198W        W92966  23.514  25.063  12.054
29199W        W92967   4.209  43.307  12.993
29200W        W92968  13.756  11.158  10.493
29201W        W92969  28.126   6.312   5.179
29202W        W92970  23.180  10.835   3.353
29203W        W92971  25.518   7.309   4.129
29204W        W92972  14.267  33.595  12.060
29205W        W92973  11.209  25.059   3.652
29206W        W92974   3.785  14.098  14.471
29207W        W92975  14.601  29.634   5.144
29208W        W92976  32.590  29.014   4.173
29209W        W92977  43.869   8.690  12.016
29210W        W92978  41.951  22.681   9.982
29211W        W92979  11.360  18.659   4.202
29212W        W92980  21.158  34.029   4.633
29213W        W92981  15.664  23.590   0.359
29214W        W92982   4.332  33.096   0.789
29215W        W92983  36.423  33.049   4.268
29216W        W92984  23.113  42.829   4.605
29217W        W92985  43.390  41.464  13.968
29218W        W92986  13.236   4.699   4.227
29219W        W92987  22.084  38.507   0.944
29220W        W92988  27.066  30.930  10.417
29221W        W92989   6.181  10.356  10.926
29222W        W92990  42.907  34.487  10.471
29223W        W92991   5.194  37.533   1.730
29224W        W92992  11.762  27.989   9.939
29225W        W92993  37.497  32.128   0.848
29226W        W92994   5.236  23.573   3.168
29227W        W92995  25.712  27.666  14.776
29228W        W92996   6.330   9.732   0.758
29229W        W92997  41.326  34.575   1.236
29230W        W92998   0.988  13.273  14.356
29231W        W92999  34.984  25.645  13.517
29232W        W93000  21.571  25.696  13.846
29233W        W93001  44.792  32.142  13.041
29234W        W93002   6.408  34.118  12.882
29235W        W93003  34.485   9.171  12.510
29236W        W93004   6.916  14.315  12.013
29237W        W93005   7.718  27.668   1.378
29238W        W93006   0.359  39.958   0.483
29239W        W93007   3.330  38.490  10.625
29240W        W93008  23.497  30.034  11.048
29241W        W93009  36.907  25.509   1.277
29242W        W93010  42.873   8.699  13.472
29243W        W93011   8.370   0.428  14.954
29244W        W93012  12.649   4.316  13.887
29245W        W93013  27.585  22.210  12.086
29246W        W93014  39.436  40.020   0.387
29247W        W93015  31.455   0.368   0.339
29248W        W93016   2.735  31.104   2.297
29249W        W93017  19.554  34.435   4.176
29250W        W93018  34.490  22.682   1.367
29251W        W93019  14.226  22.160   2.745
29252W        W93020  10.250  13.721  11.448
29253W        W93021   5.830  27.038   4.180
29254W        W93022  18.053  21.041   2.669
29255W        W93023  43.297  39.375  14.281
29256W        W93024  18.240  10.265   3.702
29257W        W93025  30.638  18.686   4.287
29258W        W93026  25.213  18.780  10.527
29259W        W93027  42.776  14.667   4.664
29260W        W93028  40.349  33.010  10.944
29261W        W93029   3.807  30.915  14.933
29262W        W93030   0.908  20.728   2.902
29263W        W93031   3.732  39.437  13.826
29264W        W93032  28.154  17.185  12.435
29265W        W93033  28.179   8.692  11.011
29266W        W93034  32.612  20.161  12.503
29267W        W93035  21.196  10.320  14.798
29268W        W93036  11.770   7.295   4.312
29269W        W93037  28.641   7.374  13.912
29270W        W93038  19.694  30.944   0.319
29271W        W93039  42.505  20.543  10.428
29272W        W93040   9.758  35.521   1.420
29273W        W93041  33.876  13.253  13.014
29274W        W93042  16.276  44.314   4.330
29275W        W93043   5.222  34.472  11.053
29276W        W93044  39.963  10.668  13.906
29277W        W93045   5.385  16.783   2.738
29278W        W93046   1.253  22.220  14.325
29279W        W93047   8.328  41.808  11.580
29280W        W93048  42.435  18.070  12.464
29281W        W93049  30.655  40.398   0.394
29282W        W93050  13.803  18.604   1.858
29283W        W93051  10.172  12.261   0.349
29284W        W93052  12.815  27.056  14.506
29285W        W93053  35.092  37.491  10.560
29286W        W93054  14.778  26.612   0.952
29287W        W93055  42.861  40.502  10.557
29288W        W93056   8.785   8.845   2.249
29289W        W93057   0.462  25.066  13.502
29290W        W93058  26.601  27.052  12.352
29291W        W93059   4.790  26.663  10.585
29292W        W93060   7.400   6.676  11.379
29293W        W93061  10.272  27.677   2.718
29294W        W93062  35.420  14.610  12.040
29295W        W93063  20.047  40.360   0.302
29296W        W93064  40.857   9.798   1.250
29297W        W93065  34.914  11.822  14.798
29298W        W93066  28.608   8.813  13.464
29299W        W93067  41.787  43.291  11.469
29300W        W93068   6.368  27.050  12.965
29301W        W93069   0.428  36.994  10.970
29302W        W93070  10.637  33.512   1.871
29303W        W93071  32.424  30.571  13.410
29304W        W93072  41.974  38.836   3.270
29305W        W93073  39.358   6.900   4.648
29306W        W93074   6.868  23.145  14.318
29307W        W93075  35.384  13.350   0.905
29308W        W93076  44.992  16.653   1.296
29309W        W93077  28.038  26.133   2.386
29310W        W93078  29.986  31.636   3.858
29311W        W93079  40.533   1.253   2.408
29312W        W93080  40.438  17.758   1.383
29313W        W93081   7.208  23.603   3.663
29314W        W93082   1.346   8.690  14.959
29315W        W93083  14.134  27.094  10.511
29316W        W93084  21.626   1.367   4.233
29317W        W93085   6.412  31.898  11.525
29318W        W93086  26.100  35.569   2.322
29319W        W93087  23.697  30.097  13.470
29320W        W93088   6.343  16.694  10.567
29321W        W93089  29.467  16.616  12.039
29322W        W93090  11.811  28.536  12.447
29323W        W93091  41.311  23.018   4.306
29324W        W93092  11.242  43.884  13.973
29325W        W93093  10.197   0.779  12.396
29326W        W93094   2.756  13.776   4.774
29327W        W93095  20.666  42.503  11.981
29328W        W93096   6.256  13.731  14.918
29329W        W93097  33.547  41.531  12.929
29330W        W93098  18.117  18.639  10.038
29331W        W93099  13.840  28.521   0.441
29332W        W93100  35.561  25.528  13.497
29333W        W93101   5.826  23.543  11.073
29334W        W93102  14.203   6.913  12.545
29335W        W93103  34.483  11.181   2.400
29336W        W93104  40.864  36.992  10.638
29337W        W93105  15.315  33.433   2.748
29338W        W93106  19.544  17.179   3.233
29339W        W93107   9.830   0.980  11.022
29340W        W93108   3.950  40.041  14.922
29341W        W93109  27.189  16.610   1.834
29342W        W93110  41.434  41.325  14.791
29343W        W93111   8.670  31.027   0.908
29344W        W93112  41.499  14.681   1.322
29345W        W93113  15.304  26.126   0.965
29346W        W93114  36.055  19.170  11.568
29347W        W93115  11.848  16.638  12.544
29348W        W93116  33.029  23.172   0.795
29349W        W93117  13.659   4.211  10.961
29350W        W93118  43.459  22.140  13.850
29351W        W93119  36.394   7.884  12.408
29352W        W93120  12.678  26.503  14.344
29353W        W93121  14.638   4.288  12.085
29354W        W93122  22.527  21.071  13.518
29355W        W93123  26.516  23.500  14.961
29356W        W93124  18.562   2.370   3.868
29357W        W93125  31.595   1.425  10.551
29358W        W93126  10.793  44.923  13.950
29359W        W93127   6.222  17.247   2.321
29360W        W93128  22.027  12.235   5.253
29361W        W93129  19.641  17.102  10.530
29362W        W93130  10.307  38.014  12.872
29363W        W93131   3.922  14.599  12.944
29364W        W93132  28.674  37.869   0.898
29365W        W93133  25.473  20.088   3.362
29366W        W93134   9.150  37.448  12.560
29367W        W93135  43.420  13.745  14.360
29368W        W93136  40.481  40.524   5.113
29369W        W93137  34.872   4.221  14.348
29370W        W93138  13.206   1.842  13.489
29371W        W93139  10.877   4.836   2.287
29372W        W93140  27.117  10.369   2.225
29373W        W93141  28.017  10.277  11.068
29374W        W93142  20.089  12.714   3.259
29375W        W93143  37.941  12.247   0.742
29376W        W93144   7.296  21.166  11.591
29377W        W93145  25.589  43.902  14.838
29378W        W93146  33.550   0.415   4.322
29379W        W93147  26.563  23.031  11.955
29380W        W93148  11.795  26.026   3.178
29381W        W93149   4.215  37.916   3.311
29382W        W93150  33.430   2.357  11.934
29383W        W93151  13.658  42.442   1.850
29384W        W93152   4.805  28.169   3.314
29385W        W93153  43.369  27.108  11.881
29386W        W93154  41.862  15.322  14.960
29387W        W93155  36.411  21.612   1.705
29388W        W93156  27.946  11.131   0.455
29389W        W93157   4.918  42.894  11.110
29390W        W93158   5.876  28.509  13.495
29391W        W93159  14.748   7.777  13.537
29392W        W93160  17.224  22.126   5.133
29393W        W93161  41.498  16.792  11.123
29394W        W93162  26.003  22.147  10.491
29395W        W93163  12.140  41.459  13.370
29396W        W93164  24.173  38.539   4.240
29397W        W93165   0.927  15.773   2.840
29398W        W93166  18.559  35.514   1.297
29399W        W93167  17.128   0.364   2.255
29400W        W93168  33.524  32.984  11.047
29401W        W93169   7.823  44.471  11.876
29402W        W93170   0.458  28.655   4.279
29403W        W93171   7.201  36.457  12.052
29404W        W93172   6.774  24.142  12.904
29405W        W93173  14.272  39.377   0.833
29406W        W93174  23.208  36.436   3.167
29407W        W93175  20.761  36.539   2.691
29408W        W93176  30.435  11.700   2.674
29409W        W93177   8.215  27.121  13.024
29410W        W93178  31.062  40.840  12.518
29411W        W93179  17.600  12.774  14.499
29412W        W93180  33.428  18.285  12.539
29413W        W93181  15.617   3.282  14.890
29414W        W93182  38.490   1.894  14.849
29415W        W93183  14.226  37.850   2.662
29416W        W93184   9.877  27.012   4.151
29417W        W93185  18.262  17.269   3.362
29418W        W93186  10.785  30.510   4.255
29419W        W93187   2.459   9.880  14.424
29420W        W93188  39.544  32.030   1.238
29421W        W93189  25.009  16.749  12.494
29422W        W93190  38.446  16.079  13.028
29423W        W93191  22.160  31.479   2.316
29424W        W93192  13.129  31.955  10.636
29425W        W93193   1.774  25.592  14.855
29426W        W93194  12.794  23.220   4.327
29427W        W93195  39.477  16.805  13.371
29428W        W93196  20.641  44.994   1.932
29429W        W93197  16.311  38.901  14.509
29430W        W93198  16.115   6.345   4.666
29431W        W93199  41.932   7.191  11.913
29432W        W93200   7.354  40.042  12.360
29433W        W93201  25.507  20.533  12.900
29434W        W93202  10.273  31.989  12.060
29435W        W93203  29.148  20.657  14.791
29436W        W93204  19.559  25.179   2.874
29437W        W93205  43.388  32.521  10.521
29438W        W93206  41.977  16.225  13.955
29439W        W93207  18.545  42.297  12.355
29440W        W93208  19.702  12.777   4.229
29441W        W93209   4.271   7.678  14.459
29442W        W93210  21.183  33.606  12.017
29443W        W93211  41.943  25.126  14.460
29444W        W93212  42.334  13.709   1.248
29445W        W93213  21.253  23.017  14.851
29446W        W93214  15.668  14.315   3.211
29447W        W93215   3.360  21.088  10.599
29448W        W93216  34.080  10.639  12.955
29449W        W93217  30.985   7.399   1.413
29450W        W93218   2.753  27.001  14.352
29451W        W93219   6.817   0.301  12.548
29452W        W93220  24.609  44.835   3.630
29453W        W93221  26.618  10.380  13.431
29454W        W93222  29.096  26.612   2.811
29455W        W93223  16.144  31.511  14.296
29456W        W93224  28.452  30.627  12.891
29457W        W93225  29.626   9.849   2.364
29458W        W93226  34.908  10.705   3.734
29459W        W93227  41.883  17.674   0.817
29460W        W93228  40.543  18.694  14.891
29461W        W93229  16.697  26.147  13.335
29462W        W93230   0.483   6.775   1.449
29463W        W93231  40.306  41.015   2.377
29464W        W93232  22.611  31.907   3.721
29465W        W93233  31.593  33.114  12.540
29466W        W93234  11.816  22.540  10.515
29467W        W93235   5.799  35.985   2.321
29468W        W93236  31.482  41.868   1.369
29469W        W93237  29.133  40.907   3.702
29470W        W93238  15.245  31.407  14.018
29471W        W93239   7.241   2.330   2.793
29472W        W93240  37.362   2.435   2.813
29473W        W93241   0.393  42.346  12.519
29474W        W93242  43.832  13.253   4.202
29475W        W93243  19.285  10.143   1.759
29476W        W93244   6.793  34.469  12.061
29477W        W93245   8.695  40.306   5.166
29478W        W93246  37.424   1.913   2.215
29479W        W93247  30.617   1.345  12.388
29480W        W93248  18.185   8.734   0.305
29481W        W93249  29.431  44.862  12.991
29482W        W93250  39.865   3.419   3.792
29483W        W93251  14.126  28.656   3.843
29484W        W93252  20.549  28.649  14.464
29485W        W93253  22.652  25.197   4.182
29486W        W93254   1.257  31.589   0.891
29487W        W93255  16.682  26.068   3.176
29488W        W93256  17.751  38.942  10.941
29489W        W93257  11.252   0.292  12.092
29490W        W93258  38.906  28.485  10.425
29491W        W93259  13.225  42.842  14.455
29492W        W93260  37.361  13.141  11.050
29493W        W93261   0.479  39.043  11.529
29494W        W93262  31.974  15.235   5.214
29495W        W93263  24.084   4.777   0.244
29496W        W93264   5.739  22.580  12.507
29497W        W93265   1.372  27.656  10.970
29498W        W93266  23.705  21.603   4.605
29499W        W93267   9.300  28.993  10.514
29500W        W93268   2.260  14.765  14.378
29501W        W93269  28.168  40.350   3.747
29502W        W93270  14.173  11.266  12.453
29503W        W93271  17.637  43.773  13.470
29504W        W93272  26.995  24.155   1.212
29505W        W93273   6.824  37.569  12.576
29506W        W93274  44.300   4.326  10.968
29507W        W93275   4.805  28.563  13.381
29508W        W93276  24.044  26.011   3.869
29509W        W93277  32.484  15.582   5.581
29510W        W93278   3.740  45.000   3.353
29511W        W93279  39.925  10.210  13.933
29512W        W93280  33.462  44.756   1.789
29513W        W93281  15.135   3.868  10.909
29514W        W93282  10.699   0.898  14.918
29515W        W93283  20.040  37.925   3.292
29516W        W93284  28.676   4.303   4.262
29517W        W93285  13.637  18.758   2.882
29518W        W93286  35.371  25.571  12.885
29519W        W93287  12.659   5.380   0.361
29520W        W93288   6.807  32.097   4.679
29521W        W93289  31.094  36.505   3.293
29522W        W93290  37.438  21.088   3.630
29523W        W93291  27.069  36.453  12.993
29524W        W93292  44.840  25.138   2.301
29525W        W93293  40.849  18.778   0.454
29526W        W93294  16.129  12.671  12.567
29527W        W93295  39.347   1.897  11.057
29528W        W93296  19.607   5.763   0.780
29529W        W93297  13.218  12.128  10.559
29530W        W93298  19.778  34.473  12.579
29531W        W93299  40.540  11.136  10.890
29532W        W93300  32.911   9.779   2.253
29533W        W93301  39.035  17.777  11.974
29534W        W93302  29.503  20.132  14.445
29535W        W93303  28.997  24.720  12.487
29536W        W93304  31.436  44.949  10.970
29537W        W93305  12.650  13.242  13.456
29538W        W93306  13.640   8.197   2.853
29539W        W93307   6.733  34.476   0.382
29540W        W93308  34.504  16.175   1.812
29541W        W93309  15.267  28.100   0.730
29542W        W93310  17.208  43.881  10.959
29543W        W93311  26.106  20.229   0.872
29544W        W93312   3.383   1.824   4.681
29545W        W93313  44.259   1.731  10.907
29546W        W93314  33.542  21.570   3.715
29547W        W93315  26.461  15.730   4.324
29548W        W93316  15.147  32.529  12.089
29549W        W93317  40.388  16.660   1.835
29550W        W93318  27.010  43.994   3.342
29551W        W93319  30.966  22.099  14.843
29552W        W93320   2.350  12.737   4.758
29553W        W93321  43.000   1.864  13.439
29554W        W93322  26.504   7.694  14.899
29555W        W93323   3.300   7.402   4.290
29556W        W93324   8.163  42.468  12.391
29557W        W93325  21.220   8.220  13.473
29558W        W93326  13.205  21.025   9.964
29559W        W93327  27.515  10.277   4.168
29560W        W93328  11.730  24.533   2.302
29561W        W93329  24.090  20.229  13.359
29562W        W93330  20.570   1.260  10.639
29563W        W93331  15.782   6.409   5.294
29564W        W93332  39.359  20.731   1.269
29565W        W93333  26.061  12.186  11.916
29566W        W93334  39.327  15.595   3.247
29567W        W93335  38.550  16.154  11.494
29568W        W93336  15.166  34.072   3.794
29569W        W93337  32.439  34.502   2.252
29570W        W93338  33.955  40.513  10.623
29571W        W93339  42.320   1.781  11.905
29572W        W93340  28.471  15.298  11.048
29573W        W93341  29.664  31.477   3.379
29574W        W93342   9.384   0.985  10.619
29575W        W93343  26.518   0.865  10.940
29576W        W93344  44.395   6.188  12.348
29577W        W93345  21.110  35.573  11.574
29578W        W93346  26.122   1.928   4.666
29579W        W93347   5.723  31.901   1.897
29580W        W93348   5.860  29.611   1.702
29581W        W93349   6.260  37.978  14.942
29582W        W93350  22.727  36.488  13.322
29583W        W93351  36.588  28.148   1.348
29584W        W93352   5.256   4.215  12.910
29585W        W93353  13.619   6.395   1.724
29586W        W93354  27.101   7.718   1.775
29587W        W93355  42.519  12.795  11.493
29588W        W93356  23.572  39.938  13.812
29589W        W93357  16.612  16.299   9.503
29590W        W93358  24.525   8.880  14.290
29591W        W93359  43.939  13.196  14.397
29592W        W93360  13.616   9.245   4.646
29593W        W93361  22.726  39.547   0.909
29594W        W93362   3.410  36.058   0.752
29595W        W93363   8.815  24.608  11.963
29596W        W93364  29.063   1.808   4.253
29597W        W93365  15.130  22.065  11.465
29598W        W93366  26.491  39.492  11.407
29599W        W93367   2.309   0.432  13.963
29600W        W93368  21.095  24.596   2.374
29601W        W93369  27.658  38.969  11.931
29602W        W93370  29.462  13.183   1.808
29603W        W93371  15.284   7.333   2.876
29604W        W93372  43.457   6.369  10.481
29605W        W93373   2.841  43.453  14.831
29606W        W93374  40.548  24.605   1.845
29607W        W93375   4.292   1.757   2.207
29608W        W93376  15.242  33.967   2.274
29609W        W93377  24.705  14.701  13.830
29610W        W93378  11.712  41.455  14.911
29611W        W93379  44.811   5.312  11.934
29612W        W93380  11.817  39.062   3.811
29613W        W93381  11.695   5.704  12.959
29614W        W93382  39.554  18.723   2.817
29615W        W93383  42.433   6.222  13.489
29616W        W93384  14.122  32.552   0.363
29617W        W93385  35.043  32.955  13.050
29618W        W93386  18.144  24.029   1.753
29619W        W93387  16.302  42.931  13.508
29620W        W93388  22.078  28.571  14.895
29621W        W93389  12.215  12.678  14.335
29622W        W93390   0.464  11.329   0.281
29623W        W93391  23.146  16.678  14.815
29624W        W93392   5.361  19.571   0.771
29625W        W93393   4.263  11.695   0.446
29626W        W93394  39.005  16.292   0.866
29627W        W93395  44.960   0.764   1.401
29628W        W93396  31.099   4.231  10.478
29629W        W93397  36.957  14.244  12.446
29630W        W93398  34.955   6.325   0.359
29631W        W93399  29.959  33.516  11.505
29632W        W93400  28.492  19.536  11.425
29633W        W93401   1.874  14.156  10.586
29634W        W93402  26.059  36.086   3.335
29635W        W93403  34.949  19.070  10.415
29636W        W93404  13.187  17.102   0.911
29637W        W93405  37.447  29.583  14.834
29638W        W93406  13.323   0.783   3.768
29639W        W93407  38.832  15.083  11.951
29640W        W93408  16.737  23.118   0.781
29641W        W93409  33.931  43.340   3.806
29642W        W93410  30.012   2.933  10.635
29643W        W93411  41.901  43.880   0.783
29644W        W93412  30.909  44.808   2.687
29645W        W93413   7.681  40.038   3.788
29646W        W93414   9.710  11.789   5.309
29647W        W93415  35.008  23.571   2.824
29648W        W93416   7.781  17.730  12.458
29649W        W93417  44.897  13.842   2.807
29650W        W93418  27.674   2.352  12.393
29651W        W93419  29.560  20.579  12.960
29652W        W93420  17.618  43.785  10.903
29653W        W93421   3.950   8.727   5.147
29654W        W93422  37.891  15.216  13.405
29655W        W93423   5.884  13.687  13.347
29656W        W93424  36.503  32.519  11.450
29657W        W93425  21.108  42.368  11.011
29658W        W93426   6.259  15.793  10.994
29659W        W93427  10.240   1.892  12.091
29660W        W93428  20.121  24.044   1.920
29661W        W93429  19.579  33.901  11.875
29662W        W93430  39.394  25.597  10.518
29663W        W93431  28.959  39.984   0.394
29664W        W93432   4.263  11.705  10.616
29665W        W93433  27.048  28.621  12.400
29666W        W93434  11.795  30.584   0.770
29667W        W93435   1.925  21.752  11.579
29668W        W93436  20.267  36.530   0.824
29669W        W93437   6.247  39.377   3.377
29670W        W93438  43.499  10.766   2.746
29671W        W93439  17.649   5.354  13.388
29672W        W93440  26.483  26.205   3.356
29673W        W93441   3.919  34.447   3.270
29674W        W93442  24.181   9.823  12.476
29675W        W93443  15.589  35.554  11.018
29676W        W93444  20.599  26.174  12.991
29677W        W93445  20.697  35.544  11.381
29678W        W93446  15.674  31.478   4.597
29679W        W93447   8.878  23.726  11.593
29680W        W93448  28.446  36.576  14.474
29681W        W93449  40.890   1.420   3.867
29682W        W93450  22.597   0.275   4.298
29683W        W93451  25.706  35.861   1.224
29684W        W93452  42.939  41.528   2.338
29685W        W93453  26.066  44.456   0.843
29686W        W93454  33.065  35.933  12.027
29687W        W93455  13.824   4.207   1.349
29688W        W93456  30.592  39.837  11.890
29689W        W93457   2.870  23.179   2.862
29690W        W93458  29.001  39.435  12.509
29691W        W93459  43.963  37.422  14.016
29692W        W93460  26.079  39.025   4.678
29693W        W93461  24.113  27.619   0.309
29694W        W93462  12.641  10.837  14.388
29695W        W93463  18.756  34.064   3.809
29696W        W93464  35.887  34.887   0.965
29697W        W93465  17.782  35.947   0.248
29698W        W93466  33.900   1.811  12.031
29699W        W93467   7.206  35.514  13.908
29700W        W93468  34.950  30.652  12.837
29701W        W93469  31.080   7.797  12.907
29702W        W93470  41.321   9.370  14.478
29703W        W93471  23.105  25.610   1.869
29704W        W93472  39.914  24.178  13.962
29705W        W93473  33.590  10.327  13.042
29706W        W93474  30.488  23.516  14.494
29707W        W93475  20.161  22.677   1.429
29708W        W93476  41.293   1.332  11.995
29709W        W93477  24.547  17.761   0.927
29710W        W93478  34.551  27.045  14.297
29711W        W93479   8.234  30.140   1.807
29712W        W93480  19.731  24.606   2.804
29713W        W93481   8.854  20.585  14.979
29714W        W93482  35.400   3.368  12.019
29715W        W93483  15.618  11.857   5.265
29716W        W93484   6.788   9.685   0.814
29717W        W93485  41.809  38.510   4.624
29718W        W93486   6.770  22.028  11.992
29719W        W93487  20.065   0.845   3.722
29720W        W93488  42.824   5.292  12.964
29721W        W93489  28.598  19.605  12.380
29722W        W93490  31.011   9.155   2.895
29723W        W93491  19.267  23.038  12.883
29724W        W93492  16.785  11.627  11.483
29725W        W93493  10.177  26.546  11.383
29726W        W93494  38.866  35.437  13.032
29727W        W93495  37.528  33.956   0.738
29728W        W93496   0.953  15.681  12.553
29729W        W93497   3.780  11.659  14.342
29730W        W93498  19.122  29.922   0.892
29731W        W93499  24.507  23.509  13.395
29732W        W93500  14.201   5.926   2.699
29733W        W93501  26.184  44.320   3.366
29734W        W93502  36.378  34.428   1.818
29735W        W93503  20.072   6.922   0.923
29736W        W93504  42.452  32.016  12.450
29737W        W93505  21.205  29.484   1.704
29738W        W93506  16.271  17.715   2.199
29739W        W93507  15.663  18.686  13.887
29740W        W93508  11.773  30.629  13.041
29741W        W93509  12.187  30.638   3.346
29742W        W93510  42.361  19.107  12.979
29743W        W93511  10.665  12.314  11.385
29744W        W93512   9.888   6.823   1.379
29745W        W93513  35.430  13.638  11.064
29746W        W93514  11.288  39.344   0.730
29747W        W93515  42.294   4.828  14.388
29748W        W93516  40.895  17.090  14.017
29749W        W93517   4.773   4.791   1.801
29750W        W93518  39.939  23.613  13.864
29751W        W93519   6.696   2.939   1.830
29752W        W93520  34.082  28.560  13.938
29753W        W93521  35.941  26.111  13.484
29754W        W93522  10.347  12.746  12.944
29755W        W93523   2.301  43.898   1.864
29756W        W93524  21.132   1.875   4.266
29757W        W93525  17.061  44.993   2.202
29758W        W93526  21.128  28.664  10.422
29759W        W93527  43.312  24.084   4.285
29760W        W93528   5.419  14.224  13.931
29761W        W93529  27.957  41.911  13.483
29762W        W93530  30.563  17.102   1.870
29763W        W93531  33.037  25.119   0.304
29764W        W93532   1.354  38.359   2.328
29765W        W93533  29.112  31.564   4.665
29766W        W93534  27.491  24.562  10.514
29767W        W93535  12.852  43.007   3.815
29768W        W93536  23.637  21.697  12.457
29769W        W93537   8.893   7.383   4.148
29770W        W93538  37.405  44.469  14.833
29771W        W93539  12.808  31.936   2.228
29772W        W93540  42.974   2.928   2.896
29773W        W93541   2.450  26.000  10.433
29774W        W93542  28.641  40.858   1.695
29775W        W93543  31.622  17.692  12.419
29776W        W93544  38.393  39.547  10.615
29777W        W93545  12.193  34.914  10.618
29778W        W93546  12.176  10.823   0.786
29779W        W93547   8.861  37.857  11.937
29780W        W93548  40.345  25.065  11.860
29781W        W93549  13.728  22.113   2.700
29782W        W93550  21.740  22.231  10.613
29783W        W93551  22.046  22.741  12.397
29784W        W93552  40.845  21.695  10.509
29785W        W93553  39.358   2.740  14.429
29786W        W93554  32.602  39.485   1.862
29787W        W93555  34.042  36.547  12.941
29788W        W93556  22.086   9.168   1.363
29789W        W93557   9.773  18.126  14.476
29790W        W93558   9.317  17.693  12.411
29791W        W93559  34.055  36.398   3.829
29792W        W93560  23.700  32.125   2.183
29793W        W93561   3.827  26.475  12.080
29794W        W93562  39.866  31.640  12.916
29795W        W93563  17.061   9.360   1.779
29796W        W93564  14.142  18.216   5.747
29797W        W93565  16.635  24.220  13.900
29798W        W93566  37.339  33.420  10.946
29799W        W93567  35.979  43.831  11.019
29800W        W93568  30.538   1.321   2.302
29801W        W93569  11.738  34.879   2.191
29802W        W93570  34.475   6.911   4.182
29803W        W93571  36.930  23.137  13.833
29804W        W93572  12.847  17.071  14.970
29805W        W93573  31.936  29.594  11.511
29806W        W93574   8.333  10.780  14.492
29807W        W93575  34.563  12.756  12.479
29808W        W93576   9.366  13.804   2.850
29809W        W93577  32.918  40.508  11.569
29810W        W93578   6.350   9.869   2.876
29811W        W93579  35.515  13.309   2.661
29812W        W93580   5.203  43.430  11.553
29813W        W93581  18.142  19.098  14.814
29814W        W93582  42.789  31.583   4.782
29815W        W93583  20.545  31.473  12.952
29816W        W93584  17.061  24.672  14.301
29817W        W93585  43.326   1.465  14.364
29818W        W93586  32.567  44.888  12.343
29819W        W93587  29.577   7.306  11.855
29820W        W93588  40.954  21.201  13.955
29821W        W93589  25.968  24.058  10.511
29822W        W93590  13.141   4.769  14.031
29823W        W93591  25.161  34.476  13.916
29824W        W93592  23.122  31.967   4.187
29825W        W93593  30.934  34.072  10.587
29826W        W93594  12.766   3.368  10.421
29827W        W93595  43.362  30.436   0.839
29828W        W93596   7.744  34.899   1.755
29829W        W93597  11.747   5.312  12.494
29830W        W93598  21.120  39.896   3.276
29831W        W93599  36.994   8.352   1.221
29832W        W93600  41.033  13.199  10.588
29833W        W93601  42.815  34.520  12.964
29834W        W93602  31.525  36.976   1.287
29835W        W93603  12.610  14.722  12.838
29836W        W93604  13.759  43.297   2.897
29837W        W93605  38.070  31.628  13.396
29838W        W93606  20.117  22.732   5.269
29839W        W93607  35.944  12.741   2.216
29840W        W93608  35.421   2.286  12.016
29841W        W93609  25.105   5.784  10.480
29842W        W93610  13.635  14.739   4.266
29843W        W93611  42.431  24.161   2.692
29844W        W93612   8.317  11.737   4.831
29845W        W93613  35.869  36.968   1.736
29846W        W93614   8.776   6.696  11.011
29847W        W93615   5.782  29.078  14.025
29848W        W93616  40.305   3.255  13.919
29849W        W93617  18.630  36.981   3.856
29850W        W93618   3.933  23.211  13.506
29851W        W93619  11.701  20.220   4.332
29852W        W93620  10.284  43.278   0.290
29853W        W93621  29.941  19.117   3.288
29854W        W93622  12.833  37.031   2.824
29855W        W93623  29.043  35.950   2.761
29856W        W93624   6.290  23.989   3.815
29857W        W93625  41.506   2.291  11.896
29858W        W93626  42.834  23.646   1.848
29859W        W93627  23.032  13.694   1.717
29860W        W93628  13.648  36.969   4.197
29861W        W93629  33.993  22.192   1.414
29862W        W93630   1.274   7.269   2.763
29863W        W93631  20.548  28.025  13.446
29864W        W93632  16.648  28.624   4.330
29865W        W93633   1.870  39.394  11.950
29866W        W93634  38.561   0.803  12.876
29867W        W93635  38.886  11.786   5.168
29868W        W93636  18.725  27.458   3.864
29869W        W93637   7.738  40.829  13.797
29870W        W93638  31.500  20.260   3.203
29871W        W93639  27.947  23.658  13.804
29872W        W93640   5.715  33.876  13.853
29873W        W93641   8.692  25.517   4.226
29874W        W93642  38.048  20.068   1.921
29875W        W93643  30.548  44.377  11.398
29876W        W93644   8.281  27.669   2.340
29877W        W93645  21.645  24.077   2.899
29878W        W93646   5.336  16.237  13.524
29879W        W93647   2.266  38.879  13.974
29880W        W93648  37.926   8.668   5.755
29881W        W93649   7.219  22.155  10.986
29882W        W93650  36.974   5.817  11.492
29883W        W93651  10.663  39.360  11.473
29884W        W93652   8.183  21.757  10.930
29885W        W93653   9.389  34.864   9.997
29886W        W93654  16.694  42.456   3.704
29887W        W93655  37.558  36.901   3.765
29888W        W93656  14.116  33.026   4.343
29889W        W93657  18.122  10.251   4.254
29890W        W93658  35.952  12.761   4.821
29891W        W93659   4.446  10.763   1.331
29892W        W93660  33.523  10.206   3.370
29893W        W93661  42.369   6.857   4.802
29894W        W93662  29.097  30.580  14.334
29895W        W93663  25.190  37.893  14.759
29896W        W93664  36.391   6.229  10.408
29897W        W93665  34.996  16.626   1.250
29898W        W93666  33.071  10.372  14.021
29899W        W93667  33.107  19.700  11.431
29900W        W93668  11.157  21.075   1.903
29901W        W93669  10.801  37.849   2.868
29902W        W93670  35.082   9.675   1.258
29903W        W93671   5.288   1.314   3.817
29904W        W93672  35.883  29.175  13.359
29905W        W93673  40.929  39.525   4.699
29906W        W93674  38.902  34.014  13.829
29907W        W93675   5.360  22.105  12.074
29908W        W93676   0.979  19.071   2.789
29909W        W93677  22.643  42.805   1.335
29910W        W93678  18.140  40.809  10.444
29911W        W93679  33.923  35.457   0.382
29912W        W93680  22.249  11.702  14.006
29913W        W93681  27.120  19.283  13.473
29914W        W93682   8.168   9.888  14.501
29915W        W93683   4.873  30.478  13.040
29916W        W93684  13.254   8.899  13.812
29917W        W93685  14.751  22.195  12.843
29918W        W93686   2.753   4.916   3.306
29919W        W93687  23.229  19.712  12.369
29920W        W93688   8.656   2.239   4.200
29921W        W93689   6.780  16.794  10.407
29922W        W93690  26.607   8.195   4.317
29923W        W93691   6.391  22.665   4.816
29924W        W93692  18.731  33.424   1.371
29925W        W93693  24.680  34.526  13.485
29926W        W93694  42.847  18.754  11.539
29927W        W93695  39.336  18.762  11.062
29928W        W93696  24.218  30.630  13.942
29929W        W93697  25.202  35.956  10.904
29930W        W93698   5.809  28.977   1.778
29931W        W93699  14.787  18.211   0.942
29932W        W93700  21.211  25.468  12.355
29933W        W93701   6.752   4.727   0.442
29934W        W93702  36.360  36.000   0.904
29935W        W93703  34.991  16.785  13.967
29936W        W93704   5.394  15.689   2.751
29937W        W93705   7.183   4.937   4.807
29938W        W93706   7.235  18.734  14.018
29939W        W93707  39.451  23.580  13.524
29940W        W93708   4.392  30.616   4.734
29941W        W93709  22.245  41.868  11.926
29942W        W93710   7.768  20.219  13.943
29943W        W93711  40.002   0.487   1.246
29944W        W93712  15.774  39.863  12.478
29945W        W93713  26.188  39.916   3.207
29946W        W93714  21.590   3.813   2.190
29947W        W93715  34.384  28.056   2.252
29948W        W93716  22.998  10.351  13.342
29949W        W93717  26.164  29.168  14.479
29950W        W93718  17.772   8.663  10.455
29951W        W93719  29.482  20.541  10.480
29952W        W93720  29.132  38.565   4.301
29953W        W93721  37.084  24.642  11.899
29954W        W93722  30.593   9.746   0.401
29955W        W93723  12.673  23.102  12.057
29956W        W93724  24.667   8.304  14.318
29957W        W93725   4.702   8.215  14.448
29958W        W93726   5.229   3.286   1.413
29959W        W93727   5.427  27.685   3.237
29960W        W93728  26.695   0.458  13.820
29961W        W93729  33.117  39.553  11.027
29962W        W93730  18.561  19.155  12.846
29963W        W93731  20.061  15.111  14.991
29964W        W93732  15.597   7.232   1.780
29965W        W93733   7.261  35.039   3.705
29966W        W93734  22.152  23.517  11.910
29967W        W93735  23.587  13.147   0.426
29968W        W93736  27.654  40.344  11.974
29969W        W93737  25.123  27.657  14.425
29970W        W93738  35.900  26.519   0.897
29971W        W93739  18.072  21.680  14.796
29972W        W93740  38.422   4.376  13.349
29973W        W93741  32.018  15.131   4.690
29974W        W93742   2.839  24.554   3.270
29975W        W93743  18.070  37.472   3.265
29976W        W93744  24.100  36.075  12.475
29977W        W93745  23.641  26.086   2.357
29978W        W93746  15.682  27.028   0.302
29979W        W93747  10.747  42.812  12.409
29980W        W93748  15.692  20.031   5.722
29981W        W93749  39.523  22.651  12.013
29982W        W93750   9.183  19.198   0.805
29983W        W93751  12.165   9.697  10.472
29984W        W93752   4.294   8.821   4.188
29985W        W93753  13.702  38.961   4.185
29986W        W93754  20.120   2.929  13.849
29987W        W93755  23.152  34.074   4.251
29988W        W93756  28.496  10.375   3.191
29989W        W93757  20.677   0.329  11.487
29990W        W93758  42.474  13.290   1.291
29991W        W93759  33.086  22.555   0.731
29992W        W93760   9.258  41.538  12.876
29993W        W93761  36.520  38.892  12.018
29994W        W93762  31.628   5.376   1.926
29995W        W93763  19.667   4.897  12.870
29996W        W93764  10.876  37.852  10.902
29997W        W93765  33.527  42.922  11.048
29998W        W93766   8.701   2.749   0.938
29999W        W93767  32.451   8.705  13.012
30000W        W93768  38.983  29.066  14.387
30001W        W93769  18.091  11.198   0.334
30002W        W93770   8.798   5.731   3.682
30003W        W93771   9.844  14.760  11.062
30004W        W93772  35.585  15.252  14.996
30005W        W93773  13.602  30.560  14.477
30006W        W93774  43.851  40.390  10.586
30007W        W93775  31.627  28.071  10.916
30008W        W93776  38.028  37.063   2.339
30009W        W93777  29.459  27.060  13.354
30010W        W93778  14.330  30.086  10.553
30011W        W93779  33.083  30.098  12.471
30012W        W93780  35.932  20.619  13.950
30013W        W93781  35.069  39.970  12.983
30014W        W93782  21.261  36.858   3.693
30015W        W93783   4.863  24.565   3.149
30016W        W93784   7.903  15.763  13.038
30017W        W93785  19.061   0.426  11.398
30018W        W93786  23.095  39.836   1.712
30019W        W93787   6.758  16.763   4.125
30020W        W93788   9.213  43.846   0.960
30021W        W93789  24.219  42.448   1.893
30022W        W93790  21.690   8.831   5.259
30023W        W93791  13.829  37.984  14.394
30024W        W93792  39.927  43.886   3.275
30025W        W93793  23.031  14.107   0.756
30026W        W93794   4.880  31.647   3.175
30027W        W93795   1.927  13.839   3.729
30028W        W93796  28.476  28.930  12.561
30029W        W93797  20.613  42.450   3.769
30030W        W93798   6.353  10.824   4.309
30031W        W93799  14.340  34.951   0.455
30032W        W93800  20.702  10.876   2.670
30033W        W93801   2.301   2.441  12.884
30034W        W93802  14.805  16.086   4.204
30035W        W93803   4.862  22.167   3.292
30036W        W93804  44.451   7.741   3.714
30037W        W93805   3.856  15.739  12.930
30038W        W93806  33.092   1.773  14.329
30039W        W93807  16.802  25.581   1.851
30040W        W93808  14.766  37.942  12.842
30041W        W93809  19.760  41.811   4.198
30042W        W93810  28.491  12.122   0.853
30043W        W93811  24.103  14.279  12.061
30044W        W93812   5.778   6.737  14.972
30045W        W93813  30.435  36.858  14.338
30046W        W93814  29.102   4.371   4.180
30047W        W93815  21.217  18.161   1.305
30048W        W93816  21.169  16.304  14.390
30049W        W93817   8.295  26.695   4.612
30050W        W93818   5.382   5.193   0.758
30051W        W93819  24.505   5.365  11.920
30052W        W93820  37.571  12.622   0.333
30053W        W93821   3.794  32.407   1.287
30054W        W93822   1.295   2.420   3.222
30055W        W93823  20.131  19.599  12.533
30056W        W93824   5.716   6.200  12.409
30057W        W93825  40.506  25.510  11.859
30058W        W93826  42.502  32.066   1.694
30059W        W93827  16.589  21.052  14.453
30060W        W93828  27.452  34.966   2.268
30061W        W93829   2.783  36.970  14.845
30062W        W93830  38.064  36.908  12.439
30063W        W93831  26.527  35.416   5.214
30064W        W93832  17.169  12.668   4.743
30065W        W93833   3.436  26.078  11.921
30066W        W93834  36.099  26.594  13.909
30067W        W93835  30.009  32.969   0.856
30068W        W93836   3.728  11.130  12.443
30069W        W93837  44.793  36.957  12.405
30070W        W93838  32.981  34.450   1.819
30071W        W93839  40.950   7.200  13.955
30072W        W93840  11.687   7.669  13.915
30073W        W93841  23.071   6.813  12.367
30074W        W93842  19.199  20.128   3.151
30075W        W93843  21.606   8.776  13.386
30076W        W93844  28.535  32.974  12.563
30077W        W93845  41.941  43.398   3.684
30078W        W93846   9.307  20.654   2.710
30079W        W93847   9.218  38.523  13.979
30080W        W93848  39.344  14.609  12.579
30081W        W93849   0.384   9.369   0.853
30082W        W93850  28.077  13.145  14.387
30083W        W93851  13.846  39.847  13.538
30084W        W93852  16.217  18.252  11.383
30085W        W93853  19.127  22.746   1.284
30086W        W93854   5.219  28.122   1.862
30087W        W93855  29.457  33.114  13.873
30088W        W93856  19.179  18.160   0.458
30089W        W93857  37.071  22.717  12.481
30090W        W93858  19.771  34.029  14.325
30091W        W93859   9.643  42.433  12.440
30092W        W93860  33.081  17.276  14.285
30093W        W93861  20.647   4.277  12.419
30094W        W93862  11.268  11.164  12.467
30095W        W93863  12.262   3.291  13.028
30096W        W93864  39.439   8.858  10.039
30097W        W93865  21.699  34.103  10.018
30098W        W93866  18.269  44.912  13.540
30099W        W93867  13.601  18.171  13.016
30100W        W93868  37.502  17.737   4.154
30101W        W93869  16.645  18.727   4.325
30102W        W93870  37.363  23.720   2.734
30103W        W93871  41.459  26.611  11.408
30104W        W93872  30.147   4.756   1.341
30105W        W93873  44.340  35.486   4.271
30106W        W93874  28.451  25.972  12.869
30107W        W93875  36.010  27.504   1.354
30108W        W93876  29.514  25.636   4.642
30109W        W93877  28.485   9.229   0.382
30110W        W93878  24.491  34.914  12.392
30111W        W93879  40.886   2.960   3.269
30112W        W93880  16.674  32.532   3.226
30113W        W93881   3.240   6.774   1.895
30114W        W93882  31.975  33.115   1.336
30115W        W93883  25.582   6.307  13.942
30116W        W93884  10.652  24.528  10.894
30117W        W93885   7.359   8.169  10.444
30118W        W93886  19.073  25.653  14.815
30119W        W93887  37.529  31.546   3.715
30120W        W93888  44.412  24.618   0.916
30121W        W93889  15.645   1.955   2.726
30122W        W93890  15.279  43.980  14.772
30123W        W93891   9.814  25.695  13.994
30124W        W93892  31.045  11.275  10.541
30125W        W93893  21.644  39.053  11.934
30126W        W93894  40.523  14.191  10.543
30127W        W93895   1.434  25.509   0.826
30128W        W93896  40.421   1.317   1.394
30129W        W93897  37.839  16.580  13.916
30130W        W93898  40.488  28.624  12.082
30131W        W93899  10.683  32.411   4.611
30132W        W93900  31.410  15.165   0.462
30133W        W93901  36.930  21.721   0.386
30134W        W93902  16.578  39.437   1.885
30135W        W93903  34.972  33.581  12.841
30136W        W93904  36.092  27.045  10.985
30137W        W93905  41.829  44.983   1.384
30138W        W93906  40.920  38.551   3.687
30139W        W93907  17.638  30.040  12.877
30140W        W93908  28.098   3.770  10.942
30141W        W93909  30.072  41.874  13.313
30142W        W93910  42.782  15.176   0.940
30143W        W93911   9.231   9.175   2.714
30144W        W93912  30.582  11.826   3.162
30145W        W93913  12.845   5.433  10.468
30146W        W93914  40.901  16.213   2.242
30147W        W93915  31.088  24.180  13.525
30148W        W93916   1.731  40.887   0.253
30149W        W93917  21.169  37.393   3.329
30150W        W93918   3.349  29.034  13.915
30151W        W93919  16.703  15.674   5.709
30152W        W93920  15.649  11.259   3.319
30153W        W93921  32.103  39.556   0.930
30154W        W93922  37.467   6.243  12.936
30155W        W93923  22.120  32.140  13.328
30156W        W93924  14.313   4.806  11.118
30157W        W93925  15.096  33.440   1.387
30158W        W93926  32.428  26.975  10.935
30159W        W93927  43.895   0.364   4.807
30160W        W93928   6.922  18.291   4.819
30161W        W93929  35.109   9.787   4.231
30162W        W93930   8.397   0.448   4.308
30163W        W93931  26.703   0.311  11.105
30164W        W93932  22.557   1.963   0.846
30165W        W93933  19.635  32.404   3.863
30166W        W93934  34.960  28.532   3.280
30167W        W93935  28.154  23.132   0.812
30168W        W93936  11.733  39.886  10.911
30169W        W93937  23.572   5.224   2.836
30170W        W93938  31.610  16.810  13.967
30171W        W93939   9.395  39.313  14.318
30172W        W93940   4.207  29.955  12.991
30173W        W93941  31.086   4.236  12.849
30174W        W93942   2.399  34.047   4.280
30175W        W93943  15.753   1.773   9.973
30176W        W93944  16.207  39.982   0.761
30177W        W93945  29.024   4.709  10.941
30178W        W93946  40.397  16.284  11.463
30179W        W93947   6.318   4.226   3.269
30180W        W93948  12.785  22.197  10.948
30181W        W93949  24.056  29.988   0.851
30182W        W93950  17.641   8.737  13.877
30183W        W93951  31.070  35.538  11.090
30184W        W93952  29.612  37.906  12.018
30185W        W93953  25.042   6.787   4.645
30186W        W93954   3.426  12.282   2.275
30187W        W93955  32.982  25.532  13.856
30188W        W93956  40.002   3.432   3.213
30189W        W93957  30.997  32.045  12.424
30190W        W93958  29.462   7.224   3.749
30191W        W93959   7.857  26.513   1.210
30192W        W93960  17.678  40.923  11.547
30193W        W93961  40.434  19.779  13.897
30194W        W93962   3.220  23.498   1.441
30195W        W93963  19.629  43.962   3.856
30196W        W93964  15.696  26.963  12.070
30197W        W93965  24.524  10.372  10.439
30198W        W93966  12.217  22.603   3.699
30199W        W93967  16.171  42.485  14.320
30200W        W93968  32.508  25.027  14.296
30201W        W93969   6.874  14.217  12.570
30202W        W93970  32.082  15.130   2.769
30203W        W93971  22.576  21.130   0.381
30204W        W93972  35.927   6.801   3.720
30205W        W93973  24.689   8.386   2.358
30206W        W93974  19.258  40.336   2.207
30207W        W93975  17.715  15.736  10.450
30208W        W93976   3.252   7.874   0.413
30209W        W93977  10.735  15.222   1.231
30210W        W93978  13.815  16.728  10.989
30211W        W93979  23.667   6.859  11.856
30212W        W93980  25.667  11.338  10.114
30213W        W93981  27.582  18.585   3.642
30214W        W93982  28.042  26.121  12.574
30215W        W93983  22.654  40.045   3.746
30216W        W93984  24.225  14.589   1.894
30217W        W93985  17.189  30.593   3.761
30218W        W93986  21.017  14.106   1.798
30219W        W93987  17.602  25.132  13.333
30220W        W93988  18.232  43.426   4.634
30221W        W93989  38.930  11.271   4.260
30222W        W93990  27.076   0.359  14.773
30223W        W93991  29.928  30.481  13.510
30224W        W93992  37.535  41.378   0.798
30225W        W93993  29.117  18.704   5.149
30226W        W93994  31.598  36.496   0.331
30227W        W93995  34.097  31.151  11.487
30228W        W93996  43.439  36.569  13.038
30229W        W93997  25.536  32.022  12.564
30230W        W93998  29.644  15.684   5.226
30231W        W93999  19.071   8.348   0.869
30232W        W94000  16.244  14.748   0.296
30233W        W94001  44.363  13.799   1.847
30234W        W94002  20.074   3.777   1.416
30235W        W94003  43.943  40.887  13.874
30236W        W94004   5.864  21.064  10.145
30237W        W94005   9.195   8.808  12.832
30238W        W94006  39.533  20.629   2.309
30239W        W94007  15.703   2.885  10.481
30240W        W94008  15.752  39.498  11.590
30241W        W94009  22.711  13.742   3.640
30242W        W94010  13.250  39.482   4.632
30243W        W94011  28.591  43.765  13.877
30244W        W94012  41.431  44.847  14.308
30245W        W94013   7.305  30.111  11.496
30246W        W94014   0.448  39.481  11.122
30247W        W94015  10.811   5.407  11.554
30248W        W94016  11.645  40.908   3.161
30249W        W94017  35.018   6.287   0.887
30250W        W94018  35.018  17.062   2.205
30251W        W94019  43.393  37.999   1.756
30252W        W94020  33.002  29.059   4.696
30253W        W94021  15.322  27.127  14.824
30254W        W94022  13.743   4.391  14.353
30255W        W94023  18.749  35.553  13.796
30256W        W94024   6.303  25.194  14.468
30257W        W94025  42.442  27.174  10.944
30258W        W94026   3.302  19.285   0.737
30259W        W94027  39.881  33.522  13.909
30260W        W94028   0.366   2.891  14.384
30261W        W94029  35.072  43.895   2.890
30262W        W94030  37.562  41.442   0.280
30263W        W94031  23.670  43.399   4.726
30264W        W94032  15.144  39.451   4.770
30265W        W94033  31.532  42.495  10.564
30266W        W94034   1.905   3.384   1.826
30267W        W94035  11.710  10.647   5.131
30268W        W94036  35.468  26.465  14.367
30269W        W94037   2.781  43.509  10.458
30270W        W94038  44.395  44.460   0.395
30271W        W94039   2.923   4.245  10.514
30272W        W94040  21.090  33.896   9.990
30273W        W94041   2.319  15.675  14.966
30274W        W94042  32.100  22.589  11.884
30275W        W94043  32.469  28.094   2.298
30276W        W94044   6.317  11.783   3.203
30277W        W94045  13.200  40.431   3.774
30278W        W94046  27.609  28.524  12.920
30279W        W94047  19.129   8.671  12.916
30280W        W94048  27.551  43.334  11.400
30281W        W94049   0.805  19.208   1.720
30282W        W94050  28.671   7.289  11.385
30283W        W94051  43.351   5.286   4.737
30284W        W94052  29.521  19.765  14.369
30285W        W94053  34.001  32.130  12.911
30286W        W94054   7.752  19.720   5.247
30287W        W94055  30.646   6.738  13.891
30288W        W94056  27.476  29.474  13.332
30289W        W94057  34.521  15.810  12.993
30290W        W94058  19.642  23.087  12.901
30291W        W94059  37.064  13.168   4.316
30292W        W94060  12.351  14.199   3.638
30293W        W94061  37.045  17.568  14.513
30294W        W94062  33.050  23.516  14.011
30295W        W94063  35.003  22.079  11.528
30296W        W94064  14.816  22.127   4.210
30297W        W94065  39.348  36.880  11.546
30298W        W94066  11.857   1.958   3.183
30299W        W94067  19.758  30.027   4.294
30300W        W94068  18.611  38.548   3.717
30301W        W94069  35.918   3.299  12.861
30302W        W94070  17.763  21.529  14.503
30303W        W94071   1.821   4.308   2.376
30304W        W94072   8.370  13.322   0.897
30305W        W94073  38.916  21.656  12.414
30306W        W94074  19.202  43.913   1.823
30307W        W94075  11.858  32.024  14.811
30308W        W94076  21.591  23.589   3.229
30309W        W94077  31.919  25.508  10.503
30310W        W94078  37.905  19.210  10.530
30311W        W94079   9.866  14.776  14.867
30312W        W94080  20.038  10.772   1.740
30313W        W94081   7.354  41.803  12.024
30314W        W94082   0.489  13.194  11.569
30315W        W94083  40.952  11.681  12.920
30316W        W94084  31.143  28.148   0.863
30317W        W94085  23.671  10.258  10.587
30318W        W94086  33.473   1.779  11.405
30319W        W94087  21.603   2.755  12.536
30320W        W94088   9.229   8.708  10.946
30321W        W94089  32.987  26.032   3.308
30322W        W94090   5.225  25.478   1.321
30323W        W94091  24.652  30.548   3.685
30324W        W94092   2.798  11.373   1.341
30325W        W94093   1.877   5.368   0.953
30326W        W94094  35.392  31.603   3.288
30327W        W94095  44.453   2.310  11.114
30328W        W94096  27.110  40.533  14.845
30329W        W94097   4.212  14.694  13.378
30330W        W94098  41.875  38.463   1.388
30331W        W94099  16.578  11.729  14.831
30332W        W94100  23.142   6.343   0.800
30333W        W94101  42.498  10.326  12.047
30334W        W94102  17.756  28.608  12.569
30335W        W94103   5.389   1.910  12.848
30336W        W94104  28.082  42.819  12.344
30337W        W94105   8.780  21.647   2.846
30338W        W94106   3.930  29.527   4.278
30339W        W94107  18.544  44.787  14.915
30340W        W94108  17.720  29.937  13.976
30341W        W94109   3.922  44.928  14.349
30342W        W94110  33.542   0.317   0.437
30343W        W94111  15.262  22.546  11.376
30344W        W94112  33.426   7.731  11.948
30345W        W94113  27.027  35.931   3.261
30346W        W94114  16.693  25.675   4.161
30347W        W94115  22.995  43.868  14.391
30348W        W94116  10.174   9.720   3.357
30349W        W94117  29.591  33.556  11.095
30350W        W94118  19.261  16.688  13.541
30351W        W94119   7.342   1.744   1.281
30352W        W94120   4.807   4.797   0.956
30353W        W94121  34.424  10.288   2.402
30354W        W94122   2.312  18.650  13.353
30355W        W94123  10.175   0.763   0.447
30356W        W94124  29.515  26.684  13.386
30357W        W94125  19.281  17.763   2.404
30358W        W94126  42.288  38.052  11.517
30359W        W94127  28.979   8.808   2.225
30360W        W94128   3.442  22.739  10.451
30361W        W94129   1.318  33.474   5.708
30362W        W94130  32.013  18.652  12.840
30363W        W94131   0.863  18.165   3.303
30364W        W94132  42.384   0.804  10.640
30365W        W94133  18.620  42.504   3.147
30366W        W94134  39.399   6.333  10.577
30367W        W94135   9.758   0.423  14.937
30368W        W94136  20.548  24.599   3.386
30369W        W94137  12.361  39.492  14.008
30370W        W94138   5.755  44.885  10.600
30371W        W94139  43.439  35.598  14.494
30372W        W94140  44.825   9.150   0.939
30373W        W94141  12.275  27.163  13.852
30374W        W94142  10.354  10.271  14.862
30375W        W94143  38.507  29.535  13.546
30376W        W94144  35.557  39.465  13.807
30377W        W94145  44.952  23.517   1.719
30378W        W94146  42.975   9.878  12.909
30379W        W94147  20.662  40.930  12.021
30380W        W94148  23.044   6.182  11.901
30381W        W94149  31.417  23.496   2.239
30382W        W94150   8.792   6.247   2.717
30383W        W94151  13.253  15.141  11.613
30384W        W94152  35.575  23.088  13.863
30385W        W94153  38.524  21.540   1.433
30386W        W94154   8.261   8.674  12.088
30387W        W94155   9.883  22.192  12.848
30388W        W94156  38.881   4.873   0.386
30389W        W94157  20.204  10.759   2.192
30390W        W94158  10.368   1.799  13.528
30391W        W94159  16.221  22.747  14.891
30392W        W94160  39.861  33.897  13.439
30393W        W94161   1.286  40.547  10.946
30394W        W94162   9.307  37.840  13.512
30395W        W94163  27.691  40.038  12.003
30396W        W94164  15.122   2.368  12.090
30397W        W94165  22.015  38.375   2.694
30398W        W94166  29.951  16.721  12.505
30399W        W94167  16.272  43.990   1.230
30400W        W94168  11.350   3.787  14.948
30401W        W94169  39.526  35.097   0.954
30402W        W94170  28.562   2.873   1.812
30403W        W94171  44.936  32.049   3.749
30404W        W94172  22.509  41.022   3.748
30405W        W94173   9.885   6.389  10.494
30406W        W94174  11.289  39.949   3.293
30407W        W94175  10.251  16.170  11.119
30408W        W94176  26.644  20.665  14.882
30409W        W94177  41.929  19.556  10.446
30410W        W94178  37.989  33.549   9.955
30411W        W94179  16.805  15.135   4.647
30412W        W94180  17.701  19.632  11.942
30413W        W94181  31.964  39.456   5.180
30414W        W94182  42.942  20.170  11.862
30415W        W94183  16.567  15.215   0.274
30416W        W94184   5.197   5.291   4.810
30417W        W94185  36.040  34.975  13.864
30418W        W94186  25.016  23.662  14.349
30419W        W94187  18.207  30.656   1.403
30420W        W94188  15.105   6.396   0.462
30421W        W94189  33.482  31.013  14.307
30422W        W94190  40.942   5.915  12.904
30423W        W94191  25.613  38.404   4.145
30424W        W94192  31.548  18.777  14.826
30425W        W94193  32.122  16.179  10.099
30426W        W94194  29.556  32.511   4.629
30427W        W94195  27.088  28.629   0.281
30428W        W94196  39.498  26.190  12.960
30429W        W94197   8.245   6.720  14.413
30430W        W94198  11.641  27.674   3.251
30431W        W94199  40.809  21.702   3.681
30432W        W94200  25.560   2.245  12.342
30433W        W94201  40.831  44.277  11.022
30434W        W94202   0.831   9.780   1.345
30435W        W94203  21.180  31.068   0.432
30436W        W94204  37.402  24.563   4.657
30437W        W94205  16.126  24.603  13.488
30438W        W94206  39.340  29.137  11.584
30439W        W94207   0.941  19.655  14.912
30440W        W94208  35.522   5.252  10.451
30441W        W94209  32.553  23.040  12.384
30442W        W94210  40.380  27.075   2.360
30443W        W94211  22.250  25.020   1.903
30444W        W94212  22.227  30.146   4.718
30445W        W94213  34.569  38.561   1.391
30446W        W94214  32.566  33.549   0.282
30447W        W94215  20.233  27.524  14.334
30448W        W94216  34.408  33.049   0.826
30449W        W94217  44.880  21.602  11.037
30450W        W94218  41.793  21.183  10.987
30451W        W94219  24.160  18.595   5.154
30452W        W94220   1.832  10.790  12.912
30453W        W94221   9.314  32.509  14.916
30454W        W94222  15.816  16.744  14.950
30455W        W94223  43.279   7.689   1.337
30456W        W94224   4.266  29.978  12.003
30457W        W94225  30.650   3.776   3.761
30458W        W94226   2.320  37.881  12.840
30459W        W94227  27.481  40.988   1.703
30460W        W94228  17.684  30.469   0.859
30461W        W94229   5.207  18.591   3.796
30462W        W94230  41.459   9.277   1.214
30463W        W94231  44.846  10.792  12.414
30464W        W94232  42.831   5.364  10.994
30465W        W94233  42.922   7.193   0.754
30466W        W94234  26.618   2.378   4.631
30467W        W94235   5.200  13.154   2.678
30468W        W94236  27.197  40.313  14.418
30469W        W94237  18.173  14.660   3.798
30470W        W94238  26.674  14.716  14.980
30471W        W94239  11.859  11.293   2.894
30472W        W94240  27.560  15.088   3.730
30473W        W94241  18.161   4.396  14.954
30474W        W94242  34.431  44.382   0.312
30475W        W94243  11.692   3.810   0.405
30476W        W94244  12.282   2.904   1.793
30477W        W94245  14.649   1.412  12.360
30478W        W94246  30.117  18.059   1.422
30479W        W94247  32.529  37.987   4.184
30480W        W94248  36.476  30.462  13.945
30481W        W94249  44.333   6.229   0.739
30482W        W94250  14.814  16.712   2.180
30483W        W94251   3.800   8.849   4.637
30484W        W94252  13.608  12.721   5.737
30485W        W94253  22.093   8.670   4.649
30486W        W94254  44.948  37.416   3.845
30487W        W94255  24.216  23.558  11.473
30488W        W94256  31.433  21.615  12.869
30489W        W94257   1.453   2.844  11.089
30490W        W94258  31.515   4.728  12.541
30491W        W94259  42.940  24.143  13.878
30492W        W94260  16.146  26.694   9.974
30493W        W94261  44.758  34.434  12.533
30494W        W94262  25.657  38.921   4.632
30495W        W94263  40.353  40.948  11.981
30496W        W94264  11.652   8.875   2.230
30497W        W94265  28.955   9.362  12.555
30498W        W94266   5.337  23.065  12.886
30499W        W94267  44.772  22.119  10.491
30500W        W94268  42.832  44.274  10.996
30501W        W94269  42.881  30.985   4.320
30502W        W94270  16.727  27.449   0.372
30503W        W94271  41.466  17.745   2.747
30504W        W94272  34.446  28.623  13.850
30505W        W94273  41.877   1.335   0.457
30506W        W94274   9.284  26.183   3.792
30507W        W94275  36.477  25.110   4.644
30508W        W94276   9.715  32.543   3.350
30509W        W94277  39.483  31.624   2.363
30510W        W94278   6.284  19.734   4.229
30511W        W94279   7.388  25.493   1.326
30512W        W94280  16.114  34.385  11.050
30513W        W94281  27.530  26.081  10.608
30514W        W94282  29.552  41.315   2.789
30515W        W94283  43.838   4.836  11.517
30516W        W94284  18.296  11.861   0.360
30517W        W94285  41.915   8.295   2.240
30518W        W94286  41.339  38.869   0.747
30519W        W94287   8.272  28.680   4.831
30520W        W94288   4.701  28.054   2.690
30521W        W94289  44.295  29.640  11.860
30522W        W94290   8.328  18.081   4.140
30523W        W94291  18.278  21.643   3.185
30524W        W94292  31.473  15.168  14.030
30525W        W94293  19.229  30.164   1.860
30526W        W94294  43.864  32.059   2.867
30527W        W94295  39.941  15.118  14.427
30528W        W94296  20.159   2.900  10.497
30529W        W94297  23.656  38.425   2.664
30530W        W94298  34.976  19.702   1.755
30531W        W94299  14.204   2.310   1.448
30532W        W94300  15.579  15.103  14.882
30533W        W94301  25.043   7.408  14.946
30534W        W94302   2.366  10.656  13.994
30535W        W94303  32.065  34.397   4.259
30536W        W94304  13.631   4.350   0.464
30537W        W94305  14.669   2.290  11.384
30538W        W94306  20.196  12.750  12.454
30539W        W94307  16.583  16.311   0.309
30540W        W94308  41.426  19.637  12.549
30541W        W94309   8.180  16.140   0.869
30542W        W94310  11.165   6.798  10.639
30543W        W94311  38.541  40.428   2.319
30544W        W94312  21.568  19.283  11.409
30545W        W94313  15.744  22.053   3.653
30546W        W94314  20.738  10.280  13.353
30547W        W94315   0.951  14.096   5.159
30548W        W94316  27.050  11.822   4.160
30549W        W94317  27.053  41.016  11.473
30550W        W94318  21.197  20.263   0.458
30551W        W94319  20.071  10.179   4.702
30552W        W94320   1.446  18.614  13.503
30553W        W94321  27.115  36.915   0.457
30554W        W94322  28.177  15.149   3.200
30555W        W94323  17.085  35.003   3.754
30556W        W94324  42.820  12.703  12.445
30557W        W94325  25.987   0.440   4.319
30558W        W94326   7.851  38.040  11.514
30559W        W94327  21.528  24.131   3.782
30560W        W94328  40.009   4.227   2.315
30561W        W94329   0.368   7.343   0.931
30562W        W94330  44.846  25.141   2.874
30563W        W94331  33.005  36.461   1.857
30564W        W94332  25.686  33.557  10.144
30565W        W94333  25.626  28.510  14.508
30566W        W94334  29.971  33.454   2.313
30567W        W94335  31.937  14.632   2.865
30568W        W94336  12.803  40.974  13.918
30569W        W94337  44.792   2.469   1.394
30570W        W94338   6.351   2.297   3.155
30571W        W94339  38.363   5.773  14.958
30572W        W94340  41.802  24.611  14.325
30573W        W94341  31.591  37.950  11.112
30574W        W94342  31.979  22.203   0.915
30575W        W94343   7.889  27.184  14.439
30576W        W94344   4.403  34.539  13.345
30577W        W94345   2.820  43.313  11.521
30578W        W94346   9.806  25.025  14.864
30579W        W94347  29.029  17.638  10.968
30580W        W94348  41.538  17.072   0.362
30581W        W94349  22.230  39.381   0.884
30582W        W94350  13.274   0.277  11.478
30583W        W94351  24.067  10.146   1.920
30584W        W94352  11.252  27.594  14.499
30585W        W94353   6.299  37.978  11.907
30586W        W94354  20.634  34.448  13.949
30587W        W94355  27.989  24.624   4.210
30588W        W94356  38.526   4.396   1.317
30589W        W94357  41.485   7.853   1.354
30590W        W94358  37.916  26.652  12.353
30591W        W94359  15.619  22.526   2.715
30592W        W94360  21.056  19.643   1.262
30593W        W94361  37.481  28.057   2.222
30594W        W94362  40.951  37.844  12.445
30595W        W94363   6.898  12.638   4.145
30596W        W94364   5.232  30.632   5.311
30597W        W94365  29.562  31.024   3.218
30598W        W94366  35.081  34.426  14.494
30599W        W94367   6.785  44.451  10.589
30600W        W94368  36.468  31.635   4.701
30601W        W94369  39.031  12.282   1.819
30602W        W94370  31.037  33.027   4.253
30603W        W94371   5.198  10.725  14.983
30604W        W94372  18.233  34.580   5.188
30605W        W94373  19.232  17.731   2.882
30606W        W94374  38.820  15.713   0.301
30607W        W94375  25.697  10.364  11.943
30608W        W94376  18.641   2.844  12.365
30609W        W94377  40.999  22.036   1.343
30610W        W94378   5.416  13.263   2.328
30611W        W94379  38.557  25.564  14.442
30612W        W94380  12.633  36.073  13.946
30613W        W94381  33.052   9.734  14.361
30614W        W94382  24.981  36.553   4.331
30615W        W94383  36.941   2.469   4.662
30616W        W94384  35.423  40.506   3.162
30617W        W94385   5.248  36.936   0.861
30618W        W94386  44.481  17.114  13.973
30619W        W94387  11.745  35.438   3.863
30620W        W94388  39.930  43.005  12.498
30621W        W94389  15.587  24.674  14.473
30622W        W94390  28.125  39.338   2.216
30623W        W94391  36.075   2.735  14.472
30624W        W94392  41.807  16.091   1.839
30625W        W94393  32.526  29.096  12.512
30626W        W94394   7.729  12.131   3.814
30627W        W94395  38.543   9.285  14.494
30628W        W94396  42.474   9.296   2.305
30629W        W94397   6.371  15.209  14.923
30630W        W94398  44.934   6.366  11.095
30631W        W94399  43.813  28.514  12.394
30632W        W94400  22.012  43.425   4.190
30633W        W94401  15.749  39.815  12.033
30634W        W94402   8.210  27.001  14.937
30635W        W94403  31.413  27.473  14.425
30636W        W94404  36.068  15.766   5.149
30637W        W94405  17.757  12.233  12.534
30638W        W94406  35.090  20.269  12.943
30639W        W94407  10.230  21.034  12.045
30640W        W94408  34.084  18.168   1.699
30641W        W94409   1.895  11.255   4.148
30642W        W94410  21.719  31.480   2.740
30643W        W94411   7.811  43.300   1.308
30644W        W94412  12.836  24.721   4.675
30645W        W94413   9.175  31.480   0.247
30646W        W94414  39.932  32.542  10.908
30647W        W94415  38.500  34.910  11.418
30648W        W94416  27.065  44.997  13.816
30649W        W94417   3.280  16.287  13.855
30650W        W94418  12.281  29.115  12.010
30651W        W94419  15.811   4.243  14.314
30652W        W94420  12.182  15.780   2.755
30653W        W94421  44.361  40.478  14.426
30654W        W94422  22.092  22.597   0.419
30655W        W94423  22.626  19.606  11.079
30656W        W94424   5.819  11.141   3.373
30657W        W94425   8.858  10.868  14.878
30658W        W94426  39.943  15.668  12.392
30659W        W94427  27.593  15.777   2.898
30660W        W94428  41.032  12.633   1.346
30661W        W94429  40.028   5.764   0.920
30662W        W94430  38.835  11.729  12.093
30663W        W94431  23.108  26.566  10.620
30664W        W94432  14.608  20.059   4.304
30665W        W94433  23.591  29.137   2.303
30666W        W94434  10.854   4.771   1.867
30667W        W94435  38.873   3.450   4.334
30668W        W94436  38.871  23.140  10.141
30669W        W94437  25.477  41.987   2.791
30670W        W94438  33.042   0.783  14.420
30671W        W94439  40.436  10.788   0.329
30672W        W94440  26.122  13.641   1.266
30673W        W94441  21.607  44.305   0.256
30674W        W94442  31.464   8.829   0.958
30675W        W94443   7.677   4.318   4.704
30676W        W94444  29.475  41.363   3.381
30677W        W94445  25.547  41.299  10.015
30678W        W94446  24.225  38.831   2.782
30679W        W94447  35.477   5.858   1.440
30680W        W94448  24.021  29.959   1.917
30681W        W94449  23.128   3.814  12.372
30682W        W94450  34.094   9.720   3.190
30683W        W94451  26.460   4.809   2.894
30684W        W94452  25.020  21.095   0.474
30685W        W94453  38.501  11.856   1.438
30686W        W94454  31.933  30.930   1.701
30687W        W94455  18.546  38.446   4.327
30688W        W94456  43.346  32.111   3.377
30689W        W94457  27.515  24.513  13.989
30690W        W94458  42.359  26.134   1.215
30691W        W94459   5.751  34.924  13.468
30692W        W94460  34.563  27.557  14.317
30693W        W94461  25.183  19.669  12.507
30694W        W94462  17.198  39.466  13.525
30695W        W94463  35.009   7.908   0.376
30696W        W94464  38.544  32.423   5.683
30697W        W94465   0.474  42.829   3.245
30698W        W94466  35.544   6.190   3.147
30699W        W94467   9.666  14.659   4.618
30700W        W94468  20.131  13.641   1.309
30701W        W94469  28.437  39.919  11.921
30702W        W94470  39.530  15.679   1.227
30703W        W94471   8.716  22.218  13.831
30704W        W94472  37.877  35.392   2.831
30705W        W94473  14.598   3.824  14.021
30706W        W94474  27.539  28.540  11.562
30707W        W94475  35.950   5.290   0.473
30708W        W94476  43.337  43.770   3.758
30709W        W94477   8.346   8.341   4.278
30710W        W94478  11.286  36.063   2.766
30711W        W94479   0.748   7.398   1.786
30712W        W94480  30.489  27.547  11.465
30713W        W94481   3.431  10.192   2.207
30714W        W94482  39.948   7.910   1.893
30715W        W94483  33.621   0.309  11.945
30716W        W94484  35.939  22.523   2.829
30717W        W94485  24.593  33.381   3.267
30718W        W94486  29.139   8.864  13.934
30719W        W94487  35.482   5.438  14.813
30720W        W94488  28.507   0.380  12.465
30721W        W94489   1.351  39.821  14.783
30722W        W94490   9.394  12.351  11.493
30723W        W94491  44.330  32.126  11.546
30724W        W94492  39.960  32.413  13.435
30725W        W94493  15.273  21.263   2.236
30726W        W94494  13.173  26.475   0.410
30727W        W94495   1.891  25.564   2.279
30728W        W94496   5.715  33.906   4.694
30729W        W94497   1.452  17.722   0.419
30730W        W94498  28.672  44.789  12.475
30731W        W94499  33.540  39.398  12.511
30732W        W94500  13.689  18.595   4.796
30733W        W94501   7.668  15.136  11.086
30734W        W94502   0.792  36.878   0.391
30735W        W94503  40.463  26.674  12.833
30736W        W94504  16.664   9.199  11.567
30737W        W94505  19.093  11.845  13.892
30738W        W94506   1.378   2.871  10.507
30739W        W94507  30.075   6.344   3.180
30740W        W94508  15.195  34.054   1.785
30741W        W94509  13.729  42.990  13.964
30742W        W94510  12.829  22.692   1.374
30743W        W94511  34.399  21.723   1.738
30744W        W94512   6.361  13.324   1.399
30745W        W94513  23.199   0.315  13.937
30746W        W94514  10.182  28.668  12.838
30747W        W94515  31.042   5.305   3.307
30748W        W94516  41.354  25.522  11.378
30749W        W94517  42.462  29.540  12.537
30750W        W94518  36.382  15.743   2.770
30751W        W94519  40.005   5.716  10.964
30752W        W94520  31.101  20.766  14.986
30753W        W94521   4.781  20.701  13.030
30754W        W94522   4.266  41.851   0.330
30755W        W94523  19.111  35.889   4.196
30756W        W94524  19.656  37.548  11.612
30757W        W94525  13.829   6.188   1.291
30758W        W94526  42.418  32.527   0.873
30759W        W94527  11.778   9.310  12.557
30760W        W94528  43.942   6.859  14.346
30761W        W94529  24.991  37.546  11.423
30762W        W94530   7.394  40.474   0.896
30763W        W94531   7.842  41.857   0.832
30764W        W94532  34.003  42.499   3.263
30765W        W94533  36.941   6.372   5.248
30766W        W94534  42.897   9.716   1.925
30767W        W94535   7.764  42.844  14.303
30768W        W94536  24.700   3.815   2.743
30769W        W94537  20.640  40.052   0.810
30770W        W94538  38.950  43.957  11.956
30771W        W94539  11.766  38.436  11.431
30772W        W94540  23.514  40.948  14.415
30773W        W94541  21.617  12.283   0.438
30774W        W94542  24.609  23.064   2.889
30775W        W94543  34.561  34.040  14.445
30776W        W94544  29.502  12.352  14.804
30777W        W94545  44.486   0.251   4.678
30778W        W94546  21.601  35.990  14.977
30779W        W94547  34.028  31.632   1.347
30780W        W94548   8.343  16.654   1.773
30781W        W94549  21.171  23.130  11.538
30782W        W94550  25.004  13.202  11.437
30783W        W94551  37.964   1.821  10.554
30784W        W94552  27.014   0.935   2.257
30785W        W94553   5.373  24.690   4.761
30786W        W94554  20.701  13.317   3.722
30787W        W94555  42.008  14.187   3.215
30788W        W94556  38.914  30.633   4.185
30789W        W94557   0.838   1.748   0.791
30790W        W94558   5.716  28.666  11.406
30791W        W94559  18.260   9.196  11.496
30792W        W94560  26.987  27.973   0.325
30793W        W94561  31.462  12.204   2.722
30794W        W94562  23.734  22.101   2.342
30795W        W94563  39.920  11.137  11.982
30796W        W94564   1.354   5.272   4.307
30797W        W94565  30.426  21.680  12.482
30798W        W94566  26.995  26.686   0.827
30799W        W94567   6.283  36.478   0.411
30800W        W94568  25.152   9.312  12.957
30801W        W94569  33.550  12.224   2.191
30802W        W94570  10.658  30.568   4.679
30803W        W94571   9.772  32.996  12.946
30804W        W94572  38.018   2.909  11.062
30805W        W94573   0.875  42.815   0.300
30806W        W94574  41.339  15.640   4.715
30807W        W94575  33.429  25.984  11.953
30808W        W94576  37.458   3.863  12.936
30809W        W94577  16.590  32.117   4.765
30810W        W94578  36.544  31.977  13.456
30811W        W94579  30.586   1.836   2.410
30812W        W94580  40.027  27.692   3.194
30813W        W94581  24.005   3.318   3.293
30814W        W94582  35.065  40.875   0.280
30815W        W94583  39.919  42.979  11.499
30816W        W94584  26.056  25.195   2.233
30817W        W94585  42.448   1.455   2.785
30818W        W94586  35.993  16.694   1.375
30819W        W94587   0.264   4.220  10.577
30820W        W94588  39.956   8.882   0.936
30821W        W94589  33.954  11.298  14.367
30822W        W94590  43.838  15.145  12.360
30823W        W94591  30.039  24.520   1.866
30824W        W94592  43.813  16.620   0.730
30825W        W94593  14.270  39.864   0.417
30826W        W94594  38.975  27.517  12.030
30827W        W94595   0.882   5.349   4.308
30828W        W94596  16.120  36.924  11.504
30829W        W94597   5.356  38.902  13.548
30830W        W94598  31.987  15.607   5.177
30831W        W94599  28.955   2.287  12.434
30832W        W94600   3.383  19.079  11.561
30833W        W94601   8.302  39.485   0.440
30834W        W94602  12.292  30.003   0.873
30835W        W94603  26.494   8.341   3.208
30836W        W94604  11.371   0.766   3.307
30837W        W94605  20.062  18.254  11.115
30838W        W94606  23.240  24.042  13.464
30839W        W94607  32.910  24.111  12.842
30840W        W94608  28.128  11.307   3.665
30841W        W94609   1.770   8.827   0.740
30842W        W94610  33.387  37.377   2.404
30843W        W94611   7.675  13.297   4.697
30844W        W94612  29.494  27.111   3.788
30845W        W94613  26.602  11.179   1.728
30846W        W94614  38.831   1.858  14.029
30847W        W94615  25.665  13.262  12.910
30848W        W94616  15.240  26.507   9.479
30849W        W94617  37.979  40.355   1.337
30850W        W94618  15.637  34.521  10.588
30851W        W94619   1.749  10.167  14.899
30852W        W94620  29.669  33.986   4.661
30853W        W94621  22.222  11.201   2.677
30854W        W94622  30.065  19.589  12.477
30855W        W94623  21.641  42.789  14.844
30856W        W94624  37.543  37.489   1.258
30857W        W94625  13.617  21.031  13.428
30858W        W94626   0.934  22.214  10.584
30859W        W94627   6.687  38.450   0.942
30860W        W94628  17.680   1.822   0.868
30861W        W94629  24.007  19.562   4.821
30862W        W94630   7.891  42.821   1.301
30863W        W94631  38.471  36.073  12.423
30864W        W94632  17.296  37.074  14.978
30865W        W94633  22.017  24.207   2.770
30866W        W94634  14.264  11.778   5.780
30867W        W94635   8.315   9.721  12.095
30868W        W94636  43.980   4.387   4.160
30869W        W94637  26.106  30.510   4.756
30870W        W94638  14.716  10.299   0.356
30871W        W94639  28.117   6.822   3.356
30872W        W94640   0.777  30.025  13.487
30873W        W94641  23.046   2.430  12.060
30874W        W94642  44.386  41.356   3.373
30875W        W94643   1.747  34.608  12.958
30876W        W94644   5.314   2.775   3.783
30877W        W94645  15.636  26.140  13.927
30878W        W94646  43.273  18.265  12.511
30879W        W94647  28.059  25.163  14.922
30880W        W94648   2.472  43.959   3.275
30881W        W94649  38.453  35.512   0.790
30882W        W94650   4.756  39.375  11.383
30883W        W94651   3.425  30.949   2.729
30884W        W94652  40.539  21.104   0.880
30885W        W94653  19.252  16.182   0.733
30886W        W94654  36.361  38.963   0.916
30887W        W94655  25.689  43.962   3.200
30888W        W94656   0.386   9.807  13.839
30889W        W94657  14.756  25.051  14.807
30890W        W94658  27.989  37.341   9.999
30891W        W94659  37.407  44.830  14.309
30892W        W94660  25.633  32.548  13.934
30893W        W94661  17.740  14.234  13.925
30894W        W94662  28.994   5.726  13.890
30895W        W94663  28.504  27.971  14.890
30896W        W94664  39.378  30.552   1.802
30897W        W94665  28.480  37.496   3.785
30898W        W94666  26.957  26.693   5.161
30899W        W94667  24.002  23.016  11.389
30900W        W94668  33.098  15.092   4.266
30901W        W94669  14.628  11.664  14.327
30902W        W94670   3.218  16.621  12.514
30903W        W94671   0.971  21.163  14.817
30904W        W94672  25.058  37.893  10.582
30905W        W94673   8.378  37.929   1.927
30906W        W94674   4.313  32.896   4.316
30907W        W94675  23.199   9.366   3.318
30908W        W94676  12.649  26.664   4.342
30909W        W94677  42.297   7.258  13.949
30910W        W94678  34.604  16.697   5.798
30911W        W94679  24.155  36.381  11.984
30912W        W94680  13.839  36.014  12.972
30913W        W94681   3.244   6.280   3.869
30914W        W94682  11.369  34.050  13.928
30915W        W94683  13.784   4.782   2.896
30916W        W94684  41.510  38.567   3.743
30917W        W94685  10.271  34.024  12.033
30918W        W94686   4.895   9.198   2.739
30919W        W94687  26.481  42.912   2.708
30920W        W94688  22.150  38.832   4.297
30921W        W94689  10.846  14.619  13.414
30922W        W94690  38.029  43.286  13.841
30923W        W94691  37.992  21.198  10.482
30924W        W94692  17.692  36.582   0.251
30925W        W94693  37.068   4.740  13.993
30926W        W94694  19.250  34.923  10.543
30927W        W94695   0.766  32.066   3.671
30928W        W94696   3.849  23.497   0.776
30929W        W94697  42.837  43.406  11.951
30930W        W94698  19.754  43.479  12.841
30931W        W94699  31.560   3.805  11.855
30932W        W94700  18.119  40.005   0.795
30933W        W94701   5.321  41.002  14.768
30934W        W94702  27.507   3.419   0.322
30935W        W94703  26.979  42.343  14.498
30936W        W94704  16.091   0.471  11.430
30937W        W94705  31.473   8.677   2.879
30938W        W94706  23.616  32.391   0.778
30939W        W94707   2.851  10.643  12.408
30940W        W94708  39.894  31.975   5.190
30941W        W94709  13.665  35.430  12.831
30942W        W94710  19.080  21.587   2.797
30943W        W94711  23.666  28.058   4.689
30944W        W94712  39.555  40.895  10.565
30945W        W94713  42.341  19.658  11.466
30946W        W94714  23.664  19.677   2.665
30947W        W94715   3.342   5.912   3.230
30948W        W94716   8.174  33.968  14.311
30949W        W94717  17.564   4.713   0.961
30950W        W94718   6.363   7.717   3.169
30951W        W94719  25.551  36.871   5.314
30952W        W94720   6.772  30.130   0.479
30953W        W94721  41.874   4.793  10.465
30954W        W94722  42.848  12.786   2.814
30955W        W94723  33.571   9.866   1.879
30956W        W94724  10.696  24.508  14.032
30957W        W94725   1.825  44.362  11.073
30958W        W94726  23.049  30.961  11.434
30959W        W94727  10.647   1.439   2.372
30960W        W94728  24.097  22.702   1.268
30961W        W94729  14.255  39.993   2.801
30962W        W94730  43.006  22.625  11.893
30963W        W94731  19.553   6.831   4.750
30964W        W94732   6.871  39.030   3.790
30965W        W94733   8.285   0.486   1.825
30966W        W94734  44.402   1.788   1.880
30967W        W94735  11.791   5.757  14.855
30968W        W94736   1.765  36.892   4.319
30969W        W94737  11.208  12.197  12.836
30970W        W94738   5.407  20.670  11.895
30971W        W94739   7.830  14.685  11.896
30972W        W94740   5.768  31.970  10.566
30973W        W94741  44.492  29.922  10.531
30974W        W94742   6.279  11.360  14.505
30975W        W94743  19.595  42.908  14.841
30976W        W94744  38.430  29.552   2.287
30977W        W94745  40.988  24.513   4.725
30978W        W94746  39.539  22.008   4.629
30979W        W94747  14.238  14.177   0.460
30980W        W94748  15.710   1.810  14.410
30981W        W94749  41.957   8.768  10.103
30982W        W94750  29.604   1.453   0.867
30983W        W94751  42.330   2.855   2.199
30984W        W94752   3.788  42.481   0.385
30985W        W94753  11.761  18.149  11.425
30986W        W94754  42.843  14.328  13.528
30987W        W94755   7.361  24.695  13.320
30988W        W94756  16.656  34.047  11.054
30989W        W94757  39.454  18.080  11.576
30990W        W94758  29.952  37.518  10.553
30991W        W94759  41.990   6.807   3.802
30992W        W94760   5.368  35.559   4.338
30993W        W94761   3.267   0.349   9.958
30994W        W94762  33.995  14.337   5.244
30995W        W94763  19.183  30.544  14.004
30996W        W94764   8.665   5.283   3.267
30997W        W94765  28.459  28.017   2.701
30998W        W94766  18.701  37.519   0.898
30999W        W94767  31.972   5.233  14.952
31000W        W94768  44.952  18.742   1.867
31001W        W94769  33.509  13.715  10.982
31002W        W94770  32.985   5.328   1.334
31003W        W94771  32.478  14.264   3.279
31004W        W94772  35.072  30.558  13.872
31005W        W94773  12.266   7.886   0.319
31006W        W94774  34.025   6.389   3.737
31007W        W94775  44.350   1.909   4.735
31008W        W94776  34.523  37.484  10.425
31009W        W94777   9.240  17.574   3.163
31010W        W94778   5.192  25.503  11.943
31011W        W94779  21.552  19.544   5.153
31012W        W94780   8.885  14.638   2.205
31013W        W94781  26.967  27.534  10.894
31014W        W94782   5.843  31.622  13.039
31015W        W94783  36.557  22.637   5.107
31016W        W94784  21.675  33.508   4.155
31017W        W94785  38.341  15.138  11.127
31018W        W94786  44.803  21.665  14.385
31019W        W94787  19.135  35.518  10.942
31020W        W94788  20.638  13.710   0.788
31021W        W94789  27.103  21.599   2.779
31022W        W94790  12.164  17.686  13.914
31023W        W94791  40.385  44.468   3.168
31024W        W94792  18.205   3.717   4.834
31025W        W94793  26.557  10.341  12.948
31026W        W94794  17.136  41.014   1.354
31027W        W94795   8.202  12.763   0.427
31028W        W94796  36.374  17.634  12.430
31029W        W94797   9.823  38.984  10.142
31030W        W94798  11.246  31.444   1.762
31031W        W94799  42.385  16.587  13.328
31032W        W94800  40.484   4.274   3.658
31033W        W94801  31.548  33.455   1.268
31034W        W94802  35.876  29.483  11.423
31035W        W94803   8.821  12.748  14.344
31036W        W94804  18.073  36.428  12.371
31037W        W94805  24.055  25.193   5.126
31038W        W94806   6.207  10.169   5.158
31039W        W94807  33.036  35.407  13.469
31040W        W94808  28.532  26.161  14.886
31041W        W94809  21.628   7.866   3.859
31042W        W94810  18.099   3.809  11.390
31043W        W94811  11.724  33.910   1.919
31044W        W94812  31.515  37.894   1.786
31045W        W94813  16.729  32.935   9.442
31046W        W94814   5.274  41.985  14.289
31047W        W94815  35.104   1.906  13.002
31048W        W94816  13.744  26.122  13.344
31049W        W94817  33.545  10.241   0.889
31050W        W94818  39.040  44.415   4.214
31051W        W94819  18.596  13.142  12.087
31052W        W94820   1.451  15.125  14.816
31053W        W94821  11.214  40.357   0.398
31054W        W94822  15.179  18.768  11.575
31055W        W94823  12.247   4.778   2.360
31056W        W94824  42.808  42.981  13.884
31057W        W94825  15.155  34.430   2.254
31058W        W94826   1.264  30.136   1.257
31059W        W94827  27.129  42.993   3.865
31060W        W94828  37.934   9.888   2.775
31061W        W94829  28.136  24.208   3.708
31062W        W94830   2.397  35.855  13.474
31063W        W94831  10.244  28.616  13.811
31064W        W94832  40.341   2.945  13.061
31065W        W94833  32.055  32.558  14.330
31066W        W94834  34.071  12.126  13.901
31067W        W94835   5.398  34.442  14.333
31068W        W94836  35.391  39.506  13.444
31069W        W94837   5.226  19.043   4.705
31070W        W94838  40.453  25.662   3.660
31071W        W94839   2.726  31.626  12.492
31072W        W94840   8.786  25.701  11.959
31073W        W94841  28.554  40.465  11.958
31074W        W94842  43.319  14.710   1.722
31075W        W94843   0.782   2.833   0.905
31076W        W94844  15.707  40.304  11.890
31077W        W94845  11.303   2.844   4.702
31078W        W94846   4.396  39.865  11.534
31079W        W94847  44.938   0.869  11.895
31080W        W94848   3.789   3.825   2.324
31081W        W94849  33.594  37.495   4.153
31082W        W94850  32.565  31.632  14.823
31083W        W94851   2.322  44.918  14.980
31084W        W94852  22.141   1.779   4.349
31085W        W94853   3.824  38.872  10.540
31086W        W94854   8.828  18.136  10.928
31087W        W94855  32.411  29.639   3.730
31088W        W94856  31.583  44.862  11.404
31089W        W94857  28.625   4.321  11.048
31090W        W94858  30.013  30.911  10.602
31091W        W94859  14.829  26.525  11.445
31092W        W94860  36.366  23.181   2.262
31093W        W94861  19.274  21.720  10.606
31094W        W94862  40.925  25.014   4.280
31095W        W94863  27.070  43.300   3.637
31096W        W94864   3.460  10.237  10.577
31097W        W94865  18.212  29.033   0.728
31098W        W94866   0.793  18.113  13.841
31099W        W94867  15.768   9.218   5.191
31100W        W94868   6.908  37.403   4.337
31101W        W94869  11.254  32.591  11.523
31102W        W94870  35.372  12.632   1.828
31103W        W94871  28.496  18.591  12.469
31104W        W94872  23.723   6.751  12.858
31105W        W94873  28.481  13.111  13.515
31106W        W94874  43.302  36.523   1.834
31107W        W94875  13.690  27.626  11.892
31108W        W94876  35.108  26.633   0.302
31109W        W94877  20.530  44.000  11.023
31110W        W94878  44.443  18.612  13.799
31111W        W94879  10.205  43.987   0.458
31112W        W94880  23.044  21.516  10.973
31113W        W94881  13.199  16.581  10.978
31114W        W94882  39.451  18.739   1.259
31115W        W94883  25.162   7.239   3.816
31116W        W94884   7.786   7.332  11.108
31117W        W94885   1.304  20.028   4.684
31118W        W94886  29.164  20.105   1.420
31119W        W94887  19.097  17.077   2.331
31120W        W94888  18.556   6.854  13.534
31121W        W94889  37.363  14.134  12.078
31122W        W94890  23.062  30.085   2.719
31123W        W94891  20.177  33.467  14.350
31124W        W94892  30.619  16.265   3.220
31125W        W94893  42.519  13.699   2.871
31126W        W94894  15.270  22.627  12.986
31127W        W94895  19.702  27.949  11.939
31128W        W94896  12.358   4.392  13.880
31129W        W94897  35.863  35.057  12.905
31130W        W94898  26.101  24.030  13.040
31131W        W94899   1.332  36.951   3.709
31132W        W94900  18.722  35.861  11.088
31133W        W94901  38.446  41.415  13.509
31134W        W94902   9.259   4.804  14.376
31135W        W94903   5.773  13.695  12.368
31136W        W94904  30.575   7.689   1.891
31137W        W94905  23.669  22.252  11.070
31138W        W94906  17.144  26.688  13.876
31139W        W94907  32.471  21.737   0.913
31140W        W94908  33.011  43.765  14.513
31141W        W94909  15.650   8.875   1.900
31142W        W94910   3.753  29.612   2.880
31143W        W94911  21.649  37.366   4.656
31144W        W94912  13.747   2.274   2.757
31145W        W94913  23.177  22.710   4.348
31146W        W94914   5.203  43.271  14.777
31147W        W94915  20.086  22.743   1.821
31148W        W94916  14.734  44.389   1.394
31149W        W94917   6.803  26.208   2.735
31150W        W94918  22.606  37.883   3.351
31151W        W94919  23.214  20.089   3.712
31152W        W94920  30.102  24.181   0.823
31153W        W94921  15.805  42.345   3.635
31154W        W94922   6.193   7.375  12.982
31155W        W94923  35.905   2.416   5.117
31156W        W94924  29.118  28.662   3.367
31157W        W94925  26.121  23.674   3.629
31158W        W94926  36.093  19.189  12.020
31159W        W94927   1.830   4.756   1.344
31160W        W94928  24.030  35.397  11.977
31161W        W94929  27.115  27.058  11.101
31162W        W94930  31.959  24.011   3.752
31163W        W94931  36.466  42.521  11.973
31164W        W94932  35.474  43.019  13.999
31165W        W94933  25.561  25.107   0.967
31166W        W94934  30.614   4.416   1.397
31167W        W94935  26.029  41.478   3.731
31168W        W94936  41.385  32.898   2.299
31169W        W94937   3.284  24.521  11.068
31170W        W94938  27.950  14.164   3.772
31171W        W94939  16.802  10.647  10.580
31172W        W94940  26.703  31.087  13.916
31173W        W94941  30.528  23.233   4.708
31174W        W94942  35.981  42.885  13.445
31175W        W94943  42.844  27.969  13.992
31176W        W94944   3.873  31.487   0.942
31177W        W94945  27.160  36.569  12.423
31178W        W94946  18.728  34.984  14.982
31179W        W94947   8.260  39.465  13.932
31180W        W94948  30.469  12.131   0.299
31181W        W94949  42.301   4.257  14.895
31182W        W94950  24.593   2.338  11.554
31183W        W94951  14.162  24.200   2.211
31184W        W94952  40.469  25.566  13.848
31185W        W94953  40.853   0.776  14.441
31186W        W94954   8.252  33.565   1.701
31187W        W94955  24.170   9.653   4.738
31188W        W94956   5.222  10.875   4.690
31189W        W94957   9.764   4.705   1.330
31190W        W94958  43.859  42.880   1.276
31191W        W94959  22.032   2.783   1.710
31192W        W94960  16.100  22.703   3.378
31193W        W94961  28.980  28.561  13.792
31194W        W94962  44.976  28.040   2.280
31195W        W94963   0.792   9.354  11.408
31196W        W94964  18.191   1.306  14.460
31197W        W94965  40.328  26.058   3.251
31198W        W94966  19.166  19.686   0.463
31199W        W94967  26.580  11.329   2.838
31200W        W94968  13.223  14.731  12.022
31201W        W94969   7.760   9.846   4.836
31202W        W94970  34.008  12.691   3.744
31203W        W94971  36.406  22.167  13.829
31204W        W94972  24.484  40.354   1.407
31205W        W94973   6.763   2.297  13.843
31206W        W94974  28.454   6.713   2.227
31207W        W94975  40.966  37.012  13.849
31208W        W94976  41.983  41.347   1.765
31209W        W94977  43.799  44.412  12.970
31210W        W94978   9.801   0.454   1.821
31211W        W94979   3.726  17.137  11.461
31212W        W94980  21.565   8.668  11.911
31213W        W94981  44.266  11.194   0.379
31214W        W94982  13.208  24.156   3.309
31215W        W94983   3.253  21.098  11.404
31216W        W94984  42.344   6.890   3.788
31217W        W94985  37.018  21.682   1.760
31218W        W94986   9.243  12.277   0.944
31219W        W94987  33.509  40.330   1.340
31220W        W94988  38.936  33.923   5.178
31221W        W94989  26.146  19.576   2.371
31222W        W94990   0.360  34.481   0.830
31223W        W94991  33.389   1.749   0.934
31224W        W94992  34.387   4.318  12.491
31225W        W94993   3.886   2.257  13.537
31226W        W94994  40.403  26.483  12.094
31227W        W94995  39.891   9.208  10.558
31228W        W94996  29.617   6.228  10.417
31229W        W94997  44.909  16.298   3.372
31230W        W94998  31.059  30.153  14.428
31231W        W94999   5.218   8.355  11.016
31232W        W95000  39.907  12.220  11.043
31233W        W95001  33.996  38.534  13.541
31234W        W95002  35.914  40.811  13.057
31235W        W95003  40.529   0.748   3.203
31236W        W95004  15.779   8.175   0.303
31237W        W95005  27.067  43.388   4.132
31238W        W95006  29.518  42.830   4.241
31239W        W95007  11.680  28.165   2.322
31240W        W95008  11.251   3.286   4.340
31241W        W95009  15.111  21.073  14.892
31242W        W95010  38.333   9.718   3.655
31243W        W95011  42.976  22.089  11.919
31244W        W95012  31.990  12.789  14.845
31245W        W95013  12.300   4.323   4.796
31246W        W95014  43.478  29.479  14.314
31247W        W95015   4.886  33.593  13.474
31248W        W95016  30.589   6.838   1.731
31249W        W95017  37.997  26.567  10.439
31250W        W95018  32.005   7.747   3.350
31251W        W95019  14.226  39.884  14.777
31252W        W95020  23.105  25.211  13.390
31253W        W95021  12.158   1.398   1.899
31254W        W95022  10.222  12.281   1.834
31255W        W95023  14.736   1.883   0.412
31256W        W95024  17.761  40.349   4.838
31257W        W95025   9.803  17.306  12.568
31258W        W95026  24.058  19.642  14.395
31259W        W95027  18.169  30.566   3.250
31260W        W95028   1.273  30.010   4.345
31261W        W95029   3.448  17.124   1.355
31262W        W95030  27.451  28.956   2.799
31263W        W95031   4.925   8.698  13.400
31264W        W95032  42.935  34.938  12.887
31265W        W95033  17.086  11.246   0.459
31266W        W95034  42.343  27.965  12.074
31267W        W95035  18.665  32.035   0.941
31268W        W95036  24.226  10.666  12.029
31269W        W95037   7.241  27.137   4.277
31270W        W95038  29.454  13.841  14.287
31271W        W95039  20.131  36.874   1.842
31272W        W95040  43.977  34.594  10.906
31273W        W95041   3.241  11.840  12.952
31274W        W95042   1.279   2.338  10.912
31275W        W95043  42.403  37.989   0.342
31276W        W95044  33.926  16.812   2.767
31277W        W95045  35.574  34.907   0.432
31278W        W95046  11.187  25.994   1.696
31279W        W95047  13.289  37.024   4.143
31280W        W95048  30.585  34.934   3.681
31281W        W95049  44.397  44.269  13.331
31282W        W95050  10.300  17.232  12.962
31283W        W95051  14.796  36.391  14.984
31284W        W95052  21.597   6.839  13.410
31285W        W95053   9.795  30.965   3.870
31286W        W95054  31.911  34.481  11.373
31287W        W95055   3.819   2.469   0.783
31288W        W95056  19.651  13.228   4.798
31289W        W95057  19.670  44.985  10.640
31290W        W95058  35.088  44.980   4.262
31291W        W95059  39.411  42.515   2.407
31292W        W95060  34.421  42.526   4.741
31293W        W95061   6.702  32.551  12.377
31294W        W95062   3.892   0.846   1.731
31295W        W95063  18.173  18.605   4.745
31296W        W95064   9.213  32.983  13.538
31297W        W95065  20.090   2.381   2.180
31298W        W95066  41.849  16.243   4.701
31299W        W95067  36.562   7.777  13.493
31300W        W95068  14.718   7.836  12.970
31301W        W95069  27.607   5.390   1.852
31302W        W95070  37.523  20.121  12.095
31303W        W95071  21.739  43.786   2.689
31304W        W95072   6.253  21.099   4.178
31305W        W95073  15.162  22.530   0.909
31306W        W95074  34.893  20.625   1.852
31307W        W95075  41.020   7.291   3.855
31308W        W95076  42.346  44.276   3.267
31309W        W95077  12.648   4.257   0.873
31310W        W95078   3.358  33.472  12.397
31311W        W95079  23.989  39.327  14.017
31312W        W95080  22.076   4.245   3.380
31313W        W95081  12.793  25.062   0.359
31314W        W95082   7.901  10.344  11.866
31315W        W95083   6.279   4.221  10.433
31316W        W95084   4.355   5.225   0.259
31317W        W95085   6.388  14.285  11.564
31318W        W95086  40.433  30.145  12.431
31319W        W95087  21.247  28.477   0.960
31320W        W95088   3.418   2.349  13.468
31321W        W95089  43.298  38.524  10.460
31322W        W95090  21.687  37.424   3.682
31323W        W95091  36.879   2.464   3.640
31324W        W95092  23.495   6.405   2.337
31325W        W95093  16.291  15.657   1.408
31326W        W95094  18.283   6.833   2.695
31327W        W95095  43.963  23.624  12.049
31328W        W95096  25.631   6.899  11.375
31329W        W95097  33.884  24.086   1.451
31330W        W95098   0.941  27.652  14.957
31331W        W95099  19.261  28.153  11.993
31332W        W95100  38.961  19.127   4.727
31333W        W95101  19.154   0.816  14.320
31334W        W95102   0.906  27.006  11.932
31335W        W95103  44.923  20.569   2.204
31336W        W95104  27.070  33.413   5.164
31337W        W95105  10.639  21.558  11.929
31338W        W95106   7.346   3.924  12.015
31339W        W95107  43.947  29.540  10.445
31340W        W95108  31.544   5.361  12.020
31341W        W95109  27.081  39.423   4.685
31342W        W95110  10.703  20.082  12.076
31343W        W95111   8.164  44.444  11.869
31344W        W95112  30.551   3.288   2.301
31345W        W95113  31.458   4.353   4.604
31346W        W95114  18.732  24.717  11.107
31347W        W95115  18.759  15.766  14.362
31348W        W95116  34.546  24.978   2.321
31349W        W95117  17.595  10.844  12.374
31350W        W95118  31.980  24.112   5.229
31351W        W95119  24.198  18.274   2.245
31352W        W95120  15.194  11.233  10.939
31353W        W95121  29.605   6.244  14.365
31354W        W95122   5.781  40.465  12.005
31355W        W95123  16.568  24.973  12.961
31356W        W95124  18.121   1.462   1.888
31357W        W95125  33.435  34.865   1.759
31358W        W95126  43.322  40.920   2.241
31359W        W95127   6.369  27.041  14.438
31360W        W95128   1.755  11.231   0.737
31361W        W95129  18.571  27.177  12.913
31362W        W95130  12.349  37.529   5.176
31363W        W95131  39.402  32.522   2.283
31364W        W95132  16.644   2.881   4.237
31365W        W95133  12.291  38.326   3.835
31366W        W95134  20.752  19.160  12.497
31367W        W95135  34.956   4.212  11.883
31368W        W95136  32.131  31.645   4.172
31369W        W95137  10.784  12.835   3.778
31370W        W95138  42.943  14.641   0.384
31371W        W95139  44.433  11.281  11.539
31372W        W95140  28.064  44.962  10.464
31373W        W95141  39.415  39.534   0.736
31374W        W95142  12.627  12.249   3.275
31375W        W95143  16.223   7.812   2.734
31376W        W95144  38.050  27.648  13.456
31377W        W95145  31.077  36.590   4.281
31378W        W95146  40.540  22.245  12.428
31379W        W95147  26.503  37.999  11.086
31380W        W95148  18.118  26.563   3.629
31381W        W95149   0.960  18.166   4.189
31382W        W95150  10.206  17.577   1.767
31383W        W95151  17.259  39.503   0.757
31384W        W95152  37.454   1.305  13.949
31385W        W95153  22.043  30.027   0.829
31386W        W95154   4.864  12.791  12.021
31387W        W95155  41.967  39.347  13.474
31388W        W95156  14.619   3.829   2.665
31389W        W95157  13.833   9.751  14.497
31390W        W95158  37.074   7.195   0.443
31391W        W95159  24.017   1.284   4.260
31392W        W95160   3.735   2.316   0.362
31393W        W95161  18.088  11.175  12.989
31394W        W95162  27.600   4.319   1.356
31395W        W95163  41.985  21.102   0.820
31396W        W95164   0.464   4.933   2.226
31397W        W95165   9.713   3.344   1.911
31398W        W95166  33.425  14.588  14.416
31399W        W95167  37.580   2.282  11.020
31400W        W95168   3.399  29.048   4.141
31401W        W95169  36.465  37.455   3.256
31402W        W95170  15.594  37.087   4.686
31403W        W95171  42.807  34.972   0.356
31404W        W95172   4.261   2.426  10.554
31405W        W95173  42.943  22.543   2.286
31406W        W95174   3.912  41.374   2.785
31407W        W95175  16.165  40.899  13.464
31408W        W95176  10.345   9.375   0.268
31409W        W95177  40.470  35.463  14.432
31410W        W95178  15.140  42.301  11.468
31411W        W95179  29.587  23.190  11.431
31412W        W95180  18.249  12.767  12.854
31413W        W95181   8.784  39.827  12.042
31414W        W95182  17.286  16.636   3.180
31415W        W95183   2.338  17.697   0.270
31416W        W95184  32.944  32.102  14.799
31417W        W95185  24.196   1.447  11.918
31418W        W95186   6.797  14.782  11.430
31419W        W95187  33.895  14.604  12.078
31420W        W95188  35.057  18.279   5.673
31421W        W95189  33.391  28.118   0.422
31422W        W95190  10.201  22.220  11.953
31423W        W95191   9.848   8.772   4.611
31424W        W95192  22.069  36.445   3.276
31425W        W95193  32.110  41.887   0.964
31426W        W95194  20.100  15.218  10.994
31427W        W95195  10.711  26.159  12.951
31428W        W95196  29.670  16.271  12.980
31429W        W95197  14.610  43.019   3.764
31430W        W95198  39.430  15.699  13.448
31431W        W95199  20.646  11.258  10.519
31432W        W95200  22.083  44.784  14.925
31433W        W95201  24.045   1.898   1.899
31434W        W95202  19.196   7.415  11.037
31435W        W95203   4.423  40.355   4.608
31436W        W95204  39.979   5.708   3.794
31437W        W95205  40.364   2.228   4.765
31438W        W95206  19.270   7.417  10.465
31439W        W95207  14.696  23.143  11.553
31440W        W95208   7.696  38.947   4.603
31441W        W95209  17.217   6.231  14.778
31442W        W95210  35.020   1.904  10.501
31443W        W95211  21.717  21.581  10.452
31444W        W95212  26.504  30.466   2.392
31445W        W95213  41.534  31.468  13.454
31446W        W95214  22.596  39.534   2.341
31447W        W95215  16.578  39.969  11.941
31448W        W95216   9.763  42.822   1.793
31449W        W95217  37.415  19.589  12.932
31450W        W95218   9.350   7.902   4.667
31451W        W95219   9.162  32.566   0.474
31452W        W95220  28.121  33.918   2.876
31453W        W95221  22.195   0.409   2.719
31454W        W95222  15.697  37.531   1.415
31455W        W95223  11.792  42.952   5.224
31456W        W95224  40.335  11.847  10.457
31457W        W95225   7.203   0.361   0.432
31458W        W95226  18.668  41.521   4.176
31459W        W95227  21.518  40.002  13.543
31460W        W95228  25.541  43.019  11.004
31461W        W95229  22.625  11.840  12.080
31462W        W95230  44.756  30.609   2.681
31463W        W95231  21.185  36.853   0.324
31464W        W95232  30.659   4.879   4.158
31465W        W95233  38.000  40.346  12.539
31466W        W95234  41.831  36.462  13.989
31467W        W95235   4.308   4.871   4.206
31468W        W95236  38.426   1.316  10.548
31469W        W95237   8.734  22.626   5.269
31470W        W95238  28.576  19.671  13.921
31471W        W95239  31.455  29.657  10.943
31472W        W95240  27.990   4.403   3.661
31473W        W95241  21.197  37.068  12.085
31474W        W95242  39.545  35.428   0.484
31475W        W95243   5.900  10.255   1.919
31476W        W95244  18.597   6.321  14.412
31477W        W95245  42.384  16.567  12.978
31478W        W95246  37.456   4.786   5.243
31479W        W95247   8.406  33.533  10.920
31480W        W95248  25.188  43.501   1.706
31481W        W95249  21.263  21.729  13.817
31482W        W95250  15.231  40.440  13.870
31483W        W95251  25.637  15.088  14.402
31484W        W95252   8.844  31.060   4.641
31485W        W95253  34.025  41.041  11.567
31486W        W95254  40.473   7.686  13.845
31487W        W95255  29.425  22.737   4.835
31488W        W95256  25.061  20.729   2.244
31489W        W95257  41.466  13.679   0.451
31490W        W95258  28.481  20.545  10.531
31491W        W95259   7.692  41.488   4.307
31492W        W95260  21.675   5.814  11.109
31493W        W95261   4.769  27.454   3.847
31494W        W95262   6.848  12.231  11.996
31495W        W95263   5.880  33.915  14.981
31496W        W95264   1.283  31.575  12.351
31497W        W95265   0.368  17.212  11.955
31498W        W95266  29.019  14.203   3.187
31499W        W95267   2.408  12.621  11.468
31500W        W95268  23.605  14.328   0.243
31501W        W95269  39.823  33.519   0.407
31502W        W95270   3.955  22.580   3.742
31503W        W95271   3.368  29.500  11.037
31504W        W95272  40.847  39.346   1.880
31505W        W95273  11.797  26.200   4.116
31506W        W95274  23.005   3.844   3.644
31507W        W95275  42.914  14.722   4.173
31508W        W95276  24.579  38.051  11.040
31509W        W95277   6.396  25.097  13.822
31510W        W95278  37.437   4.258   3.762
31511W        W95279  22.176  10.746  11.376
31512W        W95280  11.625   2.321   4.322
31513W        W95281  41.517   8.290   2.280
31514W        W95282  17.762   6.293  12.083
31515W        W95283  28.166  37.370   0.457
31516W        W95284  26.015  25.105   4.606
31517W        W95285  33.934  13.226   1.804
31518W        W95286  18.551  42.373   2.401
31519W        W95287  13.135  34.041   2.221
31520W        W95288  32.072   1.456  11.886
31521W        W95289  17.610  21.513   2.230
31522W        W95290  20.167  33.981   0.367
31523W        W95291  22.573  23.537   3.871
31524W        W95292   0.941  35.079   3.771
31525W        W95293  42.843  25.988   1.725
31526W        W95294  23.699  20.653  13.056
31527W        W95295  28.623  35.581  13.995
31528W        W95296  41.380  36.895   2.340
31529W        W95297   9.288  15.162   4.257
31530W        W95298  33.520  40.957  13.901
31531W        W95299  14.724  19.097  14.850
31532W        W95300  43.971   6.322   2.234
31533W        W95301   4.708  44.282  12.990
31534W        W95302  23.654  39.450   0.449
31535W        W95303  41.963   6.823  10.914
31536W        W95304   1.927  27.692  14.300
31537W        W95305  12.237  42.420   0.378
31538W        W95306   5.388  16.209   1.820
31539W        W95307  13.649   3.737   0.282
31540W        W95308  26.953  34.605  13.838
31541W        W95309  44.499  18.208  10.555
31542W        W95310   2.296  39.881   4.224
31543W        W95311   4.748  10.226  10.464
31544W        W95312  18.100  11.779   0.889
31545W        W95313  23.689  12.661  14.832
31546W        W95314  29.107  24.043  11.041
31547W        W95315  19.542  23.224  14.515
31548W        W95316  26.148   4.367  11.059
31549W        W95317   4.723  31.480   1.835
31550W        W95318  12.150  12.824  14.865
31551W        W95319  35.086  32.020   4.237
31552W        W95320  21.167  32.619   2.276
31553W        W95321  32.109   3.434   3.294
31554W        W95322  39.013   2.782   3.213
31555W        W95323  20.028  10.183  10.954
31556W        W95324  36.497  37.014   4.835
31557W        W95325  30.036  22.521   2.744
31558W        W95326  27.997  28.618  10.413
31559W        W95327   1.383  42.310   4.125
31560W        W95328   4.336  27.112  10.562
31561W        W95329  40.520  29.141  11.071
31562W        W95330   6.750  24.582   4.830
31563W        W95331  15.798  41.324  10.014
31564W        W95332  38.487  28.483   3.787
31565W        W95333  23.062  17.112   0.336
31566W        W95334  20.724  25.662   0.473
31567W        W95335  36.048  12.728  13.334
31568W        W95336  31.568  27.187   4.350
31569W        W95337  36.855   1.254   1.249
31570W        W95338  10.160  29.089   1.268
31571W        W95339  44.326  25.700   3.775
31572W        W95340  36.589  29.140   0.250
31573W        W95341  40.464  44.869  14.813
31574W        W95342  36.449  11.868   1.771
31575W        W95343  37.501  29.659  12.426
31576W        W95344   4.296  42.520   1.338
31577W        W95345  34.458  43.380   0.847
31578W        W95346  23.053  44.856  12.855
31579W        W95347  21.732  32.438   3.149
31580W        W95348  20.104  11.740   4.251
31581W        W95349   5.693  23.108   2.182
31582W        W95350  16.134   0.462   1.756
31583W        W95351   5.433  15.653   2.371
31584W        W95352   7.731   1.421   2.238
31585W        W95353  19.135  23.540   5.093
31586W        W95354   0.462  25.985  13.325
31587W        W95355  23.505  31.470  14.511
31588W        W95356  42.519  25.612   4.651
31589W        W95357  31.115  16.809  14.962
31590W        W95358  42.789  34.546   3.333
31591W        W95359  18.291   2.817   2.750
31592W        W95360   5.860   6.815   2.402
31593W        W95361  43.996   3.811   3.773
31594W        W95362  35.397   8.215  10.124
31595W        W95363  33.472  41.820   1.845
31596W        W95364  27.158  24.045   2.237
31597W        W95365  39.007   5.407   1.879
31598W        W95366   3.265  30.430   1.368
31599W        W95367  32.574   5.878   9.967
31600W        W95368   0.364  43.999  12.514
31601W        W95369  21.635  11.765   3.292
31602W        W95370  42.427  30.054   2.338
31603W        W95371  37.070  44.915   3.761
31604W        W95372  39.459  20.272   3.838
31605W        W95373   4.765  43.019  14.288
31606W        W95374   2.393  17.785  11.005
31607W        W95375  43.508  13.780   4.309
31608W        W95376  14.702  38.925  12.389
31609W        W95377  31.523  27.010  13.436
31610W        W95378  22.221   3.859   1.425
31611W        W95379  34.514  21.645  14.338
31612W        W95380  13.259  21.654   0.468
31613W        W95381  39.560  13.837  11.041
31614W        W95382   2.871  35.978  12.346
31615W        W95383  27.187   8.755   5.137
31616W        W95384  12.242  32.564  14.982
31617W        W95385  31.568  20.114   9.991
31618W        W95386  22.028  21.741   2.189
31619W        W95387  39.499  38.366  12.066
31620W        W95388  19.714  14.695  13.998
31621W        W95389  21.663  30.506   0.315
31622W        W95390  17.727   4.338  11.125
31623W        W95391   1.242  19.646  11.882
31624W        W95392  32.538  31.070  10.589
31625W        W95393  41.538  27.568   4.176
31626W        W95394   7.396  10.286   3.163
31627W        W95395  35.461  24.125  12.885
31628W        W95396   0.782  31.939   3.338
31629W        W95397  24.173  34.456   1.899
31630W        W95398  32.537  40.812  14.869
31631W        W95399   0.393  28.665   4.637
31632W        W95400  11.651  34.479   1.713
31633W        W95401  14.321  36.999   1.799
31634W        W95402   2.330  34.930  13.849
31635W        W95403  16.626  27.546  10.495
31636W        W95404  32.424  32.116   0.850
31637W        W95405   9.190  17.114  12.452
31638W        W95406  28.148  32.452   5.223
31639W        W95407  29.078  39.334   1.426
31640W        W95408  26.576   2.735   4.199
31641W        W95409   6.428  43.866   3.375
31642W        W95410  28.604  23.723  10.915
31643W        W95411   9.365  27.464  14.030
31644W        W95412   4.292  21.191  14.489
31645W        W95413  24.074  10.810  14.933
31646W        W95414   3.788  22.675   1.910
31647W        W95415  38.387   3.245   2.792
31648W        W95416  24.200  32.906  14.918
31649W        W95417  35.535  35.934   3.158
31650W        W95418  16.205  21.257   4.336
31651W        W95419   4.772  15.739  14.004
31652W        W95420  30.608  41.507   3.829
31653W        W95421  38.500  25.203  11.070
31654W        W95422  35.971   5.320   2.193
31655W        W95423  11.301  19.642  13.009
31656W        W95424  16.766  16.314  10.522
31657W        W95425  14.261  27.683   0.344
31658W        W95426  41.378   4.361   0.893
31659W        W95427  12.845  35.092  12.866
31660W        W95428  43.298   3.814  10.970
31661W        W95429  23.717  40.845  11.914
31662W        W95430  37.408  15.258   1.310
31663W        W95431  44.288   5.692   4.787
31664W        W95432  33.455  43.840  13.917
31665W        W95433  24.190  34.886   3.286
31666W        W95434   2.464  28.459  14.846
31667W        W95435  22.089   3.247  11.427
31668W        W95436   3.345  40.393   5.262
31669W        W95437  35.038  25.188  12.388
31670W        W95438  39.544  41.947  10.444
31671W        W95439  15.715  43.869  11.103
31672W        W95440  44.424  18.600   3.194
31673W        W95441  10.287  40.884   0.282
31674W        W95442   7.335  17.154   3.639
31675W        W95443  38.958  25.172  13.380
31676W        W95444  43.899  18.548  14.274
31677W        W95445   8.161  18.763   3.853
31678W        W95446  38.932  33.448  11.609
31679W        W95447  14.633  19.159  10.574
31680W        W95448  18.205  27.182   4.257
31681W        W95449  42.983  30.128  11.072
31682W        W95450   4.387   0.789  10.978
31683W        W95451  17.784  23.053   2.716
31684W        W95452  39.028  14.271   3.292
31685W        W95453  38.943  15.160  11.585
31686W        W95454   3.391  22.056   4.348
31687W        W95455   3.353   0.338   1.850
31688W        W95456  27.999   1.304  12.561
31689W        W95457  36.041  35.380  12.524
31690W        W95458   1.267  10.753  14.883
31691W        W95459   0.394  20.170   3.635
31692W        W95460   2.752  21.691  13.007
31693W        W95461  21.045   1.245   3.781
31694W        W95462   5.431   2.471   2.704
31695W        W95463  43.338   7.688  12.573
31696W        W95464   8.750  22.626  12.830
31697W        W95465  18.712  32.500  11.065
31698W        W95466  29.574  25.101   3.802
31699W        W95467  15.302   8.325  13.914
31700W        W95468  16.212  43.442   0.955
31701W        W95469  30.113   4.943  12.864
31702W        W95470  42.486  19.658   4.180
31703W        W95471   8.398   9.364   4.342
31704W        W95472  36.500   9.813  14.460
31705W        W95473  14.666   2.746  10.939
31706W        W95474  28.971  37.076  12.937
31707W        W95475  11.720  36.412  11.990
31708W        W95476  37.463  20.687   4.687
31709W        W95477  36.369  10.860   1.435
31710W        W95478  37.554  24.494  13.309
31711W        W95479  10.709  25.631  10.965
31712W        W95480  34.443  33.421  11.918
31713W        W95481   4.305   5.376   2.362
31714W        W95482   8.287  36.904   4.297
31715W        W95483  34.557  12.345   0.934
31716W        W95484   1.453  39.033   4.227
31717W        W95485  29.551  34.051   3.817
31718W        W95486  36.973   6.343  13.925
31719W        W95487   6.230  29.541  14.407
31720W        W95488  14.210   9.169   1.377
31721W        W95489  33.473  33.537  10.907
31722W        W95490  24.063   0.799   1.929
31723W        W95491  41.955  34.534  10.625
31724W        W95492   1.335  39.836  12.847
31725W        W95493  33.411  20.683  11.383
31726W        W95494  44.299   6.768   2.253
31727W        W95495  30.559  40.988   4.247
31728W        W95496  20.118  33.100   3.734
31729W        W95497  26.191  36.943  12.033
31730W        W95498  44.907  36.493   1.788
31731W        W95499  28.040  39.328  10.561
31732W        W95500  26.148  10.377   3.763
31733W        W95501  35.927  28.020   0.741
31734W        W95502  37.054  14.591   1.895
31735W        W95503  44.324  20.032   0.872
31736W        W95504  26.654  32.906   3.285
31737W        W95505  29.563  31.047  12.903
31738W        W95506  30.090  32.497  12.522
31739W        W95507  33.936   3.422   2.813
31740W        W95508  41.885  13.165   4.770
31741W        W95509  27.969  23.072  12.958
31742W        W95510  27.553   1.435  14.941
31743W        W95511  37.359  32.443   1.817
31744W        W95512  42.504  43.947   3.195
31745W        W95513  14.679  32.987   3.150
31746W        W95514   2.845   1.903   2.233
31747W        W95515  11.367  20.081  11.039
31748W        W95516  16.807  12.247   4.183
31749W        W95517  25.058  35.603   0.767
31750W        W95518  43.828  31.579   2.233
31751W        W95519  14.665  22.211  12.040
31752W        W95520  37.348  37.052  14.437
31753W        W95521  34.470  38.480   2.386
31754W        W95522  12.360   4.395  14.975
31755W        W95523  33.989  35.011   0.274
31756W        W95524   4.777   0.934  14.439
31757W        W95525   9.703  35.388   3.763
31758W        W95526  11.797   7.254   0.459
31759W        W95527  37.082  22.079   3.290
31760W        W95528  32.928  12.800   4.739
31761W        W95529   5.859  32.401  14.995
31762W        W95530  38.019   9.702  14.909
31763W        W95531  15.605  38.889   3.270
31764W        W95532   4.774  27.603   0.435
31765W        W95533   3.459  41.932  13.802
31766W        W95534  14.173   7.809   4.129
31767W        W95535  17.264   7.779  14.024
31768W        W95536  13.328  44.433  11.969
31769W        W95537  10.234  24.169  14.903
31770W        W95538  20.099  26.522  12.884
31771W        W95539  28.611  35.558   5.801
31772W        W95540   1.248  19.062  12.421
31773W        W95541  39.035   8.897  11.527
31774W        W95542  38.986  31.913  10.571
31775W        W95543  33.517  32.403   0.456
31776W        W95544  39.035  23.718  13.808
31777W        W95545  28.672  16.810  12.072
31778W        W95546  42.311  18.168  13.001
31779W        W95547  14.786  23.722   5.595
31780W        W95548  37.013  40.858   3.302
31781W        W95549  27.446   5.226  14.851
31782W        W95550  44.812  30.986  13.450
31783W        W95551  17.686  30.583   2.897
31784W        W95552  21.702  11.779  14.512
31785W        W95553   5.396  16.723  14.505
31786W        W95554  40.976  35.530  14.410
31787W        W95555  30.162   6.226  13.348
31788W        W95556  40.051  31.983   1.704
31789W        W95557  42.985   7.725  14.426
31790W        W95558  15.095  40.862   1.398
31791W        W95559  21.122  33.882  13.799
31792W        W95560  31.925  34.601  14.772
31793W        W95561  40.544  27.158   0.813
31794W        W95562   0.328  32.043  14.933
31795W        W95563  16.270  16.102   4.148
31796W        W95564   1.764  32.001  14.786
31797W        W95565  43.929   4.332   1.830
31798W        W95566   5.250  11.833   3.697
31799W        W95567  13.818  33.076   2.249
31800W        W95568  41.388  14.222  11.564
31801W        W95569  32.041  26.590   2.673
31802W        W95570   8.816  21.703  10.508
31803W        W95571   4.803  17.784  14.501
31804W        W95572  31.493  11.132  14.029
31805W        W95573  25.147  13.330   5.624
31806W        W95574  40.354  10.339   1.299
31807W        W95575  15.132  18.085  11.862
31808W        W95576  14.242  44.492  14.976
31809W        W95577  25.079  28.675  12.066
31810W        W95578  16.195  17.725  12.476
31811W        W95579  27.469  16.279   4.685
31812W        W95580  29.119  26.560   4.634
31813W        W95581  37.421  26.581  10.608
31814W        W95582  23.527  39.974   4.717
31815W        W95583   0.986  40.829   0.897
31816W        W95584  41.944   3.875  11.089
31817W        W95585  10.157  28.122   3.341
31818W        W95586  14.731   7.838   1.447
31819W        W95587   6.381  37.410  11.422
31820W        W95588  28.940  31.536  14.010
31821W        W95589  29.146  22.163   0.341
31822W        W95590   1.341  28.579   4.141
31823W        W95591  27.180  36.969   1.724
31824W        W95592  14.290  17.188  12.485
31825W        W95593   1.255  35.375   1.420
31826W        W95594  13.234  30.591   2.874
31827W        W95595   2.909   4.317   1.907
31828W        W95596  29.036  27.121   1.845
31829W        W95597  10.849  20.631  12.963
31830W        W95598  28.948  10.168   1.729
31831W        W95599  14.743  21.046   1.226
31832W        W95600   0.822  16.239   1.324
31833W        W95601  35.489  19.275   3.791
31834W        W95602  32.042  42.328   3.721
31835W        W95603   6.342  22.049  12.979
31836W        W95604  26.136  30.147   1.291
31837W        W95605  19.697  35.997  11.444
31838W        W95606  27.947   5.196   2.891
31839W        W95607  44.285  22.111   2.226
31840W        W95608  26.204   1.767   3.257
31841W        W95609   9.777  10.664  12.041
31842W        W95610  39.947  33.551  12.069
31843W        W95611  38.406  23.515  11.886
31844W        W95612  20.531   3.276   1.289
31845W        W95613   6.251  25.627   0.932
31846W        W95614  20.130  27.187   1.364
31847W        W95615   7.901  25.588   2.355
31848W        W95616  35.036  38.861   0.926
31849W        W95617  22.738  20.767  10.471
31850W        W95618   7.213  31.078  13.537
31851W        W95619  36.941   5.261   1.434
31852W        W95620  27.099   3.231  10.938
31853W        W95621   2.742  42.852  13.466
31854W        W95622  36.888   5.207  10.637
31855W        W95623  31.121   0.920   4.240
31856W        W95624  16.688  37.561  11.506
31857W        W95625  20.613  42.786  14.845
31858W        W95626   7.816  26.088   2.341
31859W        W95627  15.641  26.033   0.837
31860W        W95628   2.254  28.455   4.800
31861W        W95629  26.008  31.054  11.933
31862W        W95630  42.351  15.192  11.088
31863W        W95631  34.484  42.801  12.059
31864W        W95632   0.393  41.527   4.288
31865W        W95633   7.313  17.741   4.332
31866W        W95634   0.784  17.068   4.814
31867W        W95635   1.297  24.708  12.387
31868W        W95636  17.658  43.490  11.101
31869W        W95637   1.947  33.603   2.208
31870W        W95638  37.945  24.197   3.771
31871W        W95639  26.179  35.549  13.857
31872W        W95640  25.029  16.767   1.302
31873W        W95641  32.073  13.725   1.835
31874W        W95642  13.207  26.176  12.999
31875W        W95643  36.367   1.937  11.494
31876W        W95644   9.830  24.578   4.812
31877W        W95645  41.896  20.579   4.313
31878W        W95646  39.372  10.678   1.333
31879W        W95647  13.159  20.172  12.870
31880W        W95648  26.624   7.343  13.440
31881W        W95649  15.606  29.459  13.834
31882W        W95650  35.496  20.057  13.329
31883W        W95651   4.405  35.541  12.091
31884W        W95652  15.731  35.867   1.393
31885W        W95653   5.717  23.693   2.699
31886W        W95654  42.030  18.782  14.436
31887W        W95655  21.627  39.491  12.933
31888W        W95656   1.938  31.947   0.832
31889W        W95657  36.968   7.369   1.377
31890W        W95658  36.034   9.828   2.417
31891W        W95659  24.678   7.858  10.411
31892W        W95660  35.517  29.493  13.536
31893W        W95661  39.403  27.094   2.866
31894W        W95662  40.887   3.413  11.028
31895W        W95663  41.531  33.103  12.490
31896W        W95664  35.539  17.128  14.922
31897W        W95665  13.350  32.548  12.358
31898W        W95666  27.114  20.141   0.811
31899W        W95667  34.428  39.437  11.399
31900W        W95668   7.778   3.876   4.696
31901W        W95669  14.664  38.974   3.218
31902W        W95670  40.008   6.880  14.350
31903W        W95671  25.705  21.066  10.620
31904W        W95672  30.102  31.638   1.428
31905W        W95673  23.984   2.777   2.212
31906W        W95674   6.349  21.598   4.826
31907W        W95675  21.154   4.302   4.175
31908W        W95676  10.353  22.667  13.986
31909W        W95677  27.073  21.117  13.019
31910W        W95678   9.644  27.192   2.856
31911W        W95679  24.121   7.692  10.899
31912W        W95680  42.984   2.244  14.511
31913W        W95681  10.312  41.376  12.914
31914W        W95682   8.844  27.971   4.622
31915W        W95683  25.570  32.539   1.385
31916W        W95684  26.674  16.230   2.208
31917W        W95685  17.199  14.135  11.418
31918W        W95686  28.172   3.342   0.289
31919W        W95687   0.319  23.693   1.221
31920W        W95688  34.504   7.753   3.238
31921W        W95689   5.848   6.410   0.749
31922W        W95690  12.650  26.043  12.396
31923W        W95691  29.545  20.543  12.067
31924W        W95692  25.052  26.642  11.400
31925W        W95693  33.433   3.223  14.803
31926W        W95694  27.619   0.271   3.353
31927W        W95695  27.559  33.125  10.019
31928W        W95696  13.348  11.343  10.915
31929W        W95697  24.606  11.316   1.262
31930W        W95698  10.354   1.411  13.923
31931W        W95699  29.516  11.345   2.240
31932W        W95700  39.945   1.334  13.979
31933W        W95701  43.448  16.794   2.699
31934W        W95702  27.976  43.993  11.568
31935W        W95703  24.182  24.048   4.712
31936W        W95704  31.916  42.383   4.739
31937W        W95705  36.858  35.018  11.391
31938W        W95706  33.012   2.383   3.171
31939W        W95707  18.557  13.325   2.784
31940W        W95708  39.945   6.807  12.894
31941W        W95709  12.802   3.298  13.007
31942W        W95710  19.621  40.946   2.272
31943W        W95711   3.377  40.460  13.852
31944W        W95712   0.427  11.351  12.975
31945W        W95713  29.954  19.548  12.921
31946W        W95714  30.004  17.191   2.744
31947W        W95715  28.502  34.520   5.581
31948W        W95716  20.616  22.503  11.479
31949W        W95717   5.414  30.469   2.880
31950W        W95718  21.138  15.102   3.333
31951W        W95719  37.432   9.749  13.960
31952W        W95720  34.016   1.917  14.829
31953W        W95721   8.250   1.760  14.994
31954W        W95722   5.270  16.130  13.007
31955W        W95723   2.782  17.245  11.002
31956W        W95724  34.382  20.708  14.281
31957W        W95725  27.513  12.199  11.408
31958W        W95726  33.087  33.113   2.277
31959W        W95727  38.346  39.058  13.395
31960W        W95728  27.074  25.124   1.218
31961W        W95729   6.780  39.030   1.876
31962W        W95730  38.028  32.465  13.353
31963W        W95731  41.428  11.306  10.442
31964W        W95732   5.822  19.654  13.983
31965W        W95733  31.415  24.113  10.503
31966W        W95734  37.373   8.709   5.667
31967W        W95735   3.805   7.864   1.843
31968W        W95736  25.616   7.807  11.966
31969W        W95737  35.999  33.950   0.390
31970W        W95738  18.209   3.720   2.837
31971W        W95739  18.093  23.056   2.364
31972W        W95740   3.845  28.166   1.399
31973W        W95741  15.090   7.201  14.393
31974W        W95742   8.693  37.530   3.853
31975W        W95743  36.895  14.600  11.083
31976W        W95744  35.457  20.742  11.377
31977W        W95745  18.764  26.631  11.395
31978W        W95746  14.311   8.376  14.904
31979W        W95747  40.874  32.510   1.315
31980W        W95748  34.963  38.417   4.658
31981W        W95749  39.937  27.653   1.879
31982W        W95750  39.987   5.912  13.976
31983W        W95751  14.230  33.554   3.678
31984W        W95752   5.847  37.929   4.191
31985W        W95753  28.039  37.882  13.027
31986W        W95754   8.311  25.557   3.326
31987W        W95755  21.226  16.144   2.806
31988W        W95756  26.688  20.740  12.987
31989W        W95757  44.908  18.736  12.456
31990W        W95758  22.038  22.598   1.432
31991W        W95759  37.032  22.070   4.615
31992W        W95760  13.237   6.283   5.284
31993W        W95761  10.795  36.964   1.448
31994W        W95762  22.623  13.346   2.331
31995W        W95763   1.934   5.692   3.651
31996W        W95764  43.895  19.618   3.731
31997W        W95765   4.909  27.531  13.054
31998W        W95766   4.448  13.639  13.466
31999W        W95767   1.385  26.591   2.769
32000W        W95768  26.065  43.920  13.007
32001W        W95769  30.609  21.036  12.081
32002W        W95770  22.564  21.566  13.856
32003W        W95771   5.433  43.909  13.368
32004W        W95772  36.383  11.794  14.822
32005W        W95773  22.065   8.234  14.928
32006W        W95774  35.026  44.899  11.491
32007W        W95775  16.196  38.997   3.648
32008W        W95776  18.684   9.747  11.931
32009W        W95777  22.231  18.780  11.917
32010W        W95778  17.289  17.632   2.274
32011W        W95779  11.726  27.671  13.888
32012W        W95780  13.220  43.491  12.351
32013W        W95781  30.070  16.166   2.334
32014W        W95782  37.007  22.540   1.342
32015W        W95783  23.996  41.037   1.296
32016W        W95784  16.187  33.476  14.302
32017W        W95785  16.138   9.155  13.359
32018W        W95786  36.518  17.255   1.778
32019W        W95787  31.097  17.643  12.546
32020W        W95788  44.467  35.907  10.983
32021W        W95789  43.467  11.777  14.017
32022W        W95790  12.855  23.519  13.496
32023W        W95791  14.665  11.787  12.845
32024W        W95792  29.093   2.808   0.280
32025W        W95793  43.287  18.217   1.752
32026W        W95794  38.355  23.047  13.451
32027W        W95795  12.221   6.368  12.892
32028W        W95796  23.555   7.847   4.775
32029W        W95797   9.685  41.890  11.537
32030W        W95798  12.754  38.001  11.950
32031W        W95799  30.422  20.644  10.545
32032W        W95800  25.467  21.707  11.111
32033W        W95801   1.830   0.846   3.167
32034W        W95802  27.651  10.660   2.851
32035W        W95803   9.850  44.960  12.872
32036W        W95804  20.714   4.874   1.765
32037W        W95805  42.836  30.001   4.324
32038W        W95806   2.720  19.769   2.809
32039W        W95807  42.988  42.336   2.265
32040W        W95808  33.929  15.319  10.052
32041W        W95809  13.835  28.168   3.284
32042W        W95810   6.765   4.832  11.978
32043W        W95811  16.254  15.713   2.785
32044W        W95812  22.513  14.822   4.665
32045W        W95813  40.030  19.235   3.823
32046W        W95814  17.243  36.018  13.017
32047W        W95815   9.672  24.141   0.951
32048W        W95816   6.734   2.398   1.290
32049W        W95817  39.982  32.625  12.352
32050W        W95818  27.195  30.636   4.614
32051W        W95819  40.541  28.632  11.011
32052W        W95820  26.569  34.002  13.367
32053W        W95821  12.159  26.117   0.450
32054W        W95822  20.256   8.795  11.862
32055W        W95823  33.081  40.482  10.482
32056W        W95824  31.024  35.942   2.322
32057W        W95825  35.437  33.979   3.673
32058W        W95826  29.970  28.578  13.007
32059W        W95827   5.876   7.229  13.800
32060W        W95828   2.823  19.175  13.360
32061W        W95829   4.735  10.666   1.246
32062W        W95830  35.000  16.217   1.424
32063W        W95831  39.405  32.453  10.567
32064W        W95832  28.075  28.989   1.285
32065W        W95833  18.571  37.403  10.018
32066W        W95834  43.316   0.762   3.662
32067W        W95835  11.309  32.915   1.395
32068W        W95836  35.522  35.393  13.354
32069W        W95837   9.706   8.829  11.570
32070W        W95838  35.367  13.298   1.928
32071W        W95839   2.404  29.576   4.711
32072W        W95840   9.151   8.296   4.351
32073W        W95841  23.579  15.151   4.751
32074W        W95842  39.525  34.876  14.830
32075W        W95843  14.251  23.094   3.228
32076W        W95844  32.969  42.313   4.808
32077W        W95845   7.177  13.317   4.641
32078W        W95846  14.235  43.358  12.868
32079W        W95847  23.081  18.622   0.260
32080W        W95848  25.142  30.505   0.826
32081W        W95849  19.715   6.814   3.719
32082W        W95850  28.593  44.961   0.832
32083W        W95851   7.284   2.902   2.199
32084W        W95852  12.733  22.645  10.439
32085W        W95853  30.974  14.237  14.498
32086W        W95854   4.228  26.609   2.181
32087W        W95855   8.873  18.728  10.519
32088W        W95856  40.024  30.065   1.306
32089W        W95857  22.022  38.031   1.450
32090W        W95858  34.979  22.234   2.386
32091W        W95859  25.668  44.481  10.962
32092W        W95860  13.162   8.895   2.320
32093W        W95861  42.323  25.963  11.113
32094W        W95862   7.313  38.491  12.407
32095W        W95863  43.920  28.991  11.515
32096W        W95864  13.224  31.513  10.974
32097W        W95865  12.130  28.586  10.638
32098W        W95866  28.999  25.606   1.790
32099W        W95867  25.632   5.769  11.933
32100W        W95868  14.124  18.738   1.250
32101W        W95869  29.508  23.496   3.844
32102W        W95870   0.898  11.740  10.043
32103W        W95871  41.953  24.594   2.740
32104W        W95872  16.281   3.451   2.794
32105W        W95873  22.243  39.441   1.897
32106W        W95874  43.877  28.995   4.825
32107W        W95875  38.412  14.718   1.704
32108W        W95876  36.924  12.788   3.231
32109W        W95877  31.489  16.782  11.977
32110W        W95878  41.960  31.983   4.722
32111W        W95879  39.545   2.230   2.262
32112W        W95880  41.927  19.763  11.504
32113W        W95881  41.472  21.118   3.240
32114W        W95882  19.260   1.927   2.368
32115W        W95883  30.931  34.874  12.560
32116W        W95884  33.491   1.912   1.792
32117W        W95885  37.026  42.368  12.395
32118W        W95886   1.977  34.492  11.928
32119W        W95887  31.119   9.267   1.724
32120W        W95888  16.799  20.637  13.442
32121W        W95889  39.060  34.539  14.382
32122W        W95890   0.493  22.208  12.036
32123W        W95891  14.265   1.765  11.944
32124W        W95892   1.737  12.802   1.349
32125W        W95893   1.285  28.091  12.090
32126W        W95894  17.293  10.854   2.686
32127W        W95895  35.936  11.672   0.412
32128W        W95896   9.839  38.412   3.171
32129W        W95897  30.941  10.383  11.057
32130W        W95898  30.992   1.387  13.458
32131W        W95899  26.020  23.543  10.984
32132W        W95900   2.937  10.362  11.588
32133W        W95901  28.670  29.518   2.795
32134W        W95902   4.814  17.576   4.160
32135W        W95903  21.077  36.482   4.290
32136W        W95904  14.804  14.820   1.912
32137W        W95905  15.788  42.489  14.473
32138W        W95906  23.586  33.402  13.480
32139W        W95907  24.985  12.218  12.372
32140W        W95908   9.767  16.188   2.729
32141W        W95909   5.926  35.852   0.446
32142W        W95910  12.660  18.263   0.259
32143W        W95911  31.415   2.863   4.207
32144W        W95912  26.597  32.015   2.327
32145W        W95913  41.989  40.052   0.319
32146W        W95914  10.740   0.271   4.612
32147W        W95915  36.555  18.210  10.448
32148W        W95916  37.900   5.422  14.514
32149W        W95917  29.981  41.339  14.310
32150W        W95918  33.875  40.829  12.910
32151W        W95919  29.920  14.780   4.271
32152W        W95920  27.461  25.606  13.494
32153W        W95921  15.293  38.068  14.774
32154W        W95922  40.509  27.511  13.476
32155W        W95923  32.607   0.430  12.390
32156W        W95924  25.516  36.593  12.438
32157W        W95925   7.877  33.426   4.671
32158W        W95926  14.794  30.639   0.817
32159W        W95927  19.603  21.071  14.806
32160W        W95928   6.300  29.446   3.348
32161W        W95929   4.735  29.660   0.450
32162W        W95930   8.387  34.515  14.937
32163W        W95931  13.167  11.318  14.397
32164W        W95932   6.339  29.053  14.385
32165W        W95933  18.561   7.336   3.353
32166W        W95934  14.265  24.700   3.662
32167W        W95935  40.503  32.393   4.144
32168W        W95936   5.204  15.116  12.080
32169W        W95937  33.889  11.183  13.316
32170W        W95938  32.986  35.041  13.837
32171W        W95939  11.237  33.418   4.147
32172W        W95940  33.467  12.790  13.422
32173W        W95941  28.540   1.367  13.846
32174W        W95942  36.902  37.021  11.478
32175W        W95943  44.312  32.411   2.871
32176W        W95944  39.962  20.562   2.233
32177W        W95945   4.889  36.432  14.508
32178W        W95946  41.360  24.024  12.356
32179W        W95947   7.790  22.534  10.103
32180W        W95948  19.162  40.433   1.766
32181W        W95949  16.588   8.685  10.990
32182W        W95950  43.932  22.507   4.705
32183W        W95951   2.354  43.977   1.346
32184W        W95952  20.087  26.572   2.412
32185W        W95953  16.262  14.241   0.815
32186W        W95954  24.055  34.020   0.464
32187W        W95955  25.554  37.048   2.837
32188W        W95956   4.279  13.130   1.398
32189W        W95957   5.866  32.119   2.760
32190W        W95958   7.198  34.410   2.805
32191W        W95959  23.598   7.686  10.614
32192W        W95960  17.273   4.711  10.481
32193W        W95961   5.416  43.419   4.114
32194W        W95962  32.053  15.743   3.243
32195W        W95963  42.022  37.375   2.685
32196W        W95964  34.525  30.992   0.788
32197W        W95965  11.370  10.233  14.999
32198W        W95966  11.811  31.913   4.211
32199W        W95967  40.935   4.448  13.482
32200W        W95968  12.660  38.422   0.803
32201W        W95969  31.638  10.191   0.911
32202W        W95970  43.425   0.401   0.821
32203W        W95971  32.477   6.817  14.375
32204W        W95972   8.726  35.960  13.404
32205W        W95973  44.832  15.679  14.954
32206W        W95974  42.454  19.166   0.860
32207W        W95975  41.039   6.910   1.235
32208W        W95976  32.970   4.302  10.592
32209W        W95977   0.360   8.247   3.275
32210W        W95978  32.420  38.893   4.268
32211W        W95979   3.714  21.236   2.785
32212W        W95980  31.054  21.621  13.393
32213W        W95981   9.221  12.807   4.153
32214W        W95982  23.667  27.951   3.863
32215W        W95983  25.564  31.641   4.285
32216W        W95984  21.251  11.236   1.728
32217W        W95985   0.405   8.823   0.301
32218W        W95986  17.708  41.817  12.567
32219W        W95987   9.346   5.746  11.464
32220W        W95988  31.051  25.967   4.812
32221W        W95989  27.620  28.018  13.942
32222W        W95990  24.594  31.615   3.703
32223W        W95991  41.373   0.957  14.478
32224W        W95992  28.475   2.415   4.140
32225W        W95993  38.996  34.983  11.096
32226W        W95994  32.454  14.291  13.891
32227W        W95995  18.753  11.773  14.779
32228W        W95996   9.769  37.008  14.855
32229W        W95997  40.825   3.355  12.991
32230W        W95998  33.411  29.637   2.242
32231W        W95999  19.095  11.275   0.832
32232W        W96000  33.056  38.959  14.454
32233W        W96001   8.849  37.542  12.071
32234W        W96002  26.139  12.675   2.250
32235W        W96003  30.498  15.092   0.843
32236W        W96004  10.731  37.559  14.916
32237W        W96005  37.967  19.181   4.788
32238W        W96006   3.893  12.137  14.307
32239W        W96007   9.251  14.217   2.849
32240W        W96008  28.124  23.239  10.461
32241W        W96009  13.333  24.538   1.890
32242W        W96010  33.497   6.408  12.015
32243W        W96011  11.240  41.008   0.357
32244W        W96012  19.726  40.491  11.496
32245W        W96013   0.479  43.976  13.873
32246W        W96014  20.558  42.837  13.021
32247W        W96015  42.311  36.079  14.022
32248W        W96016  27.641  24.076   0.461
32249W        W96017  24.110  18.698   0.945
32250W        W96018   2.925   6.266  11.039
32251W        W96019  21.666  28.550   1.224
32252W        W96020  21.240  23.491   4.597
32253W        W96021  23.601  11.848   1.748
32254W        W96022  11.776   3.309  10.442
32255W        W96023  29.491  41.786  12.961
32256W        W96024  35.932  35.916   3.364
32257W        W96025  16.696   0.834   3.796
32258W        W96026  31.628  32.442  12.576
32259W        W96027   0.810  14.689   4.262
32260W        W96028  40.978  38.989   4.728
32261W        W96029  38.028  28.950  11.015
32262W        W96030  20.757  26.963  11.388
32263W        W96031  14.813  24.150  10.905
32264W        W96032  16.568  42.869   2.348
32265W        W96033  16.598  27.170  11.106
32266W        W96034   9.813  36.492  13.505
32267W        W96035  10.232  10.187  10.075
32268W        W96036   6.196  35.889  13.524
32269W        W96037   0.368  21.562   2.743
32270W        W96038  36.393  38.567  10.638
32271W        W96039  35.957  19.094  10.410
32272W        W96040   8.341  42.451   0.342
32273W        W96041  28.117  15.670  12.958
32274W        W96042  23.702   6.377  11.593
32275W        W96043  20.160   9.391   2.300
32276W        W96044  27.054  17.775  14.440
32277W        W96045  30.975  39.457  10.491
32278W        W96046  19.631   2.383   3.747
32279W        W96047  19.683  42.865  12.509
32280W        W96048  35.589  11.826   2.744
32281W        W96049  42.792   7.785  12.372
32282W        W96050   7.413  12.268   0.905
32283W        W96051  32.936  18.093   1.385
32284W        W96052  26.612  43.794  14.943
32285W        W96053  10.806   4.785   0.899
32286W        W96054   3.426  13.696   3.315
32287W        W96055   6.807  15.292   0.758
32288W        W96056  22.097  12.119   3.724
32289W        W96057  21.742   6.755   3.736
32290W        W96058  32.616  23.523   4.816
32291W        W96059   6.426  25.656   4.320
32292W        W96060  42.902  27.683   2.746
32293W        W96061   5.207  12.289   1.877
32294W        W96062  19.772  17.789  11.118
32295W        W96063   9.282  43.904   1.714
32296W        W96064  28.533  37.001   3.766
32297W        W96065  11.245  35.490  14.966
32298W        W96066  41.500   7.182   1.292
32299W        W96067  19.609  26.481   2.775
32300W        W96068  11.712  38.915   2.679
32301W        W96069  10.694  29.974  14.827
32302W        W96070  23.527  39.397  10.998
32303W        W96071  43.813  38.993   3.687
32304W        W96072  25.038  41.993   2.849
32305W        W96073  17.222  36.571   4.271
32306W        W96074  28.048   1.835  12.360
32307W        W96075  10.161   5.723  12.553
32308W        W96076  14.203  39.334  14.969
32309W        W96077  37.436  20.162   1.906
32310W        W96078  23.639  37.939   2.361
32311W        W96079  22.132  25.643  14.476
32312W        W96080  11.732   0.815  10.450
32313W        W96081  34.522  41.475   1.423
32314W        W96082  38.012  38.064   2.780
32315W        W96083  28.974   8.668  10.931
32316W        W96084   8.734  28.642  14.427
32317W        W96085   5.287  14.190   3.639
32318W        W96086  27.528  31.403   2.668
32319W        W96087  41.368  42.387  14.856
32320W        W96088  33.619  26.131  10.001
32321W        W96089  36.439  24.525  10.523
32322W        W96090   9.807  18.199  13.010
32323W        W96091  23.024  39.341  13.355
32324W        W96092  40.309  10.383  12.838
32325W        W96093  42.836  40.925  10.463
32326W        W96094  41.399  32.055  13.855
32327W        W96095  33.387  40.388  13.423
32328W        W96096  11.838   4.886  12.960
32329W        W96097   1.877  12.681  11.500
32330W        W96098  19.206  12.784   0.292
32331W        W96099   0.753   6.780  13.462
32332W        W96100  42.962  43.281  11.429
32333W        W96101  11.305  29.025  12.568
32334W        W96102  27.526   1.944  13.033
32335W        W96103   9.390   2.455   0.846
32336W        W96104  38.872  27.094   0.426
32337W        W96105   7.258  40.355  12.866
32338W        W96106  38.984  11.337  12.832
32339W        W96107   9.322  13.116   4.165
32340W        W96108  32.554  25.155   2.688
32341W        W96109   3.337  12.362   3.722
32342W        W96110  43.827  39.011  14.301
32343W        W96111  43.873  23.573  14.315
32344W        W96112  44.865  23.071  12.847
32345W        W96113   1.409  21.748  14.988
32346W        W96114  31.544  24.520  14.395
32347W        W96115  34.925  41.981  12.360
32348W        W96116   1.840  29.608  11.395
32349W        W96117  28.988  37.884  14.477
32350W        W96118  24.206   8.748  10.589
32351W        W96119   1.925  38.008  11.898
32352W        W96120  21.591  27.530  14.312
32353W        W96121  30.155  29.443   0.283
32354W        W96122  27.643  22.695  12.973
32355W        W96123   4.374   5.856  14.438
32356W        W96124  17.668  40.403  14.449
32357W        W96125  24.184  41.474   0.378
32358W        W96126   8.724   2.310  12.943
32359W        W96127  35.396   2.272  13.524
32360W        W96128  19.126  22.220   4.770
32361W        W96129  40.854  35.589   3.147
32362W        W96130  34.611  31.106   3.741
32363W        W96131  28.562   0.751  10.889
32364W        W96132  34.042  20.542  10.467
32365W        W96133  17.687  25.546   2.201
32366W        W96134  38.867  23.656  10.961
32367W        W96135  33.057  17.604  12.899
32368W        W96136   7.896  27.100   0.822
32369W        W96137  38.053  36.980  11.089
32370W        W96138  30.575   3.265   2.768
32371W        W96139  15.791  26.517   1.796
32372W        W96140   1.843  18.139   1.715
32373W        W96141  35.035  25.175  11.101
32374W        W96142  26.177  20.184   1.307
32375W        W96143  19.667  36.844   3.841
32376W        W96144   5.889  42.290   4.240
32377W        W96145  22.210  23.642  13.832
32378W        W96146  33.604   5.235  13.865
32379W        W96147  34.576  26.587  13.423
32380W        W96148  42.289  31.987  10.592
32381W        W96149  24.200  29.594  10.990
32382W        W96150  22.714  25.033   0.257
32383W        W96151  20.697  37.394  10.503
32384W        W96152  11.684  15.824  10.415
32385W        W96153  11.646  26.187  10.075
32386W        W96154  15.799  14.800   4.717
32387W        W96155  26.987   3.295   1.254
32388W        W96156  40.964   8.704   3.225
32389W        W96157  32.526  31.021  13.005
32390W        W96158  21.212  17.586   4.276
32391W        W96159  38.943  14.201  14.846
32392W        W96160  14.235  12.238   2.871
32393W        W96161  27.690  14.726  14.842
32394W        W96162  28.182  23.673  13.312
32395W        W96163  29.962  12.778   3.308
32396W        W96164   4.387  44.799  14.284
32397W        W96165  15.751  23.620   4.169
32398W        W96166  21.067   1.807  10.137
32399W        W96167  41.031  30.927   2.702
32400W        W96168   8.661  18.597   0.449
32401W        W96169  18.097  18.632   0.363
32402W        W96170  41.447   2.426   1.768
32403W        W96171  27.074   9.879  11.527
32404W        W96172  43.449  35.381   4.737
32405W        W96173   2.731  29.569   1.935
32406W        W96174  28.965  17.707   1.403
32407W        W96175  15.160  33.976  13.534
32408W        W96176  40.501  24.505  13.447
32409W        W96177  38.432   4.292   0.395
32410W        W96178  36.549   1.342  10.920
32411W        W96179  24.218   0.265   1.306
32412W        W96180  33.530  43.950   4.217
32413W        W96181  33.031  13.726  14.913
32414W        W96182  31.943   1.904   4.643
32415W        W96183  29.034  25.471  10.478
32416W        W96184  29.082  18.673  13.984
32417W        W96185  10.740  36.863  14.446
32418W        W96186  26.963  20.762   2.288
32419W        W96187   5.333  22.517   2.838
32420W        W96188  23.659   7.182  11.971
32421W        W96189  21.717   8.777  14.975
32422W        W96190  31.108  34.457  14.303
32423W        W96191  23.611  12.615  12.870
32424W        W96192  19.222  26.979   1.777
32425W        W96193  18.053  16.294   0.274
32426W        W96194  28.997  32.625  10.636
32427W        W96195  22.562  41.529   2.244
32428W        W96196  24.518  11.237   3.317
32429W        W96197   0.909  17.768  13.911
32430W        W96198  14.293  29.479  12.876
32431W        W96199  37.580  18.187  10.407
32432W        W96200  24.528   0.749   2.195
32433W        W96201  24.143  43.893   0.296
32434W        W96202  15.678  21.145  12.460
32435W        W96203   1.965   3.897   2.319
32436W        W96204  42.009  42.300   2.307
32437W        W96205  41.459  32.528  11.557
32438W        W96206   3.218  21.670   1.339
32439W        W96207   6.784  29.958  13.360
32440W        W96208  23.068  25.166  12.577
32441W        W96209  24.525  39.478  14.899
32442W        W96210  30.469  34.529   0.929
32443W        W96211  29.953  18.138  14.473
32444W        W96212  11.861  30.025  10.079
32445W        W96213  29.930  32.023   0.280
32446W        W96214   2.407   3.879  12.892
32447W        W96215  26.672  41.310  11.595
32448W        W96216  14.734   6.725  13.450
32449W        W96217  10.199   7.715  12.576
32450W        W96218  18.075   4.387  12.001
32451W        W96219  26.197  19.129   2.705
32452W        W96220  13.604   6.829  10.967
32453W        W96221  43.975  14.608   4.256
32454W        W96222  29.432  10.850   0.859
32455W        W96223  18.100  39.986  12.966
32456W        W96224   4.700  39.992  14.342
32457W        W96225  12.304  26.684  13.384
32458W        W96226  29.976  12.764  13.975
32459W        W96227   3.451  21.213  12.021
32460W        W96228  10.833  16.588   1.392
32461W        W96229  34.927  21.214  11.582
32462W        W96230   9.760   8.160  10.639
32463W        W96231  22.184  13.291   4.343
32464W        W96232   2.284  32.090  14.019
32465W        W96233  19.272  39.903   4.626
32466W        W96234   8.800  43.337  14.382
32467W        W96235  31.429  33.104   3.643
32468W        W96236  30.653   5.410   0.372
32469W        W96237  28.470   8.809   0.908
32470W        W96238   1.471  35.551  13.846
32471W        W96239  10.140  38.471   1.864
32472W        W96240   5.401  29.157  10.906
32473W        W96241  30.603  36.954   4.214
32474W        W96242  39.470  12.336  10.417
32475W        W96243  13.309  34.918   2.409
32476W        W96244  20.698  26.590  13.539
32477W        W96245   9.758  42.301  10.454
32478W        W96246  25.528  14.306  10.159
32479W        W96247  11.735  44.425   0.282
32480W        W96248  25.596   0.930  10.574
32481W        W96249   3.822   1.479  10.516
32482W        W96250  13.795  28.679   3.656
32483W        W96251   4.780  34.902   3.198
32484W        W96252   6.319  38.913  13.540
32485W        W96253   4.760  27.685  12.546
32486W        W96254  31.632  44.872   3.674
32487W        W96255  41.795  16.120   2.745
32488W        W96256  15.701  20.222   5.202
32489W        W96257  38.533   4.231   0.753
32490W        W96258   7.737  24.077  14.843
32491W        W96259  21.017  36.562  13.810
32492W        W96260   2.409  13.740   1.408
32493W        W96261   2.416  37.999  10.097
32494W        W96262  41.405  27.485  10.542
32495W        W96263  23.684  34.894   4.203
32496W        W96264  41.381  23.103  11.083
32497W        W96265  43.016  25.002   1.429
32498W        W96266  40.310  21.076   3.754
32499W        W96267  44.930  14.653  10.947
32500W        W96268  14.594  30.975   0.426
32501W        W96269  17.643  34.469  12.994
32502W        W96270   9.309  36.491  11.983
32503W        W96271  37.836  18.183   4.737
32504W        W96272  12.824  42.817  12.834
32505W        W96273  10.304  12.268  11.435
32506W        W96274  26.035  28.181  11.563
32507W        W96275  28.156  23.069   1.392
32508W        W96276  23.048  34.497  12.944
32509W        W96277   5.821  11.779  14.329
32510W        W96278  23.553  21.591   3.647
32511W        W96279  23.214  28.512  12.965
32512W        W96280   7.883  35.019   4.813
32513W        W96281  24.163  23.106   3.727
32514W        W96282  24.201  41.424   2.887
32515W        W96283  18.779   1.246   4.324
32516W        W96284  12.676   6.875   2.800
32517W        W96285  17.111   4.251   0.340
32518W        W96286   1.254  28.128  10.959
32519W        W96287  20.050   4.872  13.911
32520W        W96288  44.454  15.161   1.896
32521W        W96289  43.515   2.281  12.088
32522W        W96290  42.419  24.987  10.500
32523W        W96291  10.810  23.505  10.975
32524W        W96292   1.401  40.825  10.506
32525W        W96293  10.782  39.534   3.802
32526W        W96294  17.652  16.279   4.121
32527W        W96295  36.964  27.033   3.377
32528W        W96296  30.593  14.330  11.374
32529W        W96297  23.180  32.620   1.922
32530W        W96298  27.967  39.367  14.340
32531W        W96299   5.844  24.627  10.970
32532W        W96300   2.247  37.499  14.355
32533W        W96301   1.885  26.969  11.991
32534W        W96302   0.953  19.620   3.273
32535W        W96303  18.673  42.780   0.414
32536W        W96304  32.597  23.707   2.211
32537W        W96305  16.693  31.921  12.929
32538W        W96306  28.950   9.333   2.265
32539W        W96307  38.420   6.281   3.871
32540W        W96308   4.761  22.069  13.953
32541W        W96309   0.853  13.324  13.819
32542W        W96310  11.746  27.961   2.837
32543W        W96311  12.334  16.152  13.001
32544W        W96312   3.733  12.163   0.963
32545W        W96313  19.111  35.957   3.698
32546W        W96314  22.190   1.966  13.527
32547W        W96315  21.035  18.771  14.388
32548W        W96316  14.826  41.384  14.287
32549W        W96317  24.559   4.871   0.769
32550W        W96318   9.303   5.851  12.070
32551W        W96319   2.282  43.382  14.310
32552W        W96320   0.948  27.019  11.541
32553W        W96321  20.196  39.317  12.412
32554W        W96322   3.330   4.721  14.011
32555W        W96323   4.217   0.279  14.026
32556W        W96324  38.390  42.336   2.313
32557W        W96325  15.584  30.564   2.258
32558W        W96326  18.585  22.610   2.834
32559W        W96327   6.696  40.412  14.474
32560W        W96328  18.667  27.520  11.405
32561W        W96329  26.050  26.208  11.055
32562W        W96330  36.456  36.037  13.987
32563W        W96331   0.896  25.025  12.518
32564W        W96332   3.857  32.047  10.081
32565W        W96333  40.342  12.842  14.944
32566W        W96334  27.182   3.812  13.537
32567W        W96335  42.867  38.377   2.728
32568W        W96336  44.400  25.112   0.291
32569W        W96337  41.933  43.346  13.910
32570W        W96338  40.494  10.831  10.982
32571W        W96339  44.503  43.764  11.520
32572W        W96340  20.694  17.296  14.827
32573W        W96341   3.758  22.217   2.394
32574W        W96342   6.883  27.518   0.891
32575W        W96343  42.956  38.921   4.163
32576W        W96344   1.471   9.774  13.874
32577W        W96345  42.788  29.003  14.491
32578W        W96346   4.787   6.711  11.506
32579W        W96347  39.980   0.783  14.910
32580W        W96348  35.006  17.795   4.784
32581W        W96349  44.278  44.443   1.325
32582W        W96350   0.469   5.832  10.906
32583W        W96351   3.295  16.790   2.791
32584W        W96352  36.476  12.186  14.785
32585W        W96353  10.817  29.522  11.473
32586W        W96354  10.316  20.033  13.420
32587W        W96355  34.515   4.405  11.909
32588W        W96356  33.978  23.030  14.840
32589W        W96357  13.275   3.774  14.891
32590W        W96358  26.681   4.711  13.012
32591W        W96359  26.151  37.409   4.753
32592W        W96360   3.719  41.315  11.398
32593W        W96361  32.488   0.441   4.335
32594W        W96362  19.606  36.498  13.044
32595W        W96363  43.408   9.727   3.726
32596W        W96364  44.475  37.940  10.146
32597W        W96365  29.137  23.595  11.901
32598W        W96366   7.258   6.688   0.882
32599W        W96367   6.305  34.457   0.376
32600W        W96368  23.045  42.832  10.931
32601W        W96369  34.462  25.631  13.456
32602W        W96370  27.076  25.190  10.452
32603W        W96371   3.438  17.680   4.173
32604W        W96372  36.974  40.927  11.881
32605W        W96373  35.989   3.405   2.816
32606W        W96374  19.259  32.964  13.988
32607W        W96375  32.544  43.318   2.742
32608W        W96376  13.230  29.642   4.801
32609W        W96377  25.030  39.962  14.401
32610W        W96378  18.101  44.893   0.946
32611W        W96379  18.767  23.143   3.242
32612W        W96380   4.928  23.154  11.467
32613W        W96381  16.584  25.182   0.747
32614W        W96382   9.679  42.809  13.028
32615W        W96383  38.362  35.995  14.439
32616W        W96384   8.708  13.812  13.025
32617W        W96385  33.954   8.846   0.370
32618W        W96386  15.815   4.907   2.383
32619W        W96387  39.059  14.178   2.187
32620W        W96388  23.653  27.196   3.742
32621W        W96389  21.591  24.068  12.924
32622W        W96390  26.651  25.490  13.972
32623W        W96391  13.662  40.354   0.461
32624W        W96392  23.618  19.572   3.792
32625W        W96393  34.091  43.310  13.857
32626W        W96394   1.828   9.699  13.489
32627W        W96395  18.769  10.164   0.762
32628W        W96396  21.748   3.725  11.115
32629W        W96397  39.483   4.399   0.785
32630W        W96398   1.320  34.878   2.338
32631W        W96399  23.140  13.278  10.074
32632W        W96400  39.370  34.998  13.835
32633W        W96401  28.011  25.583  11.999
32634W        W96402  43.366  12.708   4.152
32635W        W96403  37.969   0.386   2.251
32636W        W96404  16.783  24.592  13.056
32637W        W96405  14.214  41.387   4.282
32638W        W96406   9.372  11.866   4.320
32639W        W96407  10.731  30.514  14.788
32640W        W96408  33.607  34.085   1.443
32641W        W96409  13.204  13.624  14.329
32642W        W96410   4.375  44.355   2.790
32643W        W96411   3.419  34.118   3.720
32644W        W96412  35.916  39.911  11.084
32645W        W96413  27.968  42.984   1.431
32646W        W96414  28.048  40.353  10.558
32647W        W96415  37.465  42.822   1.442
32648W        W96416   9.790  20.049   1.888
32649W        W96417  21.617  30.112   3.843
32650W        W96418   6.834   6.412   3.185
32651W        W96419  19.551   7.293   3.724
32652W        W96420  29.574  42.832  10.004
32653W        W96421   5.198  21.258   4.262
32654W        W96422   1.439  16.094  12.415
32655W        W96423   4.307  41.523   0.448
32656W        W96424  23.727   3.353  12.080
32657W        W96425  34.863  39.978  12.059
32658W        W96426  31.505  15.270   2.774
32659W        W96427  12.145  31.040  10.968
32660W        W96428   8.662  37.886   4.124
32661W        W96429   0.843  29.090   4.285
32662W        W96430  25.059   4.747  10.542
32663W        W96431   1.808  36.875   5.644
32664W        W96432   8.859  35.422  11.591
32665W        W96433  28.631  33.459   2.207
32666W        W96434   8.263  19.223  12.538
32667W        W96435  40.859  26.118  12.536
32668W        W96436  21.252   4.261   3.157
32669W        W96437   5.803   2.265   4.140
32670W        W96438  24.500  10.270  10.060
32671W        W96439  37.566  25.100   2.413
32672W        W96440  20.103  30.620  13.969
32673W        W96441  11.302  10.361   2.302
32674W        W96442   5.772   7.667   3.831
32675W        W96443  32.520  42.399   4.612
32676W        W96444  11.652  38.451   1.437
32677W        W96445  27.659  19.098   4.197
32678W        W96446  44.380   7.880  13.835
32679W        W96447  31.107  16.218  13.477
32680W        W96448   5.372  35.873  11.565
32681W        W96449  19.046  20.138   2.708
32682W        W96450  30.009  23.090   0.335
32683W        W96451  36.951  16.654   1.789
32684W        W96452  20.188  38.973  13.901
32685W        W96453   9.270  30.921   3.768
32686W        W96454  12.171  20.727  11.100
32687W        W96455  18.769  24.508   1.237
32688W        W96456  28.186  41.315  10.988
32689W        W96457  43.802  19.600  12.046
32690W        W96458  40.457  20.607  14.370
32691W        W96459  31.943  14.740   1.223
32692W        W96460   3.231  21.117   2.361
32693W        W96461  31.468   3.340   3.298
32694W        W96462  34.953  15.091  14.776
32695W        W96463  38.411  30.073   3.247
32696W        W96464  13.702  37.961   1.273
32697W        W96465  14.647  43.428   1.305
32698W        W96466   7.228  29.928  11.881
32699W        W96467   4.435   7.411   2.758
32700W        W96468  17.167   0.984  12.975
32701W        W96469  14.143  43.421  14.289
32702W        W96470   3.864  33.531  11.444
32703W        W96471  22.130   0.483  12.952
32704W        W96472  12.715  23.019   2.663
32705W        W96473  11.355  20.135   2.735
32706W        W96474  34.472  42.912   3.666
32707W        W96475  24.126  25.523   4.672
32708W        W96476  41.494  42.302   2.242
32709W        W96477  12.298   0.375   4.704
32710W        W96478   2.377  29.043   2.787
32711W        W96479  36.966  36.425   1.899
32712W        W96480  12.782  34.051  13.920
32713W        W96481  27.563   6.412  14.360
32714W        W96482   0.801  35.391   3.650
32715W        W96483  21.071   7.859   0.753
32716W        W96484  38.004  42.468   2.720
32717W        W96485   7.683  23.489   4.219
32718W        W96486  21.572  36.909   4.760
32719W        W96487  35.451  28.674   4.184
32720W        W96488  26.014  12.336   0.949
32721W        W96489  43.882  20.202  14.846
32722W        W96490  39.399  11.344   2.823
32723W        W96491   5.333  24.646   1.246
32724W        W96492  29.065   4.346   1.341
32725W        W96493  21.663  34.013  10.959
32726W        W96494  38.056  19.255   0.394
32727W        W96495  42.351  32.555  13.367
32728W        W96496   9.843   9.731   0.313
32729W        W96497   4.881  36.567   9.931
32730W        W96498   3.438  25.485   2.719
32731W        W96499  42.975  20.547  11.518
32732W        W96500  27.488  37.065   1.252
32733W        W96501   3.757  36.348  13.032
32734W        W96502   7.887  14.317  10.443
32735W        W96503  31.055   6.790  11.468
32736W        W96504  16.170  10.193   1.400
32737W        W96505  43.789  10.829   0.897
32738W        W96506  37.014  23.544  12.478
32739W        W96507  40.919  34.001  14.503
32740W        W96508  11.721  13.162   3.850
32741W        W96509  24.549  11.155  14.473
32742W        W96510  35.070   4.706   4.174
32743W        W96511   0.788  18.786   2.695
32744W        W96512   3.398  28.512  13.488
32745W        W96513  29.667   5.766   3.313
32746W        W96514  38.471  43.913   3.338
32747W        W96515  29.147  14.276  10.582
32748W        W96516   5.864   6.211   4.706
32749W        W96517  32.582  30.542   1.408
32750W        W96518  31.609  42.815   1.268
32751W        W96519  25.592  13.299  11.584
32752W        W96520  16.734   1.269   4.292
32753W        W96521   8.856  31.085  14.389
32754W        W96522  20.582  10.866  12.353
32755W        W96523  19.186  43.319  13.445
32756W        W96524  17.145  42.285  14.496
32757W        W96525  12.796  29.113   3.157
32758W        W96526  17.619  29.651   1.729
32759W        W96527  29.069  24.521  13.333
32760W        W96528  20.256  28.646  14.832
32761W        W96529   4.215  25.972  10.936
32762W        W96530  21.652  29.159  13.908
32763W        W96531  24.689   6.203  13.417
32764W        W96532  26.533  27.021   4.660
32765W        W96533   3.252  13.759  14.779
32766W        W96534  42.914  32.508   0.753
32767W        W96535   4.735  36.072  11.980
32768W        W96536  39.392  26.524   2.180
32769W        W96537   1.737  34.101   5.799
32770W        W96538  38.819  15.787   4.630
32771W        W96539   8.237  31.009  13.349
32772W        W96540  22.125  10.234   3.796
32773W        W96541  38.440  13.241  12.986
32774W        W96542  31.560  43.776   0.897
32775W        W96543  35.499  18.076  11.594
32776W        W96544  15.712  36.012   3.846
32777W        W96545  38.839  44.925  11.545
32778W        W96546  12.141   6.744   1.213
32779W        W96547  25.590  33.981   3.754
32780W        W96548  31.441  18.654   3.221
32781W        W96549  31.963   0.257  14.962
32782W        W96550   4.444  29.664  11.399
32783W        W96551  29.040  35.393  11.068
32784W        W96552  11.751  15.616   1.363
32785W        W96553  10.641   4.213  11.002
32786W        W96554  19.538  13.199  14.787
32787W        W96555  38.374  24.222  14.315
32788W        W96556  41.801  29.111   0.942
32789W        W96557  42.953  30.580   4.637
32790W        W96558  21.743  32.555   4.693
32791W        W96559  11.737  28.516  11.537
32792W        W96560  29.542  36.057   1.325
32793W        W96561   8.326  27.513   3.633
32794W        W96562  29.573  16.102  14.421
32795W        W96563  22.727   1.381  12.932
32796W        W96564  24.501  26.966   1.734
32797W        W96565  25.157  42.995  11.036
32798W        W96566  19.670   2.325   4.813
32799W        W96567  37.985  13.608   4.172
32800W        W96568  35.410  21.194   0.823
32801W        W96569  39.482  23.019   3.840
32802W        W96570  41.454  11.358   4.657
32803W        W96571   7.844  34.378  13.014
32804W        W96572   7.757  42.514   1.821
32805W        W96573  40.363   9.790  14.338
32806W        W96574  12.241  11.766  12.880
32807W        W96575   4.804  32.926   0.302
32808W        W96576  12.651   3.834  10.469
32809W        W96577  18.735  20.256  10.504
32810W        W96578   2.244   5.202   1.821
32811W        W96579  21.073  29.159   3.792
32812W        W96580  43.498  36.475   0.802
32813W        W96581  41.935  42.885   2.868
32814W        W96582   6.736  41.871   3.178
32815W        W96583   0.440   7.905   2.231
32816W        W96584   0.371  43.485  11.999
32817W        W96585  18.734  17.783   4.344
32818W        W96586  11.622  15.760  12.465
32819W        W96587  27.172  16.184  11.504
32820W        W96588   5.905  17.168  14.291
32821W        W96589  24.654  17.083  12.020
32822W        W96590  38.463   0.742   4.622
32823W        W96591  18.673   7.787  12.027
32824W        W96592   5.898  39.549   3.847
32825W        W96593   5.708  26.013  11.097
32826W        W96594  24.607  14.152  11.908
32827W        W96595  22.531  24.984   5.133
32828W        W96596  20.560  32.467   0.304
32829W        W96597  14.298   0.413   0.346
32830W        W96598  42.894  13.282  10.465
32831W        W96599  25.709   0.255  10.013
32832W        W96600  38.530   0.771  14.312
32833W        W96601  19.715  44.848  14.004
32834W        W96602  21.079  43.326   0.291
32835W        W96603   1.887  33.880  12.440
32836W        W96604   1.452  17.787   0.823
32837W        W96605   7.692  36.942  14.492
32838W        W96606  13.610  34.863   4.739
32839W        W96607  28.159  24.522   4.838
32840W        W96608  17.151  30.947   2.691
32841W        W96609   4.740  35.496  13.026
32842W        W96610  11.695  12.716   3.160
32843W        W96611  28.609  14.239  11.886
32844W        W96612  20.731  36.441   0.317
32845W        W96613  19.073  21.638   1.926
32846W        W96614  38.421  26.691  14.008
32847W        W96615  44.466  23.220   2.219
32848W        W96616  11.826  17.178   0.861
32849W        W96617  29.143  20.050   4.773
32850W        W96618  35.071  21.119  12.951
32851W        W96619  23.596  30.436   1.870
32852W        W96620   7.206  17.663   4.676
32853W        W96621  37.480  11.822   3.204
32854W        W96622  39.333  20.046  12.962
32855W        W96623  26.033  35.946  13.005
32856W        W96624  20.541  23.197   3.327
32857W        W96625  19.165  12.694  10.554
32858W        W96626   8.822  37.010  11.930
32859W        W96627  37.383   6.677   5.624
32860W        W96628  34.865  35.478  12.946
32861W        W96629  36.095  40.018   1.424
32862W        W96630   7.256   3.899   3.759
32863W        W96631  22.587  21.075   1.291
32864W        W96632  30.931  25.640   2.787
32865W        W96633  15.796  42.498   2.820
32866W        W96634  31.004  37.986  14.854
32867W        W96635  25.141   4.739  14.869
32868W        W96636   9.837  37.910  11.610
32869W        W96637  22.690  32.511   3.775
32870W        W96638   1.372  28.542  11.931
32871W        W96639  30.045  35.536   1.814
32872W        W96640  44.384  36.941  12.523
32873W        W96641  38.021  36.592   2.186
32874W        W96642  10.797  25.674   0.955
32875W        W96643  13.173   1.761  14.458
32876W        W96644  24.188   0.424   3.653
32877W        W96645  25.645  10.306   9.625
32878W        W96646  20.153  44.409  11.113
32879W        W96647   7.209  20.740  13.533
32880W        W96648  20.226  40.512   3.825
32881W        W96649   4.924   2.361   0.475
32882W        W96650  22.191   9.300   0.405
32883W        W96651  43.837   3.411   3.774
32884W        W96652  20.237  10.321  12.974
32885W        W96653  14.283  40.970   2.817
32886W        W96654  37.558  43.984   4.345
32887W        W96655   9.650  29.113   3.714
32888W        W96656  21.185   6.351  14.344
32889W        W96657  19.041  37.029   1.339
32890W        W96658   7.321  35.097   0.272
32891W        W96659   0.309  13.167  14.375
32892W        W96660  40.352  36.560   1.913
32893W        W96661  23.097  40.822  11.421
32894W        W96662  29.098  25.508  12.345
32895W        W96663   0.294  20.616   4.599
32896W        W96664  22.066  41.383  14.377
32897W        W96665  41.853  28.984  14.887
32898W        W96666  30.657  11.207  13.387
32899W        W96667  20.211   3.230  14.990
32900W        W96668   7.848  14.229  14.831
32901W        W96669   6.373  10.354  12.576
32902W        W96670  21.260  19.726  10.523
32903W        W96671  31.569  12.330  13.439
32904W        W96672  26.105  28.656  11.961
32905W        W96673  41.944  30.417   2.346
32906W        W96674   3.839  15.627   1.903
32907W        W96675  27.940  19.178   3.386
32908W        W96676  44.404   7.172   2.274
32909W        W96677  35.038  25.206   2.881
32910W        W96678  21.538  43.828   2.281
32911W        W96679  14.268  15.258  10.971
32912W        W96680  38.995  23.053  14.277
32913W        W96681   2.453   4.780   4.326
32914W        W96682  25.651  24.227   0.479
32915W        W96683  33.078  42.919   4.316
32916W        W96684  42.519  18.252  14.379
32917W        W96685  24.106  31.525  13.930
32918W        W96686  27.623  29.660  14.831
32919W        W96687  31.480  17.641  12.062
32920W        W96688   6.785  34.427  13.337
32921W        W96689  35.421  13.839   3.679
32922W        W96690  25.628  44.410  12.838
32923W        W96691  12.341  31.984  11.562
32924W        W96692   3.800  41.514   3.344
32925W        W96693   0.873   5.809  11.549
32926W        W96694  39.409  27.071   0.772
32927W        W96695  17.192  33.013  13.957
32928W        W96696  20.673   5.809  13.445
32929W        W96697  35.087  42.030   1.444
32930W        W96698  33.525  20.162  11.857
32931W        W96699  44.296  26.667  12.855
32932W        W96700  20.226  44.896   0.737
32933W        W96701  32.067  10.645  11.535
32934W        W96702  22.251   5.774  13.860
32935W        W96703  20.587   8.324  14.999
32936W        W96704  22.105  39.042   0.922
32937W        W96705  41.334  26.547  11.075
32938W        W96706  34.578   5.305   4.253
32939W        W96707  41.026  27.637   1.387
32940W        W96708  20.047  11.184  11.416
32941W        W96709  20.174  20.177  12.405
32942W        W96710  38.852  26.663   1.313
32943W        W96711  26.553  16.317   3.380
32944W        W96712  39.923  31.562  14.964
32945W        W96713  33.439  10.637   2.279
32946W        W96714   0.416  36.457   3.677
32947W        W96715  30.612  20.620   2.284
32948W        W96716  21.568  14.783   2.230
32949W        W96717   6.760  19.768  11.028
32950W        W96718   1.870   3.240  14.791
32951W        W96719  20.605   4.343  14.500
32952W        W96720  14.191  21.054   4.313
32953W        W96721   8.378  34.045   0.287
32954W        W96722  20.632  43.444   4.144
32955W        W96723   9.298   9.752   1.808
32956W        W96724  16.231  23.590  11.482
32957W        W96725   3.732   5.285  13.457
32958W        W96726   0.810  44.804   4.114
32959W        W96727  16.718   6.783  13.310
32960W        W96728  21.049  22.186   0.825
32961W        W96729  43.994   7.312   0.285
32962W        W96730  11.823   3.399   3.786
32963W        W96731  20.652   3.357  12.914
32964W        W96732  42.020   2.852   0.760
32965W        W96733   3.417  13.141  10.943
32966W        W96734  10.295  35.461   3.730
32967W        W96735  23.664  34.947  14.365
32968W        W96736  27.948  38.351   3.845
32969W        W96737  42.779   4.222  12.974
32970W        W96738  41.415   9.289  12.407
32971W        W96739   9.274  40.845  14.826
32972W        W96740  22.193  16.312  14.453
32973W        W96741  42.431   0.847  14.782
32974W        W96742  18.114  14.288  10.574
32975W        W96743   7.242  17.566   1.227
32976W        W96744  26.092  39.321   2.357
32977W        W96745  27.500   9.343   3.747
32978W        W96746  22.165  13.834  10.160
32979W        W96747   4.717  42.434  10.539
32980W        W96748  42.815  35.483   2.229
32981W        W96749  12.620   9.358  13.869
32982W        W96750  12.139  41.499   2.851
32983W        W96751  38.381   8.763   5.155
32984W        W96752  42.294   9.838   4.350
32985W        W96753  16.609  25.060  12.558
32986W        W96754  38.521  13.719   2.305
32987W        W96755  35.078  24.689   1.370
32988W        W96756  41.299  25.183  10.941
32989W        W96757   5.332   6.199  11.928
32990W        W96758  43.904  43.929  11.571
32991W        W96759  37.336   2.893   4.721
32992W        W96760  27.689  15.179   4.706
32993W        W96761  35.982  23.658  10.546
32994W        W96762  25.001  29.540   1.410
32995W        W96763  26.002  24.039  14.312
32996W        W96764  19.195  38.013  11.911
32997W        W96765  29.474  32.032  14.893
32998W        W96766   4.732  41.300   3.257
32999W        W96767  12.185  10.320   1.274
33000W        W96768   4.781  24.508  13.890
33001W        W96769  13.693   0.853  12.067
33002W        W96770   3.770  11.321   2.314
33003W        W96771  43.331  36.097   1.762
33004W        W96772  20.173  17.630  13.399
33005W        W96773   5.363  27.135   4.152
33006W        W96774   1.396  41.982   0.360
33007W        W96775  41.434  26.500   1.435
33008W        W96776  17.633  30.107  14.382
33009W        W96777  31.547   5.439  12.927
33010W        W96778   5.259  38.504  12.494
33011W        W96779  11.650  27.094  11.025
33012W        W96780  44.499   4.734   3.741
33013W        W96781   3.839   7.215   2.327
33014W        W96782  29.934   4.888  12.561
33015W        W96783  16.753  19.633  12.521
33016W        W96784  15.636   4.706   0.362
33017W        W96785  31.093  25.210  10.998
33018W        W96786   3.726  24.670  11.382
33019W        W96787   6.339  36.037  14.935
33020W        W96788  23.677  41.960  13.816
33021W        W96789   2.864  40.342  11.897
33022W        W96790  10.839  22.119  10.541
33023W        W96791  21.521  16.599   4.792
33024W        W96792   1.747  34.961   2.691
33025W        W96793  13.181  13.704   4.754
33026W        W96794  20.080  17.603   1.402
33027W        W96795  34.053  38.002  11.872
33028W        W96796  15.762   7.351   3.280
33029W        W96797  20.767   6.883   4.639
33030W        W96798  43.879  35.046  13.476
33031W        W96799  29.615   2.265   1.424
33032W        W96800  30.646  26.059   1.248
33033W        W96801  37.870   7.891  12.027
33034W        W96802  19.637  32.999   4.248
33035W        W96803  30.511  17.227  10.977
33036W        W96804  17.714   1.910  12.408
33037W        W96805   5.404  34.456  13.323
33038W        W96806   3.400  10.305   0.927
33039W        W96807  29.497  30.156  13.380
33040W        W96808  39.326  41.527  12.578
33041W        W96809   7.825  39.482  12.547
33042W        W96810   4.308  39.877  14.962
33043W        W96811  28.045  25.533  13.035
33044W        W96812  42.374   7.218   4.192
33045W        W96813  34.071  31.418  11.942
33046W        W96814  36.468  21.188   1.728
33047W        W96815  41.384  31.411   4.187
33048W        W96816  39.008  14.690   4.233
33049W        W96817  42.919  30.048  13.824
33050W        W96818  27.577  12.123  10.957
33051W        W96819  42.338  18.596   0.829
33052W        W96820  32.551  33.435  10.576
33053W        W96821  37.518  25.582   2.269
33054W        W96822  17.769  20.266  14.922
33055W        W96823  19.750  43.509  14.006
33056W        W96824   6.680  33.614  13.451
33057W        W96825  10.639   6.910   3.684
33058W        W96826  10.334   5.809   1.317
33059W        W96827  21.739   2.411   0.373
33060W        W96828  17.657  14.230  12.958
33061W        W96829  12.324  12.716   4.709
33062W        W96830   1.311  41.952  13.398
33063W        W96831  15.744  21.700   0.857
33064W        W96832  41.873  30.618   5.308
33065W        W96833  37.452  14.679  10.608
33066W        W96834  19.062  21.631   0.875
33067W        W96835  38.490  18.614  14.807
33068W        W96836  28.075  27.458  11.495
33069W        W96837  18.705   0.333   4.673
33070W        W96838  38.502  26.167  11.981
33071W        W96839  33.003  12.348   1.726
33072W        W96840   8.387  33.435   0.833
33073W        W96841  36.889  14.655   4.666
33074W        W96842   8.242  24.638  13.841
33075W        W96843  27.072   8.738  14.307
33076W        W96844  16.657  24.672   3.355
33077W        W96845  16.591  34.065   4.164
33078W        W96846  29.595   6.738  14.420
33079W        W96847  14.833  24.208   1.297
33080W        W96848   0.310   3.240   5.146
33081W        W96849  44.860   1.382   1.817
33082W        W96850   7.280  11.666  14.818
33083W        W96851  17.664   6.912  13.017
33084W        W96852  15.733   3.296   4.182
33085W        W96853  28.656  30.957  12.399
33086W        W96854  20.591   5.278   2.726
33087W        W96855  11.829  19.561   5.201
33088W        W96856  28.159  24.118  11.988
33089W        W96857  21.249   6.794   1.361
33090W        W96858   4.279  25.520  14.377
33091W        W96859  27.162  34.868   3.312
33092W        W96860  40.867  38.476  10.520
33093W        W96861  22.242  33.021   2.306
33094W        W96862  35.381  28.486   4.787
33095W        W96863  16.258  41.798  10.531
33096W        W96864  18.113  23.985   2.681
33097W        W96865  30.547  16.084   2.803
33098W        W96866  22.217  15.819  11.982
33099W        W96867  24.628  39.972  12.367
33100W        W96868  16.676  39.464  12.385
33101W        W96869  44.290  24.716   4.308
33102W        W96870  25.966   4.876   3.352
33103W        W96871  18.568  42.839   4.748
33104W        W96872   5.298   3.816  12.866
33105W        W96873  37.978  13.246   0.277
33106W        W96874  37.908  11.255  12.874
33107W        W96875   3.238  18.276   3.196
33108W        W96876   1.758  16.772  11.878
33109W        W96877  35.557  37.478   1.422
33110W        W96878   5.300  25.092   0.343
33111W        W96879  19.263  27.451  11.568
33112W        W96880  31.450  27.190   3.202
33113W        W96881  41.880  31.128   4.268
33114W        W96882   9.702  13.279   1.861
33115W        W96883   2.448   4.305  13.309
33116W        W96884  30.628   3.913   0.351
33117W        W96885  37.014  24.147  12.502
33118W        W96886  14.696   6.274   3.336
33119W        W96887  44.397  14.123  12.369
33120W        W96888  35.981  23.672  14.994
33121W        W96889  19.077  30.998  14.790
33122W        W96890  21.092  10.341  13.018
33123W        W96891  35.996  10.835  12.869
33124W        W96892   6.359   2.411   4.642
33125W        W96893  27.475  28.588   2.715
33126W        W96894   6.284  43.002   1.920
33127W        W96895  35.032  22.149   1.331
33128W        W96896  35.095   8.300  13.957
33129W        W96897  43.823  32.596  14.515
33130W        W96898  11.140  44.968   4.250
33131W        W96899  43.493  41.507  14.478
33132W        W96900  19.274   9.272  11.384
33133W        W96901   3.796  26.091   4.778
33134W        W96902  20.262  37.857   0.966
33135W        W96903  27.516  19.778   0.734
33136W        W96904  18.694  38.918   3.828
33137W        W96905   0.247   0.404  12.456
33138W        W96906  36.578   4.289   1.833
33139W        W96907  39.987  25.994   1.773
33140W        W96908  13.743  29.935   4.282
33141W        W96909  20.645  21.652   0.330
33142W        W96910  29.130  23.497  11.038
33143W        W96911   9.166  43.978  14.422
33144W        W96912   6.392   2.866  14.378
33145W        W96913  29.039  26.478  14.779
33146W        W96914  31.607  17.151   1.315
33147W        W96915  39.558  18.633   1.920
33148W        W96916  25.067  25.526  14.947
33149W        W96917  40.976  10.841   1.800
33150W        W96918  15.599  36.095   4.267
33151W        W96919  17.269   2.928   1.759
33152W        W96920   1.301   0.823  14.513
33153W        W96921  37.979  16.293  14.830
33154W        W96922   2.833  37.055   2.227
33155W        W96923   1.384  38.025   2.702
33156W        W96924   0.831  10.231  12.384
33157W        W96925  12.330  11.621  11.071
33158W        W96926  16.657  27.149  10.501
33159W        W96927   6.362   3.359  14.924
33160W        W96928  16.681  24.537   2.320
33161W        W96929  12.718  23.629   2.782
33162W        W96930  31.442  24.706   0.477
33163W        W96931   2.454  21.193  13.308
33164W        W96932   1.264  38.843  12.567
33165W        W96933  15.248  33.003  13.895
33166W        W96934  13.734  25.965  12.516
33167W        W96935  41.410  35.886   1.787
33168W        W96936   4.854   6.799  11.102
33169W        W96937  26.483   4.821   3.644
33170W        W96938  38.838  35.104  14.498
33171W        W96939  11.785   8.654  14.450
33172W        W96940  23.731  15.170   2.797
33173W        W96941  19.602  14.614   1.296
33174W        W96942  35.935  26.473   2.787
33175W        W96943   2.829  38.934   0.967
33176W        W96944  41.019  26.596  11.392
33177W        W96945  38.058  33.993  14.932
33178W        W96946  15.740   4.787   1.276
33179W        W96947   7.365  38.538  14.441
33180W        W96948   2.741  37.991   5.662
33181W        W96949  15.619   9.651  14.370
33182W        W96950  25.613  35.481  11.518
33183W        W96951  36.879  14.676   3.372
33184W        W96952   3.867  33.068   1.367
33185W        W96953  41.971  12.731   4.282
33186W        W96954  19.210   7.277  13.326
33187W        W96955  14.689  11.242  10.555
33188W        W96956  24.055  39.022  10.414
33189W        W96957  13.272  21.092  11.994
33190W        W96958  14.666   0.262   4.265
33191W        W96959  22.594  38.502  10.556
33192W        W96960  40.003  11.624   2.217
33193W        W96961  33.431   6.187  13.884
33194W        W96962  13.347   0.403  13.872
33195W        W96963  12.612  17.214  12.887
33196W        W96964  30.510  44.480   1.810
33197W        W96965  22.512  10.809   0.734
33198W        W96966  32.510  39.984   4.229
33199W        W96967  14.699  18.082  10.999
33200W        W96968  10.266   4.246   2.247
33201W        W96969  24.597   0.274   4.318
33202W        W96970  35.517   2.872  13.806
33203W        W96971  32.602  17.728   2.327
33204W        W96972   9.299  36.508  10.936
33205W        W96973  11.700   3.919   1.793
33206W        W96974  38.395  28.477   1.776
33207W        W96975   8.836  24.196  14.421
33208W        W96976  15.765  28.447  11.468
33209W        W96977  43.009  24.119   1.898
33210W        W96978  23.002  30.438   2.330
33211W        W96979  36.492   3.453  12.364
33212W        W96980   6.735  20.581   2.829
33213W        W96981   0.791  16.713   3.652
33214W        W96982  13.307  33.971  11.568
33215W        W96983  17.219  15.630   1.803
33216W        W96984  15.198  32.527  13.355
33217W        W96985  40.404  28.044  13.420
33218W        W96986  40.546  13.279   5.090
33219W        W96987  29.577  35.368  14.933
33220W        W96988  27.610  37.413   2.817
33221W        W96989  12.260  10.708  10.144
33222W        W96990  23.554  41.829  14.459
33223W        W96991  39.417  23.713   0.475
33224W        W96992  12.296  22.542  12.868
33225W        W96993  16.802   9.282  13.907
33226W        W96994  35.503  30.525   1.819
33227W        W96995  26.189  21.582   3.751
33228W        W96996  32.530  41.293  12.941
33229W        W96997  14.115  36.076  11.572
33230W        W96998  28.666  20.565   4.129
33231W        W96999  15.173  40.883  14.352
33232W        W97000  21.257  14.188  11.059
33233W        W97001  31.975   4.226  14.317
33234W        W97002  10.733  24.492  11.915
33235W        W97003  13.648  12.775   2.229
33236W        W97004  20.601  43.481  11.471
33237W        W97005   7.784  18.193  12.449
33238W        W97006  38.042  16.801   1.777
33239W        W97007  33.434  25.178   0.376
33240W        W97008  26.176  36.957   2.851
33241W        W97009  18.136   3.348  12.936
33242W        W97010   5.780  36.970   0.829
33243W        W97011  35.891  38.988   1.846
33244W        W97012  34.424  20.245   4.715
33245W        W97013  25.136  31.536  10.586
33246W        W97014  13.279  23.221  14.865
33247W        W97015  22.068  30.954  13.911
33248W        W97016  12.250   2.362  13.481
33249W        W97017  12.243  29.611   4.731
33250W        W97018  26.497  14.265  14.972
33251W        W97019  13.349   1.459  14.015
33252W        W97020  28.535  15.655  12.882
33253W        W97021  43.495  14.596   2.761
33254W        W97022  31.639  28.445   2.414
33255W        W97023  18.232   4.938  14.769
33256W        W97024   8.854  33.011   4.668
33257W        W97025  18.626  17.572  11.458
33258W        W97026   6.682   4.866  13.799
33259W        W97027   3.428  24.704   0.247
33260W        W97028  15.608  38.394  12.892
33261W        W97029  20.124  25.125  13.811
33262W        W97030  20.064  19.539  13.371
33263W        W97031  33.519  36.386  13.330
33264W        W97032   2.326   2.423   3.658
33265W        W97033  21.613  13.255  12.428
33266W        W97034  39.922  20.578   2.785
33267W        W97035  26.578   0.900  14.416
33268W        W97036   9.751  31.483   2.241
33269W        W97037   3.241   8.694  13.952
33270W        W97038   0.350  42.998   2.761
33271W        W97039  28.942  28.968   0.405
33272W        W97040  44.772  14.758   0.298
33273W        W97041  38.506  42.520  13.365
33274W        W97042  28.178  15.122   1.251
33275W        W97043   3.409   0.349  14.463
33276W        W97044  16.744  16.734   1.853
33277W        W97045   9.197  15.626  13.476
33278W        W97046   5.249  23.619  10.616
33279W        W97047   7.340  38.529  11.858
33280W        W97048  18.693  11.717  14.494
33281W        W97049   1.405  34.909  14.426
33282W        W97050   4.710  34.083  13.359
33283W        W97051  27.500  19.285   3.840
33284W        W97052  19.263   6.821  14.025
33285W        W97053   8.361   3.254  11.602
33286W        W97054  19.149  13.234  14.274
33287W        W97055   8.348  19.647   3.658
33288W        W97056  23.117  19.587   2.887
33289W        W97057  43.798   1.763  10.973
33290W        W97058  32.543  21.551  14.303
33291W        W97059  31.505   7.889  10.625
33292W        W97060  37.994  37.575  12.082
33293W        W97061   1.374   2.743   1.896
33294W        W97062  21.091  29.079  10.474
33295W        W97063  25.696   3.720   4.219
33296W        W97064  28.446  27.013  10.907
33297W        W97065  29.947   8.711  10.532
33298W        W97066  28.975  16.202  13.393
33299W        W97067  41.471  30.530   4.754
33300W        W97068  14.335  18.632  11.932
33301W        W97069  38.832  35.580  13.869
33302W        W97070  18.583   3.941  14.276
33303W        W97071  43.378  24.042   2.306
33304W        W97072  34.475  10.325  11.544
33305W        W97073  16.276  19.228  11.993
33306W        W97074  11.224  12.720  14.455
33307W        W97075  30.487   0.444   1.717
33308W        W97076  21.578   8.233  12.957
33309W        W97077  21.563  35.377  13.939
33310W        W97078  20.040  38.959  12.410
33311W        W97079  37.468   5.890   0.384
33312W        W97080   4.429  11.269  13.344
33313W        W97081  14.788  25.486  11.371
33314W        W97082  13.673  23.539   0.265
33315W        W97083  32.581  37.488  13.830
33316W        W97084  41.020  20.558   2.681
33317W        W97085   1.474  38.902   4.747
33318W        W97086  25.709  28.542   2.822
33319W        W97087  34.908  20.191   0.938
33320W        W97088  27.985  19.695   2.663
33321W        W97089  16.181  35.384   1.325
33322W        W97090  11.842  13.219   0.376
33323W        W97091  26.464  30.000  11.452
33324W        W97092  16.678  41.338  14.981
33325W        W97093  43.477  16.792  12.356
33326W        W97094  27.607  25.122  12.949
33327W        W97095  39.994   6.276   3.203
33328W        W97096  35.972  37.563   3.668
33329W        W97097  10.383  10.693  12.074
33330W        W97098  23.498  12.649  12.507
33331W        W97099   0.275  40.048   4.789
33332W        W97100   3.874  21.240   0.330
33333W        W97101  28.663  31.497  10.629
33334W        W97102  11.859  38.072  13.973
33335W        W97103   9.246  38.860  11.553
33336W        W97104  43.381  14.120   2.865
33337W        W97105  43.008   9.287   2.689
33338W        W97106  31.566  23.538   4.289
33339W        W97107  39.848  30.573  11.081
33340W        W97108   2.248  41.433  12.884
33341W        W97109  30.128  20.055   4.764
33342W        W97110  28.087  11.796  13.337
33343W        W97111  24.656  40.505  10.451
33344W        W97112  26.536  22.144  12.515
33345W        W97113  12.267   2.809  14.432
33346W        W97114  13.779   9.270  13.888
33347W        W97115  35.546   4.784  12.972
33348W        W97116  34.514  20.673  12.985
33349W        W97117  33.577  14.103   0.831
33350W        W97118  11.696   4.440  12.870
33351W        W97119  36.442  35.383   3.846
33352W        W97120   4.371  24.632   0.934
33353W        W97121  17.610  44.822  11.989
33354W        W97122   2.897  17.663  14.895
33355W        W97123   0.481  38.820   9.960
33356W        W97124  33.428  15.775   2.228
33357W        W97125  41.904  32.440   2.845
33358W        W97126  42.292  36.474   3.341
33359W        W97127  33.383  34.988   5.133
33360W        W97128   9.318  31.413   2.222
33361W        W97129  22.705  36.467  11.068
33362W        W97130  43.344  41.308   3.751
33363W        W97131  32.521  16.634   2.824
33364W        W97132  22.542   7.295  13.812
33365W        W97133  44.273   6.809   4.238
33366W        W97134  25.191   6.688   1.286
33367W        W97135  23.714  33.011   3.755
33368W        W97136  11.309  44.772   3.868
33369W        W97137  29.047   3.266  13.015
33370W        W97138  10.684  29.945  13.459
33371W        W97139  11.128  18.700  12.012
33372W        W97140  44.386   4.853   4.798
33373W        W97141  26.174  14.163   0.946
33374W        W97142  34.458  23.150  13.025
33375W        W97143   7.367  19.774  10.970
33376W        W97144  41.445  11.252   3.734
33377W        W97145   3.287   3.457  13.015
33378W        W97146   9.756  17.792   2.302
33379W        W97147  21.725  42.849   0.439
33380W        W97148  27.609   3.867  10.934
33381W        W97149  24.171  15.122   1.922
33382W        W97150  27.029  21.181   2.833
33383W        W97151  27.180   5.743   4.304
33384W        W97152   3.761  20.240   4.744
33385W        W97153  35.076   7.750   1.328
33386W        W97154   5.351   1.424  14.302
33387W        W97155   4.337  29.045  13.803
33388W        W97156  26.027  29.621  11.993
33389W        W97157   3.318  39.852   2.297
33390W        W97158  17.704  42.871  10.982
33391W        W97159  22.667  28.131  12.974
33392W        W97160  28.989  41.834  12.992
33393W        W97161  17.568  19.085  12.470
33394W        W97162  36.865   3.334   3.377
33395W        W97163  20.028  38.012   2.710
33396W        W97164  12.148  12.278  11.589
33397W        W97165   1.261  30.603   1.828
33398W        W97166  40.486  35.873   4.644
33399W        W97167  37.853  10.686  12.899
33400W        W97168  40.434  34.987   1.290
33401W        W97169  30.027  13.259   2.721
33402W        W97170  28.093  37.934  10.159
33403W        W97171  12.218  38.505   2.664
33404W        W97172  23.528  42.794  14.829
33405W        W97173  19.697  44.274   3.634
33406W        W97174  10.773   8.226   0.373
33407W        W97175   9.786  10.679  11.125
33408W        W97176  44.849  32.555  14.767
33409W        W97177  41.424  43.342  13.535
33410W        W97178  19.041  28.449  11.403
33411W        W97179  35.984  23.598  13.330
33412W        W97180  38.567  15.230  14.475
33413W        W97181  34.049  32.436  10.595
33414W        W97182  42.455  37.457  11.455
33415W        W97183  10.213  16.201   0.279
33416W        W97184  16.183   4.711  13.953
33417W        W97185  36.084  15.132  13.929
33418W        W97186   1.426  38.021  11.390
33419W        W97187  36.431  14.095   1.806
33420W        W97188   7.752  19.754   4.656
33421W        W97189  11.760  21.641  11.919
33422W        W97190  40.543  31.647  11.902
33423W        W97191  33.101  15.815   4.320
33424W        W97192  18.733  11.851  10.587
33425W        W97193  32.444   5.264  12.970
33426W        W97194  39.321   9.229  11.004
33427W        W97195  41.515   4.897  13.471
33428W        W97196  16.578  34.082   0.251
33429W        W97197  29.571  14.305  12.867
33430W        W97198  16.181  35.057   2.786
33431W        W97199   1.269  11.302   1.338
33432W        W97200  15.729  13.218  13.330
33433W        W97201  15.708   8.219   1.824
33434W        W97202   8.813  22.107  11.472
33435W        W97203  39.813  40.512  12.400
33436W        W97204   3.720  43.934  10.900
33437W        W97205   4.424  37.346   2.363
33438W        W97206  28.996  38.510   3.150
33439W        W97207   7.904  40.851  14.479
33440W        W97208  38.349  35.036  14.456
33441W        W97209  29.098  29.035  14.384
33442W        W97210  38.460   1.969  11.520
33443W        W97211  40.935  44.280   3.254
33444W        W97212   4.780  10.248   2.385
33445W        W97213  25.685  20.168   4.153
33446W        W97214  18.171  27.615   2.401
33447W        W97215  35.087  11.676  12.911
33448W        W97216  11.320   9.651  13.345
33449W        W97217  27.128   7.895  13.900
33450W        W97218  10.839  10.825  13.912
33451W        W97219  15.132  40.491   3.719
33452W        W97220  17.687   3.275   3.363
33453W        W97221  21.610  28.070   3.313
33454W        W97222  17.638  20.256   5.190
33455W        W97223  19.116   8.372  11.909
33456W        W97224  33.017  15.660  11.393
33457W        W97225  37.529  21.517  12.533
33458W        W97226  27.125   9.718   3.819
33459W        W97227  31.091  23.659  14.281
33460W        W97228  29.665  26.630  14.811
33461W        W97229  39.059  28.944   3.814
33462W        W97230   4.750   5.375   4.262
33463W        W97231  25.696  20.725   2.712
33464W        W97232  44.266  34.591   3.630
33465W        W97233   6.871   6.712   4.181
33466W        W97234  21.196  31.527   1.719
33467W        W97235  13.290  41.988  14.480
33468W        W97236  15.218  17.555   3.828
33469W        W97237  25.475   2.271  10.536
33470W        W97238  34.033  39.982  10.494
33471W        W97239  42.364   9.286   1.423
33472W        W97240  10.176  32.418   0.753
33473W        W97241   0.876  18.248   0.332
33474W        W97242  16.735  34.465   3.664
33475W        W97243  22.021  14.320  10.567
33476W        W97244   0.261  31.112   3.852
33477W        W97245  42.378  29.125  14.816
33478W        W97246  26.056  28.987  12.923
33479W        W97247  40.034  39.006  12.881
33480W        W97248  44.270   2.260   1.442
33481W        W97249  41.410  43.361   2.411
33482W        W97250  16.205  20.566  12.914
33483W        W97251  21.047  24.205   5.125
33484W        W97252  35.533  26.077  11.096
33485W        W97253  20.202  15.698   1.273
33486W        W97254   4.721  30.431   2.898
33487W        W97255  20.240  32.547   2.248
33488W        W97256  28.167  12.185   2.726
33489W        W97257   4.724   7.384   0.829
33490W        W97258  28.521  33.037   4.835
33491W        W97259  20.611   4.876  14.513
33492W        W97260  10.785  10.175  11.964
33493W        W97261  22.605  24.553  11.056
33494W        W97262  43.467  21.207  14.838
33495W        W97263  30.513  23.159   1.888
33496W        W97264  28.541  18.091   3.696
33497W        W97265   9.222  39.944  11.093
33498W        W97266  30.912  14.677  10.536
33499W        W97267  11.711   2.256  12.053
33500W        W97268   8.660  26.644  14.449
33501W        W97269  38.362  22.193  11.066
33502W        W97270   1.277  42.996  13.421
33503W        W97271  29.937  33.102  14.916
33504W        W97272  35.079  30.930   2.872
33505W        W97273  24.156  33.045   2.668
33506W        W97274  30.079  21.726  11.999
33507W        W97275  40.974   4.856  13.428
33508W        W97276  23.027  25.100  10.897
33509W        W97277  20.260  28.636  13.939
33510W        W97278  28.105  11.273   5.788
33511W        W97279  39.518  21.594   3.730
33512W        W97280  17.650  32.919  13.877
33513W        W97281  24.510  14.146   3.182
33514W        W97282   9.245  44.802  13.935
33515W        W97283  18.777  12.825   2.866
33516W        W97284   7.851  42.010   4.657
33517W        W97285  24.122  40.424   2.667
33518W        W97286  31.402  43.805   2.826
33519W        W97287  41.864  29.531   1.874
33520W        W97288  26.002  37.354  14.341
33521W        W97289  26.577  22.580   3.841
33522W        W97290  15.267  16.607  10.111
33523W        W97291  11.228   2.844  10.921
33524W        W97292  10.698   2.892   4.218
33525W        W97293  20.524  32.996  13.828
33526W        W97294  16.782  10.729  12.470
33527W        W97295  12.224  27.632   3.861
33528W        W97296  18.580  43.895   1.406
33529W        W97297  43.906  24.614  13.966
33530W        W97298  42.318  35.031   1.424
33531W        W97299   3.851  32.410  13.882
33532W        W97300   1.388  32.529   3.839
33533W        W97301  18.265  28.120  12.483
33534W        W97302  18.171  29.645  12.989
33535W        W97303  26.688   3.424   5.100
33536W        W97304  25.139  30.143   0.766
33537W        W97305  20.163  29.001  12.059
33538W        W97306  27.645  41.007  11.584
33539W        W97307  28.031  41.890   4.275
33540W        W97308  23.196   6.242   4.342
33541W        W97309  10.288  44.965   3.792
33542W        W97310  32.017  41.023   2.269
33543W        W97311  18.060   1.768   4.199
33544W        W97312  22.099  22.743   3.787
33545W        W97313  41.514  23.213   3.248
33546W        W97314  10.329  33.467   4.121
33547W        W97315  20.137  32.977   0.886
33548W        W97316  11.368  13.695  14.297
33549W        W97317  34.022  44.439   4.340
33550W        W97318  43.826   5.394   4.819
33551W        W97319  34.093  10.790   0.244
33552W        W97320  31.492  14.216   2.739
33553W        W97321  22.144   7.374  11.501
33554W        W97322  13.773  38.902  14.462
33555W        W97323   8.263  36.035   1.249
33556W        W97324   3.835   9.312   4.188
33557W        W97325  19.747  15.138  13.853
33558W        W97326  10.778  40.922   0.770
33559W        W97327  44.870  30.029  13.339
33560W        W97328   5.253  22.106  10.912
33561W        W97329  43.967  32.436  13.824
33562W        W97330  15.176  38.404   0.863
33563W        W97331   0.481  26.563  11.041
33564W        W97332   6.702  13.791   3.272
33565W        W97333  29.122  25.033  12.490
33566W        W97334  39.969  26.025   4.336
33567W        W97335  32.492  31.070   1.783
33568W        W97336  27.638  17.236  11.557
33569W        W97337  20.615  17.633   4.196
33570W        W97338  18.123  15.211   0.467
33571W        W97339  38.054  34.495  12.086
33572W        W97340  42.818  11.774   2.299
33573W        W97341  43.899   8.279  10.512
33574W        W97342  23.587  39.058   0.742
33575W        W97343  37.045   9.752  12.372
33576W        W97344  19.240  14.211  13.460
33577W        W97345  39.491  39.062  13.855
33578W        W97346   5.261   4.914   4.653
33579W        W97347  25.569  35.055  14.762
33580W        W97348  35.108  39.049  11.005
33581W        W97349  29.645  11.160  13.490
33582W        W97350  17.295  35.962   2.738
33583W        W97351  26.955  11.301   3.273
33584W        W97352  30.582  30.518  12.482
33585W        W97353  32.490   4.892  12.558
33586W        W97354  20.609  40.348   0.810
33587W        W97355  27.948  17.194  11.027
33588W        W97356  37.980  13.649   1.356
33589W        W97357   1.364  42.455   3.832
33590W        W97358  25.563  32.927   0.457
33591W        W97359  32.020  34.922  11.446
33592W        W97360  11.742  30.032   0.780
33593W        W97361  32.542   1.851   4.598
33594W        W97362   0.875  12.245   3.784
33595W        W97363  31.542  41.024  10.543
33596W        W97364  24.051  42.792  10.549
33597W        W97365  33.960  38.538   4.767
33598W        W97366  32.441   4.845  14.461
33599W        W97367  36.448  22.249  12.487
33600W        W97368  42.880   3.267   0.736
33601W        W97369  11.813   7.675  14.772
33602W        W97370  17.136  24.507   3.782
33603W        W97371  40.917  11.166  13.471
33604W        W97372  26.983  29.638   0.953
33605W        W97373  30.516  16.759  12.981
33606W        W97374  30.595  43.811  12.059
33607W        W97375  36.439  23.174   1.308
33608W        W97376  26.627  41.925  13.825
33609W        W97377  24.125  33.508   0.468
33610W        W97378  31.052  43.495   0.815
33611W        W97379  31.994   6.367   1.395
33612W        W97380  16.692  35.927  10.445
33613W        W97381  36.875   7.694  14.395
33614W        W97382  30.511  37.839  11.112
33615W        W97383  11.729  14.638  12.081
33616W        W97384  17.584  11.254   0.770
33617W        W97385  26.017  38.971  11.427
33618W        W97386  13.251  43.506  12.884
33619W        W97387  38.500  10.307   0.283
33620W        W97388   9.669  36.873   1.248
33621W        W97389  32.456  24.010  12.362
33622W        W97390  12.805  30.046  12.908
33623W        W97391   4.884  14.799   0.967
33624W        W97392  26.107  22.627   1.287
33625W        W97393  35.902  11.665  14.784
33626W        W97394  33.527  39.989   1.820
33627W        W97395   7.283   9.746  13.863
33628W        W97396  44.267   3.925   3.304
33629W        W97397  21.614  20.639  14.026
33630W        W97398  15.720  25.645  10.999
33631W        W97399  44.879  34.886   2.217
33632W        W97400  31.628  35.513   4.183
33633W        W97401  28.549  40.907   1.341
33634W        W97402  17.261  25.093  13.053
33635W        W97403   6.382   4.767   0.318
33636W        W97404  19.746  15.159  12.896
33637W        W97405  42.364   2.855  13.401
33638W        W97406  26.143  17.581   4.772
33639W        W97407  30.615  37.494   4.291
33640W        W97408  39.878   7.281   1.265
33641W        W97409  34.890   5.349  12.038
33642W        W97410  16.200  26.094  14.326
33643W        W97411  18.545  43.300  12.927
33644W        W97412  19.684  12.672  11.076
33645W        W97413  14.637  21.090   0.758
33646W        W97414  43.280  20.580  14.776
33647W        W97415   9.352  10.738  11.496
33648W        W97416  34.874   4.778  14.372
33649W        W97417  30.125  29.072  12.353
33650W        W97418  32.044  33.001  13.845
33651W        W97419  31.026  25.089   4.661
33652W        W97420   2.297  14.281  12.518
33653W        W97421  11.731  22.587  10.971
33654W        W97422  33.577   9.315   3.187
33655W        W97423  33.433  31.448   1.737
33656W        W97424   1.254   7.910  12.988
33657W        W97425   3.831  34.094   4.724
33658W        W97426  40.962  38.455   0.447
33659W        W97427  26.493   2.256  10.539
33660W        W97428  43.426  19.621   4.834
33661W        W97429   2.777   2.459  13.394
33662W        W97430  27.601  38.450  12.054
33663W        W97431  19.556  39.874   0.930
33664W        W97432  35.398  42.779   0.963
33665W        W97433   5.835  13.681  10.644
33666W        W97434  23.027  29.453  11.563
33667W        W97435  27.472  10.804   1.770
33668W        W97436   9.687  28.070   0.339
33669W        W97437  26.627   2.227  13.328
33670W        W97438  23.137   1.839   1.803
33671W        W97439  17.556  35.507  14.799
33672W        W97440  28.501   6.384  13.453
33673W        W97441  14.789  30.064  10.636
33674W        W97442  41.855  15.262   2.890
33675W        W97443  42.027  30.602  14.773
33676W        W97444  12.636  37.929   0.790
33677W        W97445  33.439  20.707   4.206
33678W        W97446  43.914  29.511   2.810
33679W        W97447   2.422  25.101  13.926
33680W        W97448  32.618  41.797  14.345
33681W        W97449  17.094   4.744  12.457
33682W        W97450  27.666  37.961   3.752
33683W        W97451  27.591   3.289  12.397
33684W        W97452  42.999  10.872   0.353
33685W        W97453  24.225  38.862  14.792
33686W        W97454  42.002   4.741   4.129
33687W        W97455   6.428  38.951   0.254
33688W        W97456  24.997  11.817  14.891
33689W        W97457  22.237   8.821  14.302
33690W        W97458  39.352  12.720   0.442
33691W        W97459  13.344   6.184  14.446
33692W        W97460  41.318   6.241   1.313
33693W        W97461  10.153   7.753  13.943
33694W        W97462   8.725  36.485  13.361
33695W        W97463  40.538  13.806   4.219
33696W        W97464  22.546  34.062  14.852
33697W        W97465  22.158  35.049   0.356
33698W        W97466   6.337  32.416  13.054
33699W        W97467  16.145   0.919  11.582
33700W        W97468  15.147   3.811   1.845
33701W        W97469   2.885  13.806  12.868
33702W        W97470  16.685  22.505   2.202
33703W        W97471   9.878  41.360  10.519
33704W        W97472  25.588  29.174   3.640
33705W        W97473  24.134   3.848  13.931
33706W        W97474  31.080  24.695   2.811
33707W        W97475   2.906  39.479   0.821
33708W        W97476  27.051  10.639  13.064
33709W        W97477  26.563  33.452   1.891
33710W        W97478  41.392  10.151  13.439
33711W        W97479  22.628   1.287  12.554
33712W        W97480   1.310   0.967  11.110
33713W        W97481  36.015  13.314   1.334
33714W        W97482  23.110   4.250  14.886
33715W        W97483  12.630   5.298  14.312
33716W        W97484  41.511  28.669   3.838
33717W        W97485  41.315  19.192   1.825
33718W        W97486  31.090  41.863   0.310
33719W        W97487   4.411  37.048   0.260
33720W        W97488  27.965  38.398   4.637
33721W        W97489   6.786  12.240   0.247
33722W        W97490   2.368  33.105   0.480
33723W        W97491  36.988  38.483   1.713
33724W        W97492  44.011  32.997  14.494
33725W        W97493   3.296  18.105   0.876
33726W        W97494  34.080  39.955   0.880
33727W        W97495  26.971  37.466  13.321
33728W        W97496  24.676  35.984   0.818
33729W        W97497  30.146  18.166   4.706
33730W        W97498  28.544   7.723  14.841
33731W        W97499  22.674  31.555  14.992
33732W        W97500  19.271  28.010   4.811
33733W        W97501  12.831   1.372  13.851
33734W        W97502  44.310   1.952  12.579
33735W        W97503  11.651  19.729  11.455
33736W        W97504   3.283  29.121   3.188
33737W        W97505  17.625  19.157   3.646
33738W        W97506  42.814   5.732  14.889
33739W        W97507  24.576  30.954  12.009
33740W        W97508  35.554  18.644   0.894
33741W        W97509  17.097   3.358   1.705
33742W        W97510  19.039   9.247   4.294
33743W        W97511  16.180  44.345   0.785
33744W        W97512   4.301  28.475   3.751
33745W        W97513  24.670  21.122  10.903
33746W        W97514  13.761  26.186   4.800
33747W        W97515  40.053  40.466  10.958
33748W        W97516  21.517  32.967  11.407
33749W        W97517  41.001  20.038  14.390
33750W        W97518   7.232  26.035   0.318
33751W        W97519  29.110  24.501  12.994
33752W        W97520  19.062  29.954  12.030
33753W        W97521   7.297  10.647   2.308
33754W        W97522  35.005  11.279   2.882
33755W        W97523  29.472  24.983   1.237
33756W        W97524  12.152  43.301  11.578
33757W        W97525   4.843  41.448   3.863
33758W        W97526  17.765  13.225  14.388
33759W        W97527  40.919  24.696  11.073
33760W        W97528  26.539  16.158  11.042
33761W        W97529  41.833  35.363  13.799
33762W        W97530  36.950   1.858   2.880
33763W        W97531  31.905  28.180   1.766
33764W        W97532  41.019   7.747  13.533
33765W        W97533   8.660  15.328  13.942
33766W        W97534  35.484  31.918   0.441
33767W        W97535  42.836  41.041   1.784
33768W        W97536  24.536  29.947  12.855
33769W        W97537  33.895  36.448  10.986
33770W        W97538   4.395  22.065   0.826
33771W        W97539  34.608   1.775  12.543
33772W        W97540  23.218   1.895  14.366
33773W        W97541  41.941   0.476  14.497
33774W        W97542  42.945  37.862   5.127
33775W        W97543  37.064  24.507   4.619
33776W        W97544  25.965  34.083  12.009
33777W        W97545  44.832  43.384   4.266
33778W        W97546  25.607  42.306   1.900
33779W        W97547  17.171  28.986  11.399
33780W        W97548  32.612  19.116   0.435
33781W        W97549  28.038  35.521  10.495
33782W        W97550   5.205  15.103  13.425
33783W        W97551  23.204  42.845   3.629
33784W        W97552   5.422  42.454   0.247
33785W        W97553  42.941  35.080  10.426
33786W        W97554  12.172  24.043  13.828
33787W        W97555  22.584   8.389   1.855
33788W        W97556   1.917  40.031   4.715
33789W        W97557  38.534  32.554   1.696
33790W        W97558   1.861  16.186  11.923
33791W        W97559   8.198  28.655   3.212
33792W        W97560  10.266  15.757  11.569
33793W        W97561  17.154  30.513  11.585
33794W        W97562  29.148   2.856  14.461
33795W        W97563   0.775  18.076   2.669
33796W        W97564  34.410  30.967   0.408
33797W        W97565  41.812  26.193   0.453
33798W        W97566  27.478   7.813   0.913
33799W        W97567   1.787  40.967   2.371
33800W        W97568  26.539  20.068  14.352
33801W        W97569  21.113   4.862   4.296
33802W        W97570  43.974  19.195  11.047
33803W        W97571  21.252  44.966  12.409
33804W        W97572  38.953  39.838  12.433
33805W        W97573  38.015  31.943   0.300
33806W        W97574  22.605   8.862   4.750
33807W        W97575  23.177  44.901  14.510
33808W        W97576   9.773  13.230   2.713
33809W        W97577   0.812   7.761  14.367
33810W        W97578  27.545  42.791  13.817
33811W        W97579  23.621   0.252   3.288
33812W        W97580  25.539   4.436   3.189
33813W        W97581  14.622  10.874  12.947
33814W        W97582  11.720  27.967  11.483
33815W        W97583  23.099   9.223  13.388
33816W        W97584  10.676  19.745   2.383
33817W        W97585  13.804  29.636   3.315
33818W        W97586  11.305  26.701   0.772
33819W        W97587  18.233  30.010  11.860
33820W        W97588  14.135  29.551   1.857
33821W        W97589  43.893   9.694   4.836
33822W        W97590   7.842  20.255  11.003
33823W        W97591  21.634  38.402  14.962
33824W        W97592   8.711  22.517   1.348
33825W        W97593  30.970   1.302   1.771
33826W        W97594  20.033  12.724   2.882
33827W        W97595   2.941  29.136   1.280
33828W        W97596  12.152   1.827   4.237
33829W        W97597  43.467  23.106   4.809
33830W        W97598   0.863  33.920  13.939
33831W        W97599  14.234  26.578  12.015
33832W        W97600  18.639  31.523   2.317
33833W        W97601   1.923  31.919   4.714
33834W        W97602   0.939  26.010   4.665
33835W        W97603  19.569  12.253   2.847
33836W        W97604  26.122  41.370  13.904
33837W        W97605   9.253   7.898  12.829
33838W        W97606  21.631  20.116   1.353
33839W        W97607  18.126   3.436   5.118
33840W        W97608  40.817  42.482   1.809
33841W        W97609  18.658  43.380  12.010
33842W        W97610  38.542   0.977  14.004
33843W        W97611  39.947  15.810   3.364
33844W        W97612  12.331  21.077  11.388
33845W        W97613  42.842  23.030   3.296
33846W        W97614  42.949  17.796  14.993
33847W        W97615   8.396  31.045   4.155
33848W        W97616  43.292  23.191   0.361
33849W        W97617  43.997  40.369   2.284
33850W        W97618   3.231  42.384   1.780
33851W        W97619  12.246  21.562   2.371
33852W        W97620  26.997  28.516   2.742
33853W        W97621  20.232  20.228   4.623
33854W        W97622  30.127  13.206  14.968
33855W        W97623  34.598   4.321   2.750
33856W        W97624  38.019  22.656   0.875
33857W        W97625  31.489  30.943  14.322
33858W        W97626  38.019  20.575   0.404
33859W        W97627  10.729  22.637  11.495
33860W        W97628  37.957  41.934   0.810
33861W        W97629  33.131  36.993  14.764
33862W        W97630  40.024   4.338  12.355
33863W        W97631  24.478   5.381   3.287
33864W        W97632  36.976  37.902  10.960
33865W        W97633  10.716  27.539  12.498
33866W        W97634  21.163  11.659   5.183
33867W        W97635  13.685   7.773   2.286
33868W        W97636  37.418  42.490  11.102
33869W        W97637   9.194   3.896   1.299
33870W        W97638  29.141  19.753  10.469
33871W        W97639   7.767  11.769   0.256
33872W        W97640   3.386  42.948   3.344
33873W        W97641  14.640   6.904   1.870
33874W        W97642   0.960  32.917  12.400
33875W        W97643  41.846  12.215  12.898
33876W        W97644   1.365  30.075  13.869
33877W        W97645  31.003  24.677   0.813
33878W        W97646  34.493  12.666   1.415
33879W        W97647  43.993  34.061  11.555
33880W        W97648   3.808  19.107  11.056
33881W        W97649  44.828  18.720  10.553
33882W        W97650  32.615   1.285  12.007
33883W        W97651  12.240  27.178   4.301
33884W        W97652  25.038  18.585   2.219
33885W        W97653  11.841  21.722  13.850
33886W        W97654  38.897  33.900  14.922
33887W        W97655   5.308  36.057  10.585
33888W        W97656   0.287  16.705   4.743
33889W        W97657   8.278  22.010  13.873
33890W        W97658   6.854  31.951  14.437
33891W        W97659  14.739  41.372  11.511
33892W        W97660  34.399  16.139   3.244
33893W        W97661  41.350   8.395  11.415
33894W        W97662  23.099  31.462   3.661
33895W        W97663   6.203  26.066  10.451
33896W        W97664  18.178  32.951  10.449
33897W        W97665  14.102  14.301  10.080
33898W        W97666   9.838   2.883   3.273
33899W        W97667  22.604   2.453   2.841
33900W        W97668   3.909  10.691  12.869
33901W        W97669  38.978   1.441  14.825
33902W        W97670   3.862  30.972   4.276
33903W        W97671  11.856  32.393   3.331
33904W        W97672  21.020   9.887   2.822
33905W        W97673  23.565  11.719  14.946
33906W        W97674   2.936  30.575  14.817
33907W        W97675   7.729  40.941  12.379
33908W        W97676  38.839  25.630   2.304
33909W        W97677  40.882  11.204   0.357
33910W        W97678  29.972  12.711  14.468
33911W        W97679  14.150  12.690   4.745
33912W        W97680  24.128  11.864  11.577
33913W        W97681  41.374  33.072   1.754
33914W        W97682  40.527  37.069  10.921
33915W        W97683  24.553  12.771  14.373
33916W        W97684  38.477  22.555  10.497
33917W        W97685  17.622  10.200   5.116
33918W        W97686  24.612  31.090   2.232
33919W        W97687   7.701  15.630   0.403
33920W        W97688  43.272  36.858  12.440
33921W        W97689  32.417  18.616  12.875
33922W        W97690  36.414   5.204   0.480
33923W        W97691  22.126  12.776   2.839
33924W        W97692  43.489  32.590  11.606
33925W        W97693   2.386   7.188  13.812
33926W        W97694   1.844   4.380  12.466
33927W        W97695   6.224  31.056   1.747
33928W        W97696   0.913  37.885  11.424
33929W        W97697   9.230  37.071  12.020
33930W        W97698  28.527  22.110  11.511
33931W        W97699  10.311  43.915  14.350
33932W        W97700  32.507   5.348   1.810
33933W        W97701   3.422  33.933   1.321
33934W        W97702  38.472   7.705   3.773
33935W        W97703  16.180  32.912   4.731
33936W        W97704  19.116  26.147   4.776
33937W        W97705   7.199  18.099   2.873
33938W        W97706   6.686  19.071   4.308
33939W        W97707   0.893  44.976   3.228
33940W        W97708  28.521  26.514  12.377
33941W        W97709  22.039  16.120  11.987
33942W        W97710  43.922  24.566   4.164
33943W        W97711   8.698  11.862  11.592
33944W        W97712  11.191  40.509  14.794
33945W        W97713  35.442  17.211  12.978
33946W        W97714  34.971  34.395   3.343
33947W        W97715   0.296  14.215   2.419
33948W        W97716  30.912  32.621  13.826
33949W        W97717   1.247  13.146  12.340
33950W        W97718  19.245  11.163   1.431
33951W        W97719  32.544  15.799   2.225
33952W        W97720  44.820  22.067  12.025
33953W        W97721   9.815  18.160  14.980
33954W        W97722  29.488  33.556   0.354
33955W        W97723  16.689  20.144  10.588
33956W        W97724  13.301  24.724   0.364
33957W        W97725  21.672  14.176   0.961
33958W        W97726   3.390  44.796   4.671
33959W        W97727  27.477  10.686  12.400
33960W        W97728  31.583  14.597   2.262
33961W        W97729  39.054  23.606   1.375
33962W        W97730  33.070  28.492  10.970
33963W        W97731   6.729  15.802   5.089
33964W        W97732   2.909  44.982  11.477
33965W        W97733   2.832   3.870  13.993
33966W        W97734   6.366  37.869   3.210
33967W        W97735  15.819  43.450   0.438
33968W        W97736  24.225   4.379   4.309
33969W        W97737   7.854  39.515  13.319
33970W        W97738  39.406  26.151  10.599
33971W        W97739  30.516  21.607   1.354
33972W        W97740  33.534  25.654  12.882
33973W        W97741  41.030  39.363  11.997
33974W        W97742  38.013   7.712  13.909
33975W        W97743  36.082   8.270   1.234
33976W        W97744  19.655  16.785  13.339
33977W        W97745  12.292  17.799   3.682
33978W        W97746  29.989  12.712   0.729
33979W        W97747   3.334  23.542  12.392
33980W        W97748   7.193  44.794  10.538
33981W        W97749  17.733  28.591   1.376
33982W        W97750  18.240  18.151  14.414
33983W        W97751   9.271   0.400   4.345
33984W        W97752   6.196  36.988   2.227
33985W        W97753   2.396  35.402  14.381
33986W        W97754  42.458  18.195   2.709
33987W        W97755  14.603  29.115  10.526
33988W        W97756  22.170  22.229  13.422
33989W        W97757  22.632  15.145   4.322
33990W        W97758   7.807   9.796   4.336
33991W        W97759  44.497   4.854   5.317
33992W        W97760  42.383  12.681   4.628
33993W        W97761   8.299  19.704   4.264
33994W        W97762  38.856  41.374   5.176
33995W        W97763  11.222   9.325  12.360
33996W        W97764  16.257  37.514   4.188
33997W        W97765  36.065   3.348  10.917
33998W        W97766  37.875   1.911   9.990
33999W        W97767   2.464   5.901  10.535
34000W        W97768   4.354  21.677  13.853
34001W        W97769  22.667  11.320  14.024
34002W        W97770  16.255  37.360  12.932
34003W        W97771  35.363  27.623   4.733
34004W        W97772  11.252  31.071   1.416
34005W        W97773  38.863   5.713   0.747
34006W        W97774  35.418  33.878  13.963
34007W        W97775  30.154   8.695  13.501
34008W        W97776   6.830  14.637  14.512
34009W        W97777   4.705  10.744  11.868
34010W        W97778   2.331  42.887  10.928
34011W        W97779  38.057  41.883   3.798
34012W        W97780  10.651  14.169   3.161
34013W        W97781  40.028   6.232   4.114
34014W        W97782   1.737  38.525  12.861
34015W        W97783  22.104  44.316  13.471
34016W        W97784  27.005  35.438  13.426
34017W        W97785   8.794  35.495  12.874
34018W        W97786   6.335  37.046  14.278
34019W        W97787  12.274  32.037   3.233
34020W        W97788   1.426   0.778  14.011
34021W        W97789  31.148  40.358   2.831
34022W        W97790  16.097  21.551   1.899
34023W        W97791   1.763   0.309   2.200
34024W        W97792   8.878  23.002  12.890
34025W        W97793   4.281  15.725   4.789
34026W        W97794  35.901  15.697  12.078
34027W        W97795  40.906  36.592   4.152
34028W        W97796  23.055  25.160  10.420
34029W        W97797  14.600  31.577   3.775
34030W        W97798  28.096  17.082   0.441
34031W        W97799   8.888   7.389   4.713
34032W        W97800   3.440  10.670  14.960
34033W        W97801  13.773  26.953  11.991
34034W        W97802  30.160  31.969  11.430
34035W        W97803  21.695  11.789   4.147
34036W        W97804  17.300   3.936  14.423
34037W        W97805  30.001  12.360   2.417
34038W        W97806  23.721  15.733  10.616
34039W        W97807  37.932  16.166   3.271
34040W        W97808  17.283  20.231   4.703
34041W        W97809  28.644   1.917   3.644
34042W        W97810  14.234  20.180  14.466
34043W        W97811   7.356  33.508  12.929
34044W        W97812  41.912  31.967  11.508
34045W        W97813  25.506  29.542  12.824
34046W        W97814   1.948  31.973   3.776
34047W        W97815   4.362   0.467   4.135
34048W        W97816  21.547  30.639  14.412
34049W        W97817  20.065  42.325   0.883
34050W        W97818  20.237  26.612   1.259
34051W        W97819   6.853  11.305  11.451
34052W        W97820  36.570  33.513  10.887
34053W        W97821  19.119  41.796  10.524
34054W        W97822  10.171  21.055   0.960
34055W        W97823  44.818  33.078   0.450
34056W        W97824   2.431   3.439   4.288
34057W        W97825  30.543   4.256  11.485
34058W        W97826   4.386  40.473  13.900
34059W        W97827   2.344  32.399  13.040
34060W        W97828   4.434   9.853   3.674
34061W        W97829  30.630   6.239   0.335
34062W        W97830  31.014  25.563  11.043
34063W        W97831   3.219   8.219  13.426
34064W        W97832  15.306  21.232  13.493
34065W        W97833   3.445  37.425  14.925
34066W        W97834  37.476  16.296  12.484
34067W        W97835  26.180   4.252   4.671
34068W        W97836  39.336  28.500   0.422
34069W        W97837  15.136  28.509  11.050
34070W        W97838  26.097  36.915   5.295
34071W        W97839  26.147   0.814  12.376
34072W        W97840  28.579  23.095   2.677
34073W        W97841   8.247  30.132   4.332
34074W        W97842  41.449  32.047   4.322
34075W        W97843  38.902  30.630   1.862
34076W        W97844   9.394  36.542   1.352
34077W        W97845   5.895   4.391   2.304
34078W        W97846  35.095  19.600   3.259
34079W        W97847  16.159  37.454  14.788
34080W        W97848  38.907  18.560   3.303
34081W        W97849  29.145  38.922  13.389
34082W        W97850   3.221  13.832  12.439
34083W        W97851  40.921   8.859   1.711
34084W        W97852   8.343  32.441   2.259
34085W        W97853  23.092  17.771   0.361
34086W        W97854  29.433  29.518   3.780
34087W        W97855  41.423   9.163  13.816
34088W        W97856  19.135  31.023   0.750
34089W        W97857   8.244  32.961   2.211
34090W        W97858  25.584  44.933   1.834
34091W        W97859   4.367   4.873  10.467
34092W        W97860   6.341  24.486   0.303
34093W        W97861   6.684  30.950  11.570
34094W        W97862  16.150  33.022  10.410
34095W        W97863  41.456  38.062   2.413
34096W        W97864  43.507  20.270  10.596
34097W        W97865   4.418  23.990  11.862
34098W        W97866  29.518  40.528  13.349
34099W        W97867  12.154  37.025   0.478
34100W        W97868   6.801  10.752   3.817
34101W        W97869  21.740   9.856  13.342
34102W        W97870   2.950  43.509  12.532
34103W        W97871  26.015   8.211  13.045
34104W        W97872  36.874   5.279  13.862
34105W        W97873  29.089  28.932  10.991
34106W        W97874  22.164  38.062  14.022
34107W        W97875  26.546  20.666   0.403
34108W        W97876  17.646   3.802  10.891
34109W        W97877   8.899  34.024  10.423
34110W        W97878  10.634  27.471   4.660
34111W        W97879  39.324  11.828   4.777
34112W        W97880  39.518  30.143  11.859
34113W        W97881  41.835  20.164  11.608
34114W        W97882  27.151  32.497   2.329
34115W        W97883  17.066  35.450  10.427
34116W        W97884  22.651  20.162   4.350
34117W        W97885  12.663   8.663   5.260
34118W        W97886   7.857  38.070   3.706
34119W        W97887  12.706  10.291  14.479
34120W        W97888  14.612  16.079  14.916
34121W        W97889   3.443  36.554   0.880
34122W        W97890  41.030  44.960   1.257
34123W        W97891  28.091  19.157  12.427
34124W        W97892  19.186  32.525  13.825
34125W        W97893   3.739  37.887   1.409
34126W        W97894  19.732  43.464  11.104
34127W        W97895  42.799  26.628  14.856
34128W        W97896  28.977   4.851   4.743
34129W        W97897  18.592  31.090   1.825
34130W        W97898  20.735  39.049  14.856
34131W        W97899   3.425  38.891  12.890
34132W        W97900  24.212   9.377   3.323
34133W        W97901  13.231  17.146  12.558
34134W        W97902   5.335   1.971   1.836
34135W        W97903  23.620  43.320  13.528
34136W        W97904   8.860  41.414  13.313
34137W        W97905  21.259   3.771  12.092
34138W        W97906  37.957  14.145  11.925
34139W        W97907   0.265  20.725   4.160
34140W        W97908  24.030  18.737  11.519
34141W        W97909   9.684   2.965   2.224
34142W        W97910  33.952  28.544   4.306
34143W        W97911  30.102   7.180   0.462
34144W        W97912  11.227  28.657   1.701
34145W        W97913   0.338  38.007   1.297
34146W        W97914   9.871  25.979   2.358
34147W        W97915  35.559   3.308   2.793
34148W        W97916  28.059  17.799   4.821
34149W        W97917  32.886  16.193   1.779
34150W        W97918   2.264  36.847   5.086
34151W        W97919  42.826  29.592   3.742
34152W        W97920  16.754  29.598  11.098
34153W        W97921  25.206  12.267  13.867
34154W        W97922  24.643  41.470  14.001
34155W        W97923   9.872  33.064  13.339
34156W        W97924  27.020  17.193   1.893
34157W        W97925  38.355  25.489  11.608
34158W        W97926   0.454  18.270  11.030
34159W        W97927  25.161   6.223   0.337
34160W        W97928  31.032   4.884  13.405
34161W        W97929   1.757   8.655   3.692
34162W        W97930  11.269  23.655   1.924
34163W        W97931   8.347  21.561   4.796
34164W        W97932  41.430  33.405   3.761
34165W        W97933  18.764  22.534   5.101
34166W        W97934  12.239   2.739   0.960
34167W        W97935  38.984  35.063   2.334
34168W        W97936  10.204  17.072  11.507
34169W        W97937  15.214   1.251   2.863
34170W        W97938  21.052   7.760  10.422
34171W        W97939  20.759  42.887   2.328
34172W        W97940  27.011  34.028  12.030
34173W        W97941  23.557  22.669  14.837
34174W        W97942   7.689  11.192   4.786
34175W        W97943  37.345  13.652   0.736
34176W        W97944  13.705  39.413  14.281
34177W        W97945  27.100  33.108   0.887
34178W        W97946  22.643  33.077   1.832
34179W        W97947   1.808  38.901  10.577
34180W        W97948  12.298  29.110   4.132
34181W        W97949   0.879  44.263   3.745
34182W        W97950  30.051  44.333   1.268
34183W        W97951  24.723  30.997  14.276
34184W        W97952  43.863  24.525   0.732
34185W        W97953  39.435  23.676   4.662
34186W        W97954  29.096   1.812  11.551
34187W        W97955  30.033  37.401   2.863
34188W        W97956  16.233  32.964   2.783
34189W        W97957  14.141  15.788   5.250
34190W        W97958  36.510  28.579  14.960
34191W        W97959  16.140  37.880  11.102
34192W        W97960   8.693  22.248   4.607
34193W        W97961  43.280  14.671   0.343
34194W        W97962  13.344   1.869   2.383
34195W        W97963  32.561  26.160  14.432
34196W        W97964   0.938  13.201  13.353
34197W        W97965  19.576  33.055   1.260
34198W        W97966  43.821  42.930  12.367
34199W        W97967  20.748  13.124  12.558
34200W        W97968  18.073   6.198   0.408
34201W        W97969  37.543  15.258  10.135
34202W        W97970  39.019  27.588   0.466
34203W        W97971  15.089   1.816   4.204
34204W        W97972  42.426  37.086   1.867
34205W        W97973  11.257  17.091  11.120
34206W        W97974  31.550  33.946   0.786
34207W        W97975   2.741   1.379  10.945
34208W        W97976  14.614  22.067  14.394
34209W        W97977  44.419  23.570   2.769
34210W        W97978  35.412  40.340  10.589
34211W        W97979  27.560  37.970   4.777
34212W        W97980  25.597  12.138  13.368
34213W        W97981  17.708  39.531   4.731
34214W        W97982  37.884  33.471   1.784
34215W        W97983   3.772  39.842   2.861
34216W        W97984  26.139  39.919   2.250
34217W        W97985  44.834  25.080   0.285
34218W        W97986  15.114  44.914  12.369
34219W        W97987  32.118   5.328  13.039
34220W        W97988   1.894  44.828   1.353
34221W        W97989  22.636   1.435  12.040
34222W        W97990  23.990   5.203   3.659
34223W        W97991  18.782   0.839   0.405
34224W        W97992   6.729  38.427  13.870
34225W        W97993  13.225  14.198  12.057
34226W        W97994  29.529  31.594  14.032
34227W        W97995   8.711  27.684   1.880
34228W        W97996  35.506  15.630  11.911
34229W        W97997  18.587  33.980  11.858
34230W        W97998  28.676   9.224   3.812
34231W        W97999  21.249  14.187   3.309
34232W        W98000  42.318  42.374   4.150
34233W        W98001   8.368  26.010   2.743
34234W        W98002  19.605  17.698  10.612
34235W        W98003  35.039  17.582   3.287
34236W        W98004  13.766  13.788  12.907
34237W        W98005   3.240  14.815   2.804
34238W        W98006   1.241  12.128  13.985
34239W        W98007  42.340  32.502   3.658
34240W        W98008  13.150  22.670   1.244
34241W        W98009  28.676   2.782  11.959
34242W        W98010  34.608  44.841   4.261
34243W        W98011   6.202   5.388  14.760
34244W        W98012   5.347  24.060  14.339
34245W        W98013  24.038  41.521  10.952
34246W        W98014  21.233   4.736  11.940
34247W        W98015  27.528   0.801   1.402
34248W        W98016  36.458  10.382  11.028
34249W        W98017  41.881  42.385   3.746
34250W        W98018   6.213  17.565  14.419
34251W        W98019  16.306  41.467  12.059
34252W        W98020  31.931  16.578   3.321
34253W        W98021  21.116  22.714   1.726
34254W        W98022  16.088   9.725   0.472
34255W        W98023  12.298  14.251   5.198
34256W        W98024  24.703   4.739  13.460
34257W        W98025  12.768  11.627  14.475
34258W        W98026  27.107  11.248   0.428
34259W        W98027   2.790  32.911   1.362
34260W        W98028  42.311  24.647   0.754
34261W        W98029  17.687  11.238  12.494
34262W        W98030  27.175  26.592  13.036
34263W        W98031  34.575  15.241   4.740
34264W        W98032  44.348  12.751  10.473
34265W        W98033  36.902  26.665   1.248
34266W        W98034  16.163  31.110  13.798
34267W        W98035  17.593  32.613  11.515
34268W        W98036  10.368  17.722   3.723
34269W        W98037  11.864  16.204  13.925
34270W        W98038   3.896   9.736   3.822
34271W        W98039  13.835  29.117  14.364
34272W        W98040  40.452  19.534   2.232
34273W        W98041   0.982  30.617  12.904
34274W        W98042  38.992  30.048   1.817
34275W        W98043  13.766   3.716  12.058
34276W        W98044  44.486  30.620   5.299
34277W        W98045  24.724  11.219   4.324
34278W        W98046  37.026  30.001   5.220
34279W        W98047  31.491  10.836   1.829
34280W        W98048   8.779  27.671  12.466
34281W        W98049  39.541  28.621   2.802
34282W        W98050  23.161  32.625   3.217
34283W        W98051   2.927  35.995   4.231
34284W        W98052  14.595  24.183   3.716
34285W        W98053  10.649  26.066   1.825
34286W        W98054  30.591  18.292   5.221
34287W        W98055   2.304   1.293  13.373
34288W        W98056  32.993  17.583   2.261
34289W        W98057  25.489   8.880  10.971
34290W        W98058   5.825  18.656  13.949
34291W        W98059  10.194  13.803  13.494
34292W        W98060  41.871  41.455  13.491
34293W        W98061  12.140  38.906  13.315
34294W        W98062  25.137  44.437  12.531
34295W        W98063   5.295  34.452   3.278
34296W        W98064  28.984  40.835   0.370
34297W        W98065  19.720  35.924  10.588
34298W        W98066   9.790  27.006  13.039
34299W        W98067  15.098   6.858  13.959
34300W        W98068  16.729  38.476  12.908
34301W        W98069  43.337  27.967   2.215
34302W        W98070  18.728  36.911   4.652
34303W        W98071  35.418  14.833   2.870
34304W        W98072  43.350  30.531   2.764
34305W        W98073  28.090  13.803   0.777
34306W        W98074   6.373  38.416   0.376
34307W        W98075  29.450  35.928   0.930
34308W        W98076  34.868  15.241   1.872
34309W        W98077   8.696  21.171  11.108
34310W        W98078  29.166   0.844   3.653
34311W        W98079  43.856   0.292   2.707
34312W        W98080   1.740  31.015   0.797
34313W        W98081  26.461  25.218  11.897
34314W        W98082  11.773  33.952  12.544
34315W        W98083   0.837  12.619   9.993
34316W        W98084  25.628  10.140  10.485
34317W        W98085  36.403  27.197  13.321
34318W        W98086   5.363   5.870   1.273
34319W        W98087   9.643  23.697   2.797
34320W        W98088  28.110  22.037   1.429
34321W        W98089  11.274  29.021   0.415
34322W        W98090  17.261  37.943   0.820
34323W        W98091  29.616  16.743   4.258
34324W        W98092  12.830  42.444  13.420
34325W        W98093  17.660  25.201   3.248
34326W        W98094  31.993  37.027  13.454
34327W        W98095  12.817   9.236  11.398
34328W        W98096  17.146   3.266   0.811
34329W        W98097  23.705  18.160  10.957
34330W        W98098  17.632  11.855  11.031
34331W        W98099  38.366  13.804  12.491
34332W        W98100  29.603  13.113   2.288
34333W        W98101  34.540   7.326   2.813
34334W        W98102   2.917  38.877  14.373
34335W        W98103  25.476  41.792   3.827
34336W        W98104  34.394   9.242  13.978
34337W        W98105  24.627  22.091  14.497
34338W        W98106   8.723  24.711  12.418
34339W        W98107   4.226  24.062  11.431
34340W        W98108   3.242  27.188  14.413
34341W        W98109  13.613   3.739  13.401
34342W        W98110  21.110  11.354   4.707
34343W        W98111  14.135  13.243   0.930
34344W        W98112  10.317  22.662  14.847
34345W        W98113  14.288   6.356   2.713
34346W        W98114  14.209  30.103  14.386
34347W        W98115  14.201  10.846  11.954
34348W        W98116  44.298  31.942  10.975
34349W        W98117  22.506  43.863  13.344
34350W        W98118  12.282  38.354   3.190
34351W        W98119  17.789  27.044   2.717
34352W        W98120  32.920   6.334  12.827
34353W        W98121  10.855  42.961   4.163
34354W        W98122   1.312  39.897  11.913
34355W        W98123  44.953  29.153   1.767
34356W        W98124  17.074  37.955  11.578
34357W        W98125  44.891  35.879  13.484
34358W        W98126  43.975  43.981  10.555
34359W        W98127   0.988  34.102   2.279
34360W        W98128  23.029   2.845  10.516
34361W        W98129  27.627  20.687  12.910
34362W        W98130  20.613  38.988  11.868
34363W        W98131  22.171   2.941   2.738
34364W        W98132  14.602  41.896  12.968
34365W        W98133   0.848  20.636   0.869
34366W        W98134  17.797   9.194   2.217
34367W        W98135   3.269  38.033  11.943
34368W        W98136   0.366   1.869   2.693
34369W        W98137  24.702   9.856  14.810
34370W        W98138  21.263   0.312  13.023
34371W        W98139  19.043  13.729   4.150
34372W        W98140  18.130  43.355  10.636
34373W        W98141  12.825  22.697  14.913
34374W        W98142   7.908   2.459  14.360
34375W        W98143   3.735  40.816   0.409
34376W        W98144  31.589   3.414   2.336
34377W        W98145   5.780  34.523   1.802
34378W        W98146  38.057   6.426   9.961
34379W        W98147  20.198  12.824   1.925
34380W        W98148  41.538  11.282  14.834
34381W        W98149  13.687  29.479  11.386
34382W        W98150  35.508  37.958  12.937
34383W        W98151   6.223  43.924   2.280
34384W        W98152  13.715   2.899   2.841
34385W        W98153  20.649  13.755   3.148
34386W        W98154  21.260  29.983   4.271
34387W        W98155   7.385  24.095   1.802
34388W        W98156   7.680  20.573   3.188
34389W        W98157   2.426  10.284   2.752
34390W        W98158  20.575  40.877   1.423
34391W        W98159  13.203  40.983   1.771
34392W        W98160   6.814  29.145  14.514
34393W        W98161  12.159   3.234   1.824
34394W        W98162  23.180   2.923  12.341
34395W        W98163  11.255  36.588   4.728
34396W        W98164  32.957  32.451   4.837
34397W        W98165  29.163  26.632  11.571
34398W        W98166  23.650  21.186   3.326
34399W        W98167  35.103  39.326   3.175
34400W        W98168  15.820  22.567  14.942
34401W        W98169  29.549  24.049  12.439
34402W        W98170  31.906   9.363   1.374
34403W        W98171   4.331  12.844   1.866
34404W        W98172  28.464  30.648  12.049
34405W        W98173  21.160   0.921  11.492
34406W        W98174  23.716  22.165   4.232
34407W        W98175   0.941  30.049   3.222
34408W        W98176   7.251   3.406  11.557
34409W        W98177  15.209  37.078  13.472
34410W        W98178  35.934  29.491  13.385
34411W        W98179   4.843  24.103   0.762
34412W        W98180  13.172  13.227   0.288
34413W        W98181  39.522   1.760   2.817
34414W        W98182  43.322  19.720   1.711
34415W        W98183  21.673  36.913  10.433
34416W        W98184  37.957  16.077   1.251
34417W        W98185  41.295  40.022   0.338
34418W        W98186  23.686   3.873  10.463
34419W        W98187  25.669  37.883  13.454
34420W        W98188  37.980  10.818  10.541
34421W        W98189  32.111  33.107   0.895
34422W        W98190   0.379  18.552  12.424
34423W        W98191  16.179  44.452   2.250
34424W        W98192  26.077  43.848   4.616
34425W        W98193  18.699  25.709  14.381
34426W        W98194  20.559  30.434  14.496
34427W        W98195   6.710  40.343  12.063
34428W        W98196  27.953  32.537   1.264
34429W        W98197   4.401  26.150   1.382
34430W        W98198  18.240  10.784   2.800
34431W        W98199   2.271  38.357  12.576
34432W        W98200  33.993   3.786   3.677
34433W        W98201  23.574  39.383   3.757
34434W        W98202  36.452  25.004   4.132
34435W        W98203  13.714  41.997   2.764
34436W        W98204  32.488  30.543  11.561
34437W        W98205   3.869   2.374  11.475
34438W        W98206  24.163  21.740   3.263
34439W        W98207  19.546  27.030   3.303
34440W        W98208  44.878   5.892  12.359
34441W        W98209  16.597  39.498  10.555
34442W        W98210   8.339  36.416  12.857
34443W        W98211  35.459  39.366   4.187
34444W        W98212  18.733  28.073   4.348
34445W        W98213   9.377  33.447  13.955
34446W        W98214  42.363   3.392   0.751
34447W        W98215  10.793  26.021   1.367
34448W        W98216  11.736  35.089   3.781
34449W        W98217  37.975  10.222  14.415
34450W        W98218  36.382   6.875  14.828
34451W        W98219  10.661  42.948  11.883
34452W        W98220  10.864  18.590   1.703
34453W        W98221  17.292  25.500   0.851
34454W        W98222  25.655  36.379  13.797
34455W        W98223  31.021  44.998  13.443
34456W        W98224  19.081  21.125  10.152
34457W        W98225  30.545  43.998  11.400
34458W        W98226  14.776  34.078  13.366
34459W        W98227   6.327  30.087   2.694
34460W        W98228  34.881  23.576  10.911
34461W        W98229  31.479  15.803   0.425
34462W        W98230  40.423  22.737   4.799
34463W        W98231  37.002  42.781   0.306
34464W        W98232  32.613  27.515  11.083
34465W        W98233  42.840  23.077  14.481
34466W        W98234  33.516  19.190   0.852
34467W        W98235  33.954  28.016   0.959
34468W        W98236   3.911   9.868   4.160
34469W        W98237  42.798  10.810   0.821
34470W        W98238  15.642   5.852  13.926
34471W        W98239   4.718  32.494  13.379
34472W        W98240  11.750  15.298   3.191
34473W        W98241   8.268  25.618   0.869
34474W        W98242  24.503  32.021  11.910
34475W        W98243  44.791  15.785   0.447
34476W        W98244  14.664  11.286   0.321
34477W        W98245  25.070  38.903  12.450
34478W        W98246  33.984  44.911  13.319
34479W        W98247  23.239  21.566   0.382
34480W        W98248  42.368   7.413   0.772
34481W        W98249  42.975   7.820   4.654
34482W        W98250  26.548  11.194   3.206
34483W        W98251  24.539   7.685   1.283
34484W        W98252  30.472  26.660   2.881
34485W        W98253  13.324  41.863   2.675
34486W        W98254   4.855  29.656  11.097
34487W        W98255  40.824  16.235  11.437
34488W        W98256  29.164  12.624   4.612
34489W        W98257  26.091  31.909  10.091
34490W        W98258  35.071  28.953   4.780
34491W        W98259  40.862  36.346  13.503
34492W        W98260  19.537  25.175   4.139
34493W        W98261  25.104  37.401   3.318
34494W        W98262   1.354  14.830  13.456
34495W        W98263  28.952  43.939   1.813
34496W        W98264  31.465   4.398  11.443
34497W        W98265   6.320  37.898   0.440
34498W        W98266   5.805  27.668   0.293
34499W        W98267  19.717  26.037  13.336
34500W        W98268   3.769   2.769  11.091
34501W        W98269  34.099   2.930  13.480
34502W        W98270  23.018   0.776  14.396
34503W        W98271  15.279  10.246   0.728
34504W        W98272   5.894  21.645   3.386
34505W        W98273  10.717   4.384  11.979
34506W        W98274  12.291  41.338   3.845
34507W        W98275  27.461  11.782   0.421
34508W        W98276  28.481  32.406   4.825
34509W        W98277  43.507   4.325   1.748
34510W        W98278  19.596  27.949   2.409
34511W        W98279  13.342   4.856  14.849
34512W        W98280  12.714  25.619  13.992
34513W        W98281   5.384  26.106  13.447
34514W        W98282  28.164  21.603  11.434
34515W        W98283  20.642  31.448   9.922
34516W        W98284   9.747  32.926  10.980
34517W        W98285  22.233   2.333  14.392
34518W        W98286  42.776  31.628  11.890
34519W        W98287  25.690  44.351  13.382
34520W        W98288  33.936  44.405  12.394
34521W        W98289  35.432  35.484  11.874
34522W        W98290   2.772  29.590  11.938
34523W        W98291   0.862  42.991   2.365
34524W        W98292  16.700  41.335   0.882
34525W        W98293  14.242  12.202   3.253
34526W        W98294  20.749  40.485  10.487
34527W        W98295  23.667  24.113  10.451
34528W        W98296  23.078  14.286  11.953
34529W        W98297  31.078   9.255   3.325
34530W        W98298  12.202   6.876   3.172
34531W        W98299  39.815   7.358  11.003
34532W        W98300  31.550  31.554  14.397
34533W        W98301  38.003  28.990  14.294
34534W        W98302  26.128  13.667   1.847
34535W        W98303  10.228  44.447   0.334
34536W        W98304  23.176  19.636  11.121
34537W        W98305   1.473  37.348  12.876
34538W        W98306  39.479  19.132  14.492
34539W        W98307  13.724  32.537   1.325
34540W        W98308  41.901  41.966  14.364
34541W        W98309  38.965  29.024   1.258
34542W        W98310  21.261  23.581  14.371
34543W        W98311  10.730  23.049  11.890
34544W        W98312  29.565  37.511   3.844
34545W        W98313  15.225  37.487   3.314
34546W        W98314  26.657  31.632  12.906
34547W        W98315   8.872  17.780   2.291
34548W        W98316  27.642  25.669  11.600
34549W        W98317  32.601  37.510  13.027
34550W        W98318  23.146   0.473  10.641
34551W        W98319   4.320  37.569   3.225
34552W        W98320  41.383  32.487  13.033
34553W        W98321  38.966  31.034   2.265
34554W        W98322  38.994   4.431   1.438
34555W        W98323  39.385  37.341   2.275
34556W        W98324  12.846  29.601   1.898
34557W        W98325  36.477  19.691   4.242
34558W        W98326  15.205  38.536  11.430
34559W        W98327  18.677  39.459  13.449
34560W        W98328   6.819  35.358  12.423
34561W        W98329  26.160   7.848   2.723
34562W        W98330  21.044  38.538   1.353
34563W        W98331  34.069  31.936   1.431
34564W        W98332  10.349   5.197   4.147
34565W        W98333  32.459  27.172  10.575
34566W        W98334   1.432   7.203   4.316
34567W        W98335  34.583   0.937  11.430
34568W        W98336  44.312  35.548  11.582
34569W        W98337  32.033   8.846  10.449
34570W        W98338  24.064  44.418   3.253
34571W        W98339   3.408  10.296   1.867
34572W        W98340  23.629  15.179  11.520
34573W        W98341  43.314  16.753  14.899
34574W        W98342   1.783   3.828   1.282
34575W        W98343  11.852   7.819  12.833
34576W        W98344  38.868  22.248   3.345
34577W        W98345  16.272  17.703   4.149
34578W        W98346   8.358  12.832  11.494
34579W        W98347   7.393   1.736  10.569
34580W        W98348  17.101   1.825  11.986
34581W        W98349  25.474  43.901  11.959
34582W        W98350  35.956  23.233  11.020
34583W        W98351  12.683  35.461  11.550
34584W        W98352   1.738  13.702   4.765
34585W        W98353  33.552   8.898  10.459
34586W        W98354  43.493  16.646  14.444
34587W        W98355   2.372  33.894   1.409
34588W        W98356  36.881   6.807  13.869
34589W        W98357  24.031   8.800   2.410
34590W        W98358  24.689  31.095  12.366
34591W        W98359   6.690  28.483   1.899
34592W        W98360   0.442  42.794   4.730
34593W        W98361  28.652  18.552   1.717
34594W        W98362  31.504  25.167   3.273
34595W        W98363   5.244  33.047   2.707
34596W        W98364  41.298  19.735   4.795
34597W        W98365  30.550  20.165   2.841
34598W        W98366  43.780  18.726  12.903
34599W        W98367  12.657   6.420   4.729
34600W        W98368  37.464  17.217  12.918
34601W        W98369  25.568  31.499  11.029
34602W        W98370   6.758  19.255  14.935
34603W        W98371  31.616  42.505   0.839
34604W        W98372   9.311  13.139  13.520
34605W        W98373   9.890  42.879  14.977
34606W        W98374  30.939  38.908   5.148
34607W        W98375   7.759  16.692  11.908
34608W        W98376   6.841   1.356  12.522
34609W        W98377  34.416  38.490   0.772
34610W        W98378  20.118  22.563   3.652
34611W        W98379  21.599  44.440  14.479
34612W        W98380  20.183  43.442   4.181
34613W        W98381  39.336  23.109   0.400
34614W        W98382   4.206  37.919   1.721
34615W        W98383   6.744  38.987   2.797
34616W        W98384  27.487   2.343  13.831
34617W        W98385  28.447   1.809   0.839
34618W        W98386  12.359  10.232   2.772
34619W        W98387  20.038  40.848  11.879
34620W        W98388  44.833  30.066   1.854
34621W        W98389  19.537  44.907   1.246
34622W        W98390  38.557  21.514   3.815
34623W        W98391   4.791  15.674   4.262
34624W        W98392   3.848  39.832   1.272
34625W        W98393  37.403  35.578  11.080
34626W        W98394  11.712  31.567  13.477
34627W        W98395  36.976  13.767   2.794
34628W        W98396  35.921  38.416  12.556
34629W        W98397   6.845  21.680  10.449
34630W        W98398  20.250  40.916  13.517
34631W        W98399   4.710  27.184   0.835
34632W        W98400  42.032  38.027   0.813
34633W        W98401  29.128  30.529  13.385
34634W        W98402  12.289  39.009  10.582
34635W        W98403  29.642  10.876   3.262
34636W        W98404  25.680  27.992   2.282
34637W        W98405   3.247  20.087  12.838
34638W        W98406  20.221   7.278   5.081
34639W        W98407  25.174  31.080   0.389
34640W        W98408  16.668  36.980  12.475
34641W        W98409  31.635  26.642   2.228
34642W        W98410  37.421   3.251  11.936
34643W        W98411   4.738  30.437   2.387
34644W        W98412  33.497  11.638   0.393
34645W        W98413  16.724  21.559   4.638
34646W        W98414  28.447  19.265   1.444
34647W        W98415  31.143  19.544  13.859
34648W        W98416  15.099  44.503   3.829
34649W        W98417  12.694  30.443  11.960
34650W        W98418  42.948  26.116   0.934
34651W        W98419  28.063  28.458  14.345
34652W        W98420  35.466  22.159   3.176
34653W        W98421  28.457  33.939   4.677
34654W        W98422  18.782  26.970  11.487
34655W        W98423  19.211  41.494  14.915
34656W        W98424  37.464  30.463  13.874
34657W        W98425  40.899  10.836  13.942
34658W        W98426   3.824  12.289   4.743
34659W        W98427  42.527  17.687   1.800
34660W        W98428  36.038  31.420  13.476
34661W        W98429   0.961  37.342   3.182
34662W        W98430  43.927  43.352  14.368
34663W        W98431  39.015   9.836   0.359
34664W        W98432   9.319  13.651  10.518
34665W        W98433  23.016   6.819   4.777
34666W        W98434  36.003  24.095  13.001
34667W        W98435  39.521  28.628  11.968
34668W        W98436   9.319  10.352   2.730
34669W        W98437  27.014   5.405  12.011
34670W        W98438  41.469   9.304  10.531
34671W        W98439  18.686   6.846  12.876
34672W        W98440  21.580  24.492   0.805
34673W        W98441  39.548  44.260   0.962
34674W        W98442  42.473  36.478   4.826
34675W        W98443  23.511  25.989   4.217
34676W        W98444  13.760  39.339  13.950
34677W        W98445  29.627  11.340  14.339
34678W        W98446  16.735  27.114   2.243
34679W        W98447  20.067  36.535  14.444
34680W        W98448  43.465  30.646  11.542
34681W        W98449   1.921  40.964  12.404
34682W        W98450  14.324  35.487   3.807
34683W        W98451  39.871  36.546  14.010
34684W        W98452   0.396   5.934   1.741
34685W        W98453  19.137  28.526  10.941
34686W        W98454   6.857   6.263  14.356
34687W        W98455  37.425  27.997   4.680
34688W        W98456   7.765  38.890   1.314
34689W        W98457  26.494  15.795   3.683
34690W        W98458  43.438   6.293   3.227
34691W        W98459  40.483  15.116  12.994
34692W        W98460  32.979  25.488   2.215
34693W        W98461   7.751  27.625  11.517
34694W        W98462  10.357  10.813   0.831
34695W        W98463  30.105  41.424   2.382
34696W        W98464  13.780  10.692   0.792
34697W        W98465  17.076  28.568  14.316
34698W        W98466  14.816  16.290   3.774
34699W        W98467  22.704  24.046   3.758
34700W        W98468  29.118   6.678  12.072
34701W        W98469  24.623   1.861   0.852
34702W        W98470   6.228  11.340   3.683
34703W        W98471   4.291  32.411   0.391
34704W        W98472   6.884  11.269   3.351
34705W        W98473  32.518  38.002  14.384
34706W        W98474   8.829  38.391   4.683
34707W        W98475   5.866  19.723  11.487
34708W        W98476  29.590   3.942  10.964
34709W        W98477  22.652  13.143   0.966
34710W        W98478  23.541  22.098  12.429
34711W        W98479  25.538  41.483   2.685
34712W        W98480  39.064   6.356  13.408
34713W        W98481   2.291   5.412   2.897
34714W        W98482  35.504  15.740   3.295
34715W        W98483  44.875  32.572  12.842
34716W        W98484   3.239  25.160   3.152
34717W        W98485  28.472  22.528   4.782
34718W        W98486  14.649  29.589   1.245
34719W        W98487   3.352   9.853   0.881
34720W        W98488  34.441  13.619   1.752
34721W        W98489  41.487   4.315  12.462
34722W        W98490   1.377   3.435  11.010
34723W        W98491  41.000  30.439  14.959
34724W        W98492  44.503  15.754  11.117
34725W        W98493   9.855  20.751   3.672
34726W        W98494   3.923  23.522   0.480
34727W        W98495  18.188  40.383   4.120
34728W        W98496  13.167  16.686  11.531
34729W        W98497   5.436  44.409  11.948
34730W        W98498  22.251   7.184  14.437
34731W        W98499  42.460  20.566   1.439
34732W        W98500   0.414   9.681  10.568
34733W        W98501  25.202  10.280  13.481
34734W        W98502  20.601   4.309  10.421
34735W        W98503  37.364  22.611  14.417
34736W        W98504  32.915  11.651  12.934
34737W        W98505   2.457  18.739  14.292
34738W        W98506   1.961  20.615  14.451
34739W        W98507  24.061   6.290  11.858
34740W        W98508  18.546  12.736  13.056
34741W        W98509  41.528  18.068   4.261
34742W        W98510  38.926  36.960  14.356
34743W        W98511  28.102   0.876  13.352
34744W        W98512   8.381  40.406  11.954
34745W        W98513  31.485  23.494   0.937
34746W        W98514  30.151   5.301   4.781
34747W        W98515  23.230  31.133   4.271
34748W        W98516  30.534   6.418   1.411
34749W        W98517  24.609  33.537  14.368
34750W        W98518  12.634   4.386   2.206
34751W        W98519   5.259   2.339   3.260
34752W        W98520   7.880  43.941  11.867
34753W        W98521  29.158  42.840   3.300
34754W        W98522  40.868  17.587   0.452
34755W        W98523  36.381  41.818  12.094
34756W        W98524  36.878  34.907   4.752
34757W        W98525  43.401  30.078   2.835
34758W        W98526   7.224   3.758   1.252
34759W        W98527  24.996   1.464   2.749
34760W        W98528  12.735   8.387   3.186
34761W        W98529  21.196  25.212   2.827
34762W        W98530  27.530  28.023   4.655
34763W        W98531  38.920  38.406  14.991
34764W        W98532   6.303  21.154   0.730
34765W        W98533   3.416  42.476  12.936
34766W        W98534  37.442  13.729  11.954
34767W        W98535  40.006  39.926  10.493
34768W        W98536  12.745   7.310   2.342
34769W        W98537  19.138  42.524  12.037
34770W        W98538  21.565   0.398  12.463
34771W        W98539  35.378  41.889   0.764
34772W        W98540   8.216  42.934  11.893
34773W        W98541  26.101  34.053  11.601
34774W        W98542  34.115  35.068  13.504
34775W        W98543  40.989  23.534  12.050
34776W        W98544   8.676  28.651   1.316
34777W        W98545   6.832  41.029  11.376
34778W        W98546  33.450  21.071   2.680
34779W        W98547  29.078   3.721  13.503
34780W        W98548  30.999   1.977  12.937
34781W        W98549  18.753  35.508  11.466
34782W        W98550   9.153  14.123  10.530
34783W        W98551   8.780  26.521   5.095
34784W        W98552   9.747   7.734  11.483
34785W        W98553  42.468  26.968  14.804
34786W        W98554  37.993  30.636  12.546
34787W        W98555  10.730  34.436   0.938
34788W        W98556  28.987  43.849  12.077
34789W        W98557  12.161  38.397   1.219
34790W        W98558  25.573   6.212   0.421
34791W        W98559  31.111   0.914  11.512
34792W        W98560   1.409  34.389   5.784
34793W        W98561  36.555  25.597  12.932
34794W        W98562  19.104  22.510  13.977
34795W        W98563   1.392  41.831  12.340
34796W        W98564  38.396  41.509   1.211
34797W        W98565   9.725  21.552   3.207
34798W        W98566  44.840  27.196  10.617
34799W        W98567  38.826  38.988  13.808
34800W        W98568  32.605   9.751  10.521
34801W        W98569  17.644  40.015  10.410
34802W        W98570  36.510  44.455  13.057
34803W        W98571  11.221  31.556  14.411
34804W        W98572  34.956   2.948   2.201
34805W        W98573  26.506  35.602  14.511
34806W        W98574  33.541  27.633  12.956
34807W        W98575  23.687  28.645   2.865
34808W        W98576  43.928  43.317  13.328
34809W        W98577  23.673   7.259  10.598
34810W        W98578  26.606  16.582   1.312
34811W        W98579  12.669  39.824  14.792
34812W        W98580  14.737  24.051   0.399
34813W        W98581  41.485  38.563   0.881
34814W        W98582  38.402  34.061  11.602
34815W        W98583  15.254   3.364  13.341
34816W        W98584   9.169   6.761   1.886
34817W        W98585   6.839  32.568   4.298
34818W        W98586  43.299  43.270  14.798
34819W        W98587  40.443   3.430  14.811
34820W        W98588  35.544  13.263   4.712
34821W        W98589  17.168   6.278  13.533
34822W        W98590  22.146  16.281  12.536
34823W        W98591  12.242  24.691  14.851
34824W        W98592  41.954   2.294   3.277
34825W        W98593   2.891   6.364   0.799
34826W        W98594  16.265  34.402   3.191
34827W        W98595  26.020   6.359   3.376
34828W        W98596  42.512  32.511  11.514
34829W        W98597  41.514   4.259  11.497
34830W        W98598  23.037  44.290   2.222
34831W        W98599  43.805  22.626   3.762
34832W        W98600  33.501   1.468  14.826
34833W        W98601   9.666   9.268   4.700
34834W        W98602   1.885  14.300   2.833
34835W        W98603   4.875  31.634   9.982
34836W        W98604  18.126  20.180   5.694
34837W        W98605  21.561  43.942   4.355
34838W        W98606  25.587  38.379  12.025
34839W        W98607   1.756  16.164  10.488
34840W        W98608  44.890  42.866  12.470
34841W        W98609  41.036  24.659  12.373
34842W        W98610  27.529  41.400   4.300
34843W        W98611  29.076   0.334  11.487
34844W        W98612  28.505   5.431  14.967
34845W        W98613  23.204   5.764   1.775
34846W        W98614  44.319  14.284  11.035
34847W        W98615  20.270  32.079  13.962
34848W        W98616  26.059   6.273   2.779
34849W        W98617  34.531   2.862   4.209
34850W        W98618  25.020   6.395   1.754
34851W        W98619  28.528  42.858   4.684
34852W        W98620  20.162   5.204   0.965
34853W        W98621  29.436   5.918  12.948
34854W        W98622  37.039  21.572  13.986
34855W        W98623  11.791  17.261  10.957
34856W        W98624  25.545  25.004   2.801
34857W        W98625  38.866   9.867  10.535
34858W        W98626   7.778  34.598  14.828
34859W        W98627  27.641  21.642  12.381
34860W        W98628  40.413  36.383  10.900
34861W        W98629  33.053  17.253  11.900
34862W        W98630  18.664  41.470  14.900
34863W        W98631  31.507  42.304   2.414
34864W        W98632  16.164  33.916   1.919
34865W        W98633   1.967  11.127  11.446
34866W        W98634  19.154  36.516   1.318
34867W        W98635  44.404  12.727  11.105
34868W        W98636  43.511  20.107   1.877
34869W        W98637  13.710  33.567  14.777
34870W        W98638  14.829   9.354   0.909
34871W        W98639  11.373  18.771   2.302
34872W        W98640   2.295   4.760  12.860
34873W        W98641  41.025  43.821  11.946
34874W        W98642  14.152  32.053   1.872
34875W        W98643  25.641  35.476   9.521
34876W        W98644  38.352  12.646   0.803
34877W        W98645   4.725   2.469  10.488
34878W        W98646  12.681  31.451  12.458
34879W        W98647   9.264  38.444   2.864
34880W        W98648   8.669  20.061   4.127
34881W        W98649  19.605   3.844  14.861
34882W        W98650  36.930   5.762   2.769
34883W        W98651  39.982   6.273   1.747
34884W        W98652  30.024  13.622   4.210
34885W        W98653   3.412  43.476  10.581
34886W        W98654  17.696   0.266   4.687
34887W        W98655  30.135  32.628   3.371
34888W        W98656  30.514  26.625  12.524
34889W        W98657  37.987  29.016  13.939
34890W        W98658  23.678  24.051   3.243
34891W        W98659  27.578  38.546   4.264
34892W        W98660   7.731   1.256  12.405
34893W        W98661  11.251   6.264   2.268
34894W        W98662  42.383  37.895   4.824
34895W        W98663  38.432  33.127  12.919
34896W        W98664  42.944   3.276   1.775
34897W        W98665  24.048  22.122  10.055
34898W        W98666   3.392  43.984  14.780
34899W        W98667   7.231  41.461  14.455
34900W        W98668  26.170  34.542   1.367
34901W        W98669  27.094  29.038  11.505
34902W        W98670  25.012  36.927   2.872
34903W        W98671  26.073  15.327   0.814
34904W        W98672   8.900  31.609  12.855
34905W        W98673  28.438  16.281   0.799
34906W        W98674   9.887  25.568  10.601
34907W        W98675  18.139  13.273   1.701
34908W        W98676  43.396  44.884  13.030
34909W        W98677  37.926  31.978  13.318
34910W        W98678  43.827  44.297   2.695
34911W        W98679  28.164  11.182   4.774
34912W        W98680  41.928   5.353  14.508
34913W        W98681  26.084  40.826   1.754
34914W        W98682  35.516  25.521  10.408
34915W        W98683  44.493  25.653   0.377
34916W        W98684   3.423  28.169   4.128
34917W        W98685  24.081  28.937   1.387
34918W        W98686   5.894  36.489   3.282
34919W        W98687  24.585  35.986   4.622
34920W        W98688  43.501  18.254  13.461
34921W        W98689  40.488  26.644   1.376
34922W        W98690  36.503   6.701  13.391
34923W        W98691  32.542  33.572   3.803
34924W        W98692  10.151  20.123   1.845
34925W        W98693  23.227   4.766  10.540
34926W        W98694   6.817   3.436   1.224
34927W        W98695  24.126  29.039   2.205
34928W        W98696  16.709   2.442   1.781
34929W        W98697  25.577  30.420  11.398
34930W        W98698  39.319  20.242   0.829
34931W        W98699   6.346  19.578   2.759
34932W        W98700  21.658   6.219   2.801
34933W        W98701  42.975  41.506   3.190
34934W        W98702  40.328  23.490  12.396
34935W        W98703  15.300  30.493  13.818
34936W        W98704  27.006   4.778  13.934
34937W        W98705   4.843  25.010   0.907
34938W        W98706  28.022  12.200  12.363
34939W        W98707  14.313  15.810   4.694
34940W        W98708   7.677  29.528   4.179
34941W        W98709  11.628  11.682   3.785
34942W        W98710  41.824  40.410  14.332
34943W        W98711  25.189  24.508   4.128
34944W        W98712   6.360  13.197  13.497
34945W        W98713  32.510  11.182   2.357
34946W        W98714  32.596   6.393  14.374
34947W        W98715   5.221  29.029  11.444
34948W        W98716  35.055  20.569  12.558
34949W        W98717  18.118  26.638  11.070
34950W        W98718  39.955   6.182  12.542
34951W        W98719  27.027   4.892  14.457
34952W        W98720  38.546  27.009  11.123
34953W        W98721  25.101  15.313  14.362
34954W        W98722  43.869  33.895  13.500
34955W        W98723   6.704  44.814  14.402
34956W        W98724  33.916  26.131  12.911
34957W        W98725  12.727  18.239   3.257
34958W        W98726  21.031  21.066  13.881
34959W        W98727  31.492  43.367   0.349
34960W        W98728  23.091   5.237   1.710
34961W        W98729  22.219  12.619  14.446
34962W        W98730   2.720  25.161  13.327
34963W        W98731  24.056  40.382  12.065
34964W        W98732  36.954  18.140  13.877
34965W        W98733   4.783  12.750   0.949
34966W        W98734  26.119  43.306   2.782
34967W        W98735  24.973   6.731  14.478
34968W        W98736  23.217   4.350  14.469
34969W        W98737  21.236  40.434   4.600
34970W        W98738  23.172   7.692  14.954
34971W        W98739  32.910  41.449  12.432
34972W        W98740  42.803  33.080  10.498
34973W        W98741  33.453  26.501   4.295
34974W        W98742  25.010  23.158   0.947
34975W        W98743   9.815   8.850   1.846
34976W        W98744  24.142  37.513   5.246
34977W        W98745  20.184  25.706   0.288
34978W        W98746  30.564  32.572   3.309
34979W        W98747   6.243  18.782  11.575
34980W        W98748  21.077  19.157   3.258
34981W        W98749  14.716   8.366  13.541
34982W        W98750   2.826   7.314   3.192
34983W        W98751   9.765  32.580  14.460
34984W        W98752   5.697  20.273   2.326
34985W        W98753  11.173  44.820  10.484
34986W        W98754  39.415  12.277  14.860
34987W        W98755   2.890  10.734   1.886
34988W        W98756  35.085  43.357  10.606
34989W        W98757  28.478  24.056   4.651
34990W        W98758  38.464  30.622  14.385
34991W        W98759  42.985  12.206  10.974
34992W        W98760   5.416  25.015  12.876
34993W        W98761  42.462  38.370  13.479
34994W        W98762  12.362   0.355   1.764
34995W        W98763  22.123  13.286  11.456
34996W        W98764  24.528  20.674   4.644
34997W        W98765  44.781  15.248   2.211
34998W        W98766  37.396  10.351   0.244
34999W        W98767  16.111  22.647   2.417
35000W        W98768  17.645  21.584  13.865
35001W        W98769  25.001   9.151   4.219
35002W        W98770  23.613  36.396   2.326
35003W        W98771   8.383  34.943   1.792
35004W        W98772  25.199   4.213  12.084
35005W        W98773  22.998  10.721  13.000
35006W        W98774  41.913   5.859  10.918
35007W        W98775  30.419  43.488   1.765
35008W        W98776  23.131  11.327  11.888
35009W        W98777  23.068   7.677   3.790
35010W        W98778   2.934  13.780   0.386
35011W        W98779  11.223   0.474   4.237
35012W        W98780  23.122  18.633   0.758
35013W        W98781  14.175  14.650   2.782
35014W        W98782  42.419  20.153   0.319
35015W        W98783   0.779  44.907  13.983
35016W        W98784  38.015   3.390  12.056
35017W        W98785  25.500  23.992   2.711
35018W        W98786  22.534  34.018  10.440
35019W        W98787  27.070   3.807   0.784
35020W        W98788  28.556  33.450   1.920
35021W        W98789  42.359  11.828  12.339
35022W        W98790  18.253  37.839   3.744
35023W        W98791   8.719  41.373   4.626
35024W        W98792  24.129   7.394   1.337
35025W        W98793  22.087  39.955  13.471
35026W        W98794  39.922  34.486  13.509
35027W        W98795  12.837  24.121  12.359
35028W        W98796  36.455   0.987  11.899
35029W        W98797  40.487   4.905   4.758
35030W        W98798  38.462  14.728   2.307
35031W        W98799  19.645  14.334   2.770
35032W        W98800   9.816  33.437  12.976
35033W        W98801  16.591  26.661  13.499
35034W        W98802  39.009  39.480  10.985
35035W        W98803  13.277   6.750  13.424
35036W        W98804  26.496  43.451   3.315
35037W        W98805  12.219  26.115  14.766
35038W        W98806  19.548  23.699   4.696
35039W        W98807  39.503  39.933   3.341
35040W        W98808  22.187  27.572   3.693
35041W        W98809  19.646  31.413  14.955
35042W        W98810  11.763   8.656   0.859
35043W        W98811  21.734  40.486   4.313
35044W        W98812  20.222   4.850  12.341
35045W        W98813  22.503  23.580  14.950
35046W        W98814  44.291   8.228  12.426
35047W        W98815  17.631  13.796  10.550
35048W        W98816  22.165  29.140  12.430
35049W        W98817  25.479  22.502   2.271
35050W        W98818   0.882  38.024   2.862
35051W        W98819  37.951  25.616  10.583
35052W        W98820  29.994   8.851   1.438
35053W        W98821   2.273  36.946   1.327
35054W        W98822  20.618  32.490  10.496
35055W        W98823  40.914  40.484   4.129
35056W        W98824  32.615  26.989   2.411
35057W        W98825  42.918  23.080   2.900
35058W        W98826  16.314  25.699   1.883
35059W        W98827  35.091  25.996  10.636
35060W        W98828   6.875  32.978  14.783
35061W        W98829  14.679  29.485  10.638
35062W        W98830  11.173  20.183   1.236
35063W        W98831  40.475  44.922  14.469
35064W        W98832   0.350  31.477  13.927
35065W        W98833  10.635   2.953   2.666
35066W        W98834  13.786  33.048   1.405
35067W        W98835  10.384  14.245   4.603
35068W        W98836  14.782  13.657  14.511
35069W        W98837  24.089  10.302  14.390
35070W        W98838  32.033  30.145  11.021
35071W        W98839  34.074   6.731  10.969
35072W        W98840   5.331  17.712   2.785
35073W        W98841  37.976  12.263   1.934
35074W        W98842  40.842  33.032   2.728
35075W        W98843   5.923  22.698   3.342
35076W        W98844  39.839  33.971   3.226
35077W        W98845   6.840   1.324  10.906
35078W        W98846  11.830  28.132  11.988
35079W        W98847  20.741   7.309  11.074
35080W        W98848  22.246  17.130  13.485
35081W        W98849   1.476  12.354   0.833
35082W        W98850  31.084   2.948   3.635
35083W        W98851  22.541  32.459  11.058
35084W        W98852  21.620   6.291  14.286
35085W        W98853  12.785  16.809   2.244
35086W        W98854  28.004  33.949   2.238
35087W        W98855   3.251  30.995   3.719
35088W        W98856  36.978  36.550   4.116
35089W        W98857  15.161  15.785   1.238
35090W        W98858  12.319  13.686   0.857
35091W        W98859   9.318  38.839   0.894
35092W        W98860  18.554  22.536   0.406
35093W        W98861  25.544  39.390   1.309
35094W        W98862  36.985  25.513  14.511
35095W        W98863   1.878  28.028  14.381
35096W        W98864  16.768  18.760  13.052
35097W        W98865   5.702   7.847  14.312
35098W        W98866  10.859  33.552  12.991
35099W        W98867  40.009  41.938   3.826
35100W        W98868  18.221  18.739   1.274
35101W        W98869  41.323  24.040   1.227
35102W        W98870  43.388  21.591   0.788
35103W        W98871   3.955   4.758  14.400
35104W        W98872  34.437  30.923   2.870
35105W        W98873  22.124  39.499  13.914
35106W        W98874  36.550   4.722  13.029
35107W        W98875  43.849  14.816  14.922
35108W        W98876  42.902   3.873  14.872
35109W        W98877  35.592  26.050  14.862
35110W        W98878  21.560   2.806   1.741
35111W        W98879   6.747   1.371   0.775
35112W        W98880  22.738  14.137  12.973
35113W        W98881  10.274  35.855  11.042
35114W        W98882  27.517  14.308   3.789
35115W        W98883  22.118  15.713  12.900
35116W        W98884   5.339  44.909   2.282
35117W        W98885  32.494  43.885  13.017
35118W        W98886  43.313  38.891   2.349
35119W        W98887  21.138  27.625  13.475
35120W        W98888  27.060  33.586  11.996
35121W        W98889   6.381  37.573   1.377
35122W        W98890  25.194   2.947   4.786
35123W        W98891  30.523  40.356   3.753
35124W        W98892  21.053  20.657   0.805
35125W        W98893  44.410  14.243   2.376
35126W        W98894  44.956  35.425   2.273
35127W        W98895  18.197  12.190  13.824
35128W        W98896   6.775  21.694  14.790
35129W        W98897  15.172  40.409  11.527
35130W        W98898   5.297  20.229  10.935
35131W        W98899   7.191  30.920   4.646
35132W        W98900  28.956  44.936  14.957
35133W        W98901  29.137  30.145   4.339
35134W        W98902  18.281  39.956  14.931
35135W        W98903  44.957   9.692   4.290
35136W        W98904  34.116  28.005   2.311
35137W        W98905  10.219  31.903   2.678
35138W        W98906   3.338  29.444   1.800
35139W        W98907  15.589   0.249  14.003
35140W        W98908  13.798  26.667  10.410
35141W        W98909  35.976  30.478  11.883
35142W        W98910  22.595  40.837   4.154
35143W        W98911  26.550   6.783  10.998
35144W        W98912  10.772  16.206   3.712
35145W        W98913  29.173  16.203   4.737
35146W        W98914   8.187  15.163   0.413
35147W        W98915  44.980  17.145  13.849
35148W        W98916  43.830  35.946  12.430
35149W        W98917  17.210   2.316   4.310
35150W        W98918  13.259  20.072  12.042
35151W        W98919  39.939  22.034   3.334
35152W        W98920  20.640  38.869  14.011
35153W        W98921  20.523  28.597  12.404
35154W        W98922   4.313  13.176  13.873
35155W        W98923  27.510  24.079   2.338
35156W        W98924  43.335   4.850  12.049
35157W        W98925  44.879   4.742  12.070
35158W        W98926  21.543  29.613  14.413
35159W        W98927  32.475  19.055  14.862
35160W        W98928  12.831  21.589  14.857
35161W        W98929   6.408  34.959   4.619
35162W        W98930  33.525  25.486   3.661
35163W        W98931  39.893  26.166  11.971
35164W        W98932  33.114  22.244   3.261
35165W        W98933  34.587   5.810  11.901
35166W        W98934  42.406   3.368  13.406
35167W        W98935  18.069  17.661  13.338
35168W        W98936  38.403  36.068  14.919
35169W        W98937  37.034  26.990  12.017
35170W        W98938  42.872  19.095   3.162
35171W        W98939   4.206   2.450  11.453
35172W        W98940  12.165  28.978  10.417
35173W        W98941  39.444  22.700   0.806
35174W        W98942  13.341  10.775  10.609
35175W        W98943  33.442  36.504  14.406
35176W        W98944  14.783  44.872  13.794
35177W        W98945  38.843  23.557  10.427
35178W        W98946   2.448  10.845   0.880
35179W        W98947   6.749  33.876   3.854
35180W        W98948  34.086  30.034   0.828
35181W        W98949   0.449  39.557   4.749
35182W        W98950  31.540   4.250  14.975
35183W        W98951  34.046  31.638  13.015
35184W        W98952   7.415  14.236  14.315
35185W        W98953  22.073  20.538   0.302
35186W        W98954  14.156  37.831  12.356
35187W        W98955  17.752   2.235   4.739
35188W        W98956  15.731  18.196  13.861
35189W        W98957  32.590  29.051   1.363
35190W        W98958   6.767   4.432  13.476
35191W        W98959  37.974  39.826  12.834
35192W        W98960  33.075  29.429  12.067
35193W        W98961  39.355  26.658  12.419
35194W        W98962  15.216  12.847  14.302
35195W        W98963  20.577  11.839  10.467
35196W        W98964  42.304  27.188  11.969
35197W        W98965  19.533  41.970   0.274
35198W        W98966  26.114   3.340   3.848
35199W        W98967  14.811  43.790   2.811
35200W        W98968  26.109  23.142   4.301
35201W        W98969  35.869  24.034  10.994
35202W        W98970  17.577   8.760  13.512
35203W        W98971   3.936   4.280   2.688
35204W        W98972  27.099  15.174   1.289
35205W        W98973  31.000  42.972  10.146
35206W        W98974  40.361  17.717   4.125
35207W        W98975  24.082  27.487   3.295
35208W        W98976   7.280   9.382  13.524
35209W        W98977  44.903  12.277  12.015
35210W        W98978  21.031   5.849  13.954
35211W        W98979  43.390  23.524  10.618
35212W        W98980  38.487  32.131  13.876
35213W        W98981  23.654  30.159  13.855
35214W        W98982  30.117  31.999   1.768
35215W        W98983  25.967  39.027  10.611
35216W        W98984   2.742  26.093   1.276
35217W        W98985  24.646  27.572   3.309
35218W        W98986  16.311  13.638  10.966
35219W        W98987  22.558  28.077  13.928
35220W        W98988  38.436   2.456   3.740
35221W        W98989   6.339  17.090  10.068
35222W        W98990  15.238   9.726   1.354
35223W        W98991  17.136  38.406  12.961
35224W        W98992  39.020  40.512  10.959
35225W        W98993  29.453   1.471  10.965
35226W        W98994   7.697   3.834   0.818
35227W        W98995   3.295  28.610  10.633
35228W        W98996  34.531  23.716  14.341
35229W        W98997   9.858  18.675  13.822
35230W        W98998  32.537   4.880   4.298
35231W        W98999   7.248  40.507  14.314
35232W        W99000  19.176  14.144  12.342
35233W        W99001   2.362   6.749  14.364
35234W        W99002   6.715   0.745  13.539
35235W        W99003  19.140  15.607  12.429
35236W        W99004  23.237  33.055   0.441
35237W        W99005  13.601  37.933   0.929
35238W        W99006  15.193   7.337   1.354
35239W        W99007  13.800  31.630   1.776
35240W        W99008  21.524  33.557   0.322
35241W        W99009  34.471  41.787   1.308
35242W        W99010   8.234   0.905  10.419
35243W        W99011  19.109  33.014  11.126
35244W        W99012  12.636  14.201   2.887
35245W        W99013  37.480   2.379   4.147
35246W        W99014  10.717  38.852  11.001
35247W        W99015   0.466  21.069   0.912
35248W        W99016  28.459  37.495   1.263
35249W        W99017  41.512  27.480   1.379
35250W        W99018  41.002  10.804  14.962
35251W        W99019  29.603  27.028  10.954
35252W        W99020  42.455  10.221  14.339
35253W        W99021  36.421   5.800  13.523
35254W        W99022   6.205  40.470  13.849
35255W        W99023  28.570  32.546  12.990
35256W        W99024  21.218  39.534   1.392
35257W        W99025  22.722  30.421  10.419
35258W        W99026  10.721  16.158  10.407
35259W        W99027  12.655   5.207  13.324
35260W        W99028  37.975  24.503   2.375
35261W        W99029  44.885  39.419  12.980
35262W        W99030   3.227  34.432  11.094
35263W        W99031  29.125   7.768   0.323
35264W        W99032  39.535  22.143  11.522
35265W        W99033   1.461  38.912  11.912
35266W        W99034  31.539  29.045   0.344
35267W        W99035  41.510   2.752   1.432
35268W        W99036  23.118  43.890   1.715
35269W        W99037  18.629  33.556   0.342
35270W        W99038  42.469   2.324   3.382
35271W        W99039  36.352  36.946   4.199
35272W        W99040  30.582   8.838   3.212
35273W        W99041   9.283   9.292   0.475
35274W        W99042  17.618  30.921  12.959
35275W        W99043  28.445  35.107   1.719
35276W        W99044  25.471  31.920   4.654
35277W        W99045  13.202  39.921  13.344
35278W        W99046  44.985  26.657   2.256
35279W        W99047  20.575   1.441   2.268
35280W        W99048   3.912  15.242   1.272
35281W        W99049  36.405  38.443  13.034
35282W        W99050  38.353   9.666  11.051
35283W        W99051  11.141  23.548   0.417
35284W        W99052   7.397  41.498  11.485
35285W        W99053  24.636  25.159  10.965
35286W        W99054  29.984   6.417   0.353
35287W        W99055  44.283  29.956   1.375
35288W        W99056  21.131  43.019   4.834
35289W        W99057   7.296  32.952   2.778
35290W        W99058  32.996  12.228   2.317
35291W        W99059   1.345  24.580   4.682
35292W        W99060  35.499  15.097  12.885
35293W        W99061  39.025  32.509   4.113
35294W        W99062  14.321  32.950   0.422
35295W        W99063  16.747  10.182  13.312
35296W        W99064  35.896  25.694  11.891
35297W        W99065  10.869  43.879  10.496
35298W        W99066  40.960   1.816   1.249
35299W        W99067  35.888  28.063  12.363
35300W        W99068  39.463   3.920   4.286
35301W        W99069  21.673   5.925   0.270
35302W        W99070  27.668   6.366   2.193
35303W        W99071  14.617  34.926  12.881
35304W        W99072  42.370   7.297   3.811
35305W        W99073  33.013  20.140  12.509
35306W        W99074   6.401  10.638  14.796
35307W        W99075  20.098   6.213   2.386
35308W        W99076  42.814  31.505  14.303
35309W        W99077  21.078   6.729  14.425
35310W        W99078  33.460  10.792  12.504
35311W        W99079   1.864  29.114   4.317
35312W        W99080  43.312  36.025  12.034
35313W        W99081  15.667   1.325  12.502
35314W        W99082  23.490   0.899   2.242
35315W        W99083  15.823   2.461  11.102
35316W        W99084  20.090  13.266  10.918
35317W        W99085   1.317  20.131  14.349
35318W        W99086  31.988   6.682   1.371
35319W        W99087  39.462  12.213   0.946
35320W        W99088  37.404   0.283   2.331
35321W        W99089  35.399  14.316  11.100
35322W        W99090  13.754   5.757  14.502
35323W        W99091  34.906  36.021  13.548
35324W        W99092  16.296  44.363  11.942
35325W        W99093   7.777   4.347   2.703
35326W        W99094  42.329  31.954  10.905
35327W        W99095   1.914  35.883   3.632
35328W        W99096  40.447  16.702  13.334
35329W        W99097  41.460  40.505   1.358
35330W        W99098  44.816  21.050  11.543
35331W        W99099  31.018  29.018  14.973
35332W        W99100  30.009  40.805   2.271
35333W        W99101  40.463  15.607   0.783
35334W        W99102  27.006  12.799  13.042
35335W        W99103  12.154   0.784  13.838
35336W        W99104  40.313  11.357  11.610
35337W        W99105  15.189  26.468   5.173
35338W        W99106  18.089  41.479   4.722
35339W        W99107  36.929  30.561  11.090
35340W        W99108  22.080  38.948  12.563
35341W        W99109  21.744  10.734   2.400
35342W        W99110  27.092  22.566  14.406
35343W        W99111  39.884  44.444  12.029
35344W        W99112  16.196  11.758   2.734
35345W        W99113  14.211  42.028   4.778
35346W        W99114   0.400   5.724  11.371
35347W        W99115  26.627  15.753   4.634
35348W        W99116  12.186  33.086   4.635
35349W        W99117  17.246  17.173   0.857
35350W        W99118   5.378  41.509  12.831
35351W        W99119  24.188  19.728   1.715
35352W        W99120  10.823  14.768   4.297
35353W        W99121  35.439  41.896  11.129
35354W        W99122  17.227   7.236  12.899
35355W        W99123   0.832  38.930  12.548
35356W        W99124  30.150   5.261  11.600
35357W        W99125  11.174   4.277   3.199
35358W        W99126  19.777  44.295  14.504
35359W        W99127  41.941   6.307   2.410
35360W        W99128  20.579  43.978  14.963
35361W        W99129   1.458  43.301   2.849
35362W        W99130  44.426  25.690   4.135
35363W        W99131   2.351  32.966   2.387
35364W        W99132  20.227   9.386   3.382
35365W        W99133  28.483  33.948   5.244
35366W        W99134  16.307  20.249  10.901
35367W        W99135  39.370  38.347   2.690
35368W        W99136   2.454  11.162  13.982
35369W        W99137  13.168   6.206   4.164
35370W        W99138  20.640  10.838  10.438
35371W        W99139   8.846   8.709  11.956
35372W        W99140  12.786  19.277  11.527
35373W        W99141  33.570  10.272   4.172
35374W        W99142  25.571  20.769   2.280
35375W        W99143  42.973  19.071  14.449
35376W        W99144  21.038  42.015   4.149
35377W        W99145   1.737  39.877  11.430
35378W        W99146  41.816  11.803  11.396
35379W        W99147  17.265   7.695  12.942
35380W        W99148  34.000  23.049  13.423
35381W        W99149  34.075  33.599  11.436
35382W        W99150  32.052  28.021   2.833
35383W        W99151   6.188   9.348   0.792
35384W        W99152  36.951   2.338   2.684
35385W        W99153  44.815  38.449  14.397
35386W        W99154  15.795  23.231  10.083
35387W        W99155  21.749  43.434  13.025
35388W        W99156   1.371  30.067   2.796
35389W        W99157  15.145   2.781  10.642
35390W        W99158  11.208  22.236   1.892
35391W        W99159   1.292  33.417  11.026
35392W        W99160   4.329  18.145   2.398
35393W        W99161   8.764  32.945   2.901
35394W        W99162   7.787  29.022  12.913
35395W        W99163  27.519   8.890   3.356
35396W        W99164  30.561  31.626  14.297
35397W        W99165  24.528  26.158   0.448
35398W        W99166  13.709  37.049   0.339
35399W        W99167  35.950  21.099   4.181
35400W        W99168  32.948   6.253  10.416
35401W        W99169  25.134  35.085   1.280
35402W        W99170  11.838  20.552   0.840
35403W        W99171   3.936  16.755   3.157
35404W        W99172  40.415  43.419  14.483
35405W        W99173  25.538  10.807  11.895
35406W        W99174  38.325   6.718  13.958
35407W        W99175  42.006  18.066  12.559
35408W        W99176   9.209  32.618   4.760
35409W        W99177  35.872  24.117   3.286
35410W        W99178  13.733  11.714  13.984
35411W        W99179  35.421  12.677   1.413
35412W        W99180  29.027  10.298   2.294
35413W        W99181  18.610  43.878  14.027
35414W        W99182  21.133   7.390  14.370
35415W        W99183  43.930  10.377   0.946
35416W        W99184  13.264  38.824  12.034
35417W        W99185  21.082   1.450   2.246
35418W        W99186  36.094   0.778  14.820
35419W        W99187  32.912  33.942  12.490
35420W        W99188  30.107  17.621  13.826
35421W        W99189   5.737  39.467  12.533
35422W        W99190   3.256  15.623   1.379
35423W        W99191   6.243  40.334  11.871
35424W        W99192  25.003   5.209   1.289
35425W        W99193  14.603  15.797   0.446
35426W        W99194  33.393  44.347   3.147
35427W        W99195  21.757  32.577   0.264
35428W        W99196  27.678  20.037  10.417
35429W        W99197   2.916  21.139  11.502
35430W        W99198  19.723  29.588  13.852
35431W        W99199  28.952  32.941  14.328
35432W        W99200  11.665  40.445  12.404
35433W        W99201  23.724  19.617  12.927
35434W        W99202   5.861  36.999   2.224
35435W        W99203  24.548  31.013  10.509
35436W        W99204  12.240  15.274  14.515
35437W        W99205  21.677  38.474  11.923
35438W        W99206  44.761  43.838  13.017
35439W        W99207  11.785  43.897   0.786
35440W        W99208  24.002   2.378   3.756
35441W        W99209  29.040  34.984  13.320
35442W        W99210  28.982  22.061  11.013
35443W        W99211  34.035  26.579   0.901
35444W        W99212  30.653  41.792   5.119
35445W        W99213  36.516  14.233  13.825
35446W        W99214  21.226  43.007  10.038
35447W        W99215  28.582  15.140  13.993
35448W        W99216  17.753  28.441   3.307
35449W        W99217   3.775  11.204  11.104
35450W        W99218  42.302  24.720  11.917
35451W        W99219  27.096   6.798  14.455
35452W        W99220  16.781  20.566  10.148
35453W        W99221  36.856  37.010  10.488
35454W        W99222  17.687  15.744  12.060
35455W        W99223  37.466  34.974   0.320
35456W        W99224  39.894  33.548  13.449
35457W        W99225  28.042  33.527   3.671
35458W        W99226  12.308  14.739  13.916
35459W        W99227   7.731   7.282   1.754
35460W        W99228  13.109  44.284  13.880
35461W        W99229   5.736  24.223  11.399
35462W        W99230   0.941   4.783  14.427
35463W        W99231  16.697  14.698   2.750
35464W        W99232  14.728  24.706   1.780
35465W        W99233  43.929  28.167  12.392
35466W        W99234   4.368   0.449   0.450
35467W        W99235  41.374  30.105   0.847
35468W        W99236  17.610  19.159  14.852
35469W        W99237  33.002  40.938   1.331
35470W        W99238  26.037  32.968   5.630
35471W        W99239   3.255   7.251  13.958
35472W        W99240   5.835  18.775   3.216
35473W        W99241  40.306   3.257  13.397
35474W        W99242   5.832   7.388   2.819
35475W        W99243  13.321  28.962   0.923
35476W        W99244   0.818  31.574  11.961
35477W        W99245  10.866  43.335   0.254
35478W        W99246  26.546  35.051   1.318
35479W        W99247  26.201   4.744   2.196
35480W        W99248  34.474   6.183  11.976
35481W        W99249  10.176  25.645   1.824
35482W        W99250  27.962  18.707  13.413
35483W        W99251  10.375   6.697   2.875
35484W        W99252  28.174   7.188   0.897
35485W        W99253  44.801  33.972   2.894
35486W        W99254  36.084  34.429   1.415
35487W        W99255  41.897  34.966   3.688
35488W        W99256   6.775  20.140   4.202
35489W        W99257  13.839   9.823  12.968
35490W        W99258   4.910   4.362  10.970
35491W        W99259   4.705  20.134  13.321
35492W        W99260  10.344  16.644   1.874
35493W        W99261  18.119  14.310   3.834
35494W        W99262   2.870  32.490   0.817
35495W        W99263  38.353  24.603  12.433
35496W        W99264  27.614  18.609  10.626
35497W        W99265   5.308  19.774   4.640
35498W        W99266  13.721  34.021   3.275
35499W        W99267   4.848  17.179  12.866
35500W        W99268  36.436   0.307  11.935
35501W        W99269  35.498  44.292   1.874
35502W        W99270  36.560  36.369  13.838
35503W        W99271  36.400  36.525   2.824
35504W        W99272  41.424  23.084   4.759
35505W        W99273  37.567  13.827  10.564
35506W        W99274   0.878  38.038   1.818
35507W        W99275   8.274  37.968  14.010
35508W        W99276   9.698   1.936   4.732
35509W        W99277  33.100  11.292  14.923
35510W        W99278   7.824  30.533  12.869
35511W        W99279  15.297  28.156   1.413
35512W        W99280  39.901  35.908   0.917
35513W        W99281  22.608   3.823  11.598
35514W        W99282  33.433  23.513   3.194
35515W        W99283  29.172   2.878   4.352
35516W        W99284  34.456  30.046   1.356
35517W        W99285  34.444  44.295   1.341
35518W        W99286  17.756  19.093   4.187
35519W        W99287  39.893  19.168   0.777
35520W        W99288  26.466  44.380   0.947
35521W        W99289  35.461  25.626  11.543
35522W        W99290  18.655  40.441  10.583
35523W        W99291  20.743  30.091   2.277
35524W        W99292  21.625  21.586   2.760
35525W        W99293  20.690  24.575   3.822
35526W        W99294  44.795  23.631  12.859
35527W        W99295  40.938   6.902  14.881
35528W        W99296  41.416   4.751   3.321
35529W        W99297  38.422  37.371   4.232
35530W        W99298  14.144  10.687   1.372
35531W        W99299  17.125  14.269  11.942
35532W        W99300  19.219  10.825  11.083
35533W        W99301  12.355  24.532   3.688
35534W        W99302  16.759  39.034   4.818
35535W        W99303  38.387   5.852  10.415
35536W        W99304  40.045  34.601   0.455
35537W        W99305  10.647  13.641  13.518
35538W        W99306  28.453  42.349   1.253
35539W        W99307  39.412  32.926  10.992
35540W        W99308  20.644  35.572   4.222
35541W        W99309  12.333  32.100   5.273
35542W        W99310  43.933  22.747  14.017
35543W        W99311  42.992  31.425  11.573
35544W        W99312   4.404  22.073   0.264
35545W        W99313  37.952   4.437   1.227
35546W        W99314   8.814  39.943  13.852
35547W        W99315  41.497  16.592  14.889
35548W        W99316  25.555   1.369  10.947
35549W        W99317  10.196  11.826   2.880
35550W        W99318  25.174  43.959   0.891
35551W        W99319  42.917   7.872   0.445
35552W        W99320  13.146  33.453   4.301
35553W        W99321  13.615  42.014   4.697
35554W        W99322  38.067   4.451  11.106
35555W        W99323  25.649   7.734   3.186
35556W        W99324   5.738  24.692   4.697
35557W        W99325  41.312   7.224  11.968
35558W        W99326   8.824  36.363   4.727
35559W        W99327   6.874   6.370  13.882
35560W        W99328  25.104  28.989   1.925
35561W        W99329  34.890  25.161   0.343
35562W        W99330   3.741  31.571   3.319
35563W        W99331  39.917   6.747   4.285
35564W        W99332  40.013   4.729   4.268
35565W        W99333   8.812  10.705   1.281
35566W        W99334  36.094   1.876  12.051
35567W        W99335  30.539  30.069   3.208
35568W        W99336  30.576   4.771   1.793
35569W        W99337   9.875  43.766  11.490
35570W        W99338  32.613  37.571  14.481
35571W        W99339  17.711  21.734  14.999
35572W        W99340   0.480  21.128  14.416
35573W        W99341  18.088  11.628  13.032
35574W        W99342  21.063   3.288  14.813
35575W        W99343  40.308  10.228   0.325
35576W        W99344  13.662  18.107   4.195
35577W        W99345  14.655  12.231  13.488
35578W        W99346  14.601  19.188   0.246
35579W        W99347   2.723   1.897   4.319
35580W        W99348  25.704  15.758   2.350
35581W        W99349  10.370  13.701   3.186
35582W        W99350  37.489  36.873  14.804
35583W        W99351  13.233  39.053  12.440
35584W        W99352  22.648   5.221   4.627
35585W        W99353  34.969  40.012  11.086
35586W        W99354   4.754  29.939   0.319
35587W        W99355  14.108  37.900   3.835
35588W        W99356  31.996  29.170  12.519
35589W        W99357  36.558  38.395  13.431
35590W        W99358  35.996  21.227  13.387
35591W        W99359  16.626  23.085  12.056
35592W        W99360  18.575  28.644  13.957
35593W        W99361  29.567  36.404   1.776
35594W        W99362  28.981   0.763  12.974
35595W        W99363  10.140  42.421  10.539
35596W        W99364  20.559   2.941   3.299
35597W        W99365   1.759   3.374   4.751
35598W        W99366  10.173  27.689   2.338
35599W        W99367   9.720  34.558  11.413
35600W        W99368   0.752  15.719  13.309
35601W        W99369  29.042  40.008   1.858
35602W        W99370  33.461  39.994  13.435
35603W        W99371   4.932   4.719   3.698
35604W        W99372  19.045   2.871   2.876
35605W        W99373   8.273  39.402  11.867
35606W        W99374  23.543  13.762   1.897
35607W        W99375  19.144   1.926   3.694
35608W        W99376  18.123  32.522   3.861
35609W        W99377  22.510  37.036  12.876
35610W        W99378  11.795  15.172   3.675
35611W        W99379  16.297  28.613   0.852
35612W        W99380  33.576  44.829  12.341
35613W        W99381  11.303  29.080  13.889
35614W        W99382  31.554  44.416   0.937
35615W        W99383  37.056  12.611  14.826
35616W        W99384  12.722  14.095  10.409
35617W        W99385   8.760  29.941  12.530
35618W        W99386  13.114   5.707  13.932
35619W        W99387  37.415  28.940  12.939
35620W        W99388  41.535   0.772  12.039
35621W        W99389  11.202  23.107  14.501
35622W        W99390  44.797  35.549   4.297
35623W        W99391  33.556  28.118  11.881
35624W        W99392  40.545  30.611  11.014
35625W        W99393   4.920   5.733   3.634
35626W        W99394  28.595  17.780   4.772
35627W        W99395  39.450   0.890   2.200
35628W        W99396   5.862  24.989  14.762
35629W        W99397   7.218  15.580   0.939
35630W        W99398  20.619   3.850   4.757
35631W        W99399   1.381  26.988  11.116
35632W        W99400  12.780   2.268   2.686
35633W        W99401  18.160  30.565   2.835
35634W        W99402  24.230  23.565   0.913
35635W        W99403  26.648  22.130   1.262
35636W        W99404   2.778  43.004  12.471
35637W        W99405  36.934  15.643  13.954
35638W        W99406  32.451  26.970  14.447
35639W        W99407  24.980  10.862  12.844
35640W        W99408  41.810  23.702  14.016
35641W        W99409  34.931  27.978  11.531
35642W        W99410  37.069  36.067  10.910
35643W        W99411  33.539  31.586   4.355
35644W        W99412   2.835  10.839   0.735
35645W        W99413  29.500  10.718  11.074
35646W        W99414  27.008   2.431   2.822
35647W        W99415  24.650   7.245  13.514
35648W        W99416   8.221  40.385   0.743
35649W        W99417  22.113  18.736   1.328
35650W        W99418  39.005  22.017   4.721
35651W        W99419  21.242  26.530   4.688
35652W        W99420   0.251  23.119   3.668
35653W        W99421  25.111  24.136  12.867
35654W        W99422  25.641  33.500   5.683
35655W        W99423   7.391  38.949  14.365
35656W        W99424  40.473  42.394  12.424
35657W        W99425  41.850  25.054   2.727
35658W        W99426  39.028  36.071   1.259
35659W        W99427  30.574   9.161   4.828
35660W        W99428  42.344  43.793   2.192
35661W        W99429   3.242  44.435  11.599
35662W        W99430  36.571   9.869   4.813
35663W        W99431  25.710   7.265   3.706
35664W        W99432  37.939  22.180   3.856
35665W        W99433  11.361  34.394  12.547
35666W        W99434  24.564  27.032  10.616
35667W        W99435  27.184  15.608  14.983
35668W        W99436   3.310  44.282  13.826
35669W        W99437  10.144   0.361  13.408
35670W        W99438  33.467   6.723   3.374
35671W        W99439  15.809  33.607   1.843
35672W        W99440  31.417  43.862   4.736
35673W        W99441  19.645   2.383  14.489
35674W        W99442  43.315   4.399   0.867
35675W        W99443  29.617  36.462  10.414
35676W        W99444  26.007  36.464   2.258
35677W        W99445  13.279  24.162   1.240
35678W        W99446   4.807  15.143  11.593
35679W        W99447   5.689   6.315  10.614
35680W        W99448   3.358   1.446   2.842
35681W        W99449   4.823  10.334  11.865
35682W        W99450  30.965   5.903   2.262
35683W        W99451   1.970  34.042  14.911
35684W        W99452  32.954  32.478  13.450
35685W        W99453   5.855  40.881  10.542
35686W        W99454   8.772  36.387  14.277
35687W        W99455  42.399  26.186   0.418
35688W        W99456  22.175  26.556  10.456
35689W        W99457  16.578   9.737  13.341
35690W        W99458  44.887  15.126   4.782
35691W        W99459  21.596  16.642   4.142
35692W        W99460  25.136  13.831  12.346
35693W        W99461   3.263   6.232   1.932
35694W        W99462  12.237  16.204   3.277
35695W        W99463  13.276  30.158  11.111
35696W        W99464  22.645  16.274  11.033
35697W        W99465  35.423  18.215   2.837
35698W        W99466  17.601  12.760  13.004
35699W        W99467  21.744  39.881  10.910
35700W        W99468  21.674  39.525   3.158
35701W        W99469  31.939  30.606  13.999
35702W        W99470  38.072   0.275   1.393
35703W        W99471  43.955   1.453   1.909
35704W        W99472  34.408  33.045   3.755
35705W        W99473  17.289   5.737   1.715
35706W        W99474   2.954  36.990   4.308
35707W        W99475  34.979   8.397  10.623
35708W        W99476  44.795  30.473   0.896
35709W        W99477  38.569   2.830  10.436
35710W        W99478  41.389  38.436  13.945
35711W        W99479  39.553  20.576   3.279
35712W        W99480   7.908   8.662   2.279
35713W        W99481  19.132  40.328  10.900
35714W        W99482  11.769  35.973  10.092
35715W        W99483  41.295  44.447  12.080
35716W        W99484  22.185   6.879  12.070
35717W        W99485  34.995  14.645  11.421
35718W        W99486  36.458  31.485   4.288
35719W        W99487  32.989  12.218  13.803
35720W        W99488   5.765  10.227  11.599
35721W        W99489  33.941  12.824  14.864
35722W        W99490  25.524  32.566  11.429
35723W        W99491   7.185  33.600  11.604
35724W        W99492  15.796  13.786  13.350
35725W        W99493   6.774  32.096  10.435
35726W        W99494  19.224   3.931   1.750
35727W        W99495  37.408  20.068  11.096
35728W        W99496  30.642  20.252  10.548
35729W        W99497  32.013   8.732  10.142
35730W        W99498  10.722  31.918  10.408
35731W        W99499  10.283  37.509  10.068
35732W        W99500  38.942  26.094   4.189
35733W        W99501   4.840   5.293   3.378
35734W        W99502  44.292   3.779  14.296
35735W        W99503  24.039   8.220   0.382
35736W        W99504  33.408  28.513  10.416
35737W        W99505  44.904   3.307   3.705
35738W        W99506  40.384   2.256  13.976
35739W        W99507  24.528  30.604  10.448
35740W        W99508  11.719  37.448  13.952
35741W        W99509  36.572  35.367  12.449
35742W        W99510  19.775   9.727   0.339
35743W        W99511  33.905  42.395  13.407
35744W        W99512  10.344  15.106   4.603
35745W        W99513  31.588   9.784   2.362
35746W        W99514   8.381  32.550   3.294
35747W        W99515  22.540   6.762  14.891
35748W        W99516  35.601  12.314   3.211
35749W        W99517  33.110  12.241   2.688
35750W        W99518   0.433  44.810  12.443
35751W        W99519  33.085  10.323  10.892
35752W        W99520  40.537  32.540   3.242
35753W        W99521  24.006  30.018  14.874
35754W        W99522  42.952  28.517   0.835
35755W        W99523  37.023  23.734   1.700
35756W        W99524  26.122  17.075   3.801
35757W        W99525  38.442  39.492  14.997
35758W        W99526   9.883  32.945   4.343
35759W        W99527  41.376  33.883  13.397
35760W        W99528  31.070  21.244  10.515
35761W        W99529   3.376  14.639  12.876
35762W        W99530  30.972  28.568  14.283
35763W        W99531  30.998   0.353   4.120
35764W        W99532  25.159  27.485   3.151
35765W        W99533   6.192   1.364   4.310
35766W        W99534  36.379  18.112  12.442
35767W        W99535  19.054  29.078  13.890
35768W        W99536  17.270   9.648  10.427
35769W        W99537  29.146   9.677  11.503
35770W        W99538   9.274  39.452   2.794
35771W        W99539   5.860  10.700   0.755
35772W        W99540   4.858  29.451   3.179
35773W        W99541  15.242   4.820  13.035
35774W        W99542  21.524  23.586   0.791
35775W        W99543  28.603  33.029  10.611
35776W        W99544  23.063  21.750   3.167
35777W        W99545  35.407  17.609  12.889
35778W        W99546  33.456  26.552  11.934
35779W        W99547   4.287  17.245  10.452
35780W        W99548  28.046  27.993  12.553
35781W        W99549  12.709  20.063  14.472
35782W        W99550  17.677  37.082   4.291
35783W        W99551  19.282   3.864   4.213
35784W        W99552  13.188   9.690   0.927
35785W        W99553  39.964   6.808   5.272
35786W        W99554  37.985  39.482   3.255
35787W        W99555  24.483  18.183   0.371
35788W        W99556  17.243  20.714  10.461
35789W        W99557  10.742  40.988   3.205
35790W        W99558  33.385   7.886   1.227
35791W        W99559  40.015   6.899  13.478
35792W        W99560  25.161   0.779  13.480
35793W        W99561  33.394  36.848  14.387
35794W        W99562  38.364  30.100   2.786
35795W        W99563  24.187  21.133   0.949
35796W        W99564  13.264  10.825  12.960
35797W        W99565   6.399  25.658  10.114
35798W        W99566  43.289  26.104   4.742
35799W        W99567  39.431  11.360   1.386
35800W        W99568   9.647   5.258   2.292
35801W        W99569  31.010  24.215  14.456
35802W        W99570  43.848   3.749  11.027
35803W        W99571  11.332   2.303   3.668
35804W        W99572  42.378   4.420  11.575
35805W        W99573  33.024   0.392  12.384
35806W        W99574   1.410  23.055  14.881
35807W        W99575  12.129  11.184   5.082
35808W        W99576  28.136  29.081  10.527
35809W        W99577  44.329  14.735   3.695
35810W        W99578   4.776  19.655   1.440
35811W        W99579  28.024  29.464  11.399
35812W        W99580   3.825  30.008  14.938
35813W        W99581   3.385  22.652   5.262
35814W        W99582  32.607  42.406   0.840
35815W        W99583  43.913  41.024   3.774
35816W        W99584  28.550  35.877   1.349
35817W        W99585  27.086  19.576  12.434
35818W        W99586  26.175  27.068   0.269
35819W        W99587   8.240  29.167  14.339
35820W        W99588  29.578  44.966  13.521
35821W        W99589  12.250  44.881  13.411
35822W        W99590   7.208  34.053  12.411
35823W        W99591  25.545  18.680   1.309
35824W        W99592  42.853  37.012  11.974
35825W        W99593  19.746  13.723  11.921
35826W        W99594  24.699  26.637  14.329
35827W        W99595  41.014  14.287   0.733
35828W        W99596   8.684  42.008   2.835
35829W        W99597  21.194   4.699   0.965
35830W        W99598  43.485  10.737   4.308
35831W        W99599  36.955  30.609   1.367
35832W        W99600  28.520   7.243   2.807
35833W        W99601  26.688  17.675  11.590
35834W        W99602  31.094  26.559  10.894
35835W        W99603  18.558  43.480  13.402
35836W        W99604  42.814   0.744  10.498
35837W        W99605   3.339  11.185  13.834
35838W        W99606  25.013   0.415   4.296
35839W        W99607  42.399  43.817   4.662
35840W        W99608  33.921  13.691  11.948
35841W        W99609   9.288  11.279  14.392
35842W        W99610  38.425   2.237  11.447
35843W        W99611  30.005   3.805  14.907
35844W        W99612  41.487   6.745  11.007
35845W        W99613  35.951  30.494   0.900
35846W        W99614  10.633  29.066   4.281
35847W        W99615  37.524   8.260  13.044
35848W        W99616   0.336  37.959   4.231
35849W        W99617  27.588  29.032  13.375
35850W        W99618  34.508  39.517   1.297
35851W        W99619  37.904  18.122   2.263
35852W        W99620  25.592  37.868  11.547
35853W        W99621   6.807  37.553   2.671
35854W        W99622   6.292  29.535   0.463
35855W        W99623  22.675  33.559  14.926
35856W        W99624  10.189   6.315  13.019
35857W        W99625   4.349  32.140  12.547
35858W        W99626  12.222  26.077  13.898
35859W        W99627  38.545   5.882   0.922
35860W        W99628  22.164  21.562   4.629
35861W        W99629  20.220  33.498   1.695
35862W        W99630  22.626   9.825   3.798
35863W        W99631   0.842  21.580  13.058
35864W        W99632   7.827   3.442   5.202
35865W        W99633   3.775   9.315   1.814
35866W        W99634  37.403  26.493  10.145
35867W        W99635  11.636  26.699  13.447
35868W        W99636  19.772   0.904  13.819
35869W        W99637  25.495   0.747  11.482
35870W        W99638  35.467  29.071   4.811
35871W        W99639  16.295  32.506   1.312
35872W        W99640  23.591  20.743   0.956
35873W        W99641   9.703   5.433   0.749
35874W        W99642   5.260  23.563  11.984
35875W        W99643   5.776   5.713   4.322
35876W        W99644  20.063  11.673  12.881
35877W        W99645  15.617   2.943  11.599
35878W        W99646   1.297  14.679   1.935
35879W        W99647  23.006  41.915  12.965
35880W        W99648   0.982  30.558   1.414
35881W        W99649  10.290  14.615   2.869
35882W        W99650  22.553  17.764  10.487
35883W        W99651  19.603  33.017   0.885
35884W        W99652  15.217  17.600  14.959
35885W        W99653  10.353  13.250   4.229
35886W        W99654  19.271   6.744   1.410
35887W        W99655  23.156  13.285   0.288
35888W        W99656  12.734   1.446   4.832
35889W        W99657  37.850  44.893   3.242
35890W        W99658  11.749  14.717   0.812
35891W        W99659  40.415  39.020   5.203
35892W        W99660  14.831   8.402  14.953
35893W        W99661  26.178   0.474   3.735
35894W        W99662  20.628  13.292   1.283
35895W        W99663  18.251   2.742  10.521
35896W        W99664  42.510  21.053   2.875
35897W        W99665   2.302  13.773  12.899
35898W        W99666   2.775  43.808  11.972
35899W        W99667  41.873  29.661   4.235
35900W        W99668  23.207   7.752  12.345
35901W        W99669   2.952   6.774   3.162
35902W        W99670  37.027  12.303   3.724
35903W        W99671  12.183  13.311  13.325
35904W        W99672  14.145  23.134   2.364
35905W        W99673  19.587  12.811  11.437
35906W        W99674  42.408  34.905   2.198
35907W        W99675  19.648  44.370  14.794
35908W        W99676  13.163   2.957   1.857
35909W        W99677  42.313  18.728   1.389
35910W        W99678   4.792  31.958   1.804
35911W        W99679   9.353  39.466  11.041
35912W        W99680  25.093  13.270  12.906
35913W        W99681  32.992  13.328   3.847
35914W        W99682  33.476   0.766  12.897
35915W        W99683  25.639  37.349  11.612
35916W        W99684  28.614   5.865   3.267
35917W        W99685  11.352   4.713   0.866
35918W        W99686   7.254  20.583   1.755
35919W        W99687  21.047  11.761  10.415
35920W        W99688   3.796  37.989  10.995
35921W        W99689  17.779  19.279  13.007
35922W        W99690   7.349   1.863  11.872
35923W        W99691  23.587  26.072  13.823
35924W        W99692  29.536  34.593   1.860
35925W        W99693  44.970   0.764   3.737
35926W        W99694  31.499  21.559   3.374
35927W        W99695  26.966  20.164   2.231
35928W        W99696   6.419  17.272   3.203
35929W        W99697   6.726   9.376  11.072
35930W        W99698  12.675  19.705  14.849
35931W        W99699  28.112  44.004   4.278
35932W        W99700  36.923  35.382  10.636
35933W        W99701   6.793  24.614  14.776
35934W        W99702  17.571  31.531   0.726
35935W        W99703  25.484  35.910   5.691
35936W        W99704  29.611  15.596  10.563
35937W        W99705  12.651  31.415  13.407
35938W        W99706  31.012   2.907   1.291
35939W        W99707  10.350  32.085   1.707
35940W        W99708   0.492  43.843  11.907
35941W        W99709  15.211  42.994   2.867
35942W        W99710  33.543  40.484   2.842
35943W        W99711  44.280  26.061  14.366
35944W        W99712  20.601  31.997   0.246
35945W        W99713  14.252   1.265  13.873
35946W        W99714   3.362  11.178  14.881
35947W        W99715  27.155   2.938   4.272
35948W        W99716   7.773  32.466  11.096
35949W        W99717  20.110  25.126  12.947
35950W        W99718  26.520  40.830   1.217
35951W        W99719  11.748  19.651  10.112
35952W        W99720  42.811   2.854   2.382
35953W        W99721   9.751  30.144  11.423
35954W        W99722   5.216   0.794  12.958
35955W        W99723  39.532   9.850  12.988
35956W        W99724  38.564  25.068  14.351
35957W        W99725  15.678  12.133  12.997
35958W        W99726   1.240   5.294   2.726
35959W        W99727  41.363  41.012   2.827
35960W        W99728  31.018  26.199   3.756
35961W        W99729  37.008  43.307   3.384
35962W        W99730  18.709   3.728  13.919
35963W        W99731  15.774  19.634   1.263
35964W        W99732  10.180  33.919   3.785
35965W        W99733   6.820  27.469  14.386
35966W        W99734   6.227  28.099  10.549
35967W        W99735  12.662   9.868   1.270
35968W        W99736  42.299  37.581   2.711
35969W        W99737  12.163  11.724   0.433
35970W        W99738  24.059  36.397  13.358
35971W        W99739  30.936  37.019   3.344
35972W        W99740  26.186   4.836  13.347
35973W        W99741  13.333   6.358  11.086
35974W        W99742  33.623  43.468  10.635
35975W        W99743  25.666  32.890   9.561
35976W        W99744  10.718   4.233   2.213
35977W        W99745  27.586   7.805  14.980
35978W        W99746   0.869  38.397   2.861
35979W        W99747  25.698  22.671   3.670
35980W        W99748   4.854  36.517   0.900
35981W        W99749  18.214   3.733   0.912
35982W        W99750   3.808  36.914   4.146
35983W        W99751  10.659  24.720   0.338
35984W        W99752  12.629  36.583   0.439
35985W        W99753  17.091  43.391   3.271
35986W        W99754   2.936  30.605   0.255
35987W        W99755  19.118  28.565  13.394
35988W        W99756  25.077  15.665   5.120
35989W        W99757  23.007   9.665   2.292
35990W        W99758   0.426  35.871  12.342
35991W        W99759   9.827  31.935   0.946
35992W        W99760  19.560  42.932   0.282
35993W        W99761   6.681  19.681  12.823
35994W        W99762  36.416   6.283   4.664
35995W        W99763  28.670  15.609   1.819
35996W        W99764  30.570  36.406   4.622
35997W        W99765   2.443  35.985  11.083
35998W        W99766   9.308  30.103   3.753
35999W        W99767   3.899  32.539   2.872
36000W        W99768  39.002   3.905  10.616
36001W        W99769  34.889   3.781  11.866
36002W        W99770  29.163  10.801   1.933
36003W        W99771  27.543  30.058   1.811
36004W        W99772  19.709  34.535   2.233
36005W        W99773  42.888  39.473   2.331
36006W        W99774  40.462  20.634  13.312
36007W        W99775  14.832  29.085   3.310
36008W        W99776  16.702  12.772  14.491
36009W        W99777   7.171  38.974   0.779
36010W        W99778   4.870  37.865  13.307
36011W        W99779  34.462   0.868  14.319
36012W        W99780   1.287  38.561   3.672
36013W        W99781  25.057  17.681   2.895
36014W        W99782  29.045  11.819  13.979
36015W        W99783  26.979  39.922   3.261
36016W        W99784  19.711  37.932   1.386
36017W        W99785   4.889   2.941  14.362
36018W        W99786  28.113  11.853   5.256
36019W        W99787  28.024   0.326   2.821
36020W        W99788  43.994  33.488  13.967
36021W        W99789  40.945  10.197   3.729
36022W        W99790  16.581  25.000  11.024
36023W        W99791  39.882  32.422  11.478
36024W        W99792  23.058  29.563   1.777
36025W        W99793  40.441  11.373  13.031
36026W        W99794   1.853  42.429   1.706
36027W        W99795  25.108  24.515  14.293
36028W        W99796  25.690  44.321  10.492
36029W        W99797  27.499  33.943  14.323
36030W        W99798  20.093  29.493   1.314
36031W        W99799  22.219  21.565   1.398
36032W        W99800   3.454  12.278   1.896
36033W        W99801  10.148  23.508   2.307
36034W        W99802   9.328   0.489   2.352
36035W        W99803  20.036   2.291   0.893
36036W        W99804  23.565   6.266  12.537
36037W        W99805  36.442  15.594   1.710
36038W        W99806  17.706  33.483   3.313
36039W        W99807  21.657  34.553  13.340
36040W        W99808  36.879  19.222   2.818
36041W        W99809  31.063   7.237  12.841
36042W        W99810  37.481  17.146  10.950
36043W        W99811  35.103  29.483   4.348
36044W        W99812  37.355  42.819  11.535
36045W        W99813  15.234  20.749  11.038
36046W        W99814  37.944  16.155   4.292
36047W        W99815  17.568   2.377  13.469
36048W        W99816  26.156  35.921  12.094
36049W        W99817  30.475  38.945  10.967
36050W        W99818  11.216   6.426   4.669
36051W        W99819  15.172  36.989   1.711
36052W        W99820  25.109  32.895   9.672
36053W        W99821  28.503  38.917   2.870
36054W        W99822   1.912  24.633  14.473
36055W        W99823  16.625  39.980   1.296
36056W        W99824  37.035   2.822   1.694
36057W        W99825   5.865   8.279  13.963
36058W        W99826  16.763   2.797   1.277
36059W        W99827  42.801   0.397   0.746
36060W        W99828  12.818  22.520  13.877
36061W        W99829  28.157  15.272  11.100
36062W        W99830  30.966  39.895   3.644
36063W        W99831  23.028  15.814  12.394
36064W        W99832  14.661  15.701  12.401
36065W        W99833   2.747  11.627  11.423
36066W        W99834  17.184  37.342   5.114
36067W        W99835   6.333  35.088   3.220
36068W        W99836  15.750   2.457   1.899
36069W        W99837  24.113  38.980  13.921
36070W        W99838  30.611  15.630   0.841
36071W        W99839   5.314   0.292   4.344
36072W        W99840  17.082  15.206   1.319
36073W        W99841  29.644  26.022   2.392
36074W        W99842  26.996  30.453  14.381
36075W        W99843  38.051  39.326   1.228
36076W        W99844   5.736  40.438  10.967
36077W        W99845  36.064  37.043   3.812
36078W        W99846  13.166  31.048   4.309
36079W        W99847   5.266   4.400  12.002
36080W        W99848   4.395  16.126   1.250
36081W        W99849   0.327  17.220   4.178
36082W        W99850  18.239  27.687   0.385
36083W        W99851  19.740  42.493   4.677
36084W        W99852  28.508  30.001  10.907
36085W        W99853  43.021  27.676   4.609
36086W        W99854   9.883   9.248  13.997
36087W        W99855  28.106  24.717   2.180
36088W        W99856   3.294  37.076  13.866
36089W        W99857  29.984  15.100   0.452
36090W        W99858  41.976  35.401  12.373
36091W        W99859  22.119  24.159  10.998
36092W        W99860  22.724   4.346  11.949
36093W        W99861  41.928  11.301   2.724
36094W        W99862  10.781  39.384   2.854
36095W        W99863   5.320  23.172   0.867
36096W        W99864  28.472  18.567  13.993
36097W        W99865  27.942  34.059  11.571
36098W        W99866  12.358  14.329   0.362
36099W        W99867  31.922  33.521   5.128
36100W        W99868  44.906  20.745  14.852
36101W        W99869  32.957   9.392  14.404
36102W        W99870  19.261  40.327  10.440
36103W        W99871  27.026  40.548   4.315
36104W        W99872  34.101   7.328  12.428
36105W        W99873  31.443  10.738  14.960
36106W        W99874  31.579  26.052  11.488
36107W        W99875  36.974  30.117  10.119
36108W        W99876  28.673  33.998  10.148
36109W        W99877  23.723  20.039   3.294
36110W        W99878  41.930  10.859  11.116
36111W        W99879   4.337  12.122   0.259
36112W        W99880  14.753   4.730  12.915
36113W        W99881  14.684   6.265   5.294
36114W        W99882   6.242   0.250  11.458
36115W        W99883   8.851  25.029   1.901
36116W        W99884   6.840  14.718   2.208
36117W        W99885  43.297  19.213  14.946
36118W        W99886  10.751  44.302   2.187
36119W        W99887   7.293  26.090  14.327
36120W        W99888   9.710  27.036  12.387
36121W        W99889  12.346   0.258  12.443
36122W        W99890  21.676  39.834   1.731
36123W        W99891  38.862  34.544  12.072
36124W        W99892  40.875  31.970   4.666
36125W        W99893  20.080  41.347  14.422
36126W        W99894  34.927  12.778  11.589
36127W        W99895  21.224   8.840   2.758
36128W        W99896  29.042  22.738   2.878
36129W        W99897   0.978  11.819   1.248
36130W        W99898  19.722   3.346   2.340
36131W        W99899  15.211  15.279   1.450
36132W        W99900  30.123  25.557   3.740
36133W        W99901  32.446  17.641  12.881
36134W        W99902  27.639   6.705  12.542
36135W        W99903   6.219  21.212  13.867
36136W        W99904  38.563   1.280   0.443
36137W        W99905  27.478   0.350   4.707
36138W        W99906  30.502  15.305   4.143
36139W        W99907  36.401  32.396   0.433
36140W        W99908  20.662   3.750  12.364
36141W        W99909  35.869  28.124   4.835
36142W        W99910  22.070  26.070  11.563
36143W        W99911   1.455  31.904  12.464
36144W        W99912  16.136  26.496   3.216
36145W        W99913  17.232  25.986   9.951
36146W        W99914  24.662  10.237  11.583
36147W        W99915  22.572   5.232  14.381
36148W        W99916   1.765  19.534   3.220
36149W        W99917  42.320  40.454  11.050
36150W        W99918   4.303  42.933  11.389
36151W        W99919  30.483  22.078  11.944
36152W        W99920  37.536  23.577  13.389
36153W        W99921  41.499  40.359   4.774
36154W        W99922  30.072  26.128  14.839
36155W        W99923  14.613  23.596   1.397
36156W        W99924  22.121   9.244  12.542
36157W        W99925  16.272  13.717  10.412
36158W        W99926   4.886  27.671  14.893
36159W        W99927  27.108  24.671   1.390
36160W        W99928  42.852  24.078   2.790
36161W        W99929  33.046  19.266  12.439
36162W        W99930  36.375   5.266   1.285
36163W        W99931   3.845  37.430   2.335
36164W        W99932  11.639  37.991   4.238
36165W        W99933  29.007  39.399  11.999
36166W        W99934  13.800   9.265   2.194
36167W        W99935  22.180  30.425   1.296
36168W        W99936  32.930  31.045   0.898
36169W        W99937   4.217  16.125  12.948
36170W        W99938  12.136  10.671  10.939
36171W        W99939   9.695  14.687  12.515
36172W        W99940  31.559   6.284   0.860
36173W        W99941  33.379  25.011  10.962
36174W        W99942   1.298  22.601   0.463
36175W        W99943   9.832  16.142   2.378
36176W        W99944  10.752  30.643   3.211
36177W        W99945  38.857  40.869   4.758
36178W        W99946  37.357  32.938  10.937
36179W        W99947  43.898   1.849   4.820
36180W        W99948  15.674  11.673  11.920
36181W        W99949  25.679   3.219  14.914
36182W        W99950  24.032  25.534  11.478
36183W        W99951   3.215  28.164  14.332
36184W        W99952  41.914  31.474  14.893
36185W        W99953  21.750  25.558   1.831
36186W        W99954  14.267  44.941  11.439
36187W        W99955  21.208   6.228   4.805
36188W        W99956   5.384  12.831   4.616
36189W        W99957  15.773  24.557   2.683
36190W        W99958   3.767  36.893   3.330
36191W        W99959  12.847  18.776  14.874
36192W        W99960  44.839   9.384   3.279
36193W        W99961  25.186  19.602  10.611
36194W        W99962  24.648  20.633  11.992
36195W        W99963  43.305  20.679   0.763
36196W        W99964  44.962  18.584   4.227
36197W        W99965  33.462  28.482   2.767
36198W        W99966   9.213  24.591  12.421
36199W        W99967  33.947  31.641   4.240
36200W        W99968  38.070  43.802   2.277
36201W        W99969  28.438  15.112   3.275
36202W        W99970  10.837  33.591   3.314
36203W        W99971  13.607   8.749  10.994
36204W        W99972  26.696  33.408  14.480
36205W        W99973  28.181   1.293  11.486
36206W        W99974  17.696  35.044   2.706
36207W        W99975  43.400   6.709   3.321
36208W        W99976   3.878  38.341  12.560
36209W        W99977  34.393  22.568   0.435
36210W        W99978   0.454  19.122   3.724
36211W        W99979  43.842  20.212  14.461
36212W        W99980   0.279  22.056   3.323
36213W        W99981  35.470  16.212  10.585
36214W        W99982  28.533  29.468  13.815
36215W        W99983   6.889   1.735  13.791
36216W        W99984   0.294  34.974   4.196
36217W        W99985   8.731  20.536   0.761
36218W        W99986   8.223  32.544   0.356
36219W        W99987  14.723  27.513  10.620
36220W        W99988  27.476  43.313  12.483
36221W        W99989  40.521   5.321  12.355
36222W        W99990  30.546  12.668   1.797
36223W        W99991  34.009  36.383  11.602
36224W        W99992  28.158  22.547   1.914
36225W        W99993   0.476  16.725  12.892
36226W        W99994  14.671  19.690  11.605
36227W        W99995  38.538  14.137  11.003
36228W        W99996  10.189  38.014  14.912
36229W        W99997  42.981   1.295  14.852
36230W        W99998  39.827  30.546   2.186
36231W        W99999  42.800  12.833   4.153
36232W        W    0  36.528   0.754  13.515
36233W        W    1   9.796   2.793   2.795
36234W        W    2  27.091  10.830   2.229
36235W        W    3  19.671   6.196  11.437
36236W        W    4  29.433  34.112   0.356
36237W        W    5  24.202   4.715  12.902
36238W        W    6  14.752  39.460   3.305
36239W        W    7  38.949  19.048  10.895
36240W        W    8   0.764  43.368   1.399
36241W        W    9  37.340   8.668  13.025
36242W        W   10  17.115   7.328   0.761
36243W        W   11  43.325  39.367   3.836
36244W        W   12  20.603  27.186   0.357
36245W        W   13  35.072  41.833   4.659
36246W        W   14  31.980   9.323  14.779
36247W        W   15   3.418   7.222  14.411
36248W        W   16  13.315  11.792   3.321
36249W        W   17  26.047  27.592  14.836
36250W        W   18  40.524  30.998   0.293
36251W        W   19  29.096  41.880   4.665
36252W        W   20  43.965   6.749  13.317
36253W        W   21  30.456  35.009  11.079
36254W        W   22  35.068  23.636  14.948
36255W        W   23   5.815  28.551  11.070
36256W        W   24  10.245  31.106  14.283
36257W        W   25  41.403  18.721  11.410
36258W        W   26  16.729  41.356  12.072
36259W        W   27  10.661   8.388   4.262
36260W        W   28  37.392   0.857   4.631
36261W        W   29  10.657   9.747  13.513
36262W        W   30  21.591  18.213   1.302
36263W        W   31  26.184  28.084  14.335
36264W        W   32  20.149  23.047  11.924
36265W        W   33   0.931  20.075  12.989
36266W        W   34   1.891  36.937  10.472
36267W        W   35  12.827  15.156   0.467
36268W        W   36   6.728  29.129  11.997
36269W        W   37  20.543  15.621  13.423
36270W        W   38  40.846  33.932  13.814
36271W        W   39  13.130  10.373   0.764
36272W        W   40  12.215   3.769  10.916
36273W        W   41   6.256   7.229   3.193
36274W        W   42  34.380  36.561   3.799
36275W        W   43  10.856  39.052   1.739
36276W        W   44  41.905   4.307   4.122
36277W        W   45  12.780  37.995  12.823
36278W        W   46  22.575   7.210  12.869
36279W        W   47   2.732  39.979  14.947
36280W        W   48   5.904  14.622   4.672
36281W        W   49  22.640  39.361  13.010
36282W        W   50  15.108  40.937  11.949
36283W        W   51  43.824   9.647  14.327
36284W        W   52   8.290  40.368  12.847
36285W        W   53   6.251  28.473   1.238
36286W        W   54   1.852  21.092  12.564
36287W        W   55  18.266  41.365  14.478
36288W        W   56  36.567   2.412   0.358
36289W        W   57  35.858  16.116   0.269
36290W        W   58  36.917  24.582  12.853
36291W        W   59  40.024  41.415  12.382
36292W        W   60  44.395  20.747  14.372
36293W        W   61  11.142  22.626   1.832
36294W        W   62  16.315  10.660   0.311
36295W        W   63  36.067  18.052  13.864
36296W        W   64   1.375  19.062  13.413
36297W        W   65  10.679   7.832  11.911
36298W        W   66   8.900   4.309  13.814
36299W        W   67  37.347  28.018  14.884
36300W        W   68   6.328  16.701   3.217
36301W        W   69   2.777  27.002   0.804
36302W        W   70   5.725   5.746  13.347
36303W        W   71   0.861  42.028   2.865
36304W        W   72  15.715  37.053   9.969
36305W        W   73  17.256  30.141   3.742
36306W        W   74  38.916  17.630   3.281
36307W        W   75  27.548  21.183  14.373
36308W        W   76  20.235  37.470  13.011
36309W        W   77  38.417   6.426  14.391
36310W        W   78  15.236  16.679  14.902
36311W        W   79  38.842  36.090   4.614
36312W        W   80  17.220  39.835   2.770
36313W        W   81  33.890  15.615   2.242
36314W        W   82  32.912  28.131   1.387
36315W        W   83  38.981  12.694  11.512
36316W        W   84  11.315  15.101  13.484
36317W        W   85   2.443  34.382   4.664
36318W        W   86  15.162  24.120   2.847
36319W        W   87   8.896  24.022   0.967
36320W        W   88  20.663   7.271   1.866
36321W        W   89  38.391  12.856  14.838
36322W        W   90  20.705   1.449   3.632
36323W        W   91  15.800  34.581   3.249
36324W        W   92  36.446  18.067   3.148
36325W        W   93   8.317  20.086  14.335
36326W        W   94  38.514  41.513   0.909
36327W        W   95  22.705  22.120  12.065
36328W        W   96  42.415   6.304   4.616
36329W        W   97  27.115  37.425   2.744
36330W        W   98   2.952  36.013   1.215
36331W        W   99  32.015  29.646   4.607
36332W        W  100  20.251   1.733   9.953
36333W        W  101  42.954  27.044   1.775
36334W        W  102  31.920   8.240  12.940
36335W        W  103  25.968   6.214   0.273
36336W        W  104  23.085  33.948   9.933
36337W        W  105  17.608  20.097   1.907
36338W        W  106  32.579  23.031  13.447
36339W        W  107  13.758  21.588  13.349
36340W        W  108  24.554   2.960   3.184
36341W        W  109  36.933  15.095  13.966
36342W        W  110  22.726   9.246  10.613
36343W        W  111  24.979  22.582   5.178
36344W        W  112  31.976  17.092   2.248
36345W        W  113  28.154   8.759   0.434
36346W        W  114   5.293  36.593   4.650
36347W        W  115  11.343  37.991  12.357
36348W        W  116  40.816  34.601  11.974
36349W        W  117   9.810  44.264   4.751
36350W        W  118  30.934  29.012   4.697
36351W        W  119  35.001   1.353   3.373
36352W        W  120  10.790  21.648  13.883
36353W        W  121  37.019  29.153  14.366
36354W        W  122  38.340  25.529  10.520
36355W        W  123   3.246  31.530   0.948
36356W        W  124   1.837  23.089  12.377
36357W        W  125  16.672   8.249   0.761
36358W        W  126  29.528  31.102  10.483
36359W        W  127  25.580  34.438  11.478
36360W        W  128  18.789  29.992   4.149
36361W        W  129  36.590   8.850  12.968
36362W        W  130  29.453   1.757   3.384
36363W        W  131  23.719  37.468   0.886
36364W        W  132  25.533  22.144   0.732
36365W        W  133  34.395  22.125   4.235
36366W        W  134  21.725  15.091  13.895
36367W        W  135  28.656   6.205  12.455
36368W        W  136  23.712   1.967   4.829
36369W        W  137  29.609   0.874  13.904
36370W        W  138  24.984  44.771   1.718
36371W        W  139  29.028   1.440  11.026
36372W        W  140   4.883  40.967  14.507
36373W        W  141   3.435   6.858   3.183
36374W        W  142   1.896  22.662   4.281
36375W        W  143  31.151  27.969   0.325
36376W        W  144  28.507  43.418  10.570
36377W        W  145   5.828   1.345  14.992
36378W        W  146  31.975  14.657   0.482
36379W        W  147  23.228  41.430   0.426
36380W        W  148  37.903  34.898   4.679
36381W        W  149  15.712  19.777  11.115
36382W        W  150  37.983  43.390  10.506
36383W        W  151  27.574  33.093   0.457
36384W        W  152  20.679  15.279   3.382
36385W        W  153  21.669   9.715   1.363
36386W        W  154  39.359  19.114   0.458
36387W        W  155  19.677  34.425   0.474
36388W        W  156   8.301  13.172   2.721
36389W        W  157  18.735   5.340   2.814
36390W        W  158  32.927  22.048  14.887
36391W        W  159  29.586   7.911  13.813
36392W        W  160   6.768  27.570   1.427
36393W        W  161  40.328  10.155   2.385
36394W        W  162   1.743   6.423   1.923
36395W        W  163  13.618  44.840  14.762
36396W        W  164  37.981  29.657  12.919
36397W        W  165  25.515  43.419  12.569
36398W        W  166  13.130  11.299  11.927
36399W        W  167  21.719   4.210  11.397
36400W        W  168  41.420  19.129   4.139
36401W        W  169  32.009  24.546   0.838
36402W        W  170  17.242  33.118  12.075
36403W        W  171   2.779  10.776  13.323
36404W        W  172  30.445  19.678   2.678
36405W        W  173  15.310  20.137  14.492
36406W        W  174  15.139  26.007   2.713
36407W        W  175   3.755  44.925   3.699
36408W        W  176   8.875  27.504  12.841
36409W        W  177  23.139  27.193   2.386
36410W        W  178  36.047   6.304  13.545
36411W        W  179  27.007  17.090  12.945
36412W        W  180  23.220  26.690   1.731
36413W        W  181  18.245  35.990   2.263
36414W        W  182  39.060  39.843   4.310
36415W        W  183  39.949  26.151  12.540
36416W        W  184  16.673  28.605  10.639
36417W        W  185  33.626  33.984  14.303
36418W        W  186   2.235  40.952   0.797
36419W        W  187  31.071  44.321   1.385
36420W        W  188   6.417  31.067   2.343
36421W        W  189  13.228  27.062   4.245
36422W        W  190  42.975  32.578  10.951
36423W        W  191  29.469   7.839  12.050
36424W        W  192  37.016   3.812   2.737
36425W        W  193  35.406  35.025   1.230
36426W        W  194  14.127  37.543  10.459
36427W        W  195  19.153  15.220  12.023
36428W        W  196  44.363   8.776   3.346
36429W        W  197  24.643  15.769   1.921
36430W        W  198  18.780  16.648   4.810
36431W        W  199  31.080  14.093   1.404
36432W        W  200  35.490  34.526   1.421
36433W        W  201  10.371  16.727  11.409
36434W        W  202  16.787  34.456  11.400
36435W        W  203  18.776  21.612  12.024
36436W        W  204  41.028   1.397   4.136
36437W        W  205   7.882  11.785   5.264
36438W        W  206  33.556   5.363   2.370
36439W        W  207  30.569  25.108  14.952
36440W        W  208  40.480  13.321  14.933
36441W        W  209  21.186  10.732  13.351
36442W        W  210  10.329   5.313  13.967
36443W        W  211  38.980  18.159   0.368
36444W        W  212  42.839  11.347   0.761
36445W        W  213  29.968  31.565  11.415
36446W        W  214  15.768  42.008  11.494
36447W        W  215  14.192  26.132  13.027
36448W        W  216  31.073  23.199  10.982
36449W        W  217  38.956  44.341   2.748
36450W        W  218  42.999  10.370  14.803
36451W        W  219  19.692   5.833  14.028
36452W        W  220  22.152   2.812   0.358
36453W        W  221   6.854  41.322  13.055
36454W        W  222  11.227  34.961  14.453
36455W        W  223   6.413  10.790  14.515
36456W        W  224  21.019   1.961   2.259
36457W        W  225  18.057   4.227   4.618
36458W        W  226   3.766  11.132  12.083
36459W        W  227  26.059  18.597  13.930
36460W        W  228  35.101  13.160   4.219
36461W        W  229  44.943  11.729  14.502
36462W        W  230  44.864  10.727  14.946
36463W        W  231   9.686  28.478   1.799
36464W        W  232  43.367   7.763  13.865
36465W        W  233  32.068  37.377  10.628
36466W        W  234  10.190  14.614  14.278
36467W        W  235   1.425  12.215   1.390
36468W        W  236  21.158  40.018   4.773
36469W        W  237   9.693  34.457  14.866
36470W        W  238  32.048   9.286   3.319
36471W        W  239  29.135  39.996   4.122
36472W        W  240  39.870  36.920  12.851
36473W        W  241  28.167  35.895  13.936
36474W        W  242  20.170  24.059   3.739
36475W        W  243  33.578  38.543   3.820
36476W        W  244  30.553  42.892   5.185
36477W        W  245  16.583  26.471  11.398
36478W        W  246  24.997  34.589   3.792
36479W        W  247  40.833  33.876   4.625
36480W        W  248  15.676   4.803  10.461
36481W        W  249  18.157  32.583  14.508
36482W        W  250  23.207  41.500   2.273
36483W        W  251   0.317  35.873   1.230
36484W        W  252  15.590  38.453   0.416
36485W        W  253  38.338  25.069   3.684
36486W        W  254  21.619  11.310   1.440
36487W        W  255   2.281   1.405  11.060
36488W        W  256   4.915  24.711   2.728
36489W        W  257  22.196   2.388   3.723
36490W        W  258  34.047   5.296  13.314
36491W        W  259  17.768  28.657   3.691
36492W        W  260  17.605  24.696  14.780
36493W        W  261  16.313   3.236  12.372
36494W        W  262  42.861  44.793   0.273
36495W        W  263  43.931  21.145   4.124
36496W        W  264  43.939  26.635  14.488
36497W        W  265  40.023  16.318  13.963
36498W        W  266   3.714   8.765  12.842
36499W        W  267  17.100  39.850   3.383
36500W        W  268  21.256  19.257   4.285
36501W        W  269  12.266  36.975  11.885
36502W        W  270  32.136  34.974  12.567
36503W        W  271  41.357  15.243   0.449
36504W        W  272   6.236  39.504  11.534
36505W        W  273   1.948  27.555   1.307
36506W        W  274  28.163  32.516  13.997
36507W        W  275  17.119  13.341   4.326
36508W        W  276  20.172  42.832  14.787
36509W        W  277   4.437  28.552   0.861
36510W        W  278  15.759   8.665  13.982
36511W        W  279  42.358  39.892  13.519
36512W        W  280  26.509   8.697   0.287
36513W        W  281  10.272  44.761  13.793
36514W        W  282  44.923   6.703   3.764
36515W        W  283  30.543  34.029   1.848
36516W        W  284  37.914  25.132   3.858
36517W        W  285  29.089  30.424   3.837
36518W        W  286  43.371  38.535  14.916
36519W        W  287  16.802  23.120  14.465
36520W        W  288   5.256   4.793   3.177
36521W        W  289  20.538  13.642   0.323
36522W        W  290  25.088  18.106  12.069
36523W        W  291  30.606  13.221   2.843
36524W        W  292  30.477  31.631  10.570
36525W        W  293  13.753  32.989   3.284
36526W        W  294   7.829  36.443  14.371
36527W        W  295  23.115  20.252  13.369
36528W        W  296  31.498  15.194   5.647
36529W        W  297  26.470  11.731  14.374
36530W        W  298  44.398  17.591  11.449
36531W        W  299  12.240  28.646  14.863
36532W        W  300  20.258  17.666   0.297
36533W        W  301  44.360  43.476   1.849
36534W        W  302   8.253  25.088  12.974
36535W        W  303   2.821  32.055   3.237
36536W        W  304   9.809  44.855  14.306
36537W        W  305  15.216  43.978  14.387
36538W        W  306  18.784   5.229  14.029
36539W        W  307  34.380  17.619   1.808
36540W        W  308  40.491   5.208  13.488
36541W        W  309  31.480  13.750   0.863
36542W        W  310  40.509  32.583   0.451
36543W        W  311  22.643  27.130   1.783
36544W        W  312   5.920  39.359   3.328
36545W        W  313   8.403  36.363  10.568
36546W        W  314  40.327   9.676   2.738
36547W        W  315  14.770  32.477   3.651
36548W        W  316  36.382  18.639  11.068
36549W        W  317  33.103  21.545   3.699
36550W        W  318   9.649  38.408  13.318
36551W        W  319  20.211  20.630  13.348
36552W        W  320  35.975  37.039   1.381
36553W        W  321   7.792   4.230   2.275
36554W        W  322  10.160  21.217   1.857
36555W        W  323  25.580  35.599  14.336
36556W        W  324   5.788  18.662   4.325
36557W        W  325   3.853   9.302  10.550
36558W        W  326  11.853  26.577   2.262
36559W        W  327  27.465  16.581  11.054
36560W        W  328   4.895  17.211  11.021
36561W        W  329   7.355  19.089  13.476
36562W        W  330  20.063  16.609   2.280
36563W        W  331  24.496  42.325  14.807
36564W        W  332  43.356  43.352   4.634
36565W        W  333  22.614   5.774   1.412
36566W        W  334  40.982  36.913   3.729
36567W        W  335  22.563  13.174  14.275
36568W        W  336   4.288   9.774  13.517
36569W        W  337   8.793   0.793   4.630
36570W        W  338  31.058  12.222   1.424
36571W        W  339  17.146   4.419   3.707
36572W        W  340  39.030  28.459  14.831
36573W        W  341   1.761  36.895   0.262
36574W        W  342  18.252  11.782  12.525
36575W        W  343  11.807  10.652  13.419
36576W        W  344   6.737  33.625  11.526
36577W        W  345   8.860  34.988   2.896
36578W        W  346  31.919  36.512  13.448
36579W        W  347  13.276   0.401   0.272
36580W        W  348   2.334   4.214   2.293
36581W        W  349  12.343  13.106   5.292
36582W        W  350   9.797   0.866  13.050
36583W        W  351  27.568  28.679   3.335
36584W        W  352   0.268  24.582  11.553
36585W        W  353  35.559  27.529   3.639
36586W        W  354  24.665  34.889   3.335
36587W        W  355  14.655  24.531   1.345
36588W        W  356   3.922   9.189   3.215
36589W        W  357  16.316  41.991  11.043
36590W        W  358  28.617  30.458   4.167
36591W        W  359  42.526  39.047   1.753
36592W        W  360  31.080  18.205  10.094
36593W        W  361  26.558   6.879  11.425
36594W        W  362  23.147  16.750   3.824
36595W        W  363  19.109  41.878   3.638
36596W        W  364  27.549  32.935  13.413
36597W        W  365   8.774  11.173  11.424
36598W        W  366  34.914  15.138  13.015
36599W        W  367  13.631  32.593   0.949
36600W        W  368  30.577  41.891   4.646
36601W        W  369   3.900  10.748  14.309
36602W        W  370  22.079  24.177  14.475
36603W        W  371  22.550  16.599  10.978
36604W        W  372  26.671  12.663   2.320
36605W        W  373  31.153  41.397   2.375
36606W        W  374  11.279  13.660  13.495
36607W        W  375  27.046  26.135  11.536
36608W        W  376  39.051  32.063  12.476
36609W        W  377   7.416   0.958  11.917
36610W        W  378  25.124  39.361  14.292
36611W        W  379  42.948  25.139  12.090
36612W        W  380   2.403   4.776  14.371
36613W        W  381  31.612   7.365   2.303
36614W        W  382  19.184  10.313   2.879
36615W        W  383  32.509  13.349  11.387
36616W        W  384   8.769  36.363  12.015
36617W        W  385  20.143  33.624   2.826
36618W        W  386  22.995  29.534   3.642
36619W        W  387  41.453   5.265   3.243
36620W        W  388  38.073  32.007   1.779
36621W        W  389  40.969  30.021  10.007
36622W        W  390   1.374  42.350   2.410
36623W        W  391  34.093  14.125  12.077
36624W        W  392  40.857  24.603  13.368
36625W        W  393  40.838  37.555  13.393
36626W        W  394  35.561   3.397   0.819
36627W        W  395  23.035  13.838  11.432
36628W        W  396  17.252  31.525  11.084
36629W        W  397  29.107  21.542  12.848
36630W        W  398  16.155  21.215  13.001
36631W        W  399  31.567   5.695  12.433
36632W        W  400  10.172  36.571   0.883
36633W        W  401  22.566  11.340  11.029
36634W        W  402  27.158  21.733   4.125
36635W        W  403  18.051   6.321   4.163
36636W        W  404  32.483  36.916   3.818
36637W        W  405  38.442  27.044  13.042
36638W        W  406  30.989  32.111  10.930
36639W        W  407   5.352   2.721   4.794
36640W        W  408  38.073   5.325  12.891
36641W        W  409   6.343   2.783  10.433
36642W        W  410  12.255  31.602  12.419
36643W        W  411  11.359   3.292  10.627
36644W        W  412  24.682  30.570  14.984
36645W        W  413   7.236   5.726   3.765
36646W        W  414  12.288   8.195   4.129
36647W        W  415   3.333   6.907  14.860
36648W        W  416  16.182   5.824  13.541
36649W        W  417   3.752   6.363  14.843
36650W        W  418  14.336  18.617  10.154
36651W        W  419  17.236  33.921  12.377
36652W        W  420  23.087  26.701   0.917
36653W        W  421  35.446   3.299   1.366
36654W        W  422  42.374   5.433  12.568
36655W        W  423   7.388  21.045  14.989
36656W        W  424  31.562  13.193  13.000
36657W        W  425   5.296  12.226   4.170
36658W        W  426   8.164  33.555   2.296
36659W        W  427   2.382   5.239  10.967
36660W        W  428  10.303  23.669  12.923
36661W        W  429  25.065  37.376   5.125
36662W        W  430  36.841  21.142  11.559
36663W        W  431  15.092  23.573  11.491
36664W        W  432  36.088  44.932   2.185
36665W        W  433  34.908  42.487  11.992
36666W        W  434   6.232  13.303   2.768
36667W        W  435  19.774   4.890   1.238
36668W        W  436  25.140   9.190  11.379
36669W        W  437  17.263  35.857  14.315
36670W        W  438  39.446  25.645   3.332
36671W        W  439  21.554  37.360   1.430
36672W        W  440  22.061   4.246   1.715
36673W        W  441  10.837  35.423   1.756
36674W        W  442   6.819  28.674   3.728
36675W        W  443  10.689  23.568   3.216
36676W        W  444  22.512  35.897   2.668
36677W        W  445  40.975  37.417  12.345
36678W        W  446   1.835  24.229   3.152
36679W        W  447  39.512   0.876  14.803
36680W        W  448  35.599  13.236   0.403
36681W        W  449  33.489  21.262   3.668
36682W        W  450   6.207  18.730  10.976
36683W        W  451  44.762  41.370   2.713
36684W        W  452  24.069  19.619   3.295
36685W        W  453  29.634   9.865   3.354
36686W        W  454  30.949  17.732   0.806
36687W        W  455  25.500  26.566  11.570
36688W        W  456  32.965  32.553  13.971
36689W        W  457  20.597   8.772  12.902
36690W        W  458   1.765   9.647  12.415
36691W        W  459  39.891  33.540  14.792
36692W        W  460  20.559  17.793   2.895
36693W        W  461  22.561  24.723  13.828
36694W        W  462  21.559   7.357   2.663
36695W        W  463  26.964  44.786  11.017
36696W        W  464  29.133  20.728  12.565
36697W        W  465   4.412  23.613   1.313
36698W        W  466  36.930  10.675  10.156
36699W        W  467   1.436  23.493   4.646
36700W        W  468   3.378  20.700  14.433
36701W        W  469   8.372  26.471   4.354
36702W        W  470  19.645  25.209   3.655
36703W        W  471  18.189   0.462  14.424
36704W        W  472   4.714  15.741  11.869
36705W        W  473  31.480  44.848   2.786
36706W        W  474  17.066   0.281   4.614
36707W        W  475  12.311  40.044  14.818
36708W        W  476  11.209   9.238   5.100
36709W        W  477  16.784  11.803  11.104
36710W        W  478  43.356   5.709  13.007
36711W        W  479  18.562  25.003   1.431
36712W        W  480  19.130  44.879   4.276
36713W        W  481  42.292  41.786   3.253
36714W        W  482  37.549  26.679  12.864
36715W        W  483  38.359  20.205   4.784
36716W        W  484  36.355  21.596  11.948
36717W        W  485  34.112   7.284   0.385
36718W        W  486  27.560   0.357   1.738
36719W        W  487  42.995   7.779   5.316
36720W        W  488  42.411  18.201   1.366
36721W        W  489   5.335  14.217  11.069
36722W        W  490   8.861  29.466  10.901
36723W        W  491   9.794  41.359  13.003
36724W        W  492  12.340  31.905   4.610
36725W        W  493  27.483  23.571  14.387
36726W        W  494  32.450  44.326   0.265
36727W        W  495  16.102  33.455   2.745
36728W        W  496   5.387   0.299   1.319
36729W        W  497  16.769  13.317  12.487
36730W        W  498  15.671  19.724   0.761
36731W        W  499  11.646  39.394  12.396
36732W        W  500  23.606  14.803  11.430
36733W        W  501   7.720  19.776   3.782
36734W        W  502  41.025  36.593   1.890
36735W        W  503  34.413  32.589   2.268
36736W        W  504  39.472  16.288  12.874
36737W        W  505  43.766  24.191  13.889
36738W        W  506  44.892  29.448   4.625
36739W        W  507   2.796  40.319  12.479
36740W        W  508   6.207  39.038  10.026
36741W        W  509  44.439  12.253   1.429
36742W        W  510  12.678  20.625  14.323
36743W        W  511   2.929  29.010   2.214
36744W        W  512  27.457  34.999  12.982
36745W        W  513  23.044  30.014  12.826
36746W        W  514  40.799  19.619  14.960
36747W        W  515  27.962   2.766  14.824
36748W        W  516  37.085   4.251   0.261
36749W        W  517  13.227  35.365   3.213
36750W        W  518   3.357  24.113   2.812
36751W        W  519   0.436  39.875  10.964
36752W        W  520  12.251  39.409   1.374
36753W        W  521  14.631   8.655  11.390
36754W        W  522  36.454  14.755   4.701
36755W        W  523  25.060  23.496  11.919
36756W        W  524  23.518  26.627   2.850
36757W        W  525  44.930  41.368  10.594
36758W        W  526  38.880  23.688   2.258
36759W        W  527  37.859  21.617  14.315
36760W        W  528  28.469  13.341   5.114
36761W        W  529  30.038  28.946   0.842
36762W        W  530  42.288  41.993  11.544
36763W        W  531  27.511  44.369  14.492
36764W        W  532  39.416  43.335   2.826
36765W        W  533  30.969   7.897   1.292
36766W        W  534   6.377  41.005   1.325
36767W        W  535   2.362  22.242  12.565
36768W        W  536  17.641  17.226  12.903
36769W        W  537  43.991  19.153  14.354
36770W        W  538  26.698  41.394   0.949
36771W        W  539  26.026   6.391  11.077
36772W        W  540  14.337   4.263  11.919
36773W        W  541  41.994  12.756  11.426
36774W        W  542  21.105  32.134  13.962
36775W        W  543   8.310   2.947   3.242
36776W        W  544  20.153  43.987  14.408
36777W        W  545   1.298  43.765  14.486
36778W        W  546  25.128  11.690   1.287
36779W        W  547   6.220   7.411  14.866
36780W        W  548  15.797  38.338   3.315
36781W        W  549   4.871  12.748  12.831
36782W        W  550  33.419  37.542  14.947
36783W        W  551   3.301  16.760   3.738
36784W        W  552  14.278  11.861  11.598
36785W        W  553  35.450  13.826  10.509
36786W        W  554   2.292  14.233  13.973
36787W        W  555  20.139  36.863   3.193
36788W        W  556  26.642  19.060   4.125
36789W        W  557  40.990  18.719   4.325
36790W        W  558   6.358  12.821   1.319
36791W        W  559  30.509  39.438  14.004
36792W        W  560   3.891  37.882   2.725
36793W        W  561   3.443  43.469  12.416
36794W        W  562  34.907  36.519  13.458
36795W        W  563  33.922  34.397   4.825
36796W        W  564   3.315  41.992  11.572
36797W        W  565  26.628  14.763   5.215
36798W        W  566  32.901   8.310  14.921
36799W        W  567  23.607   5.197   2.300
36800W        W  568  12.679  32.494   4.293
36801W        W  569  11.158  23.238  13.027
36802W        W  570  12.831   6.274  11.926
36803W        W  571  35.946  25.670   0.887
36804W        W  572  30.992  12.222   1.756
36805W        W  573  11.812   2.728   4.772
36806W        W  574  22.505   4.226  11.600
36807W        W  575  28.942   5.886   3.255
36808W        W  576  26.159   5.299   4.227
36809W        W  577   8.654  22.585   0.755
36810W        W  578  44.891  35.916  10.969
36811W        W  579  13.174  41.820   4.764
36812W        W  580  11.221  21.148  12.008
36813W        W  581   6.191  29.602   1.757
36814W        W  582   0.940  18.651  13.888
36815W        W  583  13.711  19.614   4.120
36816W        W  584  40.910  42.026   1.236
36817W        W  585  40.319  23.693  11.495
36818W        W  586  32.437  29.493   0.816
36819W        W  587  17.754  18.080  12.522
36820W        W  588  33.988  28.138   1.865
36821W        W  589  27.182   5.204  12.357
36822W        W  590  17.177  10.344   5.149
36823W        W  591  23.240  12.850   2.313
36824W        W  592  36.854   7.238  13.830
36825W        W  593  26.176  34.085   0.323
36826W        W  594  14.241  42.028   1.436
36827W        W  595  11.770  25.489  12.486
36828W        W  596  18.156  16.140  14.422
36829W        W  597  38.015   8.851   2.839
36830W        W  598  23.211  31.577  12.046
36831W        W  599  18.777  21.060  14.018
36832W        W  600  26.960  34.477  14.976
36833W        W  601  40.825   8.741  11.499
36834W        W  602   1.472  26.971  11.444
36835W        W  603  25.612   0.428   4.166
36836W        W  604   1.847  36.862  13.375
36837W        W  605  17.582   2.318  10.926
36838W        W  606  44.943   2.742  13.457
36839W        W  607   1.829  21.609  10.887
36840W        W  608  33.891  38.898   4.281
36841W        W  609   1.785  26.519   0.482
36842W        W  610   7.668  33.964   4.132
36843W        W  611  17.092   1.849  12.945
36844W        W  612   7.714  37.864  11.077
36845W        W  613  18.677   6.893   1.872
36846W        W  614  38.929  32.993   0.380
36847W        W  615  15.585  43.401   4.648
36848W        W  616  38.527   8.328  13.811
36849W        W  617  12.765  32.443   3.647
36850W        W  618  41.395  18.766  14.335
36851W        W  619   5.894   6.236  11.540
36852W        W  620   4.283   4.788   3.263
36853W        W  621   0.369  37.361  14.849
36854W        W  622  35.456   2.780   1.399
36855W        W  623  21.049   1.251   4.274
36856W        W  624  44.903   2.873   3.729
36857W        W  625  36.472  37.459  11.051
36858W        W  626  30.037   7.356  11.459
36859W        W  627  33.898  14.330  14.371
36860W        W  628  20.230  20.185   3.343
36861W        W  629   3.736  17.655   4.280
36862W        W  630  13.844  15.816   1.374
36863W        W  631  12.318  15.202   4.696
36864W        W  632  27.158   5.737  11.567
36865W        W  633  12.167  33.906  13.009
36866W        W  634   4.363   3.883   3.712
36867W        W  635   9.706   2.266   4.160
36868W        W  636  14.222  10.736  10.964
36869W        W  637  30.447   1.845  13.003
36870W        W  638  33.395  33.621  11.434
36871W        W  639  35.081  14.651   3.317
36872W        W  640   7.716  19.778   1.839
36873W        W  641  11.817  28.953   1.223
36874W        W  642  15.305  41.296  14.789
36875W        W  643   1.441  27.128   1.363
36876W        W  644  31.478  34.978   3.653
36877W        W  645  13.827  31.579   2.775
36878W        W  646   4.850  43.944  14.384
36879W        W  647   2.308  37.971   0.269
36880W        W  648  39.995   0.822  11.005
36881W        W  649  22.085  24.156  12.973
36882W        W  650  21.172   2.961   1.702
36883W        W  651   1.415  22.558  12.061
36884W        W  652   4.269  38.473   0.860
36885W        W  653   0.349  34.000   1.306
36886W        W  654  17.243  14.744   4.663
36887W        W  655  10.263  22.636   1.808
36888W        W  656  11.371  11.151  12.028
36889W        W  657  38.863  14.736   3.704
36890W        W  658  22.693  11.670  14.022
36891W        W  659  27.611  44.300   0.275
36892W        W  660  28.056  29.492   3.303
36893W        W  661  28.523  32.125  10.453
36894W        W  662  36.578  15.282   4.312
36895W        W  663  37.545  26.485   1.417
36896W        W  664  11.708  22.096   4.285
36897W        W  665  28.575   0.460   3.765
36898W        W  666   7.745  40.887  10.435
36899W        W  667   8.280   0.383  14.014
36900W        W  668   0.944  24.656  14.318
36901W        W  669   1.254   7.818  10.633
36902W        W  670  24.716  24.990  11.473
36903W        W  671   2.359   3.838   4.212
36904W        W  672   8.239  35.043  11.913
36905W        W  673  18.192  10.306  10.433
36906W        W  674  40.837  11.362   0.966
36907W        W  675   2.418   4.851  11.594
36908W        W  676  23.201  40.953   4.148
36909W        W  677  42.326  13.294  12.956
36910W        W  678   1.947  41.395  14.836
36911W        W  679  20.213  25.091   1.888
36912W        W  680  17.268  24.980  14.808
36913W        W  681  33.552   7.820   5.126
36914W        W  682   5.383  12.250  14.435
36915W        W  683   8.274  18.713  10.581
36916W        W  684  35.944  32.111  10.894
36917W        W  685  35.082  39.384  12.530
36918W        W  686  28.531  19.698   0.917
36919W        W  687  16.609  44.753   3.270
36920W        W  688  12.755  10.732  10.504
36921W        W  689   1.299  38.401   3.297
36922W        W  690  17.110   7.865   4.285
36923W        W  691  22.040   5.796   1.919
36924W        W  692  19.722   6.427  13.925
36925W        W  693  44.862  30.600  13.833
36926W        W  694  17.637  10.304   2.252
36927W        W  695  24.209  31.475   0.310
36928W        W  696   9.391   6.241  11.958
36929W        W  697   0.460   4.740   4.790
36930W        W  698   4.400  36.089   2.724
36931W        W  699  20.680   6.706   4.209
36932W        W  700  18.641  22.996   1.863
36933W        W  701  44.837  29.029  13.985
36934W        W  702  10.777  14.242   0.765
36935W        W  703  20.730  14.813   0.313
36936W        W  704  28.951  18.199   3.678
36937W        W  705  10.642  14.318  13.975
36938W        W  706  22.091  38.838   4.822
36939W        W  707  33.045  37.846   1.706
36940W        W  708  31.418  21.217  12.871
36941W        W  709  25.650  15.715  14.015
36942W        W  710  33.007  13.160   2.190
36943W        W  711  43.274  24.050   0.388
36944W        W  712  24.065  29.566   0.831
36945W        W  713  13.301  39.835   3.740
36946W        W  714  28.184  37.895  13.365
36947W        W  715  34.409  20.154  10.928
36948W        W  716  16.620  22.703   5.710
36949W        W  717  16.100   0.390  12.417
36950W        W  718  14.323   3.262  11.379
36951W        W  719   8.699  39.345   1.375
36952W        W  720  42.517  29.096   4.597
36953W        W  721  30.495   4.272  14.795
36954W        W  722   9.378   0.297  12.826
36955W        W  723  30.436  10.307  10.963
36956W        W  724  31.459   0.983  10.492
36957W        W  725  32.142  27.094  11.555
36958W        W  726  13.267   0.955  14.934
36959W        W  727  29.649   0.754  10.897
36960W        W  728  44.413  17.567   3.862
36961W        W  729  37.545  37.363  10.549
36962W        W  730   8.306  12.757  13.803
36963W        W  731  42.876  39.471  11.061
36964W        W  732  17.686  29.922   1.840
36965W        W  733  39.380  35.582  14.970
36966W        W  734  33.891  41.917   0.255
36967W        W  735  40.530  16.725  11.962
36968W        W  736  24.135   7.245  14.852
36969W        W  737  32.450  25.962  10.458
36970W        W  738  23.090  36.389   1.866
36971W        W  739  30.021  39.845   2.187
36972W        W  740  12.163  16.095  13.381
36973W        W  741   5.338  16.728  10.408
36974W        W  742  22.666  28.970   2.217
36975W        W  743  26.146  11.139   2.326
36976W        W  744  29.041   0.345   1.773
36977W        W  745   1.893  30.495   3.630
36978W        W  746  25.212  32.019  11.568
36979W        W  747   3.278  32.049   9.920
36980W        W  748  30.565   0.929  13.887
36981W        W  749  22.236  19.736   2.190
36982W        W  750  33.519  22.114  11.534
36983W        W  751  30.421  15.753  14.331
36984W        W  752  44.307   1.290  14.028
36985W        W  753  41.965  27.448  11.020
36986W        W  754  41.885  15.751  13.478
36987W        W  755  43.350  31.444  11.012
36988W        W  756  22.701  32.586  14.481
36989W        W  757  21.716  19.554   2.667
36990W        W  758   5.707  36.871   1.404
36991W        W  759   6.353  39.998   0.819
36992W        W  760  27.501  11.755  14.943
36993W        W  761  37.424  33.091  13.891
36994W        W  762  29.437   8.700  13.338
36995W        W  763  31.011  18.256  13.808
36996W        W  764  18.685  17.180  12.068
36997W        W  765  35.048  14.162  14.781
36998W        W  766  37.009   1.237   2.669
36999W        W  767  25.081   4.402   1.745
37000W        W  768  40.872   9.220  13.818
37001W        W  769  38.389  23.565  11.394
37002W        W  770  20.090  29.500   0.258
37003W        W  771   6.862   3.798  13.947
37004W        W  772   0.305  23.689  12.832
37005W        W  773  41.999  32.055   9.452
37006W        W  774  32.559  20.578   1.239
37007W        W  775  18.721   9.294  14.450
37008W        W  776  25.488  33.069  11.485
37009W        W  777  14.152  20.612   2.893
37010W        W  778  17.101  33.444   4.222
37011W        W  779  24.648  43.968  14.311
37012W        W  780   0.271  15.797  13.522
37013W        W  781  24.056  21.518  12.916
37014W        W  782  19.534  20.549   0.352
37015W        W  783  34.944  41.003  12.436
37016W        W  784  29.439  21.230  10.043
37017W        W  785  10.211  37.017   4.286
37018W        W  786  35.923   4.816   3.172
37019W        W  787  19.052   7.340   1.321
37020W        W  788  34.958   7.240  10.014
37021W        W  789  16.196   5.702  11.429
37022W        W  790  11.718  26.606   3.678
37023W        W  791   8.821   1.844   3.308
37024W        W  792  11.851  10.282   1.277
37025W        W  793   2.890  30.471  11.542
37026W        W  794  12.175  29.104  11.103
37027W        W  795   6.270  43.791  11.985
37028W        W  796  23.595  33.972   4.300
37029W        W  797  40.823   5.739   1.226
37030W        W  798   3.829  26.564  13.951
37031W        W  799  41.795  44.404  11.546
37032W        W  800  14.151  18.563  14.510
37033W        W  801  26.662   1.319   4.688
37034W        W  802  11.178   8.837  12.019
37035W        W  803  16.718  38.826   4.229
37036W        W  804  37.010  11.129  12.366
37037W        W  805  18.571  44.753   0.254
37038W        W  806  37.556  10.151   1.916
37039W        W  807  13.117  21.039   3.205
37040W        W  808  11.199  32.540  14.985
37041W        W  809  14.278   9.871  13.040
37042W        W  810  26.639  41.825  13.500
37043W        W  811  12.217  10.366   5.573
37044W        W  812  26.194  32.098   1.783
37045W        W  813   4.346   0.318  11.064
37046W        W  814  23.142  10.824   2.701
37047W        W  815   1.858  25.066  14.995
37048W        W  816   6.405   2.772  14.987
37049W        W  817   1.744  13.139   0.800
37050W        W  818  27.474  35.545  14.800
37051W        W  819  20.088  35.479   2.185
37052W        W  820  41.034   3.376  14.859
37053W        W  821   3.334  10.759   4.807
37054W        W  822  11.819  25.587  13.946
37055W        W  823  15.719  25.205   0.410
37056W        W  824  13.616  39.986  11.944
37057W        W  825  25.602  32.952   5.590
37058W        W  826  10.143  44.325  13.912
37059W        W  827  28.475  31.099  12.887
37060W        W  828  23.101  25.575   3.646
37061W        W  829  19.536   2.276   4.348
37062W        W  830  17.108  10.705   1.853
37063W        W  831   3.255  38.977   4.249
37064W        W  832  13.213  26.097   0.430
37065W        W  833  29.557  21.215  11.896
37066W        W  834  26.654  27.162  14.813
37067W        W  835  27.558  11.301  12.951
37068W        W  836  42.387  18.745  14.794
37069W        W  837   6.850  12.700   2.351
37070W        W  838   7.840  31.944  13.933
37071W        W  839  36.037   2.784   2.698
37072W        W  840  20.632   0.930   2.195
37073W        W  841  23.705  32.505  10.549
37074W        W  842  26.587  37.914   3.722
37075W        W  843  22.050  41.365  11.494
37076W        W  844  44.901  26.058  12.483
37077W        W  845  25.524  16.759  11.592
37078W        W  846   6.861  34.885  11.466
37079W        W  847  13.725   2.763  12.041
37080W        W  848  18.675   7.364  13.502
37081W        W  849  37.908  17.590   3.652
37082W        W  850   4.360   8.257   4.152
37083W        W  851  23.082  17.649   1.367
37084W        W  852  11.306  39.895   2.711
37085W        W  853  42.881  20.718  12.832
37086W        W  854   4.873   0.314   2.398
37087W        W  855  18.206  24.179   3.858
37088W        W  856  18.583  36.574  14.417
37089W        W  857  17.108  18.139  14.502
37090W        W  858  14.613  42.783   4.234
37091W        W  859   3.787   7.255  13.880
37092W        W  860  16.305  36.470   2.295
37093W        W  861  12.639  26.973   0.294
37094W        W  862  28.971  32.461  11.909
37095W        W  863   9.312   2.885   3.157
37096W        W  864  36.524  25.024   0.423
37097W        W  865  24.120  31.456  11.446
37098W        W  866  22.020  13.627   4.351
37099W        W  867   7.283  20.657   0.383
37100W        W  868  42.977  11.703   3.864
37101W        W  869  31.998  18.571  14.295
37102W        W  870  15.655  42.902  12.439
37103W        W  871  20.106  19.209  14.422
37104W        W  872  19.055  43.499  12.946
37105W        W  873  27.542   8.308   1.365
37106W        W  874  29.661  26.069  10.429
37107W        W  875  30.514  25.159  13.445
37108W        W  876  20.093   8.785   3.670
37109W        W  877   2.939  40.368   2.795
37110W        W  878   7.386  19.703  14.032
37111W        W  879  10.275  35.018   3.358
37112W        W  880   8.288  42.813   4.617
37113W        W  881  18.221  35.580  14.321
37114W        W  882  14.125  13.174   4.276
37115W        W  883  34.522  38.497   3.264
37116W        W  884  20.528  21.061  13.842
37117W        W  885   7.769  38.521  11.954
37118W        W  886  12.762  36.403  12.381
37119W        W  887   0.804  33.612  13.839
37120W        W  888  10.201  31.454  12.532
37121W        W  889  33.108  13.775  11.565
37122W        W  890   6.272  23.623  11.561
37123W        W  891  22.180  16.192  13.403
37124W        W  892  11.624  42.463  10.606
37125W        W  893   5.255  36.418  12.471
37126W        W  894  13.268   7.840   1.413
37127W        W  895   0.929  12.267   2.309
37128W        W  896  43.876  35.378  10.449
37129W        W  897   8.872  40.484   2.747
37130W        W  898  12.670  36.948  12.897
37131W        W  899  36.062  14.677  12.561
37132W        W  900   7.273  23.566   3.188
37133W        W  901  36.389  20.249  13.966
37134W        W  902  27.681  37.553   1.428
37135W        W  903  16.243  17.212   4.220
37136W        W  904  22.071  18.112   3.716
37137W        W  905   2.829  23.157  14.936
37138W        W  906  23.520  11.678  13.818
37139W        W  907   7.684   8.290  13.846
37140W        W  908  12.250  27.170  12.398
37141W        W  909  11.787  37.473  13.474
37142W        W  910  10.695  28.083  10.513
37143W        W  911   5.317   8.839  11.030
37144W        W  912  15.736   2.809  12.091
37145W        W  913  18.686   0.982   1.275
37146W        W  914  41.471  24.065   0.258
37147W        W  915  37.460   4.382   2.305
37148W        W  916  31.949  40.942   1.747
37149W        W  917  34.912  31.989   3.160
37150W        W  918  16.694  35.515   3.306
37151W        W  919  21.749  32.080  12.961
37152W        W  920  11.267  18.219   3.239
37153W        W  921  26.599  17.264  14.001
37154W        W  922   8.704  35.432   1.315
37155W        W  923  36.580  35.857   2.869
37156W        W  924  16.748   3.785   0.292
37157W        W  925  13.152   7.855   0.355
37158W        W  926  32.939  23.154  14.812
37159W        W  927  15.174  34.900   4.633
37160W        W  928  22.160  41.932   4.199
37161W        W  929   5.408  26.698   4.724
37162W        W  930  28.667  20.035  12.948
37163W        W  931   6.407  19.084   0.781
37164W        W  932  27.003  39.061   9.996
37165W        W  933  33.963  44.801  12.356
37166W        W  934  43.850  38.543  13.858
37167W        W  935  32.025  38.421   3.759
37168W        W  936  28.992   3.277  14.998
37169W        W  937  34.435  14.596   1.235
37170W        W  938   6.391  29.005   0.342
37171W        W  939  44.816  42.883  10.567
37172W        W  940   8.361   8.787  14.956
37173W        W  941  15.325  34.426  14.293
37174W        W  942  44.770  32.436   2.413
37175W        W  943  30.606  22.663   3.219
37176W        W  944  17.629   9.826   2.902
37177W        W  945   7.715  28.579  11.448
37178W        W  946  35.027  20.652   4.777
37179W        W  947  41.801  13.296   1.859
37180W        W  948  23.181  16.145   4.173
37181W        W  949  41.895  35.378   0.894
37182W        W  950  19.131  28.939  14.415
37183W        W  951  24.576  36.915  11.594
37184W        W  952  19.149  11.671   2.323
37185W        W  953  12.761  44.365   0.442
37186W        W  954  36.912   1.431  10.454
37187W        W  955  10.819   9.643   3.745
37188W        W  956  28.020  23.129   1.835
37189W        W  957  16.314   8.223  13.942
37190W        W  958  24.990  17.173  14.279
37191W        W  959   7.388  40.934  12.033
37192W        W  960  20.609  39.415  12.490
37193W        W  961  20.049  15.588   0.309
37194W        W  962  14.148  29.945  13.799
37195W        W  963  18.124  22.174  14.368
37196W        W  964   7.858  28.474  10.517
37197W        W  965  40.437  35.997  10.522
37198W        W  966   0.353  34.586   1.241
37199W        W  967  27.955  32.114  12.563
37200W        W  968  16.182   3.348  13.366
37201W        W  969  41.370  35.877  12.381
37202W        W  970  44.301   5.690  13.439
37203W        W  971  11.314  36.484   2.265
37204W        W  972  44.989   9.270  14.485
37205W        W  973  29.542  20.682   4.206
37206W        W  974   3.888   1.780   9.990
37207W        W  975  29.951  17.686   1.386
37208W        W  976   4.246  42.473   1.791
37209W        W  977  42.443  18.559  13.994
37210W        W  978  23.662  32.477   1.233
37211W        W  979  29.529   4.922  13.934
37212W        W  980  26.958  37.938   1.827
37213W        W  981  35.431  16.697   4.128
37214W        W  982  41.342  18.164  13.812
37215W        W  983  39.345  31.440  13.857
37216W        W  984  40.491   8.814  14.760
37217W        W  985  11.359  44.284  14.847
37218W        W  986  11.172  34.890  10.514
37219W        W  987  43.927  20.080  11.505
37220W        W  988  43.324  28.506  14.812
37221W        W  989  26.173  17.133   4.323
37222W        W  990  20.228  33.404  11.540
37223W        W  991  35.048  10.211   3.823
37224W        W  992  30.624  40.527   1.343
37225W        W  993  34.378  43.514  11.582
37226W        W  994  41.423  32.563   2.684
37227W        W  995  16.732  41.870   4.258
37228W        W  996  29.591   9.244   2.267
37229W        W  997  21.219  27.445   0.429
37230W        W  998  23.631  29.154   1.347
37231W        W  999  16.740  25.656  12.432
37232W        W 1000  16.664  31.137  14.418
37233W        W 1001  38.039  32.562  13.037
37234W        W 1002  18.786  12.643   4.262
37235W        W 1003  43.477  38.559   3.239
37236W        W 1004  44.491  15.798  11.461
37237W        W 1005  28.544  28.105  13.494
37238W        W 1006  12.745  27.653  14.808
37239W        W 1007  38.867  43.015   0.304
37240W        W 1008  21.743  30.449  11.964
37241W        W 1009  36.943   9.157   3.723
37242W        W 1010   4.752  42.954  12.528
37243W        W 1011  29.598  27.121   0.767
37244W        W 1012   1.854  35.382  14.482
37245W        W 1013   4.721  13.636  13.528
37246W        W 1014   6.906  25.527   1.765
37247W        W 1015  10.161  24.707  13.340
37248W        W 1016   0.327  32.566   1.285
37249W        W 1017  36.492  10.187   0.369
37250W        W 1018  29.555  26.693   1.913
37251W        W 1019  18.566  36.948  12.461
37252W        W 1020   1.364  12.841   1.759
37253W        W 1021  38.938  18.644  13.518
37254W        W 1022  14.224  31.906  13.008
37255W        W 1023  29.582  19.141   0.316
37256W        W 1024  34.599   7.341   3.291
37257W        W 1025   7.815  14.664  11.010
37258W        W 1026   0.862  23.692  13.020
37259W        W 1027   6.229   9.381   1.825
37260W        W 1028  40.421  27.519   1.249
37261W        W 1029  22.569  26.688  11.901
37262W        W 1030  35.078  31.084  13.035
37263W        W 1031  36.936   5.421   3.645
37264W        W 1032  23.181  18.764  11.935
37265W        W 1033   2.836  22.052   3.669
37266W        W 1034  41.931  17.100   5.086
37267W        W 1035  22.506  42.996   3.831
37268W        W 1036   3.344  10.347   0.307
37269W        W 1037  33.070  27.547  13.016
37270W        W 1038  17.172   9.189   3.688
37271W        W 1039  38.955  11.248   0.259
37272W        W 1040  29.936  26.612   3.199
37273W        W 1041  18.190  13.346   4.332
37274W        W 1042   4.890  10.235  14.013
37275W        W 1043  10.681  28.948   0.790
37276W        W 1044   0.779  32.901  10.931
37277W        W 1045  24.205  29.503  13.031
37278W        W 1046  14.161  16.680  14.287
37279W        W 1047  30.473   1.739  11.003
37280W        W 1048  29.103  25.677  13.346
37281W        W 1049  29.598  44.927  12.012
37282W        W 1050  21.559  38.061  14.379
37283W        W 1051  18.587  27.687  14.512
37284W        W 1052   7.178  19.262   0.293
37285W        W 1053  43.817  27.506   2.719
37286W        W 1054  37.086  31.481  14.975
37287W        W 1055  17.093  12.190  11.608
37288W        W 1056  23.064  26.548  12.839
37289W        W 1057  33.481  39.849  11.945
37290W        W 1058   6.712   5.373   2.811
37291W        W 1059  37.500   8.712   1.361
37292W        W 1060  23.191  31.005   0.780
37293W        W 1061  42.473  39.062  14.981
37294W        W 1062  35.947  18.233   4.155
37295W        W 1063  37.834   3.788  14.434
37296W        W 1064  25.099   5.888   1.310
37297W        W 1065  16.170  27.017  10.946
37298W        W 1066  15.228  36.350  11.472
37299W        W 1067   6.256   5.718  12.406
37300W        W 1068  11.661   2.832  13.953
37301W        W 1069   8.272  21.237   1.718
37302W        W 1070  14.217  27.102   3.373
37303W        W 1071  14.802  25.571  12.542
37304W        W 1072  24.594  15.669  10.580
37305W        W 1073  39.536  24.986  13.540
37306W        W 1074  38.510  28.171  10.428
37307W        W 1075  15.793  44.440   4.138
37308W        W 1076  11.671   8.193   4.740
37309W        W 1077   6.330  19.636  10.619
37310W        W 1078  10.300  10.817   3.727
37311W        W 1079  23.166   5.320  13.427
37312W        W 1080   3.821   1.774  11.006
37313W        W 1081   1.461   3.871   0.762
37314W        W 1082   9.266   0.748   4.798
37315W        W 1083  25.598  29.558   4.162
37316W        W 1084  27.185  25.530   3.867
37317W        W 1085  19.259  18.144  12.548
37318W        W 1086   4.833  32.473   1.884
37319W        W 1087   4.857  15.220  10.071
37320W        W 1088  42.802  14.790   1.294
37321W        W 1089  33.050  43.319  11.974
37322W        W 1090  18.145  31.645  12.917
37323W        W 1091  35.560   7.741   4.182
37324W        W 1092  26.524  28.635   0.284
37325W        W 1093  44.369  18.664   9.965
37326W        W 1094   8.680   8.407   4.234
37327W        W 1095  44.381  29.004   1.860
37328W        W 1096   3.774  44.778  14.914
37329W        W 1097  27.684  40.406   1.337
37330W        W 1098  44.381  40.007  13.937
37331W        W 1099   7.832  12.307  14.426
37332W        W 1100  40.813  12.814  10.480
37333W        W 1101  12.631  21.057  13.936
37334W        W 1102  14.628  12.666   2.735
37335W        W 1103   8.820   3.906   3.703
37336W        W 1104  24.646  16.723   0.738
37337W        W 1105   6.875  41.811  10.640
37338W        W 1106  39.450   4.379  12.391
37339W        W 1107  15.768  34.603   1.745
37340W        W 1108  33.107  14.801   2.212
37341W        W 1109  24.619  23.130  10.496
37342W        W 1110  23.628  11.778   3.330
37343W        W 1111  17.691  16.209  13.925
37344W        W 1112  43.984   9.165   4.764
37345W        W 1113  34.068  31.132   3.274
37346W        W 1114  33.431  17.134   0.359
37347W        W 1115  25.672  22.250  14.319
37348W        W 1116  40.450   7.285   3.745
37349W        W 1117  36.863  37.550   2.836
37350W        W 1118  40.326  13.797   3.247
37351W        W 1119   5.347  29.634  13.817
37352W        W 1120   8.820   2.382   4.729
37353W        W 1121  13.211  43.457   4.219
37354W        W 1122  23.501  17.742   4.281
37355W        W 1123  21.020  38.881   1.419
37356W        W 1124  30.476  36.541   2.308
37357W        W 1125  34.528  41.860  10.964
37358W        W 1126  11.704   0.777   3.164
37359W        W 1127  16.776   8.191   2.788
37360W        W 1128  34.594  37.848   3.640
37361W        W 1129  16.805   0.970  12.429
37362W        W 1130  40.547  18.721  12.529
37363W        W 1131  25.191   7.796  13.456
37364W        W 1132  37.542  10.335  11.087
37365W        W 1133  33.034  28.588   2.203
37366W        W 1134  41.825  31.629   5.275
37367W        W 1135   8.339  18.138   4.659
37368W        W 1136   6.714  44.005   2.863
37369W        W 1137  19.079  18.154   1.895
37370W        W 1138  40.333  25.530   1.901
37371W        W 1139   1.263   7.283  14.412
37372W        W 1140  24.121  38.042  11.024
37373W        W 1141  28.948  21.653   0.311
37374W        W 1142   5.807  27.043   4.821
37375W        W 1143  42.775  19.736  11.016
37376W        W 1144   0.270   0.974   0.802
37377W        W 1145  29.590  39.363  10.634
37378W        W 1146  36.936  25.990  11.537
37379W        W 1147  35.563   9.178  13.904
37380W        W 1148  26.675  24.479  14.853
37381W        W 1149  27.601  33.076   5.129
37382W        W 1150  12.256  42.871  14.384
37383W        W 1151  12.633   8.707   4.346
37384W        W 1152  33.457   8.298   1.754
37385W        W 1153   5.896   9.345  14.364
37386W        W 1154   5.405  36.078   2.413
37387W        W 1155  41.974  34.550   4.670
37388W        W 1156  42.878   3.258  12.435
37389W        W 1157  13.664   9.390   1.929
37390W        W 1158  35.563  39.356  10.417
37391W        W 1159  39.878  37.962  14.917
37392W        W 1160  44.278  15.311   2.709
37393W        W 1161   4.715   8.831  14.287
37394W        W 1162  41.918   3.939  13.407
37395W        W 1163  13.119  41.954  11.016
37396W        W 1164  11.341  25.644   4.309
37397W        W 1165   4.728   0.468  11.104
37398W        W 1166  20.198  40.879  12.968
37399W        W 1167  26.046  37.889   2.294
37400W        W 1168  31.901   8.300   4.311
37401W        W 1169   6.246  43.431  13.347
37402W        W 1170  30.010  13.158   4.743
37403W        W 1171   2.893  15.666  14.359
37404W        W 1172  30.622  34.486  11.550
37405W        W 1173  12.277  26.123   1.817
37406W        W 1174   2.853  38.436  10.127
37407W        W 1175  30.140  31.013   4.789
37408W        W 1176  28.967  30.115  14.468
37409W        W 1177   7.879   1.241  10.917
37410W        W 1178  44.431   9.370  13.373
37411W        W 1179  19.063  27.981   2.726
37412W        W 1180  39.409  42.415   3.750
37413W        W 1181  26.980  36.551   4.218
37414W        W 1182  13.315  43.830  12.509
37415W        W 1183  23.027  31.455   1.447
37416W        W 1184  36.493  20.681   2.803
37417W        W 1185  17.286  25.976   5.594
37418W        W 1186  16.264  16.741   4.208
37419W        W 1187  37.407   8.706   9.966
37420W        W 1188   4.941   5.234  10.049
37421W        W 1189  44.918  37.873  14.847
37422W        W 1190  13.809  35.553  11.934
37423W        W 1191  11.748   2.746   4.349
37424W        W 1192  15.187  15.658   0.840
37425W        W 1193  40.931  20.765   4.141
37426W        W 1194  42.351  24.110   1.765
37427W        W 1195  31.570   1.342   4.802
37428W        W 1196  28.161  23.048   2.381
37429W        W 1197  30.061  33.939  11.383
37430W        W 1198  37.338  24.088  14.472
37431W        W 1199  43.913  26.133  13.026
37432W        W 1200  27.603  23.652   3.639
37433W        W 1201  37.472  29.551   4.810
37434W        W 1202  37.059  23.205   4.746
37435W        W 1203  43.899  24.495  12.887
37436W        W 1204  36.414  26.021  14.417
37437W        W 1205  35.942   7.297   4.268
37438W        W 1206  35.551  27.032  13.311
37439W        W 1207  40.842   6.309  13.450
37440W        W 1208   9.346   0.891   3.642
37441W        W 1209  25.650  26.177  13.963
37442W        W 1210   0.780   1.376  13.425
37443W        W 1211  34.965  11.200  11.889
37444W        W 1212  44.325   7.413   1.317
37445W        W 1213  42.981  25.503  10.587
37446W        W 1214  42.001  38.503   2.677
37447W        W 1215  11.219  13.193   1.746
37448W        W 1216  24.495  35.453  13.921
37449W        W 1217  30.428  39.055  13.366
37450W        W 1218  24.195  43.808   3.712
37451W        W 1219  29.603  10.706  14.365
37452W        W 1220  11.180   4.803   0.351
37453W        W 1221  29.647  27.152  12.366
37454W        W 1222  17.280  44.003  14.368
37455W        W 1223  17.707   4.933   4.792
37456W        W 1224  41.321   9.701   2.764
37457W        W 1225  34.901   1.259  10.426
37458W        W 1226  18.775  43.307  12.411
37459W        W 1227  33.983  21.670   3.244
37460W        W 1228  43.805  19.049  14.938
37461W        W 1229  41.929  10.248   0.427
37462W        W 1230   5.246  33.105   0.319
37463W        W 1231  12.837   9.814   4.612
37464W        W 1232  34.865  43.833   2.409
37465W        W 1233  38.946  38.371   2.358
37466W        W 1234  24.145  38.075   3.365
37467W        W 1235  19.171  25.986   3.148
37468W        W 1236  31.103  32.625   0.464
37469W        W 1237  17.712  18.199   5.795
37470W        W 1238   1.404  41.802   2.836
37471W        W 1239  41.999   9.777  10.904
37472W        W 1240  37.899  42.901  13.854
37473W        W 1241  24.653  27.147  11.430
37474W        W 1242  41.527   6.309   4.248
37475W        W 1243  12.281  11.336   4.602
37476W        W 1244  11.685   9.318   0.358
37477W        W 1245  22.634  36.372   4.611
37478W        W 1246   2.258  16.671  12.999
37479W        W 1247  37.345  27.469  10.553
37480W        W 1248  38.384  10.757  10.459
37481W        W 1249  11.198  37.009  13.870
37482W        W 1250  42.393  34.393  12.397
37483W        W 1251  34.612   0.350  13.879
37484W        W 1252  26.573  42.434  13.058
37485W        W 1253   3.836  13.313  11.106
37486W        W 1254  40.890  34.961  11.536
37487W        W 1255  13.846  41.789  13.324
37488W        W 1256  23.686  12.755   5.670
37489W        W 1257  39.897  13.268  11.879
37490W        W 1258  14.123  14.642  13.038
37491W        W 1259  24.544  25.507  13.974
37492W        W 1260  35.494  18.095  13.365
37493W        W 1261  12.178  23.007  12.540
37494W        W 1262  24.190  31.582   3.282
37495W        W 1263   6.684   8.677   3.288
37496W        W 1264  25.495  19.230  14.004
37497W        W 1265  26.170   3.369   5.289
37498W        W 1266  31.613  12.179  14.774
37499W        W 1267  17.239   7.722  14.874
37500W        W 1268  17.638  37.570   1.698
37501W        W 1269   8.751   9.841   0.934
37502W        W 1270  40.409   9.292  13.436
37503W        W 1271  12.626  37.402   3.195
37504W        W 1272  35.066  41.929   2.722
37505W        W 1273   9.194  23.040   4.803
37506W        W 1274  18.155  42.323   3.755
37507W        W 1275  20.607  14.633  12.514
37508W        W 1276   8.285  21.554   0.853
37509W        W 1277  32.064  31.451  11.045
37510W        W 1278  41.518  32.401   4.347
37511W        W 1279   5.689  17.227   3.683
37512W        W 1280  39.349  14.284   4.128
37513W        W 1281  42.394  24.185   2.330
37514W        W 1282  24.107  41.921  11.115
37515W        W 1283  18.053   2.811  12.368
37516W        W 1284  17.656  29.954   0.243
37517W        W 1285  17.568  18.286  10.978
37518W        W 1286  24.650  15.157  12.838
37519W        W 1287  41.793  33.429   0.252
37520W        W 1288  20.115  36.437  10.449
37521W        W 1289  17.744  22.118  14.342
37522W        W 1290  38.339  17.710  10.895
37523W        W 1291  17.083   2.250   0.401
37524W        W 1292  31.584  30.028   2.868
37525W        W 1293  35.387  13.222  14.348
37526W        W 1294  24.017  18.786   1.396
37527W        W 1295  14.638   8.891  12.456
37528W        W 1296  41.488  16.214   2.209
37529W        W 1297  34.892  23.726  13.489
37530W        W 1298   0.373   2.457  10.630
37531W        W 1299  43.288  14.294  11.096
37532W        W 1300  19.040  28.640   3.206
37533W        W 1301  19.569  44.478   0.826
37534W        W 1302  32.090  35.953   2.781
37535W        W 1303   6.791   3.277   4.640
37536W        W 1304  13.285  20.524   0.883
37537W        W 1305   4.213  15.086   1.792
37538W        W 1306  26.181  34.916  13.471
37539W        W 1307   1.475  24.628  11.499
37540W        W 1308  40.019  36.042   3.357
37541W        W 1309  17.291   7.908   1.786
37542W        W 1310  13.228   7.182   4.750
37543W        W 1311  28.441   5.851   1.829
37544W        W 1312  34.040  34.466  10.945
37545W        W 1313  15.762   6.369   3.274
37546W        W 1314   1.300  40.491  12.880
37547W        W 1315  44.398  40.946  14.493
37548W        W 1316  29.553  42.368  11.986
37549W        W 1317   1.439  39.952  14.510
37550W        W 1318  35.920  25.601  11.484
37551W        W 1319  28.585   1.461   0.271
37552W        W 1320   2.781  35.591   0.324
37553W        W 1321  40.889  29.625  13.795
37554W        W 1322  23.154  15.212   4.838
37555W        W 1323  40.022  42.389  13.018
37556W        W 1324  35.488  11.630  13.832
37557W        W 1325  44.954  32.972   1.822
37558W        W 1326   1.731   5.388   1.704
37559W        W 1327   4.854  32.461   0.315
37560W        W 1328  37.499  22.605  14.888
37561W        W 1329  20.746  12.720   3.715
37562W        W 1330   2.788  24.570   0.403
37563W        W 1331  23.003  27.012  12.551
37564W        W 1332  12.286  44.410  10.487
37565W        W 1333  14.164  44.861  11.037
37566W        W 1334   8.378  30.438   4.286
37567W        W 1335  36.859  28.145   3.229
37568W        W 1336  39.358  14.598  12.929
37569W        W 1337  19.705   3.248  13.894
37570W        W 1338   2.854  21.638  11.054
37571W        W 1339  32.579   6.370   3.345
37572W        W 1340  24.973   5.751   2.270
37573W        W 1341  18.758   7.359  12.013
37574W        W 1342   2.813   0.858  14.342
37575W        W 1343  24.174  35.893   9.965
37576W        W 1344  25.994  32.948   9.968
37577W        W 1345  36.563   1.238  13.435
37578W        W 1346  43.862   0.959  13.377
37579W        W 1347  40.036  38.034  11.012
37580W        W 1348  10.649  18.769   3.299
37581W        W 1349  25.469  13.199   4.248
37582W        W 1350  17.789   6.227   3.363
37583W        W 1351  42.780  30.971   2.407
37584W        W 1352  12.309  16.152   4.783
37585W        W 1353   6.189  43.886  10.582
37586W        W 1354  15.094  28.146  10.448
37587W        W 1355  39.490  32.978   2.219
37588W        W 1356   3.806  23.511  14.781
37589W        W 1357  15.708  20.248   1.415
37590W        W 1358   6.332   3.461   1.882
37591W        W 1359  40.942  41.807  11.404
37592W        W 1360  41.322  26.173   0.362
37593W        W 1361  38.366  27.112  13.962
37594W        W 1362  38.337   9.848   4.211
37595W        W 1363  29.012  29.021   3.164
37596W        W 1364   4.406  26.624   2.798
37597W        W 1365  39.015  13.126  11.404
37598W        W 1366  16.645   3.408  13.348
37599W        W 1367  41.451  10.180  10.434
37600W        W 1368  34.024  25.603   4.145
37601W        W 1369   3.343  22.250  11.608
37602W        W 1370  25.058  34.521  11.986
37603W        W 1371   0.805   0.778   5.318
37604W        W 1372  32.107   2.732  14.968
37605W        W 1373  44.450  34.050   4.290
37606W        W 1374  40.343  34.495  13.909
37607W        W 1375  14.679   4.284   4.152
37608W        W 1376  31.406  25.649  13.445
37609W        W 1377  21.200  26.513   0.244
37610W        W 1378  19.109  39.939   3.368
37611W        W 1379  24.684   3.818   4.308
37612W        W 1380  27.619   3.399   3.838
37613W        W 1381  28.554   8.218  13.506
37614W        W 1382   2.339  34.369   9.483
37615W        W 1383  33.394  20.701   0.907
37616W        W 1384  42.310  37.044   1.431
37617W        W 1385  25.657  15.706  13.506
37618W        W 1386  27.575  21.182  12.986
37619W        W 1387  24.615  36.895  13.806
37620W        W 1388  44.392   7.745   5.305
37621W        W 1389   8.859  41.446  13.918
37622W        W 1390  16.783  25.186   3.285
37623W        W 1391  31.582  19.664  12.572
37624W        W 1392   7.231  21.021  11.954
37625W        W 1393  43.389  27.073  11.064
37626W        W 1394  44.378  41.438  11.953
37627W        W 1395  25.698  25.538   0.733
37628W        W 1396  20.111  41.497   1.864
37629W        W 1397  39.992   5.788  10.041
37630W        W 1398  36.424  15.668  11.545
37631W        W 1399  24.635  32.098   3.175
37632W        W 1400  32.610  31.063   2.383
37633W        W 1401  13.346  21.626  12.372
37634W        W 1402   1.796  24.066   2.283
37635W        W 1403  26.041  15.214  12.360
37636W        W 1404  27.546  30.647  13.996
37637W        W 1405   1.304   3.922  12.410
37638W        W 1406   1.917  22.119   0.389
37639W        W 1407  21.197  37.989   2.733
37640W        W 1408  18.788  35.435  12.916
37641W        W 1409  38.434  12.299   2.874
37642W        W 1410  30.017   0.493   2.243
37643W        W 1411  23.537  29.452  13.380
37644W        W 1412  15.198  38.508   3.629
37645W        W 1413  20.141   9.228  12.376
37646W        W 1414  18.187  42.970   0.767
37647W        W 1415  31.009  42.322  14.953
37648W        W 1416  17.158  44.894  11.372
37649W        W 1417  36.875   4.424   1.897
37650W        W 1418   0.746  21.597  14.922
37651W        W 1419  32.000   8.362  14.781
37652W        W 1420  33.917  21.093   3.796
37653W        W 1421  40.496   5.701   4.352
37654W        W 1422   6.688  17.784   2.666
37655W        W 1423  14.667  39.359   0.941
37656W        W 1424  38.496  30.133  14.278
37657W        W 1425  31.058   1.831  10.956
37658W        W 1426  36.404  38.833   3.263
37659W        W 1427  30.469  35.919  11.940
37660W        W 1428  43.461  44.926  13.548
37661W        W 1429  19.614  19.760   3.784
37662W        W 1430  35.021  37.500  11.382
37663W        W 1431  29.071  22.189  13.444
37664W        W 1432  28.053  24.099  14.358
37665W        W 1433  24.625  11.748   1.916
37666W        W 1434  35.381  24.586  12.341
37667W        W 1435  27.079   8.163  10.502
37668W        W 1436  23.625   9.269   0.289
37669W        W 1437  31.974  39.478   4.658
37670W        W 1438   7.197   5.786  12.877
37671W        W 1439  37.456  14.285  10.524
37672W        W 1440   4.286  24.599  10.630
37673W        W 1441  41.015  44.833   2.183
37674W        W 1442  30.093  17.769   2.225
37675W        W 1443  34.066  20.124  13.912
37676W        W 1444  19.194  12.852  11.869
37677W        W 1445   5.730  29.038   4.334
37678W        W 1446  13.680   1.478  14.922
37679W        W 1447  11.278  36.973   3.229
37680W        W 1448  26.146  20.714   3.374
37681W        W 1449  21.659  38.017   0.807
37682W        W 1450  24.506   7.240   1.292
37683W        W 1451   0.797   9.199   1.899
37684W        W 1452  28.523  11.347  12.432
37685W        W 1453  13.674  42.865   3.675
37686W        W 1454   4.827  37.495   3.275
37687W        W 1455  36.578  40.549  10.545
37688W        W 1456   1.442   6.195  10.508
37689W        W 1457  33.620  33.913  14.785
37690W        W 1458  11.661  20.036   1.746
37691W        W 1459  19.248   9.271   1.736
37692W        W 1460  16.593  16.178   2.358
37693W        W 1461  16.089  35.910   1.829
37694W        W 1462   2.294  30.150   1.730
37695W        W 1463   6.216  19.595   5.102
37696W        W 1464  35.863  43.785  13.880
37697W        W 1465   0.875  40.041   0.938
37698W        W 1466   9.200  14.710  11.450
37699W        W 1467  17.252   0.913   0.472
37700W        W 1468   6.325   4.405  11.483
37701W        W 1469   2.323   8.196   2.282
37702W        W 1470  33.012  22.085  14.505
37703W        W 1471  12.781  27.673  11.525
37704W        W 1472  17.665  28.621   1.788
37705W        W 1473  43.371  33.395   2.850
37706W        W 1474   7.844  18.660  13.467
37707W        W 1475  24.039   1.396  14.005
37708W        W 1476   9.854   2.269  13.933
37709W        W 1477  16.269  14.150   4.207
37710W        W 1478  43.991  36.991  13.371
37711W        W 1479  20.691  14.219  11.491
37712W        W 1480  11.134  16.144   0.802
37713W        W 1481  37.498  14.175  10.021
37714W        W 1482  26.964  14.201  13.836
37715W        W 1483  23.576  27.029  11.455
37716W        W 1484   5.829  28.092  12.971
37717W        W 1485   7.897  35.467   1.447
37718W        W 1486  22.686  29.920   1.784
37719W        W 1487  42.778   8.699  14.876
37720W        W 1488  21.205   1.309   2.716
37721W        W 1489   3.890   2.257  11.028
37722W        W 1490  15.146   4.335   4.222
37723W        W 1491  31.417  14.179   3.266
37724W        W 1492  15.592  32.435   0.322
37725W        W 1493  19.160  17.671  13.840
37726W        W 1494  39.445  41.301  10.942
37727W        W 1495   7.326   1.360  14.507
37728W        W 1496   8.309  28.497  14.298
37729W        W 1497  16.739  15.127   2.355
37730W        W 1498  38.372   2.884   2.196
37731W        W 1499  10.668  35.392   0.353
37732W        W 1500  38.483  21.241  14.867
37733W        W 1501   6.709  11.342   2.743
37734W        W 1502  10.761  29.079  12.483
37735W        W 1503   0.309  30.967  13.526
37736W        W 1504   9.349  28.086   2.373
37737W        W 1505   9.673  34.889   0.802
37738W        W 1506  18.744  22.185  14.002
37739W        W 1507   2.751  32.098   4.707
37740W        W 1508  26.035  16.314   0.392
37741W        W 1509   3.302  15.175   0.427
37742W        W 1510  41.319  32.401  11.910
37743W        W 1511   4.417  12.846  10.473
37744W        W 1512   9.771   1.915   0.336
37745W        W 1513  29.579   0.961   1.376
37746W        W 1514   8.191  27.136   0.340
37747W        W 1515  10.203  31.912   2.322
37748W        W 1516  36.092  30.055  13.822
37749W        W 1517  31.082  41.946   2.290
37750W        W 1518  32.425  37.863  12.341
37751W        W 1519   9.767   9.666  12.925
37752W        W 1520   4.782  31.994  12.910
37753W        W 1521   6.805  17.595   1.342
37754W        W 1522   1.379  11.256   2.265
37755W        W 1523  40.512  35.877  12.014
37756W        W 1524  44.420  14.286  13.024
37757W        W 1525  32.903  42.793  10.933
37758W        W 1526   2.233   7.284  10.421
37759W        W 1527  26.023  33.963   1.230
37760W        W 1528   1.293   4.712   4.637
37761W        W 1529  12.715  20.618  13.405
37762W        W 1530  12.693  36.957  12.378
37763W        W 1531  23.067   7.325  11.936
37764W        W 1532  25.066  10.222  13.020
37765W        W 1533  24.667  14.819   1.215
37766W        W 1534  19.615  15.186  11.372
37767W        W 1535   8.729   9.875   2.765
37768W        W 1536  29.054  34.949   0.262
37769W        W 1537  32.063  25.172   4.748
37770W        W 1538  22.528   0.847   4.782
37771W        W 1539  34.399  36.902  14.012
37772W        W 1540   7.733   6.279   5.153
37773W        W 1541  43.316  38.971   1.218
37774W        W 1542  33.624   7.831   1.867
37775W        W 1543  21.527   9.271  10.938
37776W        W 1544  22.622  17.172   3.265
37777W        W 1545  33.580   9.698   0.360
37778W        W 1546  41.405  37.376   0.315
37779W        W 1547  28.018  40.048  12.390
37780W        W 1548   3.261  19.694   2.765
37781W        W 1549  12.714   9.695   4.212
37782W        W 1550  15.760  21.207   0.443
37783W        W 1551   7.903   5.873  12.428
37784W        W 1552   5.260  21.572  12.421
37785W        W 1553  13.705  16.255   9.974
37786W        W 1554  16.101   3.373   4.720
37787W        W 1555  44.443  31.149   3.302
37788W        W 1556  18.272  11.214   1.260
37789W        W 1557   5.260  23.549   1.824
37790W        W 1558  27.504  43.477  14.777
37791W        W 1559  17.716  35.388  10.935
37792W        W 1560  32.634  27.147  13.050
37793W        W 1561  14.638  21.583   3.293
37794W        W 1562  22.707  38.416  12.842
37795W        W 1563   4.923   1.918  13.323
37796W        W 1564   6.807  13.198  11.453
37797W        W 1565  42.500  16.616   0.840
37798W        W 1566  42.838  31.025   1.803
37799W        W 1567  14.762   4.815  14.864
37800W        W 1568  28.988  22.642  13.970
37801W        W 1569   5.279  27.576   2.869
37802W        W 1570  22.225  14.654  14.890
37803W        W 1571  34.444  25.591   4.166
37804W        W 1572   3.947  12.699  11.434
37805W        W 1573  31.466  22.220  14.376
37806W        W 1574  19.172   2.296  13.965
37807W        W 1575  24.108   7.237  13.534
37808W        W 1576  23.161  44.479   3.838
37809W        W 1577  15.228  37.456  13.985
37810W        W 1578  40.543  44.429   4.306
37811W        W 1579  18.571  33.002   0.829
37812W        W 1580  42.426   6.302  12.340
37813W        W 1581   6.759  25.524  14.395
37814W        W 1582  13.761   7.379  12.888
37815W        W 1583  41.410  26.584  13.852
37816W        W 1584   8.245  29.586   0.740
37817W        W 1585  39.554  12.731  11.384
37818W        W 1586  37.568  20.223   3.291
37819W        W 1587  24.181  15.815   2.775
37820W        W 1588   1.891  14.620   1.324
37821W        W 1589  28.021  20.066   4.666
37822W        W 1590  27.096  18.605   3.151
37823W        W 1591  39.841   3.455  13.926
37824W        W 1592  18.712  41.830   4.628
37825W        W 1593  11.320  22.733  12.976
37826W        W 1594  14.781  42.847  14.387
37827W        W 1595   8.899  13.784  12.519
37828W        W 1596  35.486  10.734   2.862
37829W        W 1597  30.943   9.848  11.097
37830W        W 1598   3.384  12.117  14.364
37831W        W 1599  21.088   8.285  14.411
37832W        W 1600  21.154  21.635   1.728
37833W        W 1601  19.082  18.569   0.323
37834W        W 1602   1.876  37.497  10.993
37835W        W 1603  25.551  10.757   2.773
37836W        W 1604  29.138  37.371   2.835
37837W        W 1605   8.711   6.232  10.433
37838W        W 1606  33.431  29.156   2.897
37839W        W 1607  21.130  32.917   1.323
37840W        W 1608  23.586  16.265  13.417
37841W        W 1609  37.069  11.190  10.933
37842W        W 1610   2.872   7.833   2.360
37843W        W 1611  13.715  39.539  10.417
37844W        W 1612  18.748  26.106  11.466
37845W        W 1613  12.703   7.853  14.493
37846W        W 1614  21.018   2.798  11.938
37847W        W 1615  22.221   8.821  11.883
37848W        W 1616  23.624  25.025  13.013
37849W        W 1617  15.307   3.426   4.652
37850W        W 1618  41.522  17.635  14.996
37851W        W 1619  11.796  41.793  12.045
37852W        W 1620   7.870  15.668  11.462
37853W        W 1621   5.739  26.467  12.875
37854W        W 1622  28.178  18.593  12.839
37855W        W 1623  31.581  22.560   3.297
37856W        W 1624  28.964  35.470  10.435
37857W        W 1625   0.981  15.289   1.915
37858W        W 1626   4.312  12.291  11.079
37859W        W 1627  32.571  35.377  11.945
37860W        W 1628  17.772  29.628   3.721
37861W        W 1629  34.564  41.810   4.168
37862W        W 1630  32.621  44.351   3.816
37863W        W 1631  25.586  14.742  13.848
37864W        W 1632  26.141  39.987   0.362
37865W        W 1633   6.193  39.415   2.216
37866W        W 1634  22.073   6.215  13.468
37867W        W 1635  28.514  20.700   3.667
37868W        W 1636   8.713  26.527   0.757
37869W        W 1637  15.755  25.508  13.824
37870W        W 1638  32.543  15.232   1.379
37871W        W 1639   7.798  28.929  13.859
37872W        W 1640  12.654  41.802   0.863
37873W        W 1641  18.593  24.138   2.299
37874W        W 1642  10.173  20.256  14.491
37875W        W 1643  30.153  34.423   4.232
37876W        W 1644  13.312  34.988   3.172
37877W        W 1645   0.324  26.060  14.875
37878W        W 1646  44.884  36.075   0.346
37879W        W 1647  44.276  22.023  10.515
37880W        W 1648  44.934  29.095  10.478
37881W        W 1649  14.113  19.060   1.432
37882W        W 1650  35.038  29.000   2.238
37883W        W 1651  21.682  27.155  10.633
37884W        W 1652  15.745  17.234   1.759
37885W        W 1653   9.326  26.694  11.879
37886W        W 1654  37.858   3.796  13.459
37887W        W 1655  19.201  40.864   3.636
37888W        W 1656  38.861  43.883  10.019
37889W        W 1657  26.481  21.573  10.617
37890W        W 1658   6.198  36.437   4.688
37891W        W 1659  32.885  18.630  13.868
37892W        W 1660   5.731   2.355   4.763
37893W        W 1661  23.161  28.151  11.880
37894W        W 1662  32.089  32.447   0.366
37895W        W 1663  23.133  37.864   3.316
37896W        W 1664  42.009   6.843   1.446
37897W        W 1665   0.801  44.352  12.045
37898W        W 1666  12.725  35.545  13.364
37899W        W 1667  24.722  43.384  14.962
37900W        W 1668  15.222  34.402   3.784
37901W        W 1669  38.362  11.820   3.253
37902W        W 1670  44.930  29.077  11.458
37903W        W 1671   1.399  33.437  11.911
37904W        W 1672  21.263  15.651   3.198
37905W        W 1673  21.690  33.928   2.708
37906W        W 1674  39.056  25.038   2.251
37907W        W 1675  40.362  29.045  14.918
37908W        W 1676  28.015  28.464   4.174
37909W        W 1677  13.608  15.219   3.171
37910W        W 1678  32.097  23.632   3.732
37911W        W 1679   9.842  28.958   1.304
37912W        W 1680  29.992  38.325   0.811
37913W        W 1681  40.826  35.459  14.836
37914W        W 1682  38.568  20.040  12.514
37915W        W 1683  28.612  15.794   1.449
37916W        W 1684  10.707  19.164  13.900
37917W        W 1685  11.256  29.970  12.357
37918W        W 1686  40.872  12.690  14.959
37919W        W 1687  11.689   1.371  11.516
37920W        W 1688  17.166   6.419  13.834
37921W        W 1689  39.876   3.762  11.548
37922W        W 1690  24.545   4.836  11.941
37923W        W 1691  12.314   4.411  12.471
37924W        W 1692  21.600  31.150   4.204
37925W        W 1693  33.112   9.158  11.990
37926W        W 1694   8.784   4.235   2.374
37927W        W 1695  40.829  11.313  10.951
37928W        W 1696   2.723  22.099   2.238
37929W        W 1697  11.191  11.801   3.766
37930W        W 1698  17.120  16.145  11.539
37931W        W 1699  34.076  19.273  12.982
37932W        W 1700  39.422  28.078  14.415
37933W        W 1701  29.953  22.704   1.776
37934W        W 1702  34.991   8.214  12.082
37935W        W 1703  40.502  33.485   2.845
37936W        W 1704  39.537  34.592   4.296
37937W        W 1705  19.121  33.419   3.854
37938W        W 1706  26.542  23.683  13.373
37939W        W 1707  41.821  37.441   3.822
37940W        W 1708   5.274  28.962  14.832
37941W        W 1709  14.616  21.541   4.174
37942W        W 1710  33.529  31.932   3.170
37943W        W 1711  10.256  25.631   4.787
37944W        W 1712  36.577  18.261   3.758
37945W        W 1713  30.969  27.997  12.573
37946W        W 1714  44.471  35.478  11.034
37947W        W 1715  25.022   8.794  10.928
37948W        W 1716   8.828  34.902  10.610
37949W        W 1717   9.654  23.169  10.941
37950W        W 1718  24.058  10.268   1.432
37951W        W 1719  44.397   3.310  13.052
37952W        W 1720  35.880  10.236   2.181
37953W        W 1721  39.363  37.075  12.862
37954W        W 1722  10.221  43.865  11.569
37955W        W 1723  39.427  13.239   3.815
37956W        W 1724  39.390   3.766   2.745
37957W        W 1725  13.212   9.309   0.916
37958W        W 1726  24.616  16.133   1.800
37959W        W 1727  16.113  34.972   4.217
37960W        W 1728  13.600  27.543  10.506
37961W        W 1729  27.107  38.458   4.278
37962W        W 1730  39.808  25.713   2.314
37963W        W 1731  20.270   6.880  13.413
37964W        W 1732   5.902   7.911  13.042
37965W        W 1733  37.353  36.537   4.353
37966W        W 1734  14.152  37.955  10.627
37967W        W 1735  17.573  13.320  13.050
37968W        W 1736  25.179  21.611  14.006
37969W        W 1737  31.496  21.190   0.769
37970W        W 1738  24.219  35.949  10.446
37971W        W 1739  33.426  30.963   0.813
37972W        W 1740   0.344  14.332   1.849
37973W        W 1741  30.955   7.249   2.272
37974W        W 1742  17.095  21.037  12.456
37975W        W 1743  37.360  33.984   2.202
37976W        W 1744  28.120   9.341   0.950
37977W        W 1745  42.852  28.930   1.345
37978W        W 1746  39.337  24.134   3.173
37979W        W 1747  19.569  16.194  13.002
37980W        W 1748  39.462  44.986  11.566
37981W        W 1749   5.927  44.903   0.275
37982W        W 1750  44.375  42.811   3.264
37983W        W 1751   1.245  25.010   3.835
37984W        W 1752   4.878   2.360  13.047
37985W        W 1753  28.936  22.637  10.937
37986W        W 1754  24.694   9.884  11.457
37987W        W 1755  42.840  41.929   1.925
37988W        W 1756   6.421  38.949  11.052
37989W        W 1757   2.860  25.067  14.913
37990W        W 1758  24.152   4.755   2.352
37991W        W 1759  31.536   7.380   4.163
37992W        W 1760  37.927   3.887   0.434
37993W        W 1761  16.288   0.885   3.169
37994W        W 1762  16.763  32.528   0.340
37995W        W 1763   6.287   2.253  10.417
37996W        W 1764  44.832  44.348   2.735
37997W        W 1765  44.863   8.169   1.217
37998W        W 1766  11.622  26.084   2.748
37999W        W 1767  11.731   7.338  12.541
38000W        W 1768  38.899  41.980  14.390
38001W        W 1769   1.749  41.354  13.968
38002W        W 1770  32.548  11.818  13.444
38003W        W 1771   7.361  32.554   0.728
38004W        W 1772  42.903  41.388   2.902
38005W        W 1773   2.360  39.810  14.392
38006W        W 1774   7.796  43.915   0.395
38007W        W 1775  37.994  10.832  14.439
38008W        W 1776  20.645   3.297   3.676
38009W        W 1777  34.496  35.470  12.364
38010W        W 1778  44.914  26.102   3.734
38011W        W 1779  42.378  21.718  13.499
38012W        W 1780   4.312  11.160   0.949
38013W        W 1781   3.760  40.434  12.503
38014W        W 1782   5.778  41.537  14.479
38015W        W 1783   4.738  16.116   2.323
38016W        W 1784   4.280  20.652   3.802
38017W        W 1785  40.503  44.924   1.312
38018W        W 1786  14.771  27.560   1.329
38019W        W 1787  39.834  16.727   4.258
38020W        W 1788   0.929   0.807   4.204
38021W        W 1789  11.357  26.054  14.360
38022W        W 1790  25.113  24.708   1.393
38023W        W 1791  43.404  10.145  14.890
38024W        W 1792  34.972  15.815   0.256
38025W        W 1793  35.887   1.298  13.816
38026W        W 1794  43.298  28.580  13.885
38027W        W 1795  25.165  40.858   2.685
38028W        W 1796   1.355  31.545  12.039
38029W        W 1797  27.514  16.790   1.310
38030W        W 1798  29.516  30.969  11.915
38031W        W 1799  39.043  36.564  10.613
38032W        W 1800  22.165  31.016   4.612
38033W        W 1801  22.213  28.089   1.216
38034W        W 1802  36.567   5.703   1.301
38035W        W 1803  36.858  26.628   0.903
38036W        W 1804  43.330  31.479  14.915
38037W        W 1805   7.259  10.249  10.087
38038W        W 1806  19.741   2.448   3.193
38039W        W 1807  36.978  14.328   4.147
38040W        W 1808  40.803  35.867   1.772
38041W        W 1809  10.868  21.708  10.403
38042W        W 1810  26.959  22.538  11.885
38043W        W 1811  43.946  20.141  10.641
38044W        W 1812  19.689  18.687  14.794
38045W        W 1813   8.767   0.970   0.257
38046W        W 1814  36.901  24.585  13.326
38047W        W 1815   5.301  40.847   1.449
38048W        W 1816  17.280  28.592  13.435
38049W        W 1817  42.384  25.034   0.758
38050W        W 1818  39.449  36.523  12.423
38051W        W 1819   0.750  25.030   9.936
38052W        W 1820  15.635  14.219   4.627
38053W        W 1821   6.320   5.345  11.498
38054W        W 1822  26.163  16.235   3.791
38055W        W 1823  32.581  40.359  13.883
38056W        W 1824  22.079  21.714  11.088
38057W        W 1825  17.701  28.011   1.790
38058W        W 1826  33.000  30.045   0.482
38059W        W 1827  19.543  24.718   4.316
38060W        W 1828  29.134  43.776  13.372
38061W        W 1829   5.804  14.262   1.824
38062W        W 1830  16.185  32.425  12.981
38063W        W 1831  23.518  23.597   0.797
38064W        W 1832  37.999  31.090  11.904
38065W        W 1833   0.433  19.144   0.930
38066W        W 1834   6.196  43.350  11.072
38067W        W 1835  20.707  26.517  11.043
38068W        W 1836  29.920  39.851  11.533
38069W        W 1837  27.175  35.416  12.501
38070W        W 1838  26.001   3.315   2.873
38071W        W 1839  39.849   4.241   1.351
38072W        W 1840  41.516  16.769   2.868
38073W        W 1841  30.524   8.323  14.949
38074W        W 1842  16.193  43.788  10.425
38075W        W 1843  10.825  17.690   4.668
38076W        W 1844  27.182  35.068  13.836
38077W        W 1845  31.017  33.929   1.258
38078W        W 1846   5.396  37.001  11.973
38079W        W 1847  42.871  22.604   0.830
38080W        W 1848  38.511  32.538   9.944
38081W        W 1849  34.516  36.500  14.878
38082W        W 1850   7.263  28.929  11.126
38083W        W 1851  34.557   9.788   1.723
38084W        W 1852   3.304  34.401   4.217
38085W        W 1853  14.742  19.663  11.861
38086W        W 1854  29.153   9.170   2.728
38087W        W 1855  31.988   4.814  11.912
38088W        W 1856  35.369   8.357   9.662
38089W        W 1857  38.385   3.241  12.405
38090W        W 1858  33.927  18.146   5.321
38091W        W 1859  42.836  39.388  10.406
38092W        W 1860   9.323  43.823  12.578
38093W        W 1861  15.111  28.186  11.092
38094W        W 1862  39.509  44.915   2.344
38095W        W 1863  31.461   9.308   1.237
38096W        W 1864  32.941   4.802   2.694
38097W        W 1865   8.277  39.815  14.485
38098W        W 1866   4.418  28.117   4.815
38099W        W 1867  13.259  14.111  10.971
38100W        W 1868  17.627  19.703  14.891
38101W        W 1869   5.761  27.470   2.283
38102W        W 1870  25.642  37.572   2.884
38103W        W 1871  30.497  26.522  14.906
38104W        W 1872   5.391  14.303   1.731
38105W        W 1873   2.888  43.424  13.797
38106W        W 1874   7.343  41.923  10.942
38107W        W 1875  15.622  14.766   3.787
38108W        W 1876   8.878  20.738   4.734
38109W        W 1877  17.140   1.967  10.430
38110W        W 1878  26.974  40.412   0.369
38111W        W 1879   2.425  42.935   3.247
38112W        W 1880  32.513  43.286  11.105
38113W        W 1881  26.517  44.784   2.869
38114W        W 1882  36.091   3.318   1.837
38115W        W 1883  43.457  15.144  11.441
38116W        W 1884  14.297  25.015   4.612
38117W        W 1885  36.874  21.117   3.341
38118W        W 1886  44.007   3.951   4.190
38119W        W 1887  13.160   9.171  12.370
38120W        W 1888   8.797   7.746   0.395
38121W        W 1889  15.156   0.297   4.127
38122W        W 1890  16.198  31.602  14.787
38123W        W 1891  36.387  36.510   0.918
38124W        W 1892   1.286  21.627  12.999
38125W        W 1893  44.973  40.320  10.417
38126W        W 1894   4.741  27.531  14.394
38127W        W 1895  35.037  38.933   1.261
38128W        W 1896  27.627  19.692  13.376
38129W        W 1897  25.140   5.355   3.662
38130W        W 1898  39.066  43.015  10.525
38131W        W 1899   5.715  36.043  10.954
38132W        W 1900   1.968  21.695  12.489
38133W        W 1901  13.677  40.307   2.865
38134W        W 1902  11.210   9.175  10.574
38135W        W 1903  41.881  32.558   0.960
38136W        W 1904  31.001  30.969  12.837
38137W        W 1905   9.664  39.538  14.509
38138W        W 1906  38.536  10.754   5.191
38139W        W 1907  21.233  29.656   2.874
38140W        W 1908  15.761   2.379   2.804
38141W        W 1909  29.605  29.660   5.165
38142W        W 1910  10.651   9.274   4.804
38143W        W 1911  33.553  40.842   4.140
38144W        W 1912   3.369  44.825  14.333
38145W        W 1913  37.345  15.756  12.924
38146W        W 1914  23.734  33.061   0.792
38147W        W 1915  22.531  34.114  11.378
38148W        W 1916  35.983   6.388   1.736
38149W        W 1917  21.543   0.473   5.090
38150W        W 1918   2.310  11.232  14.487
38151W        W 1919  18.777  30.964   1.450
38152W        W 1920   4.364  15.804  12.441
38153W        W 1921  22.691  30.457  13.535
38154W        W 1922  23.699   7.227  13.340
38155W        W 1923  41.811  24.201  12.408
38156W        W 1924  25.506  20.704   1.748
38157W        W 1925  37.434  35.369  12.017
38158W        W 1926   3.245  36.863  12.436
38159W        W 1927  35.510  29.518   4.796
38160W        W 1928   7.360   0.746  13.351
38161W        W 1929  15.768  37.878   2.746
38162W        W 1930  24.152  28.980  13.409
38163W        W 1931  31.029  44.352   1.865
38164W        W 1932  17.755  18.788   1.242
38165W        W 1933  25.647  23.098  13.417
38166W        W 1934  24.642  28.084   1.717
38167W        W 1935  20.631  19.681  11.935
38168W        W 1936  40.002  34.472  11.493
38169W        W 1937   1.747  23.028   2.840
38170W        W 1938  20.093  27.572  12.412
38171W        W 1939  37.576   9.336   3.852
38172W        W 1940   2.757  12.214  12.920
38173W        W 1941  11.827  42.379   4.667
38174W        W 1942  23.693  24.100   2.290
38175W        W 1943  13.260  30.071   4.252
38176W        W 1944  10.694  11.143  12.411
38177W        W 1945  24.618  19.088   4.637
38178W        W 1946  42.447  26.684  13.870
38179W        W 1947  17.238  15.613   9.926
38180W        W 1948  32.919  23.040  10.448
38181W        W 1949  38.404  43.388   4.213
38182W        W 1950  19.722  38.931  14.981
38183W        W 1951  10.768  10.781  12.368
38184W        W 1952  37.894  14.124   2.225
38185W        W 1953  18.126  42.017   3.375
38186W        W 1954   5.757  34.604  10.911
38187W        W 1955  31.924  25.129  12.071
38188W        W 1956  24.642   3.930  11.903
38189W        W 1957   9.356  38.911   2.320
38190W        W 1958  17.119  19.237  11.980
38191W        W 1959  30.467   1.894   4.648
38192W        W 1960   2.332  15.227   0.319
38193W        W 1961  43.855  40.962   0.849
38194W        W 1962  35.486  14.807  12.385
38195W        W 1963  39.532  20.271   2.752
38196W        W 1964  31.617  27.655  12.457
38197W        W 1965   9.764  31.923  13.922
38198W        W 1966   2.419  13.726   3.148
38199W        W 1967  28.977  22.062   0.840
38200W        W 1968   9.660  14.821  12.057
38201W        W 1969  23.584  27.178   1.911
38202W        W 1970  36.549  41.937  10.468
38203W        W 1971  24.065   8.359  11.606
38204W        W 1972   9.660  40.983  14.879
38205W        W 1973  15.687  39.065   1.248
38206W        W 1974   2.835  35.388  13.337
38207W        W 1975  38.856   8.816   0.952
38208W        W 1976  21.135  17.703  14.424
38209W        W 1977  40.050  22.553  13.437
38210W        W 1978  10.247  43.348  11.935
38211W        W 1979  23.222   7.676   2.728
38212W        W 1980  16.742  23.532   2.321
38213W        W 1981  37.015  26.065   1.914
38214W        W 1982   0.264  10.269  12.893
38215W        W 1983  37.086   2.877   3.160
38216W        W 1984  30.484   2.336  12.863
38217W        W 1985  27.990  30.164   3.826
38218W        W 1986  23.006  17.689   1.931
38219W        W 1987  24.673  39.383   1.407
38220W        W 1988  16.695  27.531   1.869
38221W        W 1989   3.851   5.819   1.210
38222W        W 1990  30.476  10.267  13.534
38223W        W 1991  26.630  17.743   3.661
38224W        W 1992  37.002  10.289  12.403
38225W        W 1993  40.525  34.886  14.761
38226W        W 1994  32.028  14.764  11.880
38227W        W 1995  20.120  42.827  12.935
38228W        W 1996  37.845  35.402  13.396
38229W        W 1997  35.017  44.952   1.359
38230W        W 1998  43.811  40.969  14.335
38231W        W 1999  42.818   6.776   2.359
38232W        W 2000   5.797  40.962   3.767
38233W        W 2001  42.363  43.442   0.309
38234W        W 2002  14.094  22.085   4.613
38235W        W 2003  10.782  25.215  10.998
38236W        W 2004   3.709   9.693  13.807
38237W        W 2005   3.242  34.549   4.735
38238W        W 2006  22.076  17.636  12.072
38239W        W 2007  44.448  27.641  13.437
38240W        W 2008  36.557  11.165  10.562
38241W        W 2009  30.612  44.792   0.939
38242W        W 2010  28.445   0.867   0.905
38243W        W 2011   4.826  26.552   4.123
38244W        W 2012  41.312   2.393  12.946
38245W        W 2013  19.271  25.982   0.481
38246W        W 2014   8.780  38.952  14.332
38247W        W 2015  23.200  33.893   4.815
38248W        W 2016   2.960   3.790   2.853
38249W        W 2017  12.776   3.779  13.402
38250W        W 2018  42.779  44.312   1.751
38251W        W 2019  40.401  28.501  13.852
38252W        W 2020  17.161   4.325  12.951
38253W        W 2021  36.393   9.645   1.309
38254W        W 2022   6.790  38.902  10.561
38255W        W 2023  11.642  41.993   3.675
38256W        W 2024  43.974  35.367  13.464
38257W        W 2025  17.227  28.932   2.400
38258W        W 2026   3.221  32.489   0.741
38259W        W 2027  42.347  24.545  13.996
38260W        W 2028   0.307   1.853  11.110
38261W        W 2029  44.823  27.947   1.911
38262W        W 2030  35.491  39.867   4.813
38263W        W 2031  33.418  18.733  13.015
38264W        W 2032   5.384  37.904   4.315
38265W        W 2033  33.992  40.029   2.747
38266W        W 2034   6.679  42.970  11.933
38267W        W 2035  23.505  43.897   1.422
38268W        W 2036  23.174   1.926  11.429
38269W        W 2037  27.014  21.512   3.283
38270W        W 2038  21.024  32.421   0.739
38271W        W 2039  30.520  36.004   0.786
38272W        W 2040  27.485  30.020  14.324
38273W        W 2041  22.241  39.836  10.980
38274W        W 2042   4.293  27.153   1.395
38275W        W 2043  42.976  33.127  12.951
38276W        W 2044   2.258   2.290   4.820
38277W        W 2045  34.485  33.882  13.492
38278W        W 2046  30.455  10.139   3.377
38279W        W 2047  19.747  32.031   0.846
38280W        W 2048  26.571   1.293   3.235
38281W        W 2049  21.153   0.407  12.011
38282W        W 2050   6.295   5.915   3.285
38283W        W 2051  20.030   0.327   1.810
38284W        W 2052  11.220   9.812  12.020
38285W        W 2053  17.598  17.159  14.881
38286W        W 2054   2.445   5.423  14.492
38287W        W 2055  41.497   9.796  14.031
38288W        W 2056  10.644  24.026  14.403
38289W        W 2057  21.189  31.926   3.272
38290W        W 2058   6.318  23.574   2.241
38291W        W 2059  19.694  18.563   2.726
38292W        W 2060  32.559  38.968   2.260
38293W        W 2061  41.862  26.662  10.583
38294W        W 2062  13.803  22.630  12.523
38295W        W 2063   4.355   3.943   1.927
38296W        W 2064  12.766   0.860   2.214
38297W        W 2065  40.376  12.692   2.260
38298W        W 2066   6.861  43.291  12.053
38299W        W 2067  23.579   4.916  13.851
38300W        W 2068  26.054  31.619   3.209
38301W        W 2069  16.190  24.574  13.912
38302W        W 2070  43.854   6.703   1.428
38303W        W 2071   7.219   6.420   4.302
38304W        W 2072   0.323  37.887  13.980
38305W        W 2073   2.251  16.240  13.012
38306W        W 2074  10.803  22.116   4.723
38307W        W 2075   3.243   2.276  11.056
38308W        W 2076  14.689   6.213  11.395
38309W        W 2077  35.938  27.613  11.988
38310W        W 2078  41.882  26.612   0.470
38311W        W 2079  15.596  43.448  12.981
38312W        W 2080  26.974  14.760  12.356
38313W        W 2081  23.990  32.969   1.345
38314W        W 2082   0.949  14.238   3.811
38315W        W 2083  23.598  18.707   2.212
38316W        W 2084  11.832   0.752   4.309
38317W        W 2085   2.948  30.006  13.413
38318W        W 2086  43.872   5.885   0.785
38319W        W 2087  21.165  26.989  11.897
38320W        W 2088  22.665  33.592   4.668
38321W        W 2089  25.476   4.895  10.052
38322W        W 2090   4.407  32.451  11.433
38323W        W 2091  38.038  26.995  11.033
38324W        W 2092  42.965  15.772  12.039
38325W        W 2093  32.517   7.385  11.961
38326W        W 2094  34.879  27.001  10.961
38327W        W 2095  44.929  20.140   0.465
38328W        W 2096   5.438   9.306  13.997
38329W        W 2097  27.559   3.951   1.872
38330W        W 2098  37.530  12.344   1.292
38331W        W 2099  21.215  15.140  12.902
38332W        W 2100   5.214  36.350  11.560
38333W        W 2101  40.415   7.766  10.999
38334W        W 2102   0.893   5.892   4.335
38335W        W 2103  36.457  14.754  11.990
38336W        W 2104   5.898  35.480   3.758
38337W        W 2105  36.871  20.700  14.860
38338W        W 2106  43.789  23.664  11.087
38339W        W 2107  11.283   1.734  10.528
38340W        W 2108  36.380  39.431  12.050
38341W        W 2109  42.369  27.585   1.914
38342W        W 2110  38.964  32.401   0.837
38343W        W 2111  28.931   9.693  14.788
38344W        W 2112  38.882  35.575   4.686
38345W        W 2113  29.109  31.562  11.870
38346W        W 2114   3.952  21.192  13.546
38347W        W 2115  23.588   5.285   1.355
38348W        W 2116   2.799  28.010   4.832
38349W        W 2117  19.164  10.291   4.673
38350W        W 2118  10.704  31.042   1.924
38351W        W 2119  14.607   6.421   3.684
38352W        W 2120  20.113  38.012  12.374
38353W        W 2121  42.925  24.692  11.026
38354W        W 2122  14.599  27.580  12.358
38355W        W 2123  28.454  16.659   3.695
38356W        W 2124  22.137   1.272  10.452
38357W        W 2125   5.921  33.896  10.932
38358W        W 2126  24.518  31.074   3.866
38359W        W 2127  26.149  41.010   3.308
38360W        W 2128  17.225  10.339   3.684
38361W        W 2129   7.785   0.910  13.968
38362W        W 2130  30.047  29.507   1.773
38363W        W 2131  38.860  39.427   1.373
38364W        W 2132  21.563   8.745  11.550
38365W        W 2133  32.973   1.786  13.355
38366W        W 2134  10.166  30.161   0.816
38367W        W 2135  10.693   3.384   2.191
38368W        W 2136  19.234  19.730   0.771
38369W        W 2137  28.125  13.816   4.668
38370W        W 2138  15.188  29.430  13.543
38371W        W 2139  44.264   5.342   1.724
38372W        W 2140  18.140  26.004  11.923
38373W        W 2141  16.080  10.250   0.476
38374W        W 2142  40.462  31.945   4.167
38375W        W 2143   1.303  17.705  12.903
38376W        W 2144  34.608  16.212  12.545
38377W        W 2145  27.197  14.666  13.446
38378W        W 2146  38.819  44.952   0.756
38379W        W 2147  17.135  35.971  10.600
38380W        W 2148  20.657  26.518  14.955
38381W        W 2149  36.489   9.718  14.949
38382W        W 2150  19.277  41.796   2.409
38383W        W 2151  38.854  42.886  11.432
38384W        W 2152  44.843   9.849   0.806
38385W        W 2153  44.487  23.558   1.387
38386W        W 2154   3.229   1.825  11.992
38387W        W 2155  15.759  15.151   0.350
38388W        W 2156  41.953   4.942  14.935
38389W        W 2157  35.958  14.155   4.300
38390W        W 2158  32.031  41.525   2.673
38391W        W 2159  11.755  24.987  11.474
38392W        W 2160  19.279  38.014  13.464
38393W        W 2161  38.997  31.988  10.099
38394W        W 2162  42.509  35.107  10.585
38395W        W 2163  38.070  30.438  13.819
38396W        W 2164  24.105  27.990   5.150
38397W        W 2165  12.148  18.250  12.387
38398W        W 2166  18.272  27.604   3.775
38399W        W 2167  42.932   9.857   0.904
38400W        W 2168  12.771  39.906   0.262
38401W        W 2169  12.122  35.454  13.448
38402W        W 2170  19.041  26.639   1.290
38403W        W 2171   2.803  20.111   0.929
38404W        W 2172   2.765  40.350   4.831
38405W        W 2173  13.821   4.860  14.995
38406W        W 2174  37.406  43.294   0.901
38407W        W 2175  20.631  16.237   1.715
38408W        W 2176  42.372  42.989   3.684
38409W        W 2177  40.892  38.010  13.445
38410W        W 2178   9.347  27.148  11.976
38411W        W 2179  32.409   9.646   0.389
38412W        W 2180  39.864  32.007   4.664
38413W        W 2181  26.526  11.748  14.837
38414W        W 2182  33.407  25.211   3.179
38415W        W 2183   6.255  13.834  11.601
38416W        W 2184  44.316   6.696  12.369
38417W        W 2185  10.225  43.811  13.000
38418W        W 2186  37.494  39.844   4.137
38419W        W 2187  35.947  35.954   2.704
38420W        W 2188   9.202  32.003   2.268
38421W        W 2189   5.777  34.413   2.822
38422W        W 2190   0.954  38.982   5.139
38423W        W 2191  38.875  13.712   1.243
38424W        W 2192  29.941  10.705   2.739
38425W        W 2193  38.042  20.092  12.540
38426W        W 2194  31.955  40.913  13.475
38427W        W 2195   3.935  10.204   9.984
38428W        W 2196   1.378   5.370  11.597
38429W        W 2197  19.713  29.137  13.320
38430W        W 2198  10.366  43.958  13.427
38431W        W 2199  35.493   2.386   2.753
38432W        W 2200  30.582  36.044   1.337
38433W        W 2201  14.807   7.355  11.444
38434W        W 2202   9.656   4.407   4.205
38435W        W 2203  26.963  11.694  13.418
38436W        W 2204  29.520  21.671  10.582
38437W        W 2205  39.350  13.632   2.222
38438W        W 2206   2.846   9.725  14.915
38439W        W 2207  37.839   6.267  11.031
38440W        W 2208  41.407  26.960   0.342
38441W        W 2209  34.499  16.094  12.088
38442W        W 2210   3.435  42.935  13.926
38443W        W 2211  25.539  23.057   3.331
38444W        W 2212   1.734  33.534  13.954
38445W        W 2213   3.260   2.349   1.760
38446W        W 2214  38.476  10.698  10.118
38447W        W 2215   6.901  22.507   2.334
38448W        W 2216  17.085  44.325  12.953
38449W        W 2217  23.494  40.305  12.862
38450W        W 2218   1.944  36.915  11.374
38451W        W 2219  32.595  11.669  14.025
38452W        W 2220   7.343  30.919   2.225
38453W        W 2221  33.131  10.858   2.753
38454W        W 2222  39.399  18.567   3.373
38455W        W 2223  21.686  35.385  11.545
38456W        W 2224   9.151  23.092   1.213
38457W        W 2225  25.589  30.590   5.186
38458W        W 2226  33.516  31.967   0.455
38459W        W 2227  16.208  20.191   2.270
38460W        W 2228  26.564  44.803   4.614
38461W        W 2229   9.816   9.196   0.354
38462W        W 2230  37.913  38.876   1.363
38463W        W 2231  24.034   4.422   0.932
38464W        W 2232  39.008  35.889  14.328
38465W        W 2233  34.513   6.291   3.843
38466W        W 2234  30.130   9.769   2.841
38467W        W 2235  24.121  40.520   2.382
38468W        W 2236  34.453  38.836  10.413
38469W        W 2237  17.610  42.804  14.933
38470W        W 2238  20.695   4.370  13.450
38471W        W 2239   4.287   7.739  13.454
38472W        W 2240  44.323  20.059   1.346
38473W        W 2241  29.121   8.741  14.461
38474W        W 2242   5.904  39.409   2.358
38475W        W 2243  30.984  11.673   3.169
38476W        W 2244  25.029   5.288   3.263
38477W        W 2245  41.978  27.084   1.810
38478W        W 2246  43.287   4.746  11.462
38479W        W 2247   7.262  16.707   2.847
38480W        W 2248  33.915  15.598   0.807
38481W        W 2249  23.494  31.068  12.536
38482W        W 2250  41.945  36.065   3.230
38483W        W 2251   6.329  32.597   0.281
38484W        W 2252  23.516  17.714  11.088
38485W        W 2253  39.401   8.179   4.751
38486W        W 2254  13.732  40.536   1.378
38487W        W 2255  34.065  38.914   1.407
38488W        W 2256  37.336  44.464  11.068
38489W        W 2257  43.955   7.781  14.922
38490W        W 2258  27.969  23.166   3.149
38491W        W 2259   8.787  40.520   2.361
38492W        W 2260  38.519  38.484   2.369
38493W        W 2261  26.548  34.993  12.904
38494W        W 2262   8.276  10.177  12.035
38495W        W 2263  19.239  40.343   4.313
38496W        W 2264  42.824   1.289   1.728
38497W        W 2265  14.140  15.232  11.481
38498W        W 2266  38.392  17.602   0.755
38499W        W 2267  33.616  36.940   4.293
38500W        W 2268  15.276  40.330   4.660
38501W        W 2269   3.397  44.800   0.741
38502W        W 2270  40.486   5.697  11.946
38503W        W 2271  16.199   8.818   3.674
38504W        W 2272  22.617  24.479   4.135
38505W        W 2273   1.758  28.545  11.025
38506W        W 2274  29.602  28.088  13.491
38507W        W 2275  39.316  18.761   3.659
38508W        W 2276  33.907  17.625   0.480
38509W        W 2277  36.872  30.927   1.406
38510W        W 2278  43.985  28.029  13.802
38511W        W 2279   5.273  30.076  10.628
38512W        W 2280  33.094  10.331   1.352
38513W        W 2281  14.831  27.045  10.928
38514W        W 2282   4.261  32.910   1.322
38515W        W 2283  19.578   2.806   4.147
38516W        W 2284  14.283  16.117   4.747
38517W        W 2285  21.024  29.587   2.221
38518W        W 2286  23.019  32.946  11.568
38519W        W 2287   7.750   5.271  11.887
38520W        W 2288  40.311   5.710   0.455
38521W        W 2289  31.043  30.010   2.390
38522W        W 2290  24.994  35.878  14.300
38523W        W 2291   4.386  25.986   3.199
38524W        W 2292   1.318   1.799  11.023
38525W        W 2293  18.733  41.951  13.962
38526W        W 2294  30.053  37.978  13.536
38527W        W 2295   6.344  12.806   4.295
38528W        W 2296  44.913  30.576   3.813
38529W        W 2297  24.601  13.291   3.681
38530W        W 2298  37.569  22.693   4.732
38531W        W 2299  27.595  40.830   4.140
38532W        W 2300  33.438  17.611   5.741
38533W        W 2301  26.542  43.294  12.358
38534W        W 2302  22.674  10.340  14.936
38535W        W 2303   2.731  42.874   4.624
38536W        W 2304  32.016   7.180  12.943
38537W        W 2305  42.439  32.447  12.930
38538W        W 2306   2.862   3.259  13.919
38539W        W 2307  19.710  26.007   3.771
38540W        W 2308  36.031   8.773  14.473
38541W        W 2309  38.468  25.151  12.012
38542W        W 2310  28.021  32.546   0.325
38543W        W 2311  39.330  20.070  11.505
38544W        W 2312   9.235  17.555   1.346
38545W        W 2313   3.330  13.151  12.079
38546W        W 2314  35.572   3.841   3.236
38547W        W 2315  13.107  41.039   3.740
38548W        W 2316  14.801  35.480   3.190
38549W        W 2317  24.575  34.984   1.786
38550W        W 2318  10.207  17.171   2.193
38551W        W 2319   8.267  27.131   0.901
38552W        W 2320  41.912  13.300  12.054
38553W        W 2321  16.090  42.893  13.875
38554W        W 2322   0.980   9.302   3.852
38555W        W 2323  40.454  27.118   3.829
38556W        W 2324  30.421  43.815   4.660
38557W        W 2325  23.106  38.420   3.209
38558W        W 2326  28.562  10.162  12.938
38559W        W 2327   3.871  41.903  12.990
38560W        W 2328  12.612  15.621  10.478
38561W        W 2329   7.407   0.957  12.523
38562W        W 2330  43.966  42.286  13.437
38563W        W 2331   0.780  25.593   3.387
38564W        W 2332   1.465  36.556  11.472
38565W        W 2333  35.931  18.239   0.405
38566W        W 2334   7.323  13.250   2.794
38567W        W 2335  21.580  14.191  12.493
38568W        W 2336  29.449   5.796   1.733
38569W        W 2337  41.505   6.799  12.969
38570W        W 2338  28.537  18.296   0.878
38571W        W 2339  35.586  24.672  11.596
38572W        W 2340   3.346  29.031  11.897
38573W        W 2341  40.527  41.389   2.692
38574W        W 2342  35.568  43.476   2.896
38575W        W 2343  40.500  36.415   2.252
38576W        W 2344   7.259  22.543  12.522
38577W        W 2345  17.095   8.202  11.910
38578W        W 2346  44.358   9.151   0.318
38579W        W 2347  31.460  44.785  14.961
38580W        W 2348  38.045  22.239  13.018
38581W        W 2349  27.483  14.336  13.802
38582W        W 2350   8.901  41.821   3.242
38583W        W 2351  17.179   9.722   1.737
38584W        W 2352  25.597  34.465  12.909
38585W        W 2353  35.039  28.533   2.190
38586W        W 2354   4.834   3.390   3.648
38587W        W 2355  44.992  35.042  12.827
38588W        W 2356   9.263  14.649   3.148
38589W        W 2357  43.988  43.873  12.935
38590W        W 2358  20.571   5.802  14.294
38591W        W 2359   3.875  30.452   2.819
38592W        W 2360  14.276  32.025   3.366
38593W        W 2361  27.640  16.574  10.480
38594W        W 2362  19.235  23.702   3.208
38595W        W 2363  12.798  16.210  11.506
38596W        W 2364  27.457  27.525   2.765
38597W        W 2365  23.608  12.696   2.303
38598W        W 2366  26.577   9.675  12.068
38599W        W 2367  17.171  32.417   3.825
38600W        W 2368   5.790  44.815   0.965
38601W        W 2369  38.951   0.873   3.263
38602W        W 2370  27.484  41.302  10.987
38603W        W 2371  23.560  20.673   0.279
38604W        W 2372   3.378  24.119  10.407
38605W        W 2373  27.019  35.060   5.778
38606W        W 2374  44.289  21.553   0.749
38607W        W 2375  11.789  16.637  14.844
38608W        W 2376   4.836  21.171   2.302
38609W        W 2377  32.934   7.221  12.828
38610W        W 2378  21.539  34.064  11.922
38611W        W 2379  25.189  35.027  13.825
38612W        W 2380   3.234   5.412  14.421
38613W        W 2381  20.692   1.450  10.916
38614W        W 2382  16.129  25.625   3.811
38615W        W 2383  19.628   1.436  11.452
38616W        W 2384  30.917  30.110   3.186
38617W        W 2385  44.484   8.340  12.026
38618W        W 2386  26.201  43.274  12.922
38619W        W 2387   5.440  26.111   3.257
38620W        W 2388  17.590  43.510   3.158
38621W        W 2389  12.240  18.549  13.006
38622W        W 2390   7.681  37.999   4.650
38623W        W 2391   1.892   2.331   2.723
38624W        W 2392  14.812  32.934   4.252
38625W        W 2393  23.615  43.886  13.050
38626W        W 2394  36.455   4.320   0.806
38627W        W 2395  34.450  34.900  13.487
38628W        W 2396   4.846  28.041  11.977
38629W        W 2397   3.885  22.087   1.325
38630W        W 2398   0.797  25.655   0.461
38631W        W 2399  40.889  20.586  11.926
38632W        W 2400  24.184  35.532   1.386
38633W        W 2401  36.497  33.498   2.259
38634W        W 2402  14.817  31.411   2.198
38635W        W 2403  17.121  40.372   9.939
38636W        W 2404  26.666   3.761  13.354
38637W        W 2405  34.472  24.160  10.405
38638W        W 2406   0.493  19.137  11.451
38639W        W 2407   8.234  12.835  14.768
38640W        W 2408  13.663  27.196  11.513
38641W        W 2409  22.066   9.244   4.808
38642W        W 2410   8.389  22.668   2.673
38643W        W 2411  29.660  22.077   1.409
38644W        W 2412  12.616  21.693  12.368
38645W        W 2413   0.478  26.655  12.993
38646W        W 2414  43.799   1.385  12.471
38647W        W 2415   5.843  13.344   3.704
38648W        W 2416  40.930  20.712  13.422
38649W        W 2417   9.250  20.257  11.888
38650W        W 2418  18.663  42.842  12.079
38651W        W 2419  17.712   1.814   4.144
38652W        W 2420  33.412  25.644   0.803
38653W        W 2421  39.526  22.617   1.788
38654W        W 2422  33.096  14.785  13.374
38655W        W 2423  10.300  19.650   1.348
38656W        W 2424   5.787   4.822   2.321
38657W        W 2425  23.210  44.812  14.767
38658W        W 2426  40.921  29.991   5.110
38659W        W 2427  17.599  43.491   2.901
38660W        W 2428  15.749  37.504   2.685
38661W        W 2429  22.700  41.468  14.472
38662W        W 2430  42.850  37.993  11.094
38663W        W 2431   0.984  29.615   3.799
38664W        W 2432  12.762   9.775  13.495
38665W        W 2433  27.649  13.347  14.918
38666W        W 2434   2.745  12.317  14.763
38667W        W 2435  28.637  42.793  14.312
38668W        W 2436   7.752  32.547  11.992
38669W        W 2437   6.686  43.399   2.369
38670W        W 2438  27.150  36.572   0.914
38671W        W 2439   1.745  19.257  14.398
38672W        W 2440  20.107  19.554  10.040
38673W        W 2441  30.533  22.131   4.705
38674W        W 2442  16.805  24.603   4.649
38675W        W 2443  19.155  10.382   4.246
38676W        W 2444   5.409  39.941  12.485
38677W        W 2445  25.702  41.858   2.197
38678W        W 2446  12.216   1.852   4.641
38679W        W 2447  31.551   8.797   0.363
38680W        W 2448  40.885  43.001  13.484
38681W        W 2449  43.460  11.323   1.845
38682W        W 2450   2.844  19.143  12.370
38683W        W 2451   8.328  37.426  12.407
38684W        W 2452  42.524  44.359   4.799
38685W        W 2453  29.535   2.843  14.354
38686W        W 2454  11.311  27.000   3.209
38687W        W 2455   6.689   3.329   3.342
38688W        W 2456  43.776   7.878   3.814
38689W        W 2457  18.118  10.636  10.611
38690W        W 2458  10.830  33.016  14.406
38691W        W 2459  40.952   3.754   1.854
38692W        W 2460  29.584  22.113  11.075
38693W        W 2461  36.852  28.629   5.278
38694W        W 2462   4.289  28.478   4.336
38695W        W 2463   0.978  13.762  11.385
38696W        W 2464   0.882  43.489   2.672
38697W        W 2465  38.849  43.481  13.889
38698W        W 2466  32.538  24.083   1.331
38699W        W 2467  27.976  43.507  14.299
38700W        W 2468   7.798   6.237   2.251
38701W        W 2469  41.977  14.725   4.809
38702W        W 2470  37.508  13.211  14.311
38703W        W 2471  44.984  13.144   1.935
38704W        W 2472  10.265  11.212   3.243
38705W        W 2473  27.024  39.946  11.444
38706W        W 2474  40.440  15.770   2.879
38707W        W 2475   3.310  13.140  14.339
38708W        W 2476  23.521   6.902   2.787
38709W        W 2477   9.313   9.827  12.035
38710W        W 2478  33.423   4.774  12.037
38711W        W 2479  11.156   0.306   1.384
38712W        W 2480  36.863   3.336   5.175
38713W        W 2481  33.924  23.531   1.237
38714W        W 2482  25.655  23.565   0.431
38715W        W 2483  21.633  22.721  12.507
38716W        W 2484  24.041  19.142  11.605
38717W        W 2485  33.461  31.635   1.266
38718W        W 2486  16.155   0.823   0.837
38719W        W 2487  35.905  21.165  12.095
38720W        W 2488  38.929   4.350   4.636
38721W        W 2489  12.285  20.234   4.808
38722W        W 2490  32.469  15.599   0.438
38723W        W 2491  14.815  35.545  11.056
38724W        W 2492  26.596   2.260  12.361
38725W        W 2493   9.712  38.843   2.253
38726W        W 2494   8.195  10.736  14.793
38727W        W 2495   3.271   2.471   0.783
38728W        W 2496  10.755  13.655  11.111
38729W        W 2497   6.772  29.048   1.246
38730W        W 2498  23.526  10.289  14.424
38731W        W 2499  43.933   5.221  10.618
38732W        W 2500  25.591  12.223   0.415
38733W        W 2501  39.894  14.266  11.613
38734W        W 2502  41.936  12.140  14.776
38735W        W 2503   8.717  41.349   3.325
38736W        W 2504  31.002  14.653  13.456
38737W        W 2505  11.284  33.125  11.900
38738W        W 2506  31.940  26.139   0.331
38739W        W 2507  32.016  43.905   1.424
38740W        W 2508  43.871  35.088   2.297
38741W        W 2509  31.048  36.064  13.430
38742W        W 2510  19.720  43.310   4.212
38743W        W 2511   6.339  11.857  10.624
38744W        W 2512  29.652  41.904   4.203
38745W        W 2513  42.971  15.682   5.110
38746W        W 2514  14.760  14.102   2.733
38747W        W 2515  30.458   5.774   1.846
38748W        W 2516  42.425   1.859  10.452
38749W        W 2517  16.184   9.691  11.056
38750W        W 2518  38.920  12.630   2.722
38751W        W 2519  25.209  39.816  11.583
38752W        W 2520  34.871   3.277  12.029
38753W        W 2521  27.514   2.815   0.897
38754W        W 2522   2.396   9.876  14.013
38755W        W 2523   4.278  32.398   0.864
38756W        W 2524  36.993  27.595  12.923
38757W        W 2525  28.167  40.967  11.954
38758W        W 2526  29.538  28.475  11.865
38759W        W 2527  22.730  18.784  11.878
38760W        W 2528  11.149  39.020  11.920
38761W        W 2529   8.175  14.675  12.948
38762W        W 2530  13.680  19.197   3.337
38763W        W 2531  37.453   9.164   5.167
38764W        W 2532  31.038   5.369  10.613
38765W        W 2533   0.320  31.969  13.983
38766W        W 2534  25.558  21.684   1.447
38767W        W 2535   6.885  22.720  14.838
38768W        W 2536   2.936  42.853   1.835
38769W        W 2537  25.164  17.638   4.782
38770W        W 2538  25.094  32.556   1.802
38771W        W 2539  31.461  33.924   3.186
38772W        W 2540   3.941   6.319   0.405
38773W        W 2541   3.299  20.109  11.114
38774W        W 2542  42.458  15.683   1.219
38775W        W 2543   6.360  30.088   1.830
38776W        W 2544  44.921  25.129   4.198
38777W        W 2545  21.588  26.000   2.233
38778W        W 2546  21.728  34.497   5.313
38779W        W 2547   6.797  10.843   1.759
38780W        W 2548  23.002  17.130  14.797
38781W        W 2549  28.441  36.967   4.335
38782W        W 2550  25.125   7.787   4.635
38783W        W 2551  39.001   2.727   0.359
38784W        W 2552   9.298  32.922   0.477
38785W        W 2553  11.686   9.776   3.762
38786W        W 2554   5.267  41.382   1.781
38787W        W 2555  30.091  11.312   0.860
38788W        W 2556  37.831   4.746  14.943
38789W        W 2557  30.469  39.054   1.286
38790W        W 2558   9.760  37.372  12.008
38791W        W 2559  18.215  43.422   3.752
38792W        W 2560  16.767  12.671   2.781
38793W        W 2561   6.339  17.777   4.274
38794W        W 2562  24.554  43.482   2.346
38795W        W 2563   2.416  31.499   2.223
38796W        W 2564  15.706   0.362  10.552
38797W        W 2565   6.799   1.792   2.260
38798W        W 2566   3.407   6.295  10.464
38799W        W 2567  18.552  39.532   3.712
38800W        W 2568  23.653  14.218   1.439
38801W        W 2569  23.605  28.035   0.815
38802W        W 2570  12.361  26.019   3.279
38803W        W 2571  43.481  32.535  12.530
38804W        W 2572  12.302  29.562   2.891
38805W        W 2573  42.367  22.248   2.370
38806W        W 2574  27.571  42.384  11.885
38807W        W 2575  20.250  28.532   3.214
38808W        W 2576   8.715  34.487  13.041
38809W        W 2577  28.651   5.401   1.364
38810W        W 2578  15.308   1.292  10.952
38811W        W 2579  21.684  25.104  13.000
38812W        W 2580   6.676  26.495  12.413
38813W        W 2581   8.311  16.580   4.221
38814W        W 2582  29.662  35.882  13.064
38815W        W 2583  15.325  24.544  11.109
38816W        W 2584  34.073   0.826  14.406
38817W        W 2585   7.352  24.016  10.981
38818W        W 2586  11.676  14.785  14.437
38819W        W 2587  41.831   4.330   3.687
38820W        W 2588  40.459   3.761  10.909
38821W        W 2589  42.999  14.710  11.944
38822W        W 2590  24.164  28.086   4.215
38823W        W 2591  44.291  14.102   0.322
38824W        W 2592  27.616   3.302   4.244
38825W        W 2593  36.880   3.756  11.397
38826W        W 2594   6.230   2.327  12.009
38827W        W 2595  14.732   4.362   4.729
38828W        W 2596  36.490  25.494   2.243
38829W        W 2597  19.592  27.158   2.798
38830W        W 2598   5.882  10.766   1.248
38831W        W 2599  42.882  12.135   1.697
38832W        W 2600   3.715  27.598  14.796
38833W        W 2601  12.259  32.431  11.465
38834W        W 2602  23.556  43.332   3.321
38835W        W 2603  26.149  29.484  14.506
38836W        W 2604   6.867   1.878  11.478
38837W        W 2605  19.689   4.836   2.664
38838W        W 2606  37.086  12.803   0.875
38839W        W 2607  36.543  12.257   3.284
38840W        W 2608  41.328  35.865   0.777
38841W        W 2609  40.939  33.454   3.779
38842W        W 2610  42.417  14.697   2.230
38843W        W 2611  37.506   8.242   1.327
38844W        W 2612  10.657  17.173  10.580
38845W        W 2613   3.216  27.510  10.439
38846W        W 2614  35.499  10.301   1.407
38847W        W 2615   9.679  32.425   0.458
38848W        W 2616  15.631  18.753   1.396
38849W        W 2617   7.695  11.360  14.940
38850W        W 2618  10.746   9.222   3.322
38851W        W 2619  17.785  14.619   4.773
38852W        W 2620  38.931   5.365   9.986
38853W        W 2621  33.579   2.957   0.818
38854W        W 2622  14.588  39.347   4.242
38855W        W 2623  16.783  25.004  10.405
38856W        W 2624   1.875   7.723  11.990
38857W        W 2625  12.342  15.655   2.190
38858W        W 2626  24.675  24.187  14.787
38859W        W 2627  18.639  40.347  10.913
38860W        W 2628  23.232  42.009   0.400
38861W        W 2629  33.524  24.107  10.498
38862W        W 2630   2.790   4.447  13.001
38863W        W 2631  40.397  38.016   0.764
38864W        W 2632  27.574   3.759   2.312
38865W        W 2633  40.388  38.563  11.973
38866W        W 2634  26.038  12.697  12.014
38867W        W 2635   0.471  38.827   4.692
38868W        W 2636  15.613  20.578   9.943
38869W        W 2637  20.532  33.412   4.811
38870W        W 2638  20.652   1.448  12.014
38871W        W 2639  10.826  43.321   3.816
38872W        W 2640  23.613  12.709   3.684
38873W        W 2641   6.270   1.862  11.479
38874W        W 2642  25.544   0.824   4.197
38875W        W 2643  20.246  20.609  11.019
38876W        W 2644  27.980   2.727   1.824
38877W        W 2645  16.569  18.062  11.592
38878W        W 2646  24.529  29.165   0.417
38879W        W 2647  22.054  19.719   2.854
38880W        W 2648  42.793  10.369   5.201
38881W        W 2649  21.545  10.832  11.420
38882W        W 2650  29.640  31.482  12.057
38883W        W 2651  38.946   8.198  14.015
38884W        W 2652   1.378  25.478  14.853
38885W        W 2653  36.863   1.797   4.698
38886W        W 2654  13.634   5.289  10.556
38887W        W 2655  39.556  16.677  11.412
38888W        W 2656  39.920  40.910  11.997
38889W        W 2657  35.895  36.448  14.312
38890W        W 2658  43.305   3.301   2.198
38891W        W 2659   1.259  28.164  14.973
38892W        W 2660   3.432  20.114   1.232
38893W        W 2661  24.113  17.653   2.281
38894W        W 2662  18.140   6.869  11.881
38895W        W 2663  10.274   0.753   4.133
38896W        W 2664  36.058  23.726  12.572
38897W        W 2665  16.101  43.999  12.575
38898W        W 2666  19.733  35.467  13.894
38899W        W 2667  44.469   5.848   1.788
38900W        W 2668  28.649  27.958  13.903
38901W        W 2669  37.372  19.188   0.469
38902W        W 2670  23.581  11.290   3.865
38903W        W 2671  21.229  41.909  14.760
38904W        W 2672  29.469  24.173   1.800
38905W        W 2673  13.256  26.029   0.814
38906W        W 2674  14.189   8.889   4.292
38907W        W 2675  44.982   3.845   1.265
38908W        W 2676  22.040  14.741   2.332
38909W        W 2677   9.290  27.572   0.348
38910W        W 2678  27.532  24.633  11.437
38911W        W 2679  33.058  25.167   3.320
38912W        W 2680  27.141   1.329   0.886
38913W        W 2681   7.242  43.953   0.754
38914W        W 2682  16.106  18.238   0.849
38915W        W 2683   8.207   0.374  12.931
38916W        W 2684   3.350  35.072  14.313
38917W        W 2685  33.066  40.979  12.348
38918W        W 2686  44.473   5.753  11.093
38919W        W 2687  23.124  39.905  12.953
38920W        W 2688  33.483   0.323  13.510
38921W        W 2689  15.211  40.960   4.804
38922W        W 2690  37.026  32.088  14.295
38923W        W 2691  21.170  13.240  12.571
38924W        W 2692  18.231  33.625   1.374
38925W        W 2693  40.944  28.652  12.966
38926W        W 2694   7.820   2.803   1.841
38927W        W 2695  44.918  18.217   1.795
38928W        W 2696  42.012  23.650  13.045
38929W        W 2697  17.162  10.273  14.416
38930W        W 2698  18.778  40.526   2.783
38931W        W 2699  10.144  38.560  10.971
38932W        W 2700  10.649  36.439   2.877
38933W        W 2701  40.524  20.722  12.027
38934W        W 2702   1.297  28.019  12.968
38935W        W 2703  10.170  10.812  12.910
38936W        W 2704  11.358   4.373   1.770
38937W        W 2705  42.523  20.580   2.391
38938W        W 2706  15.112  42.780  10.632
38939W        W 2707   3.766   8.840  13.537
38940W        W 2708  36.042  33.394   0.915
38941W        W 2709  36.984  29.564   2.181
38942W        W 2710  33.904  23.092  12.903
38943W        W 2711  41.930  30.580  13.804
38944W        W 2712  12.646   2.790   2.752
38945W        W 2713  12.154   5.855   1.446
38946W        W 2714  19.052  23.613   1.849
38947W        W 2715  27.562  32.436   0.952
38948W        W 2716   2.400  13.212  13.440
38949W        W 2717   1.322  41.931  11.059
38950W        W 2718  23.998  12.712   0.365
38951W        W 2719  44.378  35.063   1.878
38952W        W 2720  30.588  14.704   2.258
38953W        W 2721  34.954  35.421  10.908
38954W        W 2722  43.298  38.472   1.275
38955W        W 2723  24.643  32.589  14.349
38956W        W 2724  41.537  16.169   4.269
38957W        W 2725  26.675  33.107  11.987
38958W        W 2726  14.184  27.149   3.771
38959W        W 2727   0.294  11.247  14.386
38960W        W 2728  26.959  21.173  10.508
38961W        W 2729  35.443  39.483   3.156
38962W        W 2730  20.721   5.326   0.289
38963W        W 2731   5.433  38.336   0.778
38964W        W 2732   7.720   4.298   3.663
38965W        W 2733  20.536  23.620  14.386
38966W        W 2734   1.941  28.940   0.733
38967W        W 2735  42.917  29.519   4.126
38968W        W 2736  36.063   9.774   1.913
38969W        W 2737   6.688  29.147  12.874
38970W        W 2738   4.376  28.439  12.368
38971W        W 2739  25.616  42.404   3.227
38972W        W 2740   2.404  44.388   0.839
38973W        W 2741  28.490  37.924   4.325
38974W        W 2742   2.935  32.961   5.244
38975W        W 2743  38.457  43.425   3.789
38976W        W 2744  23.495  31.447  14.797
38977W        W 2745  12.214  30.920  14.280
38978W        W 2746  17.756  44.425   3.299
38979W        W 2747   6.367  18.547   2.709
38980W        W 2748  37.355  40.540   4.726
38981W        W 2749   6.904   9.770  10.513
38982W        W 2750  11.717  38.916  11.542
38983W        W 2751  28.489  26.198   3.837
38984W        W 2752   7.369  22.704  11.017
38985W        W 2753   2.464  23.025  14.970
38986W        W 2754  40.502  18.088  14.789
38987W        W 2755  31.963  34.462   3.215
38988W        W 2756   5.847  23.216   0.827
38989W        W 2757  11.254  29.574   3.326
38990W        W 2758   4.340  12.834   2.844
38991W        W 2759   1.941  15.813  14.027
38992W        W 2760  43.810   6.849  11.947
38993W        W 2761  13.220   0.375   2.728
38994W        W 2762  19.768  21.066  10.148
38995W        W 2763  44.946  15.684   1.252
38996W        W 2764   6.405  10.640  11.414
38997W        W 2765  38.470  12.229   0.357
38998W        W 2766  17.711  36.464   2.194
38999W        W 2767  15.326  32.059   4.239
39000W        W 2768   2.931  39.847   4.346
39001W        W 2769   4.215  35.908   1.891
39002W        W 2770  32.041  10.795  12.555
39003W        W 2771   0.266  38.526  14.492
39004W        W 2772  14.625   0.366  11.926
39005W        W 2773  33.565   6.745   1.733
39006W        W 2774  28.012  29.062   4.137
39007W        W 2775  34.913  14.234   0.751
39008W        W 2776  33.066   4.387   0.728
39009W        W 2777   5.222  11.281   0.410
39010W        W 2778  17.651  20.548   4.720
39011W        W 2779   9.795  35.975   1.802
39012W        W 2780   2.730   6.197  14.394
39013W        W 2781  20.044  26.105   4.138
39014W        W 2782  29.549  31.939  13.481
39015W        W 2783   4.295   0.393   1.835
39016W        W 2784  37.389  37.453   0.930
39017W        W 2785  14.685  16.576   3.791
39018W        W 2786   2.933   8.373  11.019
39019W        W 2787  16.138  37.053  13.809
39020W        W 2788  42.464   1.860  11.404
39021W        W 2789  23.080  20.082   1.854
39022W        W 2790  30.549  41.497  12.989
39023W        W 2791  40.418  24.614  11.484
39024W        W 2792  38.966  32.399  13.532
39025W        W 2793   1.906  12.843  11.045
39026W        W 2794  41.979  20.562   1.737
39027W        W 2795  18.590  39.013  11.376
39028W        W 2796  26.601   4.376   4.630
39029W        W 2797  11.277  41.510   2.811
39030W        W 2798  10.313   5.702   0.285
39031W        W 2799  36.403  10.651   0.311
39032W        W 2800  38.858  42.027   4.639
39033W        W 2801  29.152  32.599  13.411
39034W        W 2802   0.769  42.505  13.411
39035W        W 2803  37.063   3.816  14.459
39036W        W 2804  19.189  42.417   4.126
39037W        W 2805  32.098  38.003   3.253
39038W        W 2806  20.125   6.742   0.315
39039W        W 2807  41.321   0.471   0.246
39040W        W 2808  22.595  42.874   4.124
39041W        W 2809  26.559  18.231   4.334
39042W        W 2810  11.843  10.780  10.037
39043W        W 2811   5.811   7.174  10.622
39044W        W 2812   7.182  32.083   1.345
39045W        W 2813  36.010   1.898   4.773
39046W        W 2814  43.011  11.202   1.372
39047W        W 2815  30.438  36.099  14.897
39048W        W 2816  10.337  35.955   1.863
39049W        W 2817  34.571   5.259  10.459
39050W        W 2818  21.696  11.643   4.821
39051W        W 2819  28.988  33.084   1.784
39052W        W 2820  42.311  44.268   2.682
39053W        W 2821  24.211  16.294   4.687
39054W        W 2822   1.782  31.592  10.470
39055W        W 2823  25.571  30.519   4.773
39056W        W 2824  35.862  13.283  14.864
39057W        W 2825  35.853  42.020  11.511
39058W        W 2826  15.701  22.008   3.232
39059W        W 2827  26.644  38.512  11.106
39060W        W 2828   8.877  18.136  10.639
39061W        W 2829   6.719  42.984  10.619
39062W        W 2830  42.891  16.207   4.776
39063W        W 2831   3.456  24.184   0.866
39064W        W 2832  35.558   7.818  14.978
39065W        W 2833  30.937  14.099   0.798
39066W        W 2834  10.230  44.797   1.448
39067W        W 2835  27.197  37.851  12.431
39068W        W 2836  43.913   2.325  11.581
39069W        W 2837  25.160  24.154  11.882
39070W        W 2838  11.128  26.667  10.916
39071W        W 2839  21.599  11.344  13.384
39072W        W 2840  19.041  43.986   4.255
39073W        W 2841  27.170   2.939  14.906
39074W        W 2842  12.662  42.414  13.866
39075W        W 2843  15.726  10.735   2.185
39076W        W 2844  12.696  24.560   3.292
39077W        W 2845  18.762  22.067  11.042
39078W        W 2846  25.056  41.382  14.464
39079W        W 2847  36.482  15.634   5.271
39080W        W 2848   1.940  29.468   4.679
39081W        W 2849   4.247  39.540   2.678
39082W        W 2850  30.097  40.912  11.957
39083W        W 2851  19.067  38.016  12.992
39084W        W 2852  31.421  33.083   0.749
39085W        W 2853  25.979  26.080   3.246
39086W        W 2854  42.853   5.276   3.757
39087W        W 2855  22.746  37.009  13.480
39088W        W 2856   8.233   5.851   0.896
39089W        W 2857  24.626  40.464   0.767
39090W        W 2858  28.132  14.236   2.713
39091W        W 2859  13.671  16.683  12.357
39092W        W 2860  16.185  24.984  14.771
39093W        W 2861  29.987  14.755   0.295
39094W        W 2862  37.457   0.868  11.876
39095W        W 2863   3.761  40.336  13.328
39096W        W 2864  39.990  29.152   0.383
39097W        W 2865  42.808  36.980   2.201
39098W        W 2866  37.032  26.112  13.903
39099W        W 2867  33.971  15.289  10.436
39100W        W 2868  14.700  10.216   1.404
39101W        W 2869   8.666  18.724   2.786
39102W        W 2870  28.078  18.059  14.883
39103W        W 2871  18.686  30.525  14.761
39104W        W 2872  27.529  27.129  10.446
39105W        W 2873  26.655  24.511   2.738
39106W        W 2874  11.275  32.037   3.363
39107W        W 2875  27.600   0.822  10.442
39108W        W 2876  17.631  37.410   2.708
39109W        W 2877  13.346  34.041   2.794
39110W        W 2878  15.161   9.806  10.562
39111W        W 2879  19.778  43.365  10.636
39112W        W 2880  20.195  28.076  13.510
39113W        W 2881  41.446  30.034   0.290
39114W        W 2882  38.010  25.071   4.227
39115W        W 2883  23.653   1.804  14.775
39116W        W 2884  21.731  35.975   1.299
39117W        W 2885   4.871   8.214   2.383
39118W        W 2886  14.833  23.066   1.239
39119W        W 2887  43.831  38.433   2.332
39120W        W 2888  12.823  10.214   5.149
39121W        W 2889  16.737  36.080  14.446
39122W        W 2890  42.867   3.340   3.677
39123W        W 2891  43.914  40.496   3.835
39124W        W 2892  43.973  13.671   2.838
39125W        W 2893  29.052  32.985   4.646
39126W        W 2894  30.090   4.845  14.500
39127W        W 2895  30.965  26.155  14.302
39128W        W 2896   6.210   7.417  12.531
39129W        W 2897  24.709  14.614   1.801
39130W        W 2898  18.143  25.473  12.891
39131W        W 2899  31.454  14.779  14.018
39132W        W 2900   0.749  43.332  14.441
39133W        W 2901   3.933  13.339   4.167
39134W        W 2902  44.875  32.113   4.703
39135W        W 2903  32.919  14.801   4.306
39136W        W 2904  31.947  40.485   0.948
39137W        W 2905  29.496  18.270  10.566
39138W        W 2906  23.112  11.646   2.864
39139W        W 2907  41.317  16.163  14.834
39140W        W 2908  27.967   3.264   1.799
39141W        W 2909  31.640  27.670  11.866
39142W        W 2910  20.069  32.915   4.201
39143W        W 2911  29.657  18.739  13.013
39144W        W 2912  17.793   9.257   0.448
39145W        W 2913  25.002   0.254   3.695
39146W        W 2914   6.774  20.684  11.124
39147W        W 2915  13.766  31.069  10.467
39148W        W 2916  36.532  18.607  13.972
39149W        W 2917  28.488  28.120   4.657
39150W        W 2918   5.377  33.549  10.575
39151W        W 2919  23.003  17.250   2.215
39152W        W 2920  17.634   4.752  12.459
39153W        W 2921  35.579  23.076  14.406
39154W        W 2922  13.302   6.707   4.635
39155W        W 2923  44.382  21.742   2.779
39156W        W 2924  36.413  16.666   3.837
39157W        W 2925  17.258  13.166  11.119
39158W        W 2926  43.804  26.538   0.418
39159W        W 2927  22.053  11.215  11.395
39160W        W 2928  32.917  43.375   0.333
39161W        W 2929  22.526  44.759  12.371
39162W        W 2930  37.370  35.367   0.937
39163W        W 2931  23.118  17.764   4.317
39164W        W 2932  40.973  23.991  11.045
39165W        W 2933  20.763  23.689   4.654
39166W        W 2934  30.494  12.159   4.303
39167W        W 2935   3.433  17.291   3.328
39168W        W 2936  19.142  10.274  13.038
39169W        W 2937  25.101  24.676   0.817
39170W        W 2938  21.035  44.813   0.858
39171W        W 2939   8.310   4.792   4.672
39172W        W 2940  10.833  10.259  13.531
39173W        W 2941   6.904  10.830   4.259
39174W        W 2942  35.451   4.771   4.308
39175W        W 2943  31.502  16.794  13.441
39176W        W 2944   6.711   5.429   0.245
39177W        W 2945   4.272  42.451  14.793
39178W        W 2946  26.203  23.025  12.530
39179W        W 2947  13.151  26.459  11.911
39180W        W 2948  29.475  19.068  11.127
39181W        W 2949   5.308  19.250  13.844
39182W        W 2950   2.395  27.566  13.458
39183W        W 2951  32.133  44.874   1.310
39184W        W 2952  34.413  44.960  12.914
39185W        W 2953   6.421  33.014  13.319
39186W        W 2954  24.562   4.397   4.210
39187W        W 2955   3.745  15.664   4.678
39188W        W 2956  42.805  44.504  12.038
39189W        W 2957   1.900  31.038  13.828
39190W        W 2958  11.261  34.422   3.686
39191W        W 2959  29.533  11.366   1.709
39192W        W 2960   6.428  36.946  11.421
39193W        W 2961  18.167  41.894   3.654
39194W        W 2962  22.236   3.423   3.655
39195W        W 2963   7.171  30.003  13.824
39196W        W 2964  43.356  38.500  13.995
39197W        W 2965   4.836  30.056  14.932
39198W        W 2966   7.394  33.456   3.757
39199W        W 2967  21.727  31.557   4.178
39200W        W 2968  17.683  25.010  11.395
39201W        W 2969  43.357  41.975  12.471
39202W        W 2970  22.737  17.560   1.734
39203W        W 2971  21.548  27.995  13.483
39204W        W 2972  12.655  36.502  12.009
39205W        W 2973  18.054  34.430  11.865
39206W        W 2974  32.975  24.127   1.891
39207W        W 2975   8.705   6.853   3.766
39208W        W 2976  15.796  11.240  11.462
39209W        W 2977   7.350  23.221   4.291
39210W        W 2978  27.129   4.728  13.339
39211W        W 2979  30.653  38.368  13.935
39212W        W 2980  37.371   8.793   0.888
39213W        W 2981  44.811  32.046  12.529
39214W        W 2982  23.069  35.865   0.437
39215W        W 2983  44.398  37.405  13.948
39216W        W 2984  42.778  22.147   2.716
39217W        W 2985  30.139  23.096   2.280
39218W        W 2986   9.874   7.846  10.559
39219W        W 2987  41.912  17.676  11.928
39220W        W 2988  44.423  17.262   0.829
39221W        W 2989  39.482  38.981   2.240
39222W        W 2990  42.492  39.545   0.480
39223W        W 2991  37.832   8.170  14.852
39224W        W 2992  10.222   2.409  12.889
39225W        W 2993  24.545  28.086  12.906
39226W        W 2994  31.943  12.154   0.776
39227W        W 2995  28.507   8.297  10.914
39228W        W 2996   0.780   5.908  12.010
39229W        W 2997  30.048  16.590   9.559
39230W        W 2998  42.499  44.959  12.909
39231W        W 2999   2.340   3.752  13.496
39232W        W 3000   9.868  37.491   2.400
39233W        W 3001  13.730  40.987   0.814
39234W        W 3002  31.533  43.294   1.718
39235W        W 3003  41.525  36.591   5.279
39236W        W 3004   9.721  40.977  14.386
39237W        W 3005   5.320  16.185   0.442
39238W        W 3006  13.219  26.695   4.623
39239W        W 3007  19.181  20.625  12.574
39240W        W 3008  14.131  41.308   0.293
39241W        W 3009  10.865   5.203   2.378
39242W        W 3010  43.865  37.883   3.248
39243W        W 3011   2.940   0.267   0.730
39244W        W 3012  19.764  27.492   4.614
39245W        W 3013  40.860   1.406  14.404
39246W        W 3014  39.483  18.717  13.390
39247W        W 3015  11.715  41.024  14.950
39248W        W 3016   8.405  40.309   4.335
39249W        W 3017  17.078  36.016   4.689
39250W        W 3018  22.510  26.197   9.973
39251W        W 3019   4.873  36.072  12.856
39252W        W 3020  43.343  31.034   1.253
39253W        W 3021  18.779  33.885  11.047
39254W        W 3022  25.010   2.954   0.365
39255W        W 3023   8.738  22.723  10.953
39256W        W 3024  26.562   1.320   4.351
39257W        W 3025  43.837  24.230  14.349
39258W        W 3026  13.717  20.236   2.322
39259W        W 3027  44.919  30.431  11.505
39260W        W 3028  22.211   4.449  13.523
39261W        W 3029  18.060  35.600   4.680
39262W        W 3030  12.355  33.102  11.087
39263W        W 3031  27.138  25.638  14.875
39264W        W 3032  38.820   3.389  11.443
39265W        W 3033  33.019  18.154   4.258
39266W        W 3034  23.558  40.525  14.898
39267W        W 3035  34.549   0.492   4.822
39268W        W 3036  13.198  41.511   0.258
39269W        W 3037  34.378   7.398  13.925
39270W        W 3038  41.341  10.286  13.013
39271W        W 3039   4.914  43.996   2.739
39272W        W 3040  41.961  30.151   4.301
39273W        W 3041  12.733   5.741  12.538
39274W        W 3042   7.383  30.940  14.970
39275W        W 3043  39.384   8.404   1.294
39276W        W 3044   2.391   0.804  13.054
39277W        W 3045  15.301  11.280   5.633
39278W        W 3046  37.055  16.644  14.772
39279W        W 3047  22.232   0.977  11.926
39280W        W 3048  32.038  42.316  14.826
39281W        W 3049  22.059  27.658  13.437
39282W        W 3050  30.943  32.128   9.945
39283W        W 3051  25.530  35.071  10.958
39284W        W 3052   9.187  22.684  11.079
39285W        W 3053  30.576   0.388   0.747
39286W        W 3054  10.321  19.150   0.295
39287W        W 3055   1.461  24.563   3.180
39288W        W 3056  33.994  18.276   1.268
39289W        W 3057  44.300   2.238   2.361
39290W        W 3058  20.094  16.672  13.018
39291W        W 3059  41.394  34.009  12.525
39292W        W 3060  30.108  20.154   4.274
39293W        W 3061  28.636  40.444   2.830
39294W        W 3062  21.522  35.078  13.982
39295W        W 3063  10.348  24.719  14.400
39296W        W 3064  32.415  40.303   2.217
39297W        W 3065  29.521  42.913   1.305
39298W        W 3066  44.488  44.473  10.630
39299W        W 3067  44.311   9.160  12.451
39300W        W 3068  19.106  26.199  13.884
39301W        W 3069  14.821   3.353  10.569
39302W        W 3070  44.401  42.340   4.322
39303W        W 3071  20.678   3.747  11.527
39304W        W 3072  13.691  41.472  11.948
39305W        W 3073  43.821  18.166  12.398
39306W        W 3074  31.899  27.635  11.089
39307W        W 3075   3.796  23.048  11.574
39308W        W 3076  41.504   8.233   1.816
39309W        W 3077  22.133  41.532   4.749
39310W        W 3078   4.439  30.010   0.800
39311W        W 3079  38.899  30.477  10.499
39312W        W 3080   2.311  35.597   4.296
39313W        W 3081  18.776  18.620   3.369
39314W        W 3082  37.012   6.811   0.270
39315W        W 3083  30.459  37.579  12.903
39316W        W 3084  21.745  16.301  10.899
39317W        W 3085  27.082   2.368   2.297
39318W        W 3086  28.073  37.053   0.391
39319W        W 3087  40.544  25.218  13.389
39320W        W 3088  32.616  36.945   4.145
39321W        W 3089  21.567  33.407   3.776
39322W        W 3090   5.918  43.885   4.326
39323W        W 3091   0.801  28.149  13.508
39324W        W 3092  37.059  18.757  14.385
39325W        W 3093  37.451  37.361   5.166
39326W        W 3094  12.713  10.378  13.430
39327W        W 3095  14.681  41.868   4.822
39328W        W 3096  16.201  13.195   4.796
39329W        W 3097  27.649  12.635   1.876
39330W        W 3098  33.025   6.914   2.333
39331W        W 3099  42.991  25.110   3.339
39332W        W 3100  43.984   5.348   2.827
39333W        W 3101  38.922  13.614   4.691
39334W        W 3102  34.051  40.497   1.901
39335W        W 3103  10.874  32.446  12.401
39336W        W 3104  32.960  24.052   2.350
39337W        W 3105  26.082   0.255   3.371
39338W        W 3106  34.546  40.456   4.825
39339W        W 3107  17.082   0.748   4.623
39340W        W 3108  18.733  38.028   4.130
39341W        W 3109  19.671  32.612  12.398
39342W        W 3110  43.412  10.268  12.485
39343W        W 3111  39.833  43.930   1.311
39344W        W 3112  15.310  16.732   5.320
39345W        W 3113   2.932  16.238  14.883
39346W        W 3114  38.888  10.214   1.781
39347W        W 3115  12.847  30.627  10.492
39348W        W 3116   9.356  16.619   2.723
39349W        W 3117  24.110   9.182   2.697
39350W        W 3118  26.526  30.530   4.637
39351W        W 3119  18.236  23.627   4.211
39352W        W 3120  18.766  42.346   3.638
39353W        W 3121   7.674  38.992  10.540
39354W        W 3122  41.015  34.883   4.736
39355W        W 3123  32.394  18.081   1.897
39356W        W 3124  10.646  35.005  10.414
39357W        W 3125   0.301  44.316  10.644
39358W        W 3126  14.822  29.005  13.008
39359W        W 3127  41.838  40.843   3.791
39360W        W 3128  37.349  35.026  13.371
39361W        W 3129  34.489  12.231  13.980
39362W        W 3130   9.771  13.729  10.132
39363W        W 3131   5.405  17.677  11.961
39364W        W 3132   8.879  21.527   1.298
39365W        W 3133  34.886  38.953  10.510
39366W        W 3134  30.548  20.039   0.422
39367W        W 3135  34.461   6.769   1.863
39368W        W 3136  13.117  18.148   1.374
39369W        W 3137  43.443  36.088   1.216
39370W        W 3138  44.387  34.377   4.780
39371W        W 3139  33.520  28.046  13.434
39372W        W 3140  30.981  44.368   0.346
39373W        W 3141  42.983  18.622  14.864
39374W        W 3142  17.128  17.675  12.475
39375W        W 3143  26.661  29.548   4.791
39376W        W 3144  11.205  14.705  11.100
39377W        W 3145   6.688  39.377  10.638
39378W        W 3146  27.176  32.033   3.225
39379W        W 3147  25.515  40.863  13.390
39380W        W 3148   4.367  27.681   4.803
39381W        W 3149   5.414  20.261   3.255
39382W        W 3150  16.294  44.355  14.462
39383W        W 3151  30.999  43.292   0.450
39384W        W 3152  15.690   6.720   3.160
39385W        W 3153   0.889  13.247   3.237
39386W        W 3154  36.574  19.180   2.366
39387W        W 3155   9.304  44.275  13.340
39388W        W 3156  24.603  37.939   4.674
39389W        W 3157  15.133  13.291   5.157
39390W        W 3158  12.295  16.148   2.356
39391W        W 3159  13.717   9.872   9.481
39392W        W 3160  13.122   7.705  11.934
39393W        W 3161  27.582  39.062   0.368
39394W        W 3162  15.129  23.162   5.130
39395W        W 3163  26.181  37.467   3.804
39396W        W 3164   8.275  38.882   3.318
39397W        W 3165  15.670  28.964   4.700
39398W        W 3166  17.652   7.745  11.059
39399W        W 3167   9.653   7.898   2.803
39400W        W 3168  35.406  16.628   1.758
39401W        W 3169  13.222  10.742   4.226
39402W        W 3170  34.925  17.241  12.560
39403W        W 3171  20.131  19.558   0.351
39404W        W 3172  27.687  20.668  10.973
39405W        W 3173  44.368  36.043   4.661
39406W        W 3174  22.693   7.273  10.953
39407W        W 3175  12.744   8.187   1.407
39408W        W 3176  29.484  25.645  10.593
39409W        W 3177   1.339  24.687  12.958
39410W        W 3178  16.267  12.675  10.977
39411W        W 3179  36.411  25.471   0.732
39412W        W 3180   1.380  20.662  14.893
39413W        W 3181   0.824  39.550  11.053
39414W        W 3182  42.939  33.128   4.771
39415W        W 3183   8.703  29.499   5.120
39416W        W 3184  42.953  25.688   2.888
39417W        W 3185  12.317  20.236  10.454
39418W        W 3186  44.370   3.801  12.841
39419W        W 3187   2.864  33.553  11.481
39420W        W 3188  26.484   4.314   0.955
39421W        W 3189   1.393  28.676  10.431
39422W        W 3190  20.725  44.301   4.828
39423W        W 3191  32.072   9.683   0.811
39424W        W 3192   4.221  41.958  13.509
39425W        W 3193   6.901  40.375   0.279
39426W        W 3194   6.792  22.734   3.850
39427W        W 3195  40.969   3.419   4.661
39428W        W 3196  24.609  25.568  12.494
39429W        W 3197  36.532   9.793   3.228
39430W        W 3198  13.190  14.254  10.459
39431W        W 3199  26.955  29.564   3.210
39432W        W 3200   8.703  12.149  14.361
39433W        W 3201  10.278  17.758   2.288
39434W        W 3202   6.354   3.789   2.775
39435W        W 3203  21.697  39.376  14.939
39436W        W 3204   0.883  43.309  10.643
39437W        W 3205  10.757  21.075   4.208
39438W        W 3206  16.795   5.405   2.250
39439W        W 3207  33.925   1.357  14.449
39440W        W 3208  13.773  14.219  11.891
39441W        W 3209  21.646  39.997   1.336
39442W        W 3210  38.003  44.501  13.439
39443W        W 3211  42.814  18.079  11.858
39444W        W 3212   9.822  30.937   0.746
39445W        W 3213  13.190   9.154   1.905
39446W        W 3214  11.812  18.650  10.623
39447W        W 3215  44.765  30.157   3.329
39448W        W 3216   4.781  14.742   2.825
39449W        W 3217   6.373  43.492  10.490
39450W        W 3218  25.562  26.484   3.341
39451W        W 3219  35.551   1.421  12.843
39452W        W 3220  37.560  19.704   1.804
39453W        W 3221   5.743   3.926   3.781
39454W        W 3222   8.243  28.104   3.214
39455W        W 3223   2.720  27.098  14.917
39456W        W 3224  26.586  25.092   2.772
39457W        W 3225   1.383   6.734  10.604
39458W        W 3226   6.887  21.644   1.450
39459W        W 3227  40.855   2.263   2.737
39460W        W 3228   6.188  16.171   2.746
39461W        W 3229  11.707  15.656   5.305
39462W        W 3230  16.080  37.045   0.459
39463W        W 3231  23.222  43.298   2.740
39464W        W 3232  16.726  23.511  14.464
39465W        W 3233  31.432  22.538   1.425
39466W        W 3234  29.921  34.913  12.432
39467W        W 3235  23.534  31.023   4.757
39468W        W 3236   1.901  44.795   0.323
39469W        W 3237   8.729  41.936   2.300
39470W        W 3238  11.624  37.045   1.720
39471W        W 3239   6.838  44.337   1.377
39472W        W 3240   2.835  13.248  12.415
39473W        W 3241  30.619   3.802  10.429
39474W        W 3242   6.191  25.001  10.540
39475W        W 3243  11.184   3.796  13.051
39476W        W 3244  38.857   1.746   2.273
39477W        W 3245   2.332  36.541  11.494
39478W        W 3246   3.280   7.203   4.723
39479W        W 3247   6.224  33.478   5.176
39480W        W 3248  21.106  31.489  13.845
39481W        W 3249  31.518  26.095  10.627
39482W        W 3250  44.371   9.682  10.467
39483W        W 3251  24.628  40.994  10.995
39484W        W 3252  30.115  26.188  10.573
39485W        W 3253  12.700  44.451  13.449
39486W        W 3254  15.634  17.084  11.859
39487W        W 3255  19.061  15.149  14.497
39488W        W 3256  40.919  26.505  13.064
39489W        W 3257  17.224  28.591  12.549
39490W        W 3258  35.389  38.823  10.486
39491W        W 3259  25.120  39.550   4.249
39492W        W 3260  29.669  14.160   2.770
39493W        W 3261  36.894  21.089   0.370
39494W        W 3262  12.320  32.509   2.787
39495W        W 3263   8.835  19.702   4.124
39496W        W 3264  39.989   3.407   0.854
39497W        W 3265  24.090  37.058  10.593
39498W        W 3266  39.974  26.119   2.855
39499W        W 3267  33.065   9.390  13.526
39500W        W 3268  29.937  32.132   2.788
39501W        W 3269  23.683  43.807   0.748
39502W        W 3270  24.669  27.000   4.322
39503W        W 3271   5.353  21.638   2.777
39504W        W 3272  10.216  30.062  13.925
39505W        W 3273  31.083  24.179  12.494
39506W        W 3274  28.640  38.562  13.437
39507W        W 3275  27.976  37.365  12.066
39508W        W 3276  11.641  20.639  11.971
39509W        W 3277  21.543  32.135  10.108
39510W        W 3278  14.314  28.603   2.827
39511W        W 3279   3.886  42.029   4.604
39512W        W 3280  20.076  11.793  11.863
39513W        W 3281  26.003  36.876   3.718
39514W        W 3282  17.122  20.164   0.794
39515W        W 3283   8.711  33.905   0.443
39516W        W 3284   0.774  13.204   4.633
39517W        W 3285  44.844  39.959  14.448
39518W        W 3286  18.156   7.240  12.878
39519W        W 3287  32.026  37.914   0.948
39520W        W 3288  25.180  37.074  10.998
39521W        W 3289  28.088  27.552   2.779
39522W        W 3290  35.573  44.844  10.993
39523W        W 3291  31.543  40.432   0.867
39524W        W 3292  27.040  16.743  13.965
39525W        W 3293  31.087   3.759   2.193
39526W        W 3294  27.955  40.504  14.370
39527W        W 3295  42.895  39.403  13.006
39528W        W 3296  15.704  26.672  13.336
39529W        W 3297  32.124  43.489   2.324
39530W        W 3298  32.130   3.900  12.028
39531W        W 3299  39.014  32.084  12.053
39532W        W 3300  37.872   9.882   0.953
39533W        W 3301   2.872  37.378   2.862
39534W        W 3302  10.283  41.791  14.012
39535W        W 3303  43.461  22.082  10.424
39536W        W 3304  29.087  32.111  13.894
39537W        W 3305   7.695  18.213  14.452
39538W        W 3306  26.021  28.560   4.620
39539W        W 3307  12.167  31.911  10.934
39540W        W 3308  15.605  22.023   1.710
39541W        W 3309  13.775  42.813  11.408
39542W        W 3310  34.433  20.134   3.639
39543W        W 3311   7.831  36.988   2.293
39544W        W 3312  36.446  21.523   0.896
39545W        W 3313  29.109   9.672  10.531
39546W        W 3314  36.445  33.067   0.814
39547W        W 3315  27.161   5.818  14.371
39548W        W 3316  11.744   9.729   1.270
39549W        W 3317   3.837  41.504  10.433
39550W        W 3318   3.865  21.679   3.732
39551W        W 3319  25.542  15.679   5.316
39552W        W 3320  22.060  19.139  13.944
39553W        W 3321  39.317  44.858   4.326
39554W        W 3322  23.711   2.903  12.874
39555W        W 3323  17.094   8.689   2.789
39556W        W 3324  36.901  44.870   2.390
39557W        W 3325  40.377  15.178   4.827
39558W        W 3326  20.078  26.054   1.394
39559W        W 3327  17.120  30.948  11.074
39560W        W 3328  28.510  15.195  11.987
39561W        W 3329  16.234  31.144  14.276
39562W        W 3330  37.439  17.236   0.795
39563W        W 3331  30.500  38.335   0.767
39564W        W 3332   9.194  16.274  13.491
39565W        W 3333  12.339  36.557  11.069
39566W        W 3334   2.879  28.597   1.238
39567W        W 3335  19.569   5.236   0.249
39568W        W 3336  35.047  16.627   4.676
39569W        W 3337  11.333  38.870  10.967
39570W        W 3338  16.723  35.519  14.288
39571W        W 3339  11.666  13.703  13.807
39572W        W 3340  21.667  41.328  14.275
39573W        W 3341  40.335   7.741   1.408
39574W        W 3342  42.290  11.814  11.919
39575W        W 3343  33.899  30.105  11.419
39576W        W 3344  40.404  41.320  14.416
39577W        W 3345  29.959  13.171   2.213
39578W        W 3346  13.217  40.436  11.518
39579W        W 3347  19.260  30.992  12.979
39580W        W 3348  41.465  33.432  10.530
39581W        W 3349  28.950   2.302   1.362
39582W        W 3350  12.838  44.394   2.901
39583W        W 3351  35.525  23.501   1.825
39584W        W 3352  31.614   6.194  13.041
39585W        W 3353  43.363  43.819  10.434
39586W        W 3354  35.011   2.962  13.428
39587W        W 3355  43.998   6.795  12.481
39588W        W 3356   9.793   7.302   0.888
39589W        W 3357  12.823  35.035  13.927
39590W        W 3358   5.287  21.570  11.061
39591W        W 3359  24.539  32.009   4.226
39592W        W 3360  44.963  29.436  10.542
39593W        W 3361  21.604  37.360  12.046
39594W        W 3362  39.480  33.379   4.737
39595W        W 3363   8.744  21.123  11.454
39596W        W 3364  15.294  37.886   4.622
39597W        W 3365  26.698  24.646  11.517
39598W        W 3366  37.873   3.881   3.372
39599W        W 3367  21.586  25.486  14.393
39600W        W 3368  41.950   4.753   3.781
39601W        W 3369   9.743  13.181   3.245
39602W        W 3370  14.627  12.619  14.838
39603W        W 3371  20.527  34.949  14.955
39604W        W 3372  19.619  11.355  12.026
39605W        W 3373  18.649   2.284  12.050
39606W        W 3374  22.068  29.602   3.857
39607W        W 3375  11.753   6.396   5.214
39608W        W 3376  15.273  40.539  11.972
39609W        W 3377  28.105  41.914   2.320
39610W        W 3378  39.353  44.965  13.881
39611W        W 3379   6.363  34.034   3.709
39612W        W 3380   5.902  20.534  12.510
39613W        W 3381  32.021  42.504   1.256
39614W        W 3382  12.797  26.173  10.576
39615W        W 3383  25.675  12.624   0.920
39616W        W 3384  25.964  21.066  13.986
39617W        W 3385   6.380  38.959   1.837
39618W        W 3386   5.785   9.779  10.980
39619W        W 3387   6.832   6.871   3.221
39620W        W 3388  41.345  32.408   3.677
39621W        W 3389  16.108  28.948   1.723
39622W        W 3390  39.353   7.176   5.806
39623W        W 3391  14.238  32.558  10.449
39624W        W 3392  40.513   4.411   4.793
39625W        W 3393   0.983   9.873  12.455
39626W        W 3394  28.444  28.021  11.444
39627W        W 3395  11.657  12.123  13.315
39628W        W 3396  37.522   9.225  14.346
39629W        W 3397  44.763   3.299  11.541
39630W        W 3398  44.271  21.724  11.452
39631W        W 3399  24.599  25.159  14.021
39632W        W 3400  21.634  22.114   2.747
39633W        W 3401   9.161  18.645   2.847
39634W        W 3402  38.398  20.756   4.186
39635W        W 3403  16.677   5.778  11.031
39636W        W 3404  38.496  15.730  14.829
39637W        W 3405  32.623   9.349   1.408
39638W        W 3406  18.253  26.578  14.914
39639W        W 3407  30.931  14.200   3.774
39640W        W 3408  31.105   9.362  10.645
39641W        W 3409   4.893   0.760  11.865
39642W        W 3410  24.049  21.106   0.273
39643W        W 3411  37.547   5.842   1.223
39644W        W 3412  25.096  40.923  14.399
39645W        W 3413   4.736  23.648  13.415
39646W        W 3414  14.210  40.845  11.987
39647W        W 3415   5.859  30.988   4.344
39648W        W 3416  21.644  21.602  13.945
39649W        W 3417  19.081   6.357   4.268
39650W        W 3418  37.577  15.641   4.204
39651W        W 3419   2.774  11.186  12.504
39652W        W 3420  17.219  17.770   1.232
39653W        W 3421   6.807  24.051   1.836
39654W        W 3422  21.248  15.703   3.714
39655W        W 3423  13.161  15.234  10.898
39656W        W 3424   8.405  40.439  10.940
39657W        W 3425  25.584   5.735  11.455
39658W        W 3426  37.577   1.923  10.888
39659W        W 3427  12.341  32.416   3.773
39660W        W 3428  14.733  21.175  13.381
39661W        W 3429   3.740  43.393  14.948
39662W        W 3430  28.148  35.916   1.765
39663W        W 3431  23.564   5.209   4.615
39664W        W 3432  24.704   9.751   3.725
39665W        W 3433  23.656  36.017   2.662
39666W        W 3434  37.899  22.249   0.794
39667W        W 3435  23.205  10.182   3.730
39668W        W 3436   7.244   1.818   0.818
39669W        W 3437  32.597  38.977   3.729
39670W        W 3438  41.352  25.611  14.017
39671W        W 3439  43.899  23.614   0.905
39672W        W 3440  33.533  22.172  11.079
39673W        W 3441  12.687  41.353   1.777
39674W        W 3442  28.434  10.294   2.790
39675W        W 3443  24.072  14.299   4.294
39676W        W 3444  39.429  14.645  11.088
39677W        W 3445  14.337  22.699   3.831
39678W        W 3446  11.321  44.326  13.375
39679W        W 3447  22.014   3.317   4.354
39680W        W 3448  34.947  16.281  10.447
39681W        W 3449  26.486  44.762   0.443
39682W        W 3450  34.991   3.313   4.757
39683W        W 3451  28.507  33.879  14.987
39684W        W 3452   2.389  33.905   3.358
39685W        W 3453  22.619  29.142  10.053
39686W        W 3454  12.832  19.565   0.846
39687W        W 3455  44.396   7.261  13.901
39688W        W 3456   0.753  36.949   2.226
39689W        W 3457  10.773  35.569   1.303
39690W        W 3458  44.318  22.036  12.027
39691W        W 3459  23.709  26.538   4.732
39692W        W 3460   7.683  28.665  12.470
39693W        W 3461  15.222  28.156   3.212
39694W        W 3462  36.408  37.985  12.382
39695W        W 3463   0.297  34.382   3.668
39696W        W 3464  15.797  28.497   4.248
39697W        W 3465  33.493   7.175   0.957
39698W        W 3466   4.318  39.879   1.398
39699W        W 3467  14.613   2.239  13.366
39700W        W 3468  37.349  42.802   3.862
39701W        W 3469  34.023  35.952   4.314
39702W        W 3470  11.706  30.596  14.392
39703W        W 3471   0.328  34.057   0.311
39704W        W 3472  13.733  33.073   4.712
39705W        W 3473  10.762  34.452   0.441
39706W        W 3474   1.875   9.275   3.284
39707W        W 3475  34.936  42.437  12.572
39708W        W 3476  17.609  20.678   2.359
39709W        W 3477  26.672  41.422  10.991
39710W        W 3478  29.644  29.080   2.902
39711W        W 3479  33.405   3.411  12.975
39712W        W 3480  23.662  18.595  11.899
39713W        W 3481  28.436  34.409  11.553
39714W        W 3482  29.445  42.403   2.777
39715W        W 3483  33.939  22.733  10.047
39716W        W 3484  30.504  16.126  11.065
39717W        W 3485   8.307  31.951  13.993
39718W        W 3486  36.853  29.016   4.686
39719W        W 3487  25.474  24.551   0.330
39720W        W 3488  33.073  18.181   2.366
39721W        W 3489  29.492  27.447   0.273
39722W        W 3490  31.099   5.852   0.256
39723W        W 3491  24.539  28.066   4.184
39724W        W 3492  37.887   6.285   3.204
39725W        W 3493  23.735  14.812   4.245
39726W        W 3494  44.302  13.618  12.399
39727W        W 3495  18.654  14.183  11.122
39728W        W 3496  10.652  18.643   0.480
39729W        W 3497  29.590  35.538  13.965
39730W        W 3498  18.678   9.268  10.483
39731W        W 3499   4.720  25.528   3.342
39732W        W 3500  42.468  15.297  10.587
39733W        W 3501  37.440  30.565   1.355
39734W        W 3502  36.510  15.212  12.856
39735W        W 3503   5.835  31.081   0.345
39736W        W 3504  16.156  12.266   4.693
39737W        W 3505   2.451  11.698   4.171
39738W        W 3506   2.941  35.041   1.231
39739W        W 3507  26.006  42.368  14.402
39740W        W 3508  36.484  28.540   1.287
39741W        W 3509   5.425  43.767   4.797
39742W        W 3510   4.274   4.739   1.298
39743W        W 3511   6.819  10.157   1.349
39744W        W 3512  17.092  41.787  12.993
39745W        W 3513  28.115  23.023   3.670
39746W        W 3514  33.394   1.326  14.297
39747W        W 3515  35.437   5.313   4.238
39748W        W 3516  24.545   7.824  11.527
39749W        W 3517  32.493   5.303   1.285
39750W        W 3518  10.806  43.303  12.341
39751W        W 3519  23.643  42.830  10.434
39752W        W 3520  19.688  35.410   4.127
39753W        W 3521  30.929  25.692   3.705
39754W        W 3522  37.007  36.030   4.305
39755W        W 3523  36.071  24.692   2.678
39756W        W 3524   0.911   3.836   2.382
39757W        W 3525   9.261  11.796  12.022
39758W        W 3526  17.583   9.685   0.454
39759W        W 3527  25.105   4.784  13.336
39760W        W 3528  28.938  41.334   3.778
39761W        W 3529  20.730  30.154  11.996
39762W        W 3530   9.309  30.494   2.711
39763W        W 3531  34.493  16.651   4.829
39764W        W 3532  17.157   2.369   1.733
39765W        W 3533   0.821   0.408  14.769
39766W        W 3534  18.232   6.884  13.512
39767W        W 3535  35.000  21.604  11.501
39768W        W 3536  16.724  14.108   2.749
39769W        W 3537  28.115  35.417  14.286
39770W        W 3538  36.080   1.241   4.307
39771W        W 3539  41.297  41.866  14.280
39772W        W 3540  29.038   5.434  13.354
39773W        W 3541  22.725   1.896  14.492
39774W        W 3542  26.061  22.579  12.012
39775W        W 3543   2.748  24.203   1.412
39776W        W 3544  17.557  31.069  11.112
39777W        W 3545  15.146  18.697   3.654
39778W        W 3546  38.942  12.840  13.995
39779W        W 3547  43.017  20.691  14.415
39780W        W 3548   1.840  34.580  13.882
39781W        W 3549   8.869  26.673  11.034
39782W        W 3550  12.766   3.365   4.306
39783W        W 3551  38.925  38.918  11.593
39784W        W 3552  34.960  15.149  11.608
39785W        W 3553   6.759   2.913  12.471
39786W        W 3554   1.761   4.264   1.314
39787W        W 3555  18.790  23.084  14.350
39788W        W 3556   1.276   6.865  12.958
39789W        W 3557  26.143   1.476  10.632
39790W        W 3558  23.609   9.831   3.832
39791W        W 3559   7.704  23.023   4.833
39792W        W 3560  44.753  36.473   0.457
39793W        W 3561  33.006  32.033   3.840
39794W        W 3562  12.182  29.127  13.346
39795W        W 3563  31.425   1.314   1.707
39796W        W 3564   7.704  14.624  13.797
39797W        W 3565  22.085   5.304  14.935
39798W        W 3566  42.479  15.696   4.688
39799W        W 3567  21.049   3.434  13.453
39800W        W 3568  30.655  37.464  12.426
39801W        W 3569  27.134  20.565   0.254
39802W        W 3570   0.781  24.211   0.965
39803W        W 3571  41.950  15.306  13.448
39804W        W 3572  18.559  18.184   0.745
39805W        W 3573  29.966  24.164  12.527
39806W        W 3574  37.056  18.111   0.345
39807W        W 3575  32.476  14.660   3.847
39808W        W 3576  16.768  24.074   4.727
39809W        W 3577  24.109  16.173   0.330
39810W        W 3578  23.578  21.204  14.448
39811W        W 3579  17.114  27.467  12.444
39812W        W 3580  29.166  37.529  11.422
39813W        W 3581   4.288  16.748  11.551
39814W        W 3582  23.542  10.243   0.412
39815W        W 3583   2.457  26.477  10.987
39816W        W 3584  38.936   3.385  10.894
39817W        W 3585  40.047  16.734   0.450
39818W        W 3586  21.572  28.639   0.950
39819W        W 3587  12.175  14.155   0.847
39820W        W 3588  44.006  15.611  12.516
39821W        W 3589  44.995  18.597  11.092
39822W        W 3590  22.113   0.836  11.451
39823W        W 3591  14.710  12.194   4.310
39824W        W 3592  38.923  32.124   0.315
39825W        W 3593  35.477  31.136   1.438
39826W        W 3594  39.039  12.718  11.922
39827W        W 3595  24.136   8.883   1.823
39828W        W 3596  25.618  44.292   2.801
39829W        W 3597  36.025  37.946  10.478
39830W        W 3598  33.618   8.810   4.273
39831W        W 3599  38.436  36.560   0.803
39832W        W 3600  37.930  26.663   0.783
39833W        W 3601  28.176  42.796   5.085
39834W        W 3602  43.454  20.568  11.896
39835W        W 3603  41.882   7.756   3.823
39836W        W 3604  14.651  42.888  12.983
39837W        W 3605  11.759  44.274  11.860
39838W        W 3606  17.229  30.642  13.975
39839W        W 3607  19.238  32.120  11.558
39840W        W 3608  13.790  37.442  12.490
39841W        W 3609   5.776  26.102   3.228
39842W        W 3610  35.917   6.232  12.403
39843W        W 3611   2.824  22.214   0.307
39844W        W 3612  34.533  14.113  10.453
39845W        W 3613  25.546  23.547   4.212
39846W        W 3614  17.606  30.548   9.654
39847W        W 3615  29.641  43.914   1.740
39848W        W 3616  14.127  26.645   2.271
39849W        W 3617  26.483  26.999  11.441
39850W        W 3618   3.430  39.378  12.893
39851W        W 3619  23.203  31.559  14.410
39852W        W 3620  32.050  12.359   1.379
39853W        W 3621  35.856  37.566  11.963
39854W        W 3622  44.890   6.268   2.215
39855W        W 3623  38.825  20.040   4.800
39856W        W 3624  30.549  10.343   4.829
39857W        W 3625  44.447  38.432   2.770
39858W        W 3626  42.486  16.781   2.808
39859W        W 3627  31.092  35.384   4.336
39860W        W 3628  23.097  34.565  13.453
39861W        W 3629   2.294   9.645   2.255
39862W        W 3630  26.566  12.231  12.908
39863W        W 3631  14.168   8.774  13.839
39864W        W 3632  14.766  20.193  14.456
39865W        W 3633  22.087  27.479   4.256
39866W        W 3634  33.582  17.282  11.568
39867W        W 3635  32.593  38.536  10.458
39868W        W 3636  19.052  29.118   1.282
39869W        W 3637  38.982  26.091  14.908
39870W        W 3638   5.739   8.702  10.591
39871W        W 3639  28.560  25.143  13.025
39872W        W 3640  10.774  35.395  13.808
39873W        W 3641  36.055  10.686  11.922
39874W        W 3642  11.786  41.881  12.960
39875W        W 3643   5.747  40.417   0.276
39876W        W 3644  24.981  28.128   4.783
39877W        W 3645  36.433  31.509  13.459
39878W        W 3646  38.509  31.560  12.393
39879W        W 3647  41.466  29.045   1.903
39880W        W 3648   3.393  37.362   4.198
39881W        W 3649  15.633  19.260   2.315
39882W        W 3650   7.729  13.334   4.284
39883W        W 3651  13.266  31.573  13.466
39884W        W 3652  21.558  35.871   3.688
39885W        W 3653  26.566  37.955   2.725
39886W        W 3654  25.551   5.237  11.380
39887W        W 3655  35.924   4.287   1.444
39888W        W 3656  25.675   2.417  14.963
39889W        W 3657  11.148  28.142  11.535
39890W        W 3658   0.977  32.411   3.318
39891W        W 3659  25.650  39.525   0.328
39892W        W 3660   8.667  18.745  14.456
39893W        W 3661   4.741  21.189   3.152
39894W        W 3662   0.261  33.905   3.254
39895W        W 3663  16.687   5.785   1.882
39896W        W 3664  17.686   4.932   3.824
39897W        W 3665  15.788   0.454  14.844
39898W        W 3666  15.657  20.572   2.323
39899W        W 3667  32.965  25.631  14.323
39900W        W 3668  24.544  18.706   0.328
39901W        W 3669  29.636  28.939   3.171
39902W        W 3670  21.674  36.457  10.557
39903W        W 3671  15.767  43.392   3.237
39904W        W 3672  12.835  44.467   4.597
39905W        W 3673  11.301   4.356  14.987
39906W        W 3674  11.265  24.489   4.802
39907W        W 3675  32.514  28.154   2.868
39908W        W 3676  24.690  34.926  12.880
39909W        W 3677  40.878  27.140  11.388
39910W        W 3678   5.867  11.706  12.960
39911W        W 3679   5.263  34.493   2.865
39912W        W 3680  39.010  20.225   0.266
39913W        W 3681  29.667   9.182  13.320
39914W        W 3682   6.761  38.037   0.451
39915W        W 3683   5.412  19.265  12.481
39916W        W 3684  18.600  19.707  13.050
39917W        W 3685   1.848   0.429   1.750
39918W        W 3686  30.089  37.458   3.333
39919W        W 3687  32.093  17.116  13.824
39920W        W 3688  40.980  44.366   4.240
39921W        W 3689  25.093  36.412  11.447
39922W        W 3690  14.117  10.804   4.733
39923W        W 3691  17.086  31.012   1.328
39924W        W 3692  25.632  38.443   1.707
39925W        W 3693  40.498  38.904   0.462
39926W        W 3694  42.870  35.425   1.353
39927W        W 3695   5.851   8.369  11.550
39928W        W 3696   1.907   9.861   0.259
39929W        W 3697  13.733  16.595   5.629
39930W        W 3698  33.498  24.191   2.267
39931W        W 3699  26.054  17.722  11.080
39932W        W 3700  16.291  25.015   1.332
39933W        W 3701  38.476  26.584  11.021
39934W        W 3702  34.945  36.959  14.288
39935W        W 3703  16.634  15.638  12.576
39936W        W 3704  28.651  14.160   4.305
39937W        W 3705  23.497  26.068   1.886
39938W        W 3706   7.668  33.084  12.451
39939W        W 3707  10.152  10.309  11.391
39940W        W 3708  43.923  34.587   4.685
39941W        W 3709  33.899   4.255  14.894
39942W        W 3710  18.182  35.927  11.384
39943W        W 3711   3.249  12.733   1.818
39944W        W 3712  44.971   4.352  14.907
39945W        W 3713  35.917   1.905  12.979
39946W        W 3714  13.822  11.312   3.379
39947W        W 3715  43.375  31.024  14.881
39948W        W 3716  14.694   3.300   2.409
39949W        W 3717   9.752  16.580  12.452
39950W        W 3718  32.964  32.467  12.415
39951W        W 3719  22.736  34.114  11.873
39952W        W 3720  43.858  19.704  14.857
39953W        W 3721  34.110  39.042  11.007
39954W        W 3722  29.938  26.058   0.877
39955W        W 3723  40.522  38.021  11.902
39956W        W 3724  26.613  18.588  11.463
39957W        W 3725  25.501  12.123   2.805
39958W        W 3726   1.928   3.840   2.759
39959W        W 3727  12.835  31.521   3.803
39960W        W 3728  42.029  25.167   5.195
39961W        W 3729  28.561   3.829  13.910
39962W        W 3730  11.703  31.545  11.046
39963W        W 3731   0.458  44.989   4.743
39964W        W 3732   5.432  31.083  14.387
39965W        W 3733  32.899   5.917  14.845
39966W        W 3734  37.024  26.080  14.968
39967W        W 3735  43.318  15.803  13.480
39968W        W 3736   6.826  13.334  11.882
39969W        W 3737  41.872  17.612  14.472
39970W        W 3738   8.205  44.938   2.281
39971W        W 3739  41.791  25.671   1.819
39972W        W 3740   3.887  23.173  12.488
39973W        W 3741   9.231   7.711  10.963
39974W        W 3742  16.089  22.567  13.416
39975W        W 3743  22.243  13.713   0.320
39976W        W 3744  18.101  25.065   5.736
39977W        W 3745  22.046  36.081  14.793
39978W        W 3746   4.899   3.381   2.331
39979W        W 3747  15.116  30.161   0.802
39980W        W 3748  25.066   7.880  11.521
39981W        W 3749   5.256  13.310   0.399
39982W        W 3750  16.201  20.252  10.008
39983W        W 3751  37.564  15.823  10.464
39984W        W 3752  28.944  11.361   2.247
39985W        W 3753  22.250   4.712  13.370
39986W        W 3754   6.679  26.549  14.501
39987W        W 3755  39.820  44.267  11.591
39988W        W 3756  21.172  31.542   0.740
39989W        W 3757   1.786   4.797  10.462
39990W        W 3758  40.309  28.484   4.132
39991W        W 3759  39.864  22.069   2.843
39992W        W 3760  30.952  40.498   0.726
39993W        W 3761  36.882  21.160  10.577
39994W        W 3762  29.919  43.968   2.670
39995W        W 3763  29.504   7.409   5.090
39996W        W 3764   5.759  35.567   0.955
39997W        W 3765  13.190  32.396   2.204
39998W        W 3766  14.094  25.073   3.382
39999W        W 3767   8.749  32.030  13.850
40000W        W 3768  41.461  30.649  13.471
40001W        W 3769  18.764   9.332   2.886
40002W        W 3770  31.555  25.044  14.006
40003W        W 3771  26.570  13.611  13.856
40004W        W 3772  40.974  13.279  11.557
40005W        W 3773  13.280  32.537  12.914
40006W        W 3774  23.137  17.101   1.782
40007W        W 3775  37.443  29.981   4.730
40008W        W 3776  32.534  31.618  14.454
40009W        W 3777  18.268  27.173  13.451
40010W        W 3778  22.092  44.905   3.326
40011W        W 3779  36.983   3.215  10.994
40012W        W 3780  43.465   4.831   2.218
40013W        W 3781  13.182  44.442  13.545
40014W        W 3782  19.753  15.195  12.000
40015W        W 3783  13.791  20.610   2.878
40016W        W 3784  41.897  11.141  13.328
40017W        W 3785   5.252   7.202   0.438
40018W        W 3786  42.989  30.498   0.379
40019W        W 3787   5.353   7.686  11.903
40020W        W 3788  41.514  29.660  12.537
40021W        W 3789  38.404  17.608  14.850
40022W        W 3790  14.330   7.692  13.455
40023W        W 3791  23.707  36.394  12.872
40024W        W 3792   3.796  42.818  12.995
40025W        W 3793   5.320  40.923  10.501
40026W        W 3794  29.466   0.972   1.866
40027W        W 3795   3.218  42.371  10.538
40028W        W 3796  14.176  43.925  12.999
40029W        W 3797   1.418  21.525   0.470
40030W        W 3798  41.956  12.297   0.897
40031W        W 3799  15.635   6.700   2.336
40032W        W 3800  44.327  14.139  13.456
40033W        W 3801   7.372  39.895  11.497
40034W        W 3802   9.818  20.168  12.077
40035W        W 3803  24.008  28.513  12.067
40036W        W 3804  34.427  24.711   3.732
40037W        W 3805  36.021  34.061   1.388
40038W        W 3806  17.555  40.019   2.750
40039W        W 3807   4.246  11.676  14.290
40040W        W 3808  15.241  40.544   1.723
40041W        W 3809  23.209  14.721   0.730
40042W        W 3810  15.781  27.551  14.420
40043W        W 3811  29.466  28.043  11.375
40044W        W 3812  42.364  43.412  13.866
40045W        W 3813   8.741  33.570   2.388
40046W        W 3814  24.544   3.377   5.284
40047W        W 3815  15.823   7.853  13.809
40048W        W 3816  44.908  23.599  11.872
40049W        W 3817   4.743  34.866   3.764
40050W        W 3818  17.701  31.146   1.912
40051W        W 3819  17.072  15.135  13.982
40052W        W 3820   4.880  39.509  13.347
40053W        W 3821  42.386  40.548  12.965
40054W        W 3822  17.644   3.370  10.911
40055W        W 3823  32.004  30.991   0.808
40056W        W 3824  20.535   5.257   1.218
40057W        W 3825   2.384  17.712  13.506
40058W        W 3826   9.168  20.083   4.136
40059W        W 3827   3.922  27.659  12.561
40060W        W 3828  40.506  20.244   1.282
40061W        W 3829  44.992  18.620  14.764
40062W        W 3830  34.054  32.118   1.780
40063W        W 3831  19.164  11.752   1.396
40064W        W 3832   3.838  30.601  12.448
40065W        W 3833  21.047  15.226   0.285
40066W        W 3834  33.935  11.758   1.755
40067W        W 3835   6.898   1.258  12.004
40068W        W 3836  31.088  42.828  10.412
40069W        W 3837  35.412   0.849   4.675
40070W        W 3838   2.454  38.832  14.877
40071W        W 3839  29.549  22.192   4.697
40072W        W 3840  23.674  25.511  13.044
40073W        W 3841  28.617  38.490   1.702
40074W        W 3842   8.166  18.056   2.222
40075W        W 3843  10.849  12.137   3.752
40076W        W 3844  39.046   3.392  14.379
40077W        W 3845   0.359  17.642   3.305
40078W        W 3846  18.273   4.938  13.471
40079W        W 3847  16.095  30.582   5.254
40080W        W 3848  32.985  31.013   1.780
40081W        W 3849   0.359  35.924  11.494
40082W        W 3850  23.058  27.453   0.806
40083W        W 3851  31.585  43.384   3.294
40084W        W 3852  22.558   2.895   1.307
40085W        W 3853  39.019   5.726  14.969
40086W        W 3854  43.779  27.511   1.870
40087W        W 3855  12.274  42.898  14.019
40088W        W 3856  13.825  10.329   4.146
40089W        W 3857  33.505   3.366   5.092
40090W        W 3858   9.837  18.768   3.847
40091W        W 3859  27.966  28.520   2.397
40092W        W 3860  18.758  44.500   2.822
40093W        W 3861  17.240  19.186  13.522
40094W        W 3862  13.708   7.345  11.979
40095W        W 3863  31.545  38.387  13.014
40096W        W 3864  28.526  11.855  11.431
40097W        W 3865   0.307  16.160   3.772
40098W        W 3866  13.200  13.218   3.725
40099W        W 3867  24.710  11.794  14.803
40100W        W 3868  37.418   2.241  14.895
40101W        W 3869  31.579  35.461  11.606
40102W        W 3870  28.070  27.973   2.704
40103W        W 3871  10.666  35.892   5.205
40104W        W 3872  20.711  16.148   0.861
40105W        W 3873  43.300  39.385  12.028
40106W        W 3874  42.799  35.087  14.303
40107W        W 3875  42.853  41.488  11.025
40108W        W 3876  42.805  30.975  12.422
40109W        W 3877  36.456  36.566  13.318
40110W        W 3878  12.284  16.777  12.389
40111W        W 3879   7.842  40.960   0.874
40112W        W 3880  38.413  14.183   0.309
40113W        W 3881  18.655  35.565  12.506
40114W        W 3882  17.070  41.022   3.337
40115W        W 3883  19.728   3.819   0.277
40116W        W 3884   3.358  35.565   3.148
40117W        W 3885  29.094  44.452   2.707
40118W        W 3886  21.596  32.602  10.996
40119W        W 3887  28.105  13.291   0.362
40120W        W 3888  15.271  37.375  12.404
40121W        W 3889  14.771  37.984   4.724
40122W        W 3890  38.523   4.788  12.041
40123W        W 3891   2.341  35.970  10.418
40124W        W 3892  40.425  15.315  11.872
40125W        W 3893  32.120  29.130  10.154
40126W        W 3894  24.222  15.718   3.821
40127W        W 3895   2.376  20.087   0.926
40128W        W 3896  17.733   9.743   0.934
40129W        W 3897  40.030  31.496   3.851
40130W        W 3898  30.498   8.231   1.735
40131W        W 3899   4.883  10.658  10.470
40132W        W 3900  26.595  17.195   1.865
40133W        W 3901   8.879   4.386   4.247
40134W        W 3902  43.284   0.978   0.258
40135W        W 3903  18.211  22.241   3.275
40136W        W 3904  36.072   1.772  13.961
40137W        W 3905  26.549   6.372  12.500
40138W        W 3906  31.091  27.491  14.032
40139W        W 3907  16.739   4.767  14.918
40140W        W 3908  33.912  11.173   3.300
40141W        W 3909  28.160   6.192   0.405
40142W        W 3910  35.887  39.014   2.696
40143W        W 3911  35.489  43.814   1.353
40144W        W 3912  37.974  20.657   2.188
40145W        W 3913  16.578  22.526   0.412
40146W        W 3914  38.339  18.108   2.185
40147W        W 3915  25.495  10.847  14.510
40148W        W 3916  30.482  35.855  12.880
40149W        W 3917  40.908   0.327  10.994
40150W        W 3918  32.017  41.505   3.692
40151W        W 3919  16.584  32.604  13.497
40152W        W 3920  43.389  38.854   3.769
40153W        W 3921  33.576  17.095   1.709
40154W        W 3922  13.334   2.735   3.676
40155W        W 3923  26.181   3.419  13.038
40156W        W 3924  25.526  23.074  13.984
40157W        W 3925   1.815  13.178   4.273
40158W        W 3926  12.146  38.468  13.891
40159W        W 3927  36.027  43.509   2.265
40160W        W 3928  41.881   6.236   0.479
40161W        W 3929  33.484   6.221  14.419
40162W        W 3930   9.875  40.474  12.552
40163W        W 3931   3.868  24.617   4.828
40164W        W 3932  20.614  17.171   2.871
40165W        W 3933   5.323   7.868  14.375
40166W        W 3934  42.516   4.883  10.930
40167W        W 3935   1.902  10.139  14.284
40168W        W 3936  26.951  12.776  13.424
40169W        W 3937  15.109  11.279  12.351
40170W        W 3938  22.006  26.043   0.958
40171W        W 3939  22.251  37.411   1.223
40172W        W 3940  20.161  19.655   1.750
40173W        W 3941  39.869   0.873  10.496
40174W        W 3942  20.238   9.731  11.016
40175W        W 3943   1.330  32.108   4.288
40176W        W 3944   9.355  27.644  10.903
40177W        W 3945  11.348   8.196  13.827
40178W        W 3946  25.667  13.803   4.185
40179W        W 3947  25.183  38.380  13.362
40180W        W 3948  44.864  40.872  14.846
40181W        W 3949  22.170  38.045   0.392
40182W        W 3950  22.075  13.205  11.945
40183W        W 3951  29.426   8.825  10.088
40184W        W 3952  32.522   3.951  14.368
40185W        W 3953  39.808  31.107  12.384
40186W        W 3954  15.297   8.359   2.215
40187W        W 3955  41.445  29.669  10.476
40188W        W 3956   4.295  32.038  14.398
40189W        W 3957  22.062  28.162  14.417
40190W        W 3958  33.991  15.767  12.433
40191W        W 3959   4.824  34.973   5.195
40192W        W 3960  44.456  11.738   1.847
40193W        W 3961  33.610   6.341   5.224
40194W        W 3962  34.872  21.536   2.704
40195W        W 3963  16.718  11.773   3.667
40196W        W 3964  42.489   8.675  14.383
40197W        W 3965  11.364  25.643   0.795
40198W        W 3966   0.941  19.582   5.267
40199W        W 3967  44.766  42.779   0.926
40200W        W 3968   3.935   8.255  12.047
40201W        W 3969  42.011  33.936  14.908
40202W        W 3970  38.383  18.121   4.314
40203W        W 3971   7.229  33.021  14.860
40204W        W 3972  11.295  25.477   4.828
40205W        W 3973  21.750  38.063  10.414
40206W        W 3974  32.415  21.045   2.777
40207W        W 3975  19.077  23.586  13.422
40208W        W 3976  34.058  20.114  12.893
40209W        W 3977  19.072  37.078   4.656
40210W        W 3978  22.612  34.432   2.296
40211W        W 3979  16.765  26.605   1.865
40212W        W 3980  20.136   8.830   3.358
40213W        W 3981  43.950  36.079   3.723
40214W        W 3982  14.304  11.830  10.895
40215W        W 3983  25.623  43.356   4.234
40216W        W 3984  11.363   2.404   3.153
40217W        W 3985  14.637  43.828   0.336
40218W        W 3986  35.499   6.317  10.908
40219W        W 3987   9.240  13.657  10.895
40220W        W 3988  20.666  39.416   2.275
40221W        W 3989  28.520  31.978   0.843
40222W        W 3990  22.618  17.144  13.466
40223W        W 3991  31.496  10.875  13.000
40224W        W 3992  12.321  16.621  11.120
40225W        W 3993  42.977   3.797   5.250
40226W        W 3994  13.692  43.321  10.961
40227W        W 3995  14.778  40.397  11.081
40228W        W 3996  30.636  39.968  13.965
40229W        W 3997  29.048  42.011  10.636
40230W        W 3998  37.079   5.781   2.314
40231W        W 3999  24.178  22.040   4.748
40232W        W 4000  14.701  12.849  10.532
40233W        W 4001  32.618  18.609   9.950
40234W        W 4002  14.142  38.851   0.756
40235W        W 4003  33.885  38.412   0.786
40236W        W 4004  41.460  24.530   0.262
40237W        W 4005  14.142  16.810   4.202
40238W        W 4006  44.937   7.230  12.368
40239W        W 4007   9.204  38.355   1.344
40240W        W 4008  29.129  13.125   0.296
40241W        W 4009  20.070  44.006  12.987
40242W        W 4010  39.045   4.304   1.850
40243W        W 4011  29.461  37.428  14.289
40244W        W 4012  28.983  13.284   3.165
40245W        W 4013  37.460  32.048  13.532
40246W        W 4014  22.703  34.501  11.490
40247W        W 4015   7.750  22.550  12.423
40248W        W 4016  30.462   6.786  12.469
40249W        W 4017  32.500  16.797  11.989
40250W        W 4018   3.729  27.166   2.263
40251W        W 4019  27.519  22.229  14.299
40252W        W 4020  10.702   4.859  13.833
40253W        W 4021  20.171  12.310  11.956
40254W        W 4022   6.184  17.283   1.235
40255W        W 4023   4.260   3.311  11.410
40256W        W 4024  16.208  41.417  11.038
40257W        W 4025  36.477   5.217   2.252
40258W        W 4026  35.913  17.773   4.339
40259W        W 4027  24.501  34.519   3.310
40260W        W 4028   0.407  10.226  12.568
40261W        W 4029   8.229   4.346   4.266
40262W        W 4030  10.757  14.801  11.066
40263W        W 4031  25.215   6.268  10.991
40264W        W 4032  41.803  15.632  11.010
40265W        W 4033   5.411  39.891  13.949
40266W        W 4034  37.054  23.510   4.797
40267W        W 4035   9.889   4.897   1.810
40268W        W 4036  39.840  20.674  10.596
40269W        W 4037   7.776   9.318   2.282
40270W        W 4038   8.835  31.428  12.017
40271W        W 4039  26.604   7.292  14.837
40272W        W 4040  24.126   2.402  13.445
40273W        W 4041  18.101  41.385  12.908
40274W        W 4042  10.178   2.233  14.404
40275W        W 4043  38.389  29.452  13.926
40276W        W 4044  20.187  15.772   2.214
40277W        W 4045  15.144  10.747   1.236
40278W        W 4046  22.594   4.312   4.731
40279W        W 4047  34.889  13.800  13.471
40280W        W 4048  35.039   1.267   0.319
40281W        W 4049  11.289   4.323  13.467
40282W        W 4050  44.466  11.753  14.497
40283W        W 4051  19.725  16.293   1.347
40284W        W 4052  31.963   2.736   4.274
40285W        W 4053  44.268  23.676   1.916
40286W        W 4054   9.723  10.838   3.864
40287W        W 4055  34.567  35.893  11.605
40288W        W 4056   1.289  19.744  14.937
40289W        W 4057  41.815   3.255   0.339
40290W        W 4058  32.399  42.287  10.959
40291W        W 4059  44.383  40.864   2.834
40292W        W 4060  41.922  18.113   1.751
40293W        W 4061  37.919  43.350   3.356
40294W        W 4062  28.581  36.494   9.520
40295W        W 4063  37.058  17.190   3.757
40296W        W 4064  39.383  31.064  14.872
40297W        W 4065  42.819   6.355  12.430
40298W        W 4066  44.972   6.794  14.493
40299W        W 4067   0.440  42.289   4.196
40300W        W 4068  14.251  39.342  12.480
40301W        W 4069  44.920  30.490   4.763
40302W        W 4070  27.135   0.394  12.003
40303W        W 4071   6.403   2.767   9.959
40304W        W 4072  12.747  11.152   1.404
40305W        W 4073  25.081  11.279   1.836
40306W        W 4074   2.433  44.363   9.997
40307W        W 4075  27.495   9.160  12.370
40308W        W 4076   6.815   9.664  12.372
40309W        W 4077  15.209  18.073   1.291
40310W        W 4078  13.195  32.098  11.878
40311W        W 4079   6.716  25.566   0.270
40312W        W 4080  10.253   4.776  14.811
40313W        W 4081  41.815  44.814  13.490
40314W        W 4082  17.690  15.686  13.428
40315W        W 4083  40.418  10.842  11.996
40316W        W 4084   5.413  35.417  11.992
40317W        W 4085   8.278   0.262  13.356
40318W        W 4086  27.959  27.087   0.444
40319W        W 4087  40.506   8.722  11.443
40320W        W 4088  42.405  41.802   3.828
40321W        W 4089  14.761  33.588  13.803
40322W        W 4090  40.453  17.173   1.852
40323W        W 4091   0.839  39.918   4.820
40324W        W 4092  35.948  36.494  10.898
40325W        W 4093  21.042   8.251  13.929
40326W        W 4094   6.744   2.840   3.248
40327W        W 4095  28.512  30.632   1.743
40328W        W 4096  43.949  27.136   4.186
40329W        W 4097  40.488   0.946   3.829
40330W        W 4098  27.479  31.051   2.286
40331W        W 4099   3.364  33.056   3.729
40332W        W 4100   4.929   5.897  10.031
40333W        W 4101  19.048  26.698   1.865
40334W        W 4102  22.538  40.042   2.692
40335W        W 4103   9.180  40.983   2.809
40336W        W 4104   7.281  25.687  12.498
40337W        W 4105  22.729  37.920  14.320
40338W        W 4106  41.532  44.298   4.188
40339W        W 4107   5.753   3.461   4.232
40340W        W 4108  19.074  32.991   0.430
40341W        W 4109  16.596  40.504  10.449
40342W        W 4110  41.883  17.602   4.301
40343W        W 4111  35.105  40.412  10.497
40344W        W 4112   8.771   4.827  13.468
40345W        W 4113  25.197  26.147  13.033
40346W        W 4114   8.310  31.081  12.961
40347W        W 4115  25.651  23.532   0.824
40348W        W 4116   2.742   0.775  10.496
40349W        W 4117  16.191   3.823  14.359
40350W        W 4118  35.509  10.224  11.053
40351W        W 4119  34.506  29.932  10.893
40352W        W 4120  27.038  40.960  12.853
40353W        W 4121  25.117  35.015  12.441
40354W        W 4122  23.497  23.728   3.696
40355W        W 4123  24.551  40.336  14.841
40356W        W 4124  24.162   5.422   1.255
40357W        W 4125  43.474  27.527  11.016
40358W        W 4126  16.682  23.697  11.998
40359W        W 4127   1.943  26.181   3.208
40360W        W 4128  17.615  22.031   4.639
40361W        W 4129   0.344  41.295  12.959
40362W        W 4130  44.819  20.052   3.745
40363W        W 4131   8.233  29.167   3.839
40364W        W 4132  14.830  35.508  14.929
40365W        W 4133  34.078   9.671  11.961
40366W        W 4134  19.078  35.517  14.009
40367W        W 4135  13.826  25.703  13.521
40368W        W 4136  23.657   9.875   3.330
40369W        W 4137   8.168  15.178   1.831
40370W        W 4138  17.277   9.810   2.202
40371W        W 4139  32.572  36.958   0.844
40372W        W 4140   9.690  26.149  12.511
40373W        W 4141   0.314  28.596  14.823
40374W        W 4142  33.606  28.936  12.896
40375W        W 4143  32.107  12.265   2.218
40376W        W 4144  34.604  19.556  13.979
40377W        W 4145   6.273   1.331  11.591
40378W        W 4146   0.359  41.392   4.773
40379W        W 4147  17.209   3.913  12.997
40380W        W 4148  35.087  16.743   2.311
40381W        W 4149   6.234  17.252   4.707
40382W        W 4150  30.914   3.440   5.108
40383W        W 4151  35.542   8.318  14.893
40384W        W 4152  10.270  38.015   1.280
40385W        W 4153  30.039  35.043   4.120
40386W        W 4154   8.814  21.720   2.407
40387W        W 4155  36.348  17.190  14.516
40388W        W 4156  42.413   4.362   2.722
40389W        W 4157   3.428  20.605   3.381
40390W        W 4158   4.347  37.865   0.473
40391W        W 4159  27.055   4.247  14.468
40392W        W 4160  29.494  12.709  10.450
40393W        W 4161  40.989   2.327   1.745
40394W        W 4162  20.230  11.827  12.430
40395W        W 4163  13.687   5.419   0.319
40396W        W 4164  24.085   9.313  14.951
40397W        W 4165   2.942  33.887  13.381
40398W        W 4166  10.175  15.317  10.523
40399W        W 4167   8.798  32.560  12.873
40400W        W 4168   8.853  39.958  12.481
40401W        W 4169  32.417  32.891   1.805
40402W        W 4170  40.012  43.786   2.898
40403W        W 4171  14.123   3.936   0.827
40404W        W 4172  11.214  40.411  10.951
40405W        W 4173  17.692  29.958   3.783
40406W        W 4174  33.037  19.739  10.590
40407W        W 4175  16.722   0.952  11.127
40408W        W 4176  15.150   9.718  14.797
40409W        W 4177   4.294  36.450  12.934
40410W        W 4178  35.076  36.581   3.321
40411W        W 4179   9.255   7.880  10.510
40412W        W 4180  39.856   4.341   3.194
40413W        W 4181  29.454  23.148  13.424
40414W        W 4182  17.560  14.834   3.185
40415W        W 4183  24.000  24.601   1.891
40416W        W 4184  42.855  12.821   2.301
40417W        W 4185   8.358  13.659  12.082
40418W        W 4186  37.398  14.289   4.248
40419W        W 4187  38.830  13.671  10.946
40420W        W 4188   3.251  21.049   2.845
40421W        W 4189  28.601  17.609  13.028
40422W        W 4190  12.341  16.586   2.415
40423W        W 4191  29.073  34.986  12.000
40424W        W 4192  22.065  14.805  13.447
40425W        W 4193  33.507   0.462  10.040
40426W        W 4194  32.553  41.395  13.329
40427W        W 4195  23.121   9.226   2.385
40428W        W 4196  36.411  30.910   0.477
40429W        W 4197  21.209  37.905   4.323
40430W        W 4198   1.915  24.213   0.751
40431W        W 4199   8.340  38.545  14.927
40432W        W 4200  10.157   7.789   2.812
40433W        W 4201  41.428   2.873  11.109
40434W        W 4202  19.042   8.699  12.046
40435W        W 4203   1.382  35.493  12.069
40436W        W 4204   7.262   3.727   3.164
40437W        W 4205   9.154  40.452   3.635
40438W        W 4206  24.689  26.503  12.047
40439W        W 4207  13.604   0.398   1.754
40440W        W 4208  19.040  12.691   1.356
40441W        W 4209  17.697  21.019  13.824
40442W        W 4210   5.720  35.533  13.335
40443W        W 4211  24.660  25.669   4.259
40444W        W 4212   1.907  18.554   4.114
40445W        W 4213  12.149  18.778   0.877
40446W        W 4214  23.002  20.759  13.383
40447W        W 4215  11.641  32.114  11.019
40448W        W 4216  35.469   3.894  14.982
40449W        W 4217  22.541  28.182  11.564
40450W        W 4218  31.542  16.127   5.794
40451W        W 4219  24.673  10.668   1.404
40452W        W 4220  15.727  43.491  12.435
40453W        W 4221   6.370   7.183  14.500
40454W        W 4222  33.042  25.977   1.821
40455W        W 4223  14.817  19.247   2.224
40456W        W 4224   7.302   7.385  13.846
40457W        W 4225  36.479  43.310  12.360
40458W        W 4226  36.411   7.259   4.341
40459W        W 4227   7.719  10.238   4.291
40460W        W 4228  16.786  25.006   4.801
40461W        W 4229  30.137  33.964   3.213
40462W        W 4230  10.663  31.431  10.574
40463W        W 4231  24.674  14.667  10.469
40464W        W 4232  24.091  11.294  11.122
40465W        W 4233  17.226  34.392   1.254
40466W        W 4234  30.432  19.219  14.334
40467W        W 4235   3.744  32.444  12.823
40468W        W 4236  12.284  24.574   0.904
40469W        W 4237  12.786  34.938   4.149
40470W        W 4238   3.427  37.850   3.700
40471W        W 4239  40.818  16.255   4.670
40472W        W 4240  29.999   0.950   3.369
40473W        W 4241  41.958  23.097  11.893
40474W        W 4242  28.067   0.963  14.496
40475W        W 4243   7.846   5.698  12.049
40476W        W 4244  25.516  44.875  13.977
40477W        W 4245  32.440  25.581  13.526
40478W        W 4246  32.956  24.720  12.538
40479W        W 4247  43.878  29.033   1.719
40480W        W 4248  33.876  18.076  11.040
40481W        W 4249  34.525  16.786   5.138
40482W        W 4250   0.290  37.528   2.742
40483W        W 4251  12.340   9.226   2.764
40484W        W 4252  26.957  18.676  11.093
40485W        W 4253  18.092  35.950  14.852
40486W        W 4254  12.187  19.672   4.769
40487W        W 4255  19.050   8.734  13.983
40488W        W 4256  35.856  16.087   0.911
40489W        W 4257   7.396  42.522   2.212
40490W        W 4258  14.600   3.756  11.071
40491W        W 4259   4.275  44.924   3.367
40492W        W 4260  29.503  14.308   1.443
40493W        W 4261  11.689  12.252   1.764
40494W        W 4262  23.603   4.215  14.484
40495W        W 4263  36.970  18.597   1.848
40496W        W 4264   0.324  20.642   2.251
40497W        W 4265  43.804   9.183   3.210
40498W        W 4266   5.729  43.801  12.554
40499W        W 4267   0.307  14.728  13.350
40500W        W 4268  17.664   8.708   1.449
40501W        W 4269  11.810  24.067   0.360
40502W        W 4270   0.913  37.850   3.855
40503W        W 4271   3.372   3.393  14.908
40504W        W 4272  42.283  26.535  12.890
40505W        W 4273  43.940  42.358   1.870
40506W        W 4274  13.198  34.966  14.792
40507W        W 4275  13.697   2.949   4.127
40508W        W 4276  32.532  38.466  14.421
40509W        W 4277  12.220  38.463   0.258
40510W        W 4278   7.293  37.021   4.605
40511W        W 4279   3.862  32.001  10.461
40512W        W 4280  22.198  11.322   3.227
40513W        W 4281  16.754  23.139   3.147
40514W        W 4282  23.652  36.357   5.806
40515W        W 4283   4.752  35.381   5.711
40516W        W 4284  19.063  10.661   2.320
40517W        W 4285  10.667   0.447   0.923
40518W        W 4286  41.861  10.280  12.029
40519W        W 4287  35.524  13.822   3.197
40520W        W 4288  36.572  28.025   2.329
40521W        W 4289  25.626  28.510  10.605
40522W        W 4290  16.155  23.017   2.893
40523W        W 4291  44.399  22.672  13.893
40524W        W 4292  29.042  25.004  13.394
40525W        W 4293  10.658  16.662  11.023
40526W        W 4294  21.259  42.382  13.311
40527W        W 4295  26.993  30.522   3.288
40528W        W 4296  23.584  38.557  13.457
40529W        W 4297  13.202  22.206  13.458
40530W        W 4298   9.666  30.591   1.768
40531W        W 4299   2.346   1.739  10.969
40532W        W 4300  16.143  41.015  12.861
40533W        W 4301  31.963  27.520   0.745
40534W        W 4302  36.576  39.002  13.328
40535W        W 4303  40.923  20.601   4.784
40536W        W 4304   7.312  20.637   2.333
40537W        W 4305  21.543   9.661  12.556
40538W        W 4306  33.017  21.190   3.826
40539W        W 4307  44.988  42.924   4.663
40540W        W 4308  33.940  11.707  11.413
40541W        W 4309   2.234  43.386   3.859
40542W        W 4310  31.018  33.947  11.471
40543W        W 4311  33.042   3.794   4.262
40544W        W 4312  16.224   2.381  12.577
40545W        W 4313  34.114   7.339   0.773
40546W        W 4314  27.003  17.614   0.862
40547W        W 4315  38.961  25.634   1.304
40548W        W 4316  31.617  22.567   4.604
40549W        W 4317   6.751   1.976  14.912
40550W        W 4318   1.402  27.149   0.904
40551W        W 4319  32.461  43.342  14.842
40552W        W 4320  29.985  10.242   3.264
40553W        W 4321   6.231  40.811   3.803
40554W        W 4322  42.953   9.794   4.674
40555W        W 4323  12.129  36.366  14.399
40556W        W 4324  36.952  39.931   0.348
40557W        W 4325   9.726   0.805   4.608
40558W        W 4326  39.418  21.636  13.043
40559W        W 4327  38.378  30.418   0.264
40560W        W 4328  39.400   8.851   1.892
40561W        W 4329  37.531  23.656   4.328
40562W        W 4330  41.851  26.956   4.686
40563W        W 4331  44.438  23.046  14.979
40564W        W 4332  42.966  34.931   1.904
40565W        W 4333  28.593  32.566   3.732
40566W        W 4334  36.394  16.245  13.536
40567W        W 4335   1.286  32.553  11.604
40568W        W 4336  29.105  44.856   0.313
40569W        W 4337  33.425   0.399  11.411
40570W        W 4338   9.347   8.743  13.916
40571W        W 4339  17.246  11.685  14.500
40572W        W 4340  27.172  38.508  13.996
40573W        W 4341  15.799  40.471   4.716
40574W        W 4342  27.944   6.287   4.351
40575W        W 4343  36.562  19.242   0.914
40576W        W 4344  22.192  29.061   1.791
40577W        W 4345  35.864  36.029  13.023
40578W        W 4346  18.243  23.148  13.484
40579W        W 4347  31.628  13.124  11.457
40580W        W 4348  26.974   1.392   4.667
40581W        W 4349  29.084  13.801  10.600
40582W        W 4350   6.278  17.620  12.470
40583W        W 4351   2.944  13.201   4.344
40584W        W 4352  42.497  21.246   3.319
40585W        W 4353   4.277   3.791   2.864
40586W        W 4354  20.225  15.783   2.768
40587W        W 4355  33.110  27.625   0.312
40588W        W 4356   3.950   2.916  11.964
40589W        W 4357  32.117  28.625   3.729
40590W        W 4358  22.554  43.426  10.459
40591W        W 4359   8.771  41.476   1.223
40592W        W 4360  36.001   9.311  10.608
40593W        W 4361   1.368  42.928   0.825
40594W        W 4362   7.203  34.030   2.888
40595W        W 4363   3.461  10.754  10.446
40596W        W 4364   0.302  35.014  13.817
40597W        W 4365  30.974  42.526   4.693
40598W        W 4366  31.117  28.091  13.016
40599W        W 4367  28.570  38.986   4.348
40600W        W 4368  14.300   2.934  12.058
40601W        W 4369  25.587   1.789  11.112
40602W        W 4370  18.090  42.384   2.826
40603W        W 4371   9.788   7.171  14.802
40604W        W 4372  40.530  39.856  10.918
40605W        W 4373  24.492  29.519   2.324
40606W        W 4374  32.577  32.539   3.278
40607W        W 4375  37.930   1.311   4.605
40608W        W 4376  44.922  11.630  13.516
40609W        W 4377   8.889   4.914   4.200
40610W        W 4378  14.805   8.250   3.817
40611W        W 4379  14.207  38.904   2.881
40612W        W 4380  35.452  28.040  13.324
40613W        W 4381   2.412   6.730  10.935
40614W        W 4382  18.551  17.790   1.247
40615W        W 4383   1.757  38.445   2.749
40616W        W 4384  40.925  24.180  14.864
40617W        W 4385  15.168  28.122   4.219
40618W        W 4386  34.978  14.266   2.817
40619W        W 4387  40.316  13.718   1.759
40620W        W 4388  40.997  33.402   2.851
40621W        W 4389   4.885  20.269  10.044
40622W        W 4390  31.135   6.860   1.876
40623W        W 4391   2.266   2.748   4.627
40624W        W 4392  38.962  26.009  13.018
40625W        W 4393   9.243  40.935   0.359
40626W        W 4394  35.554   4.399  14.451
40627W        W 4395  12.174  43.988  10.519
40628W        W 4396  28.648  40.820  14.763
40629W        W 4397  40.342  20.214   2.803
40630W        W 4398   3.810  17.294   1.335
40631W        W 4399  25.051  39.385   0.780
40632W        W 4400  37.454  39.036   4.784
40633W        W 4401  10.139   8.852  12.537
40634W        W 4402   8.699   9.312   4.178
40635W        W 4403  39.366   5.739  12.514
40636W        W 4404  39.343  44.504   0.407
40637W        W 4405  17.150  12.173   4.828
40638W        W 4406  26.074  33.103  10.952
40639W        W 4407  20.573  36.067   2.694
40640W        W 4408  17.132  35.078  11.020
40641W        W 4409  27.476   0.985  14.973
40642W        W 4410  38.933  22.643   4.610
40643W        W 4411  30.533  21.019   2.743
40644W        W 4412   0.398   9.263  14.970
40645W        W 4413  17.085  15.132  10.534
40646W        W 4414  15.083  20.751  14.805
40647W        W 4415  33.935  10.745   1.359
40648W        W 4416   9.848   0.827   4.338
40649W        W 4417  42.413  30.012  14.997
40650W        W 4418  43.867  42.335   2.348
40651W        W 4419  37.936  42.019   1.768
40652W        W 4420  33.623  33.024   3.831
40653W        W 4421   7.900  32.141   1.387
40654W        W 4422  37.510  25.583   1.270
40655W        W 4423  22.216  19.151   1.230
40656W        W 4424  30.577  42.000  12.544
40657W        W 4425  27.040  35.990  13.812
40658W        W 4426  23.010  25.166   2.360
40659W        W 4427  30.601   6.368   0.954
40660W        W 4428   1.798  37.058  10.036
40661W        W 4429  36.844   1.792   3.671
40662W        W 4430   7.415  16.215  10.468
40663W        W 4431  21.719  10.874  11.884
40664W        W 4432   9.267  15.633  14.353
40665W        W 4433  36.426  43.799  12.546
40666W        W 4434  14.766   5.914  11.993
40667W        W 4435  12.339   0.248  13.837
40668W        W 4436  32.558  34.053  11.383
40669W        W 4437  18.574  19.552  14.884
40670W        W 4438  11.355  20.558   4.656
40671W        W 4439  14.681   8.267   1.916
40672W        W 4440   2.410   3.723  12.568
40673W        W 4441  11.769  31.058   0.817
40674W        W 4442  36.415  10.246  13.977
40675W        W 4443  38.949  27.044   1.226
40676W        W 4444  31.974  36.098   4.683
40677W        W 4445  35.420  33.460  10.618
40678W        W 4446  42.824   2.318   1.843
40679W        W 4447  16.189  20.270   0.831
40680W        W 4448   0.436  21.540   3.286
40681W        W 4449  40.988  20.573   1.864
40682W        W 4450  31.920  32.596   2.226
40683W        W 4451  25.147  14.162  14.964
40684W        W 4452  27.043  33.115  12.901
40685W        W 4453  24.644  14.736  12.888
40686W        W 4454  14.589   8.311   2.781
40687W        W 4455  38.850   5.373  14.933
40688W        W 4456   0.934  10.759   4.139
40689W        W 4457  31.524  43.278   4.725
40690W        W 4458  12.687   4.358  10.956
40691W        W 4459   4.888  13.321  12.830
40692W        W 4460  31.924  34.603  12.852
40693W        W 4461  14.747  15.251  10.635
40694W        W 4462   3.274  37.873   3.157
40695W        W 4463  21.591   3.238  11.384
40696W        W 4464   1.242  23.068   4.188
40697W        W 4465  22.546   3.318   2.329
40698W        W 4466  19.200  43.319   1.302
40699W        W 4467  28.146  25.511   3.307
40700W        W 4468  42.460  10.346   2.257
40701W        W 4469  10.370  12.793  11.606
40702W        W 4470  27.976  25.682  13.901
40703W        W 4471   4.333  12.234   3.343
40704W        W 4472  26.023  28.089   3.240
40705W        W 4473  33.460  15.681   3.210
40706W        W 4474  35.504  39.034   4.666
40707W        W 4475  38.055  37.455  10.009
40708W        W 4476  28.493  32.141   2.395
40709W        W 4477  33.382   0.297   0.784
40710W        W 4478   8.282  15.676  11.606
40711W        W 4479  28.956   6.232   1.398
40712W        W 4480   4.926  26.617   3.714
40713W        W 4481   5.378  27.654  14.974
40714W        W 4482  31.092   0.462   1.811
40715W        W 4483   8.877  10.320   3.655
40716W        W 4484  18.151   8.850  14.955
40717W        W 4485   9.818  35.389  14.935
40718W        W 4486  24.526  40.483   2.690
40719W        W 4487  19.634  14.602   0.874
40720W        W 4488   9.736  34.958   2.700
40721W        W 4489  18.636  42.300   4.273
40722W        W 4490  18.622   5.317  13.532
40723W        W 4491  26.575  42.362  11.993
40724W        W 4492  18.151  24.655  12.036
40725W        W 4493   5.204  18.641  12.563
40726W        W 4494  29.618  24.584  10.573
40727W        W 4495  15.591  40.403  14.765
40728W        W 4496   2.428  24.993  10.013
40729W        W 4497  13.113  12.709   1.315
40730W        W 4498  44.425  28.668  12.369
40731W        W 4499  22.071  34.088  11.860
40732W        W 4500  27.963   6.880   4.249
40733W        W 4501  22.667  34.400  14.014
40734W        W 4502  25.003  35.021  11.609
40735W        W 4503   8.751  22.173  14.312
40736W        W 4504  19.694  23.622   1.752
40737W        W 4505  25.619  22.248  14.947
40738W        W 4506  20.213  32.123  12.550
40739W        W 4507  13.118  19.558   1.292
40740W        W 4508  38.016  35.933  13.869
40741W        W 4509  16.302   3.824  13.319
40742W        W 4510  42.819  13.343   0.258
40743W        W 4511  38.976   0.363   4.815
40744W        W 4512  30.048  26.616  10.599
40745W        W 4513  12.243  36.408   4.782
40746W        W 4514  26.623   5.280   3.805
40747W        W 4515  40.971  26.052  14.988
40748W        W 4516   4.884  17.562   3.724
40749W        W 4517  17.776  32.590  13.847
40750W        W 4518   0.748   0.841   2.819
40751W        W 4519  15.144  36.974  11.096
40752W        W 4520  19.565  37.915   0.272
40753W        W 4521  16.749  42.978   4.602
40754W        W 4522   1.751  14.614  12.371
40755W        W 4523  22.032  30.532  14.911
40756W        W 4524   0.385  43.366   0.845
40757W        W 4525   9.855  25.001   1.238
40758W        W 4526  17.221  12.718  11.105
40759W        W 4527  18.278  31.102   0.848
40760W        W 4528  20.042  20.055  14.515
40761W        W 4529  43.833  27.145   4.811
40762W        W 4530  10.312  43.396  11.610
40763W        W 4531  29.976  41.493  13.394
40764W        W 4532  21.218  11.209   0.481
40765W        W 4533   9.811  37.005   3.719
40766W        W 4534  18.766  37.517  11.612
40767W        W 4535   3.791   0.967  14.347
40768W        W 4536   1.277  42.396  12.379
40769W        W 4537  35.066  42.980   4.317
40770W        W 4538  18.658  17.589  14.375
40771W        W 4539  43.881   4.351   1.384
40772W        W 4540  35.587  23.504   4.632
40773W        W 4541  30.442  37.964  13.368
40774W        W 4542  28.661  11.233   3.314
40775W        W 4543  13.119   4.227  13.980
40776W        W 4544  16.144  19.748  13.325
40777W        W 4545  11.731   5.278  10.635
40778W        W 4546  36.402  14.687   3.184
40779W        W 4547  14.778  25.020   1.442
40780W        W 4548  12.840  27.952   5.307
40781W        W 4549  16.098  30.458   3.193
40782W        W 4550   3.838  16.251   4.341
40783W        W 4551  24.132  12.320  10.968
40784W        W 4552   5.317  28.446  11.940
40785W        W 4553  36.562   5.879   3.772
40786W        W 4554  42.968   1.326  11.910
40787W        W 4555  39.502  38.997  14.501
40788W        W 4556  32.949  13.690   2.391
40789W        W 4557  36.415  35.469  11.885
40790W        W 4558  41.950  34.080   4.133
40791W        W 4559  15.220  33.023  14.790
40792W        W 4560  32.122  20.133  14.394
40793W        W 4561  25.967  33.437  12.535
40794W        W 4562  11.640  31.035   1.216
40795W        W 4563  37.487  34.886  11.499
40796W        W 4564  31.550   3.742   3.227
40797W        W 4565  27.590   2.806   4.719
40798W        W 4566   2.746  30.941  13.029
40799W        W 4567   4.911  42.502   3.184
40800W        W 4568  42.844   4.771   3.182
40801W        W 4569  37.377  38.977   2.195
40802W        W 4570   0.430  28.494  12.346
40803W        W 4571   1.819   2.450  11.882
40804W        W 4572  32.073  13.291   0.738
40805W        W 4573  11.145  44.930   0.799
40806W        W 4574  26.703   7.707  11.514
40807W        W 4575  34.374  13.666   3.265
40808W        W 4576  18.749  23.094  11.477
40809W        W 4577  36.981  43.946  11.052
40810W        W 4578  25.707   3.396   4.671
40811W        W 4579  28.932  30.653  10.409
40812W        W 4580  24.184  15.682  12.842
40813W        W 4581  23.510  21.737   2.388
40814W        W 4582   7.773   9.809  12.854
40815W        W 4583  11.319  34.538  10.619
40816W        W 4584  18.637   7.896   1.358
40817W        W 4585   2.778   1.455  14.913
40818W        W 4586  23.200  12.681  13.033
40819W        W 4587   7.368  23.524   0.251
40820W        W 4588  12.358  13.766  11.415
40821W        W 4589  28.667  20.527   2.864
40822W        W 4590   8.744  30.998   3.771
40823W        W 4591  20.742  21.050   4.651
40824W        W 4592  39.819  37.022   3.190
40825W        W 4593  18.754  26.154  10.537
40826W        W 4594  12.289  38.855  14.337
40827W        W 4595   8.378  34.375  10.442
40828W        W 4596  34.392  42.884  12.370
40829W        W 4597   1.859  17.118   3.324
40830W        W 4598  10.695  26.697   2.900
40831W        W 4599  41.532  30.029   3.373
40832W        W 4600  29.515  38.561  12.421
40833W        W 4601   4.929  13.309  13.408
40834W        W 4602  31.129  14.728  11.596
40835W        W 4603  19.573   7.893  11.944
40836W        W 4604  15.697  20.151  10.518
40837W        W 4605  26.507  14.833   2.266
40838W        W 4606  42.967  42.994  10.888
40839W        W 4607   7.188  39.442   1.753
40840W        W 4608  42.019  12.681   3.737
40841W        W 4609  42.939  34.899   0.785
40842W        W 4610  25.531  30.634   0.824
40843W        W 4611  16.799  27.071  11.586
40844W        W 4612  42.405   5.694  13.923
40845W        W 4613   1.780  14.237   1.828
40846W        W 4614  33.570  11.194  12.362
40847W        W 4615  31.912  44.856   0.955
40848W        W 4616  24.540  32.526  10.469
40849W        W 4617  13.245  17.078  14.001
40850W        W 4618   6.836   2.770  13.904
40851W        W 4619  40.504   6.753  13.001
40852W        W 4620   4.902  40.348  13.856
40853W        W 4621  36.007  25.216   4.267
40854W        W 4622  37.556  33.967   1.451
40855W        W 4623   1.902  21.749  14.959
40856W        W 4624  36.369   8.838   3.204
40857W        W 4625  30.133  14.691  12.862
40858W        W 4626  23.149   4.356  12.929
40859W        W 4627  43.367  26.107  11.431
40860W        W 4628  35.881  25.681   4.258
40861W        W 4629  28.162  12.796   4.133
40862W        W 4630  32.628  13.809  10.946
40863W        W 4631  20.584  23.075   3.808
40864W        W 4632  14.702  21.624   0.839
40865W        W 4633  44.817  20.537   1.394
40866W        W 4634  12.256  19.246  12.528
40867W        W 4635   3.226  34.492  11.436
40868W        W 4636  17.200   1.439   2.392
40869W        W 4637  29.978  31.622   4.290
40870W        W 4638   1.479  12.332   3.737
40871W        W 4639  25.589  25.561   3.796
40872W        W 4640   5.200  25.584   3.649
40873W        W 4641  34.033  13.686  14.760
40874W        W 4642  28.455  41.829   0.944
40875W        W 4643  38.377  18.754   3.343
40876W        W 4644  24.639  21.114   3.167
40877W        W 4645  33.535  34.999   0.365
40878W        W 4646   4.730  17.124   0.246
40879W        W 4647  21.020  34.888   2.227
40880W        W 4648   0.425  31.541  11.398
40881W        W 4649   1.811   5.424  12.948
40882W        W 4650  14.780   6.337  14.427
40883W        W 4651  35.437  22.009  11.586
40884W        W 4652  16.226  27.457  12.552
40885W        W 4653  40.409  14.743   0.440
40886W        W 4654  20.149   8.305   4.340
40887W        W 4655  36.512  28.031  13.438
40888W        W 4656  28.162  34.369   1.402
40889W        W 4657  28.674  19.249   2.897
40890W        W 4658   4.444  39.347   4.780
40891W        W 4659  12.753  39.404   2.713
40892W        W 4660  43.497  17.122   4.752
40893W        W 4661  23.644  23.101   1.737
40894W        W 4662  21.243  16.736   2.708
40895W        W 4663  40.382  14.661  12.473
40896W        W 4664   6.312  11.221   0.275
40897W        W 4665  22.681   9.380  14.497
40898W        W 4666  36.959  34.089   4.187
40899W        W 4667  20.209  36.378   4.705
40900W        W 4668  31.123   2.860  11.534
40901W        W 4669  16.745  21.246  12.910
40902W        W 4670   0.929  16.084  11.549
40903W        W 4671   1.474  42.487  13.954
40904W        W 4672  33.886  28.453   1.423
40905W        W 4673  13.715  18.264  12.487
40906W        W 4674  35.562   9.724  13.533
40907W        W 4675  15.253  42.360   1.897
40908W        W 4676  36.864  16.115   3.831
40909W        W 4677   0.359  42.804  13.992
40910W        W 4678   7.680  14.205  10.065
40911W        W 4679  18.738  34.084  13.450
40912W        W 4680  33.905  10.161  12.521
40913W        W 4681  40.460  23.575   3.363
40914W        W 4682  40.920  24.188   2.269
40915W        W 4683  17.218  25.031   5.149
40916W        W 4684   1.270  42.790   2.401
40917W        W 4685  35.518  38.901  14.849
40918W        W 4686  35.989  36.025   4.141
40919W        W 4687  16.130   7.853   0.412
40920W        W 4688   3.271  42.884   0.836
40921W        W 4689  29.069  24.663   2.418
40922W        W 4690   8.804  39.471  14.284
40923W        W 4691   5.731  42.971   1.244
40924W        W 4692  26.979  30.058  13.060
40925W        W 4693  31.029  16.159   4.670
40926W        W 4694   4.344  21.022  11.030
40927W        W 4695  26.505  17.222  12.837
40928W        W 4696  41.353   3.796  11.010
40929W        W 4697  27.039   4.390  12.867
40930W        W 4698  28.173  15.762  14.959
40931W        W 4699  41.306  12.327   3.732
40932W        W 4700  29.157  15.097  11.575
40933W        W 4701  13.113  34.961   1.347
40934W        W 4702  19.709  40.957   1.417
40935W        W 4703  36.057  25.658   0.311
40936W        W 4704  10.280  29.988   2.241
40937W        W 4705  30.430  23.629  12.457
40938W        W 4706  11.153  41.489   4.702
40939W        W 4707   7.318  31.540   0.873
40940W        W 4708  41.308  42.417  13.449
40941W        W 4709   4.210  42.930  14.939
40942W        W 4710  35.415  14.779  11.531
40943W        W 4711   0.358   8.269  11.517
40944W        W 4712  24.707  26.125  10.541
40945W        W 4713   9.807  29.991   0.462
40946W        W 4714  16.154  15.747   5.640
40947W        W 4715  30.427  17.116   2.870
40948W        W 4716   4.721  12.631   3.342
40949W        W 4717   4.303   3.459  13.881
40950W        W 4718   2.393   4.813  14.976
40951W        W 4719   8.745  24.710  11.049
40952W        W 4720  23.047  36.349  10.590
40953W        W 4721  22.680  14.131   1.913
40954W        W 4722  27.615  13.828  11.885
40955W        W 4723   7.207  12.359   1.916
40956W        W 4724  26.506  36.485   1.763
40957W        W 4725  15.209  38.430  14.954
40958W        W 4726  26.562  41.803   0.251
40959W        W 4727  39.950  22.176  13.909
40960W        W 4728  37.042  26.599   1.842
40961W        W 4729  40.546   8.260  14.929
40962W        W 4730  21.245  27.538   0.865
40963W        W 4731   8.829  13.642  10.983
40964W        W 4732  21.169  16.098  12.416
40965W        W 4733  15.702  31.514   1.888
40966W        W 4734  34.974  17.305  14.381
40967W        W 4735  22.235   0.930  12.853
40968W        W 4736  29.631  17.682   3.835
40969W        W 4737   2.828   7.238  13.961
40970W        W 4738  42.415  29.041  14.419
40971W        W 4739  26.565  19.282   4.708
40972W        W 4740  13.224  42.942  10.056
40973W        W 4741  16.583   0.363   0.341
40974W        W 4742  30.544   3.798   3.382
40975W        W 4743  12.847   8.809   1.863
40976W        W 4744  30.577  38.026   2.700
40977W        W 4745  44.930   1.938   3.183
40978W        W 4746  34.529  34.097   2.779
40979W        W 4747  12.841  33.874   2.259
40980W        W 4748   5.350  38.372  14.885
40981W        W 4749  44.954  41.811  14.412
40982W        W 4750  29.960  41.435   1.328
40983W        W 4751  16.797  28.091   2.719
40984W        W 4752  13.630  30.419  12.972
40985W        W 4753  24.218  37.086   1.793
40986W        W 4754  26.688  32.961   4.332
40987W        W 4755  29.984  27.954   2.764
40988W        W 4756  36.472  31.484   3.261
40989W        W 4757  15.740   3.280  13.461
40990W        W 4758  19.578  13.714  14.867
40991W        W 4759  20.655  40.866   0.949
40992W        W 4760  11.817  20.237   3.329
40993W        W 4761   7.401  16.103   2.699
40994W        W 4762   1.400   6.255  11.868
40995W        W 4763  16.577  39.507   4.773
40996W        W 4764  12.850  39.832   2.228
40997W        W 4765   8.400   6.727  11.529
40998W        W 4766  25.484  14.153   2.399
40999W        W 4767  41.481  19.090   4.810
41000W        W 4768  22.053  18.214  10.404
41001W        W 4769  23.044  43.288   1.358
41002W        W 4770  12.630   9.233  11.991
41003W        W 4771  10.715   0.366  13.945
41004W        W 4772  33.054  26.148   4.785
41005W        W 4773  36.981  15.196   0.244
41006W        W 4774  25.502  13.330   2.331
41007W        W 4775   8.655  34.589   0.431
41008W        W 4776  17.665  24.118  14.906
41009W        W 4777  29.154  27.996   2.677
41010W        W 4778   8.739  30.150   2.695
41011W        W 4779  11.214  36.993   0.889
41012W        W 4780  44.886  23.735   4.618
41013W        W 4781   7.671  14.239  13.835
41014W        W 4782  17.267   8.789   1.825
41015W        W 4783  38.015  16.224   2.237
41016W        W 4784  42.283  14.232   1.747
41017W        W 4785  34.019  25.687  10.926
41018W        W 4786  20.254  27.678  14.954
41019W        W 4787  12.794  33.095  10.531
41020W        W 4788  16.135  12.766   4.195
41021W        W 4789   8.707  17.610  14.023
41022W        W 4790   3.295   3.796   3.324
41023W        W 4791  23.603   7.340  12.421
41024W        W 4792  39.821  42.418  14.005
41025W        W 4793  33.950  23.003  13.997
41026W        W 4794  25.569  29.061  14.488
41027W        W 4795  23.230  27.593  11.110
41028W        W 4796   5.852  24.660  12.486
41029W        W 4797   6.423  33.073   2.276
41030W        W 4798   0.810  28.536   0.396
41031W        W 4799  33.027   2.467   3.655
41032W        W 4800  41.527   2.751  14.312
41033W        W 4801   9.281   7.351   2.315
41034W        W 4802  14.738  26.189   3.199
41035W        W 4803   1.894  39.058  11.598
41036W        W 4804  26.011  35.418  12.575
41037W        W 4805   8.236  19.044   2.758
41038W        W 4806  36.406   7.778   2.296
41039W        W 4807  38.486   9.849   0.862
41040W        W 4808  36.040  12.249  12.828
41041W        W 4809  43.368  20.229  13.826
41042W        W 4810  23.617   3.287   1.868
41043W        W 4811  43.472  13.717   1.411
41044W        W 4812  20.106  15.653  12.069
41045W        W 4813  27.458   3.311  12.981
41046W        W 4814  13.238  27.150  12.068
41047W        W 4815  24.643  13.771  12.471
41048W        W 4816   9.155  34.583   4.796
41049W        W 4817  13.796  21.613   0.899
41050W        W 4818  27.039  10.765   5.125
41051W        W 4819   3.255  39.045  11.988
41052W        W 4820   8.889  32.983   1.298
41053W        W 4821  12.288  31.631   4.815
41054W        W 4822  34.432   0.755  10.958
41055W        W 4823  28.059  37.358  14.026
41056W        W 4824  19.057  42.367   0.312
41057W        W 4825   9.233  42.896  10.107
41058W        W 4826  18.622  42.008   0.321
41059W        W 4827  16.621  21.638  10.629
41060W        W 4828   4.928  35.069  14.504
41061W        W 4829   6.211  19.603   2.251
41062W        W 4830  24.005  27.943   2.678
41063W        W 4831  14.647   2.727  12.938
41064W        W 4832  15.206  11.187  11.389
41065W        W 4833   4.941  32.093   3.631
41066W        W 4834  26.070   3.386  11.571
41067W        W 4835  19.583   5.254   2.737
41068W        W 4836   3.367  35.975   3.229
41069W        W 4837  42.403  25.110   4.219
41070W        W 4838   0.949  12.759   0.388
41071W        W 4839  40.025   8.293   4.650
41072W        W 4840   5.906  35.604  12.078
41073W        W 4841  27.496  41.788   0.765
41074W        W 4842  20.247  33.886  13.901
41075W        W 4843  33.989  41.989  13.530
41076W        W 4844  35.981  15.684   2.774
41077W        W 4845  11.297   6.428   3.847
41078W        W 4846  14.287  13.220  12.447
41079W        W 4847  32.633  31.622  13.058
41080W        W 4848   3.843   1.930  13.344
41081W        W 4849  22.090  30.413   0.405
41082W        W 4850   4.755  13.141   2.285
41083W        W 4851  22.124   4.839  11.576
41084W        W 4852  31.539  20.624  10.433
41085W        W 4853  28.629  17.260   2.344
41086W        W 4854   2.731  34.062   1.391
41087W        W 4855   9.154  39.526   0.855
41088W        W 4856   0.248  25.595  14.866
41089W        W 4857   2.280   8.233   3.644
41090W        W 4858  32.631  35.362   4.779
41091W        W 4859   4.358   1.764  12.004
41092W        W 4860  43.823   4.356   3.311
41093W        W 4861  24.996  20.731   1.264
41094W        W 4862  31.149  18.656   1.447
41095W        W 4863  28.160  29.103  14.979
41096W        W 4864   3.816  26.104   4.214
41097W        W 4865   4.851   8.857   4.797
41098W        W 4866  25.165  40.427   1.883
41099W        W 4867  17.307  38.445  14.979
41100W        W 4868   2.809  35.101  13.020
41101W        W 4869  30.002  15.176   1.287
41102W        W 4870  31.909   7.799  13.845
41103W        W 4871  18.289  10.773   4.783
41104W        W 4872  17.163  25.064  13.436
41105W        W 4873  40.449   9.754   4.682
41106W        W 4874  33.996  18.083  13.956
41107W        W 4875  15.706  16.747  13.512
41108W        W 4876  30.575  24.514   4.832
41109W        W 4877  43.349   0.249  14.025
41110W        W 4878  15.626  31.555  12.945
41111W        W 4879   6.411   7.677   0.364
41112W        W 4880  24.113  11.771  11.932
41113W        W 4881  21.731   7.836   2.391
41114W        W 4882   0.777  24.494   3.318
41115W        W 4883  18.059   7.691   2.683
41116W        W 4884  13.711  19.627   2.234
41117W        W 4885  24.495   6.887  13.426
41118W        W 4886  12.273   1.350  10.955
41119W        W 4887  41.328  43.342  14.276
41120W        W 4888  17.761  29.606   2.730
41121W        W 4889  22.741  11.236   0.870
41122W        W 4890  20.229  13.282   0.472
41123W        W 4891   1.939   2.913  12.867
41124W        W 4892  38.866  25.168  10.139
41125W        W 4893   5.390  18.065   2.333
41126W        W 4894  40.855  10.640   4.834
41127W        W 4895   9.170  35.557   4.655
41128W        W 4896  18.059   4.743   4.180
41129W        W 4897  13.839  38.836   4.615
41130W        W 4898   2.267  39.422   2.716
41131W        W 4899  12.133   0.321   3.803
41132W        W 4900  41.417  13.336   0.269
41133W        W 4901  44.263  25.203  14.943
41134W        W 4902  12.155  10.238   4.346
41135W        W 4903  44.487   3.892   1.426
41136W        W 4904  19.599  36.360  10.552
41137W        W 4905  25.019  36.527   0.957
41138W        W 4906  28.589  24.678   1.315
41139W        W 4907  14.096   8.898   4.680
41140W        W 4908  15.238   8.255  10.940
41141W        W 4909   2.263  18.115  13.372
41142W        W 4910  14.280  33.047  14.879
41143W        W 4911  27.974  29.428   4.209
41144W        W 4912   4.941  31.100  12.522
41145W        W 4913  15.798   6.710   1.854
41146W        W 4914  29.096  38.435   1.437
41147W        W 4915  36.048  24.054   4.174
41148W        W 4916  21.161  31.069   4.130
41149W        W 4917  35.424  14.649   0.906
41150W        W 4918  23.702  41.384   3.757
41151W        W 4919  13.174  15.185  12.463
41152W        W 4920  34.914   8.312  13.005
41153W        W 4921  16.246  36.973  11.925
41154W        W 4922   3.331  41.941   0.475
41155W        W 4923  37.426  15.121  14.398
41156W        W 4924  21.653  12.227   0.820
41157W        W 4925  43.417  36.500   3.747
41158W        W 4926  24.162  32.071  13.962
41159W        W 4927   6.375  41.806  12.425
41160W        W 4928   5.330  22.192  10.516
41161W        W 4929   9.265  42.781   2.673
41162W        W 4930  34.935  36.559   1.364
41163W        W 4931  38.951  18.766  12.529
41164W        W 4932  34.991  36.864   4.156
41165W        W 4933   9.234  21.733  10.930
41166W        W 4934  33.561  20.121  12.910
41167W        W 4935  35.065  23.168  11.500
41168W        W 4936  19.131  12.120  11.050
41169W        W 4937  10.732  19.705   2.686
41170W        W 4938  19.127  25.574  14.496
41171W        W 4939  35.094  21.557   0.840
41172W        W 4940  22.104  43.906   3.287
41173W        W 4941  24.650  43.269   2.717
41174W        W 4942  15.270  15.700   0.388
41175W        W 4943  36.992  29.972  14.965
41176W        W 4944   0.461  38.824  14.974
41177W        W 4945   2.380  36.402  11.031
41178W        W 4946  23.659  38.438  12.462
41179W        W 4947  33.381  18.163  14.870
41180W        W 4948  41.982  41.331  11.422
41181W        W 4949  16.720  29.983  12.521
41182W        W 4950  42.375  44.880   3.642
41183W        W 4951  30.517   0.899   2.387
41184W        W 4952  24.617  17.693  10.453
41185W        W 4953   2.937  13.710  11.452
41186W        W 4954   7.228   4.231   1.373
41187W        W 4955  39.834  15.152   1.242
41188W        W 4956  30.642  35.402   4.329
41189W        W 4957  18.551  33.503   5.215
41190W        W 4958   8.858  31.638  12.347
41191W        W 4959  24.595  44.994   1.310
41192W        W 4960  27.562   9.210  13.004
41193W        W 4961   9.688   2.818   1.745
41194W        W 4962   8.729  22.645  13.840
41195W        W 4963  17.580  15.169  13.401
41196W        W 4964  12.348  15.227   5.116
41197W        W 4965  20.748  31.077  13.351
41198W        W 4966   2.368  15.130  11.921
41199W        W 4967   0.329  43.873   4.137
41200W        W 4968  16.094   7.218   3.647
41201W        W 4969  21.191  33.435  13.998
41202W        W 4970  43.899  37.547  14.941
41203W        W 4971  22.646  33.505   9.996
41204W        W 4972  36.382  18.290   1.900
41205W        W 4973  39.874  29.464   1.401
41206W        W 4974   5.251  41.525   3.319
41207W        W 4975  36.876  26.498  11.562
41208W        W 4976  12.728  23.612  12.417
41209W        W 4977  23.578  39.552  14.814
41210W        W 4978  21.583  15.146   3.789
41211W        W 4979   4.254  27.667  12.348
41212W        W 4980  18.127  38.950  11.507
41213W        W 4981  32.604  21.135  12.033
41214W        W 4982  10.692  13.154   1.935
41215W        W 4983   8.266  34.897  11.411
41216W        W 4984  26.554  21.213   4.311
41217W        W 4985  23.637   7.296   4.143
41218W        W 4986  15.156  43.424  14.406
41219W        W 4987  42.790  41.863   2.260
41220W        W 4988  20.199  18.230  11.609
41221W        W 4989   1.413  37.872  10.955
41222W        W 4990  15.165  40.053   1.429
41223W        W 4991  18.143  27.057   0.869
41224W        W 4992   8.709  43.786  14.457
41225W        W 4993  30.996  34.378  12.038
41226W        W 4994  11.751  13.834   1.327
41227W        W 4995  39.909  33.944   4.128
41228W        W 4996  29.008  22.236   1.853
41229W        W 4997  24.025   3.460  14.901
41230W        W 4998  23.557  36.932   2.670
41231W        W 4999  17.650  21.156   1.448
41232W        W 5000   8.873  21.677   4.642
41233W        W 5001   2.757  38.372   5.081
41234W        W 5002  40.503   3.876   3.789
41235W        W 5003  38.547  25.187   5.277
41236W        W 5004  21.718  39.980   0.456
41237W        W 5005   7.322  41.317   1.240
41238W        W 5006  44.387   5.705   3.377
41239W        W 5007   2.329  14.330   0.837
41240W        W 5008   0.878  23.523   0.941
41241W        W 5009  16.772  27.543   9.475
41242W        W 5010  22.525   8.198   1.270
41243W        W 5011   4.301  14.276   0.359
41244W        W 5012  10.683  43.801   1.807
41245W        W 5013  14.116   3.282   2.754
41246W        W 5014  31.452   0.476  13.991
41247W        W 5015  33.935   4.332   2.809
41248W        W 5016  26.546  19.639  13.934
41249W        W 5017  26.044  41.945  10.443
41250W        W 5018  15.784  15.316  12.058
41251W        W 5019   3.943   3.285   0.463
41252W        W 5020  13.829  24.580  10.974
41253W        W 5021  13.308  37.384   0.397
41254W        W 5022  11.300   8.706   4.679
41255W        W 5023  36.919  25.496  10.620
41256W        W 5024  33.497   4.703  14.768
41257W        W 5025  37.997  29.010   1.858
41258W        W 5026  26.998  26.045  11.067
41259W        W 5027  39.359  32.017   0.872
41260W        W 5028   7.301   5.410  13.993
41261W        W 5029  28.947  17.176   5.223
41262W        W 5030  38.004  35.087   2.819
41263W        W 5031  32.909  23.513   2.280
41264W        W 5032   8.293  38.976  10.470
41265W        W 5033   7.328  34.604   3.358
41266W        W 5034  27.635  39.362   1.345
41267W        W 5035  44.945  20.050   1.239
41268W        W 5036  28.970   6.762   4.614
41269W        W 5037  17.211  16.316  13.856
41270W        W 5038  34.608  21.050   1.376
41271W        W 5039  22.694  27.565  12.399
41272W        W 5040   9.680  28.044  13.001
41273W        W 5041  26.458  39.809   0.793
41274W        W 5042  20.686  14.104   2.241
41275W        W 5043  23.100  32.556  14.986
41276W        W 5044   7.690  23.986   2.893
41277W        W 5045   3.440   7.824   2.687
41278W        W 5046   8.390  26.648  10.501
41279W        W 5047  29.037  14.197  12.400
41280W        W 5048  13.172  25.213  12.374
41281W        W 5049  16.187   3.799   1.900
41282W        W 5050  37.443  36.506   2.315
41283W        W 5051  22.061  13.770   2.826
41284W        W 5052  14.151  23.543   1.321
41285W        W 5053  37.007  10.675   3.341
41286W        W 5054  43.449  31.143  12.376
41287W        W 5055  43.452  40.013   2.390
41288W        W 5056  42.354  11.757  13.447
41289W        W 5057   7.344  43.457   1.379
41290W        W 5058  20.136  27.629   4.234
41291W        W 5059  12.795   9.365   2.391
41292W        W 5060  23.572  27.627  14.985
41293W        W 5061   5.857  17.263   0.353
41294W        W 5062  21.121   7.775  14.951
41295W        W 5063   8.671  40.002   1.397
41296W        W 5064  12.174  36.879   4.602
41297W        W 5065  39.877   7.717   0.457
41298W        W 5066  37.872   7.882  12.847
41299W        W 5067  41.924   1.733  11.965
41300W        W 5068   9.720  18.705   4.603
41301W        W 5069  13.685  27.098  14.921
41302W        W 5070  35.079  37.459   1.876
41303W        W 5071   5.223  44.268  11.420
41304W        W 5072  27.507  43.945  10.949
41305W        W 5073  14.298   0.269  11.897
41306W        W 5074   0.816  44.268  12.833
41307W        W 5075  32.973  35.993  11.430
41308W        W 5076  41.428  20.701  14.928
41309W        W 5077  31.130  30.147  11.988
41310W        W 5078  31.424  19.148  12.576
41311W        W 5079  13.773  36.010  14.873
41312W        W 5080  10.169   8.875   4.295
41313W        W 5081   1.733  28.967   1.872
41314W        W 5082  41.382  33.433  12.484
41315W        W 5083   0.850   4.814   5.200
41316W        W 5084  19.627  15.634   4.254
41317W        W 5085  26.014  40.830   3.706
41318W        W 5086  23.628   6.229   0.319
41319W        W 5087  28.173   1.839   4.836
41320W        W 5088   2.337  36.357   0.885
41321W        W 5089  27.481  20.236   0.372
41322W        W 5090  28.480  36.448   3.305
41323W        W 5091  43.021  17.779  11.452
41324W        W 5092  33.391   3.913   9.947
41325W        W 5093   3.759  28.627  13.987
41326W        W 5094  25.042  37.385   0.923
41327W        W 5095   5.888   8.809  12.884
41328W        W 5096   3.913  10.685   3.674
41329W        W 5097   2.366   7.404   1.385
41330W        W 5098  27.138  26.596   4.834
41331W        W 5099   4.285  30.604  10.640
41332W        W 5100  14.833  13.607   1.382
41333W        W 5101   7.346   6.908   1.930
41334W        W 5102  30.447  13.305   4.167
41335W        W 5103  17.682  13.683   2.823
41336W        W 5104  22.207  42.429  10.600
41337W        W 5105  21.561   0.890   4.644
41338W        W 5106   4.832  15.616   1.797
41339W        W 5107  10.860  27.619  11.879
41340W        W 5108  21.237  10.199   2.342
41341W        W 5109  34.542  12.197  14.870
41342W        W 5110  39.972  16.153   1.421
41343W        W 5111  38.569  44.975   0.394
41344W        W 5112   9.208  28.573  10.511
41345W        W 5113  15.770  18.279  12.559
41346W        W 5114  34.005  27.603  12.488
41347W        W 5115  41.342  38.891  14.433
41348W        W 5116   9.303  27.508   1.911
41349W        W 5117   3.373  35.856  14.840
41350W        W 5118  41.835  14.201  13.472
41351W        W 5119  18.620  22.577  13.996
41352W        W 5120  20.211   4.798   1.803
41353W        W 5121  19.061   8.174  14.442
41354W        W 5122  40.013  40.898  13.366
41355W        W 5123  16.758  17.171   4.653
41356W        W 5124  17.070  33.590  12.035
41357W        W 5125  17.097   0.963   0.900
41358W        W 5126   8.270  23.576  12.012
41359W        W 5127   4.207  43.805   2.830
41360W        W 5128  18.244  29.451  12.369
41361W        W 5129  27.461  29.059   0.481
41362W        W 5130  40.825  30.129   5.684
41363W        W 5131  37.465  34.461   3.800
41364W        W 5132  39.475  32.943  13.307
41365W        W 5133  24.210   9.821  12.967
41366W        W 5134  34.601  16.190   4.628
41367W        W 5135  30.959  32.034  12.065
41368W        W 5136  35.888  23.160  11.585
41369W        W 5137  21.149  22.092  12.839
41370W        W 5138  30.492   4.284   3.817
41371W        W 5139  33.062   2.939   3.151
41372W        W 5140  14.618  38.024  12.461
41373W        W 5141  26.033  12.687   0.286
41374W        W 5142   1.785  42.398  14.338
41375W        W 5143  20.710  19.282   3.734
41376W        W 5144  33.474   2.282  13.916
41377W        W 5145   4.842  35.885  10.415
41378W        W 5146  17.713   6.780   0.275
41379W        W 5147  25.510  31.026   1.717
41380W        W 5148  14.272  15.144   9.969
41381W        W 5149  22.073  22.206   4.144
41382W        W 5150  23.655   2.785  13.846
41383W        W 5151  28.520  31.109   1.809
41384W        W 5152  16.641  33.464  13.950
41385W        W 5153  15.137   0.370  13.490
41386W        W 5154  31.553  32.115   2.820
41387W        W 5155  23.159   0.919   2.262
41388W        W 5156  22.123  28.613   4.709
41389W        W 5157  19.647   9.777   1.761
41390W        W 5158  18.071  36.857  11.975
41391W        W 5159   0.320  39.831  10.453
41392W        W 5160  20.109   4.390   3.296
41393W        W 5161  20.239  12.687   3.750
41394W        W 5162  38.517  40.505   4.754
41395W        W 5163  38.472  25.022  12.858
41396W        W 5164  19.676  11.148  13.033
41397W        W 5165  23.506  14.148  13.428
41398W        W 5166  13.273  34.526  10.938
41399W        W 5167  26.959  24.484  12.548
41400W        W 5168  31.149  25.083  13.439
41401W        W 5169  17.619  33.035   2.813
41402W        W 5170  19.727  37.491  10.979
41403W        W 5171  33.417  31.411  11.063
41404W        W 5172  29.993  22.121   2.260
41405W        W 5173  30.466  35.442   1.702
41406W        W 5174  28.569  16.079   0.396
41407W        W 5175  44.490  43.021  11.395
41408W        W 5176  36.515  12.717   0.331
41409W        W 5177  28.132  23.568  10.498
41410W        W 5178  30.121   7.820   0.878
41411W        W 5179  11.783  34.116   3.211
41412W        W 5180  19.763  41.352  13.025
41413W        W 5181  20.177   2.901   2.820
41414W        W 5182  31.126  22.210   2.742
41415W        W 5183  21.061  25.051   3.693
41416W        W 5184  14.329  20.724   3.704
41417W        W 5185   6.340  34.024  13.866
41418W        W 5186  13.266   2.961   4.186
41419W        W 5187  30.047   0.293  12.455
41420W        W 5188  18.078  42.803   4.148
41421W        W 5189  22.560   5.385   2.224
41422W        W 5190   5.800   7.221  14.424
41423W        W 5191  10.864  25.017  14.784
41424W        W 5192  26.468  20.127  13.382
41425W        W 5193   0.781   4.228   2.768
41426W        W 5194  34.518  27.165   4.634
41427W        W 5195  35.970  27.568  14.306
41428W        W 5196   1.468  21.190   1.805
41429W        W 5197  27.678  18.212   2.413
41430W        W 5198  25.005  25.690  11.074
41431W        W 5199  36.068  38.426   0.891
41432W        W 5200  31.457  22.716  11.904
41433W        W 5201  27.052   6.708   3.713
41434W        W 5202   0.754  43.314  12.579
41435W        W 5203  25.982  44.857   4.812
41436W        W 5204  20.134  18.757  12.459
41437W        W 5205  16.193  11.669  11.967
41438W        W 5206  34.594  25.607   2.295
41439W        W 5207  40.306  37.078   3.289
41440W        W 5208   9.661  14.645   3.177
41441W        W 5209  25.090  16.261  12.047
41442W        W 5210  20.140   7.396  12.910
41443W        W 5211  21.216  43.991   0.931
41444W        W 5212  22.088  42.423  14.424
41445W        W 5213  17.703  26.567  13.796
41446W        W 5214  36.517  28.974   0.927
41447W        W 5215  32.391  42.949   4.711
41448W        W 5216   4.922  20.050   1.727
41449W        W 5217  21.114   4.227   3.656
41450W        W 5218  38.547  16.079   3.371
41451W        W 5219  41.359  30.071  12.543
41452W        W 5220  31.947  24.212   4.599
41453W        W 5221   6.700  11.639   4.630
41454W        W 5222  28.013   0.276  14.789
41455W        W 5223  34.564  42.313   3.170
41456W        W 5224   2.305   3.301  11.856
41457W        W 5225  40.888  11.307   3.687
41458W        W 5226  33.945  42.475  11.893
41459W        W 5227  19.546  30.114  12.365
41460W        W 5228  12.660  44.290   2.327
41461W        W 5229  43.473  26.538   1.222
41462W        W 5230   2.438  14.238  11.500
41463W        W 5231  30.620   6.313   5.160
41464W        W 5232  35.056  32.604   0.338
41465W        W 5233  22.086  29.603  12.875
41466W        W 5234  32.535   2.244   3.681
41467W        W 5235  12.699   2.269   0.378
41468W        W 5236  27.976  30.006   3.176
41469W        W 5237  42.781  37.885   0.728
41470W        W 5238  33.882   3.797  10.920
41471W        W 5239  38.426  37.839   0.913
41472W        W 5240  43.462   1.430  14.007
41473W        W 5241   2.767  29.118   4.672
41474W        W 5242  14.231   5.425   0.737
41475W        W 5243  35.515  33.561   0.802
41476W        W 5244  44.929   4.784   2.887
41477W        W 5245  39.329  26.535  12.848
41478W        W 5246  39.361   1.885   0.347
41479W        W 5247  18.277   2.906   3.275
41480W        W 5248  14.108  19.672   1.261
41481W        W 5249   8.860  28.131   2.870
41482W        W 5250  24.084  32.538  14.924
41483W        W 5251  34.577  16.191  13.942
41484W        W 5252  43.766  14.708  12.544
41485W        W 5253  28.514  37.941  14.403
41486W        W 5254   6.294  42.830  12.894
41487W        W 5255  35.447  42.897  10.073
41488W        W 5256  29.114  28.656   2.266
41489W        W 5257  38.015  12.830   2.407
41490W        W 5258  32.610   3.768  10.411
41491W        W 5259  43.984  11.647  13.821
41492W        W 5260  23.034  44.957   3.304
41493W        W 5261   9.764  20.247   2.852
41494W        W 5262  35.037  36.955  11.920
41495W        W 5263   6.716  13.203   4.619
41496W        W 5264  27.634  17.244   2.706
41497W        W 5265  30.507  16.109   4.793
41498W        W 5266  11.127   1.371   3.760
41499W        W 5267   8.210  24.168  13.514
41500W        W 5268   6.217  21.184  12.580
41501W        W 5269  37.475  38.917   1.886
41502W        W 5270   4.786   6.729  11.920
41503W        W 5271  37.569  18.779   1.367
41504W        W 5272  32.135   6.354   5.313
41505W        W 5273  18.292   4.257   3.274
41506W        W 5274  27.504  31.462   1.709
41507W        W 5275  44.289  30.979  10.983
41508W        W 5276  10.148  34.054   4.611
41509W        W 5277  27.165   4.391  10.634
41510W        W 5278  32.499   0.814  14.967
41511W        W 5279  34.953  41.513  11.011
41512W        W 5280   2.813  38.939   9.535
41513W        W 5281  25.112  15.176   1.368
41514W        W 5282  31.455  42.286  13.432
41515W        W 5283  21.185  12.671  13.493
41516W        W 5284  17.185  19.623  10.063
41517W        W 5285   8.367  25.565   4.143
41518W        W 5286  44.922  42.316  14.927
41519W        W 5287  30.991   3.352  12.950
41520W        W 5288  41.320  13.308  11.099
41521W        W 5289  10.263  19.223   4.625
41522W        W 5290   5.434   8.835   0.951
41523W        W 5291  44.783  29.619  11.455
41524W        W 5292  39.441  26.582  10.132
41525W        W 5293  16.673   8.680   1.919
41526W        W 5294  21.099   6.211  11.121
41527W        W 5295  30.523   8.870  13.354
41528W        W 5296  12.349  33.017  14.029
41529W        W 5297   0.808  11.131   4.657
41530W        W 5298   6.840  17.100  13.437
41531W        W 5299  20.255  43.764   1.451
41532W        W 5300  26.581  44.863   2.358
41533W        W 5301  15.091  34.062   3.268
41534W        W 5302  28.463  10.237   1.817
41535W        W 5303   5.310  37.832  12.489
41536W        W 5304  15.667   1.759   1.911
41537W        W 5305  11.675  38.463   2.870
41538W        W 5306  44.450  13.294  10.537
41539W        W 5307  22.623  22.659   1.265
41540W        W 5308  12.193   5.867   1.915
41541W        W 5309   2.313  12.232   1.822
41542W        W 5310  35.396  18.103   5.227
41543W        W 5311  36.849  25.169  12.953
41544W        W 5312  37.484  29.503   0.869
41545W        W 5313  34.447  12.135   3.771
41546W        W 5314  19.277   1.929   0.306
41547W        W 5315  35.591   8.393   3.271
41548W        W 5316   4.930   3.348   0.898
41549W        W 5317  36.856   9.181   3.273
41550W        W 5318  21.226  24.551   1.324
41551W        W 5319  21.559  40.353  10.925
41552W        W 5320   4.929  18.293  11.549
41553W        W 5321  32.510  27.652   2.902
41554W        W 5322  42.510  41.964  12.068
41555W        W 5323  25.682  29.130   2.711
41556W        W 5324   4.836  28.563   5.265
41557W        W 5325   4.291   0.743  14.294
41558W        W 5326  31.938   0.744   1.738
41559W        W 5327  16.756   8.782  13.442
41560W        W 5328   9.208  18.661  10.476
41561W        W 5329  20.181  18.062   4.598
41562W        W 5330   6.247  20.097   1.352
41563W        W 5331  30.513  16.679  14.483
41564W        W 5332  44.893  40.394   3.267
41565W        W 5333  43.444  27.452  10.599
41566W        W 5334  36.045  34.114   4.761
41567W        W 5335  40.394  40.923   4.743
41568W        W 5336  11.839  27.961   1.398
41569W        W 5337  23.001  28.554  10.624
41570W        W 5338  24.491  12.259  13.969
41571W        W 5339  28.590  42.849   0.412
41572W        W 5340  18.624  34.437   0.799
41573W        W 5341  44.309  28.509  13.500
41574W        W 5342  30.990  35.378  14.427
41575W        W 5343  15.727   2.389  13.946
41576W        W 5344  35.363   0.375  14.366
41577W        W 5345  32.990  28.147  13.313
41578W        W 5346  35.949   3.764   1.760
41579W        W 5347  14.774  37.372   0.254
41580W        W 5348  35.528   8.657  12.077
41581W        W 5349  39.444  10.722  10.444
41582W        W 5350  28.445  29.581   3.727
41583W        W 5351  43.908  10.255   0.473
41584W        W 5352  38.417  41.920   3.798
41585W        W 5353  21.050  37.462   3.789
41586W        W 5354  14.171   7.237  11.976
41587W        W 5355  25.134  25.146  13.428
41588W        W 5356  19.662  43.441   1.824
41589W        W 5357  25.214   6.183  12.517
41590W        W 5358  34.093  41.399   1.336
41591W        W 5359  21.054  28.582  12.362
41592W        W 5360  37.377   3.844  14.005
41593W        W 5361  41.311  24.204  11.485
41594W        W 5362  13.253  44.826  11.461
41595W        W 5363  30.036   9.238  11.556
41596W        W 5364  34.023   5.388   4.612
41597W        W 5365  29.634  31.587  14.925
41598W        W 5366  19.595  29.474   2.419
41599W        W 5367  44.457  20.071   2.266
41600W        W 5368  40.000   8.338  14.968
41601W        W 5369  39.911  24.488   2.272
41602W        W 5370  30.041  12.166   3.256
41603W        W 5371  22.647  25.039  12.043
41604W        W 5372  12.784  13.350   0.477
41605W        W 5373  18.634   7.258  10.057
41606W        W 5374   4.727  26.573   2.398
41607W        W 5375  14.125   6.243   1.288
41608W        W 5376  26.617  28.111  13.441
41609W        W 5377  26.514   8.242   2.768
41610W        W 5378  40.488  23.721  14.977
41611W        W 5379  44.897  10.199  13.542
41612W        W 5380  27.534  15.740  12.509
41613W        W 5381  21.712  10.196  14.400
41614W        W 5382  31.057  42.853  12.459
41615W        W 5383  11.220  36.061   4.148
41616W        W 5384  39.024   2.839  13.844
41617W        W 5385  33.411  12.814   0.867
41618W        W 5386  26.982  31.588   3.814
41619W        W 5387   0.926  34.004   3.708
41620W        W 5388  40.468  39.034  11.084
41621W        W 5389  17.232  31.938  11.920
41622W        W 5390  15.250   8.708  12.946
41623W        W 5391  28.084  31.044   2.253
41624W        W 5392   0.873  34.495   2.217
41625W        W 5393  39.424  19.625   4.766
41626W        W 5394  44.006  16.312  11.943
41627W        W 5395  13.288  35.874   4.624
41628W        W 5396  34.007  35.890   3.159
41629W        W 5397  10.719  41.965   2.748
41630W        W 5398  31.557   4.735   1.801
41631W        W 5399  28.037  35.054   1.809
41632W        W 5400  41.912  10.291  12.530
41633W        W 5401   5.294  32.059  11.028
41634W        W 5402  30.999  33.501   0.410
41635W        W 5403  23.158  15.204  14.370
41636W        W 5404  33.952  14.723  10.946
41637W        W 5405  18.124  11.168   1.772
41638W        W 5406  12.182  34.463  14.001
41639W        W 5407  14.651  24.110   4.127
41640W        W 5408   6.198  23.052  10.937
41641W        W 5409  16.078  40.968  12.004
41642W        W 5410  11.661  34.501  12.022
41643W        W 5411  33.037  24.498   4.813
41644W        W 5412  32.998   3.801  11.121
41645W        W 5413  38.438  41.807   3.159
41646W        W 5414  28.040  42.386  14.885
41647W        W 5415  18.758  21.638  14.317
41648W        W 5416  21.192  39.839   3.852
41649W        W 5417  37.042  27.950   4.324
41650W        W 5418  22.068   8.373  13.421
41651W        W 5419  32.996  11.668   0.855
41652W        W 5420   7.223  18.223   0.811
41653W        W 5421   7.741  30.577   3.817
41654W        W 5422  14.225  23.627  14.028
41655W        W 5423   6.331  20.112  12.340
41656W        W 5424  31.080  29.441   4.643
41657W        W 5425  31.520  26.463  14.469
41658W        W 5426   4.260  20.183  10.989
41659W        W 5427  13.343  14.807  14.934
41660W        W 5428  38.898   9.352   4.121
41661W        W 5429  36.881  27.534  12.420
41662W        W 5430  14.218  37.358  13.023
41663W        W 5431   8.777   4.932   4.656
41664W        W 5432  24.115  26.039  10.619
41665W        W 5433  39.837  11.137  13.004
41666W        W 5434  37.959  21.533   3.382
41667W        W 5435  41.425  13.769  14.003
41668W        W 5436  44.007  43.821  11.915
41669W        W 5437  19.761  28.583   2.296
41670W        W 5438  12.240   0.917   3.844
41671W        W 5439   0.756  42.795   4.781
41672W        W 5440  31.018  43.279  10.617
41673W        W 5441  22.182  11.828   1.702
41674W        W 5442  43.961   6.767   4.689
41675W        W 5443  31.047   6.711  11.954
41676W        W 5444   2.347  29.930  14.789
41677W        W 5445  41.452  30.954  13.871
41678W        W 5446   7.863  24.514   0.835
41679W        W 5447   9.255  25.599   1.777
41680W        W 5448  12.287  20.202  14.793
41681W        W 5449  29.444  25.647   3.795
41682W        W 5450  29.015   5.230   2.719
41683W        W 5451  19.106  13.174   1.812
41684W        W 5452  33.061  37.548   1.795
41685W        W 5453  39.059  27.111   0.926
41686W        W 5454  43.290  40.449   1.244
41687W        W 5455  39.425  35.558   2.346
41688W        W 5456  23.026  40.909   1.897
41689W        W 5457   0.492  32.967  14.030
41690W        W 5458  36.487  44.958  12.969
41691W        W 5459  19.774  11.154   2.843
41692W        W 5460  13.704  19.126   0.290
41693W        W 5461  38.990  11.629   1.431
41694W        W 5462  34.499  12.702  14.395
41695W        W 5463  11.740   9.288   9.973
41696W        W 5464  10.347   3.733  11.888
41697W        W 5465  38.474   9.388  14.934
41698W        W 5466  17.568  10.686   1.904
41699W        W 5467  34.582  36.845   3.700
41700W        W 5468  25.171  34.525  13.381
41701W        W 5469  25.473   0.839   1.243
41702W        W 5470  32.584  19.191   1.792
41703W        W 5471   6.338  15.805   2.342
41704W        W 5472  30.042  42.996   4.749
41705W        W 5473  34.499  14.770   0.385
41706W        W 5474  37.941  23.120   0.878
41707W        W 5475  20.182  24.613  13.530
41708W        W 5476  18.137  13.309   3.328
41709W        W 5477  17.123   5.904  14.950
41710W        W 5478  29.032  40.954  12.467
41711W        W 5479  12.716  35.504   0.839
41712W        W 5480  26.532  36.985  11.881
41713W        W 5481  37.417   8.827   9.448
41714W        W 5482  41.450  33.907  13.851
41715W        W 5483  19.564   8.328  13.524
41716W        W 5484  27.940  18.721   2.366
41717W        W 5485  37.391  11.340  11.002
41718W        W 5486  34.898  19.728   4.750
41719W        W 5487  44.853   4.262  12.560
41720W        W 5488   3.369  12.292   0.430
41721W        W 5489  39.351  13.302  11.919
41722W        W 5490  19.572  11.352   3.308
41723W        W 5491  28.943  27.675   3.323
41724W        W 5492  34.110  34.966   3.657
41725W        W 5493  42.405  18.136   3.733
41726W        W 5494  32.950  31.020   2.861
41727W        W 5495  31.419  11.183   2.409
41728W        W 5496  32.930  12.717  12.374
41729W        W 5497  16.669  14.279   1.784
41730W        W 5498  25.688   1.346  10.510
41731W        W 5499  28.148  23.089  13.531
41732W        W 5500   4.442  16.228  13.402
41733W        W 5501  25.712  14.314  14.415
41734W        W 5502   5.854  35.403   4.677
41735W        W 5503  27.677  36.940   1.894
41736W        W 5504  19.090   6.270  12.496
41737W        W 5505  10.709  37.579   3.778
41738W        W 5506  12.139  22.582  11.558
41739W        W 5507  34.953  29.572  12.087
41740W        W 5508  33.069  18.252  13.391
41741W        W 5509  17.126   0.903  13.353
41742W        W 5510  43.289   7.755   4.116
41743W        W 5511  10.234  13.750  10.110
41744W        W 5512  43.933  28.526   1.822
41745W        W 5513  16.723  14.251  10.606
41746W        W 5514  33.555  41.521  11.546
41747W        W 5515  27.078  22.651  10.616
41748W        W 5516  37.962  31.437  10.945
41749W        W 5517  19.092   8.230   3.187
41750W        W 5518  18.255  33.017   4.759
41751W        W 5519  28.970  34.586  14.877
41752W        W 5520  11.360  39.833  11.080
41753W        W 5521  16.202  43.893  12.894
41754W        W 5522  24.001  20.218   1.254
41755W        W 5523  12.651  21.025   3.278
41756W        W 5524  41.968   2.934   4.247
41757W        W 5525   8.405  18.116   1.221
41758W        W 5526  30.437  28.660   1.364
41759W        W 5527  34.909  32.460  12.078
41760W        W 5528   7.759   5.266   4.747
41761W        W 5529  43.431  32.575  11.931
41762W        W 5530  25.684  28.111  12.049
41763W        W 5531  26.972  28.114  11.561
41764W        W 5532  10.338  40.484   0.344
41765W        W 5533  34.882   0.411   1.905
41766W        W 5534  16.679  10.715   4.311
41767W        W 5535  33.381  40.930   4.807
41768W        W 5536   1.861  28.649   3.703
41769W        W 5537  21.243  39.049   0.772
41770W        W 5538  24.707   0.773   1.915
41771W        W 5539  17.758   5.695  12.410
41772W        W 5540  18.629   3.299  12.056
41773W        W 5541  38.417  44.338   3.730
41774W        W 5542   8.770  41.898  12.562
41775W        W 5543  37.851  39.508   1.707
41776W        W 5544  44.782  43.351   2.789
41777W        W 5545  19.584   2.383  10.415
41778W        W 5546  35.856  34.444  12.359
41779W        W 5547  12.289  28.973   1.422
41780W        W 5548  31.454  23.144   3.178
41781W        W 5549  23.611  14.271  14.007
41782W        W 5550  11.824  16.784  13.962
41783W        W 5551  42.424  38.893  11.583
41784W        W 5552   6.887  42.327  14.407
41785W        W 5553  12.235  36.067   3.730
41786W        W 5554  17.137  42.821  14.297
41787W        W 5555  34.065  34.373   4.247
41788W        W 5556   8.821  31.992  11.564
41789W        W 5557   3.854  29.057  12.082
41790W        W 5558  26.124  20.665   1.816
41791W        W 5559  16.095  22.174  12.006
41792W        W 5560  34.990  18.654   4.729
41793W        W 5561  35.582  44.268  12.545
41794W        W 5562  19.542  18.703  13.423
41795W        W 5563  29.121  31.407  11.608
41796W        W 5564  31.545   1.368  14.802
41797W        W 5565   2.322  32.002   2.753
41798W        W 5566  35.040  30.560   2.883
41799W        W 5567  11.347   2.744  12.421
41800W        W 5568  44.343  21.031   1.709
41801W        W 5569  44.390  27.450  10.159
41802W        W 5570  18.121  16.627   2.396
41803W        W 5571  29.144  40.422   2.711
41804W        W 5572  21.725  22.648   1.779
41805W        W 5573  28.610  34.448   2.179
41806W        W 5574  23.636  23.068   0.944
41807W        W 5575  30.563  41.466  13.326
41808W        W 5576  29.429  11.340  13.027
41809W        W 5577   9.747  40.482  14.011
41810W        W 5578  24.642  12.175  12.537
41811W        W 5579  29.521  15.685   3.758
41812W        W 5580   8.696   4.448  13.530
41813W        W 5581  42.848  15.744   0.334
41814W        W 5582  44.504  25.194  11.110
41815W        W 5583  30.577  27.177  12.870
41816W        W 5584  15.083  20.093   1.443
41817W        W 5585   5.263   2.428  11.477
41818W        W 5586  21.211  31.416  11.864
41819W        W 5587  14.296  12.680  10.111
41820W        W 5588   7.828  32.027  11.100
41821W        W 5589  32.926  19.216  13.038
41822W        W 5590  34.464  25.002   3.664
41823W        W 5591  14.776   3.347  10.125
41824W        W 5592  30.157  39.034   2.831
41825W        W 5593  39.810  15.290  12.853
41826W        W 5594  15.613  42.859  12.882
41827W        W 5595  25.675  29.924  12.077
41828W        W 5596  21.132  37.570  11.028
41829W        W 5597  43.846  36.447  12.478
41830W        W 5598   3.360  19.117  12.408
41831W        W 5599  39.007  33.615   4.812
41832W        W 5600   1.381  24.029   1.350
41833W        W 5601  44.295  11.780   2.371
41834W        W 5602  29.137  19.653   4.701
41835W        W 5603  15.617  11.331   1.276
41836W        W 5604  28.082  19.671  11.376
41837W        W 5605  37.454  25.137  12.515
41838W        W 5606  40.936  30.455   2.261
41839W        W 5607  26.191  25.104   2.766
41840W        W 5608  38.517   4.942   2.342
41841W        W 5609  44.434  44.911   0.905
41842W        W 5610  31.901   2.403   1.798
41843W        W 5611  31.406   3.227   5.137
41844W        W 5612  10.352  31.503  10.583
41845W        W 5613  34.980  13.793  12.874
41846W        W 5614  27.190  10.275   2.874
41847W        W 5615  43.995  24.480   2.183
41848W        W 5616  32.538  24.171  14.967
41849W        W 5617   5.919  44.472   2.670
41850W        W 5618  20.086  32.989   2.381
41851W        W 5619   5.710   0.930  14.921
41852W        W 5620  26.055   1.257   4.827
41853W        W 5621  28.544   0.899  12.093
41854W        W 5622   2.231  30.629  13.968
41855W        W 5623  42.032  11.132   1.752
41856W        W 5624  43.406   6.773  10.526
41857W        W 5625  30.060   1.855  13.353
41858W        W 5626  22.180  39.043   1.398
41859W        W 5627  41.823  39.502  12.552
41860W        W 5628  24.073  37.467  10.004
41861W        W 5629  25.119  13.703   2.799
41862W        W 5630  25.569  27.449  10.607
41863W        W 5631  10.780   8.242  12.565
41864W        W 5632  13.687  34.995  12.403
41865W        W 5633  23.994  13.248   2.349
41866W        W 5634  37.987  14.190  13.810
41867W        W 5635   9.253  40.902   2.198
41868W        W 5636   4.341  12.773  14.875
41869W        W 5637  42.459  35.470   4.159
41870W        W 5638   5.209  12.344  10.583
41871W        W 5639  24.100  10.384   2.326
41872W        W 5640  12.339  40.400  14.324
41873W        W 5641  25.176  21.159   0.856
41874W        W 5642  38.523  32.126   3.299
41875W        W 5643  14.611  26.574  10.462
41876W        W 5644  41.341   2.764   1.847
41877W        W 5645   9.171  35.446  14.446
41878W        W 5646  22.558  22.660   1.734
41879W        W 5647   4.744  27.170   2.670
41880W        W 5648  27.014  10.679  11.073
41881W        W 5649   2.443  32.970   0.744
41882W        W 5650   5.198  14.130   2.815
41883W        W 5651  25.048  43.933  13.921
41884W        W 5652  37.943  17.198  12.997
41885W        W 5653  40.018  43.996   0.912
41886W        W 5654  36.389  26.603   4.823
41887W        W 5655  11.649  14.679   2.736
41888W        W 5656  31.424  19.264  14.026
41889W        W 5657  22.612  23.685   2.895
41890W        W 5658  12.193   2.855  11.589
41891W        W 5659  39.985  24.168  11.506
41892W        W 5660  22.556  13.314  12.033
41893W        W 5661  27.589   0.900   2.300
41894W        W 5662  13.628  21.732  11.467
41895W        W 5663  14.254   3.789  11.922
41896W        W 5664   8.765  25.149  10.448
41897W        W 5665  33.622  17.644  11.910
41898W        W 5666  28.017  38.995  14.422
41899W        W 5667  41.815   4.767   5.154
41900W        W 5668  22.131  44.968   0.804
41901W        W 5669  12.302  25.169   4.276
41902W        W 5670  25.688  14.653   5.151
41903W        W 5671  17.727  44.445  13.791
41904W        W 5672  17.265  42.870  10.453
41905W        W 5673   7.839  24.663   3.818
41906W        W 5674  12.250  10.211   3.670
41907W        W 5675  15.595   8.298  12.846
41908W        W 5676  42.527  27.618  12.871
41909W        W 5677  42.467   8.385   0.374
41910W        W 5678  26.021   6.816   4.159
41911W        W 5679  24.085  23.064  12.977
41912W        W 5680  40.330   8.176   5.094
41913W        W 5681  39.355  36.043   2.728
41914W        W 5682  42.450  19.083  14.377
41915W        W 5683   4.908   7.318  14.513
41916W        W 5684  33.941  15.740   1.389
41917W        W 5685  30.632  19.102   0.315
41918W        W 5686   8.692   0.478  13.481
41919W        W 5687  27.551  16.677  12.843
41920W        W 5688  10.210  25.535  10.910
41921W        W 5689  30.023   3.810   2.237
41922W        W 5690  37.374  24.638   2.193
41923W        W 5691  29.645  10.186   1.329
41924W        W 5692   6.793  24.094  13.386
41925W        W 5693  10.766  32.447   2.196
41926W        W 5694  34.567  42.340   0.816
41927W        W 5695  24.562   8.346   2.876
41928W        W 5696   9.206  29.925  12.900
41929W        W 5697  20.696  14.721  10.550
41930W        W 5698  28.656  14.156  11.091
41931W        W 5699  14.285   3.870  12.552
41932W        W 5700  13.191   0.445   2.207
41933W        W 5701   4.897  15.812  10.404
41934W        W 5702   9.275  23.171   2.313
41935W        W 5703  21.184  11.752  12.911
41936W        W 5704  11.146  23.143   3.150
41937W        W 5705  20.587  19.624   0.823
41938W        W 5706  12.356  14.186   4.238
41939W        W 5707  29.161  18.199  13.865
41940W        W 5708   2.410  34.442   5.302
41941W        W 5709   2.831   6.918   0.818
41942W        W 5710   8.211  27.476   2.748
41943W        W 5711  22.661  20.675  13.357
41944W        W 5712  40.320  36.046  14.294
41945W        W 5713  16.182  28.436  11.975
41946W        W 5714  11.679  32.048  13.997
41947W        W 5715  39.826  38.368   1.765
41948W        W 5716  36.465  34.108   3.794
41949W        W 5717  23.075  37.374   0.762
41950W        W 5718  28.516  13.250  13.859
41951W        W 5719  25.645   4.405   3.648
41952W        W 5720  41.519  30.500   1.813
41953W        W 5721  18.176  20.532  12.437
41954W        W 5722  23.026  40.049  14.374
41955W        W 5723  40.966  14.205   2.726
41956W        W 5724  27.478  41.352  14.500
41957W        W 5725  13.143  30.962   0.280
41958W        W 5726   1.260  10.708  10.511
41959W        W 5727  38.074  25.601   1.861
41960W        W 5728  27.456  22.032  11.488
41961W        W 5729  38.334  33.520   0.378
41962W        W 5730  25.062  23.225   2.323
41963W        W 5731  14.321  35.577   1.706
41964W        W 5732   7.315  40.510  13.923
41965W        W 5733  28.535  11.770   5.237
41966W        W 5734  27.157  28.639   2.208
41967W        W 5735   8.816  11.781   0.369
41968W        W 5736  11.255   8.861  12.564
41969W        W 5737  36.874  43.003  12.823
41970W        W 5738  27.682  16.773   0.422
41971W        W 5739  29.937  35.359  13.517
41972W        W 5740  42.853  30.526   4.209
41973W        W 5741  26.085  16.277  11.081
41974W        W 5742   8.342  12.330   4.605
41975W        W 5743  17.642  12.784   0.447
41976W        W 5744  21.651  34.392   9.635
41977W        W 5745  18.158  40.849   1.350
41978W        W 5746  33.892  12.219  10.521
41979W        W 5747   5.391  44.488   3.802
41980W        W 5748  37.518   3.793  13.386
41981W        W 5749  37.352   5.715   4.657
41982W        W 5750  43.288  26.678  14.843
41983W        W 5751   4.872  38.564  12.532
41984W        W 5752  16.574  26.065  12.971
41985W        W 5753  41.294  27.130  13.027
41986W        W 5754  36.512   3.864  11.444
41987W        W 5755  12.302   9.738  13.839
41988W        W 5756  13.296  37.923  13.498
41989W        W 5757   5.839  37.565  12.353
41990W        W 5758  10.781  44.287   2.839
41991W        W 5759  39.536  19.094  10.624
41992W        W 5760   5.746  20.110  10.520
41993W        W 5761  23.491  35.944   2.247
41994W        W 5762  18.636  39.829   0.390
41995W        W 5763   8.797   0.820   2.218
41996W        W 5764  41.984  11.316  10.519
41997W        W 5765  10.276  12.331   1.314
41998W        W 5766   9.822  34.916   3.811
41999W        W 5767  41.827   8.268  12.543
42000W        W 5768  31.424   1.746   3.221
42001W        W 5769  16.230  12.623  11.403
42002W        W 5770   4.734   3.347   4.240
42003W        W 5771  22.138  43.476   0.767
42004W        W 5772  40.304  20.072  12.396
42005W        W 5773  12.853  17.148  13.342
42006W        W 5774   7.259  18.773  14.819
42007W        W 5775  34.877  40.332   4.148
42008W        W 5776  17.270   0.933  10.457
42009W        W 5777  41.389  14.588   3.680
42010W        W 5778  39.361  34.491  12.842
42011W        W 5779  35.532  20.740   1.299
42012W        W 5780  15.718  37.567   0.354
42013W        W 5781  16.124   4.831   4.740
42014W        W 5782  27.164  37.490   4.686
42015W        W 5783  24.126   6.421   1.765
42016W        W 5784   3.853  12.219   3.198
42017W        W 5785  20.235  31.077   4.264
42018W        W 5786  14.270  28.107   4.184
42019W        W 5787  43.978  39.827  11.903
42020W        W 5788  12.190  13.614   4.756
42021W        W 5789   9.389  27.104  10.926
42022W        W 5790   1.828  39.528   0.771
42023W        W 5791  31.499  31.001   3.155
42024W        W 5792  16.713  33.495   5.794
42025W        W 5793  34.403  39.816  10.419
42026W        W 5794  21.679  15.101  12.973
42027W        W 5795  24.497  32.438   3.299
42028W        W 5796  16.263   1.277   4.836
42029W        W 5797  38.978  37.991   0.298
42030W        W 5798   8.185  12.245  13.838
42031W        W 5799  33.556  13.130  13.992
42032W        W 5800  31.463   9.193  11.076
42033W        W 5801  17.772  23.150   5.261
42034W        W 5802  44.854  26.555  13.992
42035W        W 5803  33.996  15.260  12.473
42036W        W 5804  27.565   1.787   0.743
42037W        W 5805  43.837  11.176   2.207
42038W        W 5806  34.589  24.693   3.255
42039W        W 5807   2.405  33.604   0.363
42040W        W 5808  25.972  20.629   2.793
42041W        W 5809  42.456  25.700  14.947
42042W        W 5810  44.796  10.650   0.745
42043W        W 5811  14.113  17.654  13.805
42044W        W 5812  27.052  25.067  14.981
42045W        W 5813  37.350  22.995   4.253
42046W        W 5814  27.961  31.415  14.804
42047W        W 5815  36.475   4.368   4.278
42048W        W 5816  28.486   7.407  13.006
42049W        W 5817   5.222  35.902   1.704
42050W        W 5818  15.294  21.090   1.389
42051W        W 5819  28.964  28.601  10.935
42052W        W 5820  22.539  19.656   4.186
42053W        W 5821  38.546  12.318  14.878
42054W        W 5822  30.629  40.898   4.801
42055W        W 5823  43.853  16.765   2.333
42056W        W 5824  34.583  23.514  13.939
42057W        W 5825  10.189  34.062   2.365
42058W        W 5826  28.451  27.184   0.866
42059W        W 5827  34.879   1.464   2.386
42060W        W 5828   1.281  22.587   0.727
42061W        W 5829   6.869  31.076   2.402
42062W        W 5830   9.670  12.231   2.275
42063W        W 5831  24.688  16.078  11.910
42064W        W 5832   4.712  38.384  11.033
42065W        W 5833  26.499   4.393   1.715
42066W        W 5834  17.270  38.344   2.412
42067W        W 5835  14.780  26.564   2.673
42068W        W 5836   5.775   9.724   0.848
42069W        W 5837  18.110  19.088  12.885
42070W        W 5838   2.873  29.500  13.382
42071W        W 5839  39.905  28.078  11.013
42072W        W 5840   9.818  24.020   3.855
42073W        W 5841  33.504   7.747  10.018
42074W        W 5842  21.069  11.250   2.259
42075W        W 5843   2.839   4.886  10.960
42076W        W 5844   4.806  13.606   1.366
42077W        W 5845   8.852  42.829   4.632
42078W        W 5846  14.260  30.004   2.862
42079W        W 5847  26.977  21.177   2.331
42080W        W 5848  42.996  43.896   1.884
42081W        W 5849  35.530   7.406  14.468
42082W        W 5850  42.028   3.221  13.460
42083W        W 5851  15.676  38.994  13.840
42084W        W 5852  35.049   8.777   0.818
42085W        W 5853  40.844   5.699  12.048
42086W        W 5854  28.604  17.625   2.811
42087W        W 5855  27.449  43.932  14.880
42088W        W 5856  22.025   7.179   4.814
42089W        W 5857  41.513  23.569   1.387
42090W        W 5858   6.826  24.001   4.147
42091W        W 5859  29.165  13.301  14.970
42092W        W 5860  34.957  26.989   3.713
42093W        W 5861  28.123  26.123   0.740
42094W        W 5862  18.685  43.473  14.279
42095W        W 5863  13.127  13.170   2.352
42096W        W 5864   4.245  39.433   1.356
42097W        W 5865  34.045   6.808  14.986
42098W        W 5866  36.557  18.720   2.756
42099W        W 5867  15.304  31.422  12.526
42100W        W 5868  28.583  14.651  14.327
42101W        W 5869  10.734  40.970  11.983
42102W        W 5870  12.818  37.409  11.088
42103W        W 5871   6.327  18.108   5.137
42104W        W 5872  32.610  36.933  12.403
42105W        W 5873  24.115  42.843   3.677
42106W        W 5874  16.191  28.131  13.011
42107W        W 5875  20.227  39.046  11.501
42108W        W 5876  22.720   4.447  12.445
42109W        W 5877   1.318  32.562  12.468
42110W        W 5878  17.131  22.723   3.275
42111W        W 5879   9.829  17.702   0.341
42112W        W 5880  31.462   6.693  11.116
42113W        W 5881  43.344  34.604  11.921
42114W        W 5882  29.583  17.126  10.585
42115W        W 5883  27.946  37.858  11.011
42116W        W 5884  35.389  17.232  12.029
42117W        W 5885  12.844  39.980   3.644
42118W        W 5886  27.468  25.488   4.122
42119W        W 5887  20.109  33.558  12.480
42120W        W 5888  40.922  40.385  14.016
42121W        W 5889  34.501  37.543  11.038
42122W        W 5890   4.937   2.440  14.919
42123W        W 5891  11.647  10.705  12.930
42124W        W 5892  40.342  21.017  10.977
42125W        W 5893  43.449  10.669   4.795
42126W        W 5894  19.201  15.820   1.931
42127W        W 5895  27.048  44.861  13.474
42128W        W 5896  36.487   8.390   9.443
42129W        W 5897   9.244  26.120  13.456
42130W        W 5898  43.419  38.878  13.460
42131W        W 5899  44.997  22.533   3.721
42132W        W 5900  42.518  39.958   0.944
42133W        W 5901   2.825  42.284   0.776
42134W        W 5902  42.293   4.860   0.288
42135W        W 5903  13.751  23.158  11.943
42136W        W 5904  22.112  24.485  11.882
42137W        W 5905  36.537   0.427   2.797
42138W        W 5906  35.590  29.657   0.908
42139W        W 5907  24.068  10.666  10.512
42140W        W 5908  20.540  28.639  11.504
42141W        W 5909  44.862  41.807   4.117
42142W        W 5910   1.870  38.418  12.358
42143W        W 5911  10.777  44.832  13.540
42144W        W 5912  21.530  43.817   3.840
42145W        W 5913  35.398  19.756  14.002
42146W        W 5914  10.699  23.201   3.644
42147W        W 5915   1.856  39.336  10.011
42148W        W 5916   4.711  36.465   2.802
42149W        W 5917  14.186  23.671  12.380
42150W        W 5918  22.030  26.581  12.522
42151W        W 5919  40.307  21.536  10.429
42152W        W 5920   5.849   0.855   2.395
42153W        W 5921   4.904  14.313   2.749
42154W        W 5922  19.763  28.006   0.254
42155W        W 5923  39.895   7.234   1.746
42156W        W 5924   2.335   1.932   3.331
42157W        W 5925  38.947   4.417  10.023
42158W        W 5926  12.309  43.955  12.401
42159W        W 5927  39.019  38.845   3.664
42160W        W 5928  28.625  10.736   3.151
42161W        W 5929  18.237  32.468  13.532
42162W        W 5930  18.207  36.082  13.991
42163W        W 5931  43.970  42.950  13.035
42164W        W 5932  29.968  28.444  10.519
42165W        W 5933  21.089  29.628  10.411
42166W        W 5934  19.183  30.135  13.940
42167W        W 5935  39.475  22.658   3.649
42168W        W 5936  20.585   7.901   2.248
42169W        W 5937  38.053   1.792   1.885
42170W        W 5938  22.598  17.683   0.384
42171W        W 5939  44.335  16.776   1.367
42172W        W 5940  14.595  44.478  10.645
42173W        W 5941  22.112  19.639  12.903
42174W        W 5942  31.022  15.763  11.528
42175W        W 5943  32.551   5.735   3.753
42176W        W 5944  39.989   5.238   3.660
42177W        W 5945  20.236   1.409  12.427
42178W        W 5946  33.000  35.943  12.428
42179W        W 5947   2.957   1.409   4.623
42180W        W 5948   6.733  24.107  10.574
42181W        W 5949   9.180   9.885   3.326
42182W        W 5950  18.240  39.390  12.340
42183W        W 5951  23.589  16.812   1.789
42184W        W 5952  38.497  20.085   1.216
42185W        W 5953  33.565  10.749  13.853
42186W        W 5954  40.919  29.482   9.979
42187W        W 5955  20.597  35.864   2.347
42188W        W 5956  44.404  33.609   0.455
42189W        W 5957  39.950  27.979  14.773
42190W        W 5958   5.885   5.410  13.832
42191W        W 5959   5.391  37.038   2.669
42192W        W 5960  38.423  39.056   1.707
42193W        W 5961  20.573  18.672   3.175
42194W        W 5962  18.640  43.804  10.564
42195W        W 5963  14.158  36.041   4.705
42196W        W 5964  18.732  34.567   2.804
42197W        W 5965   3.367   1.742   1.852
42198W        W 5966  42.383  40.014   0.339
42199W        W 5967  42.016  37.358  14.450
42200W        W 5968  19.675  21.700  11.403
42201W        W 5969  11.267  15.777   0.769
42202W        W 5970  44.800  16.728   3.867
42203W        W 5971  41.032  42.914  13.973
42204W        W 5972  18.216  25.200  11.111
42205W        W 5973  25.679  35.393  13.479
42206W        W 5974  18.741  31.468  11.874
42207W        W 5975  44.281   3.745   4.134
42208W        W 5976  26.647  16.225   1.326
42209W        W 5977  18.760   0.759  13.928
42210W        W 5978  26.192  26.199  12.419
42211W        W 5979  28.563   3.873   0.957
42212W        W 5980  30.112  19.575   2.344
42213W        W 5981  34.961   4.396   0.778
42214W        W 5982  40.824  44.829  11.374
42215W        W 5983  31.473  15.649  11.565
42216W        W 5984  22.661   9.738  12.960
42217W        W 5985  31.083  39.900  13.396
42218W        W 5986  22.527  20.050   2.684
42219W        W 5987   9.295   4.898  14.793
42220W        W 5988  37.467  35.080  12.846
42221W        W 5989   7.849  15.769  10.463
42222W        W 5990   6.693  10.878   1.450
42223W        W 5991  13.220  21.584  10.924
42224W        W 5992  18.596  31.420  14.378
42225W        W 5993  40.885  40.944  13.341
42226W        W 5994   7.417  15.588   0.293
42227W        W 5995  26.010  14.649   0.440
42228W        W 5996   1.243  44.873   3.788
42229W        W 5997  43.013  41.828   0.319
42230W        W 5998   7.824  10.648  11.991
42231W        W 5999  15.643  41.311   1.452
42232W        W 6000   7.833  17.622  14.797
42233W        W 6001  29.609  21.625   0.782
42234W        W 6002  26.634  41.393   4.200
42235W        W 6003  26.197  44.277  13.390
42236W        W 6004  40.377  40.413  14.899
42237W        W 6005  36.569  21.055   0.947
42238W        W 6006  43.987  31.112   4.688
42239W        W 6007  16.734  26.200  14.771
42240W        W 6008   2.357  30.654   0.272
42241W        W 6009   0.895  38.010   0.815
42242W        W 6010  13.783  36.950  14.343
42243W        W 6011  37.398  12.613  11.497
42244W        W 6012  30.646  33.101   1.902
42245W        W 6013  12.276  26.040   2.814
42246W        W 6014  19.539  18.588   1.272
42247W        W 6015  43.934   2.400   4.118
42248W        W 6016  37.891  40.964   0.748
42249W        W 6017  23.720   0.754  13.414
42250W        W 6018  28.177  43.790   0.346
42251W        W 6019   3.775  35.387   3.712
42252W        W 6020  21.648  29.990  13.987
42253W        W 6021   7.239  18.561  11.481
42254W        W 6022   9.302   5.375   0.349
42255W        W 6023  32.967   5.431   2.667
42256W        W 6024  33.929  26.478   1.769
42257W        W 6025  21.517  10.232   3.690
42258W        W 6026  13.316  30.587   4.771
42259W        W 6027  33.492  42.843   1.831
42260W        W 6028   5.767  44.938   1.309
42261W        W 6029  28.607  24.673  10.448
42262W        W 6030  22.042   1.409   2.881
42263W        W 6031   3.302   1.384  14.516
42264W        W 6032  39.367  40.827  11.935
42265W        W 6033  10.158  18.733  10.462
42266W        W 6034  23.013  10.308   2.831
42267W        W 6035  43.456  18.555  14.822
42268W        W 6036   0.839  33.129  14.434
42269W        W 6037  11.693  15.234  14.892
42270W        W 6038  39.390  27.133  13.308
42271W        W 6039  17.226  42.521   3.362
42272W        W 6040  42.428  26.678   3.186
42273W        W 6041  20.538  10.282  12.954
42274W        W 6042  34.940  17.119   1.769
42275W        W 6043   4.422  29.986  14.870
42276W        W 6044  14.269  40.305   5.172
42277W        W 6045  14.148  17.121   2.307
42278W        W 6046  31.576  10.204   1.390
42279W        W 6047   3.423  14.117   0.476
42280W        W 6048  34.482  36.908   2.366
42281W        W 6049  31.540  31.078  12.391
42282W        W 6050  29.444  43.871   3.825
42283W        W 6051  42.910  33.975  12.973
42284W        W 6052  42.904  31.104   5.139
42285W        W 6053  23.128   2.366  12.983
42286W        W 6054  16.155   1.381  14.828
42287W        W 6055  44.309  16.572   0.901
42288W        W 6056   0.850  34.524   3.200
42289W        W 6057  40.503   9.357   4.260
42290W        W 6058  23.096  44.467   1.431
42291W        W 6059  38.512  19.247   1.275
42292W        W 6060  11.200  40.518   0.847
42293W        W 6061  15.635  30.150   4.293
42294W        W 6062  30.608  29.930  12.431
42295W        W 6063  23.186  21.736  13.397
42296W        W 6064  20.185  25.119  12.514
42297W        W 6065  12.729  27.941  12.050
42298W        W 6066  27.997  20.639  10.931
42299W        W 6067  43.360  10.685  12.843
42300W        W 6068  41.880  39.320   2.700
42301W        W 6069  20.632  22.641  13.495
42302W        W 6070  36.458  36.547   4.693
42303W        W 6071  13.113  28.158  10.068
42304W        W 6072  19.748   4.701   5.248
42305W        W 6073  27.665  15.261  14.804
42306W        W 6074  30.974  10.765   3.373
42307W        W 6075   7.364  22.151  10.498
42308W        W 6076   1.285  38.981  10.541
42309W        W 6077   5.343  39.487   3.843
42310W        W 6078  16.601   1.777   2.856
42311W        W 6079   1.766  18.754  12.025
42312W        W 6080  10.320  23.543   4.613
42313W        W 6081  27.542  37.064  12.862
42314W        W 6082  12.166  36.843  11.575
42315W        W 6083  22.635  18.056  12.537
42316W        W 6084  33.595   4.339  14.763
42317W        W 6085   4.380  12.159  13.508
42318W        W 6086  36.855  44.882  14.493
42319W        W 6087   2.268   8.660   3.730
42320W        W 6088  44.008   1.839  12.872
42321W        W 6089   0.855  26.643   4.806
42322W        W 6090   2.453   6.231  13.804
42323W        W 6091  15.634  21.128  10.569
42324W        W 6092  12.737  14.676  14.854
42325W        W 6093  35.019  30.154  14.910
42326W        W 6094  34.097  33.554   2.824
42327W        W 6095  17.582  39.021   0.321
42328W        W 6096  21.717  37.926  11.547
42329W        W 6097  35.432  11.760   1.450
42330W        W 6098  41.829  37.845  11.117
42331W        W 6099  37.547  40.320  13.879
42332W        W 6100  32.898  15.672  13.420
42333W        W 6101  14.212  19.754   1.896
42334W        W 6102   8.364  34.472  11.022
42335W        W 6103  20.113  27.998   2.196
42336W        W 6104  25.103  34.118   4.344
42337W        W 6105  17.601  40.833   4.211
42338W        W 6106  41.979  32.460  14.896
42339W        W 6107   1.447   2.742   0.282
42340W        W 6108  11.652  41.409   1.747
42341W        W 6109  16.716  27.133   4.701
42342W        W 6110  21.726  26.973  14.347
42343W        W 6111  15.254  21.565  13.384
42344W        W 6112  37.562  33.956  11.921
42345W        W 6113  40.885   6.274   3.274
42346W        W 6114  27.615   7.321  13.400
42347W        W 6115  43.899  36.351   0.292
42348W        W 6116  13.326  12.745  11.504
42349W        W 6117  28.622  24.639  11.928
42350W        W 6118  35.109   3.905   4.743
42351W        W 6119  19.253  43.399  14.396
42352W        W 6120  36.495   2.369   4.231
42353W        W 6121   1.399  13.738  10.614
42354W        W 6122  10.244   3.852   1.352
42355W        W 6123  38.405  35.878   0.468
42356W        W 6124  40.487   3.270   2.771
42357W        W 6125   2.951  31.480   0.729
42358W        W 6126   9.872  43.861  10.444
42359W        W 6127  44.499  33.449   4.657
42360W        W 6128   8.391  33.571  11.916
42361W        W 6129  17.189  44.821  10.132
42362W        W 6130  42.392   4.341   1.276
42363W        W 6131  41.786  14.735  10.456
42364W        W 6132   6.814  28.506   2.301
42365W        W 6133  18.226  24.530   4.233
42366W        W 6134  43.000  18.168   3.751
42367W        W 6135  25.525   1.387   1.809
42368W        W 6136   6.256   9.255   2.251
42369W        W 6137   2.806  27.552  14.426
42370W        W 6138  39.486  38.907  12.562
42371W        W 6139  38.030  12.683   0.395
42372W        W 6140  42.808  32.470  12.373
42373W        W 6141  33.990  29.447   2.350
42374W        W 6142  18.644  18.789  14.925
42375W        W 6143   6.349  35.943   5.316
42376W        W 6144  19.216  24.123  14.809
42377W        W 6145  22.537   8.802   0.399
42378W        W 6146  40.850  32.097   0.894
42379W        W 6147  30.445  21.179  10.439
42380W        W 6148  29.599  11.789  11.529
42381W        W 6149   2.830  33.574  13.499
42382W        W 6150  32.972  30.622   4.628
42383W        W 6151  22.022   6.393   0.826
42384W        W 6152  18.588  19.238  14.276
42385W        W 6153  19.739  12.763  12.064
42386W        W 6154   6.345  19.737   3.291
42387W        W 6155  41.425  28.539   2.884
42388W        W 6156  10.346  29.486  13.328
42389W        W 6157  29.635  36.484  12.519
42390W        W 6158  28.949   8.188  10.420
42391W        W 6159  22.566  11.747  12.352
42392W        W 6160  17.187  27.490   5.243
42393W        W 6161  26.580  43.274   3.802
42394W        W 6162   5.270   1.777   3.289
42395W        W 6163  37.519  18.155   2.387
42396W        W 6164  20.122  17.074  10.968
42397W        W 6165  17.107  14.237  14.966
42398W        W 6166  34.034  41.017  12.382
42399W        W 6167  32.629  31.115  14.005
42400W        W 6168  19.140  35.975   1.722
42401W        W 6169  31.073  28.551  10.944
42402W        W 6170  15.758  37.062  13.500
42403W        W 6171  29.070  23.989   0.301
42404W        W 6172  13.310   6.689  11.944
42405W        W 6173   1.767  20.177   1.718
42406W        W 6174  39.351  32.470   4.219
42407W        W 6175  43.318  14.127   3.860
42408W        W 6176  23.234  13.245   4.648
42409W        W 6177  42.390  24.568  14.487
42410W        W 6178  41.498  31.555  14.798
42411W        W 6179   8.801  42.437  14.290
42412W        W 6180  30.150  13.710  10.507
42413W        W 6181   2.382   6.295   3.753
42414W        W 6182  40.973  30.079   4.344
42415W        W 6183  21.105  40.019   1.934
42416W        W 6184  43.380  11.348   3.338
42417W        W 6185   3.243  26.605  10.485
42418W        W 6186  30.114  29.427   4.610
42419W        W 6187  26.104  36.918  10.960
42420W        W 6188  34.587  24.132   0.319
42421W        W 6189  12.323  13.153   3.265
42422W        W 6190  31.423  42.006  10.903
42423W        W 6191  24.620  40.855   1.775
42424W        W 6192  44.885   5.289   4.306
42425W        W 6193  10.759  28.978   1.721
42426W        W 6194  18.188  43.983   2.217
42427W        W 6195  18.203  39.011  13.936
42428W        W 6196  16.657  41.434   4.158
42429W        W 6197  36.922  43.856  14.463
42430W        W 6198  22.566  40.506   1.271
42431W        W 6199  23.984   2.346  11.415
42432W        W 6200  14.278  23.557   0.268
42433W        W 6201   4.759  18.081   3.226
42434W        W 6202  31.625  30.989   3.801
42435W        W 6203  27.026  16.666   3.736
42436W        W 6204  41.983  16.120  12.075
42437W        W 6205   8.689  24.005   4.709
42438W        W 6206   2.956  15.164  13.984
42439W        W 6207   4.441  17.242   0.763
42440W        W 6208  34.600  25.210   4.765
42441W        W 6209  20.527  14.605  13.873
42442W        W 6210  25.485  34.998   1.912
42443W        W 6211  22.562  39.020   1.427
42444W        W 6212  16.783   4.382  12.426
42445W        W 6213  40.400  29.054   3.312
42446W        W 6214  14.248  43.329   4.245
42447W        W 6215   0.972  10.265   4.288
42448W        W 6216   7.753  18.713   1.847
42449W        W 6217  23.676  37.833   0.287
42450W        W 6218  19.576  14.134   2.370
42451W        W 6219  12.285  13.245   1.791
42452W        W 6220  25.146  42.407  12.463
42453W        W 6221  35.011   0.957  14.986
42454W        W 6222  14.599   7.317   4.169
42455W        W 6223  19.761  22.123  14.373
42456W        W 6224  24.672  26.172  13.314
42457W        W 6225  12.314  16.756   3.150
42458W        W 6226   8.853  11.825   3.729
42459W        W 6227   1.365  28.519  12.964
42460W        W 6228   8.766  22.205   1.322
42461W        W 6229  24.222  16.284  11.518
42462W        W 6230  22.140  31.897  11.967
42463W        W 6231  17.185  38.381  13.545
42464W        W 6232   1.758  29.442   2.895
42465W        W 6233   9.714  15.110   2.857
42466W        W 6234  14.121   1.871   1.385
42467W        W 6235  30.159   1.446  12.419
42468W        W 6236  18.664  23.044   0.904
42469W        W 6237  30.985  19.176  13.949
42470W        W 6238   1.759  37.448   2.788
42471W        W 6239  13.765  34.483   1.736
42472W        W 6240  13.696  40.410   1.906
42473W        W 6241  41.380  21.570  11.585
42474W        W 6242  35.500   9.350   3.667
42475W        W 6243  39.919  44.834  12.518
42476W        W 6244  22.100  34.379   2.261
42477W        W 6245   7.401  40.352   4.187
42478W        W 6246  35.967   9.851  12.092
42479W        W 6247   2.838  21.568   4.644
42480W        W 6248  28.148   9.299   3.370
42481W        W 6249  29.091  28.606   4.240
42482W        W 6250  39.492  26.702   0.461
42483W        W 6251  25.146  18.766  13.832
42484W        W 6252  32.589  16.601   3.643
42485W        W 6253   1.870  39.828   1.300
42486W        W 6254   9.786  32.586  11.416
42487W        W 6255  41.997   7.231  10.523
42488W        W 6256  32.028   1.385  12.551
42489W        W 6257  13.145  24.521  12.436
42490W        W 6258  43.407   5.325  11.971
42491W        W 6259  17.160  11.280  12.921
42492W        W 6260  26.520  44.761   1.860
42493W        W 6261   3.909  33.623  12.411
42494W        W 6262  38.008  27.942   4.182
42495W        W 6263  20.254  32.537  14.345
42496W        W 6264  22.535   1.365   0.459
42497W        W 6265  44.769  22.058  11.447
42498W        W 6266  24.138   0.936   3.195
42499W        W 6267   4.306  14.681   2.199
42500W        W 6268  43.020  14.194  13.987
42501W        W 6269  12.236  17.154  12.943
42502W        W 6270  43.927   8.217   0.839
42503W        W 6271   4.368  15.194  13.036
42504W        W 6272  37.957   3.370  11.019
42505W        W 6273  14.182   9.831   0.856
42506W        W 6274  16.111  19.053   3.797
42507W        W 6275  29.556   0.479  14.938
42508W        W 6276  39.926  22.226  14.856
42509W        W 6277  41.370  21.251   4.130
42510W        W 6278  25.059  26.160   4.672
42511W        W 6279  33.448  23.683   1.826
42512W        W 6280   3.292   9.860   2.701
42513W        W 6281  20.764  20.651   3.186
42514W        W 6282  38.823  15.738  11.410
42515W        W 6283  25.685  18.744   4.636
42516W        W 6284   9.344  13.240   0.483
42517W        W 6285  33.499  20.675  11.110
42518W        W 6286  38.506  33.580  11.935
42519W        W 6287  34.596  35.370  13.816
42520W        W 6288  28.635  30.106  12.573
42521W        W 6289  34.100  18.632   4.136
42522W        W 6290  41.970   8.192   1.769
42523W        W 6291  29.072  42.961  11.985
42524W        W 6292  30.934  12.350  10.502
42525W        W 6293   0.278  31.929   2.222
42526W        W 6294  31.965  37.024  12.936
42527W        W 6295  39.545  27.459   2.670
42528W        W 6296  15.822   6.886   0.932
42529W        W 6297  14.302  42.306  14.960
42530W        W 6298   2.830  21.611  14.423
42531W        W 6299  40.523  13.147  12.509
42532W        W 6300  13.167  37.341  14.287
42533W        W 6301   2.247   4.782  10.103
42534W        W 6302  33.944   4.264  10.927
42535W        W 6303  12.184  17.574  14.858
42536W        W 6304  11.139  41.343   3.772
42537W        W 6305  44.977  11.194  14.412
42538W        W 6306   2.883   1.463   2.184
42539W        W 6307  26.507  12.747   2.819
42540W        W 6308   0.894   9.373  11.103
42541W        W 6309  12.348  43.768   2.797
42542W        W 6310  24.603   0.373   2.238
42543W        W 6311  34.050  42.457  14.999
42544W        W 6312  14.783  32.476  14.031
42545W        W 6313  41.815  31.901   1.401
42546W        W 6314   5.913  10.186   4.681
42547W        W 6315  16.241  31.068   3.864
42548W        W 6316  10.177  17.716   4.319
42549W        W 6317  19.242   3.938   4.734
42550W        W 6318  41.011  25.160   0.311
42551W        W 6319  11.855   4.250   4.597
42552W        W 6320  25.511  32.020   0.963
42553W        W 6321  24.562   6.204   3.672
42554W        W 6322  22.082  27.647  14.504
42555W        W 6323  39.464  38.493   0.462
42556W        W 6324  15.243  21.112   0.250
42557W        W 6325  39.417  32.465   9.617
42558W        W 6326  41.036   1.432   2.783
42559W        W 6327  43.988  33.915   1.904
42560W        W 6328  16.301  42.847  10.082
42561W        W 6329  36.933  34.014   0.257
42562W        W 6330  16.231  10.669  10.976
42563W        W 6331  35.013  31.494  11.090
42564W        W 6332  38.962  28.929  13.365
42565W        W 6333  36.398   8.710   4.770
42566W        W 6334  18.166  35.587  14.960
42567W        W 6335  31.904  35.410   4.292
42568W        W 6336  27.665  18.236   1.822
42569W        W 6337  36.552   8.778  10.405
42570W        W 6338  37.376   7.684   1.810
42571W        W 6339  13.275  24.055   3.837
42572W        W 6340  13.603  15.628  11.862
42573W        W 6341  34.601  24.144   0.820
42574W        W 6342  40.400  22.702   5.283
42575W        W 6343   7.291  11.260   0.283
42576W        W 6344  28.987   9.216  10.641
42577W        W 6345  42.418   8.890   0.800
42578W        W 6346  18.076  10.316  11.864
42579W        W 6347  36.907   4.417  13.378
42580W        W 6348  15.151  29.966   1.816
42581W        W 6349  32.102  34.577  13.411
42582W        W 6350  27.674  34.571   3.237
42583W        W 6351  29.576  27.458   4.289
42584W        W 6352  32.137  10.864   3.197
42585W        W 6353  42.904  10.667  11.931
42586W        W 6354   4.827  14.662   3.833
42587W        W 6355  25.575  40.358  11.944
42588W        W 6356  32.601  12.306  13.442
42589W        W 6357  20.080  24.197  10.457
42590W        W 6358  23.143  15.630  14.305
42591W        W 6359   2.296  16.261   1.384
42592W        W 6360  43.861  32.112   0.397
42593W        W 6361  14.641  12.229   3.302
42594W        W 6362  44.417  24.174  10.961
42595W        W 6363  15.140  19.705  14.998
42596W        W 6364  17.612  15.249   0.260
42597W        W 6365  15.646  31.964   4.186
42598W        W 6366  24.121   4.707  10.519
42599W        W 6367  23.580  37.846  12.093
42600W        W 6368  13.122  41.339   4.653
42601W        W 6369   4.785  29.491  10.581
42602W        W 6370  32.908  42.804  13.427
42603W        W 6371   0.755  23.011   4.170
42604W        W 6372   2.332  14.330   1.289
42605W        W 6373   8.771  43.815  13.496
42606W        W 6374  30.969  29.504   1.374
42607W        W 6375   5.799  26.031   1.309
42608W        W 6376  17.200  35.896  10.893
42609W        W 6377  44.897   2.441  10.981
42610W        W 6378   9.880  21.101  12.505
42611W        W 6379  40.488  32.941   3.166
42612W        W 6380   2.247  27.682   1.697
42613W        W 6381  41.044  20.527  12.505
42614W        W 6382  32.504  28.042  13.848
42615W        W 6383   7.842  18.590  13.867
42616W        W 6384  22.664  21.146   2.719
42617W        W 6385  25.522  42.839  12.912
42618W        W 6386   6.351  21.153  12.979
42619W        W 6387  15.103  35.514   4.169
42620W        W 6388   0.747  30.001  14.479
42621W        W 6389  44.942  35.365   1.276
42622W        W 6390  19.568  38.994   5.251
42623W        W 6391  19.171   9.195   2.311
42624W        W 6392  28.143  13.129  11.963
42625W        W 6393  28.670  43.905   1.427
42626W        W 6394  31.542   6.356   4.651
42627W        W 6395  36.029  40.338   0.813
42628W        W 6396   4.279  32.530   2.320
42629W        W 6397  42.421   0.425   1.893
42630W        W 6398  15.577   4.736   5.235
42631W        W 6399  39.334  18.141   2.797
42632W        W 6400   6.829  17.793  12.349
42633W        W 6401   3.360  34.435  13.352
42634W        W 6402  34.946  15.201  13.830
42635W        W 6403   0.812  10.662  11.558
42636W        W 6404  19.661  41.937  11.026
42637W        W 6405  17.175   3.260   0.438
42638W        W 6406  12.213  19.145  11.013
42639W        W 6407  38.073  31.473   4.238
42640W        W 6408  13.169  42.431  13.040
42641W        W 6409  28.930  37.565  14.996
42642W        W 6410  19.665  25.562  10.427
42643W        W 6411  16.094  22.239   0.799
42644W        W 6412  30.637  33.986   2.319
42645W        W 6413  26.029  15.686   0.840
42646W        W 6414  27.996  25.055   4.676
42647W        W 6415   0.863   9.212   4.682
42648W        W 6416   8.686  35.517  12.350
42649W        W 6417  33.036  25.082  13.434
42650W        W 6418  41.889  25.505   0.753
42651W        W 6419  27.611  16.082  11.987
42652W        W 6420  27.607   4.251  11.883
42653W        W 6421  21.579  26.536   2.858
42654W        W 6422  23.185  21.603   3.782
42655W        W 6423  42.830  12.323   4.747
42656W        W 6424  33.966  35.966  11.387
42657W        W 6425  38.072  35.088  10.595
42658W        W 6426  34.113  29.031   3.289
42659W        W 6427  35.888  28.574   1.385
42660W        W 6428   3.340   6.814   2.743
42661W        W 6429  20.646  32.542   3.162
42662W        W 6430  34.117  24.639  12.963
42663W        W 6431   9.868  32.966  11.893
42664W        W 6432  18.245  23.032   0.889
42665W        W 6433  34.608  12.164  11.870
42666W        W 6434  35.586  30.592  13.965
42667W        W 6435  18.070  28.150  11.410
42668W        W 6436  39.006  15.721   5.183
42669W        W 6437  27.492   0.281   2.786
42670W        W 6438  19.216  10.260  11.416
42671W        W 6439  14.625  22.522   0.405
42672W        W 6440  30.554  43.986  12.437
42673W        W 6441  43.005   4.294   2.219
42674W        W 6442  15.671  22.743  10.588
42675W        W 6443   2.250  38.506  11.518
42676W        W 6444  19.059  21.238  14.498
42677W        W 6445   7.201  38.921  12.992
42678W        W 6446  42.014  27.994   5.189
42679W        W 6447  11.717   3.290   1.921
42680W        W 6448   3.852   6.270  11.972
42681W        W 6449  21.619  13.287   0.446
42682W        W 6450  35.514   5.741  11.972
42683W        W 6451  21.659  43.010  13.012
42684W        W 6452  23.610  13.270   4.352
42685W        W 6453  21.172  24.034  14.514
42686W        W 6454  14.265  29.011   2.817
42687W        W 6455  34.903   7.758   2.873
42688W        W 6456  23.082  40.452   1.414
42689W        W 6457  36.897  10.707  11.972
42690W        W 6458  37.911  19.267  13.544
42691W        W 6459  13.213  38.526   0.839
42692W        W 6460  10.634  13.165   1.372
42693W        W 6461  27.575   0.389   0.925
42694W        W 6462  13.634   2.306  13.536
42695W        W 6463   9.208  18.725   0.278
42696W        W 6464  27.164  24.136  11.874
42697W        W 6465  24.142   1.428  14.381
42698W        W 6466  38.004  28.170  12.971
42699W        W 6467  42.900  38.046  11.485
42700W        W 6468  31.442   2.242   3.736
42701W        W 6469  32.475  34.988   3.329
42702W        W 6470  32.102  39.551   4.331
42703W        W 6471   6.685  21.703  12.417
42704W        W 6472  36.443  36.002  14.973
42705W        W 6473  20.061  31.971   4.763
42706W        W 6474  42.789  40.983  13.013
42707W        W 6475  19.649  14.820   1.840
42708W        W 6476  38.474  34.517   2.666
42709W        W 6477  12.229  34.515  14.493
42710W        W 6478  29.170   0.441  10.629
42711W        W 6479  36.018  23.723  11.530
42712W        W 6480  23.026   2.263  10.467
42713W        W 6481  32.112   2.405  12.904
42714W        W 6482  21.227  15.603  10.439
42715W        W 6483  41.438   6.309  11.048
42716W        W 6484  14.589   8.690   4.736
42717W        W 6485  38.075  38.497  11.126
42718W        W 6486  25.088   1.478   1.374
42719W        W 6487   7.272  41.930  13.930
42720W        W 6488  40.494   2.405  11.082
42721W        W 6489  18.159  37.942  14.833
42722W        W 6490  20.762  20.551  11.592
42723W        W 6491   6.882  14.745   0.343
42724W        W 6492  39.939  31.448  12.574
42725W        W 6493  39.469  30.985   0.917
42726W        W 6494  41.474  22.006   1.792
42727W        W 6495   7.198  41.421   4.343
42728W        W 6496   5.268   6.243  10.458
42729W        W 6497  30.643  40.524  13.814
42730W        W 6498  22.198  41.039  10.432
42731W        W 6499  11.289  27.648   3.849
42732W        W 6500  17.661  29.614   0.334
42733W        W 6501  26.623  22.188  14.820
42734W        W 6502  36.574  36.953   1.370
42735W        W 6503  36.904  15.303   1.801
42736W        W 6504   8.284  29.449  11.373
42737W        W 6505  22.043   8.324   4.172
42738W        W 6506   8.399  16.233   0.381
42739W        W 6507  21.199   7.254  14.972
42740W        W 6508  13.290  14.711  11.084
42741W        W 6509  13.214   1.835  12.994
42742W        W 6510   3.838  26.209  11.063
42743W        W 6511  22.543  32.600  10.112
42744W        W 6512  22.507   6.889  11.066
42745W        W 6513  24.618  18.677  12.884
42746W        W 6514  23.520  15.607   2.695
42747W        W 6515   6.894   2.962   4.195
42748W        W 6516  38.977  32.535   3.232
42749W        W 6517  24.025  11.715   0.799
42750W        W 6518  33.068  44.469  12.415
42751W        W 6519  38.861  19.233   1.237
42752W        W 6520  43.450  32.052   4.810
42753W        W 6521   0.430  18.734  13.852
42754W        W 6522  42.357   9.751  10.514
42755W        W 6523  43.983  18.126  13.932
42756W        W 6524  39.343  13.650   0.803
42757W        W 6525  36.007   4.944  13.543
42758W        W 6526   8.261  21.039   2.263
42759W        W 6527  13.232   7.267   2.772
42760W        W 6528  32.555  36.575   3.279
42761W        W 6529  37.480  27.559   1.709
42762W        W 6530  36.913   8.879  12.378
42763W        W 6531  25.703   3.314   5.139
42764W        W 6532   4.270  11.681   4.236
42765W        W 6533  10.330  13.319   2.888
42766W        W 6534  32.099   4.763   1.860
42767W        W 6535  11.830  20.226  11.971
42768W        W 6536   8.236   2.449   0.907
42769W        W 6537  28.484  42.827  11.954
42770W        W 6538  11.773   8.727  12.469
42771W        W 6539  32.479  20.761   2.322
42772W        W 6540   1.754  24.542  11.872
42773W        W 6541  31.057   7.194   0.276
42774W        W 6542  15.692  12.682  10.497
42775W        W 6543   2.469   5.698   4.250
42776W        W 6544  26.648  30.440  14.333
42777W        W 6545  33.397   1.877   2.332
42778W        W 6546  25.633  27.571   3.294
42779W        W 6547  18.059  31.440  11.415
42780W        W 6548  31.138  11.730  13.973
42781W        W 6549  22.745   2.319  14.758
42782W        W 6550  25.075  10.282  13.827
42783W        W 6551  37.994  12.776   3.366
42784W        W 6552  24.214  42.329  11.462
42785W        W 6553  23.544  28.542  13.996
42786W        W 6554  27.056  36.007   2.252
42787W        W 6555   8.759   0.860  14.930
42788W        W 6556   3.785   1.258  12.071
42789W        W 6557  16.114   1.398  12.929
42790W        W 6558   4.396  44.385  14.435
42791W        W 6559  33.529  12.162   0.842
42792W        W 6560  34.953   4.882   0.925
42793W        W 6561  44.463  21.555  14.008
42794W        W 6562  17.556  25.010   2.821
42795W        W 6563  33.059  17.786   3.810
42796W        W 6564  40.361   6.331   4.643
42797W        W 6565  30.032  25.594   4.286
42798W        W 6566  28.584  39.439   3.840
42799W        W 6567  26.093  42.826   3.648
42800W        W 6568  11.710  37.876   4.810
42801W        W 6569   6.394  11.807   4.198
42802W        W 6570  43.870  36.550  11.483
42803W        W 6571   6.321  41.527   2.742
42804W        W 6572   0.761  16.316   1.924
42805W        W 6573  37.847  31.475  13.028
42806W        W 6574   6.325  19.275  12.467
42807W        W 6575  29.979   0.488  13.005
42808W        W 6576  12.735  39.055   3.778
42809W        W 6577  25.574  27.582  13.036
42810W        W 6578   1.263  25.113   2.693
42811W        W 6579  17.753   6.240  11.092
42812W        W 6580  15.714  12.626   2.749
42813W        W 6581  23.006  43.982  12.446
42814W        W 6582  42.437  34.417   3.382
42815W        W 6583  38.850  22.579   1.747
42816W        W 6584   4.357  17.122   3.192
42817W        W 6585  32.460  19.047  12.016
42818W        W 6586  18.656   3.247  11.470
42819W        W 6587  25.157  33.052   5.246
42820W        W 6588  17.217   1.742   0.320
42821W        W 6589   5.211  42.967   2.834
42822W        W 6590  26.170  39.861  13.521
42823W        W 6591  19.283  22.727   1.854
42824W        W 6592  17.657   0.877  10.458
42825W        W 6593  31.407   2.250  12.486
42826W        W 6594   1.319  24.566   1.343
42827W        W 6595  35.859  42.498   3.315
42828W        W 6596   6.191   5.813  10.450
42829W        W 6597  11.214   8.345   3.685
42830W        W 6598   0.808  30.494   5.274
42831W        W 6599  22.194  39.447  12.008
42832W        W 6600  37.509   0.778   2.239
42833W        W 6601  11.372   9.778  10.408
42834W        W 6602  24.108  43.924   1.311
42835W        W 6603  28.499  23.149   3.219
42836W        W 6604  30.947   0.784   2.695
42837W        W 6605  18.724  38.492  12.476
42838W        W 6606  40.979   9.284  11.022
42839W        W 6607  26.526  14.750   1.227
42840W        W 6608  16.684  22.701  10.576
42841W        W 6609   2.720  29.961  12.827
42842W        W 6610  25.192  21.045  11.012
42843W        W 6611  36.377  39.917   3.708
42844W        W 6612  42.371  35.543  11.993
42845W        W 6613  44.905  44.920  13.483
42846W        W 6614  15.807  30.072   1.796
42847W        W 6615  25.107  44.344  14.013
42848W        W 6616  39.998  28.114  13.896
42849W        W 6617  17.094  25.495  11.096
42850W        W 6618  26.495   2.393   1.416
42851W        W 6619  23.669   1.961   0.922
42852W        W 6620  15.260  29.981  10.509
42853W        W 6621  33.586   3.852  13.503
42854W        W 6622  17.685  20.261   4.612
42855W        W 6623  22.172  18.279  10.895
42856W        W 6624   2.737  35.922  14.831
42857W        W 6625   0.473  27.005  11.398
42858W        W 6626  18.062  13.119  12.030
42859W        W 6627  44.839  33.574  12.545
42860W        W 6628  41.974   0.362   1.306
42861W        W 6629  23.686   7.760  11.938
42862W        W 6630  43.347  36.452   2.797
42863W        W 6631  38.556   6.265   0.952
42864W        W 6632  17.787  24.192  12.351
42865W        W 6633  34.529  40.462  13.321
42866W        W 6634  44.268  16.785  11.423
42867W        W 6635   4.754  37.432   5.170
42868W        W 6636  43.863  35.431  14.783
42869W        W 6637  24.527  40.398   4.218
42870W        W 6638  41.979  14.775   2.398
42871W        W 6639  31.921  26.489  10.579
42872W        W 6640  13.285  38.070  14.496
42873W        W 6641  15.274  29.935   2.832
42874W        W 6642   0.265  41.805  11.043
42875W        W 6643  27.023  23.108   3.724
42876W        W 6644  29.110  16.197  14.947
42877W        W 6645  36.443   4.800   0.870
42878W        W 6646  32.610  30.021   2.355
42879W        W 6647  26.487  17.741   2.708
42880W        W 6648  22.592  22.698   3.632
42881W        W 6649  31.464   5.787  14.852
42882W        W 6650  33.499  26.618   3.813
42883W        W 6651  19.630  16.580   3.150
42884W        W 6652  18.588  34.581   2.291
42885W        W 6653   8.403   8.785   1.732
42886W        W 6654  14.624  20.206  12.859
42887W        W 6655  11.287  42.477  14.000
42888W        W 6656  21.672   2.299  12.905
42889W        W 6657  11.282   8.781  14.833
42890W        W 6658  12.311  38.996  11.372
42891W        W 6659  34.539   1.861   2.390
42892W        W 6660  38.865  40.843  13.364
42893W        W 6661  29.553   2.909   1.786
42894W        W 6662  43.405  29.963  13.904
42895W        W 6663   9.876  15.769   1.412
42896W        W 6664  22.030   0.258  13.469
42897W        W 6665  10.829  42.945  14.951
42898W        W 6666  10.844  29.131  12.929
42899W        W 6667  34.914  17.217   0.906
42900W        W 6668  11.149  43.354   0.439
42901W        W 6669   5.298  43.925  11.457
42902W        W 6670  31.627  42.835   3.278
42903W        W 6671  39.879  26.104  11.388
42904W        W 6672   7.787  25.607   1.246
42905W        W 6673   0.896  41.952  14.939
42906W        W 6674  34.946  29.467   0.391
42907W        W 6675  11.632  28.124  10.506
42908W        W 6676  10.738  29.020  13.384
42909W        W 6677  13.223   3.403  14.510
42910W        W 6678  41.896  18.654  12.010
42911W        W 6679  44.383   4.340  13.412
42912W        W 6680  39.461  31.628  14.370
42913W        W 6681  38.522  30.470  13.849
42914W        W 6682   8.692  30.516  14.446
42915W        W 6683  39.365  11.825  10.609
42916W        W 6684  26.107  23.509   0.349
42917W        W 6685  25.993  10.809   2.805
42918W        W 6686  10.318  27.943   4.233
42919W        W 6687   3.428  44.964  10.457
42920W        W 6688  38.026  35.035   1.843
42921W        W 6689  25.141   8.716  12.370
42922W        W 6690  35.584   1.297  13.445
42923W        W 6691  17.712  10.156  13.408
42924W        W 6692  39.928  43.353  12.078
42925W        W 6693  43.458  12.248   1.761
42926W        W 6694   3.800   8.216   0.726
42927W        W 6695  15.651  15.734   2.719
42928W        W 6696  35.534  18.228   3.158
42929W        W 6697  32.094  34.527  12.439
42930W        W 6698  12.211   3.225   0.312
42931W        W 6699  19.257  39.989   1.789
42932W        W 6700   2.799  33.897   0.357
42933W        W 6701   0.763  31.907  14.779
42934W        W 6702   4.700  28.002   3.645
42935W        W 6703   9.663  33.421   4.607
42936W        W 6704  44.431  40.935   1.400
42937W        W 6705  16.124  23.635  12.545
42938W        W 6706   5.851  20.578  11.028
42939W        W 6707  32.895  28.535  13.373
42940W        W 6708  22.680  27.639  13.976
42941W        W 6709  28.501  21.097  11.945
42942W        W 6710  32.625   5.931   1.241
42943W        W 6711  33.921  35.990   0.928
42944W        W 6712  39.037  31.478  10.156
42945W        W 6713   4.425   8.378   2.734
42946W        W 6714  12.727   3.836  13.889
42947W        W 6715  37.036  15.324  13.508
42948W        W 6716  36.491  44.754  11.391
42949W        W 6717   4.289  37.373   3.791
42950W        W 6718  16.236   0.390   3.182
42951W        W 6719  36.453  37.409  10.056
42952W        W 6720  39.864  29.449   5.301
42953W        W 6721   7.824  18.155   4.148
42954W        W 6722  38.819   7.765   1.729
42955W        W 6723  36.366  41.996  10.971
42956W        W 6724  28.613  18.753  11.022
42957W        W 6725  39.505  29.008   1.400
42958W        W 6726  23.218  28.638  12.574
42959W        W 6727  41.376   8.733   4.691
42960W        W 6728  11.748  24.057   2.220
42961W        W 6729  11.219  35.882   4.684
42962W        W 6730  28.626  17.152   0.299
42963W        W 6731   1.444  18.711  14.441
42964W        W 6732  37.365  24.556   2.795
42965W        W 6733   4.248  35.938  12.022
42966W        W 6734  23.619   0.354  11.070
42967W        W 6735  44.411  17.219   1.700
42968W        W 6736   5.313  35.429  14.433
42969W        W 6737  37.363   2.942  12.984
42970W        W 6738  24.703  36.894  11.953
42971W        W 6739  19.614  28.572   4.169
42972W        W 6740   0.786  27.106   4.616
42973W        W 6741  21.050   4.944  14.952
42974W        W 6742  28.516  11.833  10.912
42975W        W 6743  10.328  34.416   3.170
42976W        W 6744  27.163  37.445   3.372
42977W        W 6745  11.229  16.288   3.172
42978W        W 6746  31.077  18.678  11.020
42979W        W 6747  19.649  25.053   0.368
42980W        W 6748  31.431  26.150   2.413
42981W        W 6749  27.524   6.898   2.767
42982W        W 6750  25.058   9.651  11.065
42983W        W 6751  31.536  16.585  13.024
42984W        W 6752  18.189  13.711  14.411
42985W        W 6753  44.812  18.232  11.602
42986W        W 6754  13.682   7.811  12.050
42987W        W 6755  21.742  17.596  12.350
42988W        W 6756  44.364  13.655  14.918
42989W        W 6757  24.008  15.749   4.655
42990W        W 6758  23.195  15.774   2.327
42991W        W 6759  32.963  27.136  14.451
42992W        W 6760  31.044  12.116   0.782
42993W        W 6761  11.760  43.784   1.912
42994W        W 6762  21.052  40.908   2.903
42995W        W 6763  44.894   9.186  11.512
42996W        W 6764  40.306  39.483  13.519
42997W        W 6765   6.795  19.748  10.548
42998W        W 6766  36.970   2.956   2.771
42999W        W 6767  10.207   1.315  11.896
43000W        W 6768  39.013  20.727  11.523
43001W        W 6769  38.899  22.542   2.707
43002W        W 6770  43.314  17.706   0.352
43003W        W 6771  31.411  42.357   2.730
43004W        W 6772  39.851   1.799  12.038
43005W        W 6773  35.029  18.218  14.943
43006W        W 6774   3.293  21.601  14.367
43007W        W 6775  16.275   6.896  13.542
43008W        W 6776  28.514  38.903  12.494
43009W        W 6777  18.714  36.515   4.280
43010W        W 6778  34.506  20.120  13.998
43011W        W 6779  37.014  16.584  12.885
43012W        W 6780  11.623   1.365  12.363
43013W        W 6781  28.168   4.745   0.825
43014W        W 6782   4.727  28.932  11.025
43015W        W 6783  11.282  31.114  13.965
43016W        W 6784  21.260  16.655   1.888
43017W        W 6785  21.568   6.341   4.683
43018W        W 6786  10.252  30.500  10.952
43019W        W 6787  35.573  13.610  14.496
43020W        W 6788  23.608  29.642   0.904
43021W        W 6789  44.881  28.046   4.323
43022W        W 6790  22.672   4.900  11.397
43023W        W 6791  28.583  43.865   2.691
43024W        W 6792  33.490  22.566   4.175
43025W        W 6793  14.322  18.774  12.840
43026W        W 6794  28.536   9.839  14.395
43027W        W 6795  13.155  27.674  14.386
43028W        W 6796   3.223  17.286  10.440
43029W        W 6797  28.508  44.971   1.755
43030W        W 6798  30.430  34.071  14.952
43031W        W 6799  20.737  31.997   1.817
43032W        W 6800  12.854  27.155  10.470
43033W        W 6801  32.590  10.242   0.388
43034W        W 6802   0.333  31.002   4.119
43035W        W 6803  31.648  43.773  11.597
43036W        W 6804  11.186  44.806   2.271
43037W        W 6805  26.678  36.860  11.493
43038W        W 6806  11.734  13.772   1.920
43039W        W 6807   3.394   7.771  11.500
43040W        W 6808  17.107  44.953  14.924
43041W        W 6809  14.151  38.365   1.842
43042W        W 6810  38.982   5.284  13.837
43043W        W 6811  11.184   2.400   2.808
43044W        W 6812  29.055   4.275   4.791
43045W        W 6813  27.617  32.601  11.590
43046W        W 6814  42.483   3.902   2.185
43047W        W 6815  42.511  10.764   2.801
43048W        W 6816  44.261  22.095  10.982
43049W        W 6817  28.168  21.643  11.936
43050W        W 6818  42.471  20.585  10.990
43051W        W 6819  39.377   4.860  10.940
43052W        W 6820  13.770   4.450  12.534
43053W        W 6821  38.343  18.791  13.471
43054W        W 6822  12.319  20.604  12.829
43055W        W 6823  38.956  22.115  13.794
43056W        W 6824  14.176   8.877   0.798
43057W        W 6825  16.095  40.803   0.727
43058W        W 6826  12.191   3.423  11.861
43059W        W 6827  38.544   9.802  14.284
43060W        W 6828  42.472  11.286   4.224
43061W        W 6829  40.441  10.828   2.731
43062W        W 6830  31.584   9.294  13.381
43063W        W 6831  16.233  17.187  13.474
43064W        W 6832   0.395  27.080  12.834
43065W        W 6833  44.503  30.966  14.935
43066W        W 6834   3.910  27.070  14.334
43067W        W 6835  39.507  15.614  12.339
43068W        W 6836   2.409  33.444  13.464
43069W        W 6837  43.895   1.362  14.018
43070W        W 6838  17.122   5.409   1.772
43071W        W 6839  12.804  26.981  11.949
43072W        W 6840  33.489   4.772  10.558
43073W        W 6841  26.182  32.470  10.442
43074W        W 6842  20.738  33.473  10.039
43075W        W 6843  35.471   4.408  11.392
43076W        W 6844  11.129   2.886  13.943
43077W        W 6845  19.630  17.281  11.118
43078W        W 6846  29.489  21.707   2.286
43079W        W 6847  25.012  13.324   4.760
43080W        W 6848  44.897  14.609  11.871
43081W        W 6849  15.719  42.483  12.934
43082W        W 6850  12.826   5.933  10.957
43083W        W 6851  28.963  21.243   3.677
43084W        W 6852  38.446  19.693  11.516
43085W        W 6853  17.295  19.075  14.385
43086W        W 6854  26.983   4.856  14.787
43087W        W 6855   6.740  29.611  11.930
43088W        W 6856   7.255  28.149  13.928
43089W        W 6857   0.256  43.366  13.983
43090W        W 6858  18.634  14.223   1.768
43091W        W 6859  11.159  44.899   3.208
43092W        W 6860  40.389  19.048  12.434
43093W        W 6861  34.540  16.651   3.189
43094W        W 6862   9.802  29.161  11.924
43095W        W 6863  24.718  36.449  14.382
43096W        W 6864  23.999  28.937  14.988
43097W        W 6865  26.505  18.620   3.352
43098W        W 6866  13.790  43.489  12.571
43099W        W 6867  32.994  29.128  12.456
43100W        W 6868  36.518  11.714  10.122
43101W        W 6869  31.643  29.451  12.937
43102W        W 6870   9.819  19.120  12.385
43103W        W 6871  16.807  21.183  11.863
43104W        W 6872   3.409  23.556  13.851
43105W        W 6873  12.208  35.890   1.891
43106W        W 6874   7.791  33.942  10.565
43107W        W 6875  33.468   7.368   9.957
43108W        W 6876  33.103  44.383  10.625
43109W        W 6877  34.866  38.913  12.888
43110W        W 6878   2.928  39.559  12.043
43111W        W 6879  32.941  17.210   0.469
43112W        W 6880  12.793   7.691  13.525
43113W        W 6881  25.158  12.851   1.757
43114W        W 6882  16.580  17.290  14.495
43115W        W 6883  30.655  20.192   3.789
43116W        W 6884  22.174  26.494  14.790
43117W        W 6885  23.634  25.574  14.327
43118W        W 6886  22.628   4.241  13.896
43119W        W 6887  41.933   4.379   2.383
43120W        W 6888  31.643  27.590  14.827
43121W        W 6889  27.612  32.514  11.105
43122W        W 6890  22.582  18.269   4.222
43123W        W 6891  32.052   2.755  10.959
43124W        W 6892   2.301   8.764  11.053
43125W        W 6893   9.658  36.485   1.906
43126W        W 6894   2.836  24.557  13.476
43127W        W 6895  21.233   1.436  11.056
43128W        W 6896  21.632   0.791   3.753
43129W        W 6897  37.974  30.053  12.825
43130W        W 6898  25.190  25.476   3.670
43131W        W 6899  23.534  40.044   1.368
43132W        W 6900   8.793  15.731   1.805
43133W        W 6901  27.582  23.080  10.955
43134W        W 6902   5.330  29.060  12.894
43135W        W 6903  23.209  30.644  13.901
43136W        W 6904  12.782  38.037  13.367
43137W        W 6905  30.978  44.972  12.496
43138W        W 6906  13.304  37.454   1.781
43139W        W 6907  16.574   3.842  13.376
43140W        W 6908  28.569  19.645  13.005
43141W        W 6909  39.021  23.691   3.372
43142W        W 6910  10.195  21.713  14.497
43143W        W 6911   2.784   0.304  13.538
43144W        W 6912  17.268   0.853   4.248
43145W        W 6913   0.337  15.630   2.346
43146W        W 6914   6.889  23.734  10.989
43147W        W 6915   3.710  44.871  10.469
43148W        W 6916  12.214  40.446   2.316
43149W        W 6917  15.110  14.671   0.742
43150W        W 6918  17.268  33.087   4.159
43151W        W 6919   7.314   9.159  13.006
43152W        W 6920  34.567  12.799  10.593
43153W        W 6921  14.651  10.635  14.982
43154W        W 6922  22.563  41.510  12.092
43155W        W 6923   4.242  14.785   1.841
43156W        W 6924   5.322  40.381   0.875
43157W        W 6925  33.951   0.779  13.943
43158W        W 6926  26.144  27.512   3.172
43159W        W 6927   1.769   3.331   2.380
43160W        W 6928  30.002   6.294  12.575
43161W        W 6929   7.752   0.307   3.744
43162W        W 6930  40.543  41.418   4.204
43163W        W 6931  12.647  36.897  14.318
43164W        W 6932  32.930   7.838   4.201
43165W        W 6933   8.161  36.454   4.262
43166W        W 6934  33.030  13.766  11.111
43167W        W 6935  16.304  18.683  13.880
43168W        W 6936  13.812   6.746   1.802
43169W        W 6937  12.178   5.847  14.774
43170W        W 6938  37.872  35.876  11.371
43171W        W 6939  10.360   0.465   1.902
43172W        W 6940  39.005  29.090  12.867
43173W        W 6941  16.653   9.814  12.939
43174W        W 6942  37.547  42.971   4.686
43175W        W 6943   8.378  42.321  13.980
43176W        W 6944  11.752  10.726  10.633
43177W        W 6945  34.566  17.633   3.760
43178W        W 6946  27.968  32.427  12.988
43179W        W 6947  39.906  25.532   1.786
43180W        W 6948  37.565  17.627  11.478
43181W        W 6949  34.435  41.494   4.200
43182W        W 6950  11.826  32.008  11.401
43183W        W 6951  40.969   3.718   2.701
43184W        W 6952  17.604  20.184   1.355
43185W        W 6953  26.064  14.768  14.513
43186W        W 6954   3.725  22.506   4.311
43187W        W 6955  40.997  31.490  11.515
43188W        W 6956  32.960  34.391   2.681
43189W        W 6957   7.215  16.670  12.351
43190W        W 6958  44.399   4.920  10.640
43191W        W 6959  14.668  26.567  12.905
43192W        W 6960   4.890  26.655  14.513
43193W        W 6961   2.272  24.710  14.335
43194W        W 6962  37.546  43.360   2.762
43195W        W 6963   7.789   3.811  11.051
43196W        W 6964  16.625  14.748  11.591
43197W        W 6965  30.624   2.811  13.875
43198W        W 6966  13.240  36.901   3.733
43199W        W 6967   5.417  44.888  10.525
43200W        W 6968   0.388   1.273   4.745
43201W        W 6969   7.774  37.080   1.231
43202W        W 6970  37.409  30.637   0.426
43203W        W 6971   1.833  26.054  14.501
43204W        W 6972  43.513  33.599  11.895
43205W        W 6973  35.580   7.826   5.786
43206W        W 6974  37.518  26.628  13.977
43207W        W 6975  28.566   9.803   2.692
43208W        W 6976  15.089  29.573   0.455
43209W        W 6977  29.572  41.464  12.441
43210W        W 6978  36.357  38.477  14.855
43211W        W 6979  13.232  33.440   2.415
43212W        W 6980  19.162   9.878  10.533
43213W        W 6981  10.765  44.886  11.573
43214W        W 6982  33.919   8.852  12.945
43215W        W 6983  25.630  29.136  10.081
43216W        W 6984  13.269  21.208  14.831
43217W        W 6985  26.099  20.743  13.489
43218W        W 6986  24.643  30.507  11.496
43219W        W 6987  43.806  40.949  10.486
43220W        W 6988   4.933   2.727   4.304
43221W        W 6989  38.980  21.743   2.396
43222W        W 6990  18.145   5.732  11.392
43223W        W 6991  22.204  43.367   2.781
43224W        W 6992  32.900   3.293  13.527
43225W        W 6993  42.453  25.558  12.547
43226W        W 6994  43.021   9.774   4.333
43227W        W 6995  27.979  31.987   9.926
43228W        W 6996   9.886  33.889   3.790
43229W        W 6997  34.036  25.575  10.477
43230W        W 6998  25.571  26.676  12.551
43231W        W 6999  28.574  22.224   0.476
43232W        W 7000   4.810  10.219   3.158
43233W        W 7001  18.638  28.161   0.341
43234W        W 7002  13.836  33.955   1.424
43235W        W 7003  27.008  15.258  13.929
43236W        W 7004  33.966  12.228   1.803
43237W        W 7005  35.024  19.644  11.958
43238W        W 7006  23.690  36.351  12.396
43239W        W 7007  16.142  40.414   4.258
43240W        W 7008  34.498   1.798  10.890
43241W        W 7009   8.160   7.727   0.434
43242W        W 7010  35.974  30.064  10.485
43243W        W 7011  44.400  17.290   2.825
43244W        W 7012  33.551  39.327  11.012
43245W        W 7013   7.812  21.574  10.483
43246W        W 7014  11.324   5.248   2.880
43247W        W 7015  27.649   5.858   4.624
43248W        W 7016  14.267  34.923   5.206
43249W        W 7017  21.603   6.875  13.840
43250W        W 7018  10.775   9.226   4.253
43251W        W 7019  13.634  34.521   3.145
43252W        W 7020  11.752   9.201  12.050
43253W        W 7021  39.527  19.752   3.316
43254W        W 7022  31.576   9.273  14.332
43255W        W 7023  13.241  16.662   4.308
43256W        W 7024   8.714  18.620   3.330
43257W        W 7025  10.150  38.560   4.635
43258W        W 7026  38.355  29.096   3.197
43259W        W 7027  19.647  17.168   4.135
43260W        W 7028  18.071  36.435   3.290
43261W        W 7029   2.913  26.634   1.403
43262W        W 7030  25.009  38.481   3.661
43263W        W 7031  12.131   7.348   0.304
43264W        W 7032  33.999   2.272  11.047
43265W        W 7033  19.671   7.371   2.797
43266W        W 7034  35.957  38.467   1.927
43267W        W 7035  14.177   5.319   1.857
43268W        W 7036  37.079   6.846  12.947
43269W        W 7037  42.811   6.191   4.127
43270W        W 7038  31.498  32.117   5.199
43271W        W 7039  28.079  16.758   3.828
43272W        W 7040  18.190   6.343   0.785
43273W        W 7041   9.673  43.324   4.202
43274W        W 7042   0.934  18.662   2.354
43275W        W 7043   3.851   2.919   2.306
43276W        W 7044   1.337  26.498  11.537
43277W        W 7045  17.271  39.934  10.913
43278W        W 7046  40.307  19.137   3.726
43279W        W 7047   1.405  30.995   2.291
43280W        W 7048   8.773  40.501  14.816
43281W        W 7049  30.563   5.363  14.425
43282W        W 7050  32.939  26.124  14.457
43283W        W 7051  11.676  15.725   0.254
43284W        W 7052  42.960  15.691   3.149
43285W        W 7053   7.908  33.388   5.158
43286W        W 7054  32.614  33.943   3.333
43287W        W 7055   8.714  30.569  10.984
43288W        W 7056  43.496  40.915  14.390
43289W        W 7057   2.241  36.562  13.962
43290W        W 7058  11.822  41.502  11.076
43291W        W 7059  24.149   3.293  10.571
43292W        W 7060  26.968  10.158   1.226
43293W        W 7061  42.427   5.294  10.476
43294W        W 7062  28.162  30.447   9.966
43295W        W 7063  15.182   6.272  13.059
43296W        W 7064  44.965  24.620   4.172
43297W        W 7065  40.535  37.448   1.930
43298W        W 7066  44.287  35.950  13.548
43299W        W 7067  41.907  25.670  13.486
43300W        W 7068  11.301  14.820  10.530
43301W        W 7069  40.392  32.587   3.745
43302W        W 7070   4.268  27.954  13.502
43303W        W 7071  37.500  42.445   4.794
43304W        W 7072   6.212   2.740  13.391
43305W        W 7073  41.408  14.340  11.015
43306W        W 7074  31.647  34.591   1.298
43307W        W 7075  36.908  42.412   3.722
43308W        W 7076  44.754  38.967  10.904
43309W        W 7077  14.740  18.607   3.210
43310W        W 7078  22.144  22.244   4.623
43311W        W 7079  29.142   4.808   1.323
43312W        W 7080  14.162  16.185  11.441
43313W        W 7081  41.000   9.154   3.782
43314W        W 7082   8.786  44.332  10.967
43315W        W 7083  17.616  11.781  13.894
43316W        W 7084  13.272   3.224   1.220
43317W        W 7085  16.177  28.464   3.774
43318W        W 7086   0.974   6.397  10.611
43319W        W 7087  36.446  42.291   0.377
43320W        W 7088  29.955  13.327  13.841
43321W        W 7089  31.643  34.041   2.316
43322W        W 7090  24.679  36.932  13.354
43323W        W 7091   1.284   4.811  14.948
43324W        W 7092  17.135  27.068  13.487
43325W        W 7093   0.364  38.983   4.117
43326W        W 7094  27.581  11.807  12.036
43327W        W 7095  38.825   6.714   3.743
43328W        W 7096  42.929  39.060   3.182
43329W        W 7097  43.390  35.534  11.105
43330W        W 7098  23.024  16.294  12.833
43331W        W 7099  29.455  33.077   3.177
43332W        W 7100   2.228  20.581  11.538
43333W        W 7101  21.513  20.753   0.347
43334W        W 7102  23.561  27.461   3.646
43335W        W 7103   6.684   9.278   0.471
43336W        W 7104  13.341   8.253   3.762
43337W        W 7105  37.026  21.557   0.881
43338W        W 7106  25.616  21.197   3.204
43339W        W 7107  34.563   5.337   1.796
43340W        W 7108  39.344  23.210   0.806
43341W        W 7109  31.617  31.596  13.404
43342W        W 7110  19.119  30.104   4.659
43343W        W 7111  22.611  40.880  12.433
43344W        W 7112  14.198  34.394  11.549
43345W        W 7113  31.150  27.524   3.322
43346W        W 7114  30.475  42.780  11.992
43347W        W 7115  18.295  34.970  13.401
43348W        W 7116  37.889  17.247   2.852
43349W        W 7117  14.237  17.651  10.044
43350W        W 7118  33.498  42.291  10.423
43351W        W 7119  26.054  18.247   2.750
43352W        W 7120  10.661   2.831   4.694
43353W        W 7121  35.559  44.841   0.480
43354W        W 7122  17.067  24.179   0.371
43355W        W 7123  31.535   4.333   3.348
43356W        W 7124  32.035  23.577  14.939
43357W        W 7125  26.054  43.330  14.443
43358W        W 7126  20.045  15.606  12.563
43359W        W 7127  39.398  31.471  11.570
43360W        W 7128   6.355  24.574  14.474
43361W        W 7129  16.192  38.509  14.765
43362W        W 7130  12.857  17.792  13.920
43363W        W 7131  35.986  30.914   3.802
43364W        W 7132  12.241  21.582  14.001
43365W        W 7133  32.003   1.943  13.940
43366W        W 7134  17.649  20.111  12.477
43367W        W 7135  33.508  35.911  11.435
43368W        W 7136   2.329  41.978  13.801
43369W        W 7137  35.989  28.970  11.858
43370W        W 7138   7.909  33.486   0.905
43371W        W 7139  25.648  38.886  10.955
43372W        W 7140  12.743  20.604   1.708
43373W        W 7141  22.034  44.388  12.482
43374W        W 7142  38.422   0.465  13.883
43375W        W 7143  25.477  31.479   4.720
43376W        W 7144  23.530  12.726   4.200
43377W        W 7145  44.887  28.445  12.907
43378W        W 7146  44.476   1.479   1.348
43379W        W 7147  17.130  21.548  14.336
43380W        W 7148   7.248  14.180  11.029
43381W        W 7149  31.586  25.546  12.923
43382W        W 7150  18.625  31.433   3.370
43383W        W 7151  11.160   3.856   0.250
43384W        W 7152  15.812  11.324  14.484
43385W        W 7153  44.764   7.223   3.758
43386W        W 7154  44.436  14.735  13.929
43387W        W 7155  28.134  30.120   2.716
43388W        W 7156  42.880  39.019  13.946
43389W        W 7157   9.840  28.647  12.383
43390W        W 7158   6.362  34.381  12.839
43391W        W 7159   5.928  30.514   0.792
43392W        W 7160  41.038  19.086   1.900
43393W        W 7161  41.421  38.932  13.848
43394W        W 7162  31.933  26.477  14.377
43395W        W 7163   1.405  23.091  11.409
43396W        W 7164  12.812  24.051  13.876
43397W        W 7165  44.359  30.535   2.727
43398W        W 7166  32.446   9.817  13.000
43399W        W 7167  12.796  30.637   1.735
43400W        W 7168  25.169   7.217   3.355
43401W        W 7169  34.924  41.963  10.958
43402W        W 7170  28.087  18.199  14.316
43403W        W 7171   6.766  40.983  13.953
43404W        W 7172  37.510  28.979  11.867
43405W        W 7173  32.072  23.126   2.894
43406W        W 7174   0.947  32.404   2.861
43407W        W 7175   3.229  31.509  11.904
43408W        W 7176  18.118  34.597   3.807
43409W        W 7177   1.240  26.544   0.323
43410W        W 7178   3.860  38.559  10.896
43411W        W 7179  13.698  14.747   4.606
43412W        W 7180  35.389   5.425  12.530
43413W        W 7181  24.082  33.596  12.035
43414W        W 7182   5.832  14.290   3.343
43415W        W 7183  40.962   3.853   4.162
43416W        W 7184   9.704   7.852   4.230
43417W        W 7185  25.473  41.452   0.470
43418W        W 7186  38.486   7.327   3.725
43419W        W 7187  17.211   3.222  12.971
43420W        W 7188  44.491   7.230  10.434
43421W        W 7189  36.932  43.858   1.285
43422W        W 7190  13.331  31.016   1.299
43423W        W 7191   6.757  22.190   3.718
43424W        W 7192   1.808  22.150   1.401
43425W        W 7193   8.737  36.593   0.929
43426W        W 7194   2.359  22.190   3.192
43427W        W 7195  30.456  19.643  11.397
43428W        W 7196  33.986  23.581  10.573
43429W        W 7197  40.374  33.402  14.941
43430W        W 7198  10.204   3.395  14.011
43431W        W 7199  22.006  22.116  11.040
43432W        W 7200  38.030  11.700  13.478
43433W        W 7201   6.379  16.664   2.790
43434W        W 7202  41.896   2.900  12.001
43435W        W 7203   4.291  36.028   4.638
43436W        W 7204  14.745  37.966  14.851
43437W        W 7205  11.340  12.225   2.784
43438W        W 7206  14.732  25.634  14.887
43439W        W 7207   5.201  11.147   2.773
43440W        W 7208  20.766  19.088  11.447
43441W        W 7209  22.513   2.934  12.505
43442W        W 7210  38.423  21.531  14.984
43443W        W 7211  38.855  14.228   1.738
43444W        W 7212  11.289   5.758   4.204
43445W        W 7213  33.028  41.449   3.272
43446W        W 7214  21.075   6.265   5.179
43447W        W 7215  25.579  26.564   5.126
43448W        W 7216   9.772  25.999  11.043
43449W        W 7217   9.172   6.197   4.598
43450W        W 7218  16.621  26.090   4.131
43451W        W 7219  26.104   0.474  12.459
43452W        W 7220   3.935  28.090  11.458
43453W        W 7221  32.432   6.788  13.457
43454W        W 7222  11.309  10.673   1.694
43455W        W 7223   6.828  26.626   3.228
43456W        W 7224  15.141  44.359  11.917
43457W        W 7225  30.013  40.875   2.716
43458W        W 7226  39.425   0.922  10.559
43459W        W 7227   9.236  24.017  10.459
43460W        W 7228   8.692  39.505  10.587
43461W        W 7229   2.765   6.376  14.876
43462W        W 7230  39.851  14.730   1.294
43463W        W 7231  16.571  14.598   0.289
43464W        W 7232  29.991   7.895   4.732
43465W        W 7233  31.150  43.818   1.251
43466W        W 7234  10.341  15.236  14.384
43467W        W 7235  31.016  15.153   1.866
43468W        W 7236   0.257  37.831  11.601
43469W        W 7237   7.726   8.313  10.635
43470W        W 7238  30.432   5.912   2.780
43471W        W 7239  25.517  25.184  12.360
43472W        W 7240  35.488  37.069   0.924
43473W        W 7241  35.924  44.401   0.817
43474W        W 7242  27.103   1.836  11.861
43475W        W 7243  44.786  35.972  12.349
43476W        W 7244  15.728  20.216  10.978
43477W        W 7245  25.469  44.352  13.898
43478W        W 7246  11.313  21.211  14.333
43479W        W 7247   5.720  18.747   2.853
43480W        W 7248  34.883  43.799   3.370
43481W        W 7249  26.977  15.105  14.379
43482W        W 7250  25.484   7.736  14.402
43483W        W 7251  12.205  19.053  12.002
43484W        W 7252   9.837  13.641  11.072
43485W        W 7253  42.905  44.853  14.914
43486W        W 7254  13.738  21.078   1.403
43487W        W 7255   9.231  14.692   4.683
43488W        W 7256  20.160  35.581   1.210
43489W        W 7257   0.377  19.550  10.642
43490W        W 7258  12.359  13.207  11.443
43491W        W 7259  29.582  29.503   1.934
43492W        W 7260  29.573  32.535   0.320
43493W        W 7261   0.912  22.672   1.775
43494W        W 7262  14.280  30.548   4.809
43495W        W 7263  44.296  36.017   9.942
43496W        W 7264   0.763   6.340   3.176
43497W        W 7265  31.633   3.407  12.339
43498W        W 7266  15.129  23.732   9.655
43499W        W 7267  20.235   0.361   3.267
43500W        W 7268  24.102  30.429  14.876
43501W        W 7269   3.251  44.009   2.212
43502W        W 7270  23.036  22.098  10.988
43503W        W 7271  30.961  13.634   2.897
43504W        W 7272  23.184  22.154   4.658
43505W        W 7273   2.373  13.713  13.543
43506W        W 7274   3.862  33.553  14.331
43507W        W 7275   0.487  10.356   3.242
43508W        W 7276   5.296  41.982  11.989
43509W        W 7277  19.188   0.296  12.095
43510W        W 7278  17.618   9.829   3.280
43511W        W 7279  27.098  26.663  13.313
43512W        W 7280  18.128  24.118  11.899
43513W        W 7281  40.311  42.998   2.284
43514W        W 7282   4.733  37.475  10.488
43515W        W 7283  38.486  42.881  13.019
43516W        W 7284  31.951  21.597  12.884
43517W        W 7285  27.564  32.129   3.843
43518W        W 7286   8.836  36.057  11.093
43519W        W 7287  23.071  22.167   1.811
43520W        W 7288  44.276  13.725  11.466
43521W        W 7289   4.212   1.896   2.768
43522W        W 7290  44.282  38.517  14.993
43523W        W 7291  31.946   9.812   1.285
43524W        W 7292  21.135  30.471  14.004
43525W        W 7293   8.376   0.357   3.763
43526W        W 7294  13.284   3.459  14.009
43527W        W 7295   0.303  42.366   3.173
43528W        W 7296   7.317  33.525   1.310
43529W        W 7297  23.107  41.013   2.311
43530W        W 7298  19.104  30.907  10.595
43531W        W 7299   5.891  29.934  14.402
43532W        W 7300   2.813  21.743   3.812
43533W        W 7301   7.670  27.193   1.244
43534W        W 7302  22.575   9.315  14.869
43535W        W 7303  41.829  20.588   1.221
43536W        W 7304   0.973   9.154   1.212
43537W        W 7305  44.410  30.418   4.113
43538W        W 7306   0.788  18.084  10.116
43539W        W 7307  20.643  38.069  12.911
43540W        W 7308  19.093  33.951   2.877
43541W        W 7309  37.053   6.811   2.876
43542W        W 7310  10.824  16.760   1.918
43543W        W 7311  39.941   0.822  11.564
43544W        W 7312   7.287   2.397   1.210
43545W        W 7313   0.743   6.775  10.003
43546W        W 7314  15.301  31.982  13.837
43547W        W 7315  22.607  16.743  12.402
43548W        W 7316  13.229  31.142  10.487
43549W        W 7317   8.348  13.278  14.832
43550W        W 7318  38.484  44.486  14.844
43551W        W 7319  19.144  20.691   4.335
43552W        W 7320  44.777   4.392  11.483
43553W        W 7321   0.467  23.659   0.758
43554W        W 7322   2.854   7.679  13.518
43555W        W 7323  30.425   4.342   3.178
43556W        W 7324  22.543   7.872   1.285
43557W        W 7325  11.170   8.252  13.452
43558W        W 7326  10.311  40.853   4.674
43559W        W 7327   2.303   8.731  13.999
43560W        W 7328  39.912  42.321   3.370
43561W        W 7329   5.915  31.540  13.847
43562W        W 7330  32.956  19.570  13.537
43563W        W 7331  27.511  24.558   4.687
43564W        W 7332  35.960  40.381   3.759
43565W        W 7333  24.130  17.285   3.191
43566W        W 7334  14.733  31.461  14.005
43567W        W 7335  33.017  30.470   1.242
43568W        W 7336  13.806  26.571   1.915
43569W        W 7337  18.233  30.622  10.075
43570W        W 7338  34.119  14.818   4.732
43571W        W 7339   6.729  38.541   0.452
43572W        W 7340  23.513  43.315   1.908
43573W        W 7341   5.293  25.126  10.510
43574W        W 7342  24.485  10.663   3.350
43575W        W 7343  17.299  35.928   1.893
43576W        W 7344  21.534  24.976   4.172
43577W        W 7345  41.375   8.316   3.693
43578W        W 7346  34.073  11.157  13.996
43579W        W 7347   7.332  33.421   4.820
43580W        W 7348  40.907   9.372   4.144
43581W        W 7349  14.594   9.204  13.342
43582W        W 7350  24.212  14.290   1.433
43583W        W 7351  42.860   9.789  11.891
43584W        W 7352  10.349  26.647   2.384
43585W        W 7353  29.621  15.292  13.498
43586W        W 7354  15.251  23.097   0.858
43587W        W 7355   2.382   0.417   2.785
43588W        W 7356  42.415   3.731   3.699
43589W        W 7357  10.706  26.690  12.413
43590W        W 7358  10.152  29.141  11.881
43591W        W 7359  24.502  16.658   0.447
43592W        W 7360  11.805  38.996  14.918
43593W        W 7361  42.945  28.158   3.197
43594W        W 7362   2.781  26.114  13.820
43595W        W 7363  29.957  36.882   2.413
43596W        W 7364  31.011  42.871  14.999
43597W        W 7365   7.181   0.865   3.815
43598W        W 7366  16.176  39.890  10.510
43599W        W 7367  18.212  32.622  13.810
43600W        W 7368  36.472  16.301  10.590
43601W        W 7369  24.153  23.095   0.954
43602W        W 7370  27.633   6.338   3.814
43603W        W 7371  10.301  42.867   2.217
43604W        W 7372   0.257  28.569   3.700
43605W        W 7373  30.431  31.055   3.190
43606W        W 7374  33.447  27.634  12.377
43607W        W 7375  12.159  11.237  14.844
43608W        W 7376  42.964  20.053  11.575
43609W        W 7377  12.819   3.893   1.379
43610W        W 7378  13.152  26.481  13.537
43611W        W 7379  17.281  27.105   1.257
43612W        W 7380   4.428  19.626   1.429
43613W        W 7381  11.809  19.198  12.423
43614W        W 7382  27.945  27.099   4.726
43615W        W 7383  27.509  13.761   0.914
43616W        W 7384  33.031  14.686  14.954
43617W        W 7385  33.429  44.297   4.307
43618W        W 7386   7.744  16.780  13.983
43619W        W 7387  17.263  22.041   4.266
43620W        W 7388  21.515   1.321  11.936
43621W        W 7389   8.208  11.670  11.975
43622W        W 7390  38.446  40.026   3.205
43623W        W 7391  25.543   2.734   3.241
43624W        W 7392   5.882  21.150  14.904
43625W        W 7393  32.962  12.761   2.315
43626W        W 7394  33.089  39.980  13.428
43627W        W 7395   0.769  27.183   2.787
43628W        W 7396  23.044  11.627  14.418
43629W        W 7397  22.660  38.527   3.278
43630W        W 7398  41.429  25.045  14.321
43631W        W 7399  44.326  43.423   4.652
43632W        W 7400  40.346  15.812  11.928
43633W        W 7401  35.089  40.857   1.402
43634W        W 7402  13.335  33.921  14.019
43635W        W 7403  37.070  33.121   2.733
43636W        W 7404  35.071  16.271   0.769
43637W        W 7405  22.038  12.237   1.213
43638W        W 7406  39.894  31.928   0.844
43639W        W 7407  14.663   7.401  14.362
43640W        W 7408  17.626  24.544   2.367
43641W        W 7409   2.231  36.464  12.870
43642W        W 7410  23.995  28.010  11.118
43643W        W 7411   7.271  37.925  12.880
43644W        W 7412  38.369  22.239  14.283
43645W        W 7413  17.122  23.173   4.137
43646W        W 7414  14.322  30.622   2.902
43647W        W 7415  12.294  10.699   4.278
43648W        W 7416   2.238  28.009   2.843
43649W        W 7417   4.394   5.769  10.521
43650W        W 7418   6.899  31.011  14.864
43651W        W 7419   4.255  41.521   1.365
43652W        W 7420  42.948   1.281  11.002
43653W        W 7421  18.208  43.926  14.458
43654W        W 7422  40.962  36.946   1.710
43655W        W 7423  20.624  29.666  14.000
43656W        W 7424  22.730  22.707  11.963
43657W        W 7425   9.185   2.261   3.732
43658W        W 7426  11.689  43.925   9.978
43659W        W 7427  10.240  19.741   3.648
43660W        W 7428   9.247   0.248  14.023
43661W        W 7429  30.483  17.168  13.386
43662W        W 7430  36.505  22.180  11.980
43663W        W 7431  11.148  40.821  11.020
43664W        W 7432  12.801  21.754   1.299
43665W        W 7433   2.927  28.075   1.269
43666W        W 7434  29.954  13.248  11.030
43667W        W 7435  22.079  25.094   5.232
43668W        W 7436  31.967   5.200  13.853
43669W        W 7437  21.235   9.165  11.473
43670W        W 7438  16.317   9.750   1.896
43671W        W 7439  23.087   5.202  10.415
43672W        W 7440   1.783  35.556  14.771
43673W        W 7441  28.671  11.353  10.101
43674W        W 7442  39.325   5.263  13.521
43675W        W 7443  31.020  33.615   2.299
43676W        W 7444  12.267  44.759  13.971
43677W        W 7445  32.100  10.640   1.794
43678W        W 7446  10.833  38.894   2.842
43679W        W 7447  41.990  37.067   3.262
43680W        W 7448   2.720  39.936   1.370
43681W        W 7449   1.899  31.445   3.342
43682W        W 7450  39.062  37.464   1.910
43683W        W 7451  28.938  31.944  12.075
43684W        W 7452  36.370  30.992   0.907
43685W        W 7453   2.761  41.302  11.374
43686W        W 7454  40.330  28.026   5.210
43687W        W 7455  26.099  42.953   2.746
43688W        W 7456  26.091  19.753   3.682
43689W        W 7457   7.221  33.083   1.734
43690W        W 7458  28.015  19.772   1.324
43691W        W 7459  34.052  13.604  11.455
43692W        W 7460  14.636  41.991   1.715
43693W        W 7461  27.075   5.276   2.353
43694W        W 7462  42.873  28.533   2.675
43695W        W 7463  23.138  32.117   3.630
43696W        W 7464  44.381  11.229   1.297
43697W        W 7465  33.882  28.444  14.459
43698W        W 7466  17.632  30.073   2.716
43699W        W 7467  37.357  14.788   3.653
43700W        W 7468  36.455  10.374   5.199
43701W        W 7469  33.069  37.973   0.967
43702W        W 7470  17.237  36.522   3.271
43703W        W 7471  10.776   5.748   3.778
43704W        W 7472  32.011  39.004  11.428
43705W        W 7473   4.404  31.009  14.029
43706W        W 7474  18.637  10.174   4.780
43707W        W 7475  41.430  41.909  14.767
43708W        W 7476  30.057  29.584   4.236
43709W        W 7477  23.511  28.579   1.878
43710W        W 7478  30.628   2.265   4.143
43711W        W 7479  21.050  32.973  12.826
43712W        W 7480  42.339   7.371  10.916
43713W        W 7481  32.044  27.986  10.444
43714W        W 7482  41.517  11.639  12.013
43715W        W 7483  29.158  40.957   4.196
43716W        W 7484  20.056  23.988   2.875
43717W        W 7485   9.206  37.529  12.834
43718W        W 7486  43.429   5.724  10.413
43719W        W 7487  34.871  44.498  13.485
43720W        W 7488   9.224  11.201   1.316
43721W        W 7489  43.459  19.596  13.063
43722W        W 7490  29.638  38.836  10.619
43723W        W 7491  13.110  37.419   2.843
43724W        W 7492   3.259  39.410  11.550
43725W        W 7493  20.095  10.351  13.327
43726W        W 7494  30.142   5.416   1.851
43727W        W 7495  29.432  23.723   0.836
43728W        W 7496  11.140  31.614   2.673
43729W        W 7497  31.015  20.535   0.405
43730W        W 7498  43.011  10.351  10.947
43731W        W 7499  36.970  12.823  11.419
43732W        W 7500  12.309  18.241  13.943
43733W        W 7501  32.539  15.287  14.407
43734W        W 7502  29.476  42.917  12.952
43735W        W 7503   2.460  33.938  13.870
43736W        W 7504  35.954  18.670  12.060
43737W        W 7505  14.720  10.642   4.259
43738W        W 7506  19.223  40.464  13.538
43739W        W 7507  21.028   8.669  10.159
43740W        W 7508   3.939  13.194  14.412
43741W        W 7509  30.915  38.425   1.219
43742W        W 7510  21.108  28.175  12.424
43743W        W 7511   2.874  40.925  13.042
43744W        W 7512  20.696  25.968  11.421
43745W        W 7513  15.787  44.942   4.798
43746W        W 7514   9.795  16.687   0.281
43747W        W 7515  14.607  44.960  14.493
43748W        W 7516  19.729  20.202   0.460
43749W        W 7517  13.189  42.449  10.633
43750W        W 7518  43.326  11.865  11.579
43751W        W 7519   5.420   0.903  14.810
43752W        W 7520  27.076   0.891   1.310
43753W        W 7521  20.639   6.830  14.491
43754W        W 7522  42.775  14.623   2.183
43755W        W 7523  30.943  44.753  14.281
43756W        W 7524   7.859  14.200   2.873
43757W        W 7525  24.033   3.256  10.076
43758W        W 7526  33.452  39.814   2.866
43759W        W 7527  39.389   0.882   3.774
43760W        W 7528  43.838  29.565  11.443
43761W        W 7529  32.572  43.921   2.847
43762W        W 7530  20.677  12.357  13.896
43763W        W 7531  35.945   8.267  14.932
43764W        W 7532  24.027  20.744  10.628
43765W        W 7533  32.514  20.245   1.297
43766W        W 7534  35.867  15.170  10.898
43767W        W 7535   2.462  29.976  14.417
43768W        W 7536  28.963  31.948   0.896
43769W        W 7537  18.178  34.906   5.736
43770W        W 7538  15.685   9.767  13.827
43771W        W 7539  24.621  31.523   0.873
43772W        W 7540  12.642   5.371   4.739
43773W        W 7541  44.789   1.936   2.312
43774W        W 7542  34.878  19.567  13.523
43775W        W 7543  40.407  14.295  10.916
43776W        W 7544  33.090  34.557   0.363
43777W        W 7545   1.370   1.938  13.344
43778W        W 7546  40.359  17.687   0.842
43779W        W 7547  12.655  23.082  14.420
43780W        W 7548   4.437  31.614  14.438
43781W        W 7549  33.507  38.955   5.312
43782W        W 7550  38.908  23.132   2.366
43783W        W 7551  25.205  32.406   4.773
43784W        W 7552  44.472  38.479  12.978
43785W        W 7553   8.382  39.991   1.847
43786W        W 7554   7.285  28.596  11.541
43787W        W 7555  38.987  18.655   0.922
43788W        W 7556   0.346  40.391  11.532
43789W        W 7557  30.098  29.983  14.785
43790W        W 7558  29.151  15.145  12.949
43791W        W 7559   9.644  41.385   1.910
43792W        W 7560  32.426   1.468   4.787
43793W        W 7561  16.270  37.449   1.844
43794W        W 7562  11.670  25.015   0.392
43795W        W 7563  39.049  40.545   5.206
43796W        W 7564  13.684  25.559  10.046
43797W        W 7565   3.342  30.510  12.944
43798W        W 7566   4.750  37.494   2.803
43799W        W 7567   4.370  12.732  14.012
43800W        W 7568  38.480   2.897   0.847
43801W        W 7569  27.471  14.323  14.338
43802W        W 7570   3.773  43.919  14.348
43803W        W 7571   8.170  21.666  12.362
43804W        W 7572  40.534  24.992  11.409
43805W        W 7573  13.622  37.965   2.271
43806W        W 7574  19.160  41.874  14.938
43807W        W 7575  37.433  38.999  11.085
43808W        W 7576  36.978  16.160  12.038
43809W        W 7577  31.134  32.120   2.680
43810W        W 7578  27.107  13.808  12.983
43811W        W 7579  28.078  15.623   4.641
43812W        W 7580  35.560  10.347  14.763
43813W        W 7581  18.677  26.078   0.884
43814W        W 7582   6.827  14.786   1.239
43815W        W 7583  31.465  18.713   4.257
43816W        W 7584  13.806  32.498   0.446
43817W        W 7585  44.981  22.607   2.816
43818W        W 7586  22.216   0.982  13.991
43819W        W 7587  28.071  22.622   2.377
43820W        W 7588  41.468   4.883   1.863
43821W        W 7589  20.089  35.590  12.348
43822W        W 7590  33.001  43.330   3.208
43823W        W 7591  21.106  24.511  11.466
43824W        W 7592  33.054  14.708  11.970
43825W        W 7593  30.936  43.369  14.327
43826W        W 7594  32.991  34.540  13.056
43827W        W 7595  15.306  23.504   4.773
43828W        W 7596  20.132  18.576  11.927
43829W        W 7597   7.183  10.773   4.350
43830W        W 7598  28.672  33.380   1.410
43831W        W 7599  25.480  37.445   3.265
43832W        W 7600  41.517  32.078   5.083
43833W        W 7601  25.041   0.889  12.883
43834W        W 7602  12.816   6.791   0.962
43835W        W 7603   0.430   4.831  14.969
43836W        W 7604  34.564  37.917   3.332
43837W        W 7605  15.652   3.728  13.454
43838W        W 7606  18.121   0.986   2.804
43839W        W 7607  29.545  23.648   4.147
43840W        W 7608   1.826  14.680   4.610
43841W        W 7609   6.845   3.812   3.765
43842W        W 7610  25.533   9.845  14.846
43843W        W 7611  17.612  22.722   4.723
43844W        W 7612  31.923   9.705  13.993
43845W        W 7613   7.856  25.641   0.256
43846W        W 7614  11.236  38.940   1.818
43847W        W 7615  32.471  12.179  14.822
43848W        W 7616  22.017  11.346  11.085
43849W        W 7617  33.486   8.376  12.581
43850W        W 7618   8.654  32.115  12.474
43851W        W 7619  31.545   6.776  10.404
43852W        W 7620  25.113  23.734  12.997
43853W        W 7621  20.622   2.236  14.294
43854W        W 7622  20.567  33.997   2.333
43855W        W 7623  25.065  43.492  11.937
43856W        W 7624  41.826  10.642   4.161
43857W        W 7625  44.753  17.671  14.458
43858W        W 7626  37.411  39.481   4.326
43859W        W 7627   7.886  17.719  12.874
43860W        W 7628  44.923  38.856   0.397
43861W        W 7629  16.154  40.927   1.386
43862W        W 7630   8.170  14.192  12.951
43863W        W 7631  15.595  19.646   4.144
43864W        W 7632   3.300  16.213  14.458
43865W        W 7633   3.840  29.664  11.583
43866W        W 7634  22.590  31.908  13.503
43867W        W 7635  18.603  14.294  11.926
43868W        W 7636  34.368  32.538  14.854
43869W        W 7637  35.464  41.510   4.765
43870W        W 7638  43.329   4.709   1.396
43871W        W 7639  31.602  18.584  11.542
43872W        W 7640  21.537   6.417   1.269
43873W        W 7641  28.598   1.425  10.989
43874W        W 7642   7.389  12.270   4.700
43875W        W 7643  44.450   7.412   1.827
43876W        W 7644   7.715   3.304  11.119
43877W        W 7645  14.218   5.410  10.575
43878W        W 7646  32.082  23.065   4.713
43879W        W 7647  32.963  31.648  10.994
43880W        W 7648  13.326  25.968   3.215
43881W        W 7649  10.166  20.672   0.730
43882W        W 7650  35.001  24.054   4.682
43883W        W 7651  23.670  39.432   4.176
43884W        W 7652  43.888  26.520  12.078
43885W        W 7653  12.657  44.260  13.962
43886W        W 7654  23.688  21.602  11.004
43887W        W 7655  29.654  35.530  11.583
43888W        W 7656  35.881  35.497  10.533
43889W        W 7657   2.725  44.359  11.110
43890W        W 7658  42.505  28.508  10.627
43891W        W 7659   8.325  25.522  11.937
43892W        W 7660   2.776   8.786   0.242
43893W        W 7661  44.789   5.240  10.990
43894W        W 7662  23.601   1.356   4.675
43895W        W 7663   5.253  11.362  12.902
43896W        W 7664  19.549  28.106   2.837
43897W        W 7665  40.860  20.704  14.921
43898W        W 7666   6.320   3.735   2.288
43899W        W 7667   0.384  22.737  13.532
43900W        W 7668   1.423  13.213   1.253
43901W        W 7669   4.766  31.437   0.830
43902W        W 7670  24.114   3.819  13.009
43903W        W 7671  10.824   0.352  14.455
43904W        W 7672  42.282  43.816   1.375
43905W        W 7673   9.256  21.104   2.847
43906W        W 7674   0.377  37.028  12.553
43907W        W 7675  31.970  22.602   5.191
43908W        W 7676  22.698  37.484  10.038
43909W        W 7677  16.189  43.804   1.740
43910W        W 7678  42.898  26.175   1.237
43911W        W 7679  38.393   1.954   4.119
43912W        W 7680  21.100  41.501  13.876
43913W        W 7681  19.658   3.935   1.244
43914W        W 7682  24.695  32.940   3.312
43915W        W 7683  33.556  41.856   5.282
43916W        W 7684  24.169  28.936   1.727
43917W        W 7685  28.102  21.723   4.327
43918W        W 7686  15.642  38.553   1.738
43919W        W 7687  33.585  38.446  12.937
43920W        W 7688  37.831  32.088   2.687
43921W        W 7689  35.599  31.551  10.413
43922W        W 7690  38.010  23.063  14.955
43923W        W 7691  24.536  18.776  14.943
43924W        W 7692  15.310  39.315  13.518
43925W        W 7693  30.068  42.943   1.770
43926W        W 7694   9.817  24.082   1.832
43927W        W 7695  24.639  25.160  10.615
43928W        W 7696   5.787  25.182   1.224
43929W        W 7697  15.216  40.394   2.366
43930W        W 7698   0.413  23.673   2.670
43931W        W 7699   9.258  42.358   4.779
43932W        W 7700  43.348  28.520  12.839
43933W        W 7701  23.533   0.975   4.291
43934W        W 7702  18.773  42.886   2.840
43935W        W 7703  31.402   0.329   3.638
43936W        W 7704   2.870  38.438   0.756
43937W        W 7705  14.811   2.945   4.149
43938W        W 7706  38.549  36.883  14.770
43939W        W 7707   3.416  30.033   1.334
43940W        W 7708  19.224  17.721   4.678
43941W        W 7709   9.209  12.304   4.179
43942W        W 7710  35.958   6.697   2.729
43943W        W 7711  35.031  19.637   2.377
43944W        W 7712  31.039  37.473   2.236
43945W        W 7713  42.009  16.125   3.228
43946W        W 7714   8.290  26.994  10.514
43947W        W 7715  38.454  11.196  14.497
43948W        W 7716  17.126   2.930   0.411
43949W        W 7717  30.972  40.381  14.444
43950W        W 7718  33.578  16.634   0.915
43951W        W 7719  32.011  17.235  12.865
43952W        W 7720   3.919   2.954  11.612
43953W        W 7721   7.813  37.892   3.346
43954W        W 7722  15.725  10.859   4.699
43955W        W 7723   3.795  18.782  11.070
43956W        W 7724  28.607  40.497   1.914
43957W        W 7725  10.791  10.735   0.324
43958W        W 7726   5.250  18.728   0.253
43959W        W 7727  40.536  27.644  11.108
43960W        W 7728  28.077   3.334  11.453
43961W        W 7729  43.421  43.516  10.979
43962W        W 7730  33.434   5.268  14.454
43963W        W 7731  38.544  11.707  12.832
43964W        W 7732  14.592   6.406  12.903
43965W        W 7733  29.164  34.614   3.751
43966W        W 7734  18.219  20.664   2.379
43967W        W 7735  21.540  42.297   3.753
43968W        W 7736  12.679  38.378  14.885
43969W        W 7737  40.932  44.450  11.427
43970W        W 7738  29.433  16.761   3.365
43971W        W 7739  12.252  30.120   3.147
43972W        W 7740  33.951   1.808   1.770
43973W        W 7741  34.063  32.601  10.928
43974W        W 7742  10.275   6.415  14.368
43975W        W 7743  34.046  38.024   3.737
43976W        W 7744  37.997  29.121   3.653
43977W        W 7745   7.732  15.698  14.909
43978W        W 7746  36.958   0.823  14.504
43979W        W 7747  36.485   2.917  12.507
43980W        W 7748  16.613  27.527   0.960
43981W        W 7749   3.836  32.987  13.340
43982W        W 7750   0.854  23.491   2.828
43983W        W 7751  41.910  17.258   3.385
43984W        W 7752   0.364  35.403   0.855
43985W        W 7753  25.995  33.431  14.839
43986W        W 7754   4.427   1.853  13.482
43987W        W 7755   1.799  44.892   0.750
43988W        W 7756  11.256   5.315   1.314
43989W        W 7757   1.315   5.890  14.442
43990W        W 7758  25.054   2.944  10.433
43991W        W 7759  22.605  28.038   5.233
43992W        W 7760  26.495   4.724   2.273
43993W        W 7761  18.203  13.775   1.323
43994W        W 7762  22.121  21.697   3.284
43995W        W 7763  20.666  29.945  10.505
43996W        W 7764  10.261  44.404  14.436
43997W        W 7765   7.704   1.895   2.792
43998W        W 7766   1.444  35.088   0.349
43999W        W 7767  15.730   6.324  10.440
44000W        W 7768  41.824  37.481   4.291
44001W        W 7769   4.849  26.116  12.973
44002W        W 7770   1.763   6.793   4.338
44003W        W 7771  34.955  10.262   5.157
44004W        W 7772   8.368  18.557  12.000
44005W        W 7773  25.985  37.970  13.928
44006W        W 7774  39.047  44.407  14.421
44007W        W 7775  18.163  30.049   4.219
44008W        W 7776  18.234  22.726  10.455
44009W        W 7777  31.561  39.937   1.324
44010W        W 7778  37.430  19.150   3.271
44011W        W 7779  44.984   8.899  13.513
44012W        W 7780  35.450  27.544   3.305
44013W        W 7781  28.980  16.083  11.575
44014W        W 7782  31.071   4.742   3.228
44015W        W 7783  25.968   6.872   2.336
44016W        W 7784  32.414  30.531   3.247
44017W        W 7785  29.594  42.479  14.399
44018W        W 7786  15.701   8.806   2.698
44019W        W 7787  31.094   3.885  11.550
44020W        W 7788  43.274  31.899  11.508
44021W        W 7789  37.567  10.179  11.434
44022W        W 7790  43.923  41.941   2.685
44023W        W 7791   8.308  25.657  10.576
44024W        W 7792  23.992  37.565  13.877
44025W        W 7793  21.044  41.949   3.771
44026W        W 7794  30.059   4.939  13.492
44027W        W 7795   1.782   5.843  12.849
44028W        W 7796  39.333   2.859  12.857
44029W        W 7797  14.709  26.147  13.491
44030W        W 7798  41.926  42.427  14.818
44031W        W 7799   6.788  44.280   1.730
44032W        W 7800  37.003  15.803   0.333
44033W        W 7801  42.851  16.270  14.762
44034W        W 7802   1.310   8.326   3.631
44035W        W 7803  26.614  15.204  13.438
44036W        W 7804   8.327  10.280  12.911
44037W        W 7805   9.254  19.273   1.728
44038W        W 7806  16.719  22.652  10.938
44039W        W 7807   3.801  15.088   4.805
44040W        W 7808  43.278   6.383  13.832
44041W        W 7809  16.655  38.934   1.266
44042W        W 7810  14.275  42.914   4.797
44043W        W 7811   1.887  14.626   2.789
44044W        W 7812  32.020  20.243  12.419
44045W        W 7813  24.024  34.456  13.349
44046W        W 7814  37.512  41.438   1.229
44047W        W 7815  36.850   3.929   4.749
44048W        W 7816   6.913  13.654   1.882
44049W        W 7817   0.413  41.840   2.411
44050W        W 7818   3.836  43.938  13.477
44051W        W 7819  40.037  21.130  13.046
44052W        W 7820  18.111  23.676  13.885
44053W        W 7821   5.932  11.340  10.888
44054W        W 7822  44.773  14.157   1.300
44055W        W 7823   0.359  35.947  14.453
44056W        W 7824  40.358   3.440  14.404
44057W        W 7825  10.233  15.641  10.142
44058W        W 7826   2.871  30.939   4.781
44059W        W 7827  27.609  10.229  13.836
44060W        W 7828  15.588  40.492  10.503
44061W        W 7829  11.303  39.962  14.899
44062W        W 7830  19.138  11.648  10.962
44063W        W 7831  28.119   4.830  11.438
44064W        W 7832  14.133  32.549  14.867
44065W        W 7833  13.668  29.945   3.202
44066W        W 7834  43.472  14.238   2.225
44067W        W 7835  39.532  35.446  10.422
44068W        W 7836   0.393  20.762  14.899
44069W        W 7837   6.337  35.400   0.795
44070W        W 7838  14.604  43.895  10.486
44071W        W 7839  39.934  36.520  12.561
44072W        W 7840  12.158  41.473  10.539
44073W        W 7841  21.060  32.535   1.214
44074W        W 7842   2.933  29.976  13.845
44075W        W 7843   9.197  14.244  12.953
44076W        W 7844  12.628  19.129  10.518
44077W        W 7845   9.860  27.580   1.331
44078W        W 7846  43.389  31.457   2.256
44079W        W 7847  13.670  28.950  13.309
44080W        W 7848  40.926  29.977  12.052
44081W        W 7849   7.794   4.406   3.158
44082W        W 7850  13.621   5.419  14.289
44083W        W 7851  43.929  22.743  13.371
44084W        W 7852  36.863   8.178  12.452
44085W        W 7853  42.880  35.962   4.766
44086W        W 7854  14.695   8.857  13.849
44087W        W 7855   1.855  21.136  12.078
44088W        W 7856  13.264  42.287   4.730
44089W        W 7857  30.452  41.326   0.873
44090W        W 7858  12.354  39.399  11.521
44091W        W 7859  32.937  13.836   1.429
44092W        W 7860   4.394  34.521   0.288
44093W        W 7861  22.219  29.621  11.074
44094W        W 7862  12.756  38.430   2.284
44095W        W 7863  27.449  35.967   0.346
44096W        W 7864   4.431  17.252   2.859
44097W        W 7865  23.154  14.688  12.823
44098W        W 7866  29.480  39.918   2.826
44099W        W 7867  18.168   1.339   1.333
44100W        W 7868  12.647  16.735  11.439
44101W        W 7869  25.962  27.047  13.966
44102W        W 7870   8.858  18.105  14.303
44103W        W 7871   2.870  20.146  12.076
44104W        W 7872  29.638  23.566  14.839
44105W        W 7873  41.943  25.078  13.012
44106W        W 7874  27.643  11.192  10.422
44107W        W 7875  39.910  12.809   0.787
44108W        W 7876  29.017  38.558   3.828
44109W        W 7877  23.539  20.170   1.271
44110W        W 7878  38.439  11.344  13.009
44111W        W 7879  17.127  22.514   4.309
44112W        W 7880   3.273  30.074  14.465
44113W        W 7881  16.810  42.452   1.783
44114W        W 7882   1.791  35.986   2.668
44115W        W 7883  26.040  23.171  11.545
44116W        W 7884  14.760  10.229   4.297
44117W        W 7885  43.407  36.864  11.023
44118W        W 7886   2.387  32.964   1.323
44119W        W 7887  24.510  42.457  10.635
44120W        W 7888   2.756  25.696  13.796
44121W        W 7889  21.159  26.958   0.445
44122W        W 7890  43.769   2.323  12.905
44123W        W 7891  26.003  24.501   1.272
44124W        W 7892  26.064  18.756  11.092
44125W        W 7893  25.074  29.062   1.388
44126W        W 7894  42.870  37.846   1.735
44127W        W 7895  41.473  40.867  11.963
44128W        W 7896  33.600   1.764   4.149
44129W        W 7897  17.126  12.728  12.442
44130W        W 7898  31.101  20.244  13.537
44131W        W 7899  39.452   0.402  13.836
44132W        W 7900  43.378  13.348   3.795
44133W        W 7901  40.538  15.222  11.580
44134W        W 7902  19.039   1.946   3.274
44135W        W 7903  25.061  14.099  11.521
44136W        W 7904  12.730   8.831   4.609
44137W        W 7905  34.915  42.310   1.754
44138W        W 7906  36.462  10.157  14.370
44139W        W 7907  30.132  27.966  11.093
44140W        W 7908   5.261  42.421   2.845
44141W        W 7909  14.800  41.857  12.498
44142W        W 7910  24.573  31.632   3.244
44143W        W 7911  29.968  10.656   4.189
44144W        W 7912  38.409  38.376   3.633
44145W        W 7913   6.417   2.425  13.049
44146W        W 7914  31.605  26.986   0.481
44147W        W 7915  26.191  17.253  10.939
44148W        W 7916   9.162  43.433  11.115
44149W        W 7917  35.855   4.808   4.116
44150W        W 7918  38.451  18.162   0.823
44151W        W 7919  35.860  31.919  11.856
44152W        W 7920  34.029  14.251  13.336
44153W        W 7921  15.252  36.029   2.295
44154W        W 7922  18.638  28.005  13.374
44155W        W 7923   2.385  35.033   3.178
44156W        W 7924  38.388  32.593   2.662
44157W        W 7925  43.424  26.613  11.508
44158W        W 7926   9.172   7.187   9.976
44159W        W 7927  43.819   3.752   1.706
44160W        W 7928  21.252  31.405   1.293
44161W        W 7929  34.874   2.946   0.314
44162W        W 7930  41.441  30.557   0.317
44163W        W 7931   3.415  12.119  14.927
44164W        W 7932  32.037  16.608  12.942
44165W        W 7933   7.774   6.737  14.005
44166W        W 7934  25.578  37.514  11.998
44167W        W 7935  18.273   6.221   3.234
44168W        W 7936  32.064  39.552   3.854
44169W        W 7937  37.899   3.741   0.907
44170W        W 7938  38.367  28.943   0.906
44171W        W 7939  21.675  38.917  13.400
44172W        W 7940  43.919  12.733  13.058
44173W        W 7941  25.503   5.345   3.160
44174W        W 7942  42.346  23.180   1.434
44175W        W 7943  17.157  30.648   5.244
44176W        W 7944  41.894  26.177   4.325
44177W        W 7945  10.827   2.353  14.384
44178W        W 7946  10.363  23.181  13.890
44179W        W 7947  37.887   7.694   3.373
44180W        W 7948  26.155   5.808  12.431
44181W        W 7949  14.662  18.641  10.466
44182W        W 7950  37.511  37.008   4.264
44183W        W 7951   5.307  11.733   2.286
44184W        W 7952  18.067  38.910  14.359
44185W        W 7953  10.640  40.021   1.450
44186W        W 7954  37.866   4.349  13.904
44187W        W 7955  43.334   0.816  12.446
44188W        W 7956  30.911  27.107  10.570
44189W        W 7957  13.156  17.134   3.313
44190W        W 7958  12.295   0.336  10.532
44191W        W 7959  28.675  16.722  14.872
44192W        W 7960  39.000   9.203  10.587
44193W        W 7961  15.167  17.570  13.999
44194W        W 7962  10.872  22.067  12.897
44195W        W 7963  37.897  39.891  14.420
44196W        W 7964   1.459  28.946  12.960
44197W        W 7965  13.840  31.451  13.524
44198W        W 7966  28.635  34.369  10.908
44199W        W 7967  14.750  30.488  14.291
44200W        W 7968  41.447  36.392  13.003
44201W        W 7969   5.388   3.738  11.924
44202W        W 7970  15.108  15.739  14.991
44203W        W 7971  43.928  13.758   3.706
44204W        W 7972  12.625  42.861  11.581
44205W        W 7973  37.846  11.777   0.783
44206W        W 7974  39.898  27.163   2.247
44207W        W 7975  25.168   1.854   4.141
44208W        W 7976   8.247   6.729   2.410
44209W        W 7977   0.887  23.529   3.748
44210W        W 7978  13.256  20.110  10.624
44211W        W 7979   7.376   6.700   2.268
44212W        W 7980  29.459  27.060  12.912
44213W        W 7981  14.591  42.971  13.851
44214W        W 7982  38.554   3.383   4.232
44215W        W 7983  12.206  34.539   0.882
44216W        W 7984  22.656   3.325   4.140
44217W        W 7985  18.253   9.387   2.882
44218W        W 7986   2.304  37.510   0.907
44219W        W 7987   1.349   6.715  11.592
44220W        W 7988   5.328  41.411   1.432
44221W        W 7989   4.324  31.140   1.769
44222W        W 7990  23.035  16.105   1.223
44223W        W 7991  20.241  42.328  11.884
44224W        W 7992  33.947   8.375  14.778
44225W        W 7993  24.152  27.013  14.436
44226W        W 7994  29.087  18.192  14.330
44227W        W 7995  18.161  37.479   1.810
44228W        W 7996  25.191  42.801   0.437
44229W        W 7997  12.716   3.396  12.414
44230W        W 7998  26.023  41.361   3.197
44231W        W 7999  39.355  28.065   3.331
44232W        W 8000  11.737   0.255  13.399
44233W        W 8001   1.920   9.715   3.662
44234W        W 8002  27.510  24.519  14.426
44235W        W 8003   4.413   7.361   3.718
44236W        W 8004  20.028  14.165   3.725
44237W        W 8005   7.400  20.578   1.300
44238W        W 8006  13.235  44.935  13.509
44239W        W 8007  19.216  32.609   3.354
44240W        W 8008  11.210   4.348  12.992
44241W        W 8009  36.544  14.696   3.784
44242W        W 8010  34.119   2.359   4.284
44243W        W 8011   5.393  35.901   2.843
44244W        W 8012  34.384  17.088   9.657
44245W        W 8013   7.679   5.422   1.311
44246W        W 8014   8.867   8.840   3.375
44247W        W 8015  14.237  13.345   3.740
44248W        W 8016  26.054   7.762   2.361
44249W        W 8017  31.971  39.372  11.603
44250W        W 8018   2.825  26.082   3.174
44251W        W 8019  21.609  22.170   2.378
44252W        W 8020  34.573  26.073  13.418
44253W        W 8021  38.033  17.657   0.256
44254W        W 8022  16.215  44.475  13.887
44255W        W 8023  21.528  16.710  10.416
44256W        W 8024  29.135  20.146   2.729
44257W        W 8025  43.945  20.269  13.401
44258W        W 8026   7.826  44.342  13.013
44259W        W 8027  17.657  37.553  11.490
44260W        W 8028  38.548  24.185   1.928
44261W        W 8029  33.923  40.342   2.314
44262W        W 8030  26.572   9.179  11.531
44263W        W 8031  39.407  41.329  14.423
44264W        W 8032  28.456  16.309   4.683
44265W        W 8033  22.586   0.837  11.968
44266W        W 8034   5.200  11.660  12.827
44267W        W 8035   4.385   6.717  14.344
44268W        W 8036  25.646  27.515  14.391
44269W        W 8037  42.323  25.004  14.942
44270W        W 8038   6.888  10.148   2.317
44271W        W 8039  44.764  24.042   0.289
44272W        W 8040  28.595  18.213   0.450
44273W        W 8041  34.968  23.066   2.367
44274W        W 8042  11.186  36.431   3.774
44275W        W 8043  20.035  35.398  14.509
44276W        W 8044  29.075   3.252  13.358
44277W        W 8045   2.916  34.037  14.880
44278W        W 8046  11.833   8.213  13.850
44279W        W 8047   0.789  30.111  12.023
44280W        W 8048  32.891   0.261   1.728
44281W        W 8049   0.479   0.922   3.654
44282W        W 8050  16.756  42.417  11.923
44283W        W 8051  15.752  12.277  10.963
44284W        W 8052  39.512  16.232   2.855
44285W        W 8053  13.780   5.849   3.706
44286W        W 8054  28.011   7.847  11.437
44287W        W 8055  42.470  42.994  12.554
44288W        W 8056  27.144  29.524  12.537
44289W        W 8057  28.537  37.566  13.836
44290W        W 8058  29.431  31.540   2.400
44291W        W 8059  12.117  18.715   3.199
44292W        W 8060   6.300  19.247   2.231
44293W        W 8061  19.129  27.486  12.351
44294W        W 8062  32.625  28.554   4.794
44295W        W 8063  31.522   5.435  12.512
44296W        W 8064  43.827  23.228  14.346
44297W        W 8065  31.476  21.145   2.392
44298W        W 8066  21.204  30.911  11.929
44299W        W 8067  32.499  36.553  10.477
44300W        W 8068  19.673  12.702   0.427
44301W        W 8069  20.672  17.066   4.729
44302W        W 8070  18.098  15.813   4.742
44303W        W 8071   9.770  26.656   2.401
44304W        W 8072  20.571  37.460  13.906
44305W        W 8073  18.069  27.142   3.687
44306W        W 8074  44.392  37.844   1.765
44307W        W 8075   4.699  21.561   0.404
44308W        W 8076   3.232   6.341  11.388
44309W        W 8077  36.983  42.468  10.444
44310W        W 8078  32.927   4.747  13.418
44311W        W 8079  21.019  19.720   4.316
44312W        W 8080  22.215   4.733   0.479
44313W        W 8081   1.296  41.934   1.226
44314W        W 8082  29.066   7.398   2.884
44315W        W 8083  11.813  24.213  11.043
44316W        W 8084  43.322  13.322   1.844
44317W        W 8085  12.157  23.732   4.699
44318W        W 8086  27.681  10.675  14.327
44319W        W 8087  42.897   7.185   1.713
44320W        W 8088   6.332  29.614   0.898
44321W        W 8089   6.428  15.088   3.633
44322W        W 8090  35.907   8.707  12.367
44323W        W 8091  29.652  37.856  12.349
44324W        W 8092   2.291  37.515  11.388
44325W        W 8093  26.081  19.269   2.327
44326W        W 8094  17.626  40.478   2.372
44327W        W 8095   9.248  12.637  12.003
44328W        W 8096  43.831  12.128  13.517
44329W        W 8097  43.382  32.947  12.091
44330W        W 8098  34.588   3.375  12.859
44331W        W 8099  22.247  29.109   0.475
44332W        W 8100  44.816  23.212   1.353
44333W        W 8101   5.771  38.460   4.238
44334W        W 8102  29.593  19.262   4.218
44335W        W 8103  29.654  22.240   1.820
44336W        W 8104   3.894  26.972   0.782
44337W        W 8105  28.010  40.382   1.746
44338W        W 8106  28.662  27.481  11.574
44339W        W 8107  20.203  40.331   2.184
44340W        W 8108  28.000  13.252  12.392
44341W        W 8109  43.399  24.001  11.071
44342W        W 8110   8.791   9.758  14.848
44343W        W 8111  11.707  32.886   0.278
44344W        W 8112   6.278  25.489   2.221
44345W        W 8113  39.392  24.683  14.453
44346W        W 8114   3.857  10.200  12.528
44347W        W 8115  15.631  37.847   3.806
44348W        W 8116   2.402  41.020  12.555
44349W        W 8117  20.239   2.948   3.210
44350W        W 8118  26.207  20.609  12.344
44351W        W 8119  12.353  12.813   9.943
44352W        W 8120  42.812  36.452  13.483
44353W        W 8121  19.092   4.312  11.056
44354W        W 8122  39.366  39.423  10.456
44355W        W 8123   2.265   6.889  10.565
44356W        W 8124  41.822  28.040   0.423
44357W        W 8125  37.849  18.619  14.450
44358W        W 8126  14.195  30.069  12.066
44359W        W 8127   4.730   4.410   2.664
44360W        W 8128  30.961  25.553  13.409
44361W        W 8129  12.733  15.197  12.959
44362W        W 8130  42.393  22.073   1.290
44363W        W 8131   0.916   5.262   1.238
44364W        W 8132   0.847  30.009   2.821
44365W        W 8133  35.932  17.699   1.708
44366W        W 8134   4.423   2.864   4.655
44367W        W 8135  26.105   8.701   1.319
44368W        W 8136   5.697  15.779  14.504
44369W        W 8137  31.897  39.464  12.471
44370W        W 8138  43.297  29.060   0.833
44371W        W 8139  37.919   1.464   3.784
44372W        W 8140  16.715  37.961   0.423
44373W        W 8141  35.971  26.110   2.762
44374W        W 8142  43.408  43.425  13.040
44375W        W 8143  43.349  39.513  13.060
44376W        W 8144  20.057  16.632  14.795
44377W        W 8145  15.781  26.981  13.955
44378W        W 8146  17.178   4.405   2.738
44379W        W 8147  42.423  28.955   1.906
44380W        W 8148  16.302   0.981  11.989
44381W        W 8149  31.137  31.957   4.247
44382W        W 8150  43.483  14.099  14.864
44383W        W 8151   3.358   1.478   0.945
44384W        W 8152  22.200  25.487  12.840
44385W        W 8153  42.979   1.805  11.996
44386W        W 8154  28.526  42.821   1.928
44387W        W 8155  32.582  40.827   4.744
44388W        W 8156   8.677  12.836  14.952
44389W        W 8157  29.615  16.768   2.714
44390W        W 8158   7.233  40.330   3.714
44391W        W 8159   5.896  26.500  11.865
44392W        W 8160  19.706  37.907  13.971
44393W        W 8161  13.220  37.067  14.777
44394W        W 8162  28.951   0.906  13.317
44395W        W 8163  22.546  37.021  12.372
44396W        W 8164   7.836  41.912  13.836
44397W        W 8165  18.721  15.286  10.540
44398W        W 8166  40.524  36.985  12.534
44399W        W 8167  40.360  19.283   4.138
44400W        W 8168  41.476  15.218   1.933
44401W        W 8169  32.560  22.558  10.045
44402W        W 8170  30.472  15.308  10.427
44403W        W 8171   8.318  24.616   1.800
44404W        W 8172  13.184  30.580   2.389
44405W        W 8173  23.053  39.833   2.288
44406W        W 8174  26.151  34.414  11.857
44407W        W 8175  31.112  13.797   0.363
44408W        W 8176  23.152  39.356   2.291
44409W        W 8177  26.167  39.047   2.202
44410W        W 8178  11.795  23.144  13.372
44411W        W 8179  26.635  28.605   4.352
44412W        W 8180   9.705  28.050  12.435
44413W        W 8181  23.125   4.345   0.269
44414W        W 8182  43.406  24.015  12.863
44415W        W 8183  32.094  13.238   4.337
44416W        W 8184  20.547  13.160   3.372
44417W        W 8185  22.137  12.116  10.493
44418W        W 8186  14.610  40.820   2.842
44419W        W 8187  37.343  35.030   4.311
44420W        W 8188  11.254   7.668   4.337
44421W        W 8189  42.022  27.686  11.914
44422W        W 8190  14.150  23.229   4.313
44423W        W 8191  23.121  27.686  10.611
44424W        W 8192  44.823  14.597   2.740
44425W        W 8193  26.600   6.392   4.615
44426W        W 8194  26.583  19.629  14.945
44427W        W 8195  36.977   4.277   3.268
44428W        W 8196  32.538   6.882   4.829
44429W        W 8197  41.039  43.453  14.804
44430W        W 8198  16.762  41.895  14.981
44431W        W 8199  43.509  42.904  12.422
44432W        W 8200  21.727  10.290  10.561
44433W        W 8201  43.775  18.649  10.628
44434W        W 8202  32.904   8.180   4.765
44435W        W 8203  24.050  25.197  11.532
44436W        W 8204  32.616   7.769   0.288
44437W        W 8205  29.072  34.080  11.922
44438W        W 8206  14.638  14.247   1.426
44439W        W 8207  10.761  24.675   2.852
44440W        W 8208  22.244   3.262  14.916
44441W        W 8209   7.173  19.546  10.644
44442W        W 8210  26.020   9.753   0.756
44443W        W 8211   2.881  30.461  14.381
44444W        W 8212   1.749   5.857  11.953
44445W        W 8213  34.864  23.521   3.723
44446W        W 8214  38.365  34.877   2.709
44447W        W 8215  26.124  24.004   4.188
44448W        W 8216  38.381   0.784  14.761
44449W        W 8217  27.646  16.813   2.224
44450W        W 8218  26.059  16.285   3.212
44451W        W 8219   5.315   1.244   3.207
44452W        W 8220  26.044  36.946   1.339
44453W        W 8221  12.270  41.981  10.928
44454W        W 8222  41.944  25.710  11.003
44455W        W 8223  16.574  24.585   3.681
44456W        W 8224  42.803  23.019   0.303
44457W        W 8225  31.030  28.618  12.937
44458W        W 8226  26.507  10.689   0.818
44459W        W 8227  30.133  27.999   2.283
44460W        W 8228  29.557  10.743  14.853
44461W        W 8229  10.719  31.958   1.856
44462W        W 8230  40.464  20.575   3.285
44463W        W 8231  13.620   7.769  10.986
44464W        W 8232  22.116  19.087  14.404
44465W        W 8233   7.758   5.405   0.317
44466W        W 8234   7.854  17.203   2.303
44467W        W 8235  38.822  28.048  10.127
44468W        W 8236  29.120  41.881  13.889
44469W        W 8237   5.735  14.654   1.927
44470W        W 8238  32.072  17.693  13.791
44471W        W 8239  11.132   8.220   4.753
44472W        W 8240  33.561  29.163   3.806
44473W        W 8241  32.032  14.177   0.954
44474W        W 8242  32.537  33.002  11.003
44475W        W 8243  29.654  24.173  14.390
44476W        W 8244  25.607  36.960   0.361
44477W        W 8245  14.725  43.397   2.377
44478W        W 8246  20.076  44.299   3.262
44479W        W 8247  14.796  12.242  14.934
44480W        W 8248  11.256  33.129   4.831
44481W        W 8249  43.483  14.748  12.520
44482W        W 8250  18.056  13.817  11.534
44483W        W 8251   2.874  38.461  14.815
44484W        W 8252  12.130  23.587   2.199
44485W        W 8253  10.855  33.071   1.257
44486W        W 8254  25.034  17.263  14.964
44487W        W 8255  19.732  20.077  13.063
44488W        W 8256  16.106  16.076   2.291
44489W        W 8257  40.346  35.984   0.408
44490W        W 8258   5.884  12.685  14.868
44491W        W 8259  31.918  25.017   1.418
44492W        W 8260   9.752  23.991   2.407
44493W        W 8261  36.095  29.432   0.418
44494W        W 8262   9.780  30.648   1.385
44495W        W 8263  11.721  36.957  14.433
44496W        W 8264  20.186  41.464   1.381
44497W        W 8265  13.648  43.871   2.381
44498W        W 8266   9.699   4.906  11.489
44499W        W 8267  17.213   3.845   3.845
44500W        W 8268   2.244   3.716  14.372
44501W        W 8269  33.391  37.356   3.760
44502W        W 8270   2.381   4.760  13.400
44503W        W 8271  40.804   5.271   0.321
44504W        W 8272  34.911  43.351  13.412
44505W        W 8273  10.816  32.060   4.702
44506W        W 8274  28.042  10.876  10.446
44507W        W 8275  42.480  21.744  10.480
44508W        W 8276  21.033  20.175   1.290
44509W        W 8277   1.454  33.081  12.488
44510W        W 8278  15.258  31.547  14.863
44511W        W 8279  17.696  31.927   3.180
44512W        W 8280   7.772  35.984   4.655
44513W        W 8281  34.109  29.499  12.397
44514W        W 8282  29.525   8.716   5.175
44515W        W 8283  27.128  20.194  13.993
44516W        W 8284  10.358  31.451  12.987
44517W        W 8285  41.441  20.032  13.017
44518W        W 8286  42.462  35.449   1.717
44519W        W 8287   9.334  24.665   1.819
44520W        W 8288   3.393  21.070  12.942
44521W        W 8289   4.790  44.002  14.880
44522W        W 8290  19.671  13.176   0.483
44523W        W 8291  18.691  28.598   1.394
44524W        W 8292  35.469   1.408   4.156
44525W        W 8293  32.458  33.530   1.279
44526W        W 8294   0.873  33.589   1.907
44527W        W 8295  29.668  39.463  13.409
44528W        W 8296   7.696  22.095   4.246
44529W        W 8297   5.298  23.025   4.295
44530W        W 8298   4.341  44.397  12.388
44531W        W 8299  44.783   7.247   4.148
44532W        W 8300  34.478  43.369   4.691
44533W        W 8301  14.278  40.316  10.549
44534W        W 8302   3.884  32.529  14.485
44535W        W 8303   3.358  27.044   1.405
44536W        W 8304  30.045   5.357   2.868
44537W        W 8305  28.485   0.412   0.466
44538W        W 8306  33.541   0.355   1.901
44539W        W 8307  18.079   1.957  13.344
44540W        W 8308  23.642  14.627   2.782
44541W        W 8309   5.379   4.227  14.939
44542W        W 8310  29.953   3.901   0.773
44543W        W 8311   5.730  11.811   4.807
44544W        W 8312  40.313  16.095  12.942
44545W        W 8313  27.516  34.912   2.689
44546W        W 8314   3.374  41.517   4.280
44547W        W 8315  24.985   5.225  12.874
44548W        W 8316  40.946   8.845   4.771
44549W        W 8317   3.247   9.886  14.872
44550W        W 8318  11.373  11.633  14.957
44551W        W 8319  38.441  42.414   3.784
44552W        W 8320  23.543   4.918   1.840
44553W        W 8321  40.455   6.310  13.492
44554W        W 8322   0.806  22.108   1.715
44555W        W 8323  39.843   0.879   3.352
44556W        W 8324  24.230   5.922  14.017
44557W        W 8325   0.288  42.352  12.062
44558W        W 8326  19.588   1.272   2.230
44559W        W 8327  13.769  20.587  12.988
44560W        W 8328  43.291  32.520  14.473
44561W        W 8329   8.239   6.787   0.808
44562W        W 8330  22.625   9.198   2.215
44563W        W 8331   5.748  16.731   3.359
44564W        W 8332  14.147   2.272   0.820
44565W        W 8333  30.638  44.816  12.499
44566W        W 8334  30.921  22.628  13.337
44567W        W 8335  33.094  38.962  11.897
44568W        W 8336  11.859   0.266  12.409
44569W        W 8337  39.455  35.884   3.328
44570W        W 8338  35.003  23.143   4.663
44571W        W 8339  24.013  40.502   0.379
44572W        W 8340  37.869  28.139  10.459
44573W        W 8341   8.743  29.069   0.737
44574W        W 8342   8.173  40.893  14.872
44575W        W 8343  40.847  16.753   1.782
44576W        W 8344   3.252   3.319   0.858
44577W        W 8345  26.568  10.792  14.958
44578W        W 8346   7.272  18.130  13.916
44579W        W 8347  26.046   7.840  12.854
44580W        W 8348  39.410  28.533   3.838
44581W        W 8349  23.727  43.432   0.877
44582W        W 8350  40.022  14.686  14.322
44583W        W 8351  42.017  14.631   0.961
44584W        W 8352  15.305  34.518   0.928
44585W        W 8353  36.977  16.681   0.448
44586W        W 8354  32.453  10.251  14.335
44587W        W 8355   6.794  44.853  12.850
44588W        W 8356   0.865  16.203   0.789
44589W        W 8357  24.595   2.932   3.834
44590W        W 8358  13.205  42.786  14.829
44591W        W 8359  18.785  32.635   0.402
44592W        W 8360  24.104  19.152   3.302
44593W        W 8361  29.610  13.617   4.283
44594W        W 8362  10.199  35.402  12.031
44595W        W 8363  28.151  39.869  14.877
44596W        W 8364  16.728   8.715  12.449
44597W        W 8365  27.595   2.823   3.830
44598W        W 8366  19.701  22.719   1.826
44599W        W 8367   8.288  38.551  12.076
44600W        W 8368  43.932  26.101   0.892
44601W        W 8369  29.558  10.810  12.878
44602W        W 8370  21.750  26.123   3.385
44603W        W 8371   3.838   5.707   3.300
44604W        W 8372  34.007  41.892  14.832
44605W        W 8373  35.921  40.871   4.700
44606W        W 8374  34.418  11.865  11.477
44607W        W 8375  36.484  25.101  11.597
44608W        W 8376   6.850  37.862  11.421
44609W        W 8377  42.910   3.913  12.838
44610W        W 8378  33.605  32.549   3.322
44611W        W 8379  42.934   2.836   1.876
44612W        W 8380  18.604   5.843   3.214
44613W        W 8381  44.261  35.399  14.782
44614W        W 8382  33.984   4.276  12.974
44615W        W 8383   3.721   7.677  11.548
44616W        W 8384   2.906  34.542  10.911
44617W        W 8385  36.080   7.752  13.529
44618W        W 8386  17.741  35.041  14.929
44619W        W 8387  16.783  22.503   9.454
44620W        W 8388   6.912   4.364   0.473
44621W        W 8389  28.955  39.811  11.939
44622W        W 8390  44.781  38.956  14.473
44623W        W 8391  23.114  44.348   2.722
44624W        W 8392  19.127  23.094   1.879
44625W        W 8393  42.350   2.232  13.331
44626W        W 8394   8.767  39.861   0.925
44627W        W 8395  37.370  39.931  12.539
44628W        W 8396  28.103  28.956   3.852
44629W        W 8397  21.178  24.557   1.756
44630W        W 8398  34.378  25.085  10.954
44631W        W 8399  15.283   9.314  12.441
44632W        W 8400   4.779  16.570   4.128
44633W        W 8401  18.590  12.744  13.394
44634W        W 8402  35.463  41.970  11.486
44635W        W 8403  10.168  24.588   3.199
44636W        W 8404  35.395  14.247  11.523
44637W        W 8405   4.724  34.949  12.363
44638W        W 8406   5.233  41.903  10.974
44639W        W 8407  22.640  19.612  13.829
44640W        W 8408  10.326  33.392   2.218
44641W        W 8409  24.071  32.535  10.624
44642W        W 8410  33.994  26.626  12.485
44643W        W 8411  26.651   1.894   0.297
44644W        W 8412  13.775  38.978  11.580
44645W        W 8413  19.136  31.108   2.868
44646W        W 8414   3.413  12.658   4.659
44647W        W 8415  32.614  43.875  12.378
44648W        W 8416  15.184  40.325  13.054
44649W        W 8417  29.517  29.665  11.387
44650W        W 8418  16.745  26.572   2.190
44651W        W 8419  35.518   1.244   2.238
44652W        W 8420  22.198  32.616  14.419
44653W        W 8421   3.731  41.405  14.987
44654W        W 8422   1.941  14.729  14.993
44655W        W 8423  18.744  11.165   0.825
44656W        W 8424  19.225  36.424  12.827
44657W        W 8425  38.541   6.349   4.170
44658W        W 8426  33.493  25.033  12.033
44659W        W 8427  41.350  43.822   2.370
44660W        W 8428  26.077  13.809  10.561
44661W        W 8429   8.364  13.691   0.454
44662W        W 8430  30.927  25.213   1.908
44663W        W 8431   2.449  14.629   0.245
44664W        W 8432  19.621  31.973   5.283
44665W        W 8433  37.500   6.782   2.720
44666W        W 8434  25.498   5.324  12.441
44667W        W 8435  17.276  34.976   3.161
44668W        W 8436  16.093  34.529  14.914
44669W        W 8437  18.122  40.914   2.689
44670W        W 8438   7.409   4.255   3.679
44671W        W 8439  43.945  15.808   0.935
44672W        W 8440   5.387  19.744   1.923
44673W        W 8441   4.836   6.307   2.888
44674W        W 8442  20.106  35.975   4.244
44675W        W 8443  27.035   5.362   1.840
44676W        W 8444  35.943   8.801   2.770
44677W        W 8445  38.543  40.485  13.511
44678W        W 8446  35.474  31.972  14.839
44679W        W 8447  25.692   2.239  11.401
44680W        W 8448   2.882  29.535  14.780
44681W        W 8449  44.770  24.674  13.408
44682W        W 8450   6.840  36.419   3.809
44683W        W 8451  41.035  28.128  14.314
44684W        W 8452  42.323  21.581  14.974
44685W        W 8453  29.154  44.900   2.685
44686W        W 8454  36.519  21.650   2.370
44687W        W 8455   3.954  25.133  10.515
44688W        W 8456  42.381   5.325   3.306
44689W        W 8457  43.013  15.216  11.950
44690W        W 8458   4.217  40.547   2.811
44691W        W 8459  38.538  43.812  11.590
44692W        W 8460  33.956  32.036  13.467
44693W        W 8461  12.792  37.955  10.947
44694W        W 8462  19.211  28.576   3.851
44695W        W 8463  12.689  27.605  13.913
44696W        W 8464   0.826  19.635  13.036
44697W        W 8465  29.437   9.850   0.401
44698W        W 8466  10.237  44.379  14.882
44699W        W 8467  31.905  30.621   1.798
44700W        W 8468  25.205   6.899  11.607
44701W        W 8469   1.790  44.341  10.612
44702W        W 8470  13.843  28.438   1.935
44703W        W 8471   2.919  34.409  10.017
44704W        W 8472  14.227  11.635  12.012
44705W        W 8473  37.558  17.304  12.457
44706W        W 8474  27.652   2.275   0.742
44707W        W 8475  37.075   9.244   2.741
44708W        W 8476  24.206   8.898   1.238
44709W        W 8477  18.210   1.782  10.466
44710W        W 8478  29.966  39.919  12.969
44711W        W 8479  18.575  24.988   0.354
44712W        W 8480  37.923  12.730   2.887
44713W        W 8481  28.147  16.625   1.905
44714W        W 8482  27.580  26.664  10.105
44715W        W 8483  14.223   8.400   1.875
44716W        W 8484  18.689  14.681  12.090
44717W        W 8485   2.921  27.493  12.894
44718W        W 8486  10.308  33.590  11.501
44719W        W 8487  33.585  40.460  11.894
44720W        W 8488   8.821  29.579  14.445
44721W        W 8489  30.997   7.193   0.824
44722W        W 8490  14.267  21.590   2.711
44723W        W 8491  10.782   7.311   1.308
44724W        W 8492  35.402  38.504  10.448
44725W        W 8493   5.810  28.062  14.857
44726W        W 8494   6.784  20.046  13.374
44727W        W 8495  17.678  26.618  10.121
44728W        W 8496  22.135  29.047  14.872
44729W        W 8497  40.333  34.033  14.017
44730W        W 8498   7.755  10.339   3.637
44731W        W 8499  36.528  13.322   3.696
44732W        W 8500   7.261  18.672   1.227
44733W        W 8501  17.260  37.952   4.256
44734W        W 8502  28.043  18.642  12.074
44735W        W 8503  23.512  44.451   2.879
44736W        W 8504  42.859   4.243  14.881
44737W        W 8505  26.464  36.058   0.819
44738W        W 8506  11.744  24.510   0.771
44739W        W 8507   4.750  29.031   0.968
44740W        W 8508   1.975  41.888  12.067
44741W        W 8509   4.815  20.203  12.355
44742W        W 8510   3.336  40.545  11.001
44743W        W 8511  43.487  39.868   1.387
44744W        W 8512  21.252  25.107  12.549
44745W        W 8513   2.831  30.620   2.194
44746W        W 8514  15.812  26.601  11.488
44747W        W 8515  18.574  26.490   4.619
44748W        W 8516  10.851   2.763  10.964
44749W        W 8517  11.279  14.782  13.905
44750W        W 8518  14.280  19.651  12.872
44751W        W 8519  13.661  42.500  11.863
44752W        W 8520  14.616  37.429   1.252
44753W        W 8521   5.705  22.590  10.591
44754W        W 8522  42.468   5.411   1.400
44755W        W 8523  24.130  36.955  13.060
44756W        W 8524  41.987  11.751  12.451
44757W        W 8525   1.255  12.783   2.736
44758W        W 8526  36.530  24.603  14.375
44759W        W 8527  24.211  17.557  13.028
44760W        W 8528  38.344   4.878   3.253
44761W        W 8529  11.865  38.528   4.758
44762W        W 8530  11.693  36.551  13.970
44763W        W 8531  32.980   4.866   2.385
44764W        W 8532  34.901  44.006  12.903
44765W        W 8533  40.518  42.889   4.312
44766W        W 8534  25.211  26.004  13.426
44767W        W 8535  13.610  18.203   2.248
44768W        W 8536  29.459  19.734   0.731
44769W        W 8537  42.804  11.169   2.715
44770W        W 8538  34.419  18.186  14.009
44771W        W 8539  31.522  39.823   0.765
44772W        W 8540  26.606   4.233  10.899
44773W        W 8541  24.491  19.744  12.893
44774W        W 8542  43.966   7.778   2.803
44775W        W 8543   8.718   8.164  11.060
44776W        W 8544  16.589  19.652  14.890
44777W        W 8545  32.613  43.939  11.611
44778W        W 8546  13.679  29.614  14.431
44779W        W 8547  24.650  13.337  12.022
44780W        W 8548  37.049  11.218   0.962
44781W        W 8549  44.268  22.164   1.255
44782W        W 8550  34.864  22.020   4.237
44783W        W 8551   2.761  38.985  10.092
44784W        W 8552  36.909  21.716  11.860
44785W        W 8553  16.769  18.550   5.124
44786W        W 8554  11.248  39.927   1.893
44787W        W 8555  16.707  24.637   2.765
44788W        W 8556  17.697  35.554   4.609
44789W        W 8557  13.300  23.115   0.362
44790W        W 8558  22.159  44.779   2.312
44791W        W 8559   6.403   6.841   1.716
44792W        W 8560  27.614   5.412  14.374
44793W        W 8561  31.938   0.317   3.251
44794W        W 8562  13.299  41.879  13.368
44795W        W 8563  25.201  38.048   4.690
44796W        W 8564  14.808  20.691  14.972
44797W        W 8565  12.263  39.050  10.971
44798W        W 8566  26.472  12.660   4.256
44799W        W 8567  44.009  25.988  14.942
44800W        W 8568  43.851  19.742  10.422
44801W        W 8569  17.113  28.006   2.231
44802W        W 8570   6.799   7.724  12.939
44803W        W 8571  13.823  42.903  10.131
44804W        W 8572   4.412  29.972   3.742
44805W        W 8573  20.204  42.903  10.989
44806W        W 8574  12.633   2.243  11.489
44807W        W 8575  40.482   7.704  11.510
44808W        W 8576  17.556  27.975  14.939
44809W        W 8577   3.853  24.677  14.449
44810W        W 8578  28.039  14.659   0.792
44811W        W 8579  37.073  27.515   2.216
44812W        W 8580  22.746  38.964   3.652
44813W        W 8581   8.710  11.640  14.891
44814W        W 8582  18.590   9.761  11.021
44815W        W 8583  14.756  21.099  13.851
44816W        W 8584  20.551  35.446   5.760
44817W        W 8585  14.808  39.045  14.816
44818W        W 8586   9.200  18.056   1.282
44819W        W 8587  28.100  44.875   2.797
44820W        W 8588  19.041  21.121   0.875
44821W        W 8589   1.397  31.098  12.839
44822W        W 8590  35.529  22.561   4.324
44823W        W 8591   6.294  14.755  13.391
44824W        W 8592  42.469  33.912  11.457
44825W        W 8593  32.526  11.655   0.866
44826W        W 8594  32.545  25.185  11.467
44827W        W 8595  40.815  41.364   0.785
44828W        W 8596  37.043  16.783   2.246
44829W        W 8597   6.219  23.149   9.944
44830W        W 8598  42.904  36.482  12.932
44831W        W 8599  22.527  39.041  10.116
44832W        W 8600   8.229  14.704  14.332
44833W        W 8601  17.596   8.197   4.215
44834W        W 8602  34.447   0.311  14.768
44835W        W 8603  32.484   4.307   2.874
44836W        W 8604  41.520   9.801   3.818
44837W        W 8605  32.479  23.172  14.965
44838W        W 8606   2.384   6.902   0.425
44839W        W 8607  33.624  32.032   3.793
44840W        W 8608   5.370  16.085  11.418
44841W        W 8609  20.563  25.538  12.527
44842W        W 8610  44.902  37.839   1.816
44843W        W 8611  32.031  22.725   2.208
44844W        W 8612   3.769  22.104   0.440
44845W        W 8613  28.593  43.920   3.716
44846W        W 8614   3.308  18.640  13.446
44847W        W 8615  30.149  10.152  12.959
44848W        W 8616   5.301  38.983   3.307
44849W        W 8617  12.831  22.552  11.020
44850W        W 8618  33.407   1.864   4.753
44851W        W 8619  29.986  19.682  10.487
44852W        W 8620   6.381   0.286  14.378
44853W        W 8621   3.305  22.237   1.767
44854W        W 8622  26.161  17.559  12.455
44855W        W 8623  43.365   5.380   3.237
44856W        W 8624  40.419   2.380  14.403
44857W        W 8625  11.677   6.762  10.636
44858W        W 8626  39.513  31.497  12.896
44859W        W 8627  39.049  25.493  12.956
44860W        W 8628  11.676   0.880  13.342
44861W        W 8629  31.979  44.297  13.928
44862W        W 8630  15.649   0.459   1.822
44863W        W 8631  19.659  23.640   2.185
44864W        W 8632  43.315  41.810  10.967
44865W        W 8633   3.710  30.487   5.265
44866W        W 8634  14.617  31.640   1.335
44867W        W 8635  18.619  19.605  12.435
44868W        W 8636  27.618  39.455   2.682
44869W        W 8637  36.432  37.834   1.381
44870W        W 8638  32.438  31.957  14.334
44871W        W 8639  14.135   6.878  11.599
44872W        W 8640  15.196  19.137  13.936
44873W        W 8641  37.915  20.231   3.212
44874W        W 8642  34.614   4.246  13.043
44875W        W 8643  25.069   8.399   0.875
44876W        W 8644   2.380   9.683  11.539
44877W        W 8645  37.487  35.488  12.870
44878W        W 8646  44.381  16.740  14.332
44879W        W 8647  27.111  36.394   1.736
44880W        W 8648  35.906   5.347  13.006
44881W        W 8649  15.789  14.692   5.108
44882W        W 8650  24.149  10.719  14.478
44883W        W 8651  32.083   3.712   0.352
44884W        W 8652  39.840   2.897   2.895
44885W        W 8653  35.904   9.686  13.018
44886W        W 8654  10.364  13.104  12.458
44887W        W 8655  35.084  19.771  14.945
44888W        W 8656  39.467  26.177  11.107
44889W        W 8657  41.436  31.064  14.346
44890W        W 8658  43.950  24.593  13.364
44891W        W 8659  28.546   2.348  10.430
44892W        W 8660  16.746   2.913   3.813
44893W        W 8661  16.780  42.438  11.388
44894W        W 8662  10.150  42.988   4.787
44895W        W 8663  38.904  19.218   2.872
44896W        W 8664   3.456  21.037   3.770
44897W        W 8665  13.299  44.788   3.323
44898W        W 8666  17.570  30.920   0.729
44899W        W 8667  24.086  24.650  12.538
44900W        W 8668   1.436  22.111   3.158
44901W        W 8669   3.781   3.948   3.146
44902W        W 8670  24.225  15.729  13.312
44903W        W 8671  34.110  19.579   3.192
44904W        W 8672  19.555   9.858  14.443
44905W        W 8673  35.444   7.230   0.752
44906W        W 8674  10.347  18.165  13.509
44907W        W 8675   6.832  31.612   4.610
44908W        W 8676  18.124  11.804   1.246
44909W        W 8677  37.061   4.284   4.216
44910W        W 8678  34.562  31.440   0.376
44911W        W 8679  43.396  15.243  14.352
44912W        W 8680  36.471   8.349   2.310
44913W        W 8681   6.808  13.272  14.936
44914W        W 8682  44.460  21.058   3.870
44915W        W 8683  14.112  32.549  11.104
44916W        W 8684  10.286  40.914   3.821
44917W        W 8685   7.846  21.203   3.189
44918W        W 8686  30.551  33.554   4.781
44919W        W 8687  20.220  24.205   4.783
44920W        W 8688   5.244  17.616   4.812
44921W        W 8689   3.796   5.203   4.614
44922W        W 8690  17.180  42.841   2.233
44923W        W 8691  27.987  15.127   4.121
44924W        W 8692  25.992  22.195  14.949
44925W        W 8693  23.045   9.821  13.017
44926W        W 8694  29.646  43.323   0.746
44927W        W 8695  26.002   3.431  13.979
44928W        W 8696  32.027  15.182   4.321
44929W        W 8697  32.411   2.916   4.819
44930W        W 8698  20.219   0.930  12.067
44931W        W 8699  34.880  18.568   0.826
44932W        W 8700  42.953  16.584   4.135
44933W        W 8701  27.943  23.111   4.783
44934W        W 8702  15.286  34.509  14.879
44935W        W 8703  28.174  29.002   1.836
44936W        W 8704  34.933  40.051  13.452
44937W        W 8705  16.200   3.849  12.369
44938W        W 8706  32.471  35.416  14.443
44939W        W 8707  40.394   4.321   0.379
44940W        W 8708  12.139   7.306   4.325
44941W        W 8709  31.415  37.438  10.617
44942W        W 8710  23.516  28.174  13.005
44943W        W 8711  42.314  25.660  13.374
44944W        W 8712  29.619   3.356  14.978
44945W        W 8713  31.145  35.107  14.906
44946W        W 8714  40.046   9.300   0.794
44947W        W 8715  12.149  36.015  14.277
44948W        W 8716  23.719  33.550  11.003
44949W        W 8717   6.718  42.830   2.413
44950W        W 8718  27.018  27.040  11.478
44951W        W 8719  30.033  23.648  11.920
44952W        W 8720  39.958  12.632   3.335
44953W        W 8721  35.987  40.997   0.879
44954W        W 8722  14.156  44.446   3.336
44955W        W 8723  22.177  37.419   2.662
44956W        W 8724   1.443  41.355  11.898
44957W        W 8725  20.103  16.277   0.799
44958W        W 8726   2.344  40.345  11.513
44959W        W 8727  22.719  35.100  14.846
44960W        W 8728  23.106  39.857   4.238
44961W        W 8729  18.608   8.737  11.580
44962W        W 8730  16.648  21.541   0.398
44963W        W 8731  27.096  14.685  11.934
44964W        W 8732  13.753   9.387  13.542
44965W        W 8733  12.648  24.543   1.416
44966W        W 8734  36.443  19.092  11.053
44967W        W 8735  16.116  10.765  13.986
44968W        W 8736  17.116  21.653  13.341
44969W        W 8737   3.348   4.440   0.815
44970W        W 8738  13.730  10.158   1.705
44971W        W 8739  34.957   4.729   2.223
44972W        W 8740  23.686   8.828  14.979
44973W        W 8741  31.010  33.452  11.947
44974W        W 8742  26.058  37.575   0.747
44975W        W 8743   2.442  31.974   5.258
44976W        W 8744  18.281   4.728  11.065
44977W        W 8745   7.360  36.065  10.897
44978W        W 8746  32.925  10.297   1.794
44979W        W 8747  21.033  32.579  13.034
44980W        W 8748  14.129  30.116  12.575
44981W        W 8749  11.643   9.717   9.511
44982W        W 8750   9.273  25.061  13.832
44983W        W 8751  28.059  38.964   3.750
44984W        W 8752  34.006  14.771   1.338
44985W        W 8753  38.958  30.559  11.607
44986W        W 8754   2.766   0.412  10.405
44987W        W 8755  34.576  42.914   1.376
44988W        W 8756  38.921  43.921  12.426
44989W        W 8757  31.514   4.369  13.512
44990W        W 8758  25.497  18.242  13.406
44991W        W 8759  39.911  10.771   1.298
44992W        W 8760  11.697  33.518  10.470
44993W        W 8761  39.525  38.058   4.713
44994W        W 8762  19.658  33.475   0.462
44995W        W 8763   6.213  34.415  13.962
44996W        W 8764  25.638  37.875  14.804
44997W        W 8765  42.897  16.286   1.371
44998W        W 8766   6.275  14.338  11.900
44999W        W 8767  15.085  15.782  14.340
45000W        W 8768   3.262  38.536  12.961
45001W        W 8769   5.734   5.879   3.766
45002W        W 8770  43.019  16.596   3.847
45003W        W 8771   8.838  44.341   4.144
45004W        W 8772   3.247  43.510   2.855
45005W        W 8773  38.524  31.962  14.480
45006W        W 8774  40.506  27.547   2.228
45007W        W 8775  13.830  14.322  11.472
45008W        W 8776  21.156  35.979   4.231
45009W        W 8777  21.104  31.103  13.474
45010W        W 8778  20.233  32.515   3.209
45011W        W 8779  27.091  11.749   1.413
45012W        W 8780   1.915   4.345  14.454
45013W        W 8781  33.603  28.507  14.920
45014W        W 8782  17.638  36.066  11.900
45015W        W 8783  36.931  19.630  11.105
45016W        W 8784   5.688  42.862   1.755
45017W        W 8785   0.847  43.771  13.404
45018W        W 8786  33.016   3.933   1.436
45019W        W 8787  41.896   3.316   3.289
45020W        W 8788  41.817  15.324  11.977
45021W        W 8789  26.503  27.465  12.402
45022W        W 8790  31.954  19.657  10.055
45023W        W 8791  12.743  32.460   2.195
45024W        W 8792  24.069   3.932   4.646
45025W        W 8793  43.957  20.760  10.487
45026W        W 8794  23.732  43.890  14.317
45027W        W 8795  18.660  23.490   3.777
45028W        W 8796  30.157  33.971  12.368
45029W        W 8797  19.644   5.799   1.449
45030W        W 8798  37.451  24.667   1.913
45031W        W 8799  20.649   4.848  12.569
45032W        W 8800  18.209  35.925  14.390
45033W        W 8801  42.483  33.453  13.419
45034W        W 8802  15.152  38.058   0.371
45035W        W 8803   9.643  14.795   1.900
45036W        W 8804   9.810  38.379   0.877
45037W        W 8805  28.947  14.644   1.446
45038W        W 8806  23.144  18.640  12.895
45039W        W 8807  39.341  34.044  13.339
45040W        W 8808  34.053  21.052   5.180
45041W        W 8809  35.428   7.302  14.833
45042W        W 8810  41.324   5.705   2.711
45043W        W 8811   0.931  35.073   2.758
45044W        W 8812  33.486  28.090  13.798
45045W        W 8813  32.101   6.841   2.790
45046W        W 8814  32.933  28.074   2.772
45047W        W 8815  27.637  10.290  11.530
45048W        W 8816  32.485  12.201  10.970
45049W        W 8817  23.086  29.483  12.994
45050W        W 8818  30.617   4.354   0.833
45051W        W 8819  31.153  41.966   4.811
45052W        W 8820  37.019  15.796   4.668
45053W        W 8821  41.397  43.402  10.586
45054W        W 8822  11.634   6.908  11.045
45055W        W 8823  10.707   9.150  13.509
45056W        W 8824  30.656  41.446  11.572
45057W        W 8825  32.420   4.408   0.280
45058W        W 8826  30.617   6.231  11.488
45059W        W 8827  19.638  16.794   1.325
45060W        W 8828  16.263  43.785   4.611
45061W        W 8829  36.480  23.096  13.823
45062W        W 8830  13.288  32.501   3.228
45063W        W 8831  38.926  39.956  13.501
45064W        W 8832  35.492  41.416  14.430
45065W        W 8833  25.547  34.385  14.001
45066W        W 8834  33.903  33.612   4.703
45067W        W 8835   3.325  41.530   1.218
45068W        W 8836  31.638  13.813  10.984
45069W        W 8837   3.291  25.155  11.903
45070W        W 8838   9.380   7.821   0.836
45071W        W 8839  44.425  37.524   1.246
45072W        W 8840  34.507  30.010   0.251
45073W        W 8841  20.175  18.109  10.565
45074W        W 8842   9.352  25.478  10.617
45075W        W 8843  21.558  25.988   0.455
45076W        W 8844  19.658  19.279  14.800
45077W        W 8845  42.892  23.644   2.833
45078W        W 8846  20.106  11.235  10.091
45079W        W 8847  13.131  39.966   2.765
45080W        W 8848  41.871  29.025   2.892
45081W        W 8849  39.923  22.196  12.014
45082W        W 8850  17.646   8.345  13.064
45083W        W 8851  20.694  33.075  14.479
45084W        W 8852   7.311  30.593   0.390
45085W        W 8853  27.566  34.047  12.482
45086W        W 8854  32.098  28.027  14.330
45087W        W 8855  39.063  40.038   5.218
45088W        W 8856   8.842  10.170   2.276
45089W        W 8857   0.394  17.090   4.686
45090W        W 8858  44.846   3.430   0.395
45091W        W 8859   5.214  16.317  14.310
45092W        W 8860  40.377  22.723   2.689
45093W        W 8861  39.061  22.736  14.937
45094W        W 8862  17.282   1.807  11.596
45095W        W 8863   1.892  32.534  10.952
45096W        W 8864  17.602  26.207   3.371
45097W        W 8865  35.983   0.248   4.169
45098W        W 8866  36.048   8.305  14.409
45099W        W 8867  21.182  23.735  10.161
45100W        W 8868   7.257  27.043  14.299
45101W        W 8869  12.684   1.796   4.675
45102W        W 8870  26.646   2.357   3.842
45103W        W 8871  39.450  16.763   3.171
45104W        W 8872  26.576  38.034  14.274
45105W        W 8873  32.899   0.298  10.567
45106W        W 8874   2.288   1.858  11.964
45107W        W 8875  26.649   7.687   1.218
45108W        W 8876  15.280  24.660   1.420
45109W        W 8877  39.554  36.489  13.932
45110W        W 8878  36.035   8.690  11.536
45111W        W 8879  27.575  33.076   4.707
45112W        W 8880  16.179   8.699  14.367
45113W        W 8881   3.286  18.580   4.723
45114W        W 8882  43.275  35.041   3.834
45115W        W 8883  18.109  35.040  11.988
45116W        W 8884  10.759  32.584   2.738
45117W        W 8885   1.405  19.271   1.344
45118W        W 8886  16.089  25.990   4.180
45119W        W 8887   7.189   6.195  10.554
45120W        W 8888  22.646  27.165  11.489
45121W        W 8889  22.569   1.875   4.753
45122W        W 8890  30.031  35.371  13.017
45123W        W 8891  44.811  36.901  10.451
45124W        W 8892  38.011   6.701  14.393
45125W        W 8893  27.010  41.309   2.679
45126W        W 8894  36.957  36.958  13.013
45127W        W 8895   6.854  11.693  10.578
45128W        W 8896  21.690   0.316  11.918
45129W        W 8897  22.618  18.558   1.852
45130W        W 8898  33.617  33.010   2.714
45131W        W 8899  24.559  13.725  14.449
45132W        W 8900   7.357  28.131   2.295
45133W        W 8901   7.383   3.778   2.370
45134W        W 8902  41.817  32.918  14.984
45135W        W 8903  15.306  21.558   1.300
45136W        W 8904   9.185  32.017  13.871
45137W        W 8905  32.089  27.075   1.717
45138W        W 8906   5.276  19.683   3.822
45139W        W 8907  17.718   4.930  13.418
45140W        W 8908  17.161  12.838   5.182
45141W        W 8909   0.761  15.140   0.893
45142W        W 8910   6.818  26.140   0.871
45143W        W 8911  18.110   1.334   2.854
45144W        W 8912  35.499  34.044   2.840
45145W        W 8913   1.928  12.668  10.417
45146W        W 8914  40.890  41.349  12.993
45147W        W 8915  42.350  26.961  10.576
45148W        W 8916  28.658  21.714   1.856
45149W        W 8917  14.747  39.022   1.327
45150W        W 8918  25.167  39.511   3.756
45151W        W 8919  12.308  40.023  11.561
45152W        W 8920  27.984   8.176  12.432
45153W        W 8921  29.160   2.456   4.159
45154W        W 8922  16.672  35.043   0.304
45155W        W 8923   9.158  24.018  14.840
45156W        W 8924  21.742  19.261   4.288
45157W        W 8925  25.991  18.624  10.589
45158W        W 8926  40.802  12.349   2.293
45159W        W 8927  15.118  36.896   2.368
45160W        W 8928  20.729   7.787  11.880
45161W        W 8929   7.807  12.679   3.186
45162W        W 8930  33.014  35.899   1.765
45163W        W 8931  23.716  29.929  11.468
45164W        W 8932  11.256  32.461  12.995
45165W        W 8933  32.450  27.945  14.350
45166W        W 8934   5.402   9.202   4.756
45167W        W 8935  11.187  42.520  11.125
45168W        W 8936   6.810  12.717  14.925
45169W        W 8937  23.491   9.346  11.950
45170W        W 8938   3.722  30.498   4.300
45171W        W 8939  16.747  33.479   1.273
45172W        W 8940  11.810  11.218   4.259
45173W        W 8941  39.510  22.683  10.982
45174W        W 8942  18.136  10.800  13.877
45175W        W 8943  44.799   2.805  11.914
45176W        W 8944  39.431  40.531  14.514
45177W        W 8945  44.930  11.687   3.654
45178W        W 8946   0.393  38.934  13.882
45179W        W 8947  14.815  40.397  12.386
45180W        W 8948  20.700   2.296  10.634
45181W        W 8949   6.897  14.173  10.625
45182W        W 8950   6.759  41.824   1.311
45183W        W 8951  16.317  15.589   5.113
45184W        W 8952  18.637  27.652  12.436
45185W        W 8953   4.410  34.592   1.371
45186W        W 8954   8.242   8.684   1.360
45187W        W 8955  18.764  37.370  13.432
45188W        W 8956  40.522  36.445  12.077
45189W        W 8957  30.050  40.417   3.830
45190W        W 8958   9.267  12.319   2.673
45191W        W 8959   3.246   0.821  11.610
45192W        W 8960  44.853  20.100  14.890
45193W        W 8961  39.420   6.765  10.484
45194W        W 8962  38.391  12.814   4.234
45195W        W 8963  44.431  17.761   1.406
45196W        W 8964  44.497  19.547   3.156
45197W        W 8965  36.963  20.530   2.253
45198W        W 8966  10.228  21.681  12.437
45199W        W 8967  28.950  10.179   0.730
45200W        W 8968  21.715  37.871   4.783
45201W        W 8969  34.120   2.768  10.896
45202W        W 8970  21.535  25.533  10.477
45203W        W 8971  15.747  30.965   4.603
45204W        W 8972  20.261  32.588   1.341
45205W        W 8973  14.151  30.052  13.435
45206W        W 8974  34.116  10.830   3.307
45207W        W 8975  24.499  18.052  13.853
45208W        W 8976  30.989   3.814  12.855
45209W        W 8977  34.969  18.555  13.853
45210W        W 8978  30.983  34.460  12.883
45211W        W 8979  43.510  44.499  13.469
45212W        W 8980  12.271  15.116  12.358
45213W        W 8981  27.136  41.044   0.281
45214W        W 8982  33.494  12.805  12.061
45215W        W 8983  24.594  43.784   1.259
45216W        W 8984  13.172  40.307   1.876
45217W        W 8985  31.998  11.826   1.748
45218W        W 8986  26.538  44.288  13.370
45219W        W 8987   2.419  19.754  12.454
45220W        W 8988  39.006  16.293  13.917
45221W        W 8989   5.892  29.115   0.811
45222W        W 8990   6.834   5.258  11.968
45223W        W 8991  35.084   6.755   9.948
45224W        W 8992  26.664  17.676   3.301
45225W        W 8993   6.415  17.765   1.823
45226W        W 8994  31.611  34.915  12.341
45227W        W 8995  21.692   3.815  14.392
45228W        W 8996  40.033  38.563  14.491
45229W        W 8997  15.103  37.473   4.669
45230W        W 8998  41.988   7.798  11.561
45231W        W 8999  16.737   7.863  14.866
45232W        W 9000  13.329   8.694   5.198
45233W        W 9001  10.197  43.489   3.348
45234W        W 9002   0.289  29.161  13.017
45235W        W 9003  10.384  19.535  12.400
45236W        W 9004  15.636  28.053   0.733
45237W        W 9005  30.112  18.724   2.825
45238W        W 9006   2.366  41.367   4.167
45239W        W 9007  43.435  13.287  10.638
45240W        W 9008  37.524  23.723  11.597
45241W        W 9009  30.923  32.516  12.899
45242W        W 9010  26.149  10.224   1.874
45243W        W 9011  34.020  19.694  13.543
45244W        W 9012  23.004  30.989  14.399
45245W        W 9013  27.577  10.164  14.852
45246W        W 9014  17.205  35.375  11.101
45247W        W 9015  38.902  22.594  13.964
45248W        W 9016  26.122  18.058  12.909
45249W        W 9017  42.377  18.066  10.989
45250W        W 9018  37.437  39.462  14.884
45251W        W 9019   8.728  18.581   1.768
45252W        W 9020  34.923   7.356   1.887
45253W        W 9021  36.457   3.387   3.649
45254W        W 9022  21.236  40.535  14.893
45255W        W 9023  30.032   1.358   2.376
45256W        W 9024  14.725  22.123  13.932
45257W        W 9025  22.596  23.680   3.169
45258W        W 9026  29.016  30.157   0.789
45259W        W 9027  22.539   8.693  10.017
45260W        W 9028   3.735  27.019   4.139
45261W        W 9029   6.309   6.366   1.930
45262W        W 9030  22.016  10.331   1.252
45263W        W 9031  18.195   3.769  14.863
45264W        W 9032  30.946  27.515   0.256
45265W        W 9033  42.976  35.079   4.187
45266W        W 9034  17.758  30.508  12.039
45267W        W 9035  23.672  13.721  12.353
45268W        W 9036  28.532  24.134  12.903
45269W        W 9037  27.185  13.238   1.375
45270W        W 9038  25.106   8.393   1.283
45271W        W 9039  26.136  26.097  13.344
45272W        W 9040  32.508   0.871   1.262
45273W        W 9041   7.866  31.448  12.544
45274W        W 9042   0.423   4.288   0.334
45275W        W 9043  41.856  36.882   0.932
45276W        W 9044  13.733  17.777  12.833
45277W        W 9045  31.533  24.200  13.975
45278W        W 9046  40.526   9.364   1.800
45279W        W 9047   7.231  23.130  11.086
45280W        W 9048  13.669  13.244  10.543
45281W        W 9049  41.336  25.215   1.310
45282W        W 9050  32.077   3.356  10.055
45283W        W 9051  29.451  29.981   1.260
45284W        W 9052  31.411  20.632   1.225
45285W        W 9053  32.513  28.439  10.602
45286W        W 9054  15.136  34.561  11.488
45287W        W 9055  33.601   0.790   0.343
45288W        W 9056  21.736   7.282  13.543
45289W        W 9057  38.439   7.835  12.894
45290W        W 9058  20.245   5.806  13.979
45291W        W 9059  42.835  23.641  12.426
45292W        W 9060  30.657   3.870  11.111
45293W        W 9061  20.264  17.236   3.314
45294W        W 9062  30.522  26.549  14.433
45295W        W 9063  19.241  15.734   4.733
45296W        W 9064   7.278   8.884  14.460
45297W        W 9065   7.355  18.149  14.396
45298W        W 9066  29.096  23.576   3.245
45299W        W 9067  10.383  24.515  12.542
45300W        W 9068  35.448   5.879   3.670
45301W        W 9069   2.884  32.131  12.387
45302W        W 9070   4.229  22.657  14.920
45303W        W 9071  30.072  11.678   3.766
45304W        W 9072  42.290  36.485  11.015
45305W        W 9073  28.599   9.752   2.260
45306W        W 9074   5.390  32.417   2.881
45307W        W 9075  13.707  35.946   0.362
45308W        W 9076  10.317  12.615   2.901
45309W        W 9077   1.375  16.285   0.350
45310W        W 9078   8.794   3.742   2.413
45311W        W 9079  40.889  31.023   9.563
45312W        W 9080  16.752  19.709   2.279
45313W        W 9081  43.406  37.426   0.809
45314W        W 9082   0.882   2.940  10.896
45315W        W 9083  44.493  26.470   3.856
45316W        W 9084  28.958   0.976   1.366
45317W        W 9085   5.310   2.780  10.921
45318W        W 9086  21.645   6.183  11.912
45319W        W 9087  35.060   1.885   3.642
45320W        W 9088   5.740   8.252   2.354
45321W        W 9089  29.542  25.031  12.949
45322W        W 9090  19.550  31.544  12.867
45323W        W 9091  20.526   7.184   3.289
45324W        W 9092  40.453  34.998   3.152
45325W        W 9093  20.561  15.815   3.726
45326W        W 9094  28.520  40.470   0.449
45327W        W 9095  10.217  36.859  12.998
45328W        W 9096  10.283  21.241   9.998
45329W        W 9097   1.259   6.749  10.976
45330W        W 9098  37.447   9.857  12.083
45331W        W 9099  31.078  17.770   0.419
45332W        W 9100   6.884  29.468  14.434
45333W        W 9101  28.605  43.862  14.858
45334W        W 9102  34.450  18.739  14.797
45335W        W 9103   7.307   2.848  14.484
45336W        W 9104  36.027  30.546  10.949
45337W        W 9105  14.264  32.516  13.817
45338W        W 9106  15.089  32.135   0.434
45339W        W 9107   4.333  24.711   2.700
45340W        W 9108   1.877  12.297   3.837
45341W        W 9109  39.944  40.024  14.287
45342W        W 9110   2.311   8.840   4.703
45343W        W 9111  24.575  28.475  13.909
45344W        W 9112   6.805   5.807  14.023
45345W        W 9113  27.529  37.947   1.750
45346W        W 9114  30.432  27.949   2.254
45347W        W 9115  13.722  34.475  12.956
45348W        W 9116  36.521  33.923  11.547
45349W        W 9117  23.027   3.380   2.286
45350W        W 9118  34.112  42.469   3.662
45351W        W 9119  20.695  38.495  12.370
45352W        W 9120  27.682  35.949   3.717
45353W        W 9121  30.056   1.792  13.971
45354W        W 9122  44.854  38.004   4.833
45355W        W 9123  10.818  28.128   0.293
45356W        W 9124  31.592  17.069  13.008
45357W        W 9125   2.939  25.550   2.836
45358W        W 9126   2.248  39.337   5.307
45359W        W 9127   7.666  11.218  13.346
45360W        W 9128   1.369  33.487  13.031
45361W        W 9129  42.937   6.903  11.036
45362W        W 9130  24.568  31.599  11.379
45363W        W 9131  11.856  38.905  12.465
45364W        W 9132  17.617  24.542  12.438
45365W        W 9133   6.376  15.581   1.925
45366W        W 9134  10.713  41.017   0.455
45367W        W 9135  15.162  41.340  11.446
45368W        W 9136  43.333  31.595  10.481
45369W        W 9137  37.436   7.723  12.996
45370W        W 9138  16.134  34.055  14.427
45371W        W 9139  32.453  40.896  13.824
45372W        W 9140  38.874  19.653  10.891
45373W        W 9141  26.527  28.180  14.921
45374W        W 9142  12.209  43.363  14.011
45375W        W 9143   6.772  34.998   2.891
45376W        W 9144   2.252  30.918  12.407
45377W        W 9145  31.032  23.522  10.412
45378W        W 9146   2.445  41.445  14.337
45379W        W 9147  26.466  36.843  12.985
45380W        W 9148  42.011  25.130   0.886
45381W        W 9149  14.093   9.756  14.019
45382W        W 9150  24.996  31.935   2.205
45383W        W 9151   1.948   7.409   2.320
45384W        W 9152  34.464  32.126   2.741
45385W        W 9153  10.877  13.274   5.174
45386W        W 9154  30.483  27.098   0.245
45387W        W 9155  35.466  29.487   2.784
45388W        W 9156  33.021  15.259   0.438
45389W        W 9157  36.583  17.692  11.905
45390W        W 9158  12.258  14.235   2.392
45391W        W 9159   1.786  28.578   2.720
45392W        W 9160   8.868  37.529  11.488
45393W        W 9161   2.471  37.501   1.358
45394W        W 9162  31.567  32.965   2.787
45395W        W 9163  10.286  42.863   1.808
45396W        W 9164  10.264   0.442   2.664
45397W        W 9165  42.491  38.476   1.702
45398W        W 9166   9.767  29.560   3.640
45399W        W 9167  39.933  43.464  12.365
45400W        W 9168   8.315  22.161   3.720
45401W        W 9169  18.167  39.411   0.757
45402W        W 9170  36.846  20.106  11.106
45403W        W 9171  43.860  25.991  14.455
45404W        W 9172   6.760  39.822   3.826
45405W        W 9173  19.743  18.164   1.895
45406W        W 9174   3.930  18.258   4.718
45407W        W 9175  19.191  16.296  10.464
45408W        W 9176  37.345  11.697   3.776
45409W        W 9177  31.896  17.693   0.738
45410W        W 9178  13.608   3.449  12.539
45411W        W 9179   8.200  26.191   0.748
45412W        W 9180   5.911  29.629  12.535
45413W        W 9181   2.932  34.550   2.679
45414W        W 9182  23.213  25.482   2.860
45415W        W 9183  25.506  28.542   0.320
45416W        W 9184  31.009  23.066   4.598
45417W        W 9185  37.576  27.488   4.604
45418W        W 9186  42.955  37.930   4.237
45419W        W 9187   5.788   3.875   0.333
45420W        W 9188  42.935  25.014  11.432
45421W        W 9189  38.870  43.487   0.341
45422W        W 9190  12.808  13.775   2.841
45423W        W 9191  10.293   1.245   4.712
45424W        W 9192  38.438  27.457   0.448
45425W        W 9193  23.497  25.991  11.977
45426W        W 9194   0.445  24.083  13.869
45427W        W 9195   5.337  30.139  14.927
45428W        W 9196  38.335  44.959  11.527
45429W        W 9197  17.723  33.919   2.341
45430W        W 9198  21.547  27.075   4.326
45431W        W 9199  40.856  36.410   2.357
45432W        W 9200  28.538  30.444   0.312
45433W        W 9201   1.252  33.067   0.312
45434W        W 9202  21.722  32.448   5.161
45435W        W 9203  28.042  21.640  13.488
45436W        W 9204  27.183   5.787   0.367
45437W        W 9205  26.631  24.018   4.806
45438W        W 9206  19.578  25.689  11.051
45439W        W 9207  14.204  15.816   4.194
45440W        W 9208  39.839  19.646   1.216
45441W        W 9209  15.688  18.694  12.870
45442W        W 9210  17.292  23.101  13.961
45443W        W 9211  16.779   5.854  14.818
45444W        W 9212  42.972  35.591  14.833
45445W        W 9213  34.450  24.575  14.294
45446W        W 9214  17.258  28.014  11.074
45447W        W 9215  17.670  17.157  12.417
45448W        W 9216  38.555   6.911   1.410
45449W        W 9217  27.952  34.434   2.703
45450W        W 9218  31.449  38.559   3.745
45451W        W 9219  10.187  38.856   3.244
45452W        W 9220  38.971   8.349   5.634
45453W        W 9221  40.949  36.852  14.889
45454W        W 9222  39.438  31.010   1.286
45455W        W 9223  34.873   0.382   4.328
45456W        W 9224   3.271   3.757  14.405
45457W        W 9225  27.647  17.648  12.935
45458W        W 9226  44.819  20.202   4.753
45459W        W 9227  43.978  19.597   0.281
45460W        W 9228  17.572  17.647   0.458
45461W        W 9229  29.646  14.791  10.917
45462W        W 9230  22.185  33.079   0.823
45463W        W 9231  27.478  20.715  10.477
45464W        W 9232  41.976  35.064  13.422
45465W        W 9233  10.879   9.864  14.449
45466W        W 9234   1.905  23.661   1.365
45467W        W 9235  44.787  17.299  12.919
45468W        W 9236   8.740  30.147   3.224
45469W        W 9237   0.385  20.626   1.758
45470W        W 9238   1.397  35.107  12.841
45471W        W 9239  19.583  43.776  12.570
45472W        W 9240  40.455   1.341  14.954
45473W        W 9241  22.237  20.263  13.981
45474W        W 9242  22.118  27.519  11.376
45475W        W 9243  31.150  28.436   0.857
45476W        W 9244  15.760  22.731  12.353
45477W        W 9245  26.478  12.805   1.255
45478W        W 9246  25.144  39.477   1.451
45479W        W 9247  24.027   1.344   2.246
45480W        W 9248  42.317   2.925   0.440
45481W        W 9249  41.005  27.144  13.389
45482W        W 9250   8.718  20.036   2.803
45483W        W 9251  29.075  24.146   4.256
45484W        W 9252   3.900  16.732   2.862
45485W        W 9253   9.705  29.539  14.333
45486W        W 9254  14.164  41.469  11.056
45487W        W 9255  42.482   8.404  14.381
45488W        W 9256  30.107  42.912  13.337
45489W        W 9257  36.458  14.813   0.835
45490W        W 9258   7.688   6.309   4.131
45491W        W 9259   1.883   3.759   4.297
45492W        W 9260  34.998  15.770   1.847
45493W        W 9261  17.169  12.713  11.428
45494W        W 9262  40.342  12.851   0.248
45495W        W 9263   2.954  34.483   1.822
45496W        W 9264  36.389  14.773  11.414
45497W        W 9265  25.586  26.164   1.811
45498W        W 9266  25.019  42.798  14.487
45499W        W 9267   8.691  17.232  12.075
45500W        W 9268  33.977  20.637  13.817
45501W        W 9269  30.099  42.948  13.010
45502W        W 9270  43.899  10.762  14.821
45503W        W 9271   5.384  33.911  10.615
45504W        W 9272  31.151  40.905  13.395
45505W        W 9273   1.891  28.050  13.452
45506W        W 9274   9.711  15.313   4.691
45507W        W 9275   7.759  38.361  11.587
45508W        W 9276   3.894  31.635   4.800
45509W        W 9277  24.055  11.311  13.514
45510W        W 9278  15.762  12.779   3.150
45511W        W 9279  26.515   3.241   0.437
45512W        W 9280  21.709   3.718   3.361
45513W        W 9281  27.596  16.076  14.784
45514W        W 9282  37.891  43.935   0.867
45515W        W 9283  31.411  32.901  13.937
45516W        W 9284   0.460   3.911  11.543
45517W        W 9285  35.092   9.358  13.310
45518W        W 9286  20.238  16.244   4.157
45519W        W 9287  12.646  33.999  11.919
45520W        W 9288   2.446  25.588   1.353
45521W        W 9289  24.506  32.608  11.075
45522W        W 9290   6.866  12.664  13.022
45523W        W 9291   4.937  32.011   0.928
45524W        W 9292   4.756   9.881   1.423
45525W        W 9293   2.379  27.132   3.261
45526W        W 9294  18.181  23.548  14.926
45527W        W 9295  20.731  19.095  12.044
45528W        W 9296  15.747  37.404   3.773
45529W        W 9297   3.862  37.935  10.609
45530W        W 9298  20.247   9.273   1.854
45531W        W 9299   8.339  27.116  10.985
45532W        W 9300  40.874  40.035  11.956
45533W        W 9301   4.218  17.698  14.952
45534W        W 9302  31.639  37.358  14.435
45535W        W 9303   0.251   3.272  12.914
45536W        W 9304  37.968  33.397  10.524
45537W        W 9305  41.330  38.452   4.818
45538W        W 9306  29.540  34.523  13.006
45539W        W 9307   8.276  25.635  12.549
45540W        W 9308  38.423   7.212  11.385
45541W        W 9309  25.526  21.539  13.478
45542W        W 9310  14.108  33.934  10.891
45543W        W 9311  19.187  31.075  11.433
45544W        W 9312  16.174   8.403   1.787
45545W        W 9313  20.696  11.150  13.803
45546W        W 9314  20.549  14.215   4.748
45547W        W 9315  32.415  11.650  10.042
45548W        W 9316  32.938   2.754   2.672
45549W        W 9317  37.582   0.775   5.176
45550W        W 9318  25.016  34.006  11.896
45551W        W 9319  14.176  26.137  13.975
45552W        W 9320   2.824   4.377  14.301
45553W        W 9321   3.240  38.450   3.753
45554W        W 9322  40.807   5.902  14.290
45555W        W 9323   1.746  14.250   3.270
45556W        W 9324  11.356  18.074  12.826
45557W        W 9325  19.221  40.970   0.319
45558W        W 9326  38.376  23.107  12.376
45559W        W 9327  26.129  42.379  12.433
45560W        W 9328  14.168   7.202   0.393
45561W        W 9329  26.607  11.749  13.390
45562W        W 9330   9.249  31.044  12.044
45563W        W 9331  32.892  28.669  14.349
45564W        W 9332  23.492  23.093   3.775
45565W        W 9333  28.487  43.992  12.933
45566W        W 9334  39.553  28.036   9.598
45567W        W 9335  17.613   8.850   2.852
45568W        W 9336  30.154  31.452   0.399
45569W        W 9337  41.807   5.369   2.297
45570W        W 9338  41.022  38.389   1.424
45571W        W 9339   4.209  36.399   3.301
45572W        W 9340  28.950  10.789   2.884
45573W        W 9341  41.503  28.979  11.596
45574W        W 9342  34.888  23.521   0.763
45575W        W 9343  33.558  12.841  10.086
45576W        W 9344  38.045  10.361   0.909
45577W        W 9345  44.418   6.275   2.306
45578W        W 9346   3.842  31.583  12.899
45579W        W 9347  16.203  42.946  14.924
45580W        W 9348  29.453  19.043  14.492
45581W        W 9349  31.540  42.849   2.372
45582W        W 9350  35.097  40.899   2.889
45583W        W 9351   5.278  30.435   2.179
45584W        W 9352  39.502  30.933   3.804
45585W        W 9353  12.847   6.701   1.325
45586W        W 9354   9.695  32.541   3.659
45587W        W 9355   1.381  17.134  14.973
45588W        W 9356   8.837  36.365  14.918
45589W        W 9357   2.856  27.604  13.385
45590W        W 9358  32.002   7.699   0.293
45591W        W 9359  34.052  16.797   1.388
45592W        W 9360   4.736  31.481  14.875
45593W        W 9361  20.570  19.640  12.418
45594W        W 9362  43.281  22.006   1.723
45595W        W 9363  37.830   1.273  13.337
45596W        W 9364  18.721  15.784   2.192
45597W        W 9365  27.583  21.680  11.378
45598W        W 9366   1.428  39.841   4.607
45599W        W 9367   8.246  22.013   1.261
45600W        W 9368  30.648  19.092  12.503
45601W        W 9369  14.669  23.038  13.033
45602W        W 9370  42.361  12.798   3.723
45603W        W 9371  41.445  37.957  11.057
45604W        W 9372  29.094   2.747  12.977
45605W        W 9373  22.612  41.952   2.892
45606W        W 9374  38.062   2.426  11.089
45607W        W 9375  25.156  23.646   3.710
45608W        W 9376  22.170   6.318  12.015
45609W        W 9377   3.914  34.967   3.374
45610W        W 9378  37.077  33.082  14.847
45611W        W 9379  27.084  27.588  12.038
45612W        W 9380  32.097  39.056   0.822
45613W        W 9381   6.184   1.318  11.886
45614W        W 9382   8.378   7.336  10.435
45615W        W 9383  22.136  13.787  10.622
45616W        W 9384  35.366   0.815  13.007
45617W        W 9385  39.451  12.835  12.518
45618W        W 9386   5.866  31.544   2.682
45619W        W 9387   0.260   9.840  13.410
45620W        W 9388  19.601  20.593  14.396
45621W        W 9389  44.429  20.145  11.931
45622W        W 9390  28.450  11.706   0.245
45623W        W 9391  13.179  11.267   0.785
45624W        W 9392  21.192  28.985  13.444
45625W        W 9393  44.353  34.526   0.939
45626W        W 9394  23.730   0.808  10.910
45627W        W 9395  10.332   1.243   3.234
45628W        W 9396  30.578  10.233   5.230
45629W        W 9397  27.544  20.614   4.200
45630W        W 9398   6.369  31.612  14.512
45631W        W 9399  22.629   4.915   2.676
45632W        W 9400  18.216  33.488   1.874
45633W        W 9401  43.326  26.594   2.678
45634W        W 9402  26.196   0.324  14.938
45635W        W 9403  11.704  41.306  11.994
45636W        W 9404  41.912  39.846   1.783
45637W        W 9405  33.455   2.941  11.377
45638W        W 9406  27.022   7.263   1.769
45639W        W 9407  21.029  42.828  14.344
45640W        W 9408  20.639  26.161   0.411
45641W        W 9409  12.335  10.683   4.645
45642W        W 9410  40.506   1.893   0.881
45643W        W 9411  40.382  11.685  13.996
45644W        W 9412  38.549  15.153   1.788
45645W        W 9413  20.610   5.826   0.288
45646W        W 9414  27.018   6.239   3.708
45647W        W 9415  11.310  10.321  12.362
45648W        W 9416  10.690   4.258  14.029
45649W        W 9417   9.327  44.448  10.131
45650W        W 9418  29.027  28.012  11.110
45651W        W 9419  26.513  42.793  10.642
45652W        W 9420  26.467  19.688   0.774
45653W        W 9421  31.454   2.890  12.498
45654W        W 9422   7.308  39.997  13.845
45655W        W 9423  17.148   4.893  14.449
45656W        W 9424   0.867   5.798  13.525
45657W        W 9425   1.292   9.801  11.994
45658W        W 9426  18.072  44.769  11.857
45659W        W 9427  19.585  19.131   3.283
45660W        W 9428  12.770   0.316  14.834
45661W        W 9429   1.795  38.513  10.439
45662W        W 9430  28.146  33.926  14.825
45663W        W 9431  23.593  15.325   1.815
45664W        W 9432  30.636  24.021   2.834
45665W        W 9433  20.106  28.540   4.644
45666W        W 9434  42.935  14.120  12.032
45667W        W 9435  37.345  44.452   5.091
45668W        W 9436  39.861  42.428  12.395
45669W        W 9437  13.314  33.084   4.320
45670W        W 9438  17.250  18.753   5.165
45671W        W 9439   5.269  40.429   2.675
45672W        W 9440  40.905  15.630  12.898
45673W        W 9441  44.358  11.848  12.045
45674W        W 9442   7.807  15.718   1.371
45675W        W 9443   5.234   0.962   0.795
45676W        W 9444  10.797  36.540   1.882
45677W        W 9445  17.671  40.863  14.895
45678W        W 9446  26.633  16.675   1.718
45679W        W 9447  26.013  37.893  14.919
45680W        W 9448  13.711  37.536  11.534
45681W        W 9449  26.657  44.778   1.434
45682W        W 9450  15.186   0.931  13.806
45683W        W 9451  28.551  31.906   4.725
45684W        W 9452  15.230  41.409  13.843
45685W        W 9453  10.164   5.365   2.755
45686W        W 9454  33.976   0.833  10.629
45687W        W 9455  22.115  38.408   1.447
45688W        W 9456  20.149   4.346   2.384
45689W        W 9457  34.462  23.699   4.234
45690W        W 9458  35.854  34.080   2.324
45691W        W 9459  29.923  44.324   4.612
45692W        W 9460  29.461  25.152  10.981
45693W        W 9461  30.486  15.291  14.342
45694W        W 9462  18.637  11.857   4.790
45695W        W 9463  42.288   0.326   3.808
45696W        W 9464   6.417  43.474  11.855
45697W        W 9465  26.569  26.585  13.411
45698W        W 9466  26.489   5.776  13.532
45699W        W 9467  29.649  39.507   4.352
45700W        W 9468  13.171   5.286   0.258
45701W        W 9469  26.147  17.135  10.584
45702W        W 9470   9.793  28.021   2.771
45703W        W 9471  37.839  10.189   5.102
45704W        W 9472  10.755  14.247   2.267
45705W        W 9473  36.841  16.103   4.836
45706W        W 9474  39.507  29.448   3.799
45707W        W 9475  44.410  29.093   4.317
45708W        W 9476  12.799  25.547   3.852
45709W        W 9477   4.859  11.357   2.368
45710W        W 9478  32.034  34.610   2.757
45711W        W 9479  21.756  34.884  14.481
45712W        W 9480  39.843  14.239  11.955
45713W        W 9481   4.874  43.836   3.859
45714W        W 9482  21.581  23.016  13.807
45715W        W 9483  23.535  10.163  13.888
45716W        W 9484  39.420   4.828   3.282
45717W        W 9485  32.533  19.118   2.362
45718W        W 9486   3.901  43.015  11.402
45719W        W 9487  40.801   3.846  14.322
45720W        W 9488  44.284  12.305  13.474
45721W        W 9489  15.275  17.743  12.937
45722W        W 9490  44.285  18.770   4.311
45723W        W 9491   6.765  20.737  13.056
45724W        W 9492  14.303   9.869  14.504
45725W        W 9493  35.383  40.036  14.392
45726W        W 9494  32.986  36.584   2.871
45727W        W 9495   1.322  20.534   1.699
45728W        W 9496  21.552   8.382  13.316
45729W        W 9497  13.345  42.915  12.972
45730W        W 9498   9.728   4.266   2.345
45731W        W 9499  29.508   9.780  11.448
45732W        W 9500  29.600  33.123   4.149
45733W        W 9501  13.143  16.196  13.873
45734W        W 9502   6.867  15.147   4.167
45735W        W 9503  24.021  14.196   3.839
45736W        W 9504  21.709  17.111   0.945
45737W        W 9505  31.043   0.788   2.245
45738W        W 9506  40.937  17.205   0.913
45739W        W 9507  38.894  22.141  14.429
45740W        W 9508  12.775   9.189   3.152
45741W        W 9509  38.989  17.276   3.200
45742W        W 9510  22.504  11.821   4.342
45743W        W 9511  43.981  30.512  14.900
45744W        W 9512  12.688  40.021  10.534
45745W        W 9513  35.099  41.912   2.381
45746W        W 9514   7.341  20.691  12.522
45747W        W 9515   5.816  24.694   0.353
45748W        W 9516   0.365   9.393  14.465
45749W        W 9517  40.960  38.347   2.716
45750W        W 9518  23.512   4.235  10.431
45751W        W 9519  18.608   9.164   4.204
45752W        W 9520  16.761  13.156   1.335
45753W        W 9521  11.235  23.174   0.799
45754W        W 9522  35.039  11.239  12.956
45755W        W 9523  29.925  24.020   2.874
45756W        W 9524  41.995  30.933   3.723
45757W        W 9525  34.965   3.718   1.755
45758W        W 9526  40.505  31.978   2.800
45759W        W 9527  21.023  34.035  10.445
45760W        W 9528  34.973  28.945  12.084
45761W        W 9529  38.871  35.576  12.504
45762W        W 9530  12.239   9.813  11.972
45763W        W 9531  10.364  34.082  11.404
45764W        W 9532  42.779  15.786  14.395
45765W        W 9533  34.507  22.233  11.013
45766W        W 9534  13.233  25.045   0.322
45767W        W 9535   7.412  27.173  12.860
45768W        W 9536  44.755  11.852   3.340
45769W        W 9537  31.407  41.801   2.847
45770W        W 9538  13.662   6.329  12.880
45771W        W 9539  40.527   4.825   5.267
45772W        W 9540  26.134  43.806   3.195
45773W        W 9541  42.289  23.645  11.962
45774W        W 9542   9.335   3.808  10.639
45775W        W 9543  20.587  43.923   0.284
45776W        W 9544   7.282  33.954  13.811
45777W        W 9545  35.916  18.132  11.441
45778W        W 9546   0.482  23.064  13.826
45779W        W 9547  15.763   7.690  13.331
45780W        W 9548  18.286  24.529  10.945
45781W        W 9549  25.533  27.987  13.880
45782W        W 9550  37.348   4.236  14.001
45783W        W 9551  34.003  19.617  11.563
45784W        W 9552  27.517  36.562  12.565
45785W        W 9553  20.109  19.256   1.426
45786W        W 9554  31.905   6.245   3.712
45787W        W 9555  19.743  20.538  12.911
45788W        W 9556   0.335  36.983   3.166
45789W        W 9557  39.980  20.054   4.155
45790W        W 9558  32.993  20.137   0.836
45791W        W 9559  36.457  12.758  13.308
45792W        W 9560  40.426  40.346   2.234
45793W        W 9561  30.975  37.848  10.963
45794W        W 9562  21.256   3.398   2.693
45795W        W 9563  25.029  27.686   4.355
45796W        W 9564  39.511   6.414   1.228
45797W        W 9565   0.746  40.530  14.025
45798W        W 9566  41.808  32.420  11.385
45799W        W 9567  43.489  12.786  13.005
45800W        W 9568  29.554  23.051   3.679
45801W        W 9569  33.953  25.090  12.880
45802W        W 9570  31.992  10.664  10.925
45803W        W 9571   5.241  32.117  12.985
45804W        W 9572  17.112  41.789   3.177
45805W        W 9573  44.991  15.295   3.146
45806W        W 9574  36.930  43.925   4.260
45807W        W 9575  39.485   3.458   0.834
45808W        W 9576  16.197  32.976   3.679
45809W        W 9577   8.280  30.067  12.937
45810W        W 9578  22.517   5.707  11.966
45811W        W 9579  40.542  22.156   3.148
45812W        W 9580   4.770  25.003   3.182
45813W        W 9581  41.900  15.679   2.901
45814W        W 9582   1.464   8.734  12.026
45815W        W 9583  36.877   4.820  11.979
45816W        W 9584   5.827  11.190  12.367
45817W        W 9585  19.214  30.004   0.430
45818W        W 9586  16.091  27.511  14.296
45819W        W 9587  29.445  17.154   2.289
45820W        W 9588  13.641  11.276  11.003
45821W        W 9589  40.996  37.948  12.879
45822W        W 9590  38.999  32.109  13.492
45823W        W 9591  33.386   1.866   3.273
45824W        W 9592   4.314  28.454   3.267
45825W        W 9593  34.615   6.691  12.080
45826W        W 9594  31.077  18.652   3.234
45827W        W 9595  40.912  32.926   3.170
45828W        W 9596  15.130   7.219   3.251
45829W        W 9597  12.702  18.253  14.810
45830W        W 9598   6.763  30.011  14.847
45831W        W 9599   6.227  44.496  10.911
45832W        W 9600   0.973  37.857   1.348
45833W        W 9601   4.434   2.410   2.850
45834W        W 9602  20.201  25.631   2.369
45835W        W 9603  19.134   1.422   3.724
45836W        W 9604  16.309   3.272  10.442
45837W        W 9605  41.832  40.491  14.893
45838W        W 9606   5.315  11.354  12.048
45839W        W 9607  15.307   8.402  12.019
45840W        W 9608  32.046  20.145   9.929
45841W        W 9609  19.743   9.178  14.813
45842W        W 9610  12.318  42.519  11.094
45843W        W 9611   0.775   9.312   2.397
45844W        W 9612  34.053  34.110  11.877
45845W        W 9613  36.508   1.839  14.418
45846W        W 9614  10.335  38.072  13.364
45847W        W 9615   9.835  34.472  14.398
45848W        W 9616   5.801  31.995  11.493
45849W        W 9617  25.000   0.319  13.857
45850W        W 9618   6.268  32.926   0.272
45851W        W 9619  17.576  20.117  14.474
45852W        W 9620  33.094  23.185  13.425
45853W        W 9621  19.162  33.041   2.178
45854W        W 9622  23.616  24.515  12.863
45855W        W 9623  16.074  35.443   3.327
45856W        W 9624   5.209   4.898  11.066
45857W        W 9625  20.078  10.656  11.955
45858W        W 9626   2.391  35.451   1.770
45859W        W 9627  44.975   4.217  13.851
45860W        W 9628  39.511   4.747   0.332
45861W        W 9629  25.558  12.813   1.862
45862W        W 9630   1.276  24.165   0.257
45863W        W 9631  28.462  38.947  13.806
45864W        W 9632  17.230  16.690  12.984
45865W        W 9633  34.564  13.132   3.792
45866W        W 9634  38.519  26.515   2.849
45867W        W 9635  41.315  21.196  10.115
45868W        W 9636  13.350   3.825   4.314
45869W        W 9637  13.143   3.368  11.489
45870W        W 9638  32.070  16.695   3.827
45871W        W 9639  30.534  13.250   0.295
45872W        W 9640  18.054  35.092   5.165
45873W        W 9641  34.536  14.717  10.961
45874W        W 9642  23.577  33.042   1.920
45875W        W 9643  21.083  10.841   0.306
45876W        W 9644  13.759   6.771  14.014
45877W        W 9645   1.481  41.925   4.770
45878W        W 9646  20.715  10.774  13.064
45879W        W 9647   1.313  16.096  14.468
45880W        W 9648   8.857  32.956  14.389
45881W        W 9649  29.085  17.597  13.356
45882W        W 9650  41.495  41.394   3.368
45883W        W 9651   7.392  14.123  13.056
45884W        W 9652   6.759   7.880   3.214
45885W        W 9653  33.004  20.646   4.256
45886W        W 9654  14.618   1.359   1.698
45887W        W 9655   6.878  19.696   3.268
45888W        W 9656  11.816   1.302  13.397
45889W        W 9657   8.819  36.096   0.903
45890W        W 9658  26.628   8.870  12.848
45891W        W 9659  37.989  27.687  11.047
45892W        W 9660  26.017   2.952   2.824
45893W        W 9661  28.123  15.287  13.999
45894W        W 9662  24.152  14.791   2.714
45895W        W 9663  32.599   9.365   3.239
45896W        W 9664  38.070  23.203  12.048
45897W        W 9665  20.028  34.977   2.859
45898W        W 9666  30.915   4.829  11.017
45899W        W 9667  36.050  32.036  11.485
45900W        W 9668  18.115   3.429   0.735
45901W        W 9669  17.137  15.167  11.542
45902W        W 9670  11.319  44.304   2.726
45903W        W 9671  20.717  41.352   2.847
45904W        W 9672   5.861  40.806  13.352
45905W        W 9673  28.011  29.654  11.937
45906W        W 9674   0.259  42.365  13.421
45907W        W 9675  18.059   4.386  13.443
45908W        W 9676  35.887  20.196   1.350
45909W        W 9677  35.013  13.206  14.794
45910W        W 9678   2.788  44.832  12.070
45911W        W 9679  11.351  30.438  10.540
45912W        W 9680  24.540  15.094   0.835
45913W        W 9681  30.525  41.468   3.175
45914W        W 9682   9.835  15.614   4.684
45915W        W 9683  27.044  26.020  14.019
45916W        W 9684  30.024  36.508   1.877
45917W        W 9685   4.921  21.100  10.937
45918W        W 9686  29.113  28.098  14.832
45919W        W 9687   9.198  36.083  10.601
45920W        W 9688  24.687  40.436   0.301
45921W        W 9689  11.678  35.377   1.213
45922W        W 9690   5.215  44.931  13.430
45923W        W 9691  35.916  28.117  14.314
45924W        W 9692  28.118  11.305  10.153
45925W        W 9693  25.017   8.765  12.018
45926W        W 9694  12.782  33.011  12.348
45927W        W 9695  27.957   9.823  11.407
45928W        W 9696  32.620   6.293  13.531
45929W        W 9697   8.331  41.303   1.432
45930W        W 9698  43.800  11.296   0.377
45931W        W 9699  44.471  36.934  11.066
45932W        W 9700  16.778  17.566   9.953
45933W        W 9701  25.055  13.622  10.022
45934W        W 9702   3.839   1.266   4.723
45935W        W 9703  16.241  16.144   5.091
45936W        W 9704  35.406  14.627  14.280
45937W        W 9705  12.166  31.117   3.247
45938W        W 9706  39.939   4.442  10.460
45939W        W 9707  28.483  25.654   2.194
45940W        W 9708   2.818  20.716   2.358
45941W        W 9709  29.505  13.708  12.084
45942W        W 9710  25.473  27.069  14.865
45943W        W 9711   4.934  37.572  14.314
45944W        W 9712  18.768  30.130   0.277
45945W        W 9713  44.937  44.355  12.405
45946W        W 9714   0.401  34.920   2.694
45947W        W 9715   9.282  33.490   2.676
45948W        W 9716  40.519   0.371  12.340
45949W        W 9717  37.568  10.253   4.149
45950W        W 9718  27.667   7.204   2.885
45951W        W 9719   7.216  39.016  10.435
45952W        W 9720   9.778  42.851  11.917
45953W        W 9721  34.923   8.836  14.405
45954W        W 9722   5.863   5.316   0.882
45955W        W 9723   5.799  27.689   2.876
45956W        W 9724   5.924   1.301  14.022
45957W        W 9725  39.446   2.352  14.822
45958W        W 9726   0.481  44.269  11.417
45959W        W 9727  38.451  39.955   1.261
45960W        W 9728  16.303  28.616   2.664
45961W        W 9729  30.494   6.850  14.398
45962W        W 9730  22.117  23.687  14.344
45963W        W 9731  13.306  27.191  12.532
45964W        W 9732  31.577  27.055  12.546
45965W        W 9733  13.800  29.670  10.602
45966W        W 9734  35.387  33.416   2.859
45967W        W 9735  29.512  40.466   3.163
45968W        W 9736   7.832  35.365   2.706
45969W        W 9737  18.155  22.007  13.833
45970W        W 9738   4.801  27.105   3.782
45971W        W 9739  25.090  16.080  14.839
45972W        W 9740  29.033  44.783   4.352
45973W        W 9741   5.875  32.103  11.953
45974W        W 9742  33.974  36.521  13.847
45975W        W 9743   2.283  31.019  13.411
45976W        W 9744  17.644  35.996  10.426
45977W        W 9745  33.124  36.534   3.772
45978W        W 9746  37.931   5.771  14.850
45979W        W 9747  31.605  36.533   2.771
45980W        W 9748  44.895  38.893  10.616
45981W        W 9749  36.945  13.695   1.365
45982W        W 9750   1.466  36.577   3.329
45983W        W 9751  30.438  32.488   1.740
45984W        W 9752   0.302  33.412   3.297
45985W        W 9753  15.122  30.001  12.093
45986W        W 9754  35.000  40.473  12.975
45987W        W 9755  38.327   8.172   0.767
45988W        W 9756  39.556   8.340  10.942
45989W        W 9757  37.944  26.551  13.916
45990W        W 9758  13.633  38.543   0.901
45991W        W 9759   0.900  15.222  13.492
45992W        W 9760  15.816  40.836   2.749
45993W        W 9761  16.659   7.304   3.801
45994W        W 9762  29.956  37.080   1.765
45995W        W 9763  36.589   7.767  14.378
45996W        W 9764   6.894  27.108  11.000
45997W        W 9765   9.659  42.029  11.922
45998W        W 9766  14.638  17.135   5.204
45999W        W 9767  35.024  20.226  10.469
46000W        W 9768  12.138   1.791  12.999
46001W        W 9769  18.141   6.814   1.249
46002W        W 9770  24.656  35.406   0.254
46003W        W 9771   6.394  42.804  11.413
46004W        W 9772   5.870  16.203  14.320
46005W        W 9773  28.979  37.010  11.910
46006W        W 9774  38.960  12.808  12.412
46007W        W 9775  30.130  34.507   4.634
46008W        W 9776   0.288   7.288   1.819
46009W        W 9777  29.441  40.440   4.644
46010W        W 9778   9.248  23.016  14.403
46011W        W 9779  25.963   0.335   1.804
46012W        W 9780  15.651  35.852  14.995
46013W        W 9781  27.605   5.903   1.741
46014W        W 9782  20.201  10.642   4.817
46015W        W 9783  27.663  41.373  11.408
46016W        W 9784  41.318  36.019  10.892
46017W        W 9785   8.783  20.033   2.286
46018W        W 9786  18.592  43.968   2.260
46019W        W 9787  34.592  37.483   4.320
46020W        W 9788   4.802  26.995  11.085
46021W        W 9789  18.251  37.546   0.257
46022W        W 9790  20.178  15.123   0.414
46023W        W 9791  37.946  39.839  13.320
46024W        W 9792   2.407  21.681   1.235
46025W        W 9793  22.747  22.124   4.206
46026W        W 9794  42.798   6.906   1.825
46027W        W 9795   7.769  20.755  12.838
46028W        W 9796  31.133  10.757   4.243
46029W        W 9797   6.812  19.710  12.445
46030W        W 9798   8.403  43.981   1.905
46031W        W 9799  21.140   2.774   0.965
46032W        W 9800   7.751  38.556   3.671
46033W        W 9801  24.634  13.657  13.010
46034W        W 9802  37.556  36.031  13.916
46035W        W 9803  39.442  19.228  12.920
46036W        W 9804  32.496  24.708   4.626
46037W        W 9805  20.131  37.962  11.516
46038W        W 9806  41.977  11.673   3.650
46039W        W 9807  23.194   5.391  14.300
46040W        W 9808  33.976  28.488   1.756
46041W        W 9809  25.091  15.233   2.264
46042W        W 9810  24.113  26.151  11.530
46043W        W 9811   1.478   9.392  13.914
46044W        W 9812  28.558   0.313   2.819
46045W        W 9813  42.477   6.298  11.424
46046W        W 9814   5.794  30.003   4.204
46047W        W 9815  20.244  17.130   2.709
46048W        W 9816  40.928  43.346  12.894
46049W        W 9817  12.788   5.228   2.836
46050W        W 9818   3.952  34.551   0.922
46051W        W 9819  30.447   4.836   5.279
46052W        W 9820  13.312  22.724  13.839
46053W        W 9821   7.365   2.848   1.223
46054W        W 9822   0.954  44.865   1.402
46055W        W 9823  14.230   2.745  11.394
46056W        W 9824   3.800   1.423  11.496
46057W        W 9825  33.874  23.644   0.424
46058W        W 9826  33.614  13.235   1.884
46059W        W 9827  32.581  39.000  14.389
46060W        W 9828  42.492  12.153   2.675
46061W        W 9829  28.930  44.886   4.814
46062W        W 9830  24.594  42.903  10.542
46063W        W 9831  11.758  38.953   1.844
46064W        W 9832  42.846  42.010  10.475
46065W        W 9833  38.518  26.676   3.701
46066W        W 9834  30.056  25.525   0.433
46067W        W 9835  28.137  44.490  14.284
46068W        W 9836   3.830  34.918  14.764
46069W        W 9837  17.071  33.889   3.193
46070W        W 9838  30.928  27.583   4.651
46071W        W 9839  33.975  19.707   1.776
46072W        W 9840   6.347  29.143   0.875
46073W        W 9841  22.130  42.012   3.708
46074W        W 9842  11.830  44.903  12.831
46075W        W 9843  25.127  39.326  10.959
46076W        W 9844  26.477  25.068  11.450
46077W        W 9845  20.695   9.286  11.580
46078W        W 9846  18.769  22.214  11.493
46079W        W 9847  15.604   9.835   2.281
46080W        W 9848   4.365  41.506  13.966
46081W        W 9849  17.120   9.821   3.789
46082W        W 9850   0.490  44.275   0.269
46083W        W 9851  28.942  39.457   2.243
46084W        W 9852  16.749  31.073   1.898
46085W        W 9853  25.188   9.247   0.296
46086W        W 9854  15.176  18.121   2.671
46087W        W 9855  16.638  22.111   4.331
46088W        W 9856  19.132   8.750   4.740
46089W        W 9857  36.057  32.490  10.983
46090W        W 9858  43.978  36.973   2.687
46091W        W 9859  13.346   9.299   1.377
46092W        W 9860  18.671  19.575   5.191
46093W        W 9861  35.974  18.097  13.460
46094W        W 9862  33.571  24.198  13.966
46095W        W 9863   5.399  43.393  10.957
46096W        W 9864   8.833   8.812  14.770
46097W        W 9865  34.498  15.260  14.012
46098W        W 9866  12.175   0.878   2.870
46099W        W 9867  14.601  26.463   1.861
46100W        W 9868  27.172  15.602   1.446
46101W        W 9869  27.673   7.851  12.050
46102W        W 9870  19.122  37.933  14.812
46103W        W 9871  23.667  25.548  12.379
46104W        W 9872   1.848  21.629   1.770
46105W        W 9873  26.693   9.212   5.096
46106W        W 9874  29.128  38.983  14.340
46107W        W 9875  22.131  19.164  10.570
46108W        W 9876  14.805  20.537   0.419
46109W        W 9877  34.013  42.447   1.932
46110W        W 9878  27.087  29.982  14.480
46111W        W 9879  35.065  27.531  13.376
46112W        W 9880  15.606  27.061   0.867
46113W        W 9881   8.278   9.170  14.478
46114W        W 9882   0.297  12.122   1.852
46115W        W 9883  37.079  44.861  14.031
46116W        W 9884   5.828  18.757   0.867
46117W        W 9885   7.872  14.213   4.706
46118W        W 9886  14.635  17.248   9.534
46119W        W 9887  14.125   6.209   4.309
46120W        W 9888  42.438   0.909  13.406
46121W        W 9889   3.291  33.425  12.894
46122W        W 9890  15.744  27.625  11.568
46123W        W 9891  42.826   0.761   0.340
46124W        W 9892  10.382  15.157   3.670
46125W        W 9893  13.134   8.759  13.036
46126W        W 9894   3.338  36.908   1.903
46127W        W 9895  32.615   7.901  10.573
46128W        W 9896   2.756   1.375  12.423
46129W        W 9897   4.740  36.446  12.528
46130W        W 9898   0.297  30.543   1.229
46131W        W 9899  28.531  43.348   2.228
46132W        W 9900  13.779  13.280  10.039
46133W        W 9901  23.677  23.144   0.377
46134W        W 9902  11.738  23.540  11.881
46135W        W 9903  23.576   9.747  10.477
46136W        W 9904  41.948   5.730  14.450
46137W        W 9905   9.661  17.072  13.042
46138W        W 9906  44.499  41.883   4.748
46139W        W 9907  41.295  12.740  13.898
46140W        W 9908   8.892  36.453   4.276
46141W        W 9909  12.190   6.835  10.932
46142W        W 9910   4.838  26.992  10.419
46143W        W 9911  14.786  21.711   1.381
46144W        W 9912  24.182  30.649   1.445
46145W        W 9913  27.491  37.057  10.949
46146W        W 9914   1.332  19.733   4.615
46147W        W 9915  21.607  29.556  12.050
46148W        W 9916  41.797  23.136  13.924
46149W        W 9917   7.694  31.445  14.979
46150W        W 9918  33.984   2.455  14.833
46151W        W 9919  11.718  27.465   2.717
46152W        W 9920   2.336  31.597   4.200
46153W        W 9921  30.032   2.773  14.846
46154W        W 9922  24.494   1.779   4.212
46155W        W 9923  22.012   0.398   4.324
46156W        W 9924   4.796  28.978   0.364
46157W        W 9925  27.993  35.049  10.614
46158W        W 9926  19.274  29.617   0.856
46159W        W 9927  33.570  22.575  10.547
46160W        W 9928   1.941  16.098   2.879
46161W        W 9929  22.610  35.424   4.814
46162W        W 9930  16.689  25.654  14.406
46163W        W 9931  40.864   0.252   2.214
46164W        W 9932  12.223  31.025   2.216
46165W        W 9933  37.932  24.108   4.730
46166W        W 9934  15.807  27.962   1.259
46167W        W 9935  23.686   6.344   4.642
46168W        W 9936  42.353  28.496  11.475
46169W        W 9937  33.087  20.126  13.430
46170W        W 9938   8.720  19.164  10.494
46171W        W 9939  18.673  15.746   3.149
46172W        W 9940   0.951   9.207  10.567
46173W        W 9941  36.002  12.260   4.179
46174W        W 9942   9.740   5.242   3.291
46175W        W 9943  39.356  26.060  12.445
46176W        W 9944  23.513  26.678  12.560
46177W        W 9945  44.405  15.759   0.344
46178W        W 9946   1.278  11.291   3.336
46179W        W 9947  36.881  25.602   3.254
46180W        W 9948  30.001  30.502  14.333
46181W        W 9949   6.211   8.707   3.340
46182W        W 9950   3.892  34.429  10.567
46183W        W 9951  41.791  38.878   4.243
46184W        W 9952  15.631  31.435   4.306
46185W        W 9953  37.969  21.061   0.800
46186W        W 9954  36.472  43.840  12.075
46187W        W 9955  24.527   2.383  11.029
46188W        W 9956   3.397  35.876  13.811
46189W        W 9957  24.528  30.536  14.283
46190W        W 9958  10.155  39.417   1.375
46191W        W 9959  39.021  30.908  10.460
46192W        W 9960  12.649  17.671   3.792
46193W        W 9961   0.335  31.960   4.293
46194W        W 9962  23.584  17.304   4.745
46195W        W 9963  15.799  24.486   0.807
46196W        W 9964   8.703  13.706   0.773
46197W        W 9965  41.869  12.724  10.420
46198W        W 9966  34.467  12.663  14.843
46199W        W 9967  21.089  43.963  10.004
46200W        W 9968  32.100  31.402   4.697
46201W        W 9969  16.106  17.279   3.689
46202W        W 9970   5.261  24.685  12.881
46203W        W 9971  11.667  30.934  14.386
46204W        W 9972  15.288  32.132  14.847
46205W        W 9973  26.464  43.946  11.540
46206W        W 9974   8.746  42.874  12.489
46207W        W 9975  43.441  34.491   1.242
46208W        W 9976  22.053  23.502  13.044
46209W        W 9977  43.952  22.034  13.791
46210W        W 9978  44.987  43.294   1.716
46211W        W 9979  28.183  19.633  13.934
46212W        W 9980   0.311  15.718  10.637
46213W        W 9981  37.419   8.829   0.269
46214W        W 9982  29.471  21.161   4.169
46215W        W 9983  36.849  38.931  11.864
46216W        W 9984  32.567  22.074  11.399
46217W        W 9985   7.248  39.330   3.368
46218W        W 9986  43.012  42.999   0.356
46219W        W 9987  22.569  11.172  14.893
46220W        W 9988   5.346  13.609  10.970
46221W        W 9989  10.370  38.925  14.807
46222W        W 9990   8.302  24.206   0.737
46223W        W 9991   7.840   0.442  10.513
46224W        W 9992  11.229  11.186   4.285
46225W        W 9993  41.453  34.053  11.943
46226W        W 9994  37.008   9.723  14.447
46227W        W 9995   5.409  11.621  11.600
46228W        W 9996   8.284  36.940  10.533
46229W        W 9997  15.298  28.991   2.393
46230W        W 9998   3.422  21.636   3.152
46231W        W 9999  30.907   1.275  12.060
46232W        W10000  18.062  30.607   2.380
46233W        W10001  23.554  25.686   1.380
46234W        W10002  11.353  12.147  13.390
46235W        W10003  34.378  25.649   3.320
46236W        W10004  10.835  30.454  12.967
46237W        W10005  16.762  11.358  14.965
46238W        W10006  36.996  13.757   1.813
46239W        W10007   1.390  29.592   2.735
46240W        W10008  18.169   0.325  11.015
46241W        W10009  15.133  28.111  13.485
46242W        W10010  20.215   7.836  13.880
46243W        W10011  11.690  43.969   2.714
46244W        W10012  42.365  10.688   2.188
46245W        W10013  43.885  37.831   0.410
46246W        W10014  17.257  44.266   3.331
46247W        W10015  32.048  31.407   1.341
46248W        W10016  31.152  13.183   1.212
46249W        W10017  29.566  10.645  10.518
46250W        W10018  16.075  26.005   3.636
46251W        W10019  30.484   2.889  12.087
46252W        W10020  27.981   3.790   2.234
46253W        W10021   2.368  26.506   3.635
46254W        W10022  36.074  29.484   1.336
46255W        W10023   6.789  32.620  12.881
46256W        W10024  36.010  40.400   4.330
46257W        W10025   1.442  26.995  13.406
46258W        W10026   2.248  35.467  11.452
46259W        W10027  14.306  40.860  12.857
46260W        W10028  11.361  38.875  10.493
46261W        W10029  12.699   3.287  14.472
46262W        W10030  42.310  33.974  12.054
46263W        W10031  30.580  15.611   4.747
46264W        W10032  30.478   1.453   3.669
46265W        W10033  44.292   4.704   1.263
46266W        W10034  40.010   4.740   0.811
46267W        W10035  25.102  36.368  10.037
46268W        W10036  30.942  10.872   1.217
46269W        W10037  44.341   8.826  10.408
46270W        W10038  18.248   3.247  11.541
46271W        W10039   9.667  41.015  13.863
46272W        W10040  25.116   9.722   0.351
46273W        W10041   4.711  13.767   3.146
46274W        W10042   9.324  25.179   2.335
46275W        W10043  29.069  31.426  12.348
46276W        W10044   9.792   6.785   3.309
46277W        W10045  12.802  36.497  13.886
46278W        W10046  23.026  25.691  11.079
46279W        W10047  10.635   6.214  12.870
46280W        W10048   0.334   6.393  11.103
46281W        W10049  14.165  43.977  12.017
46282W        W10050  13.154  15.754  10.480
46283W        W10051  20.047  13.801  10.967
46284W        W10052   2.347  31.004  10.536
46285W        W10053  43.768  31.896  12.080
46286W        W10054  15.302   4.702  10.539
46287W        W10055  10.706  11.210   3.272
46288W        W10056  31.445   8.354   2.274
46289W        W10057  23.052  24.163   1.313
46290W        W10058  27.951  43.770  10.548
46291W        W10059   4.850  35.511   0.768
46292W        W10060  36.437   1.948   4.668
46293W        W10061  35.948  24.480   1.804
46294W        W10062  28.941   9.743   4.614
46295W        W10063  25.665   8.160  13.443
46296W        W10064  19.540  43.285  11.513
46297W        W10065  24.173   1.800  10.544
46298W        W10066   0.767  33.436  11.094
46299W        W10067  13.601  23.022   0.768
46300W        W10068   6.299  28.483  13.873
46301W        W10069  34.045  13.325   2.751
46302W        W10070   6.916  44.833   0.419
46303W        W10071   0.328  23.214  12.970
46304W        W10072   5.308  36.976  10.634
46305W        W10073   7.278  13.160   4.275
46306W        W10074  34.035  41.876  12.580
46307W        W10075   0.368  35.100  11.904
46308W        W10076  41.999  16.713  14.770
46309W        W10077  18.261  37.078  13.538
46310W        W10078  31.424  18.226   4.230
46311W        W10079  40.348  43.868  14.888
46312W        W10080  28.005  17.709  10.422
46313W        W10081  14.704  23.033   3.716
46314W        W10082  20.035  21.170  12.839
46315W        W10083   6.323  35.456  13.468
46316W        W10084  14.138  34.060  12.512
46317W        W10085  19.073  25.013  12.501
46318W        W10086  25.543  14.831  10.586
46319W        W10087  20.210  43.775   3.831
46320W        W10088   5.314  20.581  13.493
46321W        W10089  25.696  36.958   0.812
46322W        W10090  23.539   0.451   0.362
46323W        W10091  18.545  35.877   3.749
46324W        W10092  23.023  15.205  12.005
46325W        W10093   2.773  18.227   2.308
46326W        W10094  10.684  44.805  12.066
46327W        W10095  17.074   9.286   4.329
46328W        W10096  43.404   0.472   4.679
46329W        W10097  25.129  28.504  14.913
46330W        W10098  41.868  31.150   5.141
46331W        W10099  11.775  21.698   1.242
46332W        W10100  44.476  36.091   1.216
46333W        W10101   1.246  35.857  13.818
46334W        W10102  12.190   1.798   2.836
46335W        W10103  25.566  35.072   4.597
46336W        W10104  32.575   8.186   3.711
46337W        W10105  37.385  27.139   3.197
46338W        W10106  15.276  33.409   4.173
46339W        W10107  13.230  37.478  13.014
46340W        W10108  19.618  25.137   4.813
46341W        W10109   8.833   0.355  13.969
46342W        W10110  40.447  25.490   1.278
46343W        W10111  12.221   4.225  12.877
46344W        W10112  42.938  15.793   9.965
46345W        W10113  18.148  39.348  10.994
46346W        W10114  17.715  40.391  13.517
46347W        W10115   7.827  41.457  14.764
46348W        W10116  39.320  26.510  14.479
46349W        W10117   3.766  19.231   0.455
46350W        W10118  31.036   0.961  12.956
46351W        W10119   5.857   0.907   1.232
46352W        W10120  30.655  38.955   1.855
46353W        W10121  39.912  42.865   3.262
46354W        W10122  31.925  19.045  14.491
46355W        W10123  23.064   9.191   4.338
46356W        W10124  44.478  39.051   4.301
46357W        W10125  37.032  11.819  10.634
46358W        W10126  37.928  35.955   0.888
46359W        W10127   8.364  39.001  11.052
46360W        W10128   7.309  26.511   3.728
46361W        W10129  11.709  33.431  13.901
46362W        W10130   5.204  38.041  12.868
46363W        W10131  13.194  28.042  10.594
46364W        W10132  19.700   1.455   1.255
46365W        W10133  16.595  41.368  10.463
46366W        W10134  13.246  21.684   1.705
46367W        W10135  30.957  21.728   2.880
46368W        W10136  29.138  39.881   2.709
46369W        W10137  16.249  23.521  13.871
46370W        W10138  12.783   4.217   1.835
46371W        W10139  31.904  25.654   1.770
46372W        W10140  14.780   3.938  12.493
46373W        W10141  34.060  44.346   3.348
46374W        W10142  21.716  33.945   3.792
46375W        W10143  24.173  39.354   3.649
46376W        W10144  34.407   7.671   3.804
46377W        W10145  25.117  19.690   9.950
46378W        W10146  20.612  41.353  11.881
46379W        W10147   9.323  33.545  14.294
46380W        W10148  20.531   5.334   4.198
46381W        W10149  17.086  34.523   0.478
46382W        W10150  42.452  27.685  13.317
46383W        W10151  25.620  25.543   1.774
46384W        W10152  38.433   2.410  11.945
46385W        W10153  43.481  11.690   4.701
46386W        W10154  43.956  17.599  11.120
46387W        W10155  29.505  28.164  12.481
46388W        W10156  37.469  17.693  10.601
46389W        W10157  38.951  15.655  11.104
46390W        W10158  43.892  33.526   2.747
46391W        W10159  40.412  28.467  12.951
46392W        W10160  16.765   7.271  12.455
46393W        W10161  39.896  21.628   1.238
46394W        W10162  14.713  13.316  12.344
46395W        W10163  14.241  24.648  10.503
46396W        W10164  19.123  29.970  11.442
46397W        W10165  27.474  40.495  13.962
46398W        W10166  19.543   0.361  12.397
46399W        W10167  42.969  34.042  14.390
46400W        W10168  28.579  23.520  14.841
46401W        W10169  35.898  26.603   2.227
46402W        W10170  42.909  28.451  10.455
46403W        W10171  13.172  14.760   2.829
46404W        W10172   0.422  27.187  13.843
46405W        W10173  33.104  34.864  12.874
46406W        W10174  17.562  17.749  11.998
46407W        W10175  33.482  21.541  11.916
46408W        W10176   1.321  10.372   3.243
46409W        W10177  33.947  12.687  10.411
46410W        W10178  18.244  33.875   0.901
46411W        W10179   8.734  21.252   4.822
46412W        W10180  34.382  14.687   3.646
46413W        W10181  38.539  19.195   0.366
46414W        W10182  16.075  27.675  14.017
46415W        W10183  32.403  28.019  11.557
46416W        W10184   2.340  36.452   1.761
46417W        W10185  19.676  35.426  10.533
46418W        W10186  10.815  32.430  11.094
46419W        W10187  13.156  18.670   0.337
46420W        W10188   4.861   3.285  10.910
46421W        W10189  43.324  36.022  13.318
46422W        W10190  38.944  41.923  10.571
46423W        W10191  43.799  20.212  11.003
46424W        W10192  19.635  24.212  12.484
46425W        W10193  22.501  41.995  14.793
46426W        W10194  29.089  33.965  12.846
46427W        W10195  14.213  36.956   4.124
46428W        W10196   3.956   5.714   3.689
46429W        W10197   9.258  41.336  14.960
46430W        W10198   7.868  32.610  11.561
46431W        W10199  20.269  39.317  14.980
46432W        W10200   0.401   6.313   3.269
46433W        W10201   1.792   3.345  12.543
46434W        W10202  30.460  28.672   3.187
46435W        W10203   3.947   1.784   3.292
46436W        W10204  27.676  26.580   0.812
46437W        W10205  12.146   8.394  14.381
46438W        W10206  16.081  17.211  12.054
46439W        W10207  22.621  19.671   5.117
46440W        W10208  39.538   9.333   1.899
46441W        W10209  13.639   5.253   1.893
46442W        W10210  17.699  29.597  12.030
46443W        W10211  17.690   0.381  10.563
46444W        W10212  37.404   3.285   1.377
46445W        W10213  41.445   1.472  13.335
46446W        W10214  37.846  43.996   1.744
46447W        W10215  42.872  12.744  13.965
46448W        W10216   7.666  14.268   4.311
46449W        W10217  13.651  40.822  13.476
46450W        W10218   2.357  25.508   3.165
46451W        W10219   1.272  19.274   0.790
46452W        W10220  15.612   5.689  11.408
46453W        W10221  13.836  11.678   0.762
46454W        W10222  38.846   5.299  13.380
46455W        W10223  43.790   2.897   3.656
46456W        W10224   0.301  43.927  10.993
46457W        W10225  44.302  15.612  10.091
46458W        W10226  12.299  40.394  14.939
46459W        W10227  33.007  41.816   2.232
46460W        W10228  24.998  37.338  12.897
46461W        W10229  30.532  29.971  11.411
46462W        W10230  21.119  35.921  11.531
46463W        W10231  29.478  39.368   0.396
46464W        W10232   6.684  40.386  12.524
46465W        W10233   5.756  23.994   0.851
46466W        W10234  37.993   5.782  12.389
46467W        W10235  39.839  21.673   3.698
46468W        W10236  26.593  25.664   1.706
46469W        W10237  20.069  32.601  14.896
46470W        W10238  22.030  10.157  13.405
46471W        W10239  38.443  37.376   4.602
46472W        W10240  42.475  40.944  12.398
46473W        W10241  41.967   3.899  14.784
46474W        W10242  23.541  31.137   0.340
46475W        W10243  27.130  29.433  10.906
46476W        W10244  12.715  18.674   0.757
46477W        W10245   1.407  43.948   1.399
46478W        W10246  21.165  25.644   2.273
46479W        W10247   8.286   3.723   0.959
46480W        W10248  35.956  30.588  14.296
46481W        W10249   7.781  25.541  10.413
46482W        W10250  44.806  37.399  10.085
46483W        W10251  30.952  36.076  11.883
46484W        W10252  26.954  12.835  11.020
46485W        W10253  35.983  41.793   3.787
46486W        W10254   7.839  11.767  13.474
46487W        W10255  30.924   2.320   3.272
46488W        W10256  41.409  38.347   1.298
46489W        W10257   1.861  24.010  10.891
46490W        W10258  34.573  17.116   3.857
46491W        W10259  39.930  41.502  13.809
46492W        W10260  31.414  43.447  11.916
46493W        W10261  16.629  23.581   1.263
46494W        W10262  34.971  36.925   1.784
46495W        W10263  26.504   9.796   0.792
46496W        W10264  16.637   5.750   2.734
46497W        W10265  21.229  33.477   3.710
46498W        W10266  16.756  43.008   2.728
46499W        W10267   5.802  14.788   2.344
46500W        W10268   1.352   4.829   2.737
46501W        W10269  23.581  40.447  10.963
46502W        W10270  19.716   3.288   0.446
46503W        W10271   5.840  43.389   4.129
46504W        W10272  11.632   8.744  13.990
46505W        W10273  14.193  12.635  10.412
46506W        W10274   8.318   8.236  12.827
46507W        W10275  17.612  12.128   3.686
46508W        W10276  34.115   6.865  11.531
46509W        W10277  40.927  12.238  12.021
46510W        W10278  43.465   1.440  14.889
46511W        W10279   4.925  42.353   2.255
46512W        W10280  34.423   7.670  12.924
46513W        W10281  12.160  33.541   1.925
46514W        W10282  24.221  23.166   2.342
46515W        W10283  13.630  44.912   0.371
46516W        W10284   9.246   6.772   1.374
46517W        W10285  29.532  21.091  12.475
46518W        W10286  18.640  20.077   2.215
46519W        W10287  20.688  31.578   1.816
46520W        W10288   7.184  36.524   3.230
46521W        W10289  28.075  14.681  12.859
46522W        W10290  26.549  14.705  11.955
46523W        W10291   8.675  12.809   3.851
46524W        W10292  30.992  24.078   0.417
46525W        W10293  18.103  10.870  14.472
46526W        W10294  39.857  10.272   0.402
46527W        W10295  39.042   1.460   2.363
46528W        W10296  35.018  40.487   1.232
46529W        W10297  34.476  18.080  13.325
46530W        W10298  22.583  12.774  10.086
46531W        W10299  37.031  10.635   0.748
46532W        W10300  40.326  37.575   4.248
46533W        W10301  23.535  15.242   4.331
46534W        W10302  30.925  38.515   4.187
46535W        W10303  21.263  35.527  11.092
46536W        W10304  42.985   0.969  12.834
46537W        W10305  18.111  17.697   2.861
46538W        W10306   2.859  41.360  12.998
46539W        W10307  18.790   4.872  10.045
46540W        W10308  34.875   4.832  10.595
46541W        W10309  18.724   3.240   3.342
46542W        W10310   6.767  42.370  10.633
46543W        W10311  39.813  37.933  12.506
46544W        W10312  25.114  27.620  12.526
46545W        W10313  40.471   9.246  11.954
46546W        W10314  24.480  38.017   3.651
46547W        W10315   6.245  40.547   3.821
46548W        W10316  38.336  11.756  11.435
46549W        W10317  36.869  20.550   0.370
46550W        W10318  41.502  38.979  10.565
46551W        W10319  18.564  40.405   1.254
46552W        W10320   6.838  28.094  13.989
46553W        W10321   8.298   9.668   2.872
46554W        W10322   5.271  17.102  11.967
46555W        W10323  31.628   2.925   0.321
46556W        W10324   1.365  40.549  14.806
46557W        W10325   1.384  40.020   4.127
46558W        W10326  22.694  36.976  12.085
46559W        W10327   4.280  44.288  14.949
46560W        W10328  10.308  15.107  12.428
46561W        W10329  43.913  28.502   3.851
46562W        W10330  39.560  10.175   1.747
46563W        W10331  20.661   9.224  12.386
46564W        W10332  37.942  21.607   1.367
46565W        W10333  34.471  17.169  10.132
46566W        W10334  28.163   1.883  14.514
46567W        W10335  30.159  43.018   4.174
46568W        W10336  31.911   7.217  12.086
46569W        W10337  23.727  33.131  10.593
46570W        W10338  12.811  10.656   1.281
46571W        W10339   6.234   9.169  13.960
46572W        W10340  26.654   1.308   2.714
46573W        W10341  39.923  29.053   0.797
46574W        W10342   6.903  39.860  14.515
46575W        W10343  23.086  44.324  11.897
46576W        W10344  26.137  39.835  14.916
46577W        W10345  18.107  13.653  13.350
46578W        W10346  21.103  18.114  13.978
46579W        W10347  44.261  43.988   0.318
46580W        W10348  25.566  35.584   4.135
46581W        W10349  30.149  20.665  12.017
46582W        W10350   1.419  41.309   2.801
46583W        W10351  14.783  10.755   5.162
46584W        W10352  42.308  11.843  11.530
46585W        W10353  10.200  38.376  12.026
46586W        W10354   0.853  39.811   4.162
46587W        W10355  43.485  42.019  13.994
46588W        W10356  32.938   4.837  11.049
46589W        W10357   8.361  35.892   1.759
46590W        W10358  35.578  39.542  12.917
46591W        W10359  25.695  27.573   0.429
46592W        W10360  13.661  24.136  10.636
46593W        W10361  17.562  31.071   2.292
46594W        W10362   3.259  21.619   2.763
46595W        W10363  10.676  29.630  12.432
46596W        W10364  31.975  35.533   0.446
46597W        W10365  20.217  13.790   1.739
46598W        W10366  41.930  23.135  11.063
46599W        W10367  40.421  15.244   1.903
46600W        W10368  21.030  34.547   1.355
46601W        W10369  27.144  24.672   0.288
46602W        W10370  37.870   9.387  12.848
46603W        W10371   3.396   7.895  14.855
46604W        W10372  30.486  18.706  11.432
46605W        W10373  31.498   9.359  12.376
46606W        W10374  26.178  39.321   2.745
46607W        W10375  15.202  11.284   4.250
46608W        W10376  13.231   3.243  12.062
46609W        W10377  35.929   9.825  14.869
46610W        W10378  19.710   8.253  14.774
46611W        W10379  41.336  15.107   4.736
46612W        W10380  33.879  21.020  14.337
46613W        W10381   4.362  21.206  14.798
46614W        W10382  37.833  36.366  12.404
46615W        W10383  29.122  21.021   0.382
46616W        W10384  35.869   4.390  10.476
46617W        W10385  17.645   7.907  13.815
46618W        W10386  15.136  14.165   2.226
46619W        W10387   5.792  33.043   4.292
46620W        W10388  34.989  21.115  12.576
46621W        W10389  29.477  13.144   0.939
46622W        W10390  29.445  14.176  11.599
46623W        W10391  25.083  15.307   5.159
46624W        W10392  42.005  25.020   0.376
46625W        W10393  16.712  38.838  10.637
46626W        W10394  35.480  42.361   3.297
46627W        W10395  42.989   1.263  11.522
46628W        W10396  16.146  38.964   2.338
46629W        W10397   4.224   2.331   3.235
46630W        W10398  34.378  22.209   3.692
46631W        W10399   3.282   0.305  12.068
46632W        W10400  13.707  14.706  11.450
46633W        W10401   1.968  25.672  11.922
46634W        W10402   4.711  42.785   4.331
46635W        W10403  36.915  39.857  11.542
46636W        W10404  41.466  42.854  13.933
46637W        W10405  11.171   6.885   3.777
46638W        W10406  11.275   5.859   3.334
46639W        W10407   3.361   4.408  14.283
46640W        W10408  25.681  38.475   2.344
46641W        W10409  22.223   2.737  11.526
46642W        W10410  34.890   1.312   3.767
46643W        W10411   8.844  26.127  10.934
46644W        W10412  34.009   7.676  13.060
46645W        W10413  30.087  38.964  14.778
46646W        W10414  40.498  14.175   0.801
46647W        W10415  35.405   6.806  10.149
46648W        W10416  28.497   6.867  12.374
46649W        W10417  11.755  43.437   3.853
46650W        W10418  34.397  30.431   2.227
46651W        W10419  19.257  31.086   1.889
46652W        W10420  35.093  34.058   1.871
46653W        W10421  38.485   0.878   3.224
46654W        W10422  33.894  36.087   2.345
46655W        W10423  41.989  14.174   5.174
46656W        W10424   5.331  12.774   1.336
46657W        W10425  12.705  44.786   3.815
46658W        W10426  32.959  40.934   0.768
46659W        W10427  12.785  17.652  12.014
46660W        W10428  27.501  15.588  12.879
46661W        W10429   0.390  21.632   3.844
46662W        W10430  15.626  18.734   3.224
46663W        W10431  33.112  26.646  10.441
46664W        W10432   3.885   1.429  12.430
46665W        W10433  12.318  33.435  13.053
46666W        W10434  14.254  24.213  13.441
46667W        W10435   5.373   9.807   4.673
46668W        W10436  11.364  22.011  12.992
46669W        W10437  17.736  20.655   3.719
46670W        W10438  18.786  16.650   2.279
46671W        W10439  30.641  40.452   1.773
46672W        W10440   4.269  26.994  13.015
46673W        W10441  44.802   8.290  14.866
46674W        W10442   6.737  27.569  12.864
46675W        W10443  14.252  42.287   0.414
46676W        W10444   8.899  13.326  12.542
46677W        W10445  35.445   4.819   1.305
46678W        W10446   6.895   7.842  10.465
46679W        W10447  28.437  27.677   3.832
46680W        W10448  34.995  33.539  12.455
46681W        W10449  28.512  15.600   0.293
46682W        W10450  17.654   5.325   4.610
46683W        W10451  27.052  22.566   0.801
46684W        W10452  43.438  29.051  10.935
46685W        W10453   8.385  20.707  13.977
46686W        W10454  23.702  12.228  11.967
46687W        W10455   1.275  14.766  12.398
46688W        W10456  28.652  28.934  12.962
46689W        W10457   0.276  41.443  14.003
46690W        W10458  13.655  15.285   0.909
46691W        W10459  26.529  28.949   3.717
46692W        W10460  28.989  31.921  14.389
46693W        W10461  15.312  27.675   2.802
46694W        W10462  34.414   3.277  13.937
46695W        W10463  40.860  28.953  12.051
46696W        W10464  18.296  43.500  12.398
46697W        W10465  30.122  12.695   2.217
46698W        W10466  41.383  16.109  11.864
46699W        W10467  40.466  29.062   2.829
46700W        W10468  24.048  29.560  13.450
46701W        W10469  22.141  29.589  13.514
46702W        W10470  33.418   5.863  14.919
46703W        W10471  39.898  41.901  12.449
46704W        W10472  29.583  10.831   0.410
46705W        W10473  21.026  43.797  10.595
46706W        W10474  14.647  18.278   4.348
46707W        W10475  36.369  12.271   3.857
46708W        W10476  34.083  42.019  11.101
46709W        W10477  16.075   9.785   4.203
46710W        W10478  43.292  38.380   4.244
46711W        W10479  12.338  43.774   1.884
46712W        W10480  11.347  31.625  11.590
46713W        W10481  20.138  43.316   1.818
46714W        W10482  22.506   6.232   0.949
46715W        W10483   6.804  24.570   2.393
46716W        W10484   9.791  20.601  10.517
46717W        W10485  27.150  33.531   3.175
46718W        W10486  41.885  39.010  11.084
46719W        W10487  12.670  17.733   1.420
46720W        W10488  12.789  10.201   4.198
46721W        W10489   0.977  15.611  14.375
46722W        W10490  16.720  23.055  14.941
46723W        W10491  15.189   1.786   3.716
46724W        W10492  37.391  18.170  14.017
46725W        W10493  38.983  22.676  11.063
46726W        W10494   4.324  44.327   4.686
46727W        W10495   9.848  29.604  10.612
46728W        W10496  15.125  44.317  13.991
46729W        W10497  44.262  29.093  13.859
46730W        W10498  44.949  43.958  13.846
46731W        W10499  19.636  31.026   2.717
46732W        W10500  33.109  41.519   0.789
46733W        W10501  37.497  38.513   0.789
46734W        W10502   3.310   5.865  13.961
46735W        W10503  30.511  37.416  10.432
46736W        W10504  44.930  17.230   3.766
46737W        W10505  15.309   9.818   4.234
46738W        W10506  20.639  10.375  13.920
46739W        W10507  43.497  41.359   3.336
46740W        W10508  37.909  28.459   3.223
46741W        W10509  35.874  29.069  14.374
46742W        W10510  19.199   8.870   0.393
46743W        W10511  16.091  10.224  12.481
46744W        W10512  31.545   0.264  12.086
46745W        W10513  26.050  25.549   2.403
46746W        W10514   2.340  17.790  13.891
46747W        W10515  31.936   2.870  13.872
46748W        W10516  39.491  14.296  11.952
46749W        W10517  33.929  28.455   4.778
46750W        W10518  19.757   7.380  12.533
46751W        W10519   7.407   3.773  12.932
46752W        W10520  22.645   7.212   0.463
46753W        W10521  21.530  35.370   1.255
46754W        W10522  21.619   2.740   4.249
46755W        W10523   5.326  22.252  13.353
46756W        W10524   5.238  30.635   1.381
46757W        W10525  10.656  42.903  14.002
46758W        W10526  19.585   8.808   0.967
46759W        W10527  36.893  18.273  11.874
46760W        W10528  37.396   9.165   0.800
46761W        W10529  15.096  39.891   0.250
46762W        W10530  13.217  30.658  11.551
46763W        W10531  42.387  11.732   2.361
46764W        W10532  18.083  18.576  12.054
46765W        W10533  40.531  25.979   2.801
46766W        W10534  16.696   2.319  10.948
46767W        W10535   0.908   4.233  14.332
46768W        W10536   2.751  38.564   0.432
46769W        W10537  11.801  28.117  13.512
46770W        W10538   9.657  25.017  12.455
46771W        W10539  20.629  34.118   0.760
46772W        W10540  10.217  15.705   1.731
46773W        W10541  41.962  20.126   2.369
46774W        W10542  42.850   3.821  11.082
46775W        W10543  14.197  23.604  14.423
46776W        W10544  11.352  37.883  11.859
46777W        W10545   1.917  22.566  11.972
46778W        W10546  41.790  21.188  10.596
46779W        W10547  10.675  39.493   4.269
46780W        W10548  22.589  43.954   3.235
46781W        W10549  17.770  22.056  10.508
46782W        W10550  43.960  30.120  12.493
46783W        W10551  26.695  38.518   1.726
46784W        W10552  23.663  34.954   3.346
46785W        W10553  14.296  10.151  10.598
46786W        W10554  44.497  39.548   0.340
46787W        W10555  13.824  35.521  14.382
46788W        W10556   2.765  20.196  14.358
46789W        W10557  10.781   4.381   0.428
46790W        W10558   1.790   8.234  10.584
46791W        W10559  14.210  11.844  14.490
46792W        W10560  16.258  24.685   1.756
46793W        W10561  16.273   1.819  11.892
46794W        W10562  41.293   4.923  12.533
46795W        W10563  31.547   6.404  13.800
46796W        W10564  10.235  32.928  13.391
46797W        W10565  11.738  38.554   2.285
46798W        W10566  11.371  24.196  10.487
46799W        W10567  22.227  33.574   1.777
46800W        W10568  19.145  25.151  10.906
46801W        W10569  27.675  44.491  11.586
46802W        W10570   9.219  10.337   1.370
46803W        W10571  13.344  37.478   4.331
46804W        W10572   8.335   2.858  13.937
46805W        W10573  43.858  16.190  13.488
46806W        W10574   2.359   7.383   2.681
46807W        W10575  36.951  43.424   4.831
46808W        W10576   2.435   7.892   2.765
46809W        W10577  13.676  13.811   0.380
46810W        W10578  17.090  40.404  12.490
46811W        W10579  18.196  36.054  12.860
46812W        W10580   2.781  36.027   2.761
46813W        W10581   2.333  12.664   4.181
46814W        W10582  26.463  22.713   5.227
46815W        W10583  38.878   7.884   3.385
46816W        W10584  27.951  12.676  10.899
46817W        W10585  30.450  16.180   3.787
46818W        W10586   5.376  39.452   4.803
46819W        W10587  33.430  26.615  12.905
46820W        W10588  20.192  21.517   2.849
46821W        W10589  37.467  38.061  10.582
46822W        W10590  22.706  21.520  11.114
46823W        W10591  12.316  37.886  10.514
46824W        W10592  30.605  34.016  10.931
46825W        W10593  17.306   8.382   1.840
46826W        W10594   7.267  34.056  10.519
46827W        W10595   8.303  39.555  12.948
46828W        W10596  33.477  27.583   1.907
46829W        W10597  27.151  21.020   0.273
46830W        W10598  33.876  12.668   4.774
46831W        W10599   1.787  26.958  13.436
46832W        W10600   3.362  19.664  11.957
46833W        W10601  20.720   1.299  14.003
46834W        W10602  34.610  17.783   5.655
46835W        W10603  27.167   1.913  13.331
46836W        W10604  14.711   7.412  12.036
46837W        W10605  26.092  30.519   2.312
46838W        W10606  34.369  32.911   3.342
46839W        W10607  27.039  35.380  11.862
46840W        W10608   3.883  34.410   5.302
46841W        W10609  35.439  37.965  13.964
46842W        W10610  29.057  13.686  13.802
46843W        W10611  14.826  37.086  11.923
46844W        W10612  14.236   2.359  11.003
46845W        W10613   5.340  14.794  13.373
46846W        W10614   8.178  39.948  11.514
46847W        W10615  38.830  31.598   2.331
46848W        W10616  10.302  16.236   4.602
46849W        W10617  13.285  29.110  14.942
46850W        W10618  22.600  44.845  11.910
46851W        W10619  20.679  24.700   1.222
46852W        W10620  27.026   2.331   1.733
46853W        W10621  17.071  11.766  14.999
46854W        W10622  34.866  15.271   3.200
46855W        W10623   5.417   7.865   0.393
46856W        W10624  12.289  28.464   1.406
46857W        W10625   8.790   0.356   4.153
46858W        W10626  32.564  43.336  12.922
46859W        W10627  15.589  12.318   5.200
46860W        W10628  36.009  44.431  11.449
46861W        W10629  14.270  35.382  11.074
46862W        W10630  38.963   5.225  11.101
46863W        W10631  36.864  25.697   2.735
46864W        W10632  43.820  14.154  12.997
46865W        W10633  26.097  23.158   0.943
46866W        W10634  17.216  33.935  13.832
46867W        W10635  33.015  14.795  11.076
46868W        W10636  20.274   4.330  12.964
46869W        W10637  38.864   0.394   1.798
46870W        W10638  31.034  18.557  10.582
46871W        W10639  29.576  18.597  12.519
46872W        W10640  14.172   8.223  12.392
46873W        W10641   0.884  24.087  11.989
46874W        W10642  20.545  18.573  12.831
46875W        W10643  18.077  34.919   4.149
46876W        W10644  43.938  10.733   1.339
46877W        W10645  35.087  15.819   0.841
46878W        W10646  22.562  43.974  12.070
46879W        W10647  15.230  11.277  13.039
46880W        W10648  29.109  37.526  12.844
46881W        W10649   4.238   8.364  12.340
46882W        W10650  18.614  32.506   4.241
46883W        W10651  36.370   7.367   0.907
46884W        W10652  27.961  27.138   5.192
46885W        W10653  16.105   4.893   2.672
46886W        W10654  23.150  27.647  11.556
46887W        W10655  24.704  21.688   3.188
46888W        W10656  17.070  26.139   5.170
46889W        W10657  21.077  16.710  12.455
46890W        W10658  42.798  37.936   2.707
46891W        W10659  28.185  37.978   4.754
46892W        W10660  27.567  18.073  14.516
46893W        W10661  29.564  21.701   3.820
46894W        W10662  21.594   8.283   3.786
46895W        W10663  23.668  31.460   3.652
46896W        W10664   1.369  16.781  11.611
46897W        W10665   7.294  30.589  12.516
46898W        W10666   6.412   9.334  14.809
46899W        W10667  23.491  22.537  10.409
46900W        W10668  18.620  34.966  11.091
46901W        W10669  17.231  10.705  14.807
46902W        W10670  43.296  37.858  13.510
46903W        W10671  33.105  37.002  12.926
46904W        W10672   5.199   0.472   1.876
46905W        W10673  11.697  44.956   4.770
46906W        W10674  44.345  30.614  10.087
46907W        W10675  27.451   7.313  12.350
46908W        W10676   2.326  22.128  13.929
46909W        W10677  28.145  27.502   9.997
46910W        W10678  29.086  32.520   0.316
46911W        W10679  29.628  35.055  10.539
46912W        W10680  13.632   8.735   3.645
46913W        W10681  28.987   4.877   1.776
46914W        W10682  28.955  42.420  11.933
46915W        W10683  42.857  11.352   1.710
46916W        W10684  19.659  16.227   3.836
46917W        W10685  36.532   1.968   1.238
46918W        W10686  27.164  22.530   4.315
46919W        W10687  25.028  26.509   1.925
46920W        W10688  28.176  12.733  14.480
46921W        W10689  33.515  26.004   3.222
46922W        W10690  29.449   1.456   3.770
46923W        W10691  12.327  30.630   4.314
46924W        W10692  41.947  23.095   4.832
46925W        W10693  23.134  14.759   1.252
46926W        W10694  38.996  33.025   3.345
46927W        W10695   3.829  25.988  14.391
46928W        W10696  44.913  22.600   0.758
46929W        W10697  16.582  38.877  12.891
46930W        W10698  13.216  43.287  13.407
46931W        W10699  10.363  21.259   3.258
46932W        W10700  32.895  37.357  12.881
46933W        W10701  24.599  12.682   1.449
46934W        W10702   2.465  12.767  13.847
46935W        W10703  21.701  28.645  12.954
46936W        W10704  31.608  20.046   9.676
46937W        W10705  29.516  29.017  13.382
46938W        W10706   3.767  44.411   1.285
46939W        W10707  17.293  16.639   2.759
46940W        W10708  22.093  43.377  13.038
46941W        W10709   0.359  26.038  10.484
46942W        W10710  42.830  28.994   0.765
46943W        W10711  20.062  33.619   1.298
46944W        W10712   4.259  32.495   3.718
46945W        W10713  38.378  12.161  11.404
46946W        W10714  37.028  12.248  12.909
46947W        W10715   5.293  10.658   0.763
46948W        W10716  12.768  36.503   2.180
46949W        W10717  26.029  32.609   2.740
46950W        W10718  31.634  32.548   0.951
46951W        W10719  25.162  24.226  12.418
46952W        W10720  31.636  26.139   0.344
46953W        W10721  14.278  24.152  12.893
46954W        W10722  23.552   8.267  12.386
46955W        W10723  43.928   2.362   3.706
46956W        W10724  41.342  38.448  14.275
46957W        W10725  32.954  25.637  13.317
46958W        W10726  24.567  23.088   4.168
46959W        W10727  30.511  37.076  13.356
46960W        W10728  30.937  11.288  10.015
46961W        W10729   4.901  36.058  12.354
46962W        W10730  44.892  24.020  13.375
46963W        W10731  26.596   9.751   3.378
46964W        W10732   6.287  13.232  13.945
46965W        W10733  11.667   0.914  12.415
46966W        W10734  15.633  38.958   0.346
46967W        W10735   6.700   7.673  13.930
46968W        W10736  30.609  19.709   1.927
46969W        W10737  23.149  11.187   1.839
46970W        W10738  25.162  44.954   2.768
46971W        W10739  42.914   2.887  10.566
46972W        W10740  21.075  27.169   4.605
46973W        W10741   9.850  18.291  11.525
46974W        W10742   7.807  36.092  12.509
46975W        W10743  37.441  23.236  12.832
46976W        W10744   1.831  42.972  12.849
46977W        W10745  44.504   6.874  14.838
46978W        W10746  30.128  14.638  14.031
46979W        W10747   2.235  37.874  14.512
46980W        W10748  29.065  10.184   1.224
46981W        W10749   7.209  16.223  13.945
46982W        W10750  30.133  25.129   0.743
46983W        W10751  41.923  28.563   2.718
46984W        W10752  34.524   9.337   5.271
46985W        W10753   3.820  39.441   1.347
46986W        W10754  33.470  25.613   0.386
46987W        W10755  23.102  43.969  10.986
46988W        W10756  14.698   0.879  10.940
46989W        W10757   2.738   7.412  12.061
46990W        W10758   4.842  35.570  10.031
46991W        W10759   9.342  34.544  10.950
46992W        W10760  12.176   2.256   3.380
46993W        W10761  16.116  15.088  11.592
46994W        W10762   6.921  20.633   4.210
46995W        W10763   6.427  38.502   2.757
46996W        W10764   0.396  29.534   3.806
46997W        W10765  22.057  10.336  12.472
46998W        W10766  18.146  36.379  11.025
46999W        W10767  32.582  22.690   3.323
47000W        W10768  11.229  27.606   0.913
47001W        W10769  25.662   8.401  14.380
47002W        W10770   5.405  22.006   0.869
47003W        W10771  44.959  35.865   4.616
47004W        W10772  13.179  43.849   4.239
47005W        W10773  39.431   6.408  14.970
47006W        W10774  11.313  36.970   2.394
47007W        W10775   1.296  20.034  10.906
47008W        W10776   6.362  40.401  10.947
47009W        W10777  30.608  27.978  10.998
47010W        W10778  34.417  32.137  14.948
47011W        W10779  11.685  31.488  11.977
47012W        W10780  43.490   3.737   2.396
47013W        W10781  29.944  21.727  11.461
47014W        W10782   5.324   6.296   1.366
47015W        W10783  40.370  17.579   3.806
47016W        W10784  28.437  12.279   1.301
47017W        W10785  28.636   0.871   4.635
47018W        W10786  34.942  13.130   0.368
47019W        W10787  29.076  18.116  11.401
47020W        W10788  20.625  14.149   0.946
47021W        W10789  14.729  20.591  11.546
47022W        W10790   1.335  35.044  14.027
47023W        W10791  37.896  32.610  11.971
47024W        W10792  27.024   8.241   0.837
47025W        W10793  28.596  22.054   4.653
47026W        W10794  22.052  14.749  13.872
47027W        W10795  31.987  25.468  15.000
47028W        W10796  11.312  44.787  14.019
47029W        W10797  30.163  32.081  10.528
47030W        W10798  11.135  21.564   0.872
47031W        W10799   4.805  11.187   5.215
47032W        W10800   0.374  40.529   2.750
47033W        W10801  40.804   5.421   3.755
47034W        W10802  37.410  15.134  12.050
47035W        W10803   7.274  29.031   4.353
47036W        W10804   3.264  25.168  11.543
47037W        W10805  11.213  31.620  13.973
47038W        W10806  23.193   8.820   0.280
47039W        W10807  32.623  35.914   4.637
47040W        W10808  20.240   4.266  13.510
47041W        W10809  39.047  32.969  11.513
47042W        W10810   0.967  41.348  12.450
47043W        W10811  21.214  20.235  14.286
47044W        W10812  21.057  26.101   2.364
47045W        W10813  32.088   2.778  12.972
47046W        W10814  13.208  38.006   2.340
47047W        W10815   0.423  34.556  11.909
47048W        W10816   3.911  26.969  12.034
47049W        W10817  19.070  39.909   1.238
47050W        W10818  39.934  26.692  10.578
47051W        W10819  19.098  22.642  10.987
47052W        W10820  44.339  28.085   5.182
47053W        W10821   1.331  14.666  14.020
47054W        W10822  33.915  16.084   2.716
47055W        W10823  31.015   9.784   1.702
47056W        W10824  15.227  44.470   1.819
47057W        W10825  33.023   8.809  13.943
47058W        W10826  22.735  28.536   4.183
47059W        W10827  22.033  41.294   0.307
47060W        W10828  29.005   8.803   4.658
47061W        W10829   7.322   1.890  12.869
47062W        W10830  13.773   0.253  11.002
47063W        W10831  17.288  32.564  10.625
47064W        W10832  13.105  25.992  13.995
47065W        W10833  35.494  34.455  12.430
47066W        W10834   2.240  42.997   3.733
47067W        W10835  36.527  26.075  10.939
47068W        W10836  17.075   1.977   3.364
47069W        W10837  33.081   9.714   1.294
47070W        W10838  21.581  17.084   1.434
47071W        W10839   7.216  13.612  11.969
47072W        W10840  43.382  24.577  14.975
47073W        W10841  28.944   5.732   2.880
47074W        W10842  32.421  13.636  14.773
47075W        W10843   6.737  43.365  13.930
47076W        W10844  14.240  25.995   4.677
47077W        W10845  36.967  34.428  12.549
47078W        W10846  20.594   5.320   3.319
47079W        W10847  11.624  14.793  12.931
47080W        W10848  18.065  24.212  13.536
47081W        W10849  22.642  28.677  13.320
47082W        W10850  15.721  12.678  12.863
47083W        W10851  22.235  32.897   3.242
47084W        W10852  25.031  11.156   4.694
47085W        W10853  11.764  24.697  12.094
47086W        W10854  30.924   5.342   4.602
47087W        W10855   6.358  39.865  11.023
47088W        W10856  18.157   6.326  10.909
47089W        W10857  35.052  21.108   0.754
47090W        W10858  18.626   6.778   2.403
47091W        W10859   5.908  36.542  10.476
47092W        W10860   1.780  15.819  13.401
47093W        W10861   0.430  15.281   1.418
47094W        W10862   4.396  19.585  10.414
47095W        W10863  26.696  43.494  12.870
47096W        W10864  42.526   8.247  13.976
47097W        W10865   9.393  25.120   3.761
47098W        W10866  33.975  20.170  14.454
47099W        W10867  26.687  41.004   1.737
47100W        W10868  13.259  26.138  12.493
47101W        W10869  33.917  13.242   0.831
47102W        W10870   9.741   9.178   2.219
47103W        W10871  27.545  39.861   1.819
47104W        W10872  39.445  16.686   1.726
47105W        W10873   8.789  26.598   3.221
47106W        W10874  14.622  31.048   1.905
47107W        W10875  25.635  14.165   3.707
47108W        W10876  27.185  38.049   0.356
47109W        W10877  35.046  13.778  12.477
47110W        W10878  36.967  14.737  14.917
47111W        W10879  44.392  42.328   3.283
47112W        W10880  36.559  18.112  12.069
47113W        W10881  41.512   8.225   1.344
47114W        W10882  31.092  24.036  11.528
47115W        W10883  16.597  23.521   3.227
47116W        W10884  44.919   3.822   3.640
47117W        W10885  29.921   3.266   4.605
47118W        W10886  10.296  18.235   1.734
47119W        W10887  10.178  17.723   3.193
47120W        W10888  36.001  40.405  11.081
47121W        W10889  32.956   6.782   3.727
47122W        W10890  11.776   8.370  13.048
47123W        W10891  23.022   4.800  14.761
47124W        W10892  34.390  27.035  14.925
47125W        W10893  12.788  41.293   0.473
47126W        W10894   3.851  20.767   0.758
47127W        W10895  37.075   4.828   2.324
47128W        W10896  42.479  28.489   0.432
47129W        W10897  37.833  25.615  11.904
47130W        W10898  34.973  40.357   1.923
47131W        W10899  32.540  42.008  13.019
47132W        W10900  39.848  44.983   4.800
47133W        W10901  28.489  35.384   2.679
47134W        W10902  40.939   8.370  12.378
47135W        W10903  23.145  16.589   4.685
47136W        W10904  11.722  12.846  14.362
47137W        W10905  13.233  43.396  12.008
47138W        W10906   5.807  38.984   1.777
47139W        W10907  22.724  15.611   5.085
47140W        W10908   7.263  27.981   0.423
47141W        W10909  13.208  41.817   0.899
47142W        W10910   7.319  35.069  10.928
47143W        W10911   2.883   2.909  13.389
47144W        W10912  43.013   8.406   2.796
47145W        W10913  11.708  39.390   1.835
47146W        W10914  43.969  25.598  14.453
47147W        W10915  23.106  25.596   0.294
47148W        W10916  12.177  31.416  11.487
47149W        W10917   3.332   1.444   1.746
47150W        W10918   1.401  16.293   2.180
47151W        W10919   0.873  34.381  11.958
47152W        W10920   2.777   2.741   4.811
47153W        W10921   5.912  41.375  13.425
47154W        W10922  30.988  22.551  11.400
47155W        W10923   3.875   2.808  14.434
47156W        W10924  27.193   5.267   0.876
47157W        W10925  20.639  41.353  13.384
47158W        W10926  26.047  41.787   0.438
47159W        W10927  44.860   7.314  10.476
47160W        W10928   0.471  14.717  10.896
47161W        W10929  10.267  21.563   2.264
47162W        W10930  13.334   3.350   0.812
47163W        W10931  38.890   3.221  13.871
47164W        W10932  36.985  20.168  13.522
47165W        W10933  10.163  31.917   5.160
47166W        W10934  36.497   3.364   0.466
47167W        W10935  44.843  13.217   1.301
47168W        W10936   4.377  22.058  12.003
47169W        W10937  12.174  10.381  14.870
47170W        W10938  35.447  15.689  10.474
47171W        W10939  39.540  39.375  10.892
47172W        W10940  31.951  35.490  12.554
47173W        W10941  25.575  37.345  13.399
47174W        W10942  11.358  33.509   4.613
47175W        W10943  28.072  13.634   2.690
47176W        W10944  33.464  34.062   0.918
47177W        W10945  37.428  23.690  10.113
47178W        W10946  30.577  14.697   0.367
47179W        W10947   3.904  39.535  13.033
47180W        W10948  38.048  37.443   2.874
47181W        W10949  20.176   3.881  12.431
47182W        W10950  34.892  29.541   3.357
47183W        W10951  12.279  38.449   1.838
47184W        W10952  22.227   8.685  14.788
47185W        W10953  13.163   3.350  13.503
47186W        W10954  17.672  22.582   1.809
47187W        W10955  39.006  18.706   2.743
47188W        W10956   3.351  41.892  12.891
47189W        W10957  17.581   5.933   0.243
47190W        W10958  32.404  26.593  11.993
47191W        W10959  36.544  42.907   2.362
47192W        W10960  41.875  38.890  13.364
47193W        W10961  15.223  17.101  12.543
47194W        W10962  13.332  21.607   4.289
47195W        W10963  42.401  22.029   3.783
47196W        W10964   5.768  42.898   5.182
47197W        W10965  38.336   3.828   3.806
47198W        W10966  17.746  14.741  12.939
47199W        W10967   2.381  26.495   1.440
47200W        W10968  41.838  10.156   0.898
47201W        W10969  11.318   1.425   1.737
47202W        W10970  25.208  41.932  13.368
47203W        W10971  16.635  32.029   9.956
47204W        W10972   8.691  24.622   0.354
47205W        W10973  28.476   8.162   0.285
47206W        W10974   8.717  12.737  13.035
47207W        W10975  24.718  24.090   2.183
47208W        W10976  40.458  28.127  12.427
47209W        W10977  12.688  35.030   2.388
47210W        W10978  44.281   8.681  14.474
47211W        W10979   4.891   0.756   4.668
47212W        W10980  17.175  42.300   0.353
47213W        W10981  22.164  24.194   3.865
47214W        W10982   3.791  32.117  14.500
47215W        W10983   3.715  13.646   1.299
47216W        W10984  15.692  41.011  14.774
47217W        W10985  28.651  13.777   2.338
47218W        W10986   8.400  27.521   3.241
47219W        W10987  40.362  28.565   2.260
47220W        W10988  38.060  24.574  13.030
47221W        W10989   2.256  18.576  12.462
47222W        W10990  27.019   4.292   1.816
47223W        W10991   0.435  38.907  10.615
47224W        W10992  10.160  41.446   9.946
47225W        W10993  35.417  37.045  12.037
47226W        W10994  32.590  23.180  10.929
47227W        W10995  18.684  12.190   2.821
47228W        W10996  35.436  33.613  14.872
47229W        W10997   6.862  13.118  13.508
47230W        W10998  19.715   6.809   1.225
47231W        W10999  24.130  30.002  12.430
47232W        W11000  31.964  23.625  10.614
47233W        W11001  11.711   8.383  11.598
47234W        W11002  18.787  15.656  10.434
47235W        W11003  28.681  42.398  11.996
47236W        W11004   7.865  38.330   4.773
47237W        W11005  24.642  19.554  14.407
47238W        W11006   1.852   3.317  11.602
47239W        W11007  34.058  30.621   4.701
47240W        W11008  36.909   9.164   0.431
47241W        W11009  21.685  44.471   9.942
47242W        W11010  28.938  14.176  11.926
47243W        W11011   4.702  16.718  13.926
47244W        W11012   1.264   3.762  13.943
47245W        W11013  36.993  12.181   4.802
47246W        W11014  24.103   0.772  14.863
47247W        W11015  24.974  15.189   1.735
47248W        W11016  23.507  24.147  13.418
47249W        W11017  37.378   3.737   2.735
47250W        W11018   8.746   9.644   0.287
47251W        W11019  30.602  22.616  11.971
47252W        W11020  30.412   2.335  11.007
47253W        W11021   9.229   5.414  10.418
47254W        W11022  11.783   8.671  11.577
47255W        W11023  22.218  38.848   2.356
47256W        W11024   0.980  32.547  12.834
47257W        W11025   6.894  34.904  14.980
47258W        W11026  33.011  40.965  14.027
47259W        W11027  19.590   5.299  13.049
47260W        W11028   8.307  18.644  11.040
47261W        W11029   2.324   5.195  11.855
47262W        W11030  15.637  25.113   1.822
47263W        W11031  27.487  24.048   1.212
47264W        W11032  22.721   1.818  10.524
47265W        W11033  36.095  43.008   4.317
47266W        W11034   4.280  15.604  11.872
47267W        W11035  23.988   2.247  10.897
47268W        W11036   8.162   9.676  13.906
47269W        W11037  32.541  26.162  12.383
47270W        W11038  18.590  25.114   3.658
47271W        W11039  43.775  23.219   3.377
47272W        W11040  37.416   6.686  11.052
47273W        W11041   1.240  42.289  11.001
47274W        W11042  42.290  22.513   0.415
47275W        W11043  44.449   9.171  10.152
47276W        W11044   2.409  41.042   3.782
47277W        W11045  31.955   0.345  12.972
47278W        W11046  41.976  25.655   3.651
47279W        W11047   7.244  33.561  12.515
47280W        W11048  34.433  32.596  10.962
47281W        W11049  25.696  36.967   1.891
47282W        W11050  21.177  35.064  12.534
47283W        W11051  18.100  38.366  10.915
47284W        W11052  37.439   4.409  11.952
47285W        W11053  36.570  39.052  10.561
47286W        W11054  21.062  20.240  13.320
47287W        W11055  11.247  14.241  14.484
47288W        W11056  24.675  23.191  11.607
47289W        W11057  25.582  33.891   1.289
47290W        W11058  44.816  20.153  13.462
47291W        W11059  28.463  29.006   2.314
47292W        W11060   8.777  30.432   1.247
47293W        W11061  36.445   5.855   0.324
47294W        W11062  17.278   7.739  10.984
47295W        W11063  17.186  11.308  13.534
47296W        W11064   6.396   9.776  14.300
47297W        W11065  30.641  43.310   3.723
47298W        W11066  24.059  15.581  10.472
47299W        W11067   1.962  12.667   3.660
47300W        W11068  34.607  23.016   4.660
47301W        W11069   4.890  31.027  14.319
47302W        W11070  41.795  17.160  14.439
47303W        W11071  13.835   4.738  13.015
47304W        W11072  16.590  21.555   3.329
47305W        W11073  10.293  33.005  11.529
47306W        W11074  13.173  36.485   0.306
47307W        W11075  21.669  29.144  11.930
47308W        W11076  22.234  32.996  11.046
47309W        W11077  13.309  40.010  12.533
47310W        W11078  31.948  29.984   4.162
47311W        W11079   3.745   8.654  11.052
47312W        W11080  31.141   0.916   0.294
47313W        W11081  32.470  32.080   4.291
47314W        W11082  38.454  29.097   2.287
47315W        W11083  13.335   6.882   1.409
47316W        W11084  37.513   2.735   2.377
47317W        W11085  35.865  37.902   0.299
47318W        W11086   5.403  18.054  10.452
47319W        W11087  31.588  39.891  12.545
47320W        W11088  15.304  25.630  12.858
47321W        W11089  43.794  11.741  11.034
47322W        W11090  36.923   3.830   4.245
47323W        W11091  28.084  10.356   1.786
47324W        W11092  23.718  23.571  14.954
47325W        W11093   3.388  21.147  13.498
47326W        W11094  16.083  40.459  14.416
47327W        W11095  17.259  23.536  13.897
47328W        W11096   6.828  21.566   1.794
47329W        W11097  13.256  17.205  12.965
47330W        W11098  19.545  36.526   2.357
47331W        W11099  19.611  12.852  14.804
47332W        W11100  20.191  27.011  12.505
47333W        W11101  16.227  44.779  13.428
47334W        W11102  24.667  24.673   0.905
47335W        W11103  24.576  43.382  14.489
47336W        W11104  34.937  32.586   2.813
47337W        W11105  38.439   1.361  12.366
47338W        W11106  25.506  22.063   0.426
47339W        W11107  40.932  23.724   4.120
47340W        W11108  12.834  13.316   5.651
47341W        W11109   1.409  42.847  12.084
47342W        W11110  28.958  23.735  13.390
47343W        W11111  39.866   2.379   2.272
47344W        W11112  31.636  42.318  11.076
47345W        W11113  39.878  14.279   1.829
47346W        W11114  25.159  34.100   1.385
47347W        W11115  35.522  35.077  11.089
47348W        W11116  21.228  17.789   5.275
47349W        W11117  22.996  44.488  13.906
47350W        W11118  36.528   3.452  10.639
47351W        W11119  14.787   5.433  10.951
47352W        W11120  10.781  14.825  11.875
47353W        W11121   9.689  25.616   2.899
47354W        W11122   4.280  40.814  14.955
47355W        W11123   2.829  40.818  13.538
47356W        W11124  25.661   6.769   4.119
47357W        W11125  28.560  27.643   0.450
47358W        W11126  38.874  42.335  14.511
47359W        W11127   4.347   2.394  12.565
47360W        W11128  43.307  43.941   1.257
47361W        W11129  27.544  25.052   0.751
47362W        W11130  11.235  35.507   3.372
47363W        W11131  19.074  25.016   1.420
47364W        W11132  36.552  28.645  12.492
47365W        W11133  17.587  11.176  14.410
47366W        W11134  38.474  15.085   3.836
47367W        W11135  22.585  40.848  13.467
47368W        W11136  22.194  21.185  14.872
47369W        W11137  12.754  36.533   1.284
47370W        W11138  25.015  12.154   3.813
47371W        W11139   8.778  10.265  11.544
47372W        W11140  43.860   8.161  13.464
47373W        W11141  18.064  16.251  10.929
47374W        W11142  24.137  37.483   2.763
47375W        W11143  10.713  13.137   4.159
47376W        W11144  37.468  17.766  12.084
47377W        W11145  27.636  15.684   0.286
47378W        W11146  21.629  15.113   1.257
47379W        W11147  32.607  12.320  10.518
47380W        W11148  11.320  43.446   4.168
47381W        W11149  31.087  24.480   3.808
47382W        W11150  26.147  15.788   2.216
47383W        W11151   0.437  42.514   3.744
47384W        W11152  34.601   9.852   4.207
47385W        W11153  37.022   8.832   9.944
47386W        W11154  19.569  20.063  14.956
47387W        W11155  21.701  16.095  12.487
47388W        W11156   7.794  12.792   2.203
47389W        W11157  11.653  26.503  12.998
47390W        W11158  33.625   8.718   5.177
47391W        W11159  29.063  14.607  14.323
47392W        W11160   0.339  40.906   2.665
47393W        W11161  36.508  19.543   3.656
47394W        W11162  37.514  30.467  14.296
47395W        W11163  26.967  33.020   1.302
47396W        W11164  30.965  18.108   0.807
47397W        W11165   4.896  30.634   3.185
47398W        W11166  25.040  33.981   0.788
47399W        W11167  24.073  35.603  10.115
47400W        W11168  16.123  24.091   2.672
47401W        W11169   3.216  30.610   4.317
47402W        W11170  23.510  23.725   2.800
47403W        W11171  33.125   2.323  14.969
47404W        W11172  38.465  42.887   0.437
47405W        W11173  16.211  19.614  13.826
47406W        W11174  22.503   2.786   3.797
47407W        W11175  20.656  19.738   1.253
47408W        W11176   9.730  25.635  13.397
47409W        W11177  17.631  19.066  10.464
47410W        W11178  23.732  10.665  11.858
47411W        W11179  41.525  24.707   4.822
47412W        W11180  37.579  16.573  14.819
47413W        W11181  36.013   9.315  14.325
47414W        W11182   2.900  17.206  13.309
47415W        W11183  13.753  41.396  14.471
47416W        W11184  29.155  23.145  11.866
47417W        W11185  32.623  35.970   4.114
47418W        W11186  16.652  31.582  13.826
47419W        W11187  31.982   5.814   1.804
47420W        W11188  39.365  33.422   5.102
47421W        W11189  25.526   5.731   0.959
47422W        W11190  12.291  38.849   4.785
47423W        W11191  20.087   9.692   4.195
47424W        W11192  34.964   7.681   3.845
47425W        W11193  20.588  27.646   1.729
47426W        W11194   4.369  34.501  14.782
47427W        W11195  34.905  33.609  11.002
47428W        W11196  14.181  33.049  13.036
47429W        W11197  12.736  20.040  11.437
47430W        W11198  18.153  35.457   4.306
47431W        W11199   8.322   6.348  13.922
47432W        W11200  35.996  29.638   4.838
47433W        W11201  32.632  14.635   0.441
47434W        W11202   1.973  12.723  13.460
47435W        W11203  40.011  41.892   3.381
47436W        W11204  18.748  19.610   0.379
47437W        W11205  13.348  23.661   3.785
47438W        W11206   8.802  43.913  13.824
47439W        W11207  29.635   9.351   0.464
47440W        W11208  19.594   3.219   0.864
47441W        W11209  29.523  13.693  13.892
47442W        W11210  20.576  17.745  13.830
47443W        W11211  37.024  23.211  14.506
47444W        W11212   1.959   8.247   1.828
47445W        W11213  19.609  44.337   1.828
47446W        W11214  17.591  35.424  12.525
47447W        W11215   9.698  42.288   4.800
47448W        W11216  19.070   4.894   3.244
47449W        W11217  39.380  33.434   0.771
47450W        W11218  36.556  25.193  12.475
47451W        W11219  23.534  38.506   1.405
47452W        W11220   1.249  28.077  11.548
47453W        W11221  32.139  17.796  12.876
47454W        W11222  11.292  28.994   2.375
47455W        W11223  39.431  14.108   5.199
47456W        W11224  24.984  24.102  14.926
47457W        W11225   7.191  31.475   4.246
47458W        W11226  30.498  20.117  14.333
47459W        W11227  31.455   0.910   2.690
47460W        W11228  32.083  41.471   0.816
47461W        W11229  15.670  35.057   0.269
47462W        W11230  24.504  11.217   5.232
47463W        W11231  23.230  35.511  14.861
47464W        W11232  10.819  35.580  14.370
47465W        W11233  14.606   8.770   3.680
47466W        W11234  22.008  27.135   3.751
47467W        W11235   9.185   3.772  12.908
47468W        W11236  26.001   5.735   3.739
47469W        W11237  32.530   0.335  11.377
47470W        W11238  17.592  25.163  14.803
47471W        W11239   3.732   6.895  14.856
47472W        W11240  27.112  12.732  14.400
47473W        W11241  22.189  17.173  14.361
47474W        W11242   6.427  16.164   4.794
47475W        W11243  36.882  40.941   1.404
47476W        W11244  24.055  34.003  10.997
47477W        W11245   9.833  30.451  11.111
47478W        W11246  14.595  19.234   4.248
47479W        W11247  35.525   1.385  14.461
47480W        W11248  39.947   5.822  10.485
47481W        W11249  39.948  33.882  14.424
47482W        W11250  31.939   0.319   0.906
47483W        W11251  40.848  44.856  14.473
47484W        W11252   3.368  18.062  13.006
47485W        W11253  22.172   8.666   2.195
47486W        W11254   2.859  33.070  13.942
47487W        W11255  17.109   3.299   2.288
47488W        W11256  13.622  35.861  11.958
47489W        W11257  37.406  41.985  11.939
47490W        W11258   5.197  26.510   1.923
47491W        W11259  31.030  26.514  13.000
47492W        W11260   8.339   0.261   0.746
47493W        W11261  10.755  38.393   0.908
47494W        W11262  39.343  39.329   3.165
47495W        W11263  22.217  10.198   4.292
47496W        W11264  31.438  19.151  13.400
47497W        W11265   8.794  42.990   2.782
47498W        W11266   6.910  42.350  13.956
47499W        W11267  30.483  26.014  12.844
47500W        W11268  35.568  43.293   3.209
47501W        W11269  44.361  29.957   4.614
47502W        W11270   3.416  28.516  11.955
47503W        W11271   5.257  34.486   4.678
47504W        W11272   3.444   7.701   2.331
47505W        W11273  25.519  23.521  12.002
47506W        W11274  27.197  17.608  11.104
47507W        W11275  26.606  43.462   4.219
47508W        W11276  24.225   7.677   3.716
47509W        W11277   1.444   4.234   4.282
47510W        W11278  31.441  17.666   3.304
47511W        W11279   5.717  28.516   2.689
47512W        W11280  32.548  12.771   4.729
47513W        W11281  19.644  33.916   0.906
47514W        W11282  17.734  13.270  13.926
47515W        W11283   3.946  22.172  14.941
47516W        W11284  35.866  37.557   2.361
47517W        W11285  16.298   8.720  10.989
47518W        W11286  32.964   9.267  11.581
47519W        W11287  16.226   7.805   0.898
47520W        W11288  10.663  11.292   0.766
47521W        W11289  24.056  40.916   2.841
47522W        W11290  35.473  40.388  14.323
47523W        W11291  13.826  30.543  14.764
47524W        W11292  40.970  12.353   4.291
47525W        W11293  38.475  42.372   0.747
47526W        W11294   5.433  16.620  13.956
47527W        W11295  14.150  34.877   3.821
47528W        W11296  17.601  27.569   3.677
47529W        W11297  10.307  38.968  10.956
47530W        W11298   0.852   0.432   3.379
47531W        W11299  37.076  19.668   4.116
47532W        W11300   9.306  23.155   0.767
47533W        W11301   8.402  33.546  13.822
47534W        W11302  15.637  41.986   2.889
47535W        W11303  33.029  34.558   1.380
47536W        W11304  15.803   4.312   3.370
47537W        W11305   7.689  41.317   2.763
47538W        W11306  15.149  24.602   3.655
47539W        W11307  26.170  44.483   3.867
47540W        W11308  43.805   7.282   2.337
47541W        W11309  36.069   8.764   1.372
47542W        W11310  26.176  23.597   2.349
47543W        W11311   9.190  14.695  14.826
47544W        W11312  25.581  40.841   4.119
47545W        W11313  30.953  29.156  10.994
47546W        W11314  10.273  14.105  11.535
47547W        W11315   3.348  23.193  12.497
47548W        W11316  27.099   0.329  10.889
47549W        W11317  42.005  26.641   4.608
47550W        W11318  36.355  39.850   1.265
47551W        W11319  35.060  24.666   2.234
47552W        W11320  34.968  36.549  12.493
47553W        W11321  31.114  42.908  10.993
47554W        W11322   6.680  10.659   0.413
47555W        W11323   4.340  16.283   1.818
47556W        W11324  31.124  17.145  13.040
47557W        W11325  10.181  29.656  14.393
47558W        W11326  24.632   5.851   3.164
47559W        W11327   9.293   6.713  11.426
47560W        W11328  38.333  14.601  11.377
47561W        W11329  23.985  24.219  13.334
47562W        W11330  25.158  24.216  13.996
47563W        W11331  33.513  34.533   0.866
47564W        W11332  41.839  15.218   4.683
47565W        W11333  14.222  33.937   4.626
47566W        W11334  19.692  23.538  11.395
47567W        W11335  27.610  26.516  12.502
47568W        W11336  24.706   5.377   2.701
47569W        W11337  37.904  31.912  12.921
47570W        W11338  11.233  25.589   1.831
47571W        W11339  42.288  17.139  11.556
47572W        W11340  23.722  13.248   5.321
47573W        W11341  30.635  11.722  13.454
47574W        W11342  13.218  44.498   5.288
47575W        W11343  13.634  19.180   3.751
47576W        W11344  29.951  13.680  11.066
47577W        W11345  10.807  15.647   4.770
47578W        W11346  10.721   4.409  10.524
47579W        W11347  38.494  37.835   1.307
47580W        W11348  22.239  42.860   0.419
47581W        W11349  26.107  33.576   0.429
47582W        W11350  32.533   4.239   3.167
47583W        W11351  24.525  20.036   2.821
47584W        W11352   4.874  34.601  12.902
47585W        W11353   7.202  19.677   0.428
47586W        W11354  44.865  20.569   4.204
47587W        W11355  40.356   6.230  12.039
47588W        W11356  10.337   8.880   1.887
47589W        W11357  44.897  28.502   3.695
47590W        W11358   6.250  12.760  11.861
47591W        W11359  16.273  28.182  11.417
47592W        W11360  11.828  36.034   1.219
47593W        W11361  17.191   6.874  13.912
47594W        W11362  34.086  10.159   2.243
47595W        W11363  27.605   6.826   0.772
47596W        W11364  14.306  30.640   0.275
47597W        W11365  19.581  41.329  11.991
47598W        W11366  21.602  44.756   2.415
47599W        W11367  14.810  32.128  10.482
47600W        W11368  39.927  38.405   0.805
47601W        W11369  12.636  31.072  11.518
47602W        W11370  37.853  15.740   2.358
47603W        W11371   0.399   0.742   2.346
47604W        W11372   5.836  32.468  13.001
47605W        W11373  27.551  41.932   4.666
47606W        W11374  30.499  36.853  11.076
47607W        W11375  21.093   3.774  10.625
47608W        W11376  42.990   0.400   2.332
47609W        W11377   0.787  41.883   4.741
47610W        W11378  18.207  28.985  11.503
47611W        W11379  38.331  42.866   2.723
47612W        W11380  35.026  35.460  12.523
47613W        W11381  39.048   0.346  12.490
47614W        W11382  40.315  21.649  12.379
47615W        W11383  36.438  26.001   0.265
47616W        W11384  41.347  15.600  13.935
47617W        W11385   9.844  19.047   0.782
47618W        W11386  33.996  41.872  11.912
47619W        W11387   2.378  16.294   4.282
47620W        W11388   5.805  27.692  13.821
47621W        W11389  19.592   7.772  11.073
47622W        W11390  21.062  29.640  13.535
47623W        W11391   6.255  42.879   3.148
47624W        W11392  34.083  39.356   4.666
47625W        W11393  19.762  41.369   0.391
47626W        W11394  22.690   1.942   2.789
47627W        W11395  13.645  23.523   1.394
47628W        W11396  20.273  14.127   3.289
47629W        W11397   5.724  33.567  13.370
47630W        W11398   3.908  44.848  11.544
47631W        W11399  29.047   2.468  14.426
47632W        W11400  25.999  33.126   2.743
47633W        W11401   1.474  27.999   3.230
47634W        W11402  40.309  37.943   4.290
47635W        W11403  29.141  30.149  12.982
47636W        W11404   7.856  11.674   0.897
47637W        W11405  25.964  35.982  13.402
47638W        W11406   2.961   2.376   2.304
47639W        W11407  41.009  31.447  14.997
47640W        W11408  25.030  22.059   2.354
47641W        W11409  39.353  27.001   3.244
47642W        W11410   7.298  42.905  14.409
47643W        W11411  20.226  19.608   5.213
47644W        W11412  43.338   4.854  14.839
47645W        W11413  32.571  37.948   3.789
47646W        W11414  38.901  24.583   0.790
47647W        W11415  41.516  22.076   3.153
47648W        W11416  23.709  13.740  14.483
47649W        W11417  16.204  26.072  13.880
47650W        W11418  40.881  41.838   3.326
47651W        W11419  16.081   7.179  10.534
47652W        W11420  18.598  24.560   4.213
47653W        W11421  11.796   4.744   3.824
47654W        W11422  44.487  16.700   3.223
47655W        W11423  28.995  42.859  13.940
47656W        W11424  13.699  25.548   0.392
47657W        W11425  32.432  23.501   3.204
47658W        W11426  33.071  26.639  10.054
47659W        W11427  15.771  17.164  11.067
47660W        W11428  36.040  43.776   1.793
47661W        W11429  28.666  24.638   0.261
47662W        W11430  22.686   4.282   0.465
47663W        W11431   3.226  35.582  11.004
47664W        W11432  26.001  25.498  11.923
47665W        W11433  44.874  23.053  13.452
47666W        W11434  28.080   8.852  14.404
47667W        W11435   1.245  42.365  14.904
47668W        W11436  38.542  44.376   4.814
47669W        W11437  22.142  36.587   1.926
47670W        W11438  24.724   1.891   1.358
47671W        W11439  25.029  43.945  12.892
47672W        W11440  22.609  27.672  11.916
47673W        W11441  42.487  30.432  12.369
47674W        W11442  17.629   7.275  11.445
47675W        W11443  41.870   7.784   1.818
47676W        W11444  23.151   1.385   3.262
47677W        W11445  21.694  40.928   0.283
47678W        W11446  19.048  32.509  10.953
47679W        W11447  34.074   1.431  13.901
47680W        W11448  43.515  29.452  13.918
47681W        W11449  37.517  31.512  12.451
47682W        W11450  32.023   7.293   2.385
47683W        W11451  40.816  38.969   4.256
47684W        W11452  26.565   4.713   1.252
47685W        W11453  11.309  41.381   0.314
47686W        W11454  21.203  30.971   1.833
47687W        W11455  35.036  12.825  11.117
47688W        W11456   0.962  17.694   2.807
47689W        W11457  20.747  36.942  11.107
47690W        W11458  20.038  44.842   0.257
47691W        W11459  17.136  40.477  13.385
47692W        W11460   6.887   8.211  13.502
47693W        W11461  23.110  16.702   1.389
47694W        W11462  10.250  36.367  10.111
47695W        W11463   3.764  21.252   1.798
47696W        W11464  24.543   3.790   0.428
47697W        W11465   7.782  31.487  12.970
47698W        W11466  17.610  13.808  13.437
47699W        W11467   4.449  19.693  12.522
47700W        W11468  36.375  38.383   0.812
47701W        W11469   8.829  23.044  14.368
47702W        W11470  30.453   2.865  11.521
47703W        W11471  16.628   1.918  14.496
47704W        W11472  10.166  26.473   0.752
47705W        W11473  41.914  23.567  10.949
47706W        W11474  21.703  33.497   4.821
47707W        W11475  34.033  10.747  10.894
47708W        W11476  22.508   2.237   1.388
47709W        W11477  17.168  16.136  12.088
47710W        W11478  33.569  17.072   2.895
47711W        W11479  22.567  42.302   0.336
47712W        W11480  34.484  42.375   1.734
47713W        W11481  43.368  39.426  13.906
47714W        W11482  27.606  39.809  10.404
47715W        W11483   9.790  15.690   4.311
47716W        W11484  25.533  27.655   2.260
47717W        W11485   2.257  12.192   2.191
47718W        W11486   2.331  10.231  14.303
47719W        W11487  31.913  36.992   0.459
47720W        W11488  21.544  18.691  11.970
47721W        W11489  16.136   2.332  12.901
47722W        W11490   4.363  38.518   4.768
47723W        W11491  10.634  12.629  13.803
47724W        W11492  10.381   9.888  12.528
47725W        W11493   1.834  40.498  10.494
47726W        W11494   8.884  35.935   3.211
47727W        W11495  44.358   2.442   0.861
47728W        W11496  44.970  33.458   0.964
47729W        W11497  19.748  44.410   1.386
47730W        W11498  41.500  27.678   2.416
47731W        W11499  16.150  35.467   1.765
47732W        W11500  37.998  24.142   1.853
47733W        W11501  10.324  25.496   5.298
47734W        W11502  32.526  17.118  11.857
47735W        W11503  16.238   6.217   2.240
47736W        W11504  16.750  30.648   3.775
47737W        W11505   3.890  37.971   3.832
47738W        W11506  40.046   1.284   0.772
47739W        W11507  15.675   1.311   2.292
47740W        W11508   6.279  38.515   0.858
47741W        W11509  19.613  19.220  12.912
47742W        W11510   8.833   6.359  14.929
47743W        W11511   9.879   1.891  10.464
47744W        W11512  16.079  35.924  10.456
47745W        W11513  36.960  22.163   2.189
47746W        W11514  20.094  40.351   0.747
47747W        W11515  20.267  16.221   2.262
47748W        W11516  44.298   7.392   9.970
47749W        W11517  16.195  39.444  11.969
47750W        W11518  21.229  42.955   1.934
47751W        W11519   1.755  15.713   4.806
47752W        W11520  17.230  28.601   4.316
47753W        W11521   2.850  11.738   4.345
47754W        W11522  37.574  22.516   1.704
47755W        W11523  26.021  35.526   0.242
47756W        W11524  26.660  36.463  11.015
47757W        W11525   7.350   9.837   2.337
47758W        W11526  23.552   9.183   3.164
47759W        W11527   0.458  43.937  14.930
47760W        W11528  33.396   5.714   2.306
47761W        W11529   1.282  41.876   4.268
47762W        W11530   3.755   6.195  11.422
47763W        W11531   5.917  12.675   4.335
47764W        W11532  23.610  41.810   0.826
47765W        W11533  25.981  12.158   3.732
47766W        W11534  37.445  34.580  10.901
47767W        W11535   4.714  11.776   1.324
47768W        W11536  30.454  21.040  11.523
47769W        W11537  28.532  34.525  11.975
47770W        W11538  33.559   7.754  10.424
47771W        W11539  17.078  34.952  12.973
47772W        W11540  31.983  26.474   5.163
47773W        W11541  16.706  34.970  14.024
47774W        W11542  40.482  11.323   4.148
47775W        W11543   7.295  23.611   0.731
47776W        W11544  29.515  14.780   2.212
47777W        W11545  44.414  31.542   1.228
47778W        W11546   0.757  27.549   0.398
47779W        W11547  15.651   7.669  11.075
47780W        W11548  44.426   3.711  14.802
47781W        W11549  17.147  33.394   1.927
47782W        W11550  17.680   2.381   0.413
47783W        W11551  15.816  14.647   1.329
47784W        W11552  36.930  15.218  10.919
47785W        W11553  12.252   3.390   1.280
47786W        W11554  23.035  26.957  11.093
47787W        W11555  28.987  36.089   1.299
47788W        W11556  32.977  21.656   1.799
47789W        W11557  10.753  18.713   2.187
47790W        W11558  41.315  42.462  14.447
47791W        W11559   0.899  11.289   3.286
47792W        W11560  34.377  17.082  11.871
47793W        W11561  33.461   7.402  11.991
47794W        W11562  20.522   1.776  10.509
47795W        W11563  18.690  26.687   4.137
47796W        W11564   7.252   7.894   1.347
47797W        W11565   8.296  32.581   2.837
47798W        W11566   9.383  16.128  14.329
47799W        W11567  41.355   4.386  10.546
47800W        W11568  20.618   6.923  12.016
47801W        W11569   1.933  42.458   0.754
47802W        W11570  27.952  27.459   2.396
47803W        W11571  13.155  40.385  12.425
47804W        W11572  22.661   3.841   4.271
47805W        W11573  30.613  11.357  11.565
47806W        W11574  37.450  34.015  13.448
47807W        W11575  17.641   0.419   2.401
47808W        W11576  15.822  10.804  14.330
47809W        W11577   0.417  12.783   2.307
47810W        W11578  34.010  26.546   4.645
47811W        W11579  10.147   9.759  10.571
47812W        W11580   9.344  15.157  12.065
47813W        W11581  12.625   7.719  12.515
47814W        W11582  20.697  20.112  13.382
47815W        W11583   3.731  35.939  13.359
47816W        W11584   1.256  38.844  14.829
47817W        W11585  10.160  37.437  13.362
47818W        W11586  36.361  24.207  12.858
47819W        W11587  32.591  43.346   4.316
47820W        W11588  12.728  19.219  14.975
47821W        W11589   1.903  40.043  11.108
47822W        W11590   6.735  27.045   1.432
47823W        W11591  32.913  44.435   1.446
47824W        W11592  16.091   1.785  10.894
47825W        W11593  40.359   9.216  12.561
47826W        W11594  41.419  42.344   2.786
47827W        W11595  43.369  35.100  13.981
47828W        W11596   1.445  27.135   0.279
47829W        W11597  22.053  20.167  12.875
47830W        W11598  21.232   7.881  11.937
47831W        W11599   5.919   4.752  14.356
47832W        W11600  25.032  16.193  13.311
47833W        W11601  33.561  35.953   3.360
47834W        W11602   5.257  44.470  13.488
47835W        W11603  33.936   1.869  12.354
47836W        W11604   3.292   3.371  13.415
47837W        W11605  19.722  34.979  14.830
47838W        W11606   3.725  10.751  10.991
47839W        W11607   0.783   2.851  13.465
47840W        W11608   1.474  16.806   1.279
47841W        W11609   2.949  22.671   1.893
47842W        W11610  37.394  35.992  13.443
47843W        W11611  39.855  22.585   2.296
47844W        W11612  30.558  14.164   1.850
47845W        W11613  43.429  11.625  12.425
47846W        W11614  43.972  31.580   0.807
47847W        W11615  26.546  34.548   0.727
47848W        W11616  37.005  29.997   0.922
47849W        W11617   1.249  43.464  10.914
47850W        W11618  31.105  25.061  14.971
47851W        W11619  27.542  10.748   4.307
47852W        W11620  44.365  20.586   3.255
47853W        W11621   0.261  19.103  12.433
47854W        W11622  11.288  30.048  14.478
47855W        W11623  42.459  12.720  12.523
47856W        W11624  38.409  26.591   0.921
47857W        W11625  18.544  15.296  13.908
47858W        W11626  19.053  28.136   3.640
47859W        W11627  21.205  14.269  11.913
47860W        W11628  17.740  11.202   4.601
47861W        W11629  43.830  27.094   3.172
47862W        W11630  10.709  17.671  11.116
47863W        W11631  10.735  44.355  14.358
47864W        W11632  41.868  39.431   4.825
47865W        W11633  16.615  27.991  10.510
47866W        W11634  23.137  15.604  13.494
47867W        W11635   8.379  40.844   1.863
47868W        W11636   3.729  18.104   0.294
47869W        W11637  16.239  38.427   1.776
47870W        W11638  36.844   4.914   3.269
47871W        W11639  14.171  29.667  12.541
47872W        W11640  23.115  23.012  12.408
47873W        W11641  44.445  23.180   0.359
47874W        W11642  17.741  21.063  11.408
47875W        W11643   0.837  42.367  11.889
47876W        W11644   3.381  40.889  14.461
47877W        W11645  10.176   1.364   2.371
47878W        W11646  14.189  29.100   1.849
47879W        W11647  37.514  39.972   2.347
47880W        W11648  22.209  33.880  14.889
47881W        W11649  34.533   4.343   0.908
47882W        W11650  25.575  15.288   3.337
47883W        W11651  18.151  27.524   1.830
47884W        W11652  33.964  39.463  13.015
47885W        W11653  14.141  20.189  10.594
47886W        W11654  44.854  41.482  11.398
47887W        W11655  13.838  28.531  11.554
47888W        W11656  29.941   5.897  14.362
47889W        W11657  37.039  40.799  13.829
47890W        W11658   6.427   1.803  13.845
47891W        W11659  25.068   4.340  10.626
47892W        W11660  31.140   2.768  11.036
47893W        W11661  20.638  12.284   3.258
47894W        W11662  27.521   4.786   2.730
47895W        W11663  29.598  34.075  13.839
47896W        W11664  40.035  41.924   0.887
47897W        W11665   3.445   5.350  12.357
47898W        W11666  22.151  14.217  12.894
47899W        W11667   9.732   7.707   4.777
47900W        W11668  32.525  44.904   3.863
47901W        W11669  33.544  11.309  14.955
47902W        W11670  44.391  32.015  13.894
47903W        W11671  24.571  18.553  14.393
47904W        W11672  29.475  13.194  12.504
47905W        W11673  18.747  40.333   3.339
47906W        W11674  24.610  26.106  14.349
47907W        W11675  14.189  14.299  10.438
47908W        W11676   4.375  28.534  13.937
47909W        W11677  22.068  28.129   2.225
47910W        W11678  22.235  17.187   0.860
47911W        W11679  12.748  18.778  13.308
47912W        W11680  39.386  27.954  12.891
47913W        W11681  20.758  12.685   1.215
47914W        W11682   7.252  31.605   0.261
47915W        W11683   3.929  42.438   3.713
47916W        W11684  29.617  25.211   0.263
47917W        W11685   9.221  36.865   2.765
47918W        W11686  42.522  22.703  14.961
47919W        W11687  21.732  31.524  12.935
47920W        W11688  12.222   4.335  14.485
47921W        W11689  18.133  34.967  14.306
47922W        W11690  21.136   5.913   1.775
47923W        W11691  34.435  16.285  10.526
47924W        W11692  29.489   3.261   0.293
47925W        W11693  40.425  22.183  13.541
47926W        W11694  13.634  20.252  13.803
47927W        W11695  22.181  16.198   2.797
47928W        W11696  32.088  35.055  11.978
47929W        W11697  34.406  13.831  12.975
47930W        W11698  39.353  12.136  13.978
47931W        W11699  30.445  37.571   0.349
47932W        W11700  39.830  30.926  13.015
47933W        W11701  22.717   8.719   3.816
47934W        W11702  19.044   7.676   0.277
47935W        W11703  33.074  23.607  12.489
47936W        W11704  21.695  36.061   3.279
47937W        W11705   6.299  39.961   0.424
47938W        W11706   2.847  13.781  10.901
47939W        W11707  23.161  38.904  10.979
47940W        W11708  29.622  41.985  14.313
47941W        W11709  37.072  24.126  13.309
47942W        W11710  10.329  39.449  14.917
47943W        W11711   5.911  27.630   0.818
47944W        W11712  38.835  21.737   2.850
47945W        W11713  25.527  35.059   3.833
47946W        W11714  30.959  41.910  13.795
47947W        W11715  12.275  43.896  11.973
47948W        W11716   3.322  41.319  13.499
47949W        W11717  29.550  40.436  14.431
47950W        W11718  32.397  25.983   4.782
47951W        W11719  29.987   5.232   3.635
47952W        W11720   1.736  16.612   0.753
47953W        W11721  43.409   0.817   0.952
47954W        W11722  27.992  38.476   2.290
47955W        W11723  14.101  14.209  12.432
47956W        W11724  27.080   0.418   0.960
47957W        W11725  27.626   9.286   1.727
47958W        W11726  31.490   3.423   0.913
47959W        W11727  38.360  41.395  14.484
47960W        W11728  25.662   1.302  13.996
47961W        W11729  29.968  39.821  13.877
47962W        W11730  25.614  34.956  11.590
47963W        W11731  36.551  30.583  10.478
47964W        W11732  42.015  18.750   0.244
47965W        W11733  28.558  26.208  11.969
47966W        W11734   4.373   2.846  14.940
47967W        W11735  31.090  30.147   3.837
47968W        W11736   0.365  44.812  11.556
47969W        W11737  10.260  38.998  12.426
47970W        W11738   3.267   1.824  11.548
47971W        W11739  25.028   7.310   1.273
47972W        W11740  28.158   9.884   4.729
47973W        W11741   8.845  21.547  12.383
47974W        W11742  25.523  24.701  12.932
47975W        W11743  32.084   3.401   1.301
47976W        W11744  10.249  24.141   2.187
47977W        W11745   8.330  30.556   3.254
47978W        W11746   7.263  29.950   2.786
47979W        W11747  38.021  32.047  11.063
47980W        W11748  25.150   8.716   4.278
47981W        W11749  38.405   6.195   1.225
47982W        W11750   6.813  39.996   1.269
47983W        W11751   4.313  39.315   1.917
47984W        W11752  37.012  36.054  12.434
47985W        W11753  31.483  27.052   2.788
47986W        W11754  39.888  33.454   3.307
47987W        W11755  19.760  18.779   0.290
47988W        W11756  40.805  27.047   1.759
47989W        W11757   0.978  40.336  14.295
47990W        W11758   8.169  29.482   2.207
47991W        W11759   7.858  43.453  13.966
47992W        W11760  38.517  27.176   3.328
47993W        W11761  29.999  14.777  14.348
47994W        W11762  39.483  23.234  10.616
47995W        W11763  36.056   1.830   2.734
47996W        W11764   8.244   6.772  11.864
47997W        W11765  13.210   9.242  10.906
47998W        W11766  29.632  15.292  12.937
47999W        W11767  15.125  12.659  12.025
48000W        W11768   0.753   0.818   1.760
48001W        W11769  10.715   9.380  14.830
48002W        W11770  15.255  23.578   0.785
48003W        W11771  38.328  24.026  10.543
48004W        W11772  23.735  35.034   0.802
48005W        W11773  22.502   6.868   3.266
48006W        W11774   8.679   9.270  10.604
48007W        W11775   6.264  22.135  11.023
48008W        W11776  22.097   9.239  14.387
48009W        W11777  43.456  36.502  12.520
48010W        W11778  22.586  19.213  11.936
48011W        W11779  13.203  21.554   3.657
48012W        W11780  44.923  13.174  12.835
48013W        W11781  26.981  40.817   2.875
48014W        W11782   0.381  29.127  11.010
48015W        W11783  14.194  19.587   3.290
48016W        W11784  28.500  43.510  13.813
48017W        W11785  18.114  35.589  14.018
48018W        W11786   5.799  41.920   2.265
48019W        W11787   3.786  25.495   4.286
48020W        W11788  15.672   5.223   0.830
48021W        W11789   1.803  19.207   0.874
48022W        W11790  33.575   2.358   4.604
48023W        W11791  28.125   6.700  11.017
48024W        W11792  31.957  12.216  11.584
48025W        W11793  11.693  18.617   2.322
48026W        W11794  26.680  41.398   2.680
48027W        W11795  42.495  14.181  13.045
48028W        W11796  39.003  31.421   2.826
48029W        W11797  20.542  38.938   4.702
48030W        W11798   5.711  13.338   0.910
48031W        W11799  44.816   2.761  14.335
48032W        W11800   6.256  14.703  12.981
48033W        W11801  11.635  17.569  12.988
48034W        W11802  44.782  26.560  14.311
48035W        W11803  13.125  40.882  14.770
48036W        W11804  34.038  12.248   3.756
48037W        W11805  44.405  12.169   0.955
48038W        W11806  16.576  14.150   4.783
48039W        W11807  19.041  41.988  14.363
48040W        W11808  16.308  22.706   2.760
48041W        W11809  42.963   6.385   2.310
48042W        W11810  40.356  43.841  10.643
48043W        W11811  22.091   2.345  10.939
48044W        W11812  27.572   5.805  14.498
48045W        W11813  23.627  22.038   0.941
48046W        W11814  22.068  19.536   4.198
48047W        W11815  20.116   8.782   0.889
48048W        W11816  44.811  23.080   2.886
48049W        W11817   3.780  26.112   2.400
48050W        W11818  20.220   0.934   4.652
48051W        W11819  33.885   8.833  11.607
48052W        W11820  37.529  32.950   4.265
48053W        W11821  38.919  20.245  10.562
48054W        W11822   1.796  19.661  14.455
48055W        W11823  22.603  42.473   2.258
48056W        W11824  38.379  34.428  10.961
48057W        W11825   7.738  22.179   3.648
48058W        W11826  39.537  35.567   4.722
48059W        W11827  22.520  36.896   3.773
48060W        W11828   7.190  22.114   4.133
48061W        W11829  24.200   8.825  12.074
48062W        W11830   7.209   5.243   3.758
48063W        W11831  39.477  43.481  11.521
48064W        W11832  23.113  19.262   2.820
48065W        W11833  23.028  25.524  13.529
48066W        W11834  18.698  14.286  14.020
48067W        W11835  38.413  35.957  11.921
48068W        W11836   4.316  25.539  13.426
48069W        W11837  26.543  32.565   4.808
48070W        W11838   1.294  43.927  13.039
48071W        W11839  30.469   6.291   4.741
48072W        W11840   2.256   7.335   0.248
48073W        W11841  35.990  44.383  12.429
48074W        W11842   3.361  14.725   4.180
48075W        W11843  44.374  34.498  13.344
48076W        W11844  11.682   8.271   4.156
48077W        W11845   2.308  31.408   3.170
48078W        W11846  14.274  42.405   3.235
48079W        W11847  31.999   9.870  10.925
48080W        W11848  12.695  21.640  14.031
48081W        W11849  27.461  32.951  10.500
48082W        W11850  22.087  16.238  13.046
48083W        W11851  16.657   8.350   3.657
48084W        W11852  24.974  28.496   1.430
48085W        W11853   5.247   3.713  14.380
48086W        W11854  36.920  37.900   0.850
48087W        W11855  21.060   1.298  10.512
48088W        W11856  39.414  38.019  10.947
48089W        W11857  23.171  24.070   2.207
48090W        W11858   5.906  17.235   2.391
48091W        W11859  20.523  12.630  12.559
48092W        W11860  15.291   5.875  11.506
48093W        W11861   6.274   5.853  11.002
48094W        W11862   2.832  23.121   4.226
48095W        W11863   9.651   9.250   4.240
48096W        W11864  11.161   7.332  14.776
48097W        W11865  27.947  22.008  12.059
48098W        W11866  24.114  27.186  12.974
48099W        W11867  14.106   3.315  10.621
48100W        W11868  24.623  38.852   2.220
48101W        W11869   9.274   0.946  11.545
48102W        W11870  35.477  43.458  11.600
48103W        W11871  20.198   4.760   1.331
48104W        W11872   5.210   7.738   4.347
48105W        W11873   8.785  37.896   0.253
48106W        W11874  19.269  31.125  12.441
48107W        W11875  23.686  25.044  14.298
48108W        W11876  43.363  31.001   0.334
48109W        W11877  25.985   1.792  13.355
48110W        W11878   9.723  11.666  11.050
48111W        W11879  32.443  44.844  11.572
48112W        W11880  40.311  42.511   1.307
48113W        W11881  32.390  25.706  14.968
48114W        W11882  20.269  27.991  11.046
48115W        W11883  31.600   9.856  12.404
48116W        W11884  24.083   0.350   4.241
48117W        W11885  23.992  14.309  13.355
48118W        W11886  18.727  21.128  12.974
48119W        W11887  18.647  11.660   0.870
48120W        W11888  36.547  40.489  12.037
48121W        W11889  36.360  35.527  13.443
48122W        W11890   5.295  40.935   4.327
48123W        W11891  28.623  21.636  12.969
48124W        W11892  43.335  34.446  13.426
48125W        W11893  13.650   5.336   3.712
48126W        W11894  40.971  27.478  11.978
48127W        W11895  41.393  44.790   0.457
48128W        W11896   8.852  31.117  10.634
48129W        W11897   4.380   5.434  12.834
48130W        W11898  18.632   2.310   2.754
48131W        W11899  37.836  16.568  12.435
48132W        W11900  18.610  14.769   2.753
48133W        W11901  26.952  24.698   0.957
48134W        W11902   5.374  24.065  13.795
48135W        W11903  26.034  19.584  11.938
48136W        W11904  12.704  25.482  13.398
48137W        W11905  15.625  31.549   2.844
48138W        W11906  30.448  14.690  11.871
48139W        W11907  35.425  23.553  12.349
48140W        W11908   4.873  28.640  10.896
48141W        W11909   2.266  25.008   1.385
48142W        W11910  38.336   3.395  14.478
48143W        W11911  34.929  44.358  14.467
48144W        W11912  30.104  25.556   1.903
48145W        W11913   6.717  36.097  10.565
48146W        W11914  41.447  18.234  10.527
48147W        W11915  40.920  12.177   0.874
48148W        W11916  12.785  43.001   3.257
48149W        W11917  34.920  17.635  10.137
48150W        W11918   8.747  14.139   2.784
48151W        W11919   7.807  13.746  13.944
48152W        W11920   3.940  32.570   4.295
48153W        W11921  32.531  15.233   0.397
48154W        W11922  17.307  41.843  11.010
48155W        W11923  32.552   0.820   3.204
48156W        W11924   4.838  17.236  12.088
48157W        W11925   7.851  28.659   3.384
48158W        W11926  22.553  16.178   1.812
48159W        W11927  26.951  14.122  11.075
48160W        W11928  19.648   5.351  11.554
48161W        W11929  21.528  42.950  13.340
48162W        W11930  15.293   6.253   3.153
48163W        W11931  43.509   4.924   3.764
48164W        W11932  39.460  39.832  11.380
48165W        W11933   9.874  34.478  13.844
48166W        W11934  18.276   7.411   3.730
48167W        W11935  31.481  18.694  11.104
48168W        W11936  22.249  36.930  11.595
48169W        W11937  41.442  24.185  13.357
48170W        W11938  10.783  10.307  10.562
48171W        W11939  34.098   4.889  13.011
48172W        W11940   0.300  15.655   4.334
48173W        W11941  35.106  17.118  14.862
48174W        W11942   5.843   8.284   4.776
48175W        W11943  30.614   1.400   0.751
48176W        W11944  12.805  38.390  13.842
48177W        W11945  13.206  32.133   4.244
48178W        W11946   4.327  13.738  12.081
48179W        W11947  16.795  36.369   1.217
48180W        W11948   5.303  32.062   3.273
48181W        W11949  39.975   5.243   3.253
48182W        W11950  24.113  40.002  12.391
48183W        W11951  11.760  39.522   2.875
48184W        W11952  12.339  21.184   3.312
48185W        W11953  31.057  12.332  12.575
48186W        W11954  37.878  22.723  11.042
48187W        W11955  37.434  11.242   1.823
48188W        W11956  33.056  21.089   3.158
48189W        W11957  44.942   7.199  12.907
48190W        W11958  43.287  36.412   3.230
48191W        W11959  24.185  25.548   0.759
48192W        W11960  40.504  31.016   5.647
48193W        W11961  28.481  12.787   4.735
48194W        W11962   2.468  17.560  14.862
48195W        W11963  18.073  28.156  14.795
48196W        W11964  44.483   5.765  14.389
48197W        W11965   3.370  16.657  11.122
48198W        W11966  22.715   4.396   3.224
48199W        W11967   1.394  23.160   2.258
48200W        W11968  29.158  24.623   1.314
48201W        W11969  22.559   2.337  13.053
48202W        W11970  10.681  40.995  13.379
48203W        W11971  27.526  27.144   0.275
48204W        W11972  25.159   3.808   1.402
48205W        W11973  40.833  32.404  11.111
48206W        W11974  25.508  39.422  14.283
48207W        W11975  26.638  40.914  13.840
48208W        W11976  13.250  41.448  14.892
48209W        W11977  43.294  43.999  11.126
48210W        W11978  26.593  32.424  11.534
48211W        W11979  39.506  29.063  13.353
48212W        W11980  19.603  37.486   1.884
48213W        W11981   8.721  23.010   3.735
48214W        W11982  32.921  44.498   4.141
48215W        W11983  23.557  34.481  11.381
48216W        W11984  17.741  28.990   1.347
48217W        W11985  10.825  32.901  11.377
48218W        W11986  40.840   5.851   2.759
48219W        W11987  32.603  39.513   1.217
48220W        W11988  29.452  29.628   3.209
48221W        W11989  11.320   1.798   0.932
48222W        W11990  17.736  33.919  10.003
48223W        W11991   0.480  27.984   1.413
48224W        W11992   0.288  32.559   2.239
48225W        W11993  41.963  26.654  10.891
48226W        W11994  35.413  25.049   2.279
48227W        W11995  29.592  15.112  13.835
48228W        W11996  11.681  42.369  13.501
48229W        W11997  42.363  36.043   3.264
48230W        W11998   1.785  16.180  13.414
48231W        W11999  13.744  38.887  12.913
48232W        W12000  32.415  22.681   4.259
48233W        W12001  18.238   2.863   0.432
48234W        W12002   1.275  43.293  13.484
48235W        W12003  12.818  39.832  14.430
48236W        W12004  33.554  35.104   4.179
48237W        W12005   8.263  19.778  12.418
48238W        W12006  34.044  14.293   2.807
48239W        W12007  29.094  32.998   0.388
48240W        W12008   8.878  35.095   4.813
48241W        W12009   1.871  35.924   4.346
48242W        W12010  19.255  17.300   2.700
48243W        W12011  34.562  39.003  12.390
48244W        W12012  30.597  17.274   1.431
48245W        W12013  32.131  35.421   2.265
48246W        W12014  34.104  43.304   4.619
48247W        W12015   8.845  16.215   2.341
48248W        W12016  23.224   8.871  10.594
48249W        W12017   2.770  15.247  11.391
48250W        W12018  23.547  14.788  12.464
48251W        W12019  10.760   8.162  11.020
48252W        W12020  32.545  37.468   1.694
48253W        W12021  11.632  31.428   3.721
48254W        W12022  35.359  42.339  11.021
48255W        W12023  35.946  10.373   0.873
48256W        W12024  28.512   3.750   3.857
48257W        W12025  13.754   2.869  11.586
48258W        W12026  16.661  32.475  12.058
48259W        W12027  29.075   5.299   1.297
48260W        W12028  39.830   4.390   2.841
48261W        W12029   4.783   3.927   0.460
48262W        W12030   0.810  40.386  13.323
48263W        W12031  25.648  38.377  13.974
48264W        W12032   5.915  11.866  13.947
48265W        W12033  35.014  44.352   2.419
48266W        W12034   9.730  18.615   0.949
48267W        W12035  41.382  11.143  12.992
48268W        W12036  44.485  11.705   2.685
48269W        W12037  39.006   7.386  13.504
48270W        W12038  40.891  23.733  13.327
48271W        W12039  12.747  25.043   3.805
48272W        W12040  22.655  36.945   2.382
48273W        W12041  29.457  22.584  11.960
48274W        W12042   3.293  10.836   0.814
48275W        W12043  35.407  24.586   1.426
48276W        W12044  26.618  22.134  10.507
48277W        W12045  38.437  33.594  11.522
48278W        W12046   2.761  23.144   3.250
48279W        W12047  38.872  19.277   0.939
48280W        W12048  23.674  36.380  14.818
48281W        W12049   2.341   1.351   4.134
48282W        W12050  44.489  27.614   2.212
48283W        W12051  14.208  30.966  14.964
48284W        W12052  15.120   3.743  11.471
48285W        W12053  17.293  28.997   3.642
48286W        W12054   9.242  10.700  13.531
48287W        W12055  17.072  15.108  12.377
48288W        W12056  18.239  13.298  14.858
48289W        W12057   7.315  31.426  14.442
48290W        W12058  21.063   9.768  10.477
48291W        W12059  28.931  41.462   1.918
48292W        W12060  32.627  34.079  11.048
48293W        W12061  19.169  43.865   0.912
48294W        W12062  39.400  21.209  14.305
48295W        W12063   8.305  17.092   3.159
48296W        W12064  28.939  25.039  11.453
48297W        W12065  42.780  17.574   3.244
48298W        W12066  25.085   6.823   2.394
48299W        W12067  29.088   7.827   2.663
48300W        W12068  12.761  14.293   4.660
48301W        W12069  36.856  43.986   3.202
48302W        W12070  13.216  44.817  14.919
48303W        W12071   7.216  25.674  13.819
48304W        W12072  41.786  20.248  11.887
48305W        W12073  19.147  40.842  11.868
48306W        W12074  15.240  32.036   4.725
48307W        W12075  40.848  18.673   4.782
48308W        W12076  19.549  10.330  10.454
48309W        W12077  23.666   0.268  10.468
48310W        W12078  13.642  20.262   3.285
48311W        W12079   3.762  19.764   4.193
48312W        W12080  11.733  22.148  14.390
48313W        W12081  18.672   3.308   1.350
48314W        W12082  31.449  30.520  12.358
48315W        W12083  33.439  34.100  12.998
48316W        W12084   6.747   1.847   4.651
48317W        W12085  42.358  41.457  13.905
48318W        W12086  33.074  26.486  13.507
48319W        W12087  13.834  30.096  11.998
48320W        W12088  43.359  25.048   3.332
48321W        W12089  34.509  28.533  10.522
48322W        W12090  13.339  26.503   9.969
48323W        W12091  11.634  30.562  13.938
48324W        W12092  44.760  27.956  10.899
48325W        W12093   6.804  36.454  13.890
48326W        W12094  31.922   9.326  11.406
48327W        W12095  31.501  32.584  13.992
48328W        W12096  34.021   4.895   3.165
48329W        W12097  24.563   0.469   0.877
48330W        W12098  35.919   1.853  13.442
48331W        W12099   0.884  22.537   0.331
48332W        W12100  28.672  40.840   2.188
48333W        W12101  13.600  37.340  12.937
48334W        W12102  24.066  35.049  14.418
48335W        W12103  14.264   2.372  14.796
48336W        W12104   4.859  42.830   1.213
48337W        W12105   0.760  41.509   3.694
48338W        W12106  35.372  28.113  11.460
48339W        W12107   2.947  31.572   3.248
48340W        W12108   1.774  29.425  14.016
48341W        W12109  23.984  12.175  14.371
48342W        W12110  13.164  27.059   3.340
48343W        W12111  12.240   9.828  12.537
48344W        W12112   4.840  11.206   1.770
48345W        W12113  31.630  29.557  14.505
48346W        W12114   6.312  18.178   2.879
48347W        W12115   0.830  42.501   1.331
48348W        W12116   8.747   9.297   1.916
48349W        W12117  39.958  19.610  14.940
48350W        W12118  11.320  44.857   1.767
48351W        W12119   5.813  21.735  13.805
48352W        W12120  15.132   3.360  14.992
48353W        W12121   3.367   5.260   4.705
48354W        W12122  42.508   5.875   4.725
48355W        W12123  14.675  30.017   2.242
48356W        W12124  17.069  33.624  14.442
48357W        W12125  42.520   2.869  10.593
48358W        W12126  16.616  38.459  14.889
48359W        W12127  29.966  41.350  11.885
48360W        W12128   2.391  36.425  13.474
48361W        W12129  41.927  15.124   0.307
48362W        W12130   4.944  39.835  11.124
48363W        W12131  16.277   0.787   1.710
48364W        W12132  41.832  12.262  14.020
48365W        W12133  30.061  15.232  11.515
48366W        W12134  39.946   8.352  13.504
48367W        W12135  34.881  37.080   3.287
48368W        W12136  15.145  24.153   0.441
48369W        W12137  29.470   0.756  13.505
48370W        W12138  30.920  14.123   5.133
48371W        W12139   3.318  38.065   1.756
48372W        W12140  38.432   9.338   5.212
48373W        W12141  33.123  33.539  10.579
48374W        W12142  31.608   9.719  11.611
48375W        W12143  41.533  11.675  10.558
48376W        W12144  31.517   5.339   0.879
48377W        W12145  15.190  20.757  11.904
48378W        W12146   4.847  27.126   1.292
48379W        W12147  18.172   7.752  10.608
48380W        W12148  25.978   8.180   1.720
48381W        W12149  21.676  44.350   4.230
48382W        W12150   4.344  36.887   0.762
48383W        W12151  36.357   2.897  11.940
48384W        W12152   5.235  14.655  14.514
48385W        W12153  29.165  11.310   3.165
48386W        W12154  39.440   7.356   1.314
48387W        W12155  36.883   2.824  10.972
48388W        W12156  21.658   8.679   2.365
48389W        W12157  29.989  28.669  13.822
48390W        W12158   1.425  27.448  11.599
48391W        W12159  44.842  17.252  11.606
48392W        W12160   7.885  12.116  13.959
48393W        W12161  41.468  30.025  12.951
48394W        W12162  32.129  35.553   2.793
48395W        W12163   2.728  25.177  13.974
48396W        W12164  21.184  41.361  14.463
48397W        W12165  25.212   7.795  12.944
48398W        W12166   6.794  38.362  11.940
48399W        W12167  22.722  31.570   0.922
48400W        W12168  32.587  40.987  10.509
48401W        W12169  39.923  39.991   2.872
48402W        W12170  41.292  10.807  11.925
48403W        W12171   0.457   1.292   2.210
48404W        W12172   5.768  25.045   1.889
48405W        W12173  39.041  41.506  10.424
48406W        W12174  17.197  23.511   2.794
48407W        W12175  32.030  43.502   1.326
48408W        W12176  34.106  35.381   1.246
48409W        W12177  20.652  10.297  11.080
48410W        W12178  37.375  38.846  13.462
48411W        W12179   2.462  15.755  13.344
48412W        W12180  22.551  14.596  14.361
48413W        W12181  33.952   4.846   4.812
48414W        W12182   0.815  11.318  12.571
48415W        W12183  33.920   2.428   1.322
48416W        W12184   3.364  19.187  13.485
48417W        W12185  21.742  19.649  10.482
48418W        W12186  17.220   8.310   2.251
48419W        W12187  13.842  44.280  14.368
48420W        W12188  44.960  43.844   3.330
48421W        W12189  17.206  25.625   1.224
48422W        W12190   6.226   4.867   1.783
48423W        W12191  43.350  35.521   1.801
48424W        W12192  21.726  16.131   4.127
48425W        W12193   7.692   4.891  10.460
48426W        W12194  22.727  38.993  11.940
48427W        W12195   3.927  27.985   0.822
48428W        W12196  25.086   4.283  12.871
48429W        W12197  11.251  19.243  10.556
48430W        W12198  42.822  12.857   0.813
48431W        W12199  20.733   1.968   2.243
48432W        W12200  38.469  21.163   2.752
48433W        W12201  43.773  18.717   0.841
48434W        W12202  41.524  26.121   2.343
48435W        W12203  42.352  22.717   4.245
48436W        W12204  27.691   3.924   1.354
48437W        W12205   8.677   2.404  10.544
48438W        W12206  33.890  18.287  12.831
48439W        W12207  22.076  44.302  14.989
48440W        W12208  37.530  13.335  13.336
48441W        W12209   2.966  34.376   0.873
48442W        W12210  40.046   7.672  13.487
48443W        W12211  35.930  10.259   1.802
48444W        W12212  16.597  15.739  10.014
48445W        W12213  35.583   0.985  11.966
48446W        W12214  17.147  16.193   3.173
48447W        W12215  20.071  28.102  12.949
48448W        W12216  37.886  38.043   4.317
48449W        W12217  40.478   7.196  13.804
48450W        W12218  14.640  27.176   1.899
48451W        W12219  20.106  21.262   2.364
48452W        W12220  41.366  31.488   2.388
48453W        W12221  25.544  15.131   0.784
48454W        W12222  42.980  17.109   0.367
48455W        W12223  15.264  44.812   2.231
48456W        W12224  41.411  35.065  11.022
48457W        W12225   7.866  16.646  10.927
48458W        W12226  30.108  20.261   0.903
48459W        W12227   1.474  10.285   2.737
48460W        W12228   9.644  11.812   1.402
48461W        W12229  32.469  14.197   2.278
48462W        W12230  25.535   1.428   0.829
48463W        W12231  31.007  10.152  14.982
48464W        W12232  33.996  34.978   4.353
48465W        W12233   2.872   8.780   1.435
48466W        W12234  29.129  37.876  11.507
48467W        W12235  31.564  29.558   3.211
48468W        W12236  25.075  38.944  13.439
48469W        W12237  12.332  44.910   4.174
48470W        W12238   5.789   5.831   4.718
48471W        W12239   7.409  15.744   3.680
48472W        W12240   3.813  29.554  13.345
48473W        W12241  15.110  14.656   0.425
48474W        W12242  44.888  15.127  13.833
48475W        W12243   7.327  29.549   2.237
48476W        W12244  19.637  32.549  11.399
48477W        W12245  14.338  17.253   1.767
48478W        W12246  29.571  39.558   3.254
48479W        W12247   6.885  17.667  13.818
48480W        W12248  13.688  22.995  13.884
48481W        W12249  35.962  43.997  13.497
48482W        W12250  38.062  11.823   1.907
48483W        W12251  35.097  33.418   5.113
48484W        W12252  14.632  37.437   2.708
48485W        W12253   9.347  22.164  11.991
48486W        W12254  38.871   3.452  12.376
48487W        W12255   1.287  34.574  11.998
48488W        W12256   9.231  29.152   0.357
48489W        W12257  35.972  43.434   0.862
48490W        W12258  31.144  34.404   0.740
48491W        W12259   0.343  24.609  13.018
48492W        W12260  11.645  13.341  14.968
48493W        W12261  29.538  31.910  14.330
48494W        W12262   2.900  27.680   1.224
48495W        W12263  27.526   2.270   3.833
48496W        W12264  30.104  19.047  10.428
48497W        W12265  43.382  23.084  12.937
48498W        W12266  15.707  18.547  14.909
48499W        W12267   1.321  33.103  13.321
48500W        W12268  38.864  11.295  12.463
48501W        W12269  21.663  36.471   2.760
48502W        W12270  27.116  23.040  10.909
48503W        W12271  30.551  38.860  14.856
48504W        W12272  43.791   4.429  10.617
48505W        W12273  25.996  35.999  11.555
48506W        W12274  22.533  23.190  13.390
48507W        W12275  40.515  40.361   3.730
48508W        W12276  25.164  34.590   3.186
48509W        W12277  39.031  24.065   3.220
48510W        W12278  16.210  40.362   0.828
48511W        W12279  28.972   4.934   3.294
48512W        W12280  15.823   4.797   1.786
48513W        W12281  25.174   3.867  14.773
48514W        W12282  10.679  14.605   2.258
48515W        W12283  20.269  30.521  11.985
48516W        W12284  18.274  22.015  13.345
48517W        W12285   0.774  16.130   3.825
48518W        W12286  11.818   2.861  14.294
48519W        W12287  38.472  32.449   5.283
48520W        W12288  21.258  22.133   9.964
48521W        W12289  21.628  31.412  13.477
48522W        W12290  12.149  38.994  12.549
48523W        W12291   7.763  39.891  10.475
48524W        W12292  18.291  36.454   0.304
48525W        W12293  26.601   8.785  11.919
48526W        W12294  37.973   6.262  14.399
48527W        W12295  40.324   0.279   2.308
48528W        W12296   5.912  24.640  10.537
48529W        W12297   7.278  27.445  10.995
48530W        W12298  43.483  15.674  11.509
48531W        W12299  27.525  30.165   4.671
48532W        W12300  25.189   1.822  13.058
48533W        W12301  34.389  11.674  14.425
48534W        W12302  40.507  32.492   4.655
48535W        W12303   2.366  23.195   3.719
48536W        W12304  14.334  35.469   2.385
48537W        W12305   1.427  32.495   4.325
48538W        W12306  32.432  23.025   4.662
48539W        W12307  43.966  39.907   1.326
48540W        W12308  22.624   9.650  13.501
48541W        W12309  32.539   3.290  11.551
48542W        W12310  23.130  10.640  11.505
48543W        W12311  11.373  31.138   4.735
48544W        W12312  22.504  34.991  13.335
48545W        W12313  23.026   0.958   2.667
48546W        W12314  33.062   3.796  10.576
48547W        W12315   2.934  11.760   3.727
48548W        W12316  41.472  35.894   4.801
48549W        W12317  10.654   5.435   4.191
48550W        W12318  14.332  21.580   4.306
48551W        W12319  36.415  23.603   1.702
48552W        W12320  20.035  20.623  10.408
48553W        W12321  10.329  43.359  12.855
48554W        W12322  29.174  42.442   2.366
48555W        W12323   4.736  10.759   2.264
48556W        W12324  20.259  31.613  13.961
48557W        W12325  38.024  44.918  13.386
48558W        W12326  14.221  32.434  12.376
48559W        W12327   5.277  34.101   3.244
48560W        W12328  31.478  10.659   2.874
48561W        W12329  11.817  17.184   2.255
48562W        W12330   2.441  28.489   1.289
48563W        W12331  18.654  42.517  12.020
48564W        W12332  37.830  19.729  11.486
48565W        W12333   3.419   3.803  13.308
48566W        W12334  26.172  42.981  11.086
48567W        W12335   6.352   2.383   3.738
48568W        W12336   8.749  23.523  11.108
48569W        W12337  16.757  27.669  10.021
48570W        W12338  20.258  14.157  14.876
48571W        W12339  43.988  43.363   1.303
48572W        W12340  21.673   7.258   0.344
48573W        W12341  28.146   0.383  10.517
48574W        W12342  22.550   4.294   2.662
48575W        W12343  43.494  36.085  14.032
48576W        W12344  16.649  36.065   4.722
48577W        W12345  27.446  27.038  11.016
48578W        W12346  11.710  33.108  11.970
48579W        W12347  10.350  27.537  11.030
48580W        W12348  34.949  43.831  11.003
48581W        W12349  31.959  22.075   4.170
48582W        W12350  24.092  37.882   0.392
48583W        W12351  26.486  20.260   2.767
48584W        W12352   7.311  42.418  12.967
48585W        W12353  43.451   6.919  13.480
48586W        W12354   8.246  21.738  14.843
48587W        W12355  42.789  40.384   5.181
48588W        W12356   0.357   0.891   4.206
48589W        W12357  36.428  13.229  11.018
48590W        W12358   3.387  39.531   4.738
48591W        W12359   3.449  28.018   1.854
48592W        W12360  17.570  32.586  12.051
48593W        W12361   6.222  18.737   1.745
48594W        W12362  25.682  40.891   1.354
48595W        W12363  29.652  31.918   2.314
48596W        W12364  27.659   3.310  13.894
48597W        W12365  44.306  18.663  14.877
48598W        W12366  10.146  11.866  14.424
48599W        W12367  31.979   7.259   3.229
48600W        W12368  26.615  10.223   1.913
48601W        W12369  41.470  13.756  14.472
48602W        W12370   5.269  30.988   4.607
48603W        W12371  14.147  36.494  14.889
48604W        W12372  28.059  19.588  10.000
48605W        W12373  14.318  27.612   1.768
48606W        W12374  24.107   8.703  12.984
48607W        W12375  30.606   1.320  13.997
48608W        W12376   3.278  41.349   3.841
48609W        W12377  22.734  32.577  12.961
48610W        W12378   8.305  19.141   3.664
48611W        W12379  34.600  27.512   0.243
48612W        W12380  30.118   8.668  11.953
48613W        W12381  23.067   4.404  12.506
48614W        W12382  17.157  28.130  13.993
48615W        W12383  37.846  29.937   3.242
48616W        W12384  35.456  34.087  12.519
48617W        W12385  21.669  16.589   2.193
48618W        W12386   9.745  43.426   1.313
48619W        W12387  13.208  25.120  11.031
48620W        W12388  16.640   2.330   1.424
48621W        W12389  26.972  17.078  13.527
48622W        W12390  40.474  30.487   2.892
48623W        W12391  12.634   0.948  12.512
48624W        W12392  33.523  24.231  12.023
48625W        W12393   9.341   7.361  12.439
48626W        W12394  33.436  13.702  11.977
48627W        W12395  16.251   8.666   4.660
48628W        W12396  40.905  38.949  11.114
48629W        W12397  12.617  44.875  11.492
48630W        W12398  24.670  42.871   2.889
48631W        W12399  14.716  41.443   2.213
48632W        W12400  41.896   5.411   0.351
48633W        W12401  15.657   9.673   1.339
48634W        W12402   8.899  12.785  13.911
48635W        W12403   4.909  38.947   0.369
48636W        W12404  33.525  10.173  12.558
48637W        W12405  28.147  31.124  14.852
48638W        W12406  20.665   5.349   0.870
48639W        W12407  22.114   8.665   2.859
48640W        W12408   4.328  42.400  10.933
48641W        W12409  20.587  22.745   0.371
48642W        W12410  12.262   7.196   3.319
48643W        W12411  24.141  21.180   1.408
48644W        W12412  36.528  12.177   0.950
48645W        W12413  15.703  36.512   3.737
48646W        W12414  36.557  37.856  12.015
48647W        W12415  27.027  26.492   3.209
48648W        W12416   6.350  31.073  14.433
48649W        W12417   8.677  42.356  12.925
48650W        W12418  28.997   7.894   4.297
48651W        W12419  38.888  36.037  10.126
48652W        W12420  23.700   3.816   1.909
48653W        W12421  10.299  11.840   1.884
48654W        W12422  13.636  10.308   3.635
48655W        W12423   5.722  31.469  11.520
48656W        W12424   4.364   1.464   2.295
48657W        W12425  43.988   7.314   1.707
48658W        W12426  30.922   5.896   2.685
48659W        W12427   8.230  14.132   1.287
48660W        W12428  29.526  34.931   4.227
48661W        W12429  28.522  25.496   1.225
48662W        W12430  22.025  30.495   4.800
48663W        W12431  37.358  18.144   3.634
48664W        W12432  22.226  34.938   2.329
48665W        W12433  22.624  32.426  12.478
48666W        W12434  40.032   7.812   2.202
48667W        W12435  26.465  31.525  13.523
48668W        W12436  24.120  31.513  12.578
48669W        W12437  31.584  15.726  13.852
48670W        W12438  34.420  16.134   0.364
48671W        W12439  32.513  37.513  10.645
48672W        W12440  40.024  21.105  14.315
48673W        W12441  30.438  24.606   3.239
48674W        W12442  19.063  24.502   5.799
48675W        W12443  33.897  30.113   2.733
48676W        W12444   1.863   1.458   3.679
48677W        W12445  42.971   3.280  11.460
48678W        W12446  31.154  34.426   1.356
48679W        W12447   8.165   0.806  12.867
48680W        W12448  24.082  14.218   1.911
48681W        W12449  40.448  22.034   4.201
48682W        W12450   2.724  14.658  13.809
48683W        W12451  40.053  35.441  12.003
48684W        W12452  29.049  29.485   1.767
48685W        W12453   3.387   5.782  11.064
48686W        W12454  22.521   8.366   3.308
48687W        W12455  17.208   0.266  11.963
48688W        W12456  32.520  31.551   1.420
48689W        W12457  31.479  19.685   1.935
48690W        W12458  32.983   9.243   1.704
48691W        W12459  18.733  31.451  14.849
48692W        W12460   3.258  16.275   1.907
48693W        W12461  35.105  20.613  11.996
48694W        W12462  19.569  31.455  11.608
48695W        W12463   2.912  39.421  12.567
48696W        W12464   7.415  35.533   2.280
48697W        W12465  14.233  13.128   1.806
48698W        W12466   6.890  38.049   2.265
48699W        W12467  25.122  43.937  14.824
48700W        W12468  10.151  41.852  11.086
48701W        W12469  23.639  25.194  11.491
48702W        W12470  17.300   9.320  14.878
48703W        W12471  43.878  37.042   0.849
48704W        W12472  20.740  19.046  14.488
48705W        W12473  21.118  35.061   3.718
48706W        W12474  20.097  41.398   4.129
48707W        W12475  12.183   3.807   0.247
48708W        W12476  10.181   4.309   4.332
48709W        W12477  34.507  38.899  14.331
48710W        W12478  14.123  17.204   9.438
48711W        W12479  27.453  29.147   4.253
48712W        W12480  40.862   4.908   1.887
48713W        W12481  42.289   3.717  14.912
48714W        W12482  33.568  41.334   3.156
48715W        W12483  42.894  29.607   0.418
48716W        W12484  30.947   1.402   1.321
48717W        W12485  26.122  18.651   3.379
48718W        W12486  18.786  40.986  11.881
48719W        W12487   0.955  43.342   4.303
48720W        W12488  15.179  31.076   2.812
48721W        W12489  44.289  31.494   4.762
48722W        W12490  37.502  38.860   4.193
48723W        W12491  12.198   0.928  14.475
48724W        W12492  40.375   7.327   1.825
48725W        W12493   4.727  14.136  14.763
48726W        W12494  31.959  34.881  14.804
48727W        W12495   1.389   4.379   1.754
48728W        W12496  34.462  37.022   1.218
48729W        W12497  42.786  38.538   3.150
48730W        W12498  33.575  23.234  12.354
48731W        W12499  40.942  10.141  11.873
48732W        W12500   2.759  11.840  13.005
48733W        W12501   6.922   3.885   0.727
48734W        W12502   9.284  38.974  12.942
48735W        W12503   1.340  13.309   0.899
48736W        W12504  11.763   3.846   3.822
48737W        W12505  14.198  37.387  13.902
48738W        W12506  25.986  37.516  11.380
48739W        W12507  36.875  27.037   2.800
48740W        W12508   0.376  18.187  10.432
48741W        W12509  21.559  30.432   1.360
48742W        W12510   6.424   6.322   0.325
48743W        W12511  29.945  28.037  14.881
48744W        W12512  25.652  41.490   3.386
48745W        W12513  41.471  10.742   0.926
48746W        W12514  22.580  22.738   0.831
48747W        W12515   6.275  27.942  14.382
48748W        W12516   1.887   7.828  14.389
48749W        W12517  16.762  12.691  10.549
48750W        W12518  11.685   1.321  13.920
48751W        W12519  10.850  20.270   3.720
48752W        W12520  20.531  38.049   2.225
48753W        W12521   5.802  37.972   0.888
48754W        W12522  16.298  34.872   0.340
48755W        W12523  17.629  38.826  14.507
48756W        W12524  41.348  11.696   4.701
48757W        W12525  43.477  18.255   0.344
48758W        W12526  20.649  37.831  14.504
48759W        W12527  19.065  36.550   2.798
48760W        W12528  16.194  24.032  11.922
48761W        W12529  28.082   4.769   4.340
48762W        W12530  13.342  15.265   2.222
48763W        W12531   6.800   1.975   0.356
48764W        W12532   6.237  41.459   1.214
48765W        W12533  41.307  24.126   1.779
48766W        W12534  28.953  22.071  12.951
48767W        W12535  36.416   9.235   1.808
48768W        W12536   5.898   9.306   0.267
48769W        W12537  44.496  29.615  13.034
48770W        W12538  27.963   7.277   9.924
48771W        W12539   5.888  15.216   0.409
48772W        W12540  32.931  10.877  11.038
48773W        W12541  36.360  34.521  14.456
48774W        W12542  32.401  21.249   4.689
48775W        W12543  37.958  15.690   3.641
48776W        W12544   3.310   0.806  14.787
48777W        W12545  40.306   1.946   1.327
48778W        W12546  38.490  16.148   0.344
48779W        W12547  41.806   5.744  12.575
48780W        W12548  41.330  44.934  14.978
48781W        W12549   4.842  36.386  10.978
48782W        W12550  42.987  13.242   4.286
48783W        W12551   9.886  15.086   3.255
48784W        W12552  28.935  41.293   2.196
48785W        W12553  27.072  16.759  14.333
48786W        W12554  29.599   3.924   1.359
48787W        W12555   4.785  37.976   4.207
48788W        W12556  10.684  23.704  14.432
48789W        W12557  12.169   7.417  14.285
48790W        W12558  29.991  42.297   0.388
48791W        W12559  26.627   3.925   5.131
48792W        W12560  32.933   1.446   0.260
48793W        W12561  35.916  14.199   3.678
48794W        W12562  10.798  11.206  10.540
48795W        W12563   7.836  24.613   0.303
48796W        W12564   1.424   9.167  11.979
48797W        W12565  18.290  30.150   0.297
48798W        W12566   8.790  26.095   4.225
48799W        W12567  17.702  43.003  14.312
48800W        W12568  37.032  40.976  10.501
48801W        W12569   3.443  29.503   1.330
48802W        W12570  44.367  18.284   3.716
48803W        W12571  35.888   7.786   1.334
48804W        W12572  23.037  20.648  12.862
48805W        W12573   3.258  21.744   4.260
48806W        W12574   9.848   7.193  13.426
48807W        W12575  30.989  19.147  13.331
48808W        W12576  23.028  26.165  11.884
48809W        W12577  13.647  10.709   1.753
48810W        W12578  40.907  30.021  13.004
48811W        W12579   1.282  23.528  11.414
48812W        W12580  33.619  31.967   4.625
48813W        W12581   7.755   4.324  13.494
48814W        W12582  31.555  40.345  14.814
48815W        W12583  44.460  31.562  10.572
48816W        W12584   0.873  41.846  12.874
48817W        W12585   9.320  20.062  14.765
48818W        W12586  27.192   2.357  14.368
48819W        W12587  44.846  19.683  12.891
48820W        W12588  22.019   1.328   3.237
48821W        W12589  41.979  20.694  11.910
48822W        W12590  23.046  18.608   4.324
48823W        W12591  38.060  15.604   4.665
48824W        W12592  18.765  23.074  11.104
48825W        W12593  32.453  39.459  12.839
48826W        W12594  40.308  20.766   2.756
48827W        W12595  16.728  19.734  13.445
48828W        W12596  24.640  37.391  14.300
48829W        W12597   6.425  44.280  11.906
48830W        W12598  34.544  13.147  13.030
48831W        W12599  30.990  34.016   4.833
48832W        W12600  18.605  10.654  12.057
48833W        W12601  12.131  26.488   0.361
48834W        W12602   8.808  35.974   1.885
48835W        W12603  37.468   6.255  10.536
48836W        W12604  34.404  31.588   1.840
48837W        W12605   7.880  13.680   4.263
48838W        W12606  17.747  21.560   2.879
48839W        W12607  18.056  38.332  12.022
48840W        W12608  13.310  23.605  11.975
48841W        W12609  29.018  34.974   4.688
48842W        W12610  24.017  20.548  11.070
48843W        W12611  22.060  33.536   2.709
48844W        W12612  10.156  26.131  11.077
48845W        W12613  14.284  36.966  10.572
48846W        W12614  38.491  23.008   0.345
48847W        W12615  24.102  26.500   4.675
48848W        W12616  36.082  23.235  14.895
48849W        W12617  36.593   8.210  10.900
48850W        W12618  41.826  43.823   3.185
48851W        W12619   2.819  28.149   3.228
48852W        W12620   0.427   8.179   4.327
48853W        W12621  14.157   4.310   4.294
48854W        W12622  24.158  33.004   0.333
48855W        W12623  40.417   1.834  12.368
48856W        W12624  35.924  20.630   0.297
48857W        W12625  16.715   1.419  10.627
48858W        W12626  32.597  42.029  11.080
48859W        W12627  32.038   3.375   4.166
48860W        W12628  37.942  11.816  14.981
48861W        W12629  10.813  25.686  11.563
48862W        W12630  13.282  33.013   3.191
48863W        W12631  11.661  36.056  14.330
48864W        W12632  19.690  25.061  14.793
48865W        W12633  27.493  33.023   1.440
48866W        W12634   3.310  25.070   0.843
48867W        W12635  21.232   0.406   0.322
48868W        W12636   1.261  34.098  14.365
48869W        W12637  27.656  24.488   1.307
48870W        W12638  42.872  26.080   0.382
48871W        W12639   6.334  40.543   1.756
48872W        W12640  26.503  41.319   1.851
48873W        W12641   9.740  32.119   0.337
48874W        W12642   2.238  12.801  13.060
48875W        W12643  14.183  18.235   4.750
48876W        W12644  43.911  20.212  11.915
48877W        W12645   6.868  29.921   0.744
48878W        W12646  35.996  15.224  14.959
48879W        W12647   9.223  39.018   4.731
48880W        W12648  12.194  18.277  14.944
48881W        W12649  34.398  17.264   4.687
48882W        W12650  38.492  22.645  11.974
48883W        W12651  31.469  16.779   0.477
48884W        W12652   3.395  28.500   3.207
48885W        W12653  35.085  33.907  11.604
48886W        W12654   3.241   5.798   2.348
48887W        W12655  36.448  41.325   4.122
48888W        W12656  12.655  39.502   3.870
48889W        W12657  25.633  10.799   9.515
48890W        W12658  12.300   3.800   1.263
48891W        W12659  43.335  44.298  12.013
48892W        W12660  11.191  15.144   1.845
48893W        W12661  34.992   5.194   4.333
48894W        W12662  30.558  17.210   0.736
48895W        W12663  22.587  19.775  12.948
48896W        W12664  10.217  37.399  13.980
48897W        W12665  34.009  35.050  14.915
48898W        W12666  41.300  18.183  11.503
48899W        W12667   0.782  22.158   3.653
48900W        W12668   5.345  30.655  14.987
48901W        W12669  20.624  13.777  10.536
48902W        W12670  15.276   9.353  12.930
48903W        W12671  31.402  30.005  13.907
48904W        W12672  36.947  44.439  14.840
48905W        W12673  10.379  21.083  14.863
48906W        W12674  28.060  18.236   3.260
48907W        W12675  32.016  28.668   4.837
48908W        W12676  16.718  32.399   4.138
48909W        W12677   3.722  33.023  13.929
48910W        W12678  32.579  34.027   1.372
48911W        W12679   0.319   5.236  14.297
48912W        W12680   7.311  34.441   4.739
48913W        W12681   6.860  31.145   0.290
48914W        W12682  20.152  38.942   1.334
48915W        W12683   1.248   5.221  14.423
48916W        W12684  28.942  40.051  10.565
48917W        W12685   6.380  30.138   0.829
48918W        W12686   0.383  42.493  11.102
48919W        W12687  30.516  21.705   4.631
48920W        W12688  27.171   9.864  14.506
48921W        W12689  38.013  24.490  12.038
48922W        W12690  30.008  14.787  13.411
48923W        W12691   9.673   3.790   2.686
48924W        W12692   6.773   0.391   1.912
48925W        W12693   2.267  41.956  13.358
48926W        W12694  32.528  19.258   1.406
48927W        W12695   7.385  42.817  11.514
48928W        W12696   8.788  16.247  11.519
48929W        W12697  38.875  18.094   4.742
48930W        W12698  37.443  32.011  14.873
48931W        W12699  22.221  24.479  10.409
48932W        W12700   0.361  40.542  14.006
48933W        W12701  39.822  38.389  10.890
48934W        W12702  12.785   4.706   0.959
48935W        W12703  22.116  34.548  13.987
48936W        W12704  44.385  16.781   1.920
48937W        W12705   3.257   1.333   2.378
48938W        W12706  27.591  17.593  14.498
48939W        W12707  25.008  28.162   5.264
48940W        W12708  39.498   1.294   0.809
48941W        W12709  13.182  33.042  11.999
48942W        W12710  34.083   0.864  11.855
48943W        W12711   3.761  42.324   4.698
48944W        W12712   7.900  40.959  12.958
48945W        W12713   7.277  21.116   3.259
48946W        W12714  33.482  19.740   0.475
48947W        W12715   1.414  33.994   5.107
48948W        W12716  44.268   8.265  10.447
48949W        W12717  31.602  19.621  14.909
48950W        W12718   4.216  34.942  12.531
48951W        W12719  28.462  29.668  10.443
48952W        W12720  16.808   8.253  13.921
48953W        W12721   5.878  19.551   4.666
48954W        W12722  39.998  41.509   3.192
48955W        W12723   5.902  43.472  11.378
48956W        W12724  30.112   9.373  11.944
48957W        W12725  39.066  10.811   1.796
48958W        W12726   2.957  19.069   2.256
48959W        W12727  22.037  35.926   4.628
48960W        W12728  41.523  22.709  13.506
48961W        W12729   2.410   0.956   2.818
48962W        W12730  43.013   6.819   2.808
48963W        W12731  29.084  33.608  12.037
48964W        W12732  40.856   9.169   1.916
48965W        W12733   9.664  34.381   3.255
48966W        W12734  11.776   4.241  14.317
48967W        W12735  30.562  24.631  14.984
48968W        W12736  23.136  23.612   2.193
48969W        W12737  36.901  27.171  14.019
48970W        W12738  22.552  15.099  11.534
48971W        W12739  28.949  19.642   3.281
48972W        W12740  21.154  27.025   2.821
48973W        W12741  37.533  11.708   2.888
48974W        W12742   9.672  22.148   2.377
48975W        W12743  24.532  34.607   1.256
48976W        W12744  19.631  30.148  12.852
48977W        W12745   2.363  14.330   0.439
48978W        W12746  14.600   5.335   2.380
48979W        W12747  16.598   0.447   0.892
48980W        W12748  33.598  27.629  14.904
48981W        W12749  32.136  16.787  12.576
48982W        W12750  23.036  20.590  10.995
48983W        W12751  15.094  33.522  13.840
48984W        W12752  12.161  27.060   2.804
48985W        W12753  40.894  33.891  11.034
48986W        W12754  40.808  13.837   2.811
48987W        W12755  41.003  16.310   4.176
48988W        W12756  40.370   9.728  13.801
48989W        W12757   1.343  16.593  10.478
48990W        W12758  10.290  19.246  12.392
48991W        W12759  32.989   3.264   2.294
48992W        W12760  40.015   7.908   0.943
48993W        W12761  28.144  41.806   1.376
48994W        W12762  26.656  15.269   0.892
48995W        W12763   8.779  37.361   0.899
48996W        W12764  10.274  31.485   2.788
48997W        W12765  37.055  13.308   1.326
48998W        W12766   5.883  23.181  12.879
48999W        W12767  23.668  33.476  10.425
49000W        W12768  21.757  11.367  14.401
49001W        W12769  19.544  37.030  11.890
49002W        W12770  30.433   6.687   3.810
49003W        W12771  10.154  20.205   5.292
49004W        W12772  17.245  38.069   0.411
49005W        W12773  22.162  17.588   2.332
49006W        W12774  19.133   7.375   0.313
49007W        W12775  22.539  34.498  12.535
49008W        W12776   8.695  20.713  13.410
49009W        W12777  29.436  32.021  11.023
49010W        W12778  23.178  38.898   2.849
49011W        W12779  37.863   3.901  10.925
49012W        W12780  15.277   2.240   3.172
49013W        W12781  12.820  24.030   0.280
49014W        W12782  44.489  41.307   3.817
49015W        W12783   7.859  25.066  13.965
49016W        W12784  22.101  13.266   4.723
49017W        W12785   4.314   5.846   3.698
49018W        W12786   7.755  17.148   4.659
49019W        W12787  22.998  12.153  13.995
49020W        W12788  19.216  17.139  10.601
49021W        W12789  26.958  32.618   4.148
49022W        W12790  24.607  40.799  13.951
49023W        W12791   7.899  36.060  14.802
49024W        W12792  40.018  27.060   4.765
49025W        W12793  29.963  17.660   1.710
49026W        W12794  23.212  33.579   1.240
49027W        W12795   1.918   6.307   0.353
49028W        W12796  11.244  10.653   0.313
49029W        W12797  27.153  20.523  12.470
49030W        W12798  39.373   9.723   5.212
49031W        W12799  32.466  12.135  13.868
49032W        W12800  15.293   8.205  14.864
49033W        W12801  14.785  41.016  12.001
49034W        W12802  36.530  21.042   2.248
49035W        W12803   7.879  18.727  14.463
49036W        W12804  11.270  28.977   1.295
49037W        W12805  10.144  41.021   4.258
49038W        W12806  21.134   5.223   2.345
49039W        W12807  39.503  41.805   0.788
49040W        W12808  37.340   8.181   4.649
49041W        W12809  38.071  12.223  11.083
49042W        W12810  23.731   7.686   1.423
49043W        W12811  21.749  19.647  14.880
49044W        W12812  37.059   1.295   0.922
49045W        W12813  31.038  38.819   1.365
49046W        W12814   5.818  14.149   0.855
49047W        W12815   0.846  27.595  13.382
49048W        W12816  17.262  24.498   0.364
49049W        W12817  15.141  26.691  12.474
49050W        W12818  35.016  27.618   1.736
49051W        W12819  28.578  12.706  13.321
49052W        W12820  40.497  34.067   4.176
49053W        W12821  25.648  17.734   0.409
49054W        W12822  31.516  11.356  12.004
49055W        W12823  33.002  16.212   2.674
49056W        W12824  37.417  23.564  13.881
49057W        W12825  23.075   9.749  13.958
49058W        W12826   0.833   9.672  11.404
49059W        W12827  20.064  31.126  14.810
49060W        W12828  16.273  39.039  11.862
49061W        W12829  39.037  11.762  10.540
49062W        W12830   1.257  10.183  13.005
49063W        W12831  41.483  21.207   2.825
49064W        W12832  27.139  19.279   1.719
49065W        W12833   6.834  25.592  12.885
49066W        W12834   3.795   6.191   2.735
49067W        W12835  31.421  34.940   4.241
49068W        W12836  44.900  21.611   4.626
49069W        W12837  32.422  23.058  11.539
49070W        W12838  39.489  15.815   2.227
49071W        W12839   6.797  44.938   4.144
49072W        W12840   1.845  27.519  13.966
49073W        W12841  11.799  22.610   4.740
49074W        W12842  34.375  44.800   2.365
49075W        W12843  26.633  32.431   1.231
49076W        W12844  11.773   2.779  13.377
49077W        W12845  44.465  23.077  10.563
49078W        W12846  17.795  25.521   4.114
49079W        W12847  30.060   5.411   1.251
49080W        W12848  29.086   7.746  11.982
49081W        W12849  37.511  38.007   4.145
49082W        W12850  20.731  41.862  10.436
49083W        W12851   2.825  12.214  12.531
49084W        W12852  34.447  13.707   2.716
49085W        W12853   6.858  23.701  14.379
49086W        W12854  36.427  42.989   5.282
49087W        W12855  27.009   3.722   4.303
49088W        W12856   9.170  32.118  10.422
49089W        W12857   6.807  34.041   3.384
49090W        W12858  10.350  28.515   3.669
49091W        W12859  37.831  37.921   4.838
49092W        W12860  15.590  33.397   3.281
49093W        W12861  23.233   1.318   4.349
49094W        W12862  30.132  11.144   2.692
49095W        W12863  13.116  33.601   1.274
49096W        W12864  27.531  42.294   4.125
49097W        W12865  13.785  24.134  12.471
49098W        W12866  43.399   0.923  14.925
49099W        W12867  33.427  42.992   0.828
49100W        W12868  16.602  22.214   0.348
49101W        W12869  35.404   1.813   2.245
49102W        W12870  21.152  39.503   0.868
49103W        W12871  10.821  36.895  12.509
49104W        W12872  17.096  20.717   0.905
49105W        W12873  44.935  15.691   1.867
49106W        W12874  13.754   1.778  10.900
49107W        W12875  37.442  42.925  13.856
49108W        W12876   9.331  41.365  13.391
49109W        W12877  44.964  28.509  13.350
49110W        W12878  18.778  26.951   0.776
49111W        W12879  11.286  39.473  11.929
49112W        W12880  37.556  37.562  14.470
49113W        W12881  24.061   1.953  12.085
49114W        W12882  24.683   5.754   3.764
49115W        W12883   1.741  11.717  13.064
49116W        W12884  30.997  36.004   0.427
49117W        W12885  44.783  27.589   3.374
49118W        W12886  17.568   6.239   4.177
49119W        W12887  29.645  23.555  10.981
49120W        W12888  38.987  19.639  11.989
49121W        W12889  41.403  32.143   4.611
49122W        W12890  11.338  21.094  12.369
49123W        W12891  39.961  39.501   2.881
49124W        W12892   5.781  27.985   1.838
49125W        W12893  30.571  40.904  11.077
49126W        W12894   5.796  39.824  13.506
49127W        W12895  26.661  32.098  14.446
49128W        W12896   4.728  28.169  10.406
49129W        W12897  14.274   6.729  12.983
49130W        W12898  11.136  21.640  14.278
49131W        W12899  42.302  42.934   4.310
49132W        W12900  13.624  24.005  13.306
49133W        W12901  11.323  14.300   3.238
49134W        W12902  40.946   5.274   4.837
49135W        W12903  29.662   9.202  11.010
49136W        W12904  15.598  13.631   4.715
49137W        W12905  25.997   9.339  14.408
49138W        W12906  24.625   4.409  11.448
49139W        W12907  11.836  43.474  11.585
49140W        W12908  12.303  18.709   2.283
49141W        W12909  23.124   1.331   2.292
49142W        W12910  25.983  13.823  12.983
49143W        W12911   3.265  38.861   3.665
49144W        W12912   6.872   1.809   2.792
49145W        W12913  38.409  40.936  11.577
49146W        W12914   0.845  28.474   2.290
49147W        W12915  19.131  39.063   4.789
49148W        W12916   6.680  42.295   1.305
49149W        W12917  30.443  21.073   3.267
49150W        W12918  37.360  40.505   0.893
49151W        W12919  30.516  19.065  13.969
49152W        W12920  24.695  38.826  13.362
49153W        W12921  24.008  36.054   3.661
49154W        W12922   6.204  10.789   3.658
49155W        W12923  33.994   6.754   1.371
49156W        W12924   2.315  14.759   1.370
49157W        W12925  12.788  27.134  14.833
49158W        W12926  28.652  10.675   0.270
49159W        W12927  34.028   2.762  14.329
49160W        W12928   7.866  29.484   1.344
49161W        W12929   8.382  30.124   2.860
49162W        W12930  42.978   8.875   0.380
49163W        W12931  40.387   0.976   4.660
49164W        W12932  37.853   0.470  13.847
49165W        W12933  27.992  32.594   2.780
49166W        W12934  14.246  38.963  13.387
49167W        W12935   4.704  30.956  11.893
49168W        W12936  27.112  17.744   3.194
49169W        W12937  12.317  40.885   4.316
49170W        W12938  12.127   8.197  14.994
49171W        W12939  12.138  35.107   1.217
49172W        W12940  11.356  33.052   3.205
49173W        W12941   0.786   4.781  10.131
49174W        W12942  26.640   9.201   2.348
49175W        W12943   1.458  27.607  10.447
49176W        W12944  16.139  38.977  12.482
49177W        W12945  19.124  34.881   0.296
49178W        W12946  22.573  12.190   3.299
49179W        W12947   9.373   0.818   1.810
49180W        W12948  33.952   1.759  10.966
49181W        W12949  36.937  10.638   2.823
49182W        W12950  35.068  16.111   1.762
49183W        W12951   4.923  14.203   0.416
49184W        W12952  35.370  28.027  11.969
49185W        W12953   4.283  25.711   3.728
49186W        W12954   1.282  25.630  11.454
49187W        W12955  35.445  31.552   2.707
49188W        W12956  40.533  17.588   1.860
49189W        W12957   9.238  41.842  12.468
49190W        W12958  39.362   4.285  14.767
49191W        W12959  32.922  16.758  11.939
49192W        W12960  31.018  31.644   3.629
49193W        W12961   5.722   0.932  12.357
49194W        W12962  27.491  27.630   0.473
49195W        W12963  41.384  36.071  10.442
49196W        W12964   9.347  11.800   2.212
49197W        W12965   3.831  28.963   4.353
49198W        W12966   7.388  42.010   0.860
49199W        W12967  22.599  19.247   3.652
49200W        W12968  30.121   3.764   0.368
49201W        W12969  24.501  29.547  14.353
49202W        W12970   8.750  40.797   4.179
49203W        W12971  10.314  38.361   3.206
49204W        W12972  11.769   7.858  13.457
49205W        W12973  30.445  43.801  14.416
49206W        W12974  40.922  43.281   0.376
49207W        W12975   8.303  36.004   0.432
49208W        W12976  40.921  11.150  12.039
49209W        W12977  28.644  26.138  11.426
49210W        W12978  36.474  12.665   4.792
49211W        W12979  44.445  27.678   1.283
49212W        W12980  42.914  37.488   1.715
49213W        W12981  21.619  43.393   0.763
49214W        W12982   2.285  29.103   1.835
49215W        W12983  40.546  20.041  13.878
49216W        W12984  22.094  41.479  12.520
49217W        W12985  36.481  12.777   3.812
49218W        W12986  37.372   6.419   4.140
49219W        W12987   2.743  17.070   0.449
49220W        W12988  31.937   0.421   1.781
49221W        W12989   6.304  27.661   2.752
49222W        W12990  26.679  12.231   0.430
49223W        W12991   7.879  13.735  10.997
49224W        W12992  34.577  29.585   0.891
49225W        W12993  19.551  27.681  14.006
49226W        W12994  17.155  43.385   0.302
49227W        W12995   4.871  26.962  12.055
49228W        W12996  15.676  29.028  12.377
49229W        W12997   2.438  35.481   0.803
49230W        W12998  28.098  18.092   4.785
49231W        W12999  10.827  13.335   2.859
49232W        W13000   1.870  27.592   4.299
49233W        W13001  10.772  19.047   4.178
49234W        W13002  11.202  35.546  11.123
49235W        W13003  17.168  35.437  13.407
49236W        W13004  12.846  30.067   4.657
49237W        W13005  36.461  37.837   0.283
49238W        W13006  15.137  14.216   4.319
49239W        W13007   8.388  35.497   3.255
49240W        W13008  44.460  15.153  11.443
49241W        W13009  21.037  43.354  10.481
49242W        W13010   4.247  43.452   4.164
49243W        W13011  28.468  38.479   0.374
49244W        W13012  27.131  35.883  11.058
49245W        W13013  24.507  22.579   1.878
49246W        W13014  14.827  12.356   2.265
49247W        W13015   0.823  40.517  11.580
49248W        W13016   5.729  36.005  13.358
49249W        W13017  28.088  10.205   4.692
49250W        W13018   8.863  43.865   3.701
49251W        W13019  28.962  24.536  11.904
49252W        W13020  35.526  43.916  10.613
49253W        W13021  40.829   8.812  13.973
49254W        W13022  14.824  22.112  14.840
49255W        W13023   9.716  36.434  10.422
49256W        W13024   6.700   1.479   3.236
49257W        W13025  23.638  32.502   2.706
49258W        W13026  26.999  35.554   0.758
49259W        W13027   0.335  15.261   2.885
49260W        W13028  39.327  21.245   4.301
49261W        W13029   4.265   3.405  13.368
49262W        W13030  32.481  32.065   3.839
49263W        W13031  33.387  37.451   1.220
49264W        W13032  31.520   0.883   0.351
49265W        W13033  38.505   7.390   2.310
49266W        W13034  24.997  12.264   0.795
49267W        W13035  41.886  14.100   1.279
49268W        W13036  37.422   1.383   0.331
49269W        W13037  28.616  43.370   2.664
49270W        W13038  27.021  42.007  13.988
49271W        W13039  28.021   4.863   2.689
49272W        W13040  12.306  25.094  11.607
49273W        W13041  39.869  35.873  13.489
49274W        W13042  15.318  36.592   2.227
49275W        W13043   3.358  16.174  10.489
49276W        W13044  10.711  16.606  14.478
49277W        W13045  29.660  43.304   1.419
49278W        W13046  35.550  12.314  13.481
49279W        W13047  39.058  18.233   0.856
49280W        W13048  42.384  31.093   2.744
49281W        W13049  11.277  37.377  10.432
49282W        W13050  10.822  21.681   3.194
49283W        W13051  21.115  29.651   1.332
49284W        W13052  10.312   8.840   2.405
49285W        W13053  32.486  10.152  14.860
49286W        W13054  25.635  28.009   1.802
49287W        W13055  37.938   4.787   1.244
49288W        W13056  42.827  31.979  14.305
49289W        W13057  43.982  30.429   5.269
49290W        W13058  43.975  40.798   0.360
49291W        W13059   9.302  26.971   0.740
49292W        W13060   8.709  34.048  12.938
49293W        W13061  43.509  27.173   4.622
49294W        W13062  29.452   5.701  10.986
49295W        W13063  23.023  18.054   2.334
49296W        W13064  32.634  34.920  10.108
49297W        W13065  36.546  21.673  14.025
49298W        W13066  38.929  13.633  12.507
49299W        W13067   6.769  35.480   4.686
49300W        W13068  15.760  20.102  14.496
49301W        W13069  26.569  13.225   1.359
49302W        W13070   9.250  31.142  12.876
49303W        W13071  35.532  32.101   4.715
49304W        W13072   0.938  29.919   1.810
49305W        W13073  44.338  10.741   1.885
49306W        W13074   4.816  17.743  13.048
49307W        W13075   7.236  25.644   3.783
49308W        W13076  36.572   8.843  11.885
49309W        W13077  35.453  22.662  10.604
49310W        W13078  36.074   9.303   1.870
49311W        W13079   2.923  21.547  11.532
49312W        W13080  30.480   8.327   4.147
49313W        W13081   9.859   8.879  12.004
49314W        W13082   7.793   3.258  11.965
49315W        W13083  44.853  37.364   1.434
49316W        W13084  40.501  32.111   1.893
49317W        W13085   8.755  16.106   1.378
49318W        W13086  16.571  10.328   1.451
49319W        W13087  22.737  13.281   5.198
49320W        W13088  18.291  26.039   3.343
49321W        W13089  18.674   5.844   2.406
49322W        W13090   5.355  26.623   2.694
49323W        W13091  10.350  43.434   2.256
49324W        W13092  20.066   6.689   2.762
49325W        W13093  21.065   9.672   1.919
49326W        W13094  12.257  30.482  14.370
49327W        W13095  27.552   4.872  13.969
49328W        W13096  43.424  19.723   2.707
49329W        W13097  24.180  22.546  14.307
49330W        W13098  20.191   5.933  14.871
49331W        W13099   8.219  37.067   3.851
49332W        W13100  25.990   5.723  11.013
49333W        W13101   3.460  32.991   4.252
49334W        W13102  23.115  33.123   2.406
49335W        W13103  28.006  26.597   2.805
49336W        W13104  15.683  18.262  14.422
49337W        W13105  25.505  10.199   3.636
49338W        W13106  20.178  40.028  14.932
49339W        W13107  11.868  29.929  13.959
49340W        W13108  42.320  16.113  13.474
49341W        W13109  23.213  38.948  12.919
49342W        W13110  38.355  38.469  12.949
49343W        W13111   5.867  42.294   2.738
49344W        W13112  13.794   3.423   0.930
49345W        W13113  38.026  27.557   2.274
49346W        W13114  40.798   2.939  13.964
49347W        W13115  11.296   9.258   0.260
49348W        W13116  34.049   3.377  11.857
49349W        W13117   5.368  17.574  13.927
49350W        W13118  10.653  24.007  11.587
49351W        W13119  28.535  39.900  11.095
49352W        W13120  24.063  40.399   3.315
49353W        W13121   0.879  26.460  12.034
49354W        W13122   7.779  37.504  13.016
49355W        W13123   5.885  10.852  11.380
49356W        W13124   6.361  41.331  12.968
49357W        W13125   3.948   1.413   1.810
49358W        W13126  32.500  34.092  13.908
49359W        W13127   0.403   5.918  13.465
49360W        W13128  11.369  10.251  11.378
49361W        W13129  29.160   5.821  11.407
49362W        W13130  32.559   8.380  13.816
49363W        W13131  28.054  21.070  13.913
49364W        W13132   0.474  19.137   0.276
49365W        W13133  28.132  18.556   3.811
49366W        W13134   6.768  28.575  14.280
49367W        W13135   3.322  33.022   1.814
49368W        W13136  16.717  29.070   3.163
49369W        W13137  12.671   2.918   0.915
49370W        W13138  13.182  37.913  12.014
49371W        W13139  22.669  36.043  14.438
49372W        W13140  20.244  36.455   3.640
49373W        W13141  22.526  12.286   1.377
49374W        W13142  11.664  20.203  14.000
49375W        W13143  12.656  41.311  13.510
49376W        W13144   1.477  13.714   1.915
49377W        W13145   6.327  44.854   3.202
49378W        W13146  28.168   2.950  13.812
49379W        W13147   9.806  11.766  11.597
49380W        W13148  44.500  10.764  13.946
49381W        W13149  37.885  44.831   3.731
49382W        W13150  33.578  13.683   1.736
49383W        W13151  41.345   2.908  13.991
49384W        W13152  19.587   3.317  11.955
49385W        W13153  17.708  15.096   4.156
49386W        W13154  26.000  35.067  14.007
49387W        W13155  26.505   1.952   4.623
49388W        W13156  18.132  15.626  12.969
49389W        W13157   8.731  16.188   2.819
49390W        W13158  18.715  21.026  13.478
49391W        W13159  21.692  39.397  12.073
49392W        W13160   5.420  16.233   2.692
49393W        W13161  21.057   7.286   3.188
49394W        W13162   7.833  44.916  11.610
49395W        W13163  19.274  20.605  11.000
49396W        W13164   6.397   9.791   0.368
49397W        W13165  22.721  38.937  14.808
49398W        W13166   4.819  39.822  10.090
49399W        W13167  15.765  36.069  11.522
49400W        W13168  35.063  14.129  11.003
49401W        W13169   3.302  34.083  13.449
49402W        W13170  30.153  10.680  10.571
49403W        W13171  22.251  35.022   3.355
49404W        W13172   5.368  24.096  13.018
49405W        W13173  20.095  32.456   0.373
49406W        W13174  27.168  39.474   1.408
49407W        W13175  40.519  19.740  11.997
49408W        W13176  35.479   4.220   2.356
49409W        W13177  39.359  43.345   3.255
49410W        W13178  25.642  13.332   3.218
49411W        W13179  26.097  42.990   5.244
49412W        W13180  29.616  15.674  11.073
49413W        W13181  36.407   4.432  13.968
49414W        W13182  36.426  44.941   3.169
49415W        W13183  24.212  40.325   4.630
49416W        W13184   3.852  19.261  11.375
49417W        W13185   8.843  15.815   0.408
49418W        W13186  13.710  18.167   9.949
49419W        W13187  18.059  41.893  10.922
49420W        W13188  30.530  20.581   0.456
49421W        W13189  22.723  10.224   0.931
49422W        W13190  35.068   0.889  12.029
49423W        W13191  34.547  18.568   4.352
49424W        W13192  15.631  34.537   4.780
49425W        W13193  25.145  26.083  13.823
49426W        W13194  34.009  17.648   3.333
49427W        W13195   3.861  17.148  13.857
49428W        W13196  21.024  40.327   0.421
49429W        W13197  14.590  25.520   0.271
49430W        W13198   1.786  16.798   0.471
49431W        W13199   5.420  40.843   2.751
49432W        W13200  21.096  22.249   3.642
49433W        W13201  32.497   4.868   1.428
49434W        W13202   1.910  29.596  12.865
49435W        W13203   9.867  43.331   2.709
49436W        W13204   8.348  15.747  13.338
49437W        W13205  22.602  23.515   0.787
49438W        W13206   9.368  44.399  10.603
49439W        W13207  18.207  12.699   1.350
49440W        W13208  32.043  38.527   3.257
49441W        W13209  19.145  20.662   1.884
49442W        W13210  24.087   5.881   4.711
49443W        W13211  37.000  11.625  13.968
49444W        W13212  41.443  35.954   3.331
49445W        W13213  33.929  40.502   3.342
49446W        W13214  35.600  11.133   4.231
49447W        W13215  43.888   7.415   2.808
49448W        W13216  18.728  42.969  11.464
49449W        W13217   3.742   6.282  14.326
49450W        W13218  25.663   4.934  12.018
49451W        W13219  35.377  22.677   0.250
49452W        W13220  20.722  29.636   1.926
49453W        W13221  20.599  42.795   0.332
49454W        W13222  36.407  24.120  14.009
49455W        W13223  29.450  21.241  14.473
49456W        W13224   0.407  32.585  12.434
49457W        W13225  23.177  28.491  14.875
49458W        W13226  34.571   2.941   0.254
49459W        W13227  20.241  39.404  13.872
49460W        W13228   3.739  42.892   5.301
49461W        W13229  25.604  43.464  13.944
49462W        W13230   5.416   0.981  14.414
49463W        W13231  18.653  21.052  10.516
49464W        W13232   1.357  27.018  12.959
49465W        W13233  44.461  38.347   1.448
49466W        W13234  22.083  44.943  11.127
49467W        W13235  31.422   5.204  10.524
49468W        W13236   1.778  16.645  13.907
49469W        W13237  21.092  22.541   1.322
49470W        W13238   6.211   0.885   3.811
49471W        W13239  33.883  30.623   4.296
49472W        W13240   4.343  33.947   2.354
49473W        W13241  25.086  31.569   1.348
49474W        W13242  14.283  38.443   0.883
49475W        W13243  41.891  26.616  14.912
49476W        W13244  30.510  37.922   3.222
49477W        W13245  30.068  26.592   4.724
49478W        W13246   4.334   6.228   1.809
49479W        W13247  38.419  26.015  14.970
49480W        W13248   5.219  34.063   3.822
49481W        W13249  22.606  10.827  12.570
49482W        W13250  23.221  42.817   0.399
49483W        W13251  16.588  25.551   2.722
49484W        W13252  15.240  25.987   3.357
49485W        W13253  26.132  12.663   1.260
49486W        W13254  13.242  18.745   4.280
49487W        W13255  37.995  35.570   1.328
49488W        W13256  10.853   1.814  11.100
49489W        W13257  44.480  42.438   2.878
49490W        W13258  28.106  35.445  14.844
49491W        W13259  31.092   6.327   3.692
49492W        W13260  21.666  19.777  12.054
49493W        W13261   7.765   2.863  13.937
49494W        W13262   4.733  23.573  11.558
49495W        W13263  36.893   3.342   1.885
49496W        W13264  10.797  34.983  11.067
49497W        W13265  23.635  25.690   0.461
49498W        W13266  10.633  41.938  12.897
49499W        W13267   1.384  10.295   3.689
49500W        W13268  15.824  28.079  13.382
49501W        W13269   8.670  19.232   1.397
49502W        W13270  10.707  44.307  12.400
49503W        W13271  10.241  15.280  10.029
49504W        W13272  31.921  11.323  13.992
49505W        W13273  39.842  35.899  10.936
49506W        W13274   6.366   4.412  13.915
49507W        W13275  44.279   8.682  11.042
49508W        W13276  14.116  34.056  11.599
49509W        W13277  10.748  35.942  14.837
49510W        W13278  35.085  41.808   3.314
49511W        W13279  12.759  21.518   4.673
49512W        W13280  23.706  14.229  10.636
49513W        W13281  33.487   2.940  11.880
49514W        W13282  33.504  42.352  13.511
49515W        W13283   5.217  27.501  12.514
49516W        W13284  20.757  33.918  10.941
49517W        W13285  19.557  11.822   0.399
49518W        W13286  34.070  25.151  12.501
49519W        W13287  39.046  43.463  14.368
49520W        W13288  16.697  41.030  13.946
49521W        W13289   0.490  18.620  10.894
49522W        W13290   1.975  29.531  13.548
49523W        W13291  41.499  38.017   0.395
49524W        W13292  14.639  23.621  11.553
49525W        W13293  33.021  19.657  12.976
49526W        W13294  43.349   6.357   4.809
49527W        W13295  43.970  20.722  11.427
49528W        W13296  13.160  29.530  10.579
49529W        W13297  19.601  37.519  12.862
49530W        W13298  13.617  35.472  13.340
49531W        W13299   2.412  36.044  12.907
49532W        W13300  22.667  41.937  13.056
49533W        W13301   5.809  37.937  11.420
49534W        W13302  15.608   0.273  10.976
49535W        W13303  14.310  42.347  12.866
49536W        W13304  36.402  41.528   2.751
49537W        W13305  27.944  41.043  12.487
49538W        W13306  10.186  38.885   3.715
49539W        W13307  23.587  41.030   4.248
49540W        W13308  43.420   5.689   3.657
49541W        W13309  16.623  37.456   1.823
49542W        W13310  25.492  23.567  11.504
49543W        W13311  43.413  36.976  14.425
49544W        W13312   0.413  31.936   1.793
49545W        W13313  39.547   7.278   0.813
49546W        W13314  10.285   6.743  13.989
49547W        W13315  24.151   0.351   0.833
49548W        W13316  11.356   6.417  11.108
49549W        W13317  28.123  13.845   2.402
49550W        W13318  23.664   2.734  11.464
49551W        W13319   3.862   5.769  12.993
49552W        W13320  26.488  27.501  10.569
49553W        W13321  24.651  16.645   1.277
49554W        W13322  11.149  34.496  11.533
49555W        W13323  15.088  16.232   3.728
49556W        W13324   1.446  25.671   1.299
49557W        W13325   3.396   7.388   1.211
49558W        W13326  42.496  26.682  11.523
49559W        W13327   9.884  37.451   4.618
49560W        W13328  36.553  22.716   1.279
49561W        W13329   4.814   2.728   1.752
49562W        W13330  27.099  44.343  13.791
49563W        W13331  13.127  25.029   1.863
49564W        W13332  13.258  20.147  11.417
49565W        W13333  32.942  44.851  13.845
49566W        W13334  38.341   2.962  13.877
49567W        W13335  14.756  14.742  10.102
49568W        W13336   8.382  22.583  11.509
49569W        W13337  32.132  15.264   2.347
49570W        W13338  20.261   8.811   4.170
49571W        W13339  26.983  31.135  14.795
49572W        W13340  44.501  43.439  13.935
49573W        W13341   7.349  16.273  11.079
49574W        W13342  31.427  38.981  14.782
49575W        W13343  12.852  43.852  10.641
49576W        W13344  23.603  14.286   0.959
49577W        W13345  17.707   0.869   4.225
49578W        W13346   8.367  20.219  13.544
49579W        W13347  32.984  44.870   4.153
49580W        W13348  41.823   7.318   4.315
49581W        W13349  24.521  14.321   4.121
49582W        W13350   5.329   7.750   1.289
49583W        W13351  35.383   7.209  10.565
49584W        W13352  14.818  35.455   1.316
49585W        W13353  19.664  15.293  13.470
49586W        W13354   3.919  23.565  11.429
49587W        W13355   6.786   7.284  14.861
49588W        W13356  10.234  41.362   0.925
49589W        W13357  41.413  30.053  13.933
49590W        W13358  25.586  38.893  13.481
49591W        W13359  30.576  16.150   5.088
49592W        W13360  24.602  16.702  10.515
49593W        W13361  24.001  29.038  13.904
49594W        W13362  24.052   8.385  14.287
49595W        W13363  33.546  15.295  10.948
49596W        W13364  12.659  20.192  10.480
49597W        W13365  27.645  11.148  11.121
49598W        W13366   1.936  21.635   3.332
49599W        W13367  26.101  21.103  10.136
49600W        W13368  18.768  33.105  10.614
49601W        W13369  30.505  37.877   1.407
49602W        W13370   3.425  29.957  13.430
49603W        W13371  15.100   7.241   2.343
49604W        W13372   2.307  25.061   4.132
49605W        W13373  35.596  16.627   5.305
49606W        W13374  13.606  10.148  12.932
49607W        W13375  44.783  39.044   2.781
49608W        W13376  36.545  35.075  14.789
49609W        W13377  42.948   9.198  12.014
49610W        W13378  38.971   4.392   0.470
49611W        W13379  13.663  21.081  11.112
49612W        W13380  21.196  12.749   3.734
49613W        W13381  27.676  43.817  12.493
49614W        W13382  33.443  30.557   1.729
49615W        W13383   0.434  44.456  11.932
49616W        W13384  31.486   8.388   3.698
49617W        W13385  24.178  23.161   2.769
49618W        W13386  23.643  16.152   1.305
49619W        W13387  24.194  44.860  13.330
49620W        W13388  12.192  30.045   2.717
49621W        W13389  20.549  26.179   1.325
49622W        W13390  23.090   9.304  12.442
49623W        W13391  21.516  30.142  12.856
49624W        W13392   9.247  42.837   0.388
49625W        W13393  34.601  22.696   2.333
49626W        W13394   4.436  11.711  13.818
49627W        W13395  44.888  13.691   0.801
49628W        W13396  23.671  42.025   1.283
49629W        W13397  29.053  20.048  10.593
49630W        W13398  13.264  11.739   0.932
49631W        W13399  23.678  18.636   1.376
49632W        W13400  10.246  15.305  14.838
49633W        W13401   4.216  43.960  14.802
49634W        W13402  32.142   5.273   1.807
49635W        W13403  31.428  27.076  10.564
49636W        W13404  14.734  22.684   1.753
49637W        W13405  28.105  11.707   3.318
49638W        W13406  26.629  22.581   4.798
49639W        W13407  19.627  38.489   4.133
49640W        W13408  27.151  43.816  12.896
49641W        W13409  44.382  21.155   4.705
49642W        W13410  27.644  38.356   2.741
49643W        W13411   4.820  18.767   1.832
49644W        W13412   3.892  14.818   4.797
49645W        W13413  44.449   4.340   4.832
49646W        W13414  20.245  12.332  14.504
49647W        W13415  38.881   2.339   1.898
49648W        W13416  24.055  26.183   1.705
49649W        W13417  15.809  35.099   2.714
49650W        W13418   1.445  15.216   2.278
49651W        W13419   0.374  20.099  10.582
49652W        W13420  31.920  32.620  14.805
49653W        W13421  13.648  24.538  13.792
49654W        W13422  31.032  22.552   2.817
49655W        W13423  29.582   1.343  10.422
49656W        W13424  13.180  29.938  10.433
49657W        W13425   8.359  12.843  12.357
49658W        W13426  20.631  34.384  11.935
49659W        W13427  10.282  32.048   0.274
49660W        W13428  42.347  27.092   4.183
49661W        W13429  17.781  34.480  13.440
49662W        W13430  26.979   6.297  11.388
49663W        W13431  12.121  39.402  12.882
49664W        W13432  34.580  14.593   4.662
49665W        W13433   0.768   8.863   1.399
49666W        W13434  36.876  22.116   1.904
49667W        W13435  18.081  16.804   4.222
49668W        W13436  42.994  41.855   3.787
49669W        W13437   1.942  11.775   1.732
49670W        W13438  34.412   4.853   2.724
49671W        W13439  36.922  32.958   4.243
49672W        W13440  26.208   7.185   2.891
49673W        W13441  21.198  38.975   0.257
49674W        W13442   3.261  39.344  14.362
49675W        W13443  16.261  26.542   0.738
49676W        W13444  20.583  26.004   3.194
49677W        W13445  42.953  27.619  11.880
49678W        W13446  27.977  26.034   4.638
49679W        W13447  32.909   3.229   3.851
49680W        W13448  37.964  32.112   2.398
49681W        W13449  11.658   2.240   3.840
49682W        W13450  34.398  16.570   1.233
49683W        W13451   7.894  39.843   4.194
49684W        W13452  15.254  39.907  12.346
49685W        W13453  28.981  23.521   4.643
49686W        W13454  19.084   0.889  14.948
49687W        W13455  15.578   0.815   3.256
49688W        W13456  29.095  18.712   1.413
49689W        W13457  13.624   3.856   2.399
49690W        W13458  17.740  15.589  10.984
49691W        W13459  24.085  20.700   4.604
49692W        W13460  20.055   6.316  10.467
49693W        W13461  17.587   0.911   2.843
49694W        W13462  22.589  24.673  14.505
49695W        W13463  19.235  21.142   1.418
49696W        W13464  29.667   3.812  14.940
49697W        W13465  22.057  30.430  10.475
49698W        W13466  38.529  22.083   0.748
49699W        W13467  20.220  13.792   0.735
49700W        W13468  26.995   7.387   5.322
49701W        W13469   8.241   9.230  11.012
49702W        W13470   6.362  23.189  14.488
49703W        W13471  30.105  14.659  10.488
49704W        W13472  28.572  13.825   2.709
49705W        W13473  10.281   5.887  10.064
49706W        W13474  13.730  43.375   3.311
49707W        W13475  35.078  30.046   3.718
49708W        W13476   1.937  14.322   0.309
49709W        W13477  13.661  12.686   5.267
49710W        W13478  31.469  19.106  11.945
49711W        W13479  29.056  10.206   4.127
49712W        W13480  31.627   0.320  12.862
49713W        W13481  41.830  37.566  10.464
49714W        W13482  33.911   4.430   4.798
49715W        W13483   9.351  17.247   2.771
49716W        W13484  14.129  11.794   4.175
49717W        W13485   9.839  38.444  10.985
49718W        W13486  28.060  30.052  13.962
49719W        W13487  27.645  19.766  12.578
49720W        W13488   2.418  22.598  14.898
49721W        W13489  37.015  29.062  11.104
49722W        W13490  18.773   4.405   2.821
49723W        W13491  32.095  40.808   2.847
49724W        W13492  13.326  39.536  10.548
49725W        W13493  23.723  20.260  11.077
49726W        W13494  29.619  29.004  12.487
49727W        W13495  27.013  25.551   3.221
49728W        W13496  43.392  24.148   1.312
49729W        W13497  12.150  26.593  11.377
49730W        W13498  41.304  27.455  14.957
49731W        W13499   9.666  23.647   4.722
49732W        W13500  41.010   2.839  11.600
49733W        W13501  22.995  11.325  14.875
49734W        W13502  30.914  12.261   4.774
49735W        W13503   5.385  23.504   2.270
49736W        W13504  43.281  16.764   3.748
49737W        W13505  20.653  19.727  11.042
49738W        W13506  13.716  43.833   2.796
49739W        W13507  16.124  11.672  13.022
49740W        W13508  42.845  20.053  13.400
49741W        W13509  17.302  11.127  14.363
49742W        W13510  21.590  24.030   4.140
49743W        W13511   4.908  43.397   3.356
49744W        W13512   1.330  15.303  12.386
49745W        W13513  17.229   3.349  10.437
49746W        W13514  20.645  16.272   1.413
49747W        W13515  44.346  12.811   4.196
49748W        W13516   3.736  39.313   2.291
49749W        W13517   2.236  40.907  11.870
49750W        W13518  24.011  32.932   4.178
49751W        W13519   9.168  25.130  14.903
49752W        W13520  16.767  15.138  13.346
49753W        W13521  12.671  12.222  12.419
49754W        W13522  34.873   2.386  13.838
49755W        W13523  11.157  18.553  14.441
49756W        W13524  31.981  29.469  12.519
49757W        W13525   8.233  41.875   3.780
49758W        W13526   8.178  34.955   4.204
49759W        W13527  12.739  43.439   3.763
49760W        W13528   7.782  44.343  14.362
49761W        W13529  12.304  21.243  12.520
49762W        W13530  12.282   8.694  13.800
49763W        W13531  24.155  38.418   0.252
49764W        W13532   5.839  28.990   2.867
49765W        W13533  13.660   0.484  12.867
49766W        W13534  44.790  39.397  14.422
49767W        W13535  11.152  33.525   2.370
49768W        W13536   5.419  37.356  11.905
49769W        W13537  20.747   9.302   2.196
49770W        W13538  22.052  25.566  11.462
49771W        W13539  38.457   3.247  11.611
49772W        W13540  17.230   7.319  13.817
49773W        W13541  30.124  14.273   0.426
49774W        W13542  10.702   6.692  10.996
49775W        W13543  37.440  16.118   0.814
49776W        W13544  44.975   8.736  13.911
49777W        W13545   8.208  18.223  12.353
49778W        W13546  24.581  15.224   0.355
49779W        W13547  31.038   0.825  11.859
49780W        W13548  20.095  25.654   9.996
49781W        W13549  27.674  10.775  10.625
49782W        W13550  42.019  30.150  11.386
49783W        W13551  13.718  26.562   3.268
49784W        W13552  38.496  22.206   0.365
49785W        W13553  28.955  27.611  11.095
49786W        W13554  37.362  11.648   4.193
49787W        W13555   4.738  38.949   5.289
49788W        W13556  27.151  23.083  11.537
49789W        W13557  38.352   1.834   2.870
49790W        W13558  41.382  10.367   1.842
49791W        W13559  31.460  38.352  14.994
49792W        W13560  17.654  30.998   5.210
49793W        W13561  16.762  12.683  12.565
49794W        W13562  34.030   8.818  14.364
49795W        W13563  19.193  29.655  14.400
49796W        W13564  13.153  19.260   0.949
49797W        W13565  34.522  22.242   1.256
49798W        W13566  29.577  34.525  13.513
49799W        W13567  42.836  25.048  13.929
49800W        W13568  20.132   3.248   9.978
49801W        W13569  28.078  37.386  11.128
49802W        W13570  18.709   8.198  12.488
49803W        W13571  16.582   5.704  12.976
49804W        W13572  42.521   4.787  10.469
49805W        W13573   3.337  22.543   4.115
49806W        W13574  20.568  15.147   2.315
49807W        W13575  15.701  44.446  12.517
49808W        W13576  37.960   6.331   4.234
49809W        W13577  21.604  27.647  11.480
49810W        W13578  40.527  19.101   4.707
49811W        W13579  30.607  34.508   1.213
49812W        W13580  26.173  38.991  13.063
49813W        W13581  28.995   0.303  12.937
49814W        W13582  31.128  17.660  13.053
49815W        W13583  19.760  38.554  14.840
49816W        W13584  21.684   9.865  11.881
49817W        W13585  26.974  30.559   1.816
49818W        W13586   8.725  41.941  10.640
49819W        W13587  12.614  27.030   0.735
49820W        W13588  27.111  13.793  10.613
49821W        W13589  44.964  24.097  13.934
49822W        W13590  18.594  29.972  14.795
49823W        W13591  44.980  31.549   2.417
49824W        W13592  14.119  26.064   3.331
49825W        W13593  26.554  42.507   0.742
49826W        W13594  41.499   7.899   0.909
49827W        W13595   7.202  21.594  14.980
49828W        W13596  23.506  41.862  12.089
49829W        W13597   9.305  13.208   4.806
49830W        W13598  37.373  24.136   3.307
49831W        W13599   7.722  33.026  13.482
49832W        W13600  29.439  18.133   4.738
49833W        W13601  28.083  39.401   1.273
49834W        W13602  39.499  10.644  14.791
49835W        W13603  18.591  24.505  12.043
49836W        W13604  10.221   2.841  13.973
49837W        W13605   4.234   6.204  14.438
49838W        W13606  40.515  31.512  11.446
49839W        W13607  23.038   9.671   3.730
49840W        W13608  15.254  11.656  11.006
49841W        W13609   1.407  30.088   3.651
49842W        W13610   0.458   7.899   0.364
49843W        W13611  13.207  14.177   2.269
49844W        W13612  35.020  23.690  14.377
49845W        W13613  16.736  13.273  10.555
49846W        W13614  13.762   3.458   2.244
49847W        W13615  35.418   3.453  11.505
49848W        W13616  40.502  37.934  13.872
49849W        W13617  23.058  20.681  12.483
49850W        W13618  23.069   8.335  14.913
49851W        W13619  27.517  15.236  13.815
49852W        W13620  29.631  41.296  13.474
49853W        W13621  40.898  16.660  11.470
49854W        W13622   2.261  22.090  11.016
49855W        W13623  18.080  20.120   1.730
49856W        W13624  11.343  22.211  11.447
49857W        W13625  23.084   1.881  14.988
49858W        W13626   6.722   5.779  11.876
49859W        W13627  25.696  13.136  12.568
49860W        W13628  33.406   4.258  11.969
49861W        W13629   5.281  35.381  13.404
49862W        W13630  20.228  14.130  14.291
49863W        W13631  17.562   8.680  14.479
49864W        W13632  15.190  12.319   1.911
49865W        W13633  35.549   2.277   1.850
49866W        W13634  32.449  36.401  13.455
49867W        W13635  12.333   0.359  10.888
49868W        W13636  15.693   8.382   3.276
49869W        W13637   9.251  22.069  12.481
49870W        W13638  39.882  44.459   0.357
49871W        W13639   1.861  30.421  12.047
49872W        W13640  10.664  18.265  11.437
49873W        W13641  22.053  40.311  14.299
49874W        W13642   6.906  39.007   3.385
49875W        W13643  35.034   9.818   2.260
49876W        W13644  32.025  19.638  12.962
49877W        W13645  17.250  39.429  11.496
49878W        W13646  21.082  23.072   4.760
49879W        W13647   4.815  23.065   9.959
49880W        W13648  16.146  14.099   2.285
49881W        W13649  23.106  18.057   1.702
49882W        W13650   8.797  20.228  12.506
49883W        W13651   2.783  39.813   3.152
49884W        W13652  42.420  20.649   1.809
49885W        W13653  15.227  13.647  13.454
49886W        W13654  20.737  39.052   2.311
49887W        W13655  19.750  11.730   0.870
49888W        W13656  35.101  39.935  10.598
49889W        W13657  35.602  35.529   3.833
49890W        W13658  15.265  16.642  13.929
49891W        W13659  24.087   5.761  12.928
49892W        W13660   8.261  43.908   2.850
49893W        W13661   2.291  37.850   4.227
49894W        W13662  33.008  32.017  10.608
49895W        W13663   4.827  20.172  11.088
49896W        W13664  35.993   6.778   1.794
49897W        W13665   0.897  14.266   1.430
49898W        W13666  28.185  26.465  11.501
49899W        W13667  31.496  17.146   2.321
49900W        W13668   4.718  44.809  12.538
49901W        W13669  41.483  18.172   0.836
49902W        W13670  25.490  20.058   1.830
49903W        W13671  14.691  23.734   5.194
49904W        W13672  37.355  37.494  14.990
49905W        W13673  23.549  44.986  12.569
49906W        W13674  12.142  32.604  10.917
49907W        W13675  18.732  22.137   0.396
49908W        W13676  29.060  39.473  12.973
49909W        W13677  13.195   0.816  14.372
49910W        W13678  15.580  11.654   2.834
49911W        W13679  17.794  18.107   1.393
49912W        W13680  13.722  37.505   1.278
49913W        W13681  25.038  19.241   3.320
49914W        W13682  34.110  30.493  10.967
49915W        W13683  38.983  15.321   1.904
49916W        W13684  20.659  12.702   4.191
49917W        W13685   0.974  33.931   1.437
49918W        W13686  35.479  21.113   3.653
49919W        W13687  42.389  43.284   1.400
49920W        W13688  22.695   6.328  10.612
49921W        W13689  32.035  23.214  10.628
49922W        W13690  13.797  36.384   0.417
49923W        W13691  16.167  21.036  13.357
49924W        W13692  11.197  22.503  10.564
49925W        W13693  38.842   2.284   0.959
49926W        W13694  20.144  38.527  10.565
49927W        W13695  28.484   5.294   0.380
49928W        W13696  30.913  28.967  13.957
49929W        W13697  27.562  29.560  12.556
49930W        W13698  42.821   5.435  12.046
49931W        W13699  14.782  43.423  10.480
49932W        W13700  12.217  26.560  11.960
49933W        W13701   2.431   7.327  11.941
49934W        W13702   3.929  30.012  12.353
49935W        W13703  16.621   7.258  14.004
49936W        W13704  27.564   4.927   2.311
49937W        W13705  38.889  33.438   5.121
49938W        W13706  29.125   6.204   0.966
49939W        W13707  33.070  41.301  12.947
49940W        W13708  12.672  38.937  14.513
49941W        W13709  38.871  38.075   1.879
49942W        W13710   9.193  19.777  11.487
49943W        W13711  32.890  34.885  14.295
49944W        W13712  11.767  32.501   4.269
49945W        W13713  26.993   3.802   4.809
49946W        W13714  35.915  16.698   2.733
49947W        W13715  28.497  10.662  14.336
49948W        W13716  40.022  39.034   2.896
49949W        W13717  18.670   6.398   4.629
49950W        W13718  17.062  16.214   4.229
49951W        W13719   2.814  37.984   0.456
49952W        W13720  36.079  26.010   0.770
49953W        W13721   8.212  11.728   2.745
49954W        W13722  38.461   7.720  13.319
49955W        W13723  31.465  14.833   0.929
49956W        W13724   7.720  24.034  10.930
49957W        W13725   1.238  14.769  14.767
49958W        W13726  10.720   7.252   2.696
49959W        W13727   6.298  17.231  12.465
49960W        W13728  35.481  18.286  10.527
49961W        W13729   5.321  20.584   0.298
49962W        W13730  44.505  33.507   4.303
49963W        W13731  28.080  32.999   0.760
49964W        W13732  29.440  26.636  11.982
49965W        W13733  11.255  41.885   1.437
49966W        W13734  33.946  18.568   1.839
49967W        W13735  32.946  20.184  11.878
49968W        W13736  11.242  17.178  14.852
49969W        W13737  16.142   7.824   1.242
49970W        W13738  25.568  28.930   2.210
49971W        W13739  14.794   2.366  11.897
49972W        W13740   3.801  33.589   3.381
49973W        W13741   7.183  43.005  12.542
49974W        W13742  28.546  38.906   0.845
49975W        W13743  23.019  30.624  13.323
49976W        W13744  22.250  12.765   3.331
49977W        W13745  34.446  19.549   1.359
49978W        W13746  20.754  16.238   2.344
49979W        W13747  30.631  18.560  11.920
49980W        W13748  31.959   8.279  12.570
49981W        W13749  33.994  38.397   0.454
49982W        W13750  11.271  18.639   3.646
49983W        W13751   7.226  37.350  12.435
49984W        W13752  33.388   5.198   3.386
49985W        W13753   8.355   3.330   2.765
49986W        W13754  39.058   3.860  11.573
49987W        W13755   8.368   9.150  10.491
49988W        W13756  20.028   8.673   5.083
49989W        W13757  27.621  13.233  13.839
49990W        W13758  44.341  30.043  11.411
49991W        W13759  32.014   7.669  12.469
49992W        W13760   6.765  20.139  13.947
49993W        W13761  17.215  14.165   2.719
49994W        W13762  10.205  12.770  11.935
49995W        W13763   7.403  22.517  11.458
49996W        W13764  16.074  19.729   5.658
49997W        W13765  29.014  22.532  13.483
49998W        W13766  41.498  10.257  13.876
49999W        W13767  25.480   6.409   0.752
50000W        W13768  20.766  13.763  14.316
50001W        W13769  34.380  20.156   0.944
50002W        W13770   9.157   5.248   1.717
50003W        W13771  39.402  28.561  11.512
50004W        W13772  25.011  30.540   4.316
50005W        W13773  23.560   4.218   3.375
50006W        W13774  41.534  30.119   5.152
50007W        W13775  29.608  11.725  11.956
50008W        W13776   6.855  43.767  12.376
50009W        W13777  16.711  20.655   3.714
50010W        W13778  30.414  31.901  11.910
50011W        W13779  42.790  38.494  12.913
50012W        W13780  38.076  26.625  13.505
50013W        W13781  42.348   4.779   4.838
50014W        W13782  39.544  29.474  14.961
50015W        W13783   8.394  37.504  10.620
50016W        W13784   7.253   1.297   3.286
50017W        W13785  37.375  29.942   3.823
50018W        W13786  26.579  14.760  14.468
50019W        W13787  43.329  23.678   3.150
50020W        W13788  20.622  11.853  12.895
50021W        W13789  24.635  39.985  11.991
50022W        W13790  35.988  39.435   4.118
50023W        W13791   2.839  14.591   4.706
50024W        W13792  11.719  23.612   4.769
50025W        W13793  41.485  10.382  11.073
50026W        W13794  13.726  12.346  12.909
50027W        W13795  39.861  19.187  11.093
50028W        W13796  40.435   8.342   3.167
50029W        W13797  17.610   0.445  12.886
50030W        W13798   0.849  39.822  11.988
50031W        W13799  16.675  39.531   4.249
50032W        W13800  43.915  22.695   2.326
50033W        W13801  39.940  20.194  14.495
50034W        W13802  10.373  16.797   3.681
50035W        W13803  25.559  12.626  12.384
50036W        W13804  15.663  21.656   3.708
50037W        W13805  21.204   6.334  13.811
50038W        W13806  18.119  30.110   2.703
50039W        W13807  42.837  31.028  13.330
50040W        W13808   0.880  43.920  11.930
50041W        W13809   2.915   2.766   2.376
50042W        W13810  11.312  27.174   0.874
50043W        W13811   1.774   5.877   3.332
50044W        W13812  24.552  28.605   2.672
50045W        W13813  43.945  24.636  10.551
50046W        W13814  18.699  13.114  13.982
50047W        W13815  19.575  24.076  13.351
50048W        W13816  30.928   0.301  13.432
50049W        W13817  28.537  25.079  10.923
50050W        W13818   7.341  12.176   3.704
50051W        W13819  37.995  20.685  11.999
50052W        W13820  18.203  21.261   4.691
50053W        W13821   7.355  29.471  10.627
50054W        W13822  33.131  25.001  14.353
50055W        W13823  28.175  40.411  11.498
50056W        W13824  43.806  28.107  11.002
50057W        W13825   2.800  42.407  11.020
50058W        W13826   9.671  14.802   0.729
50059W        W13827  32.955  14.100  11.104
50060W        W13828  31.473  40.992   0.909
50061W        W13829  40.405  27.563  11.394
50062W        W13830  41.495  26.162   4.128
50063W        W13831  17.220  17.775  13.819
50064W        W13832  16.610  17.655   5.220
50065W        W13833  43.015  28.636  11.091
50066W        W13834   6.316  16.765  12.875
50067W        W13835  10.320  12.709   9.492
50068W        W13836  37.342   9.263   1.246
50069W        W13837   1.965  14.787  11.875
50070W        W13838  38.512  26.186   4.227
50071W        W13839  24.646  31.106  12.941
50072W        W13840  44.340   5.216  10.568
50073W        W13841  34.929  10.264   2.803
50074W        W13842  28.159  30.658  10.543
50075W        W13843   9.284  39.005   3.347
50076W        W13844  19.202  24.589   3.681
50077W        W13845  11.156  29.154  10.416
50078W        W13846  34.517   2.845  11.054
50079W        W13847   9.795  16.184   4.243
50080W        W13848  19.248  27.994   0.417
50081W        W13849  22.176   5.417   4.761
50082W        W13850  40.029  22.658   0.942
50083W        W13851  33.904  30.450  14.822
50084W        W13852  42.982  17.110   1.271
50085W        W13853  19.656  22.199  12.887
50086W        W13854  44.451  29.042  12.864
50087W        W13855   4.932   9.873  12.438
50088W        W13856   8.884  10.182   2.724
50089W        W13857  17.596  26.595  14.452
50090W        W13858  30.917  16.172   2.793
50091W        W13859  22.667   9.211  12.044
50092W        W13860  20.175  32.506  13.399
50093W        W13861   5.775  38.854   1.309
50094W        W13862   7.816   7.282   0.863
50095W        W13863   4.793  27.466   1.749
50096W        W13864  41.003  14.800   2.882
50097W        W13865   8.185  42.007  13.389
50098W        W13866  19.753   9.248  11.576
50099W        W13867  30.579  26.113  13.437
50100W        W13868  38.046  25.143   0.946
50101W        W13869  38.992   6.771   3.326
50102W        W13870  41.433  25.542   1.758
50103W        W13871   6.310   3.216  14.016
50104W        W13872   1.944  30.494  12.563
50105W        W13873  22.162   4.819   2.396
50106W        W13874  25.560   4.900   2.218
50107W        W13875  29.103  31.631  12.829
50108W        W13876  20.629   1.362  14.478
50109W        W13877  38.474  41.814  11.438
50110W        W13878  36.406  32.930  13.975
50111W        W13879  18.562   5.695   4.752
50112W        W13880  19.550  11.844  14.995
50113W        W13881   7.865  17.722   2.352
50114W        W13882  36.922   2.956  14.511
50115W        W13883  23.664  28.493  11.454
50116W        W13884  36.940  21.090   0.807
50117W        W13885  10.660  20.529   0.775
50118W        W13886  41.314  38.956   1.813
50119W        W13887  33.989  12.347  13.412
50120W        W13888   9.770  11.219   2.298
50121W        W13889  24.692  31.500   1.316
50122W        W13890  38.949  33.576   2.706
50123W        W13891  36.463  11.360   1.889
50124W        W13892   7.753   9.184  11.534
50125W        W13893  42.427  25.205   0.365
50126W        W13894  19.165  13.330   2.888
50127W        W13895  19.206  39.481   3.816
50128W        W13896   0.881  10.768   3.756
50129W        W13897   8.665   9.821  14.388
50130W        W13898  31.591   3.332  11.105
50131W        W13899  30.489   0.811  12.504
50132W        W13900  25.607   0.860   5.226
50133W        W13901  34.983   3.283  12.482
50134W        W13902  17.618  23.523  14.962
50135W        W13903   7.865   2.263  13.987
50136W        W13904   0.465  38.531  12.969
50137W        W13905   6.708   9.649  13.511
50138W        W13906  21.655  23.518  13.954
50139W        W13907  33.060   7.689  13.993
50140W        W13908   2.961  33.407  10.485
50141W        W13909  21.565  13.351   4.784
50142W        W13910  20.259  11.643  13.452
50143W        W13911   9.252  12.202   4.798
50144W        W13912  22.627   7.811   3.178
50145W        W13913  20.170  42.936  14.277
50146W        W13914  26.559  27.974  13.959
50147W        W13915  33.132  19.614   5.192
50148W        W13916  15.639   2.406  11.914
50149W        W13917  18.646  24.623  12.905
50150W        W13918   4.770  31.413   0.442
50151W        W13919   9.222  33.113  11.409
50152W        W13920  36.086  23.692   1.274
50153W        W13921  25.698   0.477  13.959
50154W        W13922   7.293  37.337   1.809
50155W        W13923  43.433  24.995   0.247
50156W        W13924  32.586  42.406   1.758
50157W        W13925  39.545  15.609   3.699
50158W        W13926   2.446  26.090  14.380
50159W        W13927  36.388  17.262   3.282
50160W        W13928   4.277   8.279  13.337
50161W        W13929  18.783  10.150   1.709
50162W        W13930  25.102   9.276   1.415
50163W        W13931  13.254  25.218   9.995
50164W        W13932  40.548  20.073   0.769
50165W        W13933  44.002  38.013   3.684
50166W        W13934  26.201  19.181  11.925
50167W        W13935  34.458   6.283   1.757
50168W        W13936   0.822  40.021   2.860
50169W        W13937  20.604   0.819  10.639
50170W        W13938  12.789  25.516   4.169
50171W        W13939   9.733  27.152  14.449
50172W        W13940  37.088  44.396   3.865
50173W        W13941  27.463  32.619   4.327
50174W        W13942  44.761   2.826   2.243
50175W        W13943   2.925  10.770   3.211
50176W        W13944  20.683  28.149   2.662
50177W        W13945  13.208  20.060   0.435
50178W        W13946   2.856  34.404  11.408
50179W        W13947   8.773  18.261   1.419
50180W        W13948   4.878   0.281  14.886
50181W        W13949  38.885  17.174   5.174
50182W        W13950  25.494   7.310   3.179
50183W        W13951   4.746  14.783  14.014
50184W        W13952  36.348  11.866  10.936
50185W        W13953   3.215  27.587  13.819
50186W        W13954   8.380  24.073  14.286
50187W        W13955  35.884   5.336   2.662
50188W        W13956  17.759   1.846  11.484
50189W        W13957  44.927   0.436  11.029
50190W        W13958   2.741  18.192   3.173
50191W        W13959  29.103  32.110  10.541
50192W        W13960  17.229   0.410  13.932
50193W        W13961  35.400   8.276   5.266
50194W        W13962  16.731  27.542   1.223
50195W        W13963   1.906   6.212   3.695
50196W        W13964  36.495  31.515   1.320
50197W        W13965  30.656  36.989  13.888
50198W        W13966  24.529  30.949  11.448
50199W        W13967  10.687   5.256   3.215
50200W        W13968  38.837  39.944   3.727
50201W        W13969  12.123  20.545  11.864
50202W        W13970  42.500  32.975   3.155
50203W        W13971  14.718   6.766  13.867
50204W        W13972   3.349  36.856   1.403
50205W        W13973   9.238  41.475  12.474
50206W        W13974  11.859   7.262  12.093
50207W        W13975   7.691  23.685   4.831
50208W        W13976  21.027  12.197  12.476
50209W        W13977  37.463  26.593   4.148
50210W        W13978  19.099  25.158   2.682
50211W        W13979  35.088  34.425  13.993
50212W        W13980  21.095  19.051  11.978
50213W        W13981   3.840  29.058  12.518
50214W        W13982  40.320  23.999   0.325
50215W        W13983  38.535   9.253   1.891
50216W        W13984  34.405   6.334  10.405
50217W        W13985  32.055  16.282  11.865
50218W        W13986  15.690  12.671   3.655
50219W        W13987   9.329  20.114   1.263
50220W        W13988  10.837  13.201   0.924
50221W        W13989  20.635  27.036   3.796
50222W        W13990  10.805  27.075   4.732
50223W        W13991  14.803  41.470   5.279
50224W        W13992  32.626  25.186   5.173
50225W        W13993  15.306   0.348  12.891
50226W        W13994  36.368   2.936   1.411
50227W        W13995  36.919   7.239   3.859
50228W        W13996  18.640  23.578   2.851
50229W        W13997  42.867  31.938   1.439
50230W        W13998  21.589  28.459  13.960
50231W        W13999  38.341  40.310  10.518
50232W        W14000  20.182  25.125   2.727
50233W        W14001   9.253  10.163   2.343
50234W        W14002  36.517  28.126  13.902
50235W        W14003  21.550  11.143  14.990
50236W        W14004   0.299  37.444   2.419
50237W        W14005  42.383  34.102  12.402
50238W        W14006   4.864  39.864  10.573
50239W        W14007  18.631  33.874   3.306
50240W        W14008  15.706  19.062   1.720
50241W        W14009  44.349  29.486  13.910
50242W        W14010  29.426   7.251  12.498
50243W        W14011  20.529  36.987   0.433
50244W        W14012  42.965  40.332   3.761
50245W        W14013  43.895  40.484  13.357
50246W        W14014  33.126   6.335   2.304
50247W        W14015  23.098  38.877  13.423
50248W        W14016  23.726  21.621   0.870
50249W        W14017  42.341   6.888  13.514
50250W        W14018  11.824  24.158  11.930
50251W        W14019  24.170   8.671   4.125
50252W        W14020  37.437  26.093   2.860
50253W        W14021  16.599   3.772  14.420
50254W        W14022  14.270  41.805  12.866
50255W        W14023   0.891  11.625  11.384
50256W        W14024  12.358  10.232  14.408
50257W        W14025  21.681  13.199  11.115
50258W        W14026   6.289  12.801  10.421
50259W        W14027  12.658  38.028  13.966
50260W        W14028   8.707  27.474   4.643
50261W        W14029  24.194  10.845   4.251
50262W        W14030  28.590   5.388   0.901
50263W        W14031   5.248  23.101   3.333
50264W        W14032  20.735  11.146   2.770
50265W        W14033  32.449  10.240  11.416
50266W        W14034  13.738   3.346   4.228
50267W        W14035  10.872  25.469   4.125
50268W        W14036   5.892  24.579   3.356
50269W        W14037  17.075   2.944  11.874
50270W        W14038  15.719  23.682  13.991
50271W        W14039  34.935  16.684   3.196
50272W        W14040   1.281   1.766  12.466
50273W        W14041  44.938   0.748  10.587
50274W        W14042  25.215  24.533  14.971
50275W        W14043   6.693  26.669  14.882
50276W        W14044   7.872   9.190  12.963
50277W        W14045  42.324  36.095   2.829
50278W        W14046   0.297  21.609  10.891
50279W        W14047  12.857  19.651   4.815
50280W        W14048  40.500  20.226   1.794
50281W        W14049  24.102  26.143   2.363
50282W        W14050  12.718   7.248   0.480
50283W        W14051  28.527  36.502   4.337
50284W        W14052  16.253  15.260   1.217
50285W        W14053  37.410  38.066   1.906
50286W        W14054  31.486   7.346   1.756
50287W        W14055  40.931  27.567  13.344
50288W        W14056  40.854   3.746   1.245
50289W        W14057  36.033  40.541  11.956
50290W        W14058  40.445  18.188   4.625
50291W        W14059  32.530  29.063  13.977
50292W        W14060  29.528  10.221   2.206
50293W        W14061  12.720   3.946   4.216
50294W        W14062  37.915  23.083  10.903
50295W        W14063  35.033   6.417  10.056
50296W        W14064  21.075   5.897  12.012
50297W        W14065  19.758  14.284  13.937
50298W        W14066  35.517   8.730  14.300
50299W        W14067  20.147  36.039  12.380
50300W        W14068  34.111  23.544  13.392
50301W        W14069  28.989   3.338   0.331
50302W        W14070   2.799  32.070  13.393
50303W        W14071  41.805  26.506   2.744
50304W        W14072  35.966  13.629   4.632
50305W        W14073   8.877  36.471  10.478
50306W        W14074  42.993  18.207  11.588
50307W        W14075  30.071   2.392  11.378
50308W        W14076  26.105  40.365  11.504
50309W        W14077  12.263   1.439   2.753
50310W        W14078  13.297  22.618  10.456
50311W        W14079  24.503   3.821   4.836
50312W        W14080   4.376  35.570   9.629
50313W        W14081  35.067  40.455  12.006
50314W        W14082  22.155  17.661   4.289
50315W        W14083   3.799  13.822  10.558
50316W        W14084  20.615  30.943  14.009
50317W        W14085  42.886  15.784   1.748
50318W        W14086   9.232  24.562  10.449
50319W        W14087   4.894  32.441   9.966
50320W        W14088  25.162   6.868  10.994
50321W        W14089  12.357  13.184   2.392
50322W        W14090  27.454  21.551   4.619
50323W        W14091  13.656  38.943   1.269
50324W        W14092   2.261  11.182  14.779
50325W        W14093  24.676   7.905   1.735
50326W        W14094  33.419   6.282   4.173
50327W        W14095  26.084   1.852  10.437
50328W        W14096  31.913  13.653   4.717
50329W        W14097  26.135  39.960   2.726
50330W        W14098  11.189  20.732  10.940
50331W        W14099  23.594  34.925   2.781
50332W        W14100   1.290  32.578   1.213
50333W        W14101   1.456  36.949  12.973
50334W        W14102  22.033  30.120  13.856
50335W        W14103   6.274  35.974  13.956
50336W        W14104  11.814  25.194  10.156
50337W        W14105  34.876  35.028  14.318
50338W        W14106  29.963  32.139   3.839
50339W        W14107  37.883  42.526   1.798
50340W        W14108   1.939   8.396  13.515
50341W        W14109   2.907  17.652   1.806
50342W        W14110  22.637   5.711   0.868
50343W        W14111   0.472   2.341   2.724
50344W        W14112  31.537   5.841  13.427
50345W        W14113  11.717  36.474  13.032
50346W        W14114  30.563   2.391  12.025
50347W        W14115   9.662  17.253  11.539
50348W        W14116  12.200  32.566  13.860
50349W        W14117  26.565  34.006   3.236
50350W        W14118   1.944  11.678  11.036
50351W        W14119  14.330  31.911  10.449
50352W        W14120   1.436  39.042   0.839
50353W        W14121  28.646  35.858  11.090
50354W        W14122  40.422  28.079  14.997
50355W        W14123  40.966   3.836  12.503
50356W        W14124  34.060  21.592  11.403
50357W        W14125  14.151  39.363   1.300
50358W        W14126  44.301  41.945  12.492
50359W        W14127  11.141  11.318  13.320
50360W        W14128   1.743  16.641   3.146
50361W        W14129  30.933  31.982  11.589
50362W        W14130  18.730  43.282   4.168
50363W        W14131  26.142  44.768  10.997
50364W        W14132  38.378  29.032  14.444
50365W        W14133  35.998  25.645  14.456
50366W        W14134   1.251  30.963   0.420
50367W        W14135   3.892  10.632   4.704
50368W        W14136   8.888  17.152   0.293
50369W        W14137   8.756  33.582  14.777
50370W        W14138  25.968   0.765   4.206
50371W        W14139  18.694  16.119  11.544
50372W        W14140  12.746  39.022  13.454
50373W        W14141  24.118   1.968   4.649
50374W        W14142  30.986  31.077  12.439
50375W        W14143  43.414  42.497   2.896
50376W        W14144  44.904  42.403   2.340
50377W        W14145  22.215  25.644   3.240
50378W        W14146  27.570  43.492   2.813
50379W        W14147  24.479  44.292   2.409
50380W        W14148  26.500   0.349   2.396
50381W        W14149   7.812  26.006  12.952
50382W        W14150   7.381  28.061  14.803
50383W        W14151   5.713  30.086  13.542
50384W        W14152  44.407   4.332  14.925
50385W        W14153  42.477   2.857  11.601
50386W        W14154  17.695  36.016  13.900
50387W        W14155   9.774  12.333  12.894
50388W        W14156  11.697  32.899   3.197
50389W        W14157  39.935  38.477   2.682
50390W        W14158  10.786  14.660  14.863
50391W        W14159  18.235  37.866  14.414
50392W        W14160  43.466   0.755  13.949
50393W        W14161  37.528  31.012   1.793
50394W        W14162  20.532  27.079   0.934
50395W        W14163  24.530   7.407  14.864
50396W        W14164  42.432  15.699   2.284
50397W        W14165  27.538   9.150  10.454
50398W        W14166  35.065  36.385  11.925
50399W        W14167  44.981  41.482  14.809
50400W        W14168  26.568   1.944   1.443
50401W        W14169  19.204  34.470  10.405
50402W        W14170   1.908  35.917  12.021
50403W        W14171  33.071  39.910  11.082
50404W        W14172  28.559  18.143  13.545
50405W        W14173   6.751  41.506  11.601
50406W        W14174  16.807  37.557  13.889
50407W        W14175  15.273  31.972  10.641
50408W        W14176  39.955   6.881  13.845
50409W        W14177   8.393  17.076  14.328
50410W        W14178  18.751  23.499   5.640
50411W        W14179  16.125  27.518  10.471
50412W        W14180  35.020  14.771   1.387
50413W        W14181  10.293  31.408  13.506
50414W        W14182   9.292  25.577   4.219
50415W        W14183  21.616  38.927   1.421
50416W        W14184  12.821   3.725   2.281
50417W        W14185  19.627  10.359   0.827
50418W        W14186  26.081  42.417  11.481
50419W        W14187  14.798  18.214  11.424
50420W        W14188  32.403  22.027   0.877
50421W        W14189  14.103  22.584   0.371
50422W        W14190  27.168  28.080  10.957
50423W        W14191  25.093  23.562  11.481
50424W        W14192   9.786  18.650  11.600
50425W        W14193  25.569   9.379   2.275
50426W        W14194  39.991   2.822  14.943
50427W        W14195  43.944  42.992   3.852
50428W        W14196  28.031  18.671   2.686
50429W        W14197  25.483   6.285   2.395
50430W        W14198  10.776  41.787  10.627
50431W        W14199   8.361  17.263   0.840
50432W        W14200  12.156  21.696   0.736
50433W        W14201  36.909  26.191   3.686
50434W        W14202  25.566  22.689   3.227
50435W        W14203  24.634   9.754   3.164
50436W        W14204  14.642  44.474  13.456
50437W        W14205  27.574   6.850  10.895
50438W        W14206  16.300  37.848   1.377
50439W        W14207  36.849  32.942   3.654
50440W        W14208  38.906  38.877  10.937
50441W        W14209  32.450   4.829   2.345
50442W        W14210  15.733  32.575   2.664
50443W        W14211   2.727  38.994  11.126
50444W        W14212   9.799  22.121  14.436
50445W        W14213  42.880  33.112  10.015
50446W        W14214   4.438  41.878  11.871
50447W        W14215   7.194  12.347  12.372
50448W        W14216  39.002  15.130  13.009
50449W        W14217  39.492  26.055   1.871
50450W        W14218  24.563  35.076  10.937
50451W        W14219  41.415  32.498   4.661
50452W        W14220   6.400  13.258   2.364
50453W        W14221  12.305  34.924  11.106
50454W        W14222  12.760   2.402  14.335
50455W        W14223  41.926  16.240  11.504
50456W        W14224  44.471  18.566  13.462
50457W        W14225  35.091  33.073   2.410
50458W        W14226   5.341  20.691   1.344
50459W        W14227   4.773  33.508   4.635
50460W        W14228  36.867  36.927  12.540
50461W        W14229  23.678  20.071   2.400
50462W        W14230  12.765  16.316   2.785
50463W        W14231   4.335  20.245  14.373
50464W        W14232  27.184  31.110   4.165
50465W        W14233  15.766  11.198  14.897
50466W        W14234  27.951   7.673   1.746
50467W        W14235   4.807  26.693   1.731
50468W        W14236  27.983  19.181   2.685
50469W        W14237   2.470  32.463   0.869
50470W        W14238  29.595   4.415   3.778
50471W        W14239  31.937   5.729   2.333
50472W        W14240  41.963  40.474  13.326
50473W        W14241   2.875  44.888   2.813
50474W        W14242   0.952  33.882   4.221
50475W        W14243   9.878  33.092   2.287
50476W        W14244  26.534  30.428  14.987
50477W        W14245  37.073  30.644  12.874
50478W        W14246  28.625  23.092  12.463
50479W        W14247  40.898  44.844   4.699
50480W        W14248   9.764   8.337   2.189
50481W        W14249  30.546  35.422   1.328
50482W        W14250  38.966  30.622   2.768
50483W        W14251  34.907  24.225   5.272
50484W        W14252   1.420  42.841   1.356
50485W        W14253  35.974  15.805   3.266
50486W        W14254  40.967  41.798   0.835
50487W        W14255  27.156  43.008  13.417
50488W        W14256  21.567  15.225  10.495
50489W        W14257  38.431  19.151   0.923
50490W        W14258  11.697  27.466  14.448
50491W        W14259  24.678  23.672   1.329
50492W        W14260  14.295  25.104   0.741
50493W        W14261   2.759  25.197   4.836
50494W        W14262  40.424  18.761  10.929
50495W        W14263  19.665   7.800   2.256
50496W        W14264  26.966  13.646   2.676
50497W        W14265  10.292  35.447   4.833
50498W        W14266  36.054  32.475  13.455
50499W        W14267  26.123   1.306  13.011
50500W        W14268  19.715  24.661  12.998
50501W        W14269  30.117   0.935  11.953
50502W        W14270  40.362   8.234   2.201
50503W        W14271  23.627   6.269  13.912
50504W        W14272  19.210   1.385  11.580
50505W        W14273  30.090   6.811   0.321
50506W        W14274  44.421   4.321   3.202
50507W        W14275  24.200  21.617   3.867
50508W        W14276  21.647   3.266   1.276
50509W        W14277   7.258  43.411  14.935
50510W        W14278   2.316   1.941   9.979
50511W        W14279  27.119  28.942   4.320
50512W        W14280  40.014   1.966  11.047
50513W        W14281  29.126  42.929   0.744
50514W        W14282  13.299  31.600   4.678
50515W        W14283  36.937   7.847   0.762
50516W        W14284   0.376  16.257   3.314
50517W        W14285  17.714  41.424  12.908
50518W        W14286  17.061   8.254   1.410
50519W        W14287  20.228  36.481  12.015
50520W        W14288  23.030   7.389   3.217
50521W        W14289  42.440  36.437   2.310
50522W        W14290   5.703  11.630  10.923
50523W        W14291  13.666  22.064   1.782
50524W        W14292  23.666  36.099   1.837
50525W        W14293  33.112   9.847  11.882
50526W        W14294   0.916  37.973  10.962
50527W        W14295   8.859  20.212  13.042
50528W        W14296  29.144  28.530  11.501
50529W        W14297  24.568  42.802  14.493
50530W        W14298  27.581  40.365   4.794
50531W        W14299  24.669   8.781   4.725
50532W        W14300  19.112  34.549  13.379
50533W        W14301  29.038  34.999   3.287
50534W        W14302  11.363  11.175  10.917
50535W        W14303  29.564  12.808  13.904
50536W        W14304   8.171  29.521   2.856
50537W        W14305  25.990  30.924  13.998
50538W        W14306  36.850  12.770  12.400
50539W        W14307   5.793   3.372   2.345
50540W        W14308  31.574  19.146   1.709
50541W        W14309   3.276  44.753   2.870
50542W        W14310  41.511  32.596   3.148
50543W        W14311  31.050   4.928   0.815
50544W        W14312  34.912  42.933  10.581
50545W        W14313  28.111  18.752  14.026
50546W        W14314  31.473   5.252   2.825
50547W        W14315  37.035  28.613   1.261
50548W        W14316   9.703  35.940  11.531
50549W        W14317  19.730  12.345   4.801
50550W        W14318   5.700  38.040   1.796
50551W        W14319  21.562  13.130  14.000
50552W        W14320   5.242  18.737  12.962
50553W        W14321  23.050  36.017   1.306
50554W        W14322  22.509  30.067   2.758
50555W        W14323  10.841  22.649   1.398
50556W        W14324  14.326  40.946  11.115
50557W        W14325  22.700   9.789  14.460
50558W        W14326  40.519  26.583  14.809
50559W        W14327  14.164   8.787  12.405
50560W        W14328  15.752   2.865   2.858
50561W        W14329   3.460  11.198  11.397
50562W        W14330  34.373  35.105   3.270
50563W        W14331  43.827  27.598   0.764
50564W        W14332  17.117  40.870  13.010
50565W        W14333   4.373  43.333   0.270
50566W        W14334  40.884  13.237  14.345
50567W        W14335   2.824   8.654   4.241
50568W        W14336  14.630  39.014   4.215
50569W        W14337   0.943  31.588  11.560
50570W        W14338  24.608   4.415   3.298
50571W        W14339  29.939  25.675  10.986
50572W        W14340  37.863  18.622  12.548
50573W        W14341   5.874   9.288   1.808
50574W        W14342  22.099   0.893   1.348
50575W        W14343  40.325  19.585  13.341
50576W        W14344  26.167   9.330   0.419
50577W        W14345   5.305  43.989  13.954
50578W        W14346  15.791   2.901  12.939
50579W        W14347  13.105  23.226  13.001
50580W        W14348  43.364  13.753   3.295
50581W        W14349  35.546   1.368  12.353
50582W        W14350  36.544  27.155   0.883
50583W        W14351  19.260  16.078  10.897
50584W        W14352   9.186  18.124  10.593
50585W        W14353  10.737  36.474  12.053
50586W        W14354  19.603  10.333  14.335
50587W        W14355  15.680   9.383   2.227
50588W        W14356  38.963   4.925   1.232
50589W        W14357   9.643  44.445  12.352
50590W        W14358   1.441  37.842  12.066
50591W        W14359   9.644  26.559   5.230
50592W        W14360  25.132  18.124  11.546
50593W        W14361  15.594  15.664  12.578
50594W        W14362  39.404  24.558   4.634
50595W        W14363  32.571  41.370   3.197
50596W        W14364  29.518  17.573  11.497
50597W        W14365  25.157  34.610   2.333
50598W        W14366   6.714  31.638  11.099
50599W        W14367  14.206  13.705   4.215
50600W        W14368   8.343   4.708  12.987
50601W        W14369  18.221  20.176   2.363
50602W        W14370  28.486  28.515  13.444
50603W        W14371  10.190  30.463  10.572
50604W        W14372   8.826  29.990  13.468
50605W        W14373  16.577  20.169   1.875
50606W        W14374  21.109   9.709  12.081
50607W        W14375  14.297  34.033  13.475
50608W        W14376  18.114  12.827  14.826
50609W        W14377   9.841   2.401   3.669
50610W        W14378  33.496   4.782   1.784
50611W        W14379  13.711   9.718   0.455
50612W        W14380  22.571  23.119  13.818
50613W        W14381  40.919  31.121   4.181
50614W        W14382  15.601  25.026  11.999
50615W        W14383  18.583   2.814  11.097
50616W        W14384   7.197  41.868   1.930
50617W        W14385   9.363  16.615   4.159
50618W        W14386  31.940   6.412  14.833
50619W        W14387  38.820  27.127   1.833
50620W        W14388  36.949  30.497   2.833
50621W        W14389   7.787  24.521  11.008
50622W        W14390  36.009  12.619   3.366
50623W        W14391  37.376  28.021   4.128
50624W        W14392  15.240  12.808   5.213
50625W        W14393  29.588  35.912  13.485
50626W        W14394  13.216  17.257  11.945
50627W        W14395   2.426   3.361   2.249
50628W        W14396  29.935  41.306   3.691
50629W        W14397  21.613  38.419  13.902
50630W        W14398  30.028  27.026   1.709
50631W        W14399  26.959   7.401   2.315
50632W        W14400  25.555   9.857   0.285
50633W        W14401  28.142  18.761  14.283
50634W        W14402   0.360  39.402   0.731
50635W        W14403  41.443  27.060  12.364
50636W        W14404  31.062  11.318  12.933
50637W        W14405  23.679  35.554   0.761
50638W        W14406  10.863  37.423   1.764
50639W        W14407  20.231   5.687  14.276
50640W        W14408  25.597  29.624  10.476
50641W        W14409  26.529  17.715   4.339
50642W        W14410  44.814  29.136   3.654
50643W        W14411  32.564  23.570  12.051
50644W        W14412   5.729  31.994   0.807
50645W        W14413   2.888  38.996  10.428
50646W        W14414  28.166  10.740  11.888
50647W        W14415  28.103  17.170  11.962
50648W        W14416  39.976  44.794  12.966
50649W        W14417  30.461  40.362  13.442
50650W        W14418   4.229  26.467  11.445
50651W        W14419  14.318  32.627   4.207
50652W        W14420   2.433  20.604   3.272
50653W        W14421  35.925   0.481  12.983
50654W        W14422  22.653  17.568   2.412
50655W        W14423  18.232  12.834   4.179
50656W        W14424  21.635   0.839   3.216
50657W        W14425  35.432   3.430   2.291
50658W        W14426  16.793  19.591   4.712
50659W        W14427   9.698  34.508   4.326
50660W        W14428  26.961  13.702  11.110
50661W        W14429  30.492  15.595  11.992
50662W        W14430  38.992  23.701  11.394
50663W        W14431   3.408  21.625  11.429
50664W        W14432  18.275  17.237  11.453
50665W        W14433  14.716  34.475  10.643
50666W        W14434  11.645  10.343  10.994
50667W        W14435  33.400   7.772   0.930
50668W        W14436  25.994  44.304  13.937
50669W        W14437  36.424  13.158   3.347
50670W        W14438  42.781   8.397   3.706
50671W        W14439  35.852  24.724   1.389
50672W        W14440  30.975  18.271  12.837
50673W        W14441   7.253  37.032   2.776
50674W        W14442  30.427  38.410  14.807
50675W        W14443   4.351  11.793   2.860
50676W        W14444   6.855  17.682   3.217
50677W        W14445  33.940  12.617   0.755
50678W        W14446  42.459   9.184   1.915
50679W        W14447  18.207  42.326  12.966
50680W        W14448  11.143  21.115  11.493
50681W        W14449  40.490  30.604   1.245
50682W        W14450  23.719  19.112   1.836
50683W        W14451   3.724   6.213   4.208
50684W        W14452  27.071  22.065  11.558
50685W        W14453  12.315  44.950  11.051
50686W        W14454  12.257   0.802   0.327
50687W        W14455   4.914  38.476  14.496
50688W        W14456  25.621  13.720   9.971
50689W        W14457  13.150  19.185  12.566
50690W        W14458  36.413  44.294   4.305
50691W        W14459  30.556  21.124   4.809
50692W        W14460  29.469   9.208  11.469
50693W        W14461  37.346  26.038   1.857
50694W        W14462   0.813   9.302   0.893
50695W        W14463  43.903  29.921   3.677
50696W        W14464  25.087  16.590   2.250
50697W        W14465  20.705   1.410   0.323
50698W        W14466  15.723  25.694  11.528
50699W        W14467  35.398  16.126   2.747
50700W        W14468  11.678  32.545   3.775
50701W        W14469   9.330  44.300   1.366
50702W        W14470  31.617  20.108  11.454
50703W        W14471  29.578  29.520   0.282
50704W        W14472  23.624  19.163   3.315
50705W        W14473  14.227  22.573  10.431
50706W        W14474  25.092  13.252   3.712
50707W        W14475   8.709  42.415   0.966
50708W        W14476   8.753  17.751   3.343
50709W        W14477  26.992  13.148  10.920
50710W        W14478  15.811  24.117   1.801
50711W        W14479  42.846  13.844   4.769
50712W        W14480  44.003  27.585  13.824
50713W        W14481  43.511  14.669  14.469
50714W        W14482  25.571  16.579  10.948
50715W        W14483   8.858  15.629   2.725
50716W        W14484  13.724  24.033   2.828
50717W        W14485  29.147  32.058   1.283
50718W        W14486   8.766  42.397  11.937
50719W        W14487  36.993  39.040  12.961
50720W        W14488  25.667  20.539   0.319
50721W        W14489  32.023  33.626   0.343
50722W        W14490  30.491   6.777   2.667
50723W        W14491  24.098   5.220   0.412
50724W        W14492   1.893  12.640   1.699
50725W        W14493  38.549   2.433   1.754
50726W        W14494  13.158   9.159  14.789
50727W        W14495  16.693   4.233   2.901
50728W        W14496  35.068  16.696   5.216
50729W        W14497   7.232  14.213   1.910
50730W        W14498  14.709  10.235  10.529
50731W        W14499   7.213  40.402   2.757
50732W        W14500  10.788  15.614   3.747
50733W        W14501  21.214  16.184   1.318
50734W        W14502  13.635  19.148  13.361
50735W        W14503  32.519  25.097  14.859
50736W        W14504  24.725  32.573   3.765
50737W        W14505  29.091  43.281  14.325
50738W        W14506  21.135  25.565  13.049
50739W        W14507   5.314  36.387   3.261
50740W        W14508   3.833  36.390  11.532
50741W        W14509  38.545   9.813  10.608
50742W        W14510  11.645   8.725   3.294
50743W        W14511  42.031  43.014  12.543
50744W        W14512   4.436  14.240   1.378
50745W        W14513  19.670  35.048   0.729
50746W        W14514  28.448  31.918   1.809
50747W        W14515  44.991  34.503   0.383
50748W        W14516  30.501  14.596   5.125
50749W        W14517  13.824   3.916  10.592
50750W        W14518  13.323  39.518   2.287
50751W        W14519  22.732  21.676  12.911
50752W        W14520  13.260  15.238   4.729
50753W        W14521  37.420  12.275  12.453
50754W        W14522  38.562  15.683   0.441
50755W        W14523  13.723  30.464  10.413
50756W        W14524   4.316  35.049   1.258
50757W        W14525  38.379  14.193   0.760
50758W        W14526  12.121  16.241  10.581
50759W        W14527   0.406  13.656   3.319
50760W        W14528  30.001  24.631   4.312
50761W        W14529  28.074  17.192  11.523
50762W        W14530  22.555  35.006   1.818
50763W        W14531   7.686  23.607   1.293
50764W        W14532  12.751  35.550   2.757
50765W        W14533  37.443  29.161  14.375
50766W        W14534  16.082   0.342  11.927
50767W        W14535  35.995   8.683  10.553
50768W        W14536  18.241  36.579  11.545
50769W        W14537  16.629  13.274   3.797
50770W        W14538  35.997  20.044  14.467
50771W        W14539  10.378  27.536  10.596
50772W        W14540  25.531   9.382   0.482
50773W        W14541  19.725  27.589   4.314
50774W        W14542  41.296  30.946  10.513
50775W        W14543  38.958   3.323  13.455
50776W        W14544  30.432  34.991   3.319
50777W        W14545   0.888  39.429   3.269
50778W        W14546  44.331  35.974  14.964
50779W        W14547  10.275  33.497  12.890
50780W        W14548  32.950  34.899   1.924
50781W        W14549  32.422  33.886  14.408
50782W        W14550   3.765  15.097  14.006
50783W        W14551  15.311  16.763  11.110
50784W        W14552   7.366  16.167  12.573
50785W        W14553  40.507  12.361   4.246
50786W        W14554  25.689   0.920  12.537
50787W        W14555  20.705  32.012   1.451
50788W        W14556  44.008  13.733   2.184
50789W        W14557  35.376  11.210   1.362
50790W        W14558  37.467  16.808   3.808
50791W        W14559  23.729  12.342   1.854
50792W        W14560  10.857  10.186  11.463
50793W        W14561  16.262  42.887   3.255
50794W        W14562  19.076   9.310  10.961
50795W        W14563  25.540  36.091  10.099
50796W        W14564  30.421  22.222  10.156
50797W        W14565  11.313  23.007   4.244
50798W        W14566  42.015   7.335   3.673
50799W        W14567  16.704  29.508   0.827
50800W        W14568  39.374   6.785  12.907
50801W        W14569  32.399  24.482   4.266
50802W        W14570  24.220   5.824   0.372
50803W        W14571   8.784  26.075   0.412
50804W        W14572  31.591  39.403   0.806
50805W        W14573  42.978  31.059  12.842
50806W        W14574  36.394  23.640   3.775
50807W        W14575  31.925  38.941   4.295
50808W        W14576  34.380  38.410  14.991
50809W        W14577  36.925  15.196   2.725
50810W        W14578  40.447  20.767   0.420
50811W        W14579  30.071  21.037   1.772
50812W        W14580  26.153  18.742  11.451
50813W        W14581   6.408  14.701   4.268
50814W        W14582  14.595   5.933   2.372
50815W        W14583   8.182  28.563  12.353
50816W        W14584  17.209  40.027  11.883
50817W        W14585  41.928   4.263  14.816
50818W        W14586  44.857   1.292   4.178
50819W        W14587  12.265  27.064   1.696
50820W        W14588  44.868  14.240   3.720
50821W        W14589  39.065  28.980   2.887
50822W        W14590   9.164   4.389   3.839
50823W        W14591  26.632   7.329   1.923
50824W        W14592  14.152  24.511   4.664
50825W        W14593   4.788   1.811   3.146
50826W        W14594  12.268   7.813  14.473
50827W        W14595  29.942  13.250   3.830
50828W        W14596  28.602  20.759  13.376
50829W        W14597  42.031  17.155   2.227
50830W        W14598  20.545  27.582   1.268
50831W        W14599  39.926  43.314   1.891
50832W        W14600   0.434  34.020  12.989
50833W        W14601   9.695   1.373  14.866
50834W        W14602  32.491   0.788   1.713
50835W        W14603   8.290   3.818  11.957
50836W        W14604   1.970  13.348  12.443
50837W        W14605  20.628   8.793   4.699
50838W        W14606  22.551   6.371  10.893
50839W        W14607  33.994  44.800  11.597
50840W        W14608  41.295  10.769  13.348
50841W        W14609  42.935  38.069  12.342
50842W        W14610   6.407  10.672   2.193
50843W        W14611  32.487  21.141   3.319
50844W        W14612  17.189  44.953   4.673
50845W        W14613  20.063  10.701   4.192
50846W        W14614   7.825  44.981  13.063
50847W        W14615  29.464   2.382  10.598
50848W        W14616   1.383  37.065  13.980
50849W        W14617   9.688  20.643  11.115
50850W        W14618   0.857  32.028   0.252
50851W        W14619  22.035   8.736   1.413
50852W        W14620  25.586  44.495   2.308
50853W        W14621  25.142  20.616  13.343
50854W        W14622  38.403  18.050  13.987
50855W        W14623  37.545  18.716  10.923
50856W        W14624  12.286  36.368  13.969
50857W        W14625  31.976  20.169  10.536
50858W        W14626  17.272   5.340   0.383
50859W        W14627  14.792   7.379  13.825
50860W        W14628   0.397  29.034  14.304
50861W        W14629  21.597  16.769  13.859
50862W        W14630  15.699  37.079  10.601
50863W        W14631  43.320  24.575   3.244
50864W        W14632  25.126  10.264   1.451
50865W        W14633  14.819   7.722   1.713
50866W        W14634  28.111  41.786  10.523
50867W        W14635  20.654   9.879  13.918
50868W        W14636  32.578  25.090   2.374
50869W        W14637   8.294  22.651  14.806
50870W        W14638   7.327  15.803  14.855
50871W        W14639  19.551  31.974   9.921
50872W        W14640  40.804  43.392   2.282
50873W        W14641  25.642  33.918  12.966
50874W        W14642  42.908   3.954   0.475
50875W        W14643  23.564   4.300   1.811
50876W        W14644  28.520  33.966   1.316
50877W        W14645  24.533  12.255  11.033
50878W        W14646  13.253  35.048  11.040
50879W        W14647  27.154   3.777  14.450
50880W        W14648  43.478  23.177   3.690
50881W        W14649  39.896  23.105   0.449
50882W        W14650  17.200  44.808  10.994
50883W        W14651  43.849   1.420  14.373
50884W        W14652   0.282  27.481  10.939
50885W        W14653  37.875  11.191  13.339
50886W        W14654   7.206  38.405   0.260
50887W        W14655  10.279  27.528  14.394
50888W        W14656  27.450  19.179  13.813
50889W        W14657  20.202  41.806  10.918
50890W        W14658  43.483  42.466  14.368
50891W        W14659  34.011  21.658  14.946
50892W        W14660   4.830  41.037   1.894
50893W        W14661   4.879   2.256  12.505
50894W        W14662  14.674  31.635  10.421
50895W        W14663  36.877  43.943  11.958
50896W        W14664  38.982   5.381  10.445
50897W        W14665   3.422   1.783  12.912
50898W        W14666  16.143  23.035  12.904
50899W        W14667  42.898  24.057  11.067
50900W        W14668  20.119  13.767   2.376
50901W        W14669  13.166  37.476   0.902
50902W        W14670  34.898   0.256  10.637
50903W        W14671  40.466  15.083   2.696
50904W        W14672   9.237  13.723  14.936
50905W        W14673  19.668  10.300  14.794
50906W        W14674  29.506  44.272   2.793
50907W        W14675   8.400   8.171   1.885
50908W        W14676  14.339  44.493   1.778
50909W        W14677  26.689  19.694   1.241
50910W        W14678  28.525  11.658   1.310
50911W        W14679   8.889  18.633   3.770
50912W        W14680   9.265  38.964   1.299
50913W        W14681   0.939  14.114  14.944
50914W        W14682  11.321   3.846  14.337
50915W        W14683  16.761  34.524   1.284
50916W        W14684  39.953  30.423   1.284
50917W        W14685  16.744   7.749  12.929
50918W        W14686  32.615  24.100  12.878
50919W        W14687  21.723  25.646  12.909
50920W        W14688  41.824   0.483   0.255
50921W        W14689  30.952   6.731  12.898
50922W        W14690  37.527   7.792   3.788
50923W        W14691  17.673  41.963  10.463
50924W        W14692  40.499  38.397   0.952
50925W        W14693  17.558  43.440  13.865
50926W        W14694  10.292  26.087  14.460
50927W        W14695  13.817  35.366   3.640
50928W        W14696  24.027  14.211  11.399
50929W        W14697  30.907  42.923   1.839
50930W        W14698  20.648  38.339  11.525
50931W        W14699   3.874   8.302   0.471
50932W        W14700   5.228  14.111  13.395
50933W        W14701  25.022  14.810  11.857
50934W        W14702  41.939  44.948  14.501
50935W        W14703  37.469  42.354   0.907
50936W        W14704  20.700  33.606  11.870
50937W        W14705  36.489  26.641  13.008
50938W        W14706  29.153  20.043   3.839
50939W        W14707  23.574  11.346   0.247
50940W        W14708  17.793   4.875   1.332
50941W        W14709   8.285   1.283   1.373
50942W        W14710  29.525   2.385   3.243
50943W        W14711  37.405  23.030  11.385
50944W        W14712  16.279  35.360  13.986
50945W        W14713   1.898  38.563  11.442
50946W        W14714  27.963  18.202  13.970
50947W        W14715  35.458  20.553  14.326
50948W        W14716  42.968  37.489  11.414
50949W        W14717  41.910  39.546  14.765
50950W        W14718   2.959  18.202  11.432
50951W        W14719  18.569  37.493  12.349
50952W        W14720   4.227  20.211   3.171
50953W        W14721  25.673  43.887  12.452
50954W        W14722  39.529  19.076  14.911
50955W        W14723   5.837  35.376   1.926
50956W        W14724  12.825  33.104   4.245
50957W        W14725  36.972  26.536  11.936
50958W        W14726  24.017  31.017  13.474
50959W        W14727  11.164   2.302   1.869
50960W        W14728  40.305  31.962   1.388
50961W        W14729  27.982  19.099  11.125
50962W        W14730  22.075   7.296   2.283
50963W        W14731  32.079  40.887   4.120
50964W        W14732  18.082  17.179   3.741
50965W        W14733   1.937   4.893  11.396
50966W        W14734  32.564  21.555   1.717
50967W        W14735  44.448  17.106   1.274
50968W        W14736   9.380  21.642   1.330
50969W        W14737  30.628  18.274   2.894
50970W        W14738  15.218  14.295   3.715
50971W        W14739  33.469  26.481   4.646
50972W        W14740  35.096  27.636   4.713
50973W        W14741  36.557  44.328  14.304
50974W        W14742  16.610  43.440  11.931
50975W        W14743  29.999  32.392  13.936
50976W        W14744  26.578  32.585   0.843
50977W        W14745  19.667   5.265   2.397
50978W        W14746  29.123   6.730   3.807
50979W        W14747  36.425  33.413   3.259
50980W        W14748  15.787  33.470  13.030
50981W        W14749  30.123  27.509   4.277
50982W        W14750  16.280  32.622  11.428
50983W        W14751  28.646   1.406   4.141
50984W        W14752  16.093  15.664  11.501
50985W        W14753   4.216  34.597  10.124
50986W        W14754  14.619  13.741  10.474
50987W        W14755  32.096  27.660  13.915
50988W        W14756  31.006  20.153  14.782
50989W        W14757  15.689  27.104  14.870
50990W        W14758   8.870  22.177  12.877
50991W        W14759  17.102  38.508   3.699
50992W        W14760  39.824  39.516  14.013
50993W        W14761   3.894  16.087   3.818
50994W        W14762  21.017  29.470  11.513
50995W        W14763   5.409  15.203   1.738
50996W        W14764  10.201   1.371  13.543
50997W        W14765  18.588   2.370  12.530
50998W        W14766  41.918   2.821  14.487
50999W        W14767   0.966   9.788   2.807
51000W        W14768  16.124   5.790   2.257
51001W        W14769  14.158  42.999  11.542
51002W        W14770   6.296   4.321   4.721
51003W        W14771   8.252  43.353   2.261
51004W        W14772  25.691  25.652   2.193
51005W        W14773  28.010  24.125  12.968
51006W        W14774  30.528   6.224  10.593
51007W        W14775  20.061  43.364  13.447
51008W        W14776  39.030  14.719  12.074
51009W        W14777   5.400  38.463  12.034
51010W        W14778  39.914  24.161  12.045
51011W        W14779  34.041  34.044  11.485
51012W        W14780  29.038   1.743   0.466
51013W        W14781  42.389  30.067   4.308
51014W        W14782   9.226  13.715  12.843
51015W        W14783  44.776  21.121   3.691
51016W        W14784  28.071  16.186  11.578
51017W        W14785   7.202   2.300  14.458
51018W        W14786   1.863   7.259  11.030
51019W        W14787  28.516  39.046  10.592
51020W        W14788  34.863  34.932   3.227
51021W        W14789  17.756   1.733   1.906
51022W        W14790  24.624  37.547  12.096
51023W        W14791  44.841  12.776   0.796
51024W        W14792  22.168  31.995  13.873
51025W        W14793  38.871  24.218   4.317
51026W        W14794  17.263  44.316  13.940
51027W        W14795  20.129   9.323  13.859
51028W        W14796  17.775  32.539  13.328
51029W        W14797   2.337  19.282  11.475
51030W        W14798  11.236   6.211  13.828
51031W        W14799  16.694  39.811   2.774
51032W        W14800  18.629   3.798   0.933
51033W        W14801  43.858  20.197   0.372
51034W        W14802  23.525  43.993   0.284
51035W        W14803  41.896   4.830   4.767
51036W        W14804  16.642  26.593   3.266
51037W        W14805  27.088  43.897   1.238
51038W        W14806  33.439   3.399   0.335
51039W        W14807  15.123  21.636  14.909
51040W        W14808  21.739  32.490  13.410
51041W        W14809  12.250  25.213  14.848
51042W        W14810  35.402   2.755  14.969
51043W        W14811  30.988  32.525   3.727
51044W        W14812  23.542  41.511   4.198
51045W        W14813  41.409  20.045  11.388
51046W        W14814  19.161  32.046   4.210
51047W        W14815  36.495  30.525   0.736
51048W        W14816  29.567  18.717   4.200
51049W        W14817  30.955  23.118   3.826
51050W        W14818  30.433  14.201  12.880
51051W        W14819  39.352  10.206  13.438
51052W        W14820  32.044  23.597  13.053
51053W        W14821  35.547  30.137  11.883
51054W        W14822  24.614   9.347  12.519
51055W        W14823  14.713  28.537  11.565
51056W        W14824  40.502   9.762   3.317
51057W        W14825  41.971  32.991  11.392
51058W        W14826   1.878  37.995   1.274
51059W        W14827  19.125  39.333   3.234
51060W        W14828   5.695  37.351  10.985
51061W        W14829  43.951  31.562  10.904
51062W        W14830  44.398  19.650  12.826
51063W        W14831  25.572  14.675   2.664
51064W        W14832  26.571  22.128   4.753
51065W        W14833  14.665  41.330  13.015
51066W        W14834  29.969  24.224   1.744
51067W        W14835  39.909   5.851   4.143
51068W        W14836  30.956  34.109   2.314
51069W        W14837  39.479  27.462   9.464
51070W        W14838  11.349  43.360   3.774
51071W        W14839   0.770  37.505   2.663
51072W        W14840  11.679   5.407  12.024
51073W        W14841  30.544   3.847  14.406
51074W        W14842  10.349  31.979  10.565
51075W        W14843  15.187  28.611   1.352
51076W        W14844  31.062  39.026   0.464
51077W        W14845   8.666   5.727  11.535
51078W        W14846  44.915  33.407  13.383
51079W        W14847  23.673  31.615  10.606
51080W        W14848   2.967  32.402   3.376
51081W        W14849  16.770   9.327  10.636
51082W        W14850  30.037  23.622   4.714
51083W        W14851  18.217  13.677   0.911
51084W        W14852  21.661  43.454   1.765
51085W        W14853   7.200   5.363   3.311
51086W        W14854  35.057   3.322  14.343
51087W        W14855  10.251  33.065  13.985
51088W        W14856  18.212  29.645  14.324
51089W        W14857  18.786  31.061  11.483
51090W        W14858   3.896   0.753   0.870
51091W        W14859  44.408  12.630  12.376
51092W        W14860   9.329  36.865   1.390
51093W        W14861  42.793   1.399   3.215
51094W        W14862  28.961  36.585  12.367
51095W        W14863  27.988  27.490  12.451
51096W        W14864  21.204  21.629  11.428
51097W        W14865  13.626   5.250  13.521
51098W        W14866  13.701  44.986   1.400
51099W        W14867  33.963  17.278   1.238
51100W        W14868   6.746   1.330  12.873
51101W        W14869   6.720   3.911  11.028
51102W        W14870  12.814  24.198  10.409
51103W        W14871  13.705  36.875   0.861
51104W        W14872  35.466   1.928   1.274
51105W        W14873  20.638  29.595   3.201
51106W        W14874  41.313  25.525   4.651
51107W        W14875  23.565  11.731   3.843
51108W        W14876   0.428  13.345  12.477
51109W        W14877  17.152   7.707   2.212
51110W        W14878  26.616  25.579  12.081
51111W        W14879  29.454  39.502  13.845
51112W        W14880  34.029   9.257   0.433
51113W        W14881  27.154   9.272   0.740
51114W        W14882  27.545  15.270  12.467
51115W        W14883  21.258  25.156   4.196
51116W        W14884  31.588  33.984   1.737
51117W        W14885  33.619  28.613   3.743
51118W        W14886  32.602   6.403   3.662
51119W        W14887  32.501   6.254   4.312
51120W        W14888  41.466   7.184  13.397
51121W        W14889  30.026   5.237   3.223
51122W        W14890   0.952  31.480  13.393
51123W        W14891  13.235  42.296  12.430
51124W        W14892  38.025  20.049   1.330
51125W        W14893   8.201  22.736   0.370
51126W        W14894  36.853  11.739  14.417
51127W        W14895  15.804   9.787   0.317
51128W        W14896  13.209  38.918  13.837
51129W        W14897  31.525  34.395   0.442
51130W        W14898  43.939  25.983  11.563
51131W        W14899   9.187  22.060   1.736
51132W        W14900   1.458  44.449   4.711
51133W        W14901  36.360  37.556   1.348
51134W        W14902  17.684  44.420   0.424
51135W        W14903  44.820  30.920   3.749
51136W        W14904   6.738  15.734   0.329
51137W        W14905  21.144  37.516  14.477
51138W        W14906  11.690   4.943   3.175
51139W        W14907  35.092  29.057  11.480
51140W        W14908  39.438  28.627   9.631
51141W        W14909  15.727  35.369  11.928
51142W        W14910   9.344  32.446  11.436
51143W        W14911   3.295  31.573  10.918
51144W        W14912  43.475  10.767   0.308
51145W        W14913  32.942  17.222   4.179
51146W        W14914  39.049  25.699   2.683
51147W        W14915  41.858  18.181   0.388
51148W        W14916  19.259  42.907  12.094
51149W        W14917  17.706  26.558  11.023
51150W        W14918  31.483  29.579  10.427
51151W        W14919  29.093   9.877   0.868
51152W        W14920  35.947  39.537   0.338
51153W        W14921  25.468   9.657  10.407
51154W        W14922  29.456  13.157   2.708
51155W        W14923  27.971  21.669   4.733
51156W        W14924  20.190  24.164   1.408
51157W        W14925  37.976   6.828   0.464
51158W        W14926  30.514  35.392  14.955
51159W        W14927  40.869   8.656  13.547
51160W        W14928  26.092  37.396   4.240
51161W        W14929  10.834  41.947   0.927
51162W        W14930  18.645  23.179   0.440
51163W        W14931  37.383  42.820   1.723
51164W        W14932  31.421  20.642  11.906
51165W        W14933   1.392   0.782   0.448
51166W        W14934  30.922   4.757   1.290
51167W        W14935  33.083   7.235   1.772
51168W        W14936   3.246  25.202  10.997
51169W        W14937   8.798  22.248  12.436
51170W        W14938   6.767  40.532  11.522
51171W        W14939  32.083  43.013  14.361
51172W        W14940  26.663  42.872   5.207
51173W        W14941  20.538  33.991  13.032
51174W        W14942  29.088   8.343   4.130
51175W        W14943  14.225  27.988   0.781
51176W        W14944  19.548  32.549  14.770
51177W        W14945  41.389  11.754  13.968
51178W        W14946  36.051  11.361  11.598
51179W        W14947   1.356  29.551  10.439
51180W        W14948  38.386  31.090   2.844
51181W        W14949   1.454  25.521  10.514
51182W        W14950   2.891  29.620   3.739
51183W        W14951  33.600  23.069  13.965
51184W        W14952  30.634   0.358   2.674
51185W        W14953  27.673  20.139  12.015
51186W        W14954   0.328  39.843  13.509
51187W        W14955  11.703  22.699   1.287
51188W        W14956   3.830  39.014   0.452
51189W        W14957   7.816   7.318   3.663
51190W        W14958  44.416  30.993   3.725
51191W        W14959  40.502   5.842  12.570
51192W        W14960  38.353  32.518   4.786
51193W        W14961  13.667  34.016   4.294
51194W        W14962  17.773  40.934   1.358
51195W        W14963  40.352  42.428  11.057
51196W        W14964  12.246  21.684   4.296
51197W        W14965  32.916  32.935  12.565
51198W        W14966  31.586  12.218  11.916
51199W        W14967  10.792  34.015   0.353
51200W        W14968  13.652  36.021   1.784
51201W        W14969  13.773  34.487  14.313
51202W        W14970   0.786  10.183  10.014
51203W        W14971  21.714   8.809  14.327
51204W        W14972   3.365  39.989  12.519
51205W        W14973   7.331  33.034  13.351
51206W        W14974  10.257  30.482   2.898
51207W        W14975   5.219  32.524   2.403
51208W        W14976  34.579   8.366  11.113
51209W        W14977  10.331  43.427   1.409
51210W        W14978   3.895   1.963  12.535
51211W        W14979  24.499  13.816   4.739
51212W        W14980   5.241  43.917   4.240
51213W        W14981  23.691  37.486   2.406
51214W        W14982   4.936   9.319  14.827
51215W        W14983   0.487   9.258  13.998
51216W        W14984   9.366  36.572  14.320
51217W        W14985   9.336  26.105  14.895
51218W        W14986   2.239  22.563   0.439
51219W        W14987  14.605  36.517   4.636
51220W        W14988  28.993  19.252   3.693
51221W        W14989   3.953  21.190  11.925
51222W        W14990   9.808  24.605   2.314
51223W        W14991  44.318   9.375  14.403
51224W        W14992   8.329  21.575   0.427
51225W        W14993   0.475   9.649  11.587
51226W        W14994   2.859  21.658   2.818
51227W        W14995  21.743   0.325   4.290
51228W        W14996  22.501  41.879   4.168
51229W        W14997  22.135  34.403  10.607
51230W        W14998  11.291  13.700  11.906
51231W        W14999  38.461  44.288  10.515
51232W        W15000  24.044  40.485  13.948
51233W        W15001  34.391   3.350   0.852
51234W        W15002  33.508  21.175   4.319
51235W        W15003  39.431   5.319   4.297
51236W        W15004  31.071  16.237   1.211
51237W        W15005   5.410  37.026   0.465
51238W        W15006  25.705  33.467  14.028
51239W        W15007   0.794  22.603   4.156
51240W        W15008   0.790  23.031  14.420
51241W        W15009  38.020   7.302   2.178
51242W        W15010  11.296  36.005   0.789
51243W        W15011   8.164   3.346   3.291
51244W        W15012  41.479   3.285   2.335
51245W        W15013  23.639  17.658  14.331
51246W        W15014  40.967  33.449  12.911
51247W        W15015  18.772   9.881   3.169
51248W        W15016   1.794  26.649   3.718
51249W        W15017  37.071   7.263   2.768
51250W        W15018  21.674  39.000   2.662
51251W        W15019  20.190  23.165  14.304
51252W        W15020  34.070  42.025   1.281
51253W        W15021   7.713  37.836  10.473
51254W        W15022   9.183  12.709  13.993
51255W        W15023  39.908  10.248   3.853
51256W        W15024  13.133  42.803  11.470
51257W        W15025  32.411  12.341   2.875
51258W        W15026  32.483  17.687   3.236
51259W        W15027   4.867  33.945  13.810
51260W        W15028  32.456  33.017  10.473
51261W        W15029  13.738  26.986  12.838
51262W        W15030  20.128  27.045  12.988
51263W        W15031  15.818  15.159  11.583
51264W        W15032  10.766  34.996   9.989
51265W        W15033  20.235  14.120  13.338
51266W        W15034  44.927   5.312   1.922
51267W        W15035  39.515  18.158  12.462
51268W        W15036  32.615  12.274   0.359
51269W        W15037  21.721  16.164  10.535
51270W        W15038  36.552  41.822  13.461
51271W        W15039  14.768  27.134   2.751
51272W        W15040  10.287  35.037   2.733
51273W        W15041   6.395  35.596  12.083
51274W        W15042  30.527  32.618  10.503
51275W        W15043  36.440  31.424  11.985
51276W        W15044  30.452  30.969  13.050
51277W        W15045  29.543  24.675   4.782
51278W        W15046  29.512  33.428   1.423
51279W        W15047  23.099  21.144   2.730
51280W        W15048  13.704  32.077   1.307
51281W        W15049  18.601  15.806   5.272
51282W        W15050  23.531   5.271  13.838
51283W        W15051  43.435  26.685  14.490
51284W        W15052  10.292  10.747   9.970
51285W        W15053  28.079  16.727  14.926
51286W        W15054  26.201   7.398  13.357
51287W        W15055  21.038  44.888   4.746
51288W        W15056   6.210  23.000   0.874
51289W        W15057   9.219  19.685  11.125
51290W        W15058  44.978  31.020  14.851
51291W        W15059  41.907  29.043  12.875
51292W        W15060  33.919  29.926  14.900
51293W        W15061  33.441  43.457   1.927
51294W        W15062  21.175  22.591   4.610
51295W        W15063  40.932  34.037   0.936
51296W        W15064  31.447   8.750  13.806
51297W        W15065  36.075  11.678   0.765
51298W        W15066  36.492  15.737  10.493
51299W        W15067  31.519   5.827  10.994
51300W        W15068  31.016  11.371  10.898
51301W        W15069  40.876   7.331   0.281
51302W        W15070  22.113  25.587   3.803
51303W        W15071   5.337  36.488  13.511
51304W        W15072  29.101   1.375   1.927
51305W        W15073  18.599  20.646   0.732
51306W        W15074   0.480   3.227  13.408
51307W        W15075  31.898  29.456   3.805
51308W        W15076  39.956  24.622  10.631
51309W        W15077  40.935  11.268  13.879
51310W        W15078  16.764   4.292   3.166
51311W        W15079   2.379  33.483  10.547
51312W        W15080  11.279  23.217  13.361
51313W        W15081  16.757  23.010   3.733
51314W        W15082  29.075   4.278  14.368
51315W        W15083  17.623  43.421  13.500
51316W        W15084  18.071   8.336  13.863
51317W        W15085   8.758  30.559   4.620
51318W        W15086  18.586  10.153  12.509
51319W        W15087  34.518  30.921  14.782
51320W        W15088  35.445  41.392  14.024
51321W        W15089  31.527  26.067  12.965
51322W        W15090  34.114  37.462  13.425
51323W        W15091  31.940   2.334   4.692
51324W        W15092  42.020  18.099  14.929
51325W        W15093  11.155  40.543  11.969
51326W        W15094  40.369   4.935   3.323
51327W        W15095  19.594  19.780   2.273
51328W        W15096  12.225  12.138  12.832
51329W        W15097  28.465  39.850  14.005
51330W        W15098  16.248  22.108  12.452
51331W        W15099  20.085  15.219   4.240
51332W        W15100  34.885  20.049   2.295
51333W        W15101  24.565  14.210   2.750
51334W        W15102  43.378  35.472  14.005
51335W        W15103   7.741  13.789  13.317
51336W        W15104  21.123  36.380  14.310
51337W        W15105  44.981  26.033   2.775
51338W        W15106   7.181  38.897   3.270
51339W        W15107  40.376   7.199  11.856
51340W        W15108  32.435  40.311  14.958
51341W        W15109  24.606  44.885  14.456
51342W        W15110  39.006   8.238  13.058
51343W        W15111  12.341  16.122   4.165
51344W        W15112   8.660  17.762  10.553
51345W        W15113  41.489  11.290  14.022
51346W        W15114  34.395   3.946  13.004
51347W        W15115  36.430  22.212   4.145
51348W        W15116  34.378  35.952   4.714
51349W        W15117   1.339   4.800  14.032
51350W        W15118   6.897  35.602  11.117
51351W        W15119   4.699  13.185   5.160
51352W        W15120  34.872   0.353  11.400
51353W        W15121   0.824   3.410   2.273
51354W        W15122  41.445   6.289  10.598
51355W        W15123  32.091  44.350   1.210
51356W        W15124  34.409   1.891   3.843
51357W        W15125  30.596   2.783   3.755
51358W        W15126   0.412  13.830  10.425
51359W        W15127  11.192  28.517  13.512
51360W        W15128  30.656  19.578   3.827
51361W        W15129   1.328  38.344  11.482
51362W        W15130  21.137   1.955   3.197
51363W        W15131  12.736  30.431   1.357
51364W        W15132  42.506  30.468   2.406
51365W        W15133  26.494  33.085  14.839
51366W        W15134  32.460   4.811   1.842
51367W        W15135  14.158  15.790   3.271
51368W        W15136  27.553  36.481   1.285
51369W        W15137  11.348   5.410  10.957
51370W        W15138   3.431   4.225   2.410
51371W        W15139  31.484  31.555   2.377
51372W        W15140   1.358  14.291   3.785
51373W        W15141  17.204  40.806   0.376
51374W        W15142  10.715   6.905  11.413
51375W        W15143   4.359  16.239   2.691
51376W        W15144  42.491  30.548   4.638
51377W        W15145   9.888   6.316  13.804
51378W        W15146  17.253  35.856   3.846
51379W        W15147  10.664  33.408   1.302
51380W        W15148  33.460   3.907   3.637
51381W        W15149  37.842  32.581   3.243
51382W        W15150   9.849  24.487  12.471
51383W        W15151  39.412  35.094  10.585
51384W        W15152   0.742  12.837   4.169
51385W        W15153  24.222  38.478  13.371
51386W        W15154  14.787  27.559   0.955
51387W        W15155  15.595  20.682   2.880
51388W        W15156  44.788  19.666   1.244
51389W        W15157  12.319  11.629  10.406
51390W        W15158  29.960  43.947  10.619
51391W        W15159  37.382  10.638  13.481
51392W        W15160   4.410   7.738  12.990
51393W        W15161  12.797  24.185   1.441
51394W        W15162  23.664  32.491  11.036
51395W        W15163  18.696  23.597   1.824
51396W        W15164  33.038  36.412  11.867
51397W        W15165  30.635  42.820  14.914
51398W        W15166  10.737   9.204   0.296
51399W        W15167  26.505  39.054   5.241
51400W        W15168  31.506  28.535  11.401
51401W        W15169  27.450  42.294  10.937
51402W        W15170   0.984   4.312   4.786
51403W        W15171  34.536  36.011  10.503
51404W        W15172  11.324  24.583   1.783
51405W        W15173   0.378  44.412  13.833
51406W        W15174  12.671  27.176   2.367
51407W        W15175  37.903  16.762   2.245
51408W        W15176  22.669  44.827   2.818
51409W        W15177  37.345  36.535   2.724
51410W        W15178  42.527  11.861   4.121
51411W        W15179  18.707  23.539   0.468
51412W        W15180  31.577  15.179   5.103
51413W        W15181  42.416  33.437  14.032
51414W        W15182  39.541   4.794  12.360
51415W        W15183  21.758  10.369  13.312
51416W        W15184  34.112  35.547  13.339
51417W        W15185  38.065  25.607   3.869
51418W        W15186  43.392  39.495   2.836
51419W        W15187   5.889  11.333  13.358
51420W        W15188  19.231  14.609   2.411
51421W        W15189   6.802   5.894  14.861
51422W        W15190   4.896   0.868  14.012
51423W        W15191  33.493  19.650  10.957
51424W        W15192   3.927  15.772  12.480
51425W        W15193  40.318   1.309   0.480
51426W        W15194   9.296  11.362  12.062
51427W        W15195  43.845  26.129   1.391
51428W        W15196  26.525  32.886  12.924
51429W        W15197   9.722  36.551  11.957
51430W        W15198   7.891   5.735   3.279
51431W        W15199  33.404   5.280   2.854
51432W        W15200   6.330  29.641   4.654
51433W        W15201  29.163  39.356   4.795
51434W        W15202  26.104  24.608   0.483
51435W        W15203  19.678  18.157  14.362
51436W        W15204   9.661  18.712  14.482
51437W        W15205  21.521   5.926   4.755
51438W        W15206  17.242   0.494  13.025
51439W        W15207  28.495  19.765  11.998
51440W        W15208  15.184  10.669   2.753
51441W        W15209  23.149   0.376  12.087
51442W        W15210  33.625   4.346   2.814
51443W        W15211   4.754  32.082   2.743
51444W        W15212  20.236  35.892   5.117
51445W        W15213  20.624  14.170  12.890
51446W        W15214  37.830  41.376  12.011
51447W        W15215  17.091  26.514  12.953
51448W        W15216  17.183   2.372  11.029
51449W        W15217   0.306  27.527  12.432
51450W        W15218   5.694  26.651  13.793
51451W        W15219  42.309  41.879  10.583
51452W        W15220  12.140  23.678  10.575
51453W        W15221  33.444   8.787   3.274
51454W        W15222  28.053  11.157   3.148
51455W        W15223  17.220  33.596  13.507
51456W        W15224  43.773  17.676   2.270
51457W        W15225  21.153  35.574   0.476
51458W        W15226  44.398  23.653  14.503
51459W        W15227  12.229   1.273  13.957
51460W        W15228  27.040  25.528  13.863
51461W        W15229  39.360   5.416  11.030
51462W        W15230  20.551  29.967   3.637
51463W        W15231   9.250  21.086   1.846
51464W        W15232  24.176  15.630   5.082
51465W        W15233  31.916  23.503   3.285
51466W        W15234  21.257  13.817  11.376
51467W        W15235  19.251  43.270   0.855
51468W        W15236  23.561   2.430   1.719
51469W        W15237   7.727  30.032   0.808
51470W        W15238   6.762  14.102  14.849
51471W        W15239  25.034  44.492   1.269
51472W        W15240  10.845  25.166   2.738
51473W        W15241   2.924  26.065   0.938
51474W        W15242   4.760  27.458   2.698
51475W        W15243  34.607  23.644   4.716
51476W        W15244   8.395   7.385   1.346
51477W        W15245  16.805  39.908   1.770
51478W        W15246  25.064  36.477  13.326
51479W        W15247  23.054  17.695  10.432
51480W        W15248  15.623  21.120  10.070
51481W        W15249  17.063  44.952  13.870
51482W        W15250  11.236  38.565  10.998
51483W        W15251  15.776  12.718   0.350
51484W        W15252  44.269   9.796  11.403
51485W        W15253  19.687  12.652  10.450
51486W        W15254   5.702  38.871   2.691
51487W        W15255  43.923  36.440   2.263
51488W        W15256  22.543  40.467  11.601
51489W        W15257   6.788  23.620  13.970
51490W        W15258   8.164  31.021   1.800
51491W        W15259  12.635   8.279   0.957
51492W        W15260  10.833  23.507  10.532
51493W        W15261  11.653  44.905   2.757
51494W        W15262  25.187  36.361  11.930
51495W        W15263  31.062   7.268   1.694
51496W        W15264  25.178  28.673  10.550
51497W        W15265  10.778  33.098   4.272
51498W        W15266  41.526   3.722  11.518
51499W        W15267  35.980  15.174   1.831
51500W        W15268  32.591  13.118  13.860
51501W        W15269   4.331   6.369  11.391
51502W        W15270  43.883   1.764   2.398
51503W        W15271  10.204  10.271  10.548
51504W        W15272  34.393  26.506   3.160
51505W        W15273  18.264  32.137   2.900
51506W        W15274  38.972  12.759  10.155
51507W        W15275  44.297  36.902   0.815
51508W        W15276  31.944  16.147   4.319
51509W        W15277   5.322  23.700  11.588
51510W        W15278   8.828  36.082  14.989
51511W        W15279  43.500  24.566  12.942
51512W        W15280  28.975   0.868  11.965
51513W        W15281  44.848  35.072  13.321
51514W        W15282   4.364   0.853   3.818
51515W        W15283   9.358  40.365   1.787
51516W        W15284  35.571  28.523   0.316
51517W        W15285  10.194  31.508   0.796
51518W        W15286  10.342  17.654  10.641
51519W        W15287  27.068  42.802   0.746
51520W        W15288  20.629   5.199  10.589
51521W        W15289   0.916  12.664  11.945
51522W        W15290  15.281  42.982  14.000
51523W        W15291  35.431  32.450  11.905
51524W        W15292  25.583  43.007   9.991
51525W        W15293  40.416  10.677  13.448
51526W        W15294  29.467   6.709  13.364
51527W        W15295  30.579  27.141  11.871
51528W        W15296  12.350   9.387  10.900
51529W        W15297  41.483  22.739  10.891
51530W        W15298  29.501   0.818  10.426
51531W        W15299  22.069  35.364   3.311
51532W        W15300  14.654   0.811   4.182
51533W        W15301  30.522  36.474  12.832
51534W        W15302  43.343  41.355   5.263
51535W        W15303  40.333  22.078  14.902
51536W        W15304  40.478  40.944  12.546
51537W        W15305  39.984  38.973   4.173
51538W        W15306  25.569  12.780   2.802
51539W        W15307   5.703  33.596   0.263
51540W        W15308  38.533   1.401   2.749
51541W        W15309  36.869  26.579  12.353
51542W        W15310  43.826  35.080   2.719
51543W        W15311  15.601  17.565  12.981
51544W        W15312   6.888  24.665   3.164
51545W        W15313  44.800   8.667   3.716
51546W        W15314   3.419  24.662  12.408
51547W        W15315  33.077  33.061  11.490
51548W        W15316   2.880  19.269  13.878
51549W        W15317  27.070  24.048   0.442
51550W        W15318  42.452  12.699  14.962
51551W        W15319  29.990  32.084   0.965
51552W        W15320   0.446  15.219  13.791
51553W        W15321  30.522  18.230   1.797
51554W        W15322  23.630  24.137   4.265
51555W        W15323  22.611  15.732   0.813
51556W        W15324  14.265  10.277   4.785
51557W        W15325  12.354   3.796  13.439
51558W        W15326  36.484   4.786   1.379
51559W        W15327  25.603  12.826  10.472
51560W        W15328  16.214   4.365   3.262
51561W        W15329  12.338  29.568  10.536
51562W        W15330  22.234  21.224  13.930
51563W        W15331  20.169   4.447   1.878
51564W        W15332  27.614  38.039   2.233
51565W        W15333  26.163  32.425   3.854
51566W        W15334  11.129  34.900   0.269
51567W        W15335  33.063  20.608  12.477
51568W        W15336   5.216  17.601   4.163
51569W        W15337  42.933  38.874  11.591
51570W        W15338  17.741  32.022  12.855
51571W        W15339   9.343  37.368   3.754
51572W        W15340  19.176  18.259  14.836
51573W        W15341   6.227  41.972   2.900
51574W        W15342  15.219  42.395   0.286
51575W        W15343   4.934  22.170   0.956
51576W        W15344  20.060  44.416  10.099
51577W        W15345  10.215  14.636  10.510
51578W        W15346  33.587   9.343   0.878
51579W        W15347  31.153  40.316   4.281
51580W        W15348  29.042  15.163   0.818
51581W        W15349  11.819  20.606   4.140
51582W        W15350  33.444  18.688   0.923
51583W        W15351  41.822  37.566  12.577
51584W        W15352  19.733  12.221   2.350
51585W        W15353  41.877  44.776   3.151
51586W        W15354   1.861  22.081   3.172
51587W        W15355  12.350  36.881  14.392
51588W        W15356  42.970  10.858   2.329
51589W        W15357  32.055  20.232   2.828
51590W        W15358  33.024  26.161  14.803
51591W        W15359   5.321   4.933   2.866
51592W        W15360  20.676  30.082   1.410
51593W        W15361  33.935  28.967   4.785
51594W        W15362  32.935   1.927  12.441
51595W        W15363   8.209   8.723   2.365
51596W        W15364  36.017  28.666  14.989
51597W        W15365  38.566   8.706   3.707
51598W        W15366  25.186  17.721   0.261
51599W        W15367  18.652  44.996   4.334
51600W        W15368   6.869  25.504   3.690
51601W        W15369  37.443   0.803   1.254
51602W        W15370   7.820   4.945  11.497
51603W        W15371   6.407  20.595  12.006
51604W        W15372  17.136  28.020   0.828
51605W        W15373   3.824  36.911  13.504
51606W        W15374  43.393   7.750  10.971
51607W        W15375   5.299   0.411   2.811
51608W        W15376  27.562  28.440  11.974
51609W        W15377  10.350  27.611  13.007
51610W        W15378  35.546   9.758  14.503
51611W        W15379  31.131  11.334  12.405
51612W        W15380  27.049   6.729  11.464
51613W        W15381  34.941   7.882  10.912
51614W        W15382  21.194  42.922  10.443
51615W        W15383  12.627   2.834   0.286
51616W        W15384   6.407  38.988  14.319
51617W        W15385   4.806  20.574   1.260
51618W        W15386  34.527  30.419  10.443
51619W        W15387  16.190  37.879  10.412
51620W        W15388  34.575   7.728  12.381
51621W        W15389  22.603  14.164   3.208
51622W        W15390  40.336  24.511  14.988
51623W        W15391   3.250  44.394  13.318
51624W        W15392  22.154   3.935  10.510
51625W        W15393  29.604  29.553   4.734
51626W        W15394   7.213  32.473   4.125
51627W        W15395   4.335   1.414  11.038
51628W        W15396   4.292   4.816  11.109
51629W        W15397   3.292  35.881   1.323
51630W        W15398   3.240  43.500  11.860
51631W        W15399  17.632  42.290   3.155
51632W        W15400  23.607   1.887   3.859
51633W        W15401  25.204  13.282  11.903
51634W        W15402   5.716  12.828   3.350
51635W        W15403  22.145  25.579   2.411
51636W        W15404   5.250  28.673  11.378
51637W        W15405  42.865  26.596   3.761
51638W        W15406  34.008  34.036   1.917
51639W        W15407  14.679  26.483  13.418
51640W        W15408  37.511  14.129  12.410
51641W        W15409  33.613  30.502  11.592
51642W        W15410   2.761  34.374  10.426
51643W        W15411  17.702  26.030   2.854
51644W        W15412  39.009  29.493  11.442
51645W        W15413  11.193   8.219  10.959
51646W        W15414  19.059   5.425  14.504
51647W        W15415  22.212   6.770   0.757
51648W        W15416  40.013  39.509  11.921
51649W        W15417  36.098  16.695   2.227
51650W        W15418  14.724  37.896   2.379
51651W        W15419   0.815  19.186   3.190
51652W        W15420  21.101  19.056   5.247
51653W        W15421   9.723   5.402  12.843
51654W        W15422  41.499  14.661   1.904
51655W        W15423   3.258  39.971  12.063
51656W        W15424  26.004   5.773  11.995
51657W        W15425  26.029   2.398   1.781
51658W        W15426  43.299  17.782  10.609
51659W        W15427  37.452  26.139   1.252
51660W        W15428   2.912  14.110  10.976
51661W        W15429  29.627  31.034   1.300
51662W        W15430   9.725   5.231   1.282
51663W        W15431  32.055  21.640  11.028
51664W        W15432  31.454   3.444  11.518
51665W        W15433  22.667  20.727  11.551
51666W        W15434  15.236  21.601  11.098
51667W        W15435   8.833  24.719  11.561
51668W        W15436  10.678  39.011  10.040
51669W        W15437  12.682  12.620  12.484
51670W        W15438  23.082  43.944   1.442
51671W        W15439  40.901  33.383   0.894
51672W        W15440  41.027  25.489  14.760
51673W        W15441  18.617  14.168   9.979
51674W        W15442  38.049  40.798   0.356
51675W        W15443  34.105  27.543   1.740
51676W        W15444  32.394  41.441  14.338
51677W        W15445   5.287  28.105   1.332
51678W        W15446  16.278  38.877   3.378
51679W        W15447  12.187  18.628  10.450
51680W        W15448  36.093  16.258   2.731
51681W        W15449  41.031  24.499   0.479
51682W        W15450  40.512  18.152  11.371
51683W        W15451  23.151  33.545   0.727
51684W        W15452  20.120  44.757  11.928
51685W        W15453  18.751  33.941  14.952
51686W        W15454   1.242  20.209   0.824
51687W        W15455  25.111  27.094   2.700
51688W        W15456  10.654  33.056  12.008
51689W        W15457  33.487  20.251   3.236
51690W        W15458  44.320  27.184  11.025
51691W        W15459  43.886   4.311   3.810
51692W        W15460  31.959  14.291  10.111
51693W        W15461   7.880  27.023  12.087
51694W        W15462  15.173   5.402  12.847
51695W        W15463  11.634  11.844  14.276
51696W        W15464  33.979  21.571  14.022
51697W        W15465  30.634  10.257  11.411
51698W        W15466  11.671  10.192   2.763
51699W        W15467   5.334  43.364  10.521
51700W        W15468   1.246  16.589  14.443
51701W        W15469  17.759  32.502   1.241
51702W        W15470  14.203  28.681   0.923
51703W        W15471  36.941  17.131   2.881
51704W        W15472   4.257  30.089  10.548
51705W        W15473   5.762  23.222  10.632
51706W        W15474   5.310  14.677   2.678
51707W        W15475  26.577  18.176  13.916
51708W        W15476  41.498  11.321   0.770
51709W        W15477  38.868  12.272   1.359
51710W        W15478   2.860   3.447  13.360
51711W        W15479   0.470   1.237  11.887
51712W        W15480  39.033  29.438   4.668
51713W        W15481  44.859  23.032   0.250
51714W        W15482  16.146   0.844  13.409
51715W        W15483  13.607  21.568   2.408
51716W        W15484   7.337  14.238  12.411
51717W        W15485  22.705  22.745   5.148
51718W        W15486  19.208  42.320   2.218
51719W        W15487  22.083  40.982  12.833
51720W        W15488   8.723  29.619   4.203
51721W        W15489   7.339   0.913  14.856
51722W        W15490   7.293   1.442  14.816
51723W        W15491   1.801  12.770  12.927
51724W        W15492   6.918  12.224  10.447
51725W        W15493  17.673  15.123   0.770
51726W        W15494  31.411  31.907  10.952
51727W        W15495  43.764  31.968   1.849
51728W        W15496   3.863  11.205  14.840
51729W        W15497  15.303   6.342  13.897
51730W        W15498  37.581  10.714  14.987
51731W        W15499  41.493  37.883   0.824
51732W        W15500   5.805   0.878  11.020
51733W        W15501   5.722  41.910   1.249
51734W        W15502  25.977   2.313   2.700
51735W        W15503  11.258  27.566  12.874
51736W        W15504   7.191  32.133   4.295
51737W        W15505  21.729  32.405  11.869
51738W        W15506   1.329   4.822  11.460
51739W        W15507  31.943   5.830   3.729
51740W        W15508   9.188  43.383  11.371
51741W        W15509  29.078  37.471  11.927
51742W        W15510  10.354   5.815  10.585
51743W        W15511  17.779   1.475   1.314
51744W        W15512  32.888  15.721   4.658
51745W        W15513  24.156  19.691  11.986
51746W        W15514   8.828  38.931  13.985
51747W        W15515   9.244  21.260  13.914
51748W        W15516  19.103  24.118   1.792
51749W        W15517   8.792  10.237   1.884
51750W        W15518  37.973  39.470  13.016
51751W        W15519  19.680   3.421  11.593
51752W        W15520  23.079   0.491   2.903
51753W        W15521  38.914  40.346  11.432
51754W        W15522  30.964   5.921   1.736
51755W        W15523  34.988   4.720  12.459
51756W        W15524  44.773  10.345  12.878
51757W        W15525  16.767  25.562  12.881
51758W        W15526   3.892  18.207   1.757
51759W        W15527  12.324   5.815   2.408
51760W        W15528   6.762  19.767   2.197
51761W        W15529  44.931  19.170  13.421
51762W        W15530  43.376  11.210   2.248
51763W        W15531  21.151   0.362  11.000
51764W        W15532   0.976  27.055   0.793
51765W        W15533  36.868  29.593  13.364
51766W        W15534  39.053  15.105  10.636
51767W        W15535  25.210   1.898   1.289
51768W        W15536  39.015  35.421   3.862
51769W        W15537  12.229  25.053   2.304
51770W        W15538  40.985  28.481   4.826
51771W        W15539   4.913   9.712  13.060
51772W        W15540  27.630  18.294  12.004
51773W        W15541  30.617  26.636   4.289
51774W        W15542  17.763   8.358   0.818
51775W        W15543  30.146   9.354  11.053
51776W        W15544  21.727  36.044  11.061
51777W        W15545   0.799  12.271  11.007
51778W        W15546  28.161   5.784   3.170
51779W        W15547  13.669  36.532  12.851
51780W        W15548  10.262  19.609  14.405
51781W        W15549  16.721  18.643  14.007
51782W        W15550  32.429   0.941  11.503
51783W        W15551   4.409  26.036   0.842
51784W        W15552  12.163  43.368   0.324
51785W        W15553  44.965  14.114  14.028
51786W        W15554   1.856  19.746  12.882
51787W        W15555  27.121  16.803  14.949
51788W        W15556  35.442  40.539   3.862
51789W        W15557  20.764  35.003  13.817
51790W        W15558  36.908   9.259   1.408
51791W        W15559  34.906   0.316   1.323
51792W        W15560   9.698  11.686   3.232
51793W        W15561  38.427   9.364  10.952
51794W        W15562  13.222  26.192  13.436
51795W        W15563  11.693  39.395  11.563
51796W        W15564  10.681  35.463   0.964
51797W        W15565  42.969  42.413  11.544
51798W        W15566  33.472  34.559   1.231
51799W        W15567  31.509   5.325   1.238
51800W        W15568   8.716  38.941   3.633
51801W        W15569  19.534  36.541  13.829
51802W        W15570  18.240   5.799   3.697
51803W        W15571  43.457  43.475  14.464
51804W        W15572  25.610  25.520   4.760
51805W        W15573  35.054  13.835   4.690
51806W        W15574  13.662  31.907   0.866
51807W        W15575  26.050  34.418  14.783
51808W        W15576  23.591  18.655  12.989
51809W        W15577   5.930  42.322  10.511
51810W        W15578  18.547   9.875  13.382
51811W        W15579  12.309  17.748  12.367
51812W        W15580  17.120   5.384   2.879
51813W        W15581   0.470  23.548  13.345
51814W        W15582  15.732  29.443  12.868
51815W        W15583   7.720  15.093   1.753
51816W        W15584  18.681   9.799   1.704
51817W        W15585  25.102  16.651  13.454
51818W        W15586  27.095  31.452   2.395
51819W        W15587  43.491  33.024  12.882
51820W        W15588   9.213   3.870  14.481
51821W        W15589  26.090  38.963   3.304
51822W        W15590  40.798  17.710  13.390
51823W        W15591   0.471   8.808   4.683
51824W        W15592  14.591  38.934   3.818
51825W        W15593  43.901   7.779   4.143
51826W        W15594  35.098  16.118   3.238
51827W        W15595   5.218  44.330  12.456
51828W        W15596  24.531   8.770  13.883
51829W        W15597  12.170   5.920   2.822
51830W        W15598  28.652  25.219  12.397
51831W        W15599  38.054  28.549   2.866
51832W        W15600   0.463  39.899   1.740
51833W        W15601  24.112  21.104   2.368
51834W        W15602  36.042  38.459   4.173
51835W        W15603  21.593  15.244   4.607
51836W        W15604  41.984   2.280   1.866
51837W        W15605   7.876  24.603  10.585
51838W        W15606  36.902  13.618  13.386
51839W        W15607  26.599  13.202   2.730
51840W        W15608  20.200  38.556  12.023
51841W        W15609  20.529   7.400  13.965
51842W        W15610   4.403  27.073  12.497
51843W        W15611  30.500  10.246   1.864
51844W        W15612  22.118  42.953  14.389
51845W        W15613  43.865  19.229   4.657
51846W        W15614  14.204  21.029   2.689
51847W        W15615  44.819   7.315   0.258
51848W        W15616  35.389  10.370   0.800
51849W        W15617  16.747   8.736   0.799
51850W        W15618  14.174  40.418  13.836
51851W        W15619  35.863  38.819   3.842
51852W        W15620  14.775  20.529   4.662
51853W        W15621  39.873  15.233  11.396
51854W        W15622  16.233  16.260  11.372
51855W        W15623  44.332  15.679  12.847
51856W        W15624  44.451  34.120  14.018
51857W        W15625  31.051  42.361  14.302
51858W        W15626  39.010   8.698  10.895
51859W        W15627  43.325  24.494   4.689
51860W        W15628  30.137   7.690  10.494
51861W        W15629   4.236   1.304   1.873
51862W        W15630   7.703   9.274  12.418
51863W        W15631   7.366  12.617  12.485
51864W        W15632   7.269  30.523   2.202
51865W        W15633  19.555  17.780   4.767
51866W        W15634   6.379  30.642  14.505
51867W        W15635  11.756  30.591  14.855
51868W        W15636  16.809  13.228   2.752
51869W        W15637  43.294   5.747  12.380
51870W        W15638  24.551  16.798   3.210
51871W        W15639  28.649  25.528   4.782
51872W        W15640  27.661  29.995  12.439
51873W        W15641   6.773  18.152  11.406
51874W        W15642   1.285  23.094   0.444
51875W        W15643  36.420  22.102  13.468
51876W        W15644  30.584  38.536   1.931
51877W        W15645  44.948  21.131   2.273
51878W        W15646  23.715   6.815   2.341
51879W        W15647  30.029  17.118   1.836
51880W        W15648  39.489   2.861   2.419
51881W        W15649   0.772  42.506   0.403
51882W        W15650  23.645  25.034  11.093
51883W        W15651   1.763   6.899   1.362
51884W        W15652  13.797  44.361  10.913
51885W        W15653   3.380   5.268   3.833
51886W        W15654  41.870  23.076   2.726
51887W        W15655  14.747  37.459  12.077
51888W        W15656  30.950  43.305  14.960
51889W        W15657  30.116  33.593  11.925
51890W        W15658  13.656  25.654  11.861
51891W        W15659  43.964   8.709   1.907
51892W        W15660  25.551  29.937  12.943
51893W        W15661  36.066  42.000  13.006
51894W        W15662  16.571  39.380  14.935
51895W        W15663   2.788   6.811   1.761
51896W        W15664  27.665   6.679  14.968
51897W        W15665  44.910   8.285   0.321
51898W        W15666   2.907  14.226  14.442
51899W        W15667  35.951  12.321  13.350
51900W        W15668   3.431   1.392  12.024
51901W        W15669   8.772  37.079   3.782
51902W        W15670  33.534  30.635  13.369
51903W        W15671   2.363  36.075  11.983
51904W        W15672  16.657  22.064  13.395
51905W        W15673  13.351  38.450  14.015
51906W        W15674  19.107  16.779   3.328
51907W        W15675  33.991  12.194  11.059
51908W        W15676  17.687  16.590   1.344
51909W        W15677  20.249  39.989   3.160
51910W        W15678  33.084  19.657   4.174
51911W        W15679   1.272   4.405  13.041
51912W        W15680   7.754  20.676  14.898
51913W        W15681  41.008  26.961   0.319
51914W        W15682  27.526   6.383  10.427
51915W        W15683  43.309  29.598  11.006
51916W        W15684   9.775  41.949   0.400
51917W        W15685   0.766  42.851   1.399
51918W        W15686  41.360   8.786   5.259
51919W        W15687  40.851   5.921  13.838
51920W        W15688  20.108  18.237   5.247
51921W        W15689  28.551  42.943  14.946
51922W        W15690  24.077  30.593  14.296
51923W        W15691  30.646  30.438  10.938
51924W        W15692  19.641  43.470  11.944
51925W        W15693  19.706  30.502  12.557
51926W        W15694  14.797  15.809   5.109
51927W        W15695  19.192  40.495   4.771
51928W        W15696   7.803  32.416   1.729
51929W        W15697  29.504  38.838   4.151
51930W        W15698  38.429  36.871   2.255
51931W        W15699   8.275  40.016   2.860
51932W        W15700  10.633   2.791   3.760
51933W        W15701  43.934  23.126   2.183
51934W        W15702  25.187  29.538  12.867
51935W        W15703  41.402   0.780  12.365
51936W        W15704  15.701  22.253  14.495
51937W        W15705   3.809  32.951   0.247
51938W        W15706   7.716  40.028  12.983
51939W        W15707  29.446  31.985   4.199
51940W        W15708  12.329  31.102   3.714
51941W        W15709  35.523  20.175   1.369
51942W        W15710  19.267  32.494   1.238
51943W        W15711  24.625  36.008  11.999
51944W        W15712  10.335  15.608   1.309
51945W        W15713   3.743  41.949  13.478
51946W        W15714  21.022  12.811  13.910
51947W        W15715  42.472  22.590   3.147
51948W        W15716  17.273   1.383  14.276
51949W        W15717  42.427  32.599  13.953
51950W        W15718  34.586  14.706  14.403
51951W        W15719   6.732  41.796   0.474
51952W        W15720  11.184  28.576  11.394
51953W        W15721  34.092  43.434   1.835
51954W        W15722  36.567  31.463  14.507
51955W        W15723  20.163  24.024   4.169
51956W        W15724  36.503  44.756   4.748
51957W        W15725   7.840  28.643   1.775
51958W        W15726  24.487  27.014  14.025
51959W        W15727  13.214   4.428   3.740
51960W        W15728  20.636  32.021   3.695
51961W        W15729  15.797  16.806   4.347
51962W        W15730  43.380   5.740   0.482
51963W        W15731   8.874  33.878   1.825
51964W        W15732  44.809  32.525  11.010
51965W        W15733  30.944  42.443  12.384
51966W        W15734  12.198  12.804   2.737
51967W        W15735  14.238  27.085  12.389
51968W        W15736  43.390  38.485  11.126
51969W        W15737  25.009  35.908   4.118
51970W        W15738  11.201  43.344  11.926
51971W        W15739  29.995  21.546  11.085
51972W        W15740   1.833  37.896   4.749
51973W        W15741  38.995  12.653  14.784
51974W        W15742   7.811  31.425   1.387
51975W        W15743   5.320  31.480   0.767
51976W        W15744  17.094  27.087  11.376
51977W        W15745   9.277  30.502   2.303
51978W        W15746  38.546  44.009   3.824
51979W        W15747  10.231  40.021  13.384
51980W        W15748  15.618  30.414   1.372
51981W        W15749  39.033  42.346  10.925
51982W        W15750  39.491  31.011  11.920
51983W        W15751  24.631   2.906  13.507
51984W        W15752  28.132  44.363  11.383
51985W        W15753  19.722   2.310   1.363
51986W        W15754   8.854  22.684   1.855
51987W        W15755  34.576  15.183   1.927
51988W        W15756  18.603   7.742   0.967
51989W        W15757  22.690  22.234  12.498
51990W        W15758  13.785  21.157   0.760
51991W        W15759  11.325  13.703  12.490
51992W        W15760  15.310  30.524  14.460
51993W        W15761  21.235  20.566  11.498
51994W        W15762  41.886  12.697  14.384
51995W        W15763  38.395  13.264   1.899
51996W        W15764   7.784  42.490  11.452
51997W        W15765  11.225  18.140  11.375
51998W        W15766  30.490  36.867  11.485
51999W        W15767   2.923  44.773  11.097
52000W        W15768   8.401  44.453  10.974
52001W        W15769  36.464   3.444   3.282
52002W        W15770  35.469  17.576   4.723
52003W        W15771  29.572  15.610  13.523
52004W        W15772  21.548   3.394   2.677
52005W        W15773  19.075  21.540  13.499
52006W        W15774   2.275   1.482   4.730
52007W        W15775  32.478  39.898   0.333
52008W        W15776   0.885   4.236   0.814
52009W        W15777   1.858  16.097   2.325
52010W        W15778  41.528  21.145  10.983
52011W        W15779  42.304  16.763   3.870
52012W        W15780  35.916  33.019   2.237
52013W        W15781  42.451   5.421  14.966
52014W        W15782  34.450   1.453  10.641
52015W        W15783   4.937   6.274   5.111
52016W        W15784  36.363   2.228  14.887
52017W        W15785  18.557  33.503   4.818
52018W        W15786  39.862   3.932   4.188
52019W        W15787  16.803  19.254  14.844
52020W        W15788  28.167  11.152   0.914
52021W        W15789   4.772  44.331  14.773
52022W        W15790  26.597   2.832  14.359
52023W        W15791  17.629  31.959  10.974
52024W        W15792  21.529  26.484  12.871
52025W        W15793  36.921  29.561  13.827
52026W        W15794  25.702  12.132   4.651
52027W        W15795  26.660  40.919  13.527
52028W        W15796  36.070   5.725  14.446
52029W        W15797  10.834  33.962  13.482
52030W        W15798  39.873  22.532   0.268
52031W        W15799  33.932  18.570  14.410
52032W        W15800   4.783  19.746  13.321
52033W        W15801  25.013  28.540   2.702
52034W        W15802  30.058  24.981  11.442
52035W        W15803  42.336  39.948   1.382
52036W        W15804  12.610   7.320   3.208
52037W        W15805  42.422  39.503  10.577
52038W        W15806  44.364  34.920   0.388
52039W        W15807  37.524  23.581   2.218
52040W        W15808  38.507  25.708   0.450
52041W        W15809   8.728  15.583  10.628
52042W        W15810  34.572   8.851  14.030
52043W        W15811  34.580  27.659   1.896
52044W        W15812  29.036   9.363   3.815
52045W        W15813  35.913  37.006  11.528
52046W        W15814  31.037  29.963  12.379
52047W        W15815  14.216  40.354  11.482
52048W        W15816  20.644  41.514   3.255
52049W        W15817   2.946  39.451   3.289
52050W        W15818  36.525  23.672   5.133
52051W        W15819  22.653  21.103  14.347
52052W        W15820   7.308  24.702   1.238
52053W        W15821  34.555   2.752   0.845
52054W        W15822  23.601  20.197   2.754
52055W        W15823  38.851  22.681   5.246
52056W        W15824  15.295   0.455  11.970
52057W        W15825  27.076  25.209   3.685
52058W        W15826  20.560  10.379   5.125
52059W        W15827  43.475   1.374  12.970
52060W        W15828   6.246  33.954  14.424
52061W        W15829  32.982  43.460   4.709
52062W        W15830   0.346   6.885   2.280
52063W        W15831  35.054  43.374  10.989
52064W        W15832  41.933  14.238  14.411
52065W        W15833   8.772  39.474   4.828
52066W        W15834  17.603  10.808   4.830
52067W        W15835  26.008  29.485  13.437
52068W        W15836  18.061  14.607   4.275
52069W        W15837  10.747   7.728   2.191
52070W        W15838  41.330  22.064   0.946
52071W        W15839  41.425  43.947   3.191
52072W        W15840  24.029  13.631   3.682
52073W        W15841  29.522  21.244  11.589
52074W        W15842  37.065  22.223  10.594
52075W        W15843  10.170  35.084   4.193
52076W        W15844  44.382   8.856   5.212
52077W        W15845   4.762  24.709  11.977
52078W        W15846  34.888  16.175   3.735
52079W        W15847   6.702  35.071  13.542
52080W        W15848  16.295  17.628   3.688
52081W        W15849  13.119  38.392  12.557
52082W        W15850  31.458  27.168   0.945
52083W        W15851  12.346  17.267   4.131
52084W        W15852  11.310   2.252  10.620
52085W        W15853  17.291  21.706   4.626
52086W        W15854  13.744  38.067   3.151
52087W        W15855  14.758  20.069  11.549
52088W        W15856  30.621  15.796   2.316
52089W        W15857  14.213  27.462  11.456
52090W        W15858  34.473  31.534  11.965
52091W        W15859   2.343  26.506  13.822
52092W        W15860  40.853  26.056   1.830
52093W        W15861  23.031   9.842  13.495
52094W        W15862  23.571  18.261   1.403
52095W        W15863  33.090  32.523  11.989
52096W        W15864  30.582  13.648   4.732
52097W        W15865   2.365  41.812  11.946
52098W        W15866  44.947  16.085  10.567
52099W        W15867  25.647  13.749   4.833
52100W        W15868  21.214  26.185  14.966
52101W        W15869  21.208  17.196  12.463
52102W        W15870  24.058   7.743  12.094
52103W        W15871  10.375  25.489   3.184
52104W        W15872  39.530  14.788  13.348
52105W        W15873  31.087  40.432   1.715
52106W        W15874  33.115  44.914  11.077
52107W        W15875  31.647  31.471   3.231
52108W        W15876  21.618   7.240   3.231
52109W        W15877  29.614   4.929   4.597
52110W        W15878  15.657  37.353   1.748
52111W        W15879  27.126  26.669   2.191
52112W        W15880  40.892  15.648  13.969
52113W        W15881  10.784   7.714   1.284
52114W        W15882  42.436  41.829  13.531
52115W        W15883   3.761  40.822   0.967
52116W        W15884  20.231   7.361   4.113
52117W        W15885  26.646  31.975   5.149
52118W        W15886  11.208  35.393   4.184
52119W        W15887  21.065  34.048   5.133
52120W        W15888   2.269  33.609   1.860
52121W        W15889  43.452  19.628  14.385
52122W        W15890  24.169  40.896   0.880
52123W        W15891  14.269  29.131  12.071
52124W        W15892   6.356   3.751   1.256
52125W        W15893  29.649   7.275  11.062
52126W        W15894  36.062  21.746  12.378
52127W        W15895  44.802   3.886  10.921
52128W        W15896  18.154  16.634  12.010
52129W        W15897  43.406  44.897  13.998
52130W        W15898   0.292   5.762  14.851
52131W        W15899   4.341  11.345   0.270
52132W        W15900  28.175  37.985  14.362
52133W        W15901  19.100  31.609   3.163
52134W        W15902  40.466  16.153  10.504
52135W        W15903   2.253  26.529   4.700
52136W        W15904   3.945  19.659  13.988
52137W        W15905   5.803  18.271  13.336
52138W        W15906  19.673  40.326  11.859
52139W        W15907  23.547  40.855   0.887
52140W        W15908  20.083  39.994  10.537
52141W        W15909  19.616  11.755  12.923
52142W        W15910   7.729  35.946  11.864
52143W        W15911  32.576  26.466  10.961
52144W        W15912  16.313  42.810   0.290
52145W        W15913   6.810  36.489  13.050
52146W        W15914  23.025  13.223   1.760
52147W        W15915  24.104  26.623   2.268
52148W        W15916   3.822  41.470  12.832
52149W        W15917  10.783  18.600   1.386
52150W        W15918  28.069  44.003  14.937
52151W        W15919  21.635   4.390  10.558
52152W        W15920   5.816  37.921  14.877
52153W        W15921   7.821  15.227   0.775
52154W        W15922  12.763  37.365   1.406
52155W        W15923  14.604  34.381  11.065
52156W        W15924  36.505  14.165   0.333
52157W        W15925  21.025  33.096   2.852
52158W        W15926  24.542  38.052  12.011
52159W        W15927   9.206  24.071  13.814
52160W        W15928  27.477  19.072  12.956
52161W        W15929  29.942  41.008   4.326
52162W        W15930  11.744  15.615  11.112
52163W        W15931  16.716   7.257   4.262
52164W        W15932  15.256  15.812  11.879
52165W        W15933  10.869  40.865  14.424
52166W        W15934   3.459  43.448  10.892
52167W        W15935  31.943  42.900  12.861
52168W        W15936  42.415  25.481   0.922
52169W        W15937   3.821  27.997  12.468
52170W        W15938  23.712  19.095  12.005
52171W        W15939  44.472  19.682  13.798
52172W        W15940  37.398  31.503  10.076
52173W        W15941  27.659  12.718  13.937
52174W        W15942  10.771   6.195   1.831
52175W        W15943  28.123   3.342  12.509
52176W        W15944  29.511   7.234   2.709
52177W        W15945  17.605   5.428  14.938
52178W        W15946  37.874  23.998   4.267
52179W        W15947  37.045  30.422   3.193
52180W        W15948   3.348  18.636  12.533
52181W        W15949  22.711  27.684   2.373
52182W        W15950  38.365  38.972  10.459
52183W        W15951  14.114  10.217  14.478
52184W        W15952  34.441  34.002  12.055
52185W        W15953  41.349  34.500  12.901
52186W        W15954  20.149  29.447   3.859
52187W        W15955  17.122  35.974  12.374
52188W        W15956  20.763  15.780  13.917
52189W        W15957   7.892  30.517   1.840
52190W        W15958  43.773   1.274  13.024
52191W        W15959  18.218  39.522   1.767
52192W        W15960  10.170  25.599  10.491
52193W        W15961  39.903  37.568   4.227
52194W        W15962  17.152   7.353   2.361
52195W        W15963  11.836  30.594   4.287
52196W        W15964  42.805  16.307  11.521
52197W        W15965  34.414  28.114   3.253
52198W        W15966  39.889  31.439   1.413
52199W        W15967  22.058  26.566  13.926
52200W        W15968  19.607  12.627  13.505
52201W        W15969  10.277  36.348   5.143
52202W        W15970   6.711  39.946   0.254
52203W        W15971   0.460  35.427  12.369
52204W        W15972  43.939   5.397   0.401
52205W        W15973   6.340   0.364  13.823
52206W        W15974  40.886  21.121  11.973
52207W        W15975   6.906  16.128   2.759
52208W        W15976  31.440  40.911   2.374
52209W        W15977  10.289  44.001  13.918
52210W        W15978  27.518  19.203  11.942
52211W        W15979  11.702   3.927   4.813
52212W        W15980  30.529  35.587  10.914
52213W        W15981   9.252  43.405  12.980
52214W        W15982  27.572  41.468   1.726
52215W        W15983  26.972  35.453   1.900
52216W        W15984  30.476  11.712   3.669
52217W        W15985  18.261   5.214   2.269
52218W        W15986  29.116  15.805  10.493
52219W        W15987  25.201   3.914   3.310
52220W        W15988  12.245  44.467  12.477
52221W        W15989  16.675  22.625  12.487
52222W        W15990  18.202  19.702   2.279
52223W        W15991  42.374  24.593   4.223
52224W        W15992  15.155  38.476   0.396
52225W        W15993  22.654  21.605   4.742
52226W        W15994  40.989  20.206  11.027
52227W        W15995   3.836  11.348   0.957
52228W        W15996  28.943  25.160   0.794
52229W        W15997  43.811  41.468   4.321
52230W        W15998  44.891  24.708  11.435
52231W        W15999  36.370  15.704   3.729
52232W        W16000  24.572  19.740   3.176
52233W        W16001  32.053  29.081  10.607
52234W        W16002   7.366  38.962   1.396
52235W        W16003  15.815  29.165  10.917
52236W        W16004  43.481  41.399  10.987
52237W        W16005   3.250  16.230  14.894
52238W        W16006  42.817  23.599  12.055
52239W        W16007  27.095  31.091   3.682
52240W        W16008  28.151  38.021   1.862
52241W        W16009  24.666  25.044   3.755
52242W        W16010  27.453  19.142   0.902
52243W        W16011  39.375  35.880  13.475
52244W        W16012  13.238  22.529   9.988
52245W        W16013  43.005   4.448  10.426
52246W        W16014  17.739  39.372  11.433
52247W        W16015  44.311  15.256  12.975
52248W        W16016  19.041  42.328   3.281
52249W        W16017   1.769  18.075  10.432
52250W        W16018  25.040  33.418   1.808
52251W        W16019  28.639  41.933  14.883
52252W        W16020   8.238  11.631   2.381
52253W        W16021  22.549  17.595  13.932
52254W        W16022   8.173  12.292   0.349
52255W        W16023  12.294  40.855  13.998
52256W        W16024   5.237  12.735  13.419
52257W        W16025   9.175  26.493  13.909
52258W        W16026  37.529  22.198  14.407
52259W        W16027  16.184  20.697  12.063
52260W        W16028   5.242  14.238   5.264
52261W        W16029  16.670  41.885   4.632
52262W        W16030  20.154  38.330  11.057
52263W        W16031  44.775   6.406   0.759
52264W        W16032  44.315  16.575   2.258
52265W        W16033   8.173  31.593  11.045
52266W        W16034  37.992  27.964  11.397
52267W        W16035  29.998  34.559  13.972
52268W        W16036  10.216  11.166  13.810
52269W        W16037  31.481  35.566  12.440
52270W        W16038  43.472  16.810   4.828
52271W        W16039  12.760  16.298   3.791
52272W        W16040   9.316  30.431  12.906
52273W        W16041  38.453  39.443  11.857
52274W        W16042  11.827  34.532   0.844
52275W        W16043  11.184  12.317   2.345
52276W        W16044   4.209   2.892   0.774
52277W        W16045   2.916  19.533  12.984
52278W        W16046   8.732   1.309  11.093
52279W        W16047   1.740   4.805   5.280
52280W        W16048  31.599  35.946   4.149
52281W        W16049   0.259  11.350   1.372
52282W        W16050  22.635  40.348  13.496
52283W        W16051  34.967   2.375  10.613
52284W        W16052   5.422  40.402  14.466
52285W        W16053  15.305  40.449  14.315
52286W        W16054  21.074  25.067  10.078
52287W        W16055   4.838  26.161  11.040
52288W        W16056  32.508  39.938   3.651
52289W        W16057  22.080   9.254  10.563
52290W        W16058  30.985  18.760  13.331
52291W        W16059  29.567   1.738   1.411
52292W        W16060  43.286  39.406  13.537
52293W        W16061  44.964   8.387  13.416
52294W        W16062  29.650  10.767  11.402
52295W        W16063   2.385  17.151   0.875
52296W        W16064  22.549  10.280   2.233
52297W        W16065  29.166  40.879  11.425
52298W        W16066  13.264  41.480  13.056
52299W        W16067   5.788   2.923  13.429
52300W        W16068  41.986  40.864   4.622
52301W        W16069  13.823  14.761   3.266
52302W        W16070  19.772   4.424   0.768
52303W        W16071  36.465  30.034   2.720
52304W        W16072  14.653   8.306   0.360
52305W        W16073   9.854   9.658  13.455
52306W        W16074  24.023   0.320  10.920
52307W        W16075  15.785  22.565  13.354
52308W        W16076  25.172  38.451  10.520
52309W        W16077  29.515   2.229   1.707
52310W        W16078  38.384  40.827  12.016
52311W        W16079  26.475  40.933  11.602
52312W        W16080  43.854  11.739   2.278
52313W        W16081  21.662  43.021   4.837
52314W        W16082  42.816  13.819   2.807
52315W        W16083  26.963  15.175  13.503
52316W        W16084  26.511  10.272  10.613
52317W        W16085   4.778  22.173  12.866
52318W        W16086  40.867  26.607  10.439
52319W        W16087   0.418  33.531   2.706
52320W        W16088  37.037  19.571   1.419
52321W        W16089  22.105   5.721  13.020
52322W        W16090  19.256   0.871   2.391
52323W        W16091  10.731   2.886  12.977
52324W        W16092  10.740  40.032  11.376
52325W        W16093  38.523  28.623  13.528
52326W        W16094  18.187  22.131   1.225
52327W        W16095   8.658  35.561   0.851
52328W        W16096  25.605   2.318   0.404
52329W        W16097  18.240  39.872  14.505
52330W        W16098  16.606  37.435   4.814
52331W        W16099  38.514  44.896   2.252
52332W        W16100  39.908  14.108   2.336
52333W        W16101  34.956   4.227  13.866
52334W        W16102   3.740  41.836  13.890
52335W        W16103   4.356  31.898  13.417
52336W        W16104  25.637  11.780   1.429
52337W        W16105  17.752  27.541  12.875
52338W        W16106  12.717  15.281   9.986
52339W        W16107  22.677   2.951  11.373
52340W        W16108   7.340  23.229  13.829
52341W        W16109  13.140  38.061   1.435
52342W        W16110  37.956  15.699   0.286
52343W        W16111   0.441  44.409   3.789
52344W        W16112  19.599  44.855   4.739
52345W        W16113  34.581   6.918  12.938
52346W        W16114  37.530  17.102  13.538
52347W        W16115  37.939   9.159  11.977
52348W        W16116  27.691  25.066  13.800
52349W        W16117   1.845   2.807   1.366
52350W        W16118  15.636  31.611  10.538
52351W        W16119  43.926   8.294   4.779
52352W        W16120  42.473  22.572  10.907
52353W        W16121  28.555  10.866  13.328
52354W        W16122  36.067  26.537   1.419
52355W        W16123  23.597  41.796   1.699
52356W        W16124   6.414  33.420  11.954
52357W        W16125  23.667  20.091  14.458
52358W        W16126  10.690  23.125  13.518
52359W        W16127  28.933  12.665  11.393
52360W        W16128  37.081  31.452  13.417
52361W        W16129  14.715  30.024   4.816
52362W        W16130  11.138  11.255  13.016
52363W        W16131  23.631   8.251   4.231
52364W        W16132  19.692   7.255  10.481
52365W        W16133   0.810  32.905  13.447
52366W        W16134  40.833  36.062  14.026
52367W        W16135  11.198  40.501   2.740
52368W        W16136   3.930  44.332  11.862
52369W        W16137  31.506  28.618  13.031
52370W        W16138  20.064   2.850  13.351
52371W        W16139   4.433  17.691  13.982
52372W        W16140  34.505   4.213   1.248
52373W        W16141   9.277  37.447  11.038
52374W        W16142  44.772  13.714   4.836
52375W        W16143   7.202   7.388  13.014
52376W        W16144  36.417  21.677   4.688
52377W        W16145  35.504  12.170   2.715
52378W        W16146  41.370  20.736  13.870
52379W        W16147   3.346   8.684   4.353
52380W        W16148  13.744  10.866   0.411
52381W        W16149  14.163  11.802  12.566
52382W        W16150  34.398  20.612   4.786
52383W        W16151  39.450   7.361   2.224
52384W        W16152  30.504  14.296  11.935
52385W        W16153  39.857  33.003   3.252
52386W        W16154  16.119  11.853  10.405
52387W        W16155  13.713   8.861  13.920
52388W        W16156  33.928  21.539   4.632
52389W        W16157  43.287  34.534  14.336
52390W        W16158  35.452  33.494  12.442
52391W        W16159  38.325  30.475   4.274
52392W        W16160  12.801  32.126  12.910
52393W        W16161  29.423  38.013  14.914
52394W        W16162  26.058  31.519   0.807
52395W        W16163  22.706   6.323  12.840
52396W        W16164  44.790   5.294   2.806
52397W        W16165  39.887  43.787  13.435
52398W        W16166  24.505  43.396   4.261
52399W        W16167  21.755  24.997  11.422
52400W        W16168  34.065  19.722  10.630
52401W        W16169   3.241  28.458   1.824
52402W        W16170   3.288   5.389   2.842
52403W        W16171  10.697  26.661   4.329
52404W        W16172  31.951  18.686  14.834
52405W        W16173   3.286   2.372   0.313
52406W        W16174  28.476  35.404  11.936
52407W        W16175  36.495  29.613  14.337
52408W        W16176  42.875  41.043  12.402
52409W        W16177  25.538   3.880   3.238
52410W        W16178  16.733  38.449   3.223
52411W        W16179   3.773  31.439   4.216
52412W        W16180  34.963  10.385   4.140
52413W        W16181  41.856   1.388  12.513
52414W        W16182   1.818  32.545   3.316
52415W        W16183  36.468  13.271  10.508
52416W        W16184  40.995  40.914   4.140
52417W        W16185  44.353  22.533   2.301
52418W        W16186  27.009  39.334   2.247
52419W        W16187  36.086  41.880  12.055
52420W        W16188   5.764   5.719   2.832
52421W        W16189   4.339  35.023  10.968
52422W        W16190  37.916  25.172   5.295
52423W        W16191  43.783  30.556  12.466
52424W        W16192  43.947  13.709   3.358
52425W        W16193  26.193  24.031  10.986
52426W        W16194  43.400  36.888  10.563
52427W        W16195   5.321   3.865   1.283
52428W        W16196   5.878  23.693   1.764
52429W        W16197   6.701  36.564   0.733
52430W        W16198  43.321  13.644  11.397
52431W        W16199  40.040  27.169  12.874
52432W        W16200  15.324  20.547  11.548
52433W        W16201  39.455   7.750  12.936
52434W        W16202  35.525  33.519   4.768
52435W        W16203  13.269  16.744  12.498
52436W        W16204  24.621   1.897  14.403
52437W        W16205  22.241   1.817  12.985
52438W        W16206   5.928   8.882   0.851
52439W        W16207  12.735  14.120   1.836
52440W        W16208   8.388  38.927   0.305
52441W        W16209   6.735  15.268   0.284
52442W        W16210  24.652  28.127   2.714
52443W        W16211  21.242  36.585   1.744
52444W        W16212   3.869  30.152   1.807
52445W        W16213  25.209  33.937  13.444
52446W        W16214  22.045  23.014  13.396
52447W        W16215   7.696  30.085  13.832
52448W        W16216  35.540  29.601   3.188
52449W        W16217  41.882   8.246  13.537
52450W        W16218   9.856  11.733   0.293
52451W        W16219  40.546   5.905  10.137
52452W        W16220  10.265  16.796  12.378
52453W        W16221  44.364  13.623  10.580
52454W        W16222   7.336   8.873   2.850
52455W        W16223  20.187   2.334   4.249
52456W        W16224   8.825  19.599  13.307
52457W        W16225  29.008  43.365   0.849
52458W        W16226  14.280  22.554   4.834
52459W        W16227  33.621  20.071  13.800
52460W        W16228  30.493   6.866  10.509
52461W        W16229  41.418   3.423   3.191
52462W        W16230  22.598  44.378   5.215
52463W        W16231  31.966  32.032   3.783
52464W        W16232  14.095  34.568  11.014
52465W        W16233   3.268  27.171   4.214
52466W        W16234  20.535  12.763  12.065
52467W        W16235  32.514  25.136   0.768
52468W        W16236   7.870  25.476   1.840
52469W        W16237  31.052  37.418   4.632
52470W        W16238   1.746  20.528   4.640
52471W        W16239  34.029  33.963   0.783
52472W        W16240  38.458   5.439   0.248
52473W        W16241  43.783  17.673   3.828
52474W        W16242   5.718  34.927  12.406
52475W        W16243  13.711  41.032  14.383
52476W        W16244  20.202  12.306  14.934
52477W        W16245   2.339  33.016  13.895
52478W        W16246   7.855  17.152  10.969
52479W        W16247  22.682  31.123   4.717
52480W        W16248   0.877   5.877  10.520
52481W        W16249  17.635  44.847  13.996
52482W        W16250  31.126  33.101  14.280
52483W        W16251   5.882  22.723   1.295
52484W        W16252  37.930  24.547  10.515
52485W        W16253  14.813  10.798  11.511
52486W        W16254  33.059   5.890  10.933
52487W        W16255   9.321  33.013   1.930
52488W        W16256  44.423  19.634   4.331
52489W        W16257   8.352  14.648   3.273
52490W        W16258  27.965  18.134  13.064
52491W        W16259  21.154  25.970   0.294
52492W        W16260   2.308   4.713   3.211
52493W        W16261  19.167  16.159  12.029
52494W        W16262   4.774  18.219  12.907
52495W        W16263  15.704  39.459   2.365
52496W        W16264  43.871  30.115   3.192
52497W        W16265  28.040   7.873   0.321
52498W        W16266  13.731  32.896   3.869
52499W        W16267  28.651  29.010   2.746
52500W        W16268  15.701  43.932  14.395
52501W        W16269  20.044  38.967   2.732
52502W        W16270  28.669  26.958   3.372
52503W        W16271  40.849  30.487  11.402
52504W        W16272  36.011  16.754  10.939
52505W        W16273  21.696  31.015   0.781
52506W        W16274  43.816  21.170  13.391
52507W        W16275  41.915  35.452  14.421
52508W        W16276  27.465  38.971  13.475
52509W        W16277   6.220  42.440  10.948
52510W        W16278  23.091  15.301   4.304
52511W        W16279  21.662  24.487   1.930
52512W        W16280  16.664  15.599  12.854
52513W        W16281  26.687   9.841   4.246
52514W        W16282  37.844  27.467   0.902
52515W        W16283  20.564   8.770   3.664
52516W        W16284   8.665  20.659   0.363
52517W        W16285  21.100  20.631  12.986
52518W        W16286  27.682   5.831  12.024
52519W        W16287  17.096   2.745  11.467
52520W        W16288  27.942   6.800  10.430
52521W        W16289   2.236  25.578   0.285
52522W        W16290  40.479  19.168  12.062
52523W        W16291  34.913  31.641  10.468
52524W        W16292  32.534  30.453  14.023
52525W        W16293  26.558  20.593   1.444
52526W        W16294  10.767  31.132  13.521
52527W        W16295  17.783  36.873   0.410
52528W        W16296   2.270  35.397   0.308
52529W        W16297  33.925  29.937  14.358
52530W        W16298  37.435  34.028   1.825
52531W        W16299  36.935   9.378   4.299
52532W        W16300  29.555   1.789   4.785
52533W        W16301   9.376  29.519  11.603
52534W        W16302  25.996  42.524  14.829
52535W        W16303   4.415  13.624  12.995
52536W        W16304  26.599  37.029  10.624
52537W        W16305   3.278  39.512   3.185
52538W        W16306  10.279  44.499  11.512
52539W        W16307   1.258   0.928  10.495
52540W        W16308  41.015  44.435   1.404
52541W        W16309  13.665  16.727   3.343
52542W        W16310  25.180  23.502   4.200
52543W        W16311  36.861  20.119  14.015
52544W        W16312   3.946  27.141  14.890
52545W        W16313  11.222  34.591  13.945
52546W        W16314  37.900  19.676   0.462
52547W        W16315   9.257  21.751  12.433
52548W        W16316  38.564  44.863   0.752
52549W        W16317  33.572  39.058  14.430
52550W        W16318  39.017  11.340  14.966
52551W        W16319  39.346  19.565  13.537
52552W        W16320  39.361  37.848  13.849
52553W        W16321  39.371  12.200   1.447
52554W        W16322  12.753  35.484  13.900
52555W        W16323  30.994   3.432  12.087
52556W        W16324  26.969  29.572   9.957
52557W        W16325  43.490  35.510   0.768
52558W        W16326  35.914  16.106  11.977
52559W        W16327  13.613   3.779   3.866
52560W        W16328  28.940  32.018   3.232
52561W        W16329  23.055   7.785   2.207
52562W        W16330  19.202  33.961  11.499
52563W        W16331  15.784  27.157  10.546
52564W        W16332   3.358  31.144   0.835
52565W        W16333  32.504  40.463  13.419
52566W        W16334  31.621  22.545  13.870
52567W        W16335  24.703  21.742   2.247
52568W        W16336  19.231  14.663   4.193
52569W        W16337  13.759  23.669   1.878
52570W        W16338   0.336   4.413  11.479
52571W        W16339  36.426  36.096   4.254
52572W        W16340  14.195  10.844   1.835
52573W        W16341  23.624  13.609   2.825
52574W        W16342  32.111  27.525  10.593
52575W        W16343  41.839  40.950  13.519
52576W        W16344  17.684  36.022  10.967
52577W        W16345   7.901   7.828  12.065
52578W        W16346  27.051  30.937  13.940
52579W        W16347   5.705   1.790  14.504
52580W        W16348  43.507  21.038   0.423
52581W        W16349  19.733   8.279   1.434
52582W        W16350  22.174  42.987  11.568
52583W        W16351  24.591  11.278   4.618
52584W        W16352  26.663  20.647  10.410
52585W        W16353  15.676  40.469  11.052
52586W        W16354   5.831  44.875  11.931
52587W        W16355   6.417  20.575  14.302
52588W        W16356  19.115   5.895  11.420
52589W        W16357  30.134  17.697  10.419
52590W        W16358  19.714  26.022   2.402
52591W        W16359  32.042  31.119   3.157
52592W        W16360  28.995  32.111   1.779
52593W        W16361  37.886   7.672   2.699
52594W        W16362  30.654  13.267  14.332
52595W        W16363   3.719  43.917   0.903
52596W        W16364  23.493  44.505   4.289
52597W        W16365   1.257  25.033   0.728
52598W        W16366  44.326  35.982   3.761
52599W        W16367  13.717  44.308  10.409
52600W        W16368  35.061  15.813   4.287
52601W        W16369  21.725   9.349  11.968
52602W        W16370  18.202  38.543  12.515
52603W        W16371  13.782   5.731   3.286
52604W        W16372  21.138  42.947   1.315
52605W        W16373  24.578  20.612   2.692
52606W        W16374  23.159  29.149   4.139
52607W        W16375  44.842  40.453  12.404
52608W        W16376  37.843  40.541  14.429
52609W        W16377  36.088  26.544  10.902
52610W        W16378  43.451  33.891   2.313
52611W        W16379  20.177  10.336  11.937
52612W        W16380  40.375  29.954  11.416
52613W        W16381  19.042   8.772  13.407
52614W        W16382  25.486  40.303   4.607
52615W        W16383  15.251   5.292  12.502
52616W        W16384  28.006   0.902   2.189
52617W        W16385  35.018  21.687   0.289
52618W        W16386   1.856   5.391  13.530
52619W        W16387   2.346  10.293  13.353
52620W        W16388  12.290  30.928  12.899
52621W        W16389  19.561  31.462   0.807
52622W        W16390  44.834  42.341  10.906
52623W        W16391   1.887  29.925  13.913
52624W        W16392   6.370  26.056  10.909
52625W        W16393  20.029   5.258   1.365
52626W        W16394   3.781  26.036   2.817
52627W        W16395   4.242  20.214  12.083
52628W        W16396   9.208  22.239  14.474
52629W        W16397   1.323  13.127   3.268
52630W        W16398   9.724  42.525   0.814
52631W        W16399  15.312   2.255   3.688
52632W        W16400  35.456  24.149   2.257
52633W        W16401  16.096   7.283   4.173
52634W        W16402  41.898  27.965  10.631
52635W        W16403  25.517  37.468   4.650
52636W        W16404  44.389  20.217   0.466
52637W        W16405  27.522  22.568  13.547
52638W        W16406  10.856  43.498  13.814
52639W        W16407  41.337  39.827  12.543
52640W        W16408  43.459   2.859   4.138
52641W        W16409  34.577  29.507  13.956
52642W        W16410  28.556  28.552  11.871
52643W        W16411  20.617  18.687  12.448
52644W        W16412  11.293  23.647  11.974
52645W        W16413  16.149  35.065  14.870
52646W        W16414  33.440  40.406  13.891
52647W        W16415  13.756  41.878   4.143
52648W        W16416  35.594   8.713   0.928
52649W        W16417  38.000  25.552   0.749
52650W        W16418  10.282  33.024   4.674
52651W        W16419  30.018  41.812  14.303
52652W        W16420  36.573  41.960   2.245
52653W        W16421  21.737  13.709  12.888
52654W        W16422  14.179  33.525  13.522
52655W        W16423  40.409  25.161  12.938
52656W        W16424  31.537  40.930  10.952
52657W        W16425  32.532  16.211  12.527
52658W        W16426   1.800  43.306   2.880
52659W        W16427  32.989  32.975   1.721
52660W        W16428  26.956  10.664   3.221
52661W        W16429  28.558  27.966  14.405
52662W        W16430  28.105  37.057   2.235
52663W        W16431  35.427  11.662   4.301
52664W        W16432  13.706  14.213   3.707
52665W        W16433   0.467  35.549   4.236
52666W        W16434  12.260   0.353  12.980
52667W        W16435  44.501  41.349  13.527
52668W        W16436  14.826  44.280   1.717
52669W        W16437  44.834  24.491   3.709
52670W        W16438  37.501  10.772   1.929
52671W        W16439  38.461   4.371  10.900
52672W        W16440   8.253  37.872  12.357
52673W        W16441  44.775  36.851  13.950
52674W        W16442   9.395   2.748  10.436
52675W        W16443  27.980  10.847  13.404
52676W        W16444  44.493  23.146   4.745
52677W        W16445  38.435  39.503  13.924
52678W        W16446  39.451  18.676  14.905
52679W        W16447  30.009  37.926  14.953
52680W        W16448  41.537  17.178   0.739
52681W        W16449  41.508  12.617   0.794
52682W        W16450   5.792  12.694  13.513
52683W        W16451  24.201  39.351   0.270
52684W        W16452  20.762   2.324   4.809
52685W        W16453  28.642  38.424  10.939
52686W        W16454  23.139   6.842   2.256
52687W        W16455  16.770  35.097  12.056
52688W        W16456  36.521  35.996   1.935
52689W        W16457  43.827  38.916   4.738
52690W        W16458  29.589  40.502  10.428
52691W        W16459  37.554  15.583  14.490
52692W        W16460   0.304  33.124  10.497
52693W        W16461  44.484  10.173   1.217
52694W        W16462  20.714  27.665   3.281
52695W        W16463   2.745  15.266   4.834
52696W        W16464  15.784  12.145   3.298
52697W        W16465  25.144  11.867  10.418
52698W        W16466   9.868  26.175  12.081
52699W        W16467  11.646  37.925   3.775
52700W        W16468  30.571  32.996  14.376
52701W        W16469  11.134  25.522   0.371
52702W        W16470  19.243  13.604   0.865
52703W        W16471  13.211  11.275   2.373
52704W        W16472  30.463  14.682  13.382
52705W        W16473  19.284  10.803   4.250
52706W        W16474   1.745  33.573  10.559
52707W        W16475  40.043  10.250   4.815
52708W        W16476  36.041   0.388  13.890
52709W        W16477  40.005  43.964  11.467
52710W        W16478  35.546  15.202   0.748
52711W        W16479   2.345   2.890  12.983
52712W        W16480  43.937  37.952  11.055
52713W        W16481  36.347   9.378  12.347
52714W        W16482  14.831   5.302   1.437
52715W        W16483  36.487  19.144  13.822
52716W        W16484  39.870  27.683   1.381
52717W        W16485  33.620  38.494   4.783
52718W        W16486   7.343  31.512  14.983
52719W        W16487   2.469  10.877  10.899
52720W        W16488  33.108   8.349  10.416
52721W        W16489  11.855   8.177   0.277
52722W        W16490  23.694   5.797  14.962
52723W        W16491   4.378  41.366   4.813
52724W        W16492   6.852  43.341  11.463
52725W        W16493   5.360   0.456   2.321
52726W        W16494  39.825   0.396  13.487
52727W        W16495  25.203  28.476   0.483
52728W        W16496   5.875  36.081   1.702
52729W        W16497  12.215  16.309  14.346
52730W        W16498  19.075  10.847   0.458
52731W        W16499  36.590   4.381   2.205
52732W        W16500  17.182  30.459   0.816
52733W        W16501   6.789  30.619  11.544
52734W        W16502  20.555  12.231   0.449
52735W        W16503  24.058  40.459  14.829
52736W        W16504   3.311  37.364  12.022
52737W        W16505  44.968  26.631   1.394
52738W        W16506  43.858  14.122  11.403
52739W        W16507  25.607  21.711   3.291
52740W        W16508  27.460  17.127  12.025
52741W        W16509  32.002  37.340   2.327
52742W        W16510  37.950   1.870   0.268
52743W        W16511  18.600  18.689  13.369
52744W        W16512  29.018  24.590   0.796
52745W        W16513  28.976  44.344   0.939
52746W        W16514  25.671  37.011   4.339
52747W        W16515  30.549   2.426   1.840
52748W        W16516  25.610  21.217  11.537
52749W        W16517  23.502  29.497   4.778
52750W        W16518  34.556  41.531   2.890
52751W        W16519  40.008   4.777  12.453
52752W        W16520  19.175  16.599  11.446
52753W        W16521   2.944  23.551   0.381
52754W        W16522  16.287   7.362   1.741
52755W        W16523   6.239  14.744  14.998
52756W        W16524  13.137  28.470  12.553
52757W        W16525  43.447  14.808   4.668
52758W        W16526   3.355  26.473   2.416
52759W        W16527  40.018  10.176  13.005
52760W        W16528  23.736  41.925  11.109
52761W        W16529  19.561  31.408   2.817
52762W        W16530   7.278  18.667   3.636
52763W        W16531  39.970  41.978   0.463
52764W        W16532  20.166  44.498  13.918
52765W        W16533  35.374   0.950   0.935
52766W        W16534  34.072  21.633   2.682
52767W        W16535  43.377  29.626   1.701
52768W        W16536  21.180  34.581   9.982
52769W        W16537  32.589  44.493   2.754
52770W        W16538  37.556  39.471  14.283
52771W        W16539  43.346  14.600   3.307
52772W        W16540   8.666  11.162   5.108
52773W        W16541  27.514  13.824  13.958
52774W        W16542  43.844  10.864  10.913
52775W        W16543  12.144  41.533   2.358
52776W        W16544  19.690  13.170   1.867
52777W        W16545   8.696   1.747  12.029
52778W        W16546  18.125   8.669   0.753
52779W        W16547   7.358   0.885  14.296
52780W        W16548  16.215  33.437  10.149
52781W        W16549   2.748   1.732  14.959
52782W        W16550  20.562  31.901  10.086
52783W        W16551  40.895  27.528  14.514
52784W        W16552  36.896  26.007   4.668
52785W        W16553  27.680  22.196   3.683
52786W        W16554  33.975  17.677   4.174
52787W        W16555  24.673  14.692  13.453
52788W        W16556   6.686  34.927  13.933
52789W        W16557  31.509  38.901   3.256
52790W        W16558  19.081  26.141  11.910
52791W        W16559  18.754  34.469   1.274
52792W        W16560  14.278  44.986   1.367
52793W        W16561  40.373  38.452  14.426
52794W        W16562  12.784  41.806   3.775
52795W        W16563  29.433  44.004   0.820
52796W        W16564   6.810  18.721  14.767
52797W        W16565  30.966   7.333   4.159
52798W        W16566  37.963  39.023  12.823
52799W        W16567  41.350  11.163   1.888
52800W        W16568  20.701  33.419   1.344
52801W        W16569   9.888  19.544   4.740
52802W        W16570  29.506  24.706  12.557
52803W        W16571   0.420   3.838  14.913
52804W        W16572   1.310  10.149  13.548
52805W        W16573  38.377  16.681  11.539
52806W        W16574  35.911  12.643  14.787
52807W        W16575   8.736  24.589   2.884
52808W        W16576   5.900  30.146  13.852
52809W        W16577   8.696  19.235   4.270
52810W        W16578  17.685   4.896  13.803
52811W        W16579  23.219   2.741  14.486
52812W        W16580  12.138  37.875   4.817
52813W        W16581   2.789  37.949   3.163
52814W        W16582  34.464   1.972   0.389
52815W        W16583  34.118  29.136   2.385
52816W        W16584   8.188  17.183   2.840
52817W        W16585  24.093  10.827  12.974
52818W        W16586  22.157  15.084  12.447
52819W        W16587  21.705  13.286   3.641
52820W        W16588   0.816  30.476  12.371
52821W        W16589   0.838  22.517  11.473
52822W        W16590  43.337  41.033  11.005
52823W        W16591   1.239  22.161   1.842
52824W        W16592   6.820  31.483  13.968
52825W        W16593  15.251  37.033  11.874
52826W        W16594  33.382  44.437   5.107
52827W        W16595   1.476   2.740   4.802
52828W        W16596  42.510   6.797   0.359
52829W        W16597  43.365  12.306   1.327
52830W        W16598  35.894  26.482   5.177
52831W        W16599  17.298  23.691  12.059
52832W        W16600  19.625  22.704  12.848
52833W        W16601  15.654  19.567  11.864
52834W        W16602  16.793  21.560  11.383
52835W        W16603  24.652  19.280  12.909
52836W        W16604  17.099  43.895  10.415
52837W        W16605  12.283  40.029  13.982
52838W        W16606  26.538  43.943  13.008
52839W        W16607  21.078   4.723  12.839
52840W        W16608  28.099   4.775   3.704
52841W        W16609  11.188  30.924  14.869
52842W        W16610   1.303   6.873   1.365
52843W        W16611   5.224  26.036   4.181
52844W        W16612  27.615  29.097   0.786
52845W        W16613  37.903   8.352   0.448
52846W        W16614  26.653  42.921  13.331
52847W        W16615  29.483  11.695  12.944
52848W        W16616  12.173  29.467  14.503
52849W        W16617  39.488  28.483   4.284
52850W        W16618   5.317   3.409   0.266
52851W        W16619  19.741  43.323   0.290
52852W        W16620   4.768  25.104   4.754
52853W        W16621  19.213  31.929   2.863
52854W        W16622  26.522  31.451   0.255
52855W        W16623  10.710   8.763   4.655
52856W        W16624  18.238  25.009  11.999
52857W        W16625  35.065  22.681  13.365
52858W        W16626  44.388   4.751   0.799
52859W        W16627  34.606  10.797  13.449
52860W        W16628  13.720   8.751   4.265
52861W        W16629  36.476  38.376   1.268
52862W        W16630   3.285  30.639   4.787
52863W        W16631   2.314  24.143   5.214
52864W        W16632  34.415  12.694  13.040
52865W        W16633  21.065   4.881  10.570
52866W        W16634  43.965   8.184  14.372
52867W        W16635  36.874  21.740   4.282
52868W        W16636   1.342  28.962  13.957
52869W        W16637  28.948  20.160  12.033
52870W        W16638  12.287  36.937  13.810
52871W        W16639  14.663  37.341  12.344
52872W        W16640  34.437  11.841  14.834
52873W        W16641  42.979  28.943  12.017
52874W        W16642   0.251  23.568  12.368
52875W        W16643  24.057   7.747   3.381
52876W        W16644  18.082  22.578  14.929
52877W        W16645  43.853  40.033   0.302
52878W        W16646  27.121  30.041   1.322
52879W        W16647   5.757  28.175   1.293
52880W        W16648  38.484  33.097   2.794
52881W        W16649  44.847  33.429   1.855
52882W        W16650  26.991  21.099   0.945
52883W        W16651  12.667   8.887   0.744
52884W        W16652  10.850  16.112   4.632
52885W        W16653  13.257  16.127  11.024
52886W        W16654  41.403  42.970   4.195
52887W        W16655  36.909  14.691   3.643
52888W        W16656  17.746  32.610  14.372
52889W        W16657  42.779  20.062   2.295
52890W        W16658  12.661  18.679  11.426
52891W        W16659  15.700   2.734  14.332
52892W        W16660  41.342  41.024   1.868
52893W        W16661  31.049  34.435   3.321
52894W        W16662  34.603  21.137  12.882
52895W        W16663   3.255   0.748   1.731
52896W        W16664   4.873  25.022  11.976
52897W        W16665   5.782  12.763  12.993
52898W        W16666  41.802  40.518   2.225
52899W        W16667  23.124   1.775   3.804
52900W        W16668   4.877  35.554   5.213
52901W        W16669  43.977  39.332   0.729
52902W        W16670  29.049  11.350  10.506
52903W        W16671  29.025  35.537  11.986
52904W        W16672  14.794  38.377   3.699
52905W        W16673  27.573   7.327   4.351
52906W        W16674  41.322   8.273   0.331
52907W        W16675   7.201  44.872   1.309
52908W        W16676  26.535  40.473   3.178
52909W        W16677   0.489  28.079  13.440
52910W        W16678   0.374   5.227  10.889
52911W        W16679  13.786   4.709   1.731
52912W        W16680  20.697  26.535   1.762
52913W        W16681  44.289  15.248  13.971
52914W        W16682  36.565  42.321   4.667
52915W        W16683  18.257  40.798  14.338
52916W        W16684  17.600  20.158   4.322
52917W        W16685  42.837   8.663  10.933
52918W        W16686   3.746  21.599   2.888
52919W        W16687   2.838  40.439   0.364
52920W        W16688  20.133  31.937  11.495
52921W        W16689   2.325   8.776  14.859
52922W        W16690  35.883  19.732   2.293
52923W        W16691  34.473  14.326   3.677
52924W        W16692  37.925  26.973  10.615
52925W        W16693  18.591  35.508   3.356
52926W        W16694  11.639   8.178   2.240
52927W        W16695  15.647  23.232   3.706
52928W        W16696  18.776  27.080  11.032
52929W        W16697  42.454  16.280  14.473
52930W        W16698   8.406  35.516   1.362
52931W        W16699  38.910  17.698  12.515
52932W        W16700  28.580  42.501   4.244
52933W        W16701  35.551   6.806   3.368
52934W        W16702  31.555  39.375  11.603
52935W        W16703  24.106  12.719  14.985
52936W        W16704  26.530   5.272   1.391
52937W        W16705   9.685  44.767  14.767
52938W        W16706  40.519  11.865   1.730
52939W        W16707   3.267  18.243   4.611
52940W        W16708  25.529   4.711   0.342
52941W        W16709  39.386  38.484  11.437
52942W        W16710   0.952   4.442  13.407
52943W        W16711  25.631  14.746   4.276
52944W        W16712  40.950  34.085   2.294
52945W        W16713  38.974   6.392   3.364
52946W        W16714   6.375   3.281   3.653
52947W        W16715  43.926  36.922   1.260
52948W        W16716  36.052  17.801   3.377
52949W        W16717  11.749  42.853   1.268
52950W        W16718  38.416  43.815  12.041
52951W        W16719  36.370   2.369  13.394
52952W        W16720  37.388  12.623   4.319
52953W        W16721  13.324   9.873  11.980
52954W        W16722  26.984  36.853  12.460
52955W        W16723   1.959  25.165   3.241
52956W        W16724  28.182   8.724   1.255
52957W        W16725  42.501  36.085   1.345
52958W        W16726  41.315  23.676   3.296
52959W        W16727  16.155  35.358  13.544
52960W        W16728  29.990  20.203   1.820
52961W        W16729  21.535   3.837   3.666
52962W        W16730   0.922  14.226   2.316
52963W        W16731   5.418  26.652  13.983
52964W        W16732  38.434  15.752   2.895
52965W        W16733  26.481  21.524  13.366
52966W        W16734  43.469  24.109   3.630
52967W        W16735   9.251  10.763   4.601
52968W        W16736  30.655  29.027   4.272
52969W        W16737  11.709  12.850  13.419
52970W        W16738  21.593  25.052  11.875
52971W        W16739  39.853  17.141   4.131
52972W        W16740  35.974  32.462   0.455
52973W        W16741   1.329  32.009   0.444
52974W        W16742  40.044   2.733  12.849
52975W        W16743   9.841  24.084  11.111
52976W        W16744  14.312   1.374   4.336
52977W        W16745  31.945  25.600   1.448
52978W        W16746  30.973   0.443  13.028
52979W        W16747  15.689  13.229   4.766
52980W        W16748  16.310  38.840  10.081
52981W        W16749  31.086  19.679  13.043
52982W        W16750  40.455  13.207  10.904
52983W        W16751  22.070  14.243   4.225
52984W        W16752  13.715  35.865   3.294
52985W        W16753  21.714  43.314   4.240
52986W        W16754  39.947  27.465  11.075
52987W        W16755  21.590  36.079   0.808
52988W        W16756  14.624  33.080   2.877
52989W        W16757  18.657  41.967   0.813
52990W        W16758  32.508   3.243  14.456
52991W        W16759  36.521  43.860  11.510
52992W        W16760  22.199  34.939  10.982
52993W        W16761   1.358  19.632   5.185
52994W        W16762  44.972  41.464   3.677
52995W        W16763  28.091  10.861   0.946
52996W        W16764   0.387   2.725  13.355
52997W        W16765  24.098  11.295   9.941
52998W        W16766  30.561   7.757   4.644
52999W        W16767  16.647  22.049  11.489
53000W        W16768  17.138  36.976   2.835
53001W        W16769   4.399   5.847  13.447
53002W        W16770  43.313  33.070  14.482
53003W        W16771  12.351   2.913   0.385
53004W        W16772   7.712   9.337  11.083
53005W        W16773   1.471  23.066  10.541
53006W        W16774  33.959   9.303   3.751
53007W        W16775  18.253  32.637  11.548
53008W        W16776   9.350  21.624   1.762
53009W        W16777  27.590  28.133  10.492
53010W        W16778  29.079  23.139   0.312
53011W        W16779  30.002  36.908  11.024
53012W        W16780  19.233  24.126  13.351
53013W        W16781   8.786   2.872  14.304
53014W        W16782  32.554  29.507  12.915
53015W        W16783  19.664  13.686  12.879
53016W        W16784  38.480  37.028   4.144
53017W        W16785   8.292  20.062   1.435
53018W        W16786  20.715  38.370   2.256
53019W        W16787  21.227   9.807   1.225
53020W        W16788  40.922  26.192  11.882
53021W        W16789  18.744  30.432   1.256
53022W        W16790  27.469   2.433  11.016
53023W        W16791  11.280  25.137   3.181
53024W        W16792  31.086   9.728  14.976
53025W        W16793  16.264  15.138   4.619
53026W        W16794  33.392   3.327   4.706
53027W        W16795   6.195   4.862  11.900
53028W        W16796  31.581  19.093  10.626
53029W        W16797  31.962  26.619  13.014
53030W        W16798  39.999  16.694   3.318
53031W        W16799  24.540  22.161   1.845
53032W        W16800  28.158  27.119   3.304
53033W        W16801  13.176  23.563  11.431
53034W        W16802  33.130   7.724   0.427
53035W        W16803  12.212  10.334  12.490
53036W        W16804  36.476  42.414   0.863
53037W        W16805  32.928  39.891  13.011
53038W        W16806  29.536  33.121   4.615
53039W        W16807  44.990  28.983   4.282
53040W        W16808  34.586  39.940   0.874
53041W        W16809  19.216  13.796  12.482
53042W        W16810   4.303  33.924  11.128
53043W        W16811  18.712  20.763  12.578
53044W        W16812  19.148  26.540   0.445
53045W        W16813   4.449  21.722  12.534
53046W        W16814  31.495  17.149  13.315
53047W        W16815  44.977   0.791   0.887
53048W        W16816  39.963   3.371  14.775
53049W        W16817  12.613  20.668   1.278
53050W        W16818  20.570  43.829  14.515
53051W        W16819  42.919  19.265  10.586
53052W        W16820  34.374   8.784  12.979
53053W        W16821  23.138  23.118   3.668
53054W        W16822  20.719  24.026   1.879
53055W        W16823  38.483  18.118   0.335
53056W        W16824  39.401  43.770  14.951
53057W        W16825  40.054  16.300   3.329
53058W        W16826  19.207  20.179   0.377
53059W        W16827  22.101  33.955  13.537
53060W        W16828   7.764   3.215  12.909
53061W        W16829  29.437  40.003  11.051
53062W        W16830  44.911  44.489   4.204
53063W        W16831   8.340  39.841  13.937
53064W        W16832   2.352  23.158   2.243
53065W        W16833   3.718   8.199  10.431
53066W        W16834  27.681  38.371   2.368
53067W        W16835  25.006  25.673  11.433
53068W        W16836  42.012   5.363   4.625
53069W        W16837  32.582  16.785   0.841
53070W        W16838  33.474  18.159  11.592
53071W        W16839   0.378  33.072   4.646
53072W        W16840  34.114  26.572  11.968
53073W        W16841  39.377  34.494   1.253
53074W        W16842  34.584  43.010   0.451
53075W        W16843  31.980  13.831  12.002
53076W        W16844   9.348  19.169   3.668
53077W        W16845   7.385  19.161  12.874
53078W        W16846   3.451  12.280  13.012
53079W        W16847   4.216  12.710   4.737
53080W        W16848  23.495   4.208   2.348
53081W        W16849   7.356  38.454   4.744
53082W        W16850  13.234   5.897  14.852
53083W        W16851  24.500  41.396  13.456
53084W        W16852  36.900  38.858   0.796
53085W        W16853  43.016  37.992  11.879
53086W        W16854   0.770   4.933   1.709
53087W        W16855  18.205  14.216   4.288
53088W        W16856  44.425  24.063   3.384
53089W        W16857  14.764  12.235  11.485
53090W        W16858  19.749  11.147  10.570
53091W        W16859  37.355  32.496  11.970
53092W        W16860  41.535  37.471  14.471
53093W        W16861  33.394   4.233  10.592
53094W        W16862   7.414  23.491   4.200
53095W        W16863  40.357  11.790   5.256
53096W        W16864   9.160   9.193   0.769
53097W        W16865  27.493  44.813   4.610
53098W        W16866  15.623  24.694   1.310
53099W        W16867  21.677  44.428   2.309
53100W        W16868  11.800  23.229  11.964
53101W        W16869   1.812   9.884  10.615
53102W        W16870  25.563   6.237   1.265
53103W        W16871  31.930   8.217   1.379
53104W        W16872  40.307  16.691   0.955
53105W        W16873   9.814  43.870   2.830
53106W        W16874  39.018  31.987  14.863
53107W        W16875  44.492  24.602  10.986
53108W        W16876  42.791   0.352  14.279
53109W        W16877  34.395  31.468   4.277
53110W        W16878  20.656  29.027  11.893
53111W        W16879   9.813  29.658  11.024
53112W        W16880  31.549  19.095  11.385
53113W        W16881  33.506  23.003   1.925
53114W        W16882  11.663  42.884   3.693
53115W        W16883   9.189  12.726  10.949
53116W        W16884  11.733  14.310   1.766
53117W        W16885  17.197  20.535  11.939
53118W        W16886  25.597  34.000  12.459
53119W        W16887  14.607  39.049   5.250
53120W        W16888  37.015  24.089  12.935
53121W        W16889  15.204  23.520  14.926
53122W        W16890  23.208  30.497  10.959
53123W        W16891  37.429  10.269   4.676
53124W        W16892  23.241  10.270   4.175
53125W        W16893  29.507  17.677  12.576
53126W        W16894   6.410  20.173  14.879
53127W        W16895   8.266  39.484  10.620
53128W        W16896   0.848  24.519   2.765
53129W        W16897  36.592  37.511   4.601
53130W        W16898   1.449  30.070  13.355
53131W        W16899  28.601  21.026   0.302
53132W        W16900   2.777   0.786   0.892
53133W        W16901   1.289   6.250   1.236
53134W        W16902   6.676  23.102   3.366
53135W        W16903  19.092  20.240  11.126
53136W        W16904  41.307  23.034   1.323
53137W        W16905  26.624   2.337   1.892
53138W        W16906  13.759   1.356  13.327
53139W        W16907  18.105  43.343  14.995
53140W        W16908  30.101   7.868  14.281
53141W        W16909  27.692  10.652   2.197
53142W        W16910  33.926  21.100   1.307
53143W        W16911  34.006   3.852  13.795
53144W        W16912  19.126  17.273  12.020
53145W        W16913  39.327   6.731  14.807
53146W        W16914  44.000  30.603  12.066
53147W        W16915  21.249  34.982  11.858
53148W        W16916  29.995   1.825  12.033
53149W        W16917  34.105  35.999  12.539
53150W        W16918  39.442  40.493  13.968
53151W        W16919  33.492   0.447   2.237
53152W        W16920  40.882  39.924  14.372
53153W        W16921  19.224  39.979  12.431
53154W        W16922  25.544   3.842   2.365
53155W        W16923  18.723   7.688  10.942
53156W        W16924  31.106  29.663  12.509
53157W        W16925  19.096   4.222   3.662
53158W        W16926  17.715  24.157  12.933
53159W        W16927  34.457  43.855   1.773
53160W        W16928  40.001   0.421  12.400
53161W        W16929   4.762   3.370  13.310
53162W        W16930  44.472   4.224   0.449
53163W        W16931  38.062  26.680  10.023
53164W        W16932  12.135  30.594  12.371
53165W        W16933  39.846  12.747   2.234
53166W        W16934  33.922  14.195   1.821
53167W        W16935  30.581  24.626   0.929
53168W        W16936  26.966   8.852  12.556
53169W        W16937  25.095  20.724  13.891
53170W        W16938  13.604  19.578   2.769
53171W        W16939  32.049  36.920   4.667
53172W        W16940  27.024  43.837   2.834
53173W        W16941   8.780  38.884  10.919
53174W        W16942   3.771  27.069  13.374
53175W        W16943  34.480   1.899   2.886
53176W        W16944   5.429  44.997   2.815
53177W        W16945  39.401  28.453   9.924
53178W        W16946  44.375  24.711  13.863
53179W        W16947   0.848  31.130   0.465
53180W        W16948  35.362  41.812   1.745
53181W        W16949  26.199   8.833   0.948
53182W        W16950  18.706   4.368   0.466
53183W        W16951  32.398  40.525   2.662
53184W        W16952   3.286  15.131   2.291
53185W        W16953   8.364  17.169  11.974
53186W        W16954  26.107  41.492   2.281
53187W        W16955  22.634   1.835   3.778
53188W        W16956  35.518  23.570  10.499
53189W        W16957  34.979   5.763  10.460
53190W        W16958  31.957  26.469  14.931
53191W        W16959  42.022   0.923   5.155
53192W        W16960  21.258  13.269   1.798
53193W        W16961   8.847  24.054  10.929
53194W        W16962   4.406  21.687   2.789
53195W        W16963  22.046  28.170  12.829
53196W        W16964  18.733  43.006   1.354
53197W        W16965  24.499   7.206  13.903
53198W        W16966  13.245  23.039  13.941
53199W        W16967  26.026  35.858   5.667
53200W        W16968   6.691  24.562   1.241
53201W        W16969  19.681  39.549  12.500
53202W        W16970   7.346  27.147  10.965
53203W        W16971  13.676  24.578  11.448
53204W        W16972   0.874  44.425   5.198
53205W        W16973  33.389  17.707   2.880
53206W        W16974  44.782  14.103  14.793
53207W        W16975   7.749  34.385   3.285
53208W        W16976  33.522  26.966  13.518
53209W        W16977  42.316   5.861  11.554
53210W        W16978  39.993   9.379   2.848
53211W        W16979  20.682  31.117   3.191
53212W        W16980  18.216   1.370  14.803
53213W        W16981  28.028   9.337   1.415
53214W        W16982  26.576   0.394   0.342
53215W        W16983   2.264  37.916   3.731
53216W        W16984  43.338  29.016   5.174
53217W        W16985  16.647  20.677   2.412
53218W        W16986  16.651   4.208   1.426
53219W        W16987   2.407  28.577  14.438
53220W        W16988  42.311  31.491  11.547
53221W        W16989  38.383  15.755  13.357
53222W        W16990  17.253   6.709  12.455
53223W        W16991  25.516   2.798  11.548
53224W        W16992  26.173  33.092   1.772
53225W        W16993   9.741   7.313  10.550
53226W        W16994  29.559  42.434  12.393
53227W        W16995  10.858  31.421  11.993
53228W        W16996  37.981  20.140  12.825
53229W        W16997   3.412  27.966   3.321
53230W        W16998  15.136  15.720  10.519
53231W        W16999  34.451  40.318   0.807
53232W        W17000  44.783  28.540  10.957
53233W        W17001   7.756   1.751   3.376
53234W        W17002  20.714  27.487   2.835
53235W        W17003  15.157  11.280  11.990
53236W        W17004  19.639   1.300  12.020
53237W        W17005  11.697  12.236  10.917
53238W        W17006   1.761  28.074   1.438
53239W        W17007  27.969   4.393  12.049
53240W        W17008  43.456  29.099  11.578
53241W        W17009   4.794   7.769  14.349
53242W        W17010  37.839   9.367   4.639
53243W        W17011  21.580   1.747   3.190
53244W        W17012  27.036  31.008  12.375
53245W        W17013  42.474  16.628  12.496
53246W        W17014  33.582  44.804  11.079
53247W        W17015  12.351  20.234  14.410
53248W        W17016  10.699   5.278  13.870
53249W        W17017   4.837  15.179  12.529
53250W        W17018  40.417  27.583  12.951
53251W        W17019  19.255  26.598   9.994
53252W        W17020  37.074  39.005   1.425
53253W        W17021  22.113  40.841  13.375
53254W        W17022  23.029  21.644   2.820
53255W        W17023  41.952  37.068  13.837
53256W        W17024  26.569  38.918  14.827
53257W        W17025  23.527  34.958  11.055
53258W        W17026   0.925  41.799  14.401
53259W        W17027   6.249  31.911  13.496
53260W        W17028  42.002  43.512  12.541
53261W        W17029  32.448  39.370   4.116
53262W        W17030   2.862  38.920   1.413
53263W        W17031  19.178   6.214   1.866
53264W        W17032  13.602  19.097   0.837
53265W        W17033  41.377  10.259   1.355
53266W        W17034  31.929   6.861   4.314
53267W        W17035  19.729  42.300  14.483
53268W        W17036   6.231  13.610  13.330
53269W        W17037  13.211   3.930   2.362
53270W        W17038  36.904  32.555   4.143
53271W        W17039  36.349   6.344   4.178
53272W        W17040  40.542  35.464   0.305
53273W        W17041   8.804  15.321   3.749
53274W        W17042   2.776   8.221   3.166
53275W        W17043  33.531  20.055   1.728
53276W        W17044  16.576  16.602   4.320
53277W        W17045  33.034   6.866  14.916
53278W        W17046  39.921  40.054   1.895
53279W        W17047  29.555  18.690   3.648
53280W        W17048  33.530  19.224   4.641
53281W        W17049   5.783  42.323  14.804
53282W        W17050  27.515  40.933  14.898
53283W        W17051  38.858  27.988  13.485
53284W        W17052  36.539   7.808   0.843
53285W        W17053   1.847  21.067   3.632
53286W        W17054  20.628  41.369  12.899
53287W        W17055  14.767  36.002   3.688
53288W        W17056   7.299  19.117   1.353
53289W        W17057   7.677  24.083   2.278
53290W        W17058  37.948  34.504   0.862
53291W        W17059  29.465  29.089   0.778
53292W        W17060  22.084  10.309  13.050
53293W        W17061  39.948   4.709   3.211
53294W        W17062  39.429  34.387   0.312
53295W        W17063  15.650  21.557   0.421
53296W        W17064  17.203  26.514   0.479
53297W        W17065  23.642  36.938  12.502
53298W        W17066  10.703  40.380   2.411
53299W        W17067  27.465  21.538   0.469
53300W        W17068  27.959  40.017  14.438
53301W        W17069  29.171  38.886   2.207
53302W        W17070  28.492  29.602   1.416
53303W        W17071  34.561   9.174   3.254
53304W        W17072  24.977  36.851  10.135
53305W        W17073  11.786  43.007  10.032
53306W        W17074   2.469  24.164   0.812
53307W        W17075  42.988  16.773  11.035
53308W        W17076  10.347  27.634   4.752
53309W        W17077  21.133  40.825  12.830
53310W        W17078  43.369  29.563  12.486
53311W        W17079  20.732  16.650  12.551
53312W        W17080   4.250  25.095  13.344
53313W        W17081  24.007  14.668  13.423
53314W        W17082  26.683   3.882  14.396
53315W        W17083  44.993  15.768   9.930
53316W        W17084  15.289   0.371  14.280
53317W        W17085  23.129  15.271  14.811
53318W        W17086  30.440   2.264   1.323
53319W        W17087  34.116  16.578   4.652
53320W        W17088  17.131  26.958   4.245
53321W        W17089  37.529  41.305   4.835
53322W        W17090   0.439   5.803  14.293
53323W        W17091  40.406   1.921  11.486
53324W        W17092  17.614  29.968   2.293
53325W        W17093  39.884  26.149  13.517
53326W        W17094   5.213  29.461   4.204
53327W        W17095   3.274  36.960   0.806
53328W        W17096   7.678   1.913  10.972
53329W        W17097   2.947  19.732  14.328
53330W        W17098  44.767  25.630   0.882
53331W        W17099  38.875  30.979   4.164
53332W        W17100  41.487  24.636  13.998
53333W        W17101  35.965  30.930  13.426
53334W        W17102   8.348  44.920  10.454
53335W        W17103  30.445  15.091  10.009
53336W        W17104  31.477   7.335  12.469
53337W        W17105  28.090  25.604  14.864
53338W        W17106  14.141  19.185   0.446
53339W        W17107   7.868  25.212  14.965
53340W        W17108   6.785  37.065  12.511
53341W        W17109  28.501  30.654   3.682
53342W        W17110  41.331   3.257   5.189
53343W        W17111  21.712   5.372   2.717
53344W        W17112  34.395  20.710  13.368
53345W        W17113  36.509  29.501  12.521
53346W        W17114  44.432  41.850  13.335
53347W        W17115  43.353  25.572   1.330
53348W        W17116  31.048  26.562   2.665
53349W        W17117   7.385   8.740   3.775
53350W        W17118  13.134  27.483  13.809
53351W        W17119  43.950   0.965   0.858
53352W        W17120  34.031  26.182  11.056
53353W        W17121  26.045  28.125  12.842
53354W        W17122  24.109  31.909   1.912
53355W        W17123  13.177  21.254   4.679
53356W        W17124  16.801  19.753   3.662
53357W        W17125  21.194  44.756  11.982
53358W        W17126   2.760  15.782  12.487
53359W        W17127   6.682  35.869   1.429
53360W        W17128  30.913  33.397  13.512
53361W        W17129  24.053   7.179   2.707
53362W        W17130  28.043  22.555  12.446
53363W        W17131  44.408  19.284  12.914
53364W        W17132  42.970  17.632  12.470
53365W        W17133   5.242  12.310  13.934
53366W        W17134  27.977  35.036   9.607
53367W        W17135  12.719  21.690  11.375
53368W        W17136  40.929  35.919  12.448
53369W        W17137  43.826  13.129   1.250
53370W        W17138  15.699   6.343  11.490
53371W        W17139   0.403  17.292   1.243
53372W        W17140  13.613  25.587  12.873
53373W        W17141   5.894  11.791   2.390
53374W        W17142  44.976  32.912  11.418
53375W        W17143   6.399  39.880   2.410
53376W        W17144   5.746  21.680  11.411
53377W        W17145  29.470  28.538   1.284
53378W        W17146  32.991  12.322   1.378
53379W        W17147  14.683  29.632   3.762
53380W        W17148  14.304  30.434   2.303
53381W        W17149  14.136  26.686  14.418
53382W        W17150   5.904  21.752   1.286
53383W        W17151   9.356  20.151  13.009
53384W        W17152  25.588   5.335   4.723
53385W        W17153  32.479  27.138   4.635
53386W        W17154   9.369  41.912  14.859
53387W        W17155  28.622  15.196  11.537
53388W        W17156  42.320  31.459  14.450
53389W        W17157  34.487  34.992  10.434
53390W        W17158   9.843   5.331   3.802
53391W        W17159  13.809  39.879   0.892
53392W        W17160   9.658  21.518  12.831
53393W        W17161   4.794  23.683   4.762
53394W        W17162  34.526  17.561  14.786
53395W        W17163  27.179  12.686  14.016
53396W        W17164   7.409  12.117  14.513
53397W        W17165  33.061   2.252  12.921
53398W        W17166  30.586  11.797  13.809
53399W        W17167   9.771  11.149  14.325
53400W        W17168   6.857  21.743   4.754
53401W        W17169  17.266  29.047   4.817
53402W        W17170  42.306  43.337   2.219
53403W        W17171  40.020  20.219   1.316
53404W        W17172  38.440  28.948  13.956
53405W        W17173   0.360  28.960   1.315
53406W        W17174  12.256  29.603   3.700
53407W        W17175   0.443   3.888   0.729
53408W        W17176  16.271   4.772  11.552
53409W        W17177  16.752  21.111  10.147
53410W        W17178   0.857  14.651  12.444
53411W        W17179   6.332  11.295   2.727
53412W        W17180  37.986  35.447   3.315
53413W        W17181  31.560  28.603   1.790
53414W        W17182   3.913  42.439   0.765
53415W        W17183  25.517  35.581   1.761
53416W        W17184  42.898  41.871  12.946
53417W        W17185  10.214  29.425   3.832
53418W        W17186  11.325  21.074   1.401
53419W        W17187  23.692  30.427  13.371
53420W        W17188  34.468  39.402   2.357
53421W        W17189  17.285  33.461  13.903
53422W        W17190  16.712  43.929   0.387
53423W        W17191  24.619  33.000   1.367
53424W        W17192  41.493  14.299   3.273
53425W        W17193   9.204   7.178   0.754
53426W        W17194  33.029  39.529   3.662
53427W        W17195  35.515  28.161   0.431
53428W        W17196  21.624  40.824   3.687
53429W        W17197  35.406  44.933  11.866
53430W        W17198   7.315  12.160  12.073
53431W        W17199  16.775  31.592  14.349
53432W        W17200  20.080   2.325   4.687
53433W        W17201  22.008  23.577   4.646
53434W        W17202   0.806  34.094  14.502
53435W        W17203  24.025   2.755  11.943
53436W        W17204  17.096  28.521  13.054
53437W        W17205  41.917   9.879  13.831
53438W        W17206  29.128   8.237   1.815
53439W        W17207  35.927  32.038  13.870
53440W        W17208  29.983  24.077  14.511
53441W        W17209  27.002  42.459   1.280
53442W        W17210  11.658  27.010  14.782
53443W        W17211  18.081   9.865   0.481
53444W        W17212   8.404  25.121  14.023
53445W        W17213  12.759  26.167  11.865
53446W        W17214  41.514  28.618  11.460
53447W        W17215  21.516  15.656  14.402
53448W        W17216  21.543   7.332   3.854
53449W        W17217   4.285  29.068  12.441
53450W        W17218  36.591  39.856  11.384
53451W        W17219  18.707   8.335   2.291
53452W        W17220  35.514  38.055  14.308
53453W        W17221  24.578  22.543  12.932
53454W        W17222   7.805   8.890  11.946
53455W        W17223  23.590  37.418  11.044
53456W        W17224  11.137  13.328  13.322
53457W        W17225  14.763  15.125   0.966
53458W        W17226  28.156  31.437   4.598
53459W        W17227   9.718  19.775   0.812
53460W        W17228   5.851  19.047   3.716
53461W        W17229  43.913  33.395  14.855
53462W        W17230   7.748  14.760  14.975
53463W        W17231  23.521  22.574  12.566
53464W        W17232  11.868  26.093   0.301
53465W        W17233   6.697  42.847   1.832
53466W        W17234  15.193  38.044   1.899
53467W        W17235  27.667  35.509   2.785
53468W        W17236   7.266  29.082  10.545
53469W        W17237   2.783   4.925  11.514
53470W        W17238  18.240  21.145  13.882
53471W        W17239  35.075  44.365  11.018
53472W        W17240  26.488  14.793   4.177
53473W        W17241  13.162   5.723   0.749
53474W        W17242  25.686  43.479   0.286
53475W        W17243  15.246  39.995   4.218
53476W        W17244  39.835   2.780   1.751
53477W        W17245  37.995   2.889   4.692
53478W        W17246  10.180   7.233  13.517
53479W        W17247  30.024  12.249   1.771
53480W        W17248  17.586  44.437  13.045
53481W        W17249   6.193  35.476  14.307
53482W        W17250  41.017  26.110   0.793
53483W        W17251  31.968  38.467  12.519
53484W        W17252   5.780  16.184  10.492
53485W        W17253  30.605  32.012   1.342
53486W        W17254  28.592  31.018  11.987
53487W        W17255  11.734  29.082  11.062
53488W        W17256  36.851  14.219   0.397
53489W        W17257  16.729  11.638   3.353
53490W        W17258  29.514  26.509   4.777
53491W        W17259   2.843  11.737   0.749
53492W        W17260  23.689  40.418   3.845
53493W        W17261  20.075   7.396  13.404
53494W        W17262  38.893  12.278   4.162
53495W        W17263  39.358  13.671  14.882
53496W        W17264  12.633  11.366   3.321
53497W        W17265  11.353  19.254  12.370
53498W        W17266  43.480  39.470  10.643
53499W        W17267  11.206  39.972  12.896
53500W        W17268  19.263   0.813   1.707
53501W        W17269  29.476  40.318   5.139
53502W        W17270   1.850  23.646  11.931
53503W        W17271  22.046  41.531  14.816
53504W        W17272   4.777  14.282  13.820
53505W        W17273   8.217  29.962   3.163
53506W        W17274  36.073   6.745  11.093
53507W        W17275  35.949  13.113   0.850
53508W        W17276  37.444  36.913  13.340
53509W        W17277  18.677  37.914  13.979
53510W        W17278   0.839  33.961  13.513
53511W        W17279  24.057  24.075   0.341
53512W        W17280   8.896   8.740  14.322
53513W        W17281  27.566   2.317   1.847
53514W        W17282  32.948  26.071   1.224
53515W        W17283   2.329   1.848  11.565
53516W        W17284  27.552  39.409   4.174
53517W        W17285  41.872  15.650   5.156
53518W        W17286  36.393   0.852  10.427
53519W        W17287  28.948  12.250   2.290
53520W        W17288  21.613   5.835  14.946
53521W        W17289  39.972  14.262   0.425
53522W        W17290  21.612  30.528   3.194
53523W        W17291  29.618   4.317   2.869
53524W        W17292  21.713  19.078   3.856
53525W        W17293  25.678  42.932  14.830
53526W        W17294  39.963  13.698  12.431
53527W        W17295  25.527  16.711   2.324
53528W        W17296   0.780   3.451   2.835
53529W        W17297   5.718  28.004  10.476
53530W        W17298  44.859  22.665  10.578
53531W        W17299  39.449  28.171   5.700
53532W        W17300  37.957  42.360   0.804
53533W        W17301  41.935   6.815   1.789
53534W        W17302   6.894   6.692  12.850
53535W        W17303  15.595  12.670  12.443
53536W        W17304  26.677  19.242   0.428
53537W        W17305  22.022  11.665  13.424
53538W        W17306   2.873   6.408   0.401
53539W        W17307  28.932  20.224   0.367
53540W        W17308   5.251  19.780   1.306
53541W        W17309  28.609  42.817  11.106
53542W        W17310  11.348   3.318  12.095
53543W        W17311  39.922   7.874  12.835
53544W        W17312   0.923  24.087  10.902
53545W        W17313  43.458   4.732  12.359
53546W        W17314   3.848  41.455   1.387
53547W        W17315  37.353  27.449   3.341
53548W        W17316  15.775  34.500  13.515
53549W        W17317  15.237  21.039   3.366
53550W        W17318  17.687  13.128   0.946
53551W        W17319   2.817  22.186   4.691
53552W        W17320  31.113  17.601   3.808
53553W        W17321   2.903  22.715  11.558
53554W        W17322  20.071   9.890   0.412
53555W        W17323  10.210   1.291  12.528
53556W        W17324  20.644  18.591   3.657
53557W        W17325  18.775  14.325  12.371
53558W        W17326  34.540  31.906   0.900
53559W        W17327  40.503  30.478  12.487
53560W        W17328  15.774   9.329   3.200
53561W        W17329  10.182  27.166   0.458
53562W        W17330  40.992  42.366  10.593
53563W        W17331  16.588  29.006   1.348
53564W        W17332  17.682  37.444  14.372
53565W        W17333  28.137  13.167   5.265
53566W        W17334  35.552  43.271  10.632
53567W        W17335  10.366  12.640   9.952
53568W        W17336  42.507   1.480   4.332
53569W        W17337   2.962  14.651  14.827
53570W        W17338  12.290  16.092  11.513
53571W        W17339  33.461  28.034   0.861
53572W        W17340  23.495  27.106   4.345
53573W        W17341  31.077  18.565   0.865
53574W        W17342   5.424  43.375  12.093
53575W        W17343  41.009  11.679  10.628
53576W        W17344  18.786  30.590   4.660
53577W        W17345   1.320  10.371  12.009
53578W        W17346   0.253  32.451  14.018
53579W        W17347  36.559  41.308   2.396
53580W        W17348  35.582  38.535   4.828
53581W        W17349  11.136  42.975  10.962
53582W        W17350  39.999   2.244   4.186
53583W        W17351  32.992   4.245  14.478
53584W        W17352  28.652   0.268  12.941
53585W        W17353  26.103   8.342  10.493
53586W        W17354  16.232  33.997  10.626
53587W        W17355  14.771  22.056   0.265
53588W        W17356  33.485  41.926  14.007
53589W        W17357  13.635  13.633  13.453
53590W        W17358  23.499  25.148  10.521
53591W        W17359   6.850  31.609   3.321
53592W        W17360  32.026  30.612   3.851
53593W        W17361  22.124  15.681  10.638
53594W        W17362  37.864  20.747  12.479
53595W        W17363  28.035  16.127   4.787
53596W        W17364  28.997  44.790  11.061
53597W        W17365  34.988  15.137  12.009
53598W        W17366   2.298  30.111  11.495
53599W        W17367  29.002  36.387   1.219
53600W        W17368  23.692  44.006  12.066
53601W        W17369  24.055  19.069   2.712
53602W        W17370  41.818  12.194   4.644
53603W        W17371  43.857  29.997  10.573
53604W        W17372  15.151  23.032  10.599
53605W        W17373  43.329   6.215   2.351
53606W        W17374  24.059  44.477   2.773
53607W        W17375  15.805   4.820  10.932
53608W        W17376  20.100  38.512   1.771
53609W        W17377   1.864   0.988   2.363
53610W        W17378  17.280   1.969   4.202
53611W        W17379  22.527  20.189   0.824
53612W        W17380   8.789   1.393  11.945
53613W        W17381  22.121  10.672   1.883
53614W        W17382  43.798  19.117   1.364
53615W        W17383   5.341   0.832   4.659
53616W        W17384  16.806  35.993   2.853
53617W        W17385  32.917  16.150   5.599
53618W        W17386  15.631  20.031   1.823
53619W        W17387   6.834   5.855  11.535
53620W        W17388  38.991   4.220   0.863
53621W        W17389  28.934  31.925   2.675
53622W        W17390  30.997  38.019   3.764
53623W        W17391  23.065  27.522   0.452
53624W        W17392  29.430  38.937  14.016
53625W        W17393   7.792  10.294   1.931
53626W        W17394  43.423  33.979  11.544
53627W        W17395  16.764  41.888  14.448
53628W        W17396  24.168   2.319   1.775
53629W        W17397  15.667  25.600  13.427
53630W        W17398   8.670   0.780  11.880
53631W        W17399  20.592  32.045   0.920
53632W        W17400  29.040   3.260  10.497
53633W        W17401  33.453  40.326  14.413
53634W        W17402  23.235   1.384  12.394
53635W        W17403  24.513  29.015  10.986
53636W        W17404   8.738  29.135  10.461
53637W        W17405  27.459  25.610   1.441
53638W        W17406  26.176  35.913   2.767
53639W        W17407  39.454  43.846  11.986
53640W        W17408  29.622  33.385   5.304
53641W        W17409  19.766  16.600   0.799
53642W        W17410   7.678  42.287  14.304
53643W        W17411  12.769  39.042   2.732
53644W        W17412  21.091  18.721   4.644
53645W        W17413  43.511  31.127  14.307
53646W        W17414  37.996   5.923   4.317
53647W        W17415  17.133   5.285  10.404
53648W        W17416  10.742  16.278   2.293
53649W        W17417  39.932  15.582  13.476
53650W        W17418   1.451  13.125   1.733
53651W        W17419  20.262  44.803  12.580
53652W        W17420  39.858   5.237  13.500
53653W        W17421  31.968   0.490   0.295
53654W        W17422  18.176  34.430  11.610
53655W        W17423  36.474   1.948   1.864
53656W        W17424  23.673  36.583  10.032
53657W        W17425  43.320  13.840  13.963
53658W        W17426  25.669  41.376   5.306
53659W        W17427  41.863  44.378   5.190
53660W        W17428  42.929   8.835   2.886
53661W        W17429  20.060  26.005  11.534
53662W        W17430  27.103  19.208  12.896
53663W        W17431  39.977  34.507  12.358
53664W        W17432  27.681  17.689  11.600
53665W        W17433  37.840   6.380   1.895
53666W        W17434   8.781  12.323  11.001
53667W        W17435  16.288  10.210  11.536
53668W        W17436   8.300  15.121  13.064
53669W        W17437  18.629  44.410   3.270
53670W        W17438  25.469  15.269  10.580
53671W        W17439  14.272  13.745   0.436
53672W        W17440   7.851  15.149  12.828
53673W        W17441  18.638   8.830   0.345
53674W        W17442  29.929  33.073   2.415
53675W        W17443  23.568  42.921   2.786
53676W        W17444   4.449   7.274   0.248
53677W        W17445   6.753  34.449  11.375
53678W        W17446  15.091  38.456  12.096
53679W        W17447   1.743  38.886   1.843
53680W        W17448  15.754  38.327   1.366
53681W        W17449   0.370  29.637   1.815
53682W        W17450  23.618   9.694  13.399
53683W        W17451  41.448  25.980  10.552
53684W        W17452  17.305   8.826   0.763
53685W        W17453  29.136  12.127   4.326
53686W        W17454  16.227   6.696   0.281
53687W        W17455   8.727  43.492  12.007
53688W        W17456  28.500  35.028  10.439
53689W        W17457  17.753   7.812   4.317
53690W        W17458  34.547  28.626   2.811
53691W        W17459  36.871   0.429   2.862
53692W        W17460   2.869  31.441   2.778
53693W        W17461  34.104   7.360   2.279
53694W        W17462   9.822   3.752  14.006
53695W        W17463  16.751  16.091   5.771
53696W        W17464  13.128  15.629   5.156
53697W        W17465  39.023  10.335  14.994
53698W        W17466  36.937  12.279  14.413
53699W        W17467   8.352  21.119   2.892
53700W        W17468   6.719  10.699  11.539
53701W        W17469  19.755  26.486  13.941
53702W        W17470   0.924   8.886  13.352
53703W        W17471  37.085  13.783   3.246
53704W        W17472  22.676  33.581   0.789
53705W        W17473   0.782  21.730  13.413
53706W        W17474  15.285   1.915   0.468
53707W        W17475  42.367  42.407   2.834
53708W        W17476   3.293  26.200  14.432
53709W        W17477  36.057  37.531  13.332
53710W        W17478  34.478  27.615   2.321
53711W        W17479  32.026  32.482  14.020
53712W        W17480   3.345   8.759  12.066
53713W        W17481  39.056  34.111  10.562
53714W        W17482  41.495  23.235  12.037
53715W        W17483   0.363  17.174   2.391
53716W        W17484  12.625  44.461  10.038
53717W        W17485   4.416   1.316   3.684
53718W        W17486   2.286  15.600   9.947
53719W        W17487  27.119  37.857  14.496
53720W        W17488  27.160  18.750   1.385
53721W        W17489   1.268  23.542   3.310
53722W        W17490  35.923  20.183   0.425
53723W        W17491  36.407  31.110   1.866
53724W        W17492  40.882  12.838   1.813
53725W        W17493   7.355  12.835   0.888
53726W        W17494  34.918  25.214   0.810
53727W        W17495  27.191  39.518   2.741
53728W        W17496  33.993  23.624  11.556
53729W        W17497  27.494  38.063  12.403
53730W        W17498   2.883  38.847  14.917
53731W        W17499   5.288  35.598   5.725
53732W        W17500   6.375  36.437   2.268
53733W        W17501   9.726  29.438  14.910
53734W        W17502  15.673  17.226   2.177
53735W        W17503  25.188  30.630  12.369
53736W        W17504  28.443  35.377  12.904
53737W        W17505   7.369  19.649   3.857
53738W        W17506  19.599  32.536  13.048
53739W        W17507   4.855  33.527  12.449
53740W        W17508  28.955   4.330  13.452
53741W        W17509   1.361   8.855   3.793
53742W        W17510  34.548  38.068  13.531
53743W        W17511  29.627  34.407   3.242
53744W        W17512  18.074  42.923  12.893
53745W        W17513  16.591  16.728  13.792
53746W        W17514   6.254  21.060   1.332
53747W        W17515  10.166  39.338   1.773
53748W        W17516  12.849  40.467   4.270
53749W        W17517   7.173   3.919   4.119
53750W        W17518  30.532  38.487  12.440
53751W        W17519  19.724  29.984  10.507
53752W        W17520  11.361  38.340  14.822
53753W        W17521   3.822  21.621  11.543
53754W        W17522  13.746  23.721   2.859
53755W        W17523  16.176  21.119   0.829
53756W        W17524   9.224  30.489   1.696
53757W        W17525  38.358   3.768  11.408
53758W        W17526   4.349  11.671   1.236
53759W        W17527  27.538  22.706   3.708
53760W        W17528  13.129  30.932  14.324
53761W        W17529  12.184  42.389   3.687
53762W        W17530  26.582  34.499  12.022
53763W        W17531  21.092   6.240  12.055
53764W        W17532   0.912  16.682   0.302
53765W        W17533  18.102  34.412  10.565
53766W        W17534   0.376  36.058  13.871
53767W        W17535   6.355  10.258  14.277
53768W        W17536  13.802  16.249   1.769
53769W        W17537  42.920  23.153  11.857
53770W        W17538  25.170   7.282   4.617
53771W        W17539  30.484  40.325  14.852
53772W        W17540  38.475   5.853   3.324
53773W        W17541   1.437  15.293  14.503
53774W        W17542  24.214  36.993  14.368
53775W        W17543  24.702   1.367  10.419
53776W        W17544   7.861  30.568   0.776
53777W        W17545  43.780   1.444  13.525
53778W        W17546  15.252  19.604   3.767
53779W        W17547  35.067  10.768  13.390
53780W        W17548  34.510  39.349   3.712
53781W        W17549  28.148  21.159  14.809
53782W        W17550  33.001   6.851  13.525
53783W        W17551  37.431  44.892   3.851
53784W        W17552  35.461  31.959  10.508
53785W        W17553   9.850  11.283   2.902
53786W        W17554  35.409   2.928  11.866
53787W        W17555  32.501  39.365  14.006
53788W        W17556   8.331  27.140   1.258
53789W        W17557  36.956  39.555   3.283
53790W        W17558  40.351  31.441  10.953
53791W        W17559   3.902  27.151   2.748
53792W        W17560  16.275  15.200   5.257
53793W        W17561  35.507  39.867  14.914
53794W        W17562   9.795  16.580  11.122
53795W        W17563  10.231   7.796  14.832
53796W        W17564  20.072  28.650   4.322
53797W        W17565  10.331   2.937   1.845
53798W        W17566   1.379  10.690  13.439
53799W        W17567  31.582  15.160   9.589
53800W        W17568  11.747   7.275  14.408
53801W        W17569  35.462  21.230   4.114
53802W        W17570  32.979  26.177   3.662
53803W        W17571  32.093  15.189  13.501
53804W        W17572  20.084  22.607  11.395
53805W        W17573  20.211  38.863   0.894
53806W        W17574  36.035  39.855  13.416
53807W        W17575  15.594  12.704  11.986
53808W        W17576   2.960  14.799   0.357
53809W        W17577  19.628  20.759   1.814
53810W        W17578   6.417  22.692  10.470
53811W        W17579  26.045  33.531   3.353
53812W        W17580  23.095  16.736   1.782
53813W        W17581  22.531   2.446  10.970
53814W        W17582  31.469  20.663   0.820
53815W        W17583  39.851   0.900   0.951
53816W        W17584  39.017  26.473   2.826
53817W        W17585  25.010  42.457  10.520
53818W        W17586   7.176  11.866  11.043
53819W        W17587  36.967  36.397  14.928
53820W        W17588  18.545   9.727   1.214
53821W        W17589  18.280  16.267  14.760
53822W        W17590   2.302  15.641  14.008
53823W        W17591  14.302   1.803   3.286
53824W        W17592  17.127  29.537   1.880
53825W        W17593  33.445  25.179   3.647
53826W        W17594  27.984  22.702  12.041
53827W        W17595  43.962  36.007  14.470
53828W        W17596   8.867  38.830  12.831
53829W        W17597  14.130  38.899   0.280
53830W        W17598  35.440  11.146   3.743
53831W        W17599  28.013   9.307  13.328
53832W        W17600  40.853   8.263   5.311
53833W        W17601   6.752  35.497  13.401
53834W        W17602  19.736   5.326  11.960
53835W        W17603   8.818  31.468   3.657
53836W        W17604  35.852  20.166  11.553
53837W        W17605  33.958   3.782  13.460
53838W        W17606  42.874  31.422   3.671
53839W        W17607  26.656  27.128  14.509
53840W        W17608  21.160  43.494  14.968
53841W        W17609  20.253  19.149  11.867
53842W        W17610  26.155  10.662  12.967
53843W        W17611   1.354  29.106   3.337
53844W        W17612  22.212  29.923  13.060
53845W        W17613   4.782  29.442  11.855
53846W        W17614  10.723  16.111  13.395
53847W        W17615  43.879  12.825   2.878
53848W        W17616   0.855  39.889   3.238
53849W        W17617  43.781  26.619  13.467
53850W        W17618  39.362   0.364   4.811
53851W        W17619  14.137  41.898   2.339
53852W        W17620  25.576  44.422  14.402
53853W        W17621   7.407  28.167   4.796
53854W        W17622  41.965  20.072   4.695
53855W        W17623  35.035  42.010   0.929
53856W        W17624   6.730  10.711  13.870
53857W        W17625  19.756  39.913   1.764
53858W        W17626  36.487  39.477   1.284
53859W        W17627   5.726  19.663   4.284
53860W        W17628  42.912  32.531  10.438
53861W        W17629   7.866   9.844  13.369
53862W        W17630  22.742   6.245   3.777
53863W        W17631   4.440  34.984  12.828
53864W        W17632  33.555   6.757  12.488
53865W        W17633  19.694   8.248  10.495
53866W        W17634  11.249   9.189  11.525
53867W        W17635  18.196  21.066  11.996
53868W        W17636  35.100  43.442   1.699
53869W        W17637  18.608  19.629   4.612
53870W        W17638   7.879  20.553   1.368
53871W        W17639  30.142  19.611   1.323
53872W        W17640   2.423  10.746  14.397
53873W        W17641  17.301  21.606   3.704
53874W        W17642  33.118  44.937   2.697
53875W        W17643  34.974  14.281   9.991
53876W        W17644   9.359  41.417   5.245
53877W        W17645  16.112  41.352  14.337
53878W        W17646  10.325  18.133   0.763
53879W        W17647  26.700  41.909   4.174
53880W        W17648  11.653  23.064   2.839
53881W        W17649   1.941  22.016   4.704
53882W        W17650  26.474  17.136   2.195
53883W        W17651  25.571  35.906  14.289
53884W        W17652   2.820   5.205  13.355
53885W        W17653  41.827   0.823   3.700
53886W        W17654  24.004  20.598   1.298
53887W        W17655  20.182  26.080   4.731
53888W        W17656  24.483   5.877  14.431
53889W        W17657  12.148  23.660   2.868
53890W        W17658  34.114  25.578   1.371
53891W        W17659  13.715  10.351   3.172
53892W        W17660   3.443  20.036  14.482
53893W        W17661  30.111  11.177   1.903
53894W        W17662  31.079  27.526   1.378
53895W        W17663   2.410   9.181   2.272
53896W        W17664  35.068  38.328  14.514
53897W        W17665  35.543  10.704   2.286
53898W        W17666   3.446  36.491   4.329
53899W        W17667   2.835  14.211   4.128
53900W        W17668  41.525  19.133  12.959
53901W        W17669  42.300  16.586  13.973
53902W        W17670  12.199  22.665  12.068
53903W        W17671  33.436  19.668   3.147
53904W        W17672  44.833  24.039  14.900
53905W        W17673  19.265   7.297   4.245
53906W        W17674  21.706   9.752  11.048
53907W        W17675  44.321  19.163  14.502
53908W        W17676  11.299  27.139  10.968
53909W        W17677  12.147   1.900   1.242
53910W        W17678  41.942  21.706  11.410
53911W        W17679   9.151   3.328   0.833
53912W        W17680  30.637  19.259   4.159
53913W        W17681  29.489  18.637  14.876
53914W        W17682  17.072  14.764  13.812
53915W        W17683  12.640  42.285   3.757
53916W        W17684   6.244   2.858   2.397
53917W        W17685   1.862   2.926  14.913
53918W        W17686   3.373  27.498   1.709
53919W        W17687  40.327  18.295  13.013
53920W        W17688  40.447  41.903   2.187
53921W        W17689  14.725  15.195  14.411
53922W        W17690  10.652   6.815  13.797
53923W        W17691  37.036  18.563   4.690
53924W        W17692  20.228  44.468  11.605
53925W        W17693  17.661   5.773   4.689
53926W        W17694   2.884  24.675   0.853
53927W        W17695  21.098  10.176  12.541
53928W        W17696  32.518  41.967   4.176
53929W        W17697  25.051  22.112   4.619
53930W        W17698  36.534  38.834  13.985
53931W        W17699  18.652  29.134  11.043
53932W        W17700  41.388  19.041   2.323
53933W        W17701  40.002  37.366   4.717
53934W        W17702   8.386  35.506   2.201
53935W        W17703  34.379   7.854  13.461
53936W        W17704  27.554  10.802   4.764
53937W        W17705  34.005  38.068  11.403
53938W        W17706  37.040  39.939  14.459
53939W        W17707  20.624  37.380  10.115
53940W        W17708  24.586  10.309  14.976
53941W        W17709   1.353  37.525  14.799
53942W        W17710  11.651  43.993  14.482
53943W        W17711  44.440  14.751   1.878
53944W        W17712  41.465   0.760  14.825
53945W        W17713  19.266  18.227  10.624
53946W        W17714  15.323  43.439  11.954
53947W        W17715  40.318  22.738   1.762
53948W        W17716  36.373   4.415  11.421
53949W        W17717   0.459   2.244   2.183
53950W        W17718  24.209  22.510  14.923
53951W        W17719  44.861  43.850  11.094
53952W        W17720  27.968  10.848   4.144
53953W        W17721  42.312  43.870  11.966
53954W        W17722  23.998  19.683   1.237
53955W        W17723  17.274   8.248  12.871
53956W        W17724   8.226   2.860   0.264
53957W        W17725   8.194  14.647   0.943
53958W        W17726  41.397  10.812  14.856
53959W        W17727  29.139  40.028   1.442
53960W        W17728   5.371  43.336  13.849
53961W        W17729   0.444  18.771  14.407
53962W        W17730   9.362  11.180   3.791
53963W        W17731  27.554  16.226  12.385
53964W        W17732   8.327  13.111   2.256
53965W        W17733  34.878   8.656   3.709
53966W        W17734  27.099  30.916   4.717
53967W        W17735  10.224  22.083   2.821
53968W        W17736  13.830  34.870   4.246
53969W        W17737  41.980  39.975  11.500
53970W        W17738  13.608  42.414   4.184
53971W        W17739  15.260  14.631   3.799
53972W        W17740  33.492  36.879   2.412
53973W        W17741   1.932  17.231  13.995
53974W        W17742  39.034  19.134  10.419
53975W        W17743  20.232  31.010  11.416
53976W        W17744  41.300  30.007  10.058
53977W        W17745  11.844  34.533  14.773
53978W        W17746  21.624  13.685   1.298
53979W        W17747  20.218  28.102   0.339
53980W        W17748   3.786  11.175   4.292
53981W        W17749  38.374  28.987   0.295
53982W        W17750  25.703  17.135  13.977
53983W        W17751  27.180  10.188   0.305
53984W        W17752  22.548  24.723   3.356
53985W        W17753  32.399  14.184   1.244
53986W        W17754   0.770  33.458  11.882
53987W        W17755  28.975  10.345  11.049
53988W        W17756  19.084  36.538   4.659
53989W        W17757  33.066  36.464  14.357
53990W        W17758  27.140  36.461  14.956
53991W        W17759  25.010   5.875   3.694
53992W        W17760  28.669   4.735  11.022
53993W        W17761  36.961   3.803  10.494
53994W        W17762   7.188  10.809  13.838
53995W        W17763  32.419  35.048   1.898
53996W        W17764  10.780  27.585   1.770
53997W        W17765  24.710   3.900   1.924
53998W        W17766   4.340  23.198  11.084
53999W        W17767  21.253   3.845  14.377
54000W        W17768  33.424   4.335   2.178
54001W        W17769  25.679  40.327   1.902
54002W        W17770  40.037  24.011   0.391
54003W        W17771   6.686   3.802   2.800
54004W        W17772   0.956   0.980  11.963
54005W        W17773   9.660   7.745  13.402
54006W        W17774   6.195  42.349  12.925
54007W        W17775  43.357  27.562   1.212
54008W        W17776  12.216  37.346   2.895
54009W        W17777  31.058  11.136   4.705
54010W        W17778  41.507  11.693   3.243
54011W        W17779  35.412  36.930   1.292
54012W        W17780  14.279  21.663  14.350
54013W        W17781   2.422  10.691   3.287
54014W        W17782  35.434  38.954   1.210
54015W        W17783  40.798  16.192   3.845
54016W        W17784  44.408   0.433   1.445
54017W        W17785  27.122  11.143  10.486
54018W        W17786   8.401  23.990   1.285
54019W        W17787  43.954   8.749  13.867
54020W        W17788   0.461  28.109  14.990
54021W        W17789  24.066  36.501  12.402
54022W        W17790  39.971  18.109  11.480
54023W        W17791  34.534  16.575   9.644
54024W        W17792  28.083  16.217  10.451
54025W        W17793  32.531  42.852  14.286
54026W        W17794  18.126  44.376   1.857
54027W        W17795   9.392   5.426   2.882
54028W        W17796   1.807  37.864   3.825
54029W        W17797  23.491  23.694   4.678
54030W        W17798   2.884  26.692  11.518
54031W        W17799   7.316  24.496   4.291
54032W        W17800   3.922  11.798   9.963
54033W        W17801   8.883  40.326  10.424
54034W        W17802  21.577  13.160   2.379
54035W        W17803  18.293  15.774   1.323
54036W        W17804  35.856  42.870   3.277
54037W        W17805   2.897  42.001  11.528
54038W        W17806  29.577  31.020  14.470
54039W        W17807  36.358   0.965  13.903
54040W        W17808  33.464   6.737  10.476
54041W        W17809  14.783  19.766   2.675
54042W        W17810  24.521  13.323   0.268
54043W        W17811   3.268  31.524  13.321
54044W        W17812  27.050  42.374   3.187
54045W        W17813  16.719  13.741  12.551
54046W        W17814   0.855  30.539  14.411
54047W        W17815  19.547  41.030   0.268
54048W        W17816  35.498  30.019   3.737
54049W        W17817   3.245  20.596  12.902
54050W        W17818  36.426   5.310   0.778
54051W        W17819  18.619   9.270   2.317
54052W        W17820   0.451  24.071   4.347
54053W        W17821   8.753  36.582   1.922
54054W        W17822  44.471  38.420   3.742
54055W        W17823  23.657  43.875  10.470
54056W        W17824   1.281   5.733  10.442
54057W        W17825  10.311  31.937  12.907
54058W        W17826  34.576  31.576  10.910
54059W        W17827  35.534  14.731   4.115
54060W        W17828  38.387  33.001   2.277
54061W        W17829  26.615  14.178   0.380
54062W        W17830  17.626  15.329  10.544
54063W        W17831  25.474   7.249   1.422
54064W        W17832  22.054  39.520  14.809
54065W        W17833  31.048  15.651  12.357
54066W        W17834  27.178  16.810  12.937
54067W        W17835  43.319  22.667   4.248
54068W        W17836  24.484  28.999   1.348
54069W        W17837  38.970  23.063   1.279
54070W        W17838  40.839  33.402   4.252
54071W        W17839  16.761   5.932   4.217
54072W        W17840  17.168  18.292  14.814
54073W        W17841  10.878   7.235  14.429
54074W        W17842  33.094  19.183  14.402
54075W        W17843   5.927  13.691   2.293
54076W        W17844  32.581   8.271   4.703
54077W        W17845   6.425  18.636  10.138
54078W        W17846  16.704  18.761  10.527
54079W        W17847  40.836  43.783  10.589
54080W        W17848  41.943  19.265  14.494
54081W        W17849  34.585  25.603   0.750
54082W        W17850  40.435   0.751  13.444
54083W        W17851  16.775  33.430  12.824
54084W        W17852   9.887  13.131  10.557
54085W        W17853  33.028   6.340  11.602
54086W        W17854  23.548  44.436   4.676
54087W        W17855  43.007  16.686  13.361
54088W        W17856   7.716  16.169   1.450
54089W        W17857  35.013   1.366  10.913
54090W        W17858   9.319  20.188   1.736
54091W        W17859   3.281  41.335  10.590
54092W        W17860   9.705  40.018   4.226
54093W        W17861  42.779  21.046  12.344
54094W        W17862  11.130  20.103   3.210
54095W        W17863  40.375  31.135  13.849
54096W        W17864  32.462  41.021   3.821
54097W        W17865  34.119  23.223   1.700
54098W        W17866  41.007   6.894   3.358
54099W        W17867  30.037   5.906  11.909
54100W        W17868  39.969  26.136  10.585
54101W        W17869  19.778  37.887  11.112
54102W        W17870  28.176  30.623  11.976
54103W        W17871  39.404   9.656  12.579
54104W        W17872  20.688  18.229  11.090
54105W        W17873  22.586  34.046   2.773
54106W        W17874  30.973  18.285  14.795
54107W        W17875  16.646  13.220   4.166
54108W        W17876  36.887  37.551  11.464
54109W        W17877  19.723  32.626  13.947
54110W        W17878   3.862  34.591  13.840
54111W        W17879  41.493  37.416  13.015
54112W        W17880   6.311  18.217  12.546
54113W        W17881  40.514   5.808   1.425
54114W        W17882  12.699   7.872   3.325
54115W        W17883   1.739  15.663   3.150
54116W        W17884  16.194  26.056   4.832
54117W        W17885  19.177  25.708   0.281
54118W        W17886  21.250  10.674  11.480
54119W        W17887  43.916  38.554   0.806
54120W        W17888  40.361  37.911  11.595
54121W        W17889   6.896  42.002   3.769
54122W        W17890  21.717   1.357   0.827
54123W        W17891  22.027  40.513  11.606
54124W        W17892  33.549  17.606  14.821
54125W        W17893  21.518  39.553   0.349
54126W        W17894  40.982  30.008  11.043
54127W        W17895  35.028   0.262   0.934
54128W        W17896  37.539   4.323  14.900
54129W        W17897  16.771  31.435   0.844
54130W        W17898   6.262  15.196  11.525
54131W        W17899   9.158  22.726   4.213
54132W        W17900  22.659   2.776  12.091
54133W        W17901  30.104  16.807  14.914
54134W        W17902  22.132  16.570   3.163
54135W        W17903  19.101  44.447  12.564
54136W        W17904  10.313   3.791  10.415
54137W        W17905  11.201   9.656  14.951
54138W        W17906  15.132  23.110   9.973
54139W        W17907  13.125   8.345  11.920
54140W        W17908  42.407  35.079   4.705
54141W        W17909  11.366  17.611  13.371
54142W        W17910  32.445  29.491   2.799
54143W        W17911  23.999  26.575   3.788
54144W        W17912  24.014   4.917   9.954
54145W        W17913   1.882  34.054   9.994
54146W        W17914  15.771  15.626  14.834
54147W        W17915  21.063  24.709   4.734
54148W        W17916   9.668  30.418  11.978
54149W        W17917  30.591   0.979   5.123
54150W        W17918  27.503   3.445   1.895
54151W        W17919  25.514  16.590  12.977
54152W        W17920  40.456  30.643  13.350
54153W        W17921  15.817  35.465   3.369
54154W        W17922  41.513  17.148   3.698
54155W        W17923  29.649  23.638   5.257
54156W        W17924  38.936  17.744  13.882
54157W        W17925  11.770  14.230  13.045
54158W        W17926  38.971  26.120   3.631
54159W        W17927  10.678  39.492   1.868
54160W        W17928  38.027  16.748   4.658
54161W        W17929  10.182   9.819   0.779
54162W        W17930  31.624  24.594   2.847
54163W        W17931  35.428  43.880   1.855
54164W        W17932  33.970  28.006  14.397
54165W        W17933  30.418  11.287   1.296
54166W        W17934  16.687  27.155  12.026
54167W        W17935  36.526  36.584   4.226
54168W        W17936  18.110  26.175  11.560
54169W        W17937  21.681   4.856  11.563
54170W        W17938  26.132  17.107   4.694
54171W        W17939   7.231  36.097   2.692
54172W        W17940  32.051  22.711  14.307
54173W        W17941   5.317  42.483  13.338
54174W        W17942  11.804  25.147   3.340
54175W        W17943  25.638  20.246  12.554
54176W        W17944  36.052  15.188  12.978
54177W        W17945   0.973  11.770  12.087
54178W        W17946  35.597  22.183  12.400
54179W        W17947  25.652  26.673  11.989
54180W        W17948  30.414  27.518  14.367
54181W        W17949  23.594  24.564  12.370
54182W        W17950  43.400  12.194  14.464
54183W        W17951  14.780  26.570   1.263
54184W        W17952  32.961  36.890   2.899
54185W        W17953  20.110  16.782  13.806
54186W        W17954  13.185   4.878  11.017
54187W        W17955   7.372   4.336  11.101
54188W        W17956  11.231  41.887   4.255
54189W        W17957   1.390  15.800   3.296
54190W        W17958  44.841  26.620   0.394
54191W        W17959  24.207  41.013  12.053
54192W        W17960  20.654   5.268  14.967
54193W        W17961  24.056   4.931  11.470
54194W        W17962   5.382   1.890   4.771
54195W        W17963  36.491  27.995   3.742
54196W        W17964  12.747  10.370   1.868
54197W        W17965   3.272  37.935   2.395
54198W        W17966   6.914   4.869   3.333
54199W        W17967   6.198  33.943   3.250
54200W        W17968   6.785  11.747  11.544
54201W        W17969  41.021  10.669  12.408
54202W        W17970  34.611   0.868   0.439
54203W        W17971  26.014   4.412  13.012
54204W        W17972   9.798  16.077  12.045
54205W        W17973  10.235  43.415  10.564
54206W        W17974  25.697  19.140   0.317
54207W        W17975   7.277  32.394   0.323
54208W        W17976  35.073  44.869  13.835
54209W        W17977  15.174   1.975   2.263
54210W        W17978  41.960  15.803  13.869
54211W        W17979   8.714  41.326  11.389
54212W        W17980   6.252  21.178   3.814
54213W        W17981  17.720  40.871   0.348
54214W        W17982  34.518   6.873  10.569
54215W        W17983  34.082  12.357   2.209
54216W        W17984  20.135   2.368  10.414
54217W        W17985  42.949  13.141  14.440
54218W        W17986  19.250  44.448  11.568
54219W        W17987  30.463  15.189  13.445
54220W        W17988  40.352   3.450   5.293
54221W        W17989  38.831  28.500  12.982
54222W        W17990  27.682  11.780  12.532
54223W        W17991   9.325  42.837   0.780
54224W        W17992  15.594  39.540   4.813
54225W        W17993  28.140  39.909   4.713
54226W        W17994  36.984  31.437  11.106
54227W        W17995   6.721  40.033   3.314
54228W        W17996   4.241  18.750   2.330
54229W        W17997   5.418  22.006  13.800
54230W        W17998  20.600  13.656   1.378
54231W        W17999  41.489  28.000   4.800
54232W        W18000  40.325  23.712   1.374
54233W        W18001  15.173  29.510   0.782
54234W        W18002   2.397  24.708   2.384
54235W        W18003  18.070  37.564  12.415
54236W        W18004  22.070  37.069  10.569
54237W        W18005   6.301  38.882  13.817
54238W        W18006  26.608  34.946   3.738
54239W        W18007  26.598  10.203  14.974
54240W        W18008  31.523  28.072   2.685
54241W        W18009   2.880  21.029   2.225
54242W        W18010  36.426   9.225  10.957
54243W        W18011  10.692  33.600   2.272
54244W        W18012   8.189  42.411   3.720
54245W        W18013  36.871  32.390  12.032
54246W        W18014  22.120  40.512   2.205
54247W        W18015  30.413  20.659   1.305
54248W        W18016  38.859  27.984  10.411
54249W        W18017   9.672  28.527  14.923
54250W        W18018  24.085   7.703   4.819
54251W        W18019  10.724  26.072  14.763
54252W        W18020  23.503  28.665  12.023
54253W        W18021  41.803   0.276  11.581
54254W        W18022  44.262  13.193  10.900
54255W        W18023  11.834  28.991  12.049
54256W        W18024  42.472  41.847   4.762
54257W        W18025  28.578  36.487  11.474
54258W        W18026  41.884  32.936   4.702
54259W        W18027  14.781  42.027   0.815
54260W        W18028  34.035  28.535  14.937
54261W        W18029  26.664  27.152   1.699
54262W        W18030  16.680   3.256   0.331
54263W        W18031   5.721   5.267   4.156
54264W        W18032  17.609  14.630   0.431
54265W        W18033  17.787   8.163  12.094
54266W        W18034  42.776  16.654  12.500
54267W        W18035  28.069  40.307   3.365
54268W        W18036  36.889  10.255   1.263
54269W        W18037   1.798  34.440   1.388
54270W        W18038  28.483   8.378  12.949
54271W        W18039  11.227  24.673  13.360
54272W        W18040   7.864  23.623   2.242
54273W        W18041   3.413  44.884  14.788
54274W        W18042  25.597  19.048  11.462
54275W        W18043  43.806  36.048   2.231
54276W        W18044   4.397   2.468  13.911
54277W        W18045  33.506  24.589   4.345
54278W        W18046  16.593  37.338   0.913
54279W        W18047   4.870  28.935  10.449
54280W        W18048   2.431   9.751  12.037
54281W        W18049   6.863  35.075  12.029
54282W        W18050  28.554  21.618   0.910
54283W        W18051  16.669   4.753  12.875
54284W        W18052  12.178   0.923  13.533
54285W        W18053  18.586  21.118  11.489
54286W        W18054  12.671  10.160  14.895
54287W        W18055  42.490  40.533   2.678
54288W        W18056  21.155  44.925   2.341
54289W        W18057   3.722   8.178   2.336
54290W        W18058  38.519  43.891  13.403
54291W        W18059  29.525  40.954   3.233
54292W        W18060  18.563  27.554   2.328
54293W        W18061  30.111  36.040   4.663
54294W        W18062  26.066  20.085  14.001
54295W        W18063  43.497  12.659  14.306
54296W        W18064  30.642  14.289   2.203
54297W        W18065  27.005   2.764   0.470
54298W        W18066  23.585  33.402  12.007
54299W        W18067  44.350  28.011  12.546
54300W        W18068  12.191   7.746   4.214
54301W        W18069  38.055   8.267  14.292
54302W        W18070  34.572  26.992  13.884
54303W        W18071  31.447  12.676   0.774
54304W        W18072   2.859  31.531  11.912
54305W        W18073  25.988  16.303   1.717
54306W        W18074   0.890  21.037  10.454
54307W        W18075  44.926  10.637   0.279
54308W        W18076  19.151  30.618   0.461
54309W        W18077  25.003   2.437   2.305
54310W        W18078  29.569  39.345  12.487
54311W        W18079  11.214  31.474   3.249
54312W        W18080  19.072  16.784  10.055
54313W        W18081  26.485  28.503  13.493
54314W        W18082  39.441  16.311   4.637
54315W        W18083  24.663  12.208  12.842
54316W        W18084  32.606  28.458   3.821
54317W        W18085  26.652   2.253  14.503
54318W        W18086  18.053  23.206   2.753
54319W        W18087  31.554  37.527  13.798
54320W        W18088  36.933  22.126  12.853
54321W        W18089  28.181   9.318  11.537
54322W        W18090  11.181  33.116  13.027
54323W        W18091  38.076  16.289  10.980
54324W        W18092  40.988   1.958  14.483
54325W        W18093   3.391   6.427   2.759
54326W        W18094  40.841   2.275   4.754
54327W        W18095  15.193  24.685   2.750
54328W        W18096  31.461  27.180  14.010
54329W        W18097  14.716  17.067  11.598
54330W        W18098  20.541  30.649  14.795
54331W        W18099   9.779  20.685  11.489
54332W        W18100   8.341  26.169  14.850
54333W        W18101   4.802  36.916   5.754
54334W        W18102  12.781   4.286   3.183
54335W        W18103  43.296  11.243   1.418
54336W        W18104   3.345  33.480   0.422
54337W        W18105  13.720  41.478   1.422
54338W        W18106   6.845   7.349   0.265
54339W        W18107   0.777  29.027  11.054
54340W        W18108   5.755   2.400   3.781
54341W        W18109   1.916  23.593  13.459
54342W        W18110  12.299  34.606   1.377
54343W        W18111  22.028   4.888   3.342
54344W        W18112  44.448   7.319  14.900
54345W        W18113   4.378  32.620  14.958
54346W        W18114  41.919  27.994   1.424
54347W        W18115  10.221  11.253   4.642
54348W        W18116   8.757  32.966  13.509
54349W        W18117   6.242  28.655   2.362
54350W        W18118  35.053  26.160   4.819
54351W        W18119  42.817  26.599   0.284
54352W        W18120  20.634  41.388  14.290
54353W        W18121  11.709   6.410   0.746
54354W        W18122  35.506   3.833   1.915
54355W        W18123  35.531  11.783  11.515
54356W        W18124   5.331  34.498  10.569
54357W        W18125  16.694  10.199  14.401
54358W        W18126  27.943   9.266   2.864
54359W        W18127  21.531   1.860  12.447
54360W        W18128  32.948  14.645   0.834
54361W        W18129   5.326  24.204   1.211
54362W        W18130   8.734  27.966  11.129
54363W        W18131   2.875   6.211   2.306
54364W        W18132  31.529  43.344  13.512
54365W        W18133  16.101   2.469   3.172
54366W        W18134   6.427  26.964  10.483
54367W        W18135  29.455  41.347  10.154
54368W        W18136  20.706  28.661   2.874
54369W        W18137  19.687  19.045  10.629
54370W        W18138   9.851  10.261   3.855
54371W        W18139  34.571  33.397   0.794
54372W        W18140   2.432  28.437  13.401
54373W        W18141  39.882   9.652   2.848
54374W        W18142  37.883  24.216  13.982
54375W        W18143  44.791   3.865   0.483
54376W        W18144  12.764  10.169   4.706
54377W        W18145  26.576  33.029  11.404
54378W        W18146  29.479   9.309   1.819
54379W        W18147  41.958  33.009   0.284
54380W        W18148  40.913  33.881  11.500
54381W        W18149   9.727  36.413  13.878
54382W        W18150   6.783  27.661  13.798
54383W        W18151  35.598  23.006   1.305
54384W        W18152  16.106  11.796   4.346
54385W        W18153  22.661  43.951   0.753
54386W        W18154  36.553  14.240   9.976
54387W        W18155  32.025  11.721   3.651
54388W        W18156  38.391   0.430  14.428
54389W        W18157  15.263   4.782   3.341
54390W        W18158  11.276  15.145  13.941
54391W        W18159  14.804  28.469   1.707
54392W        W18160  29.147  43.488   1.786
54393W        W18161  20.620  25.529   1.718
54394W        W18162  39.031  24.005   0.444
54395W        W18163   2.926  28.993   2.784
54396W        W18164   3.710   1.342  13.469
54397W        W18165  33.546   1.895   3.787
54398W        W18166  14.283  26.506  14.990
54399W        W18167  12.635  32.527   1.318
54400W        W18168  16.270   5.418   2.862
54401W        W18169  30.573  27.112  14.927
54402W        W18170  39.508  12.750  14.301
54403W        W18171   3.279  16.775   1.283
54404W        W18172  10.235  38.891  11.983
54405W        W18173  32.942  14.264  11.599
54406W        W18174  32.113  32.413   3.849
54407W        W18175  12.199   3.322  14.323
54408W        W18176  15.783  10.350   2.880
54409W        W18177  22.054  12.687  11.460
54410W        W18178  32.892  41.869   0.898
54411W        W18179  41.844  22.630   3.386
54412W        W18180   0.369  32.949   0.374
54413W        W18181   2.926  26.538  11.026
54414W        W18182  14.198  25.030   2.832
54415W        W18183   5.331   5.715   0.275
54416W        W18184  16.581  34.968   5.162
54417W        W18185  13.662  42.884   0.330
54418W        W18186  41.871  25.088   3.215
54419W        W18187  35.871  43.017   1.228
54420W        W18188  11.195  42.925   0.738
54421W        W18189   3.768   1.300  14.451
54422W        W18190  26.496  11.856  11.044
54423W        W18191  14.278  44.996  14.012
54424W        W18192   3.761  19.586   0.353
54425W        W18193  10.847   4.807  14.990
54426W        W18194  14.222  25.512  12.374
54427W        W18195  16.776  42.295  14.803
54428W        W18196  11.708  37.836   9.979
54429W        W18197   3.843  20.103  12.561
54430W        W18198   1.293  42.497  12.966
54431W        W18199  15.222  41.499   2.338
54432W        W18200  27.526   9.834  12.024
54433W        W18201  23.112   6.892  14.794
54434W        W18202  33.124  15.160  13.990
54435W        W18203  11.196  23.520   3.370
54436W        W18204  37.837  12.771   0.808
54437W        W18205   6.790  33.446   2.369
54438W        W18206  42.016   3.257  11.474
54439W        W18207  31.552   3.786  12.417
54440W        W18208  39.039  39.821   1.231
54441W        W18209  32.975  20.115  10.930
54442W        W18210  13.776  36.578  14.853
54443W        W18211  40.418  21.721   3.852
54444W        W18212  14.287  24.499   1.259
54445W        W18213  33.961  18.243  12.417
54446W        W18214   1.829  29.056  12.523
54447W        W18215  34.897  36.922   3.695
54448W        W18216  33.038  30.455   4.181
54449W        W18217  32.572  37.569   3.323
54450W        W18218  34.885  33.910   3.832
54451W        W18219   1.483  14.827  12.052
54452W        W18220  42.390  13.635  10.435
54453W        W18221   7.740  34.876   3.636
54454W        W18222  24.705  15.818  13.975
54455W        W18223  11.161  25.024   1.329
54456W        W18224  18.129  19.123   0.255
54457W        W18225  28.179  39.396  12.936
54458W        W18226  13.334  15.671  12.384
54459W        W18227  33.023  32.398  11.034
54460W        W18228  15.672  41.972  12.529
54461W        W18229  22.731  28.521  10.410
54462W        W18230  34.514  27.017  12.038
54463W        W18231   6.779  13.719  14.801
54464W        W18232  19.251  30.044   4.147
54465W        W18233  33.570  42.855  14.809
54466W        W18234  40.933  13.722  12.410
54467W        W18235  37.368   0.458  12.355
54468W        W18236  31.975  18.067   1.412
54469W        W18237  36.092  34.934  10.895
54470W        W18238  24.575   6.732   3.850
54471W        W18239  18.554  17.210   5.182
54472W        W18240  20.120  35.059   1.883
54473W        W18241  27.599  35.027  14.384
54474W        W18242  37.052  22.726  14.965
54475W        W18243  36.937  23.499  14.360
54476W        W18244  36.036  22.222   3.382
54477W        W18245  19.773  22.592  13.444
54478W        W18246   5.854  32.989  13.439
54479W        W18247   7.190   7.799  11.469
54480W        W18248   6.349  40.898  11.985
54481W        W18249  22.092   9.764   4.690
54482W        W18250  27.586   3.815  13.535
54483W        W18251  19.719   1.959   1.831
54484W        W18252  40.875   8.369  14.963
54485W        W18253  36.356  33.530  10.504
54486W        W18254  24.218   3.297   1.802
54487W        W18255  11.259  40.996   4.170
54488W        W18256  21.186  40.876  14.330
54489W        W18257  31.550  38.845  13.919
54490W        W18258  28.562  10.160  12.404
54491W        W18259   1.244  27.112   2.779
54492W        W18260  35.971  42.390  13.047
54493W        W18261  15.227  12.293  14.776
54494W        W18262  43.413  22.130  14.312
54495W        W18263  21.247  32.524  14.499
54496W        W18264   6.758  28.637  11.972
54497W        W18265  41.808  16.601  14.323
54498W        W18266  22.163  23.031   2.259
54499W        W18267  42.873  25.035  13.470
54500W        W18268  17.067  40.439   3.317
54501W        W18269  11.777   6.772  13.031
54502W        W18270  21.099  23.074  11.937
54503W        W18271  36.886   0.477   3.274
54504W        W18272   5.707   1.882   4.154
54505W        W18273  28.558   2.777  13.395
54506W        W18274  22.081  22.625  10.602
54507W        W18275  44.795  14.722   0.946
54508W        W18276   9.668  40.933   3.732
54509W        W18277  22.199  15.764   0.754
54510W        W18278  44.975  14.332  11.427
54511W        W18279  26.071  41.789   1.763
54512W        W18280   3.351  41.874   2.793
54513W        W18281   3.231  15.687  11.893
54514W        W18282  26.469  21.081   0.732
54515W        W18283  41.450  19.173  11.597
54516W        W18284  16.207  32.966  14.826
54517W        W18285  19.243   0.408   3.641
54518W        W18286  10.222  35.587  13.329
54519W        W18287   7.767  33.432   4.346
54520W        W18288  40.306  39.961   0.899
54521W        W18289  26.018  14.707  14.879
54522W        W18290   2.241  27.985   0.297
54523W        W18291  38.943  19.104  13.501
54524W        W18292  18.067   6.715  10.517
54525W        W18293  12.629  29.971  10.902
54526W        W18294  44.898   3.257  13.939
54527W        W18295  34.959  23.595   3.218
54528W        W18296  10.276   1.262  14.493
54529W        W18297  12.832   7.719  11.035
54530W        W18298   2.396  19.064   2.699
54531W        W18299  43.822  41.802  10.429
54532W        W18300  32.127  17.698  14.778
54533W        W18301  44.313  25.508  11.543
54534W        W18302  13.315  42.976   5.300
54535W        W18303  17.064  37.485  13.889
54536W        W18304   1.733  34.073  14.461
54537W        W18305  24.010  29.933   2.360
54538W        W18306  28.049  10.706   1.806
54539W        W18307  44.503  30.916   4.284
54540W        W18308  12.739  27.951   4.666
54541W        W18309   7.763  39.552   2.384
54542W        W18310  11.239  40.384   1.704
54543W        W18311   3.291  21.089   0.963
54544W        W18312  40.378  27.524   3.188
54545W        W18313  43.301  35.923   2.669
54546W        W18314   4.789  25.522  10.485
54547W        W18315   0.769  12.332   2.825
54548W        W18316  23.510  15.812  12.923
54549W        W18317   9.274  26.681   2.241
54550W        W18318   9.272  15.712  14.949
54551W        W18319  22.700   5.902  12.449
54552W        W18320   6.224   3.353  11.866
54553W        W18321   9.334  19.160   4.227
54554W        W18322  43.372  33.564  11.486
54555W        W18323  32.005  31.927  14.768
54556W        W18324  30.075  44.331  14.008
54557W        W18325  42.851   5.883  10.563
54558W        W18326  20.263   1.237  14.443
54559W        W18327  23.098  11.668  11.032
54560W        W18328  38.884  43.945   2.819
54561W        W18329  24.177  28.552   4.116
54562W        W18330  11.247  34.942   4.818
54563W        W18331   5.327  10.759  11.455
54564W        W18332  36.389  17.149  11.977
54565W        W18333   0.417  34.952  10.016
54566W        W18334   6.848  31.560   4.338
54567W        W18335  30.921  11.851   0.386
54568W        W18336  39.426  39.977  14.296
54569W        W18337  19.191  20.073  13.042
54570W        W18338  27.968  44.486   1.370
54571W        W18339  12.141  21.225  14.347
54572W        W18340  40.310  43.785  11.554
54573W        W18341  42.463  27.135   1.919
54574W        W18342  41.451  29.479  13.007
54575W        W18343  19.677  42.978  13.547
54576W        W18344  43.768  14.774   4.684
54577W        W18345   7.686   8.682  13.804
54578W        W18346  19.738  11.215  14.928
54579W        W18347  13.634   5.281  12.488
54580W        W18348  44.497  38.426   4.305
54581W        W18349  41.338  20.236   1.423
54582W        W18350  17.731  32.069   1.811
54583W        W18351   3.440  42.914  10.146
54584W        W18352  24.202   8.238   1.884
54585W        W18353  40.004  15.601  10.590
54586W        W18354  23.554  21.098  10.002
54587W        W18355  32.461   4.378   4.836
54588W        W18356   2.776  35.993   2.212
54589W        W18357  12.200   4.787   1.934
54590W        W18358  43.841  16.604  11.059
54591W        W18359  19.146  22.116  14.951
54592W        W18360   5.347  14.609  14.843
54593W        W18361  12.802  39.422  12.960
54594W        W18362  40.397  17.246   3.327
54595W        W18363   6.204  19.099   2.779
54596W        W18364   0.381   4.706   4.250
54597W        W18365  29.024  24.989  11.080
54598W        W18366  41.024  28.024  13.319
54599W        W18367   1.309  42.941   2.852
54600W        W18368   7.826  16.621  11.531
54601W        W18369  27.668  44.796  13.390
54602W        W18370  24.645  36.878  10.442
54603W        W18371  20.086  38.450   0.864
54604W        W18372   6.202   1.282   1.351
54605W        W18373   2.724  21.034  11.078
54606W        W18374  39.427  14.234   1.787
54607W        W18375   1.245  11.216   2.713
54608W        W18376  15.625  28.005   4.748
54609W        W18377   4.926  27.129  13.863
54610W        W18378   7.803  42.916  12.997
54611W        W18379  22.614  21.539   3.786
54612W        W18380  26.697  18.229  10.019
54613W        W18381   6.240  16.726   2.249
54614W        W18382  14.680   1.914  12.504
54615W        W18383  40.051  43.356   0.430
54616W        W18384  33.017   8.853  13.042
54617W        W18385  28.119  12.820   9.634
54618W        W18386  32.051  18.719   0.295
54619W        W18387   2.814  32.896   1.715
54620W        W18388  41.854  19.738  13.963
54621W        W18389  24.083  31.526  11.119
54622W        W18390  32.556  16.318   3.630
54623W        W18391  22.997  26.187   0.900
54624W        W18392   9.679   3.883  10.544
54625W        W18393  21.526  28.625   2.265
54626W        W18394   5.308   9.861   3.198
54627W        W18395  38.359  43.015   1.917
54628W        W18396   9.802  27.658  10.909
54629W        W18397  23.525  40.033  14.836
54630W        W18398   6.197  16.191  12.040
54631W        W18399   4.917  10.322   0.438
54632W        W18400  40.980   3.786   0.266
54633W        W18401  31.431  15.300   2.203
54634W        W18402  39.494  18.075  14.282
54635W        W18403  10.254  33.623  13.828
54636W        W18404  41.384  34.371   4.598
54637W        W18405   5.786  40.416  13.005
54638W        W18406   5.902  30.955  13.909
54639W        W18407   7.361  40.814  11.095
54640W        W18408  16.712  42.393  12.965
54641W        W18409  27.090  18.099   1.744
54642W        W18410  21.758  14.682   0.401
54643W        W18411  24.553  24.039   1.286
54644W        W18412  38.474   3.721   0.739
54645W        W18413  19.729  16.257  10.909
54646W        W18414   7.849  40.365  12.923
54647W        W18415  33.930  21.640   0.248
54648W        W18416  27.558  19.248  11.024
54649W        W18417  15.137  31.939   0.957
54650W        W18418   8.160  18.750   1.851
54651W        W18419  14.827  10.173  11.373
54652W        W18420  38.980  19.152  12.903
54653W        W18421  42.491  16.183   0.244
54654W        W18422  37.427  13.131   3.208
54655W        W18423   6.379  27.593   3.312
54656W        W18424  21.638  35.941   4.175
54657W        W18425  25.034   1.826   2.345
54658W        W18426  20.746  42.931   5.185
54659W        W18427  43.955   7.725   1.378
54660W        W18428   9.678   6.310  13.059
54661W        W18429  38.850  37.343  12.462
54662W        W18430  36.998  41.358   2.248
54663W        W18431  23.680  24.512   0.457
54664W        W18432   2.295  35.088   1.751
54665W        W18433  11.731   0.282  10.980
54666W        W18434  21.697  19.665   4.264
54667W        W18435  20.669  30.072   0.298
54668W        W18436  35.377  20.181   0.851
54669W        W18437  28.456  29.144   4.126
54670W        W18438  24.045   1.393  10.906
54671W        W18439  39.372  32.908   1.878
54672W        W18440  42.841  15.625   4.598
54673W        W18441  43.455   1.790  14.294
54674W        W18442  43.897   8.666   4.269
54675W        W18443  36.592  31.027   4.740
54676W        W18444   2.820  41.454  13.965
54677W        W18445  42.855  21.722  14.321
54678W        W18446   0.385  25.597   2.800
54679W        W18447  40.427  11.756  14.297
54680W        W18448   7.681   1.370   0.886
54681W        W18449  23.150  19.140  13.004
54682W        W18450  33.036  23.528  14.910
54683W        W18451  38.819   2.956   4.313
54684W        W18452  15.175  18.114   3.354
54685W        W18453  19.147  37.367  11.378
54686W        W18454  21.537   0.382   3.791
54687W        W18455  42.405  16.095  11.910
54688W        W18456  13.680  20.039   0.413
54689W        W18457  40.397   5.849   1.752
54690W        W18458  32.391  40.425   1.793
54691W        W18459   3.815   9.350  11.018
54692W        W18460   4.806   2.335   4.712
54693W        W18461   5.922  40.377   3.844
54694W        W18462  37.404  30.149  14.883
54695W        W18463  24.685  35.594  11.062
54696W        W18464  18.116  14.191   0.962
54697W        W18465   8.249  14.654  13.976
54698W        W18466  32.103  37.976  11.404
54699W        W18467  27.149  28.645   4.239
54700W        W18468   2.907  15.614  11.572
54701W        W18469  13.295   4.252   1.421
54702W        W18470  38.528   4.922  14.394
54703W        W18471   9.764  21.212  14.510
54704W        W18472  17.782  39.554  10.529
54705W        W18473  22.219   1.884   3.714
54706W        W18474  29.462   3.884   0.252
54707W        W18475  18.779   1.836   1.432
54708W        W18476  16.757  35.073   4.674
54709W        W18477  37.953   5.741   0.431
54710W        W18478   0.962  38.821  10.076
54711W        W18479   9.857  32.921  12.482
54712W        W18480  39.536   0.743  11.040
54713W        W18481  20.696  23.709   0.882
54714W        W18482  38.982  23.059  11.909
54715W        W18483  20.681  43.797   3.204
54716W        W18484  41.003  12.751   2.902
54717W        W18485  30.050  38.548  14.781
54718W        W18486  11.636   5.839  12.482
54719W        W18487   6.365  25.511  10.519
54720W        W18488   3.358  25.680   0.927
54721W        W18489   5.709  41.018  12.019
54722W        W18490  25.581  24.560   2.761
54723W        W18491  34.514  42.403  13.924
54724W        W18492   5.220  32.531  12.399
54725W        W18493  15.642  42.836  13.824
54726W        W18494  41.813   2.327  12.553
54727W        W18495  14.651  15.793   2.834
54728W        W18496  34.110  16.680   1.696
54729W        W18497  27.112  22.700   2.304
54730W        W18498   0.303  13.236   3.369
54731W        W18499  33.541   7.675   3.328
54732W        W18500  38.420  17.577   4.643
54733W        W18501   7.289  29.067   0.287
54734W        W18502   8.714  14.120   0.431
54735W        W18503  38.832   9.877   2.286
54736W        W18504  31.904  41.443  10.012
54737W        W18505  11.241   2.400   1.236
54738W        W18506  42.031  14.106  11.441
54739W        W18507  14.180  44.384   4.809
54740W        W18508  43.409  44.801  11.972
54741W        W18509  23.522   0.929   3.776
54742W        W18510  11.361  36.445  12.486
54743W        W18511  26.986  28.621   1.404
54744W        W18512  42.954  17.193  10.408
54745W        W18513  17.695  38.365  14.798
54746W        W18514  36.084   7.825  12.477
54747W        W18515  35.531  26.598  10.934
54748W        W18516  27.629  24.186  14.788
54749W        W18517   4.853  30.575  11.520
54750W        W18518   0.272  26.170  14.352
54751W        W18519  31.122  44.478   2.297
54752W        W18520  31.980   3.949  14.480
54753W        W18521  13.129  29.981  13.411
54754W        W18522  21.623  33.126   0.479
54755W        W18523   7.417   4.806  11.068
54756W        W18524  15.221   6.826   1.344
54757W        W18525  32.420  13.294   4.288
54758W        W18526  29.981  28.660   0.446
54759W        W18527  18.093  10.142  12.865
54760W        W18528   4.420   8.217  11.593
54761W        W18529  36.973  44.915  12.903
54762W        W18530  27.618  14.189  11.111
54763W        W18531   0.262   7.692   4.803
54764W        W18532  43.804  10.654   3.805
54765W        W18533  32.063  38.951   2.799
54766W        W18534   0.426  17.187  12.905
54767W        W18535  44.961  10.311   3.822
54768W        W18536  34.536  28.474   1.807
54769W        W18537  43.485  18.090  13.012
54770W        W18538  39.368  27.103   3.782
54771W        W18539  22.541  41.507   3.834
54772W        W18540   8.846  17.204   0.938
54773W        W18541  32.413  32.592   2.813
54774W        W18542   6.319  25.021   0.727
54775W        W18543  38.887  33.930   1.362
54776W        W18544  33.551  28.957  13.894
54777W        W18545   4.830   9.815  13.425
54778W        W18546  30.037  29.995  13.807
54779W        W18547  28.956   0.848   4.218
54780W        W18548  35.487  42.790   3.860
54781W        W18549   8.891  24.137   3.727
54782W        W18550  34.993  44.928   1.779
54783W        W18551  14.763  37.837   3.761
54784W        W18552   6.351  39.065  10.484
54785W        W18553   2.962   7.361   3.831
54786W        W18554  36.963  25.076   0.407
54787W        W18555   3.441  39.358  10.566
54788W        W18556  24.605  43.851   3.653
54789W        W18557  16.313  30.612   1.881
54790W        W18558  13.167  30.909   3.365
54791W        W18559  28.636  36.095   9.451
54792W        W18560  18.232  43.870   4.811
54793W        W18561  22.641  26.689   4.237
54794W        W18562   5.814   8.195  14.956
54795W        W18563   9.697   7.806  14.909
54796W        W18564   8.898  20.585   3.316
54797W        W18565  12.736  15.286   3.705
54798W        W18566  42.376  15.095  14.888
54799W        W18567  13.643   2.893  14.904
54800W        W18568  34.440   8.313  14.897
54801W        W18569   2.413  32.391  13.996
54802W        W18570  24.595   4.863   4.643
54803W        W18571  41.319  25.577  14.448
54804W        W18572  12.305  33.959  11.428
54805W        W18573  35.062  40.797   1.789
54806W        W18574  39.390   9.206  12.513
54807W        W18575  32.516  27.506  11.901
54808W        W18576   7.812  26.511  13.411
54809W        W18577  16.698   9.282   1.213
54810W        W18578  28.610   5.788  14.871
54811W        W18579  44.317  40.886  10.913
54812W        W18580  42.311  30.918   3.717
54813W        W18581  15.158  31.972  12.993
54814W        W18582  35.941   5.312  14.457
54815W        W18583  38.004  38.907   4.315
54816W        W18584  12.293  43.771   4.792
54817W        W18585   7.351  20.185  14.474
54818W        W18586  13.265  21.074   0.435
54819W        W18587  15.626  34.982   5.235
54820W        W18588  40.808  19.661   1.439
54821W        W18589  43.470  42.867  11.466
54822W        W18590  16.155  13.712  11.415
54823W        W18591  30.014  15.296   2.757
54824W        W18592  32.140  37.488  11.062
54825W        W18593   9.823  24.566  11.599
54826W        W18594   3.813  37.006   9.979
54827W        W18595  19.677  30.922  12.376
54828W        W18596  24.592  39.050  14.779
54829W        W18597  11.253  19.662   4.612
54830W        W18598  15.823  17.736   1.845
54831W        W18599  29.511  25.124  11.896
54832W        W18600   1.404  35.366   1.808
54833W        W18601   9.774  40.985  11.378
54834W        W18602  10.224   7.372   1.356
54835W        W18603  20.590   0.391   2.287
54836W        W18604   9.151   0.345   0.418
54837W        W18605  30.077  41.468   0.809
54838W        W18606  41.368  28.939   3.767
54839W        W18607  18.614  20.670   1.224
54840W        W18608   3.266  32.992   0.325
54841W        W18609  40.461  30.970   3.189
54842W        W18610   8.742  41.925   1.287
54843W        W18611   8.173   5.361  12.053
54844W        W18612  30.935  18.758  14.931
54845W        W18613  29.104  35.906  14.482
54846W        W18614  15.790  39.991   1.393
54847W        W18615  19.068  22.665   3.270
54848W        W18616  12.203  31.931   1.434
54849W        W18617  26.597  15.085   4.155
54850W        W18618   2.268  33.965   3.651
54851W        W18619   0.971  29.588  12.556
54852W        W18620  40.440   8.701  12.486
54853W        W18621  18.665  40.825  13.969
54854W        W18622  35.104   8.217  13.521
54855W        W18623  27.555  12.756  11.424
54856W        W18624  27.170  28.051   3.185
54857W        W18625   5.843   8.671  10.969
54858W        W18626  29.130  30.485  11.101
54859W        W18627  28.093   1.954  11.455
54860W        W18628  11.865  28.506   3.790
54861W        W18629  17.692  27.194  10.980
54862W        W18630  29.577   7.183  13.994
54863W        W18631  26.567   3.453   3.174
54864W        W18632  17.299  12.206   1.756
54865W        W18633  12.728  20.687   2.410
54866W        W18634   1.438  33.984   5.762
54867W        W18635  27.058  25.471   1.275
54868W        W18636  37.909  19.754   5.149
54869W        W18637  35.583  14.226  11.883
54870W        W18638  25.470  27.061   3.789
54871W        W18639   9.324  20.097  13.310
54872W        W18640   8.344  15.678   0.362
54873W        W18641   2.380  34.065  11.886
54874W        W18642   7.721  34.876  10.962
54875W        W18643  40.964  21.150  10.159
54876W        W18644   0.287  21.190  11.587
54877W        W18645  42.972  41.359   4.642
54878W        W18646  30.009  43.962  14.775
54879W        W18647  19.693  12.292  13.923
54880W        W18648  34.078  11.653   0.963
54881W        W18649  20.189  34.992  14.836
54882W        W18650   9.238  12.355  10.893
54883W        W18651  30.478   2.762   1.785
54884W        W18652  24.189  27.548   1.774
54885W        W18653  32.076  18.591   5.153
54886W        W18654  40.392  32.631  14.297
54887W        W18655  18.700  35.976  14.507
54888W        W18656   1.956  13.629  11.532
54889W        W18657  43.893  31.560  14.925
54890W        W18658  13.182  43.990   3.834
54891W        W18659  40.937  26.153  14.499
54892W        W18660  36.058   2.445   1.849
54893W        W18661  28.046  13.201   1.918
54894W        W18662   4.253  21.628  11.034
54895W        W18663  18.255  20.741   0.367
54896W        W18664   8.711   5.842  13.968
54897W        W18665  38.962  11.657   3.844
54898W        W18666  26.596   4.298   0.283
54899W        W18667  35.425   5.748  10.435
54900W        W18668  11.297  31.120   4.174
54901W        W18669   6.728  33.093   2.381
54902W        W18670  44.317  38.858   4.805
54903W        W18671  11.792  38.038  13.335
54904W        W18672  24.018  13.160   4.753
54905W        W18673  29.992  14.244   0.728
54906W        W18674  32.458   0.316  12.975
54907W        W18675  10.200  35.603   0.313
54908W        W18676  24.066   9.186   4.833
54909W        W18677  29.598  14.669   4.314
54910W        W18678  43.506  35.951   3.267
54911W        W18679  34.114  44.993   2.230
54912W        W18680  37.474   0.816   3.727
54913W        W18681  11.643   5.424  13.029
54914W        W18682  44.377  20.269   2.774
54915W        W18683   2.238  13.330  10.575
54916W        W18684  39.510  11.700   3.384
54917W        W18685   1.902  35.363  11.605
54918W        W18686  17.783  17.168   0.356
54919W        W18687  39.428  10.875   0.288
54920W        W18688   8.178  11.171   1.769
54921W        W18689  13.286  29.501  12.373
54922W        W18690  10.363   3.718  14.475
54923W        W18691  16.242   7.240  13.823
54924W        W18692  21.672  24.026  13.837
54925W        W18693  34.401  18.050  12.868
54926W        W18694   5.343  31.485   4.273
54927W        W18695  38.027  17.618   4.699
54928W        W18696  39.873  41.383  11.567
54929W        W18697  21.584  41.534  11.101
54930W        W18698   3.859   2.743   4.796
54931W        W18699   3.760  10.235  13.522
54932W        W18700  12.316  19.565   0.929
54933W        W18701  35.018  41.434   1.927
54934W        W18702  35.593   5.922  10.067
54935W        W18703   8.251  17.586   2.361
54936W        W18704  42.483  10.325   3.231
54937W        W18705  10.206  34.097   1.331
54938W        W18706  36.463  26.541   3.210
54939W        W18707  21.257  33.399   1.796
54940W        W18708   9.197  40.496   0.821
54941W        W18709  29.544  37.531   2.192
54942W        W18710  36.559  33.928   2.270
54943W        W18711  23.522  37.044   4.666
54944W        W18712   0.790  41.946  10.479
54945W        W18713  13.184   2.726  12.457
54946W        W18714  17.203  41.475   0.387
54947W        W18715   3.223  42.843   4.597
54948W        W18716  29.996  26.661   1.409
54949W        W18717  22.204   0.938  10.617
54950W        W18718  37.342  12.635   3.320
54951W        W18719  24.041  38.003  10.634
54952W        W18720  38.488  28.174   1.933
54953W        W18721  33.084  40.306  11.958
54954W        W18722   7.364   8.370   0.859
54955W        W18723  13.694  10.677   2.252
54956W        W18724  17.773  19.209   4.730
54957W        W18725  21.728   1.918   1.738
54958W        W18726  10.784  16.300   1.444
54959W        W18727   3.898  20.699  13.027
54960W        W18728  18.691   0.448   0.405
54961W        W18729  18.143  15.139   1.411
54962W        W18730   1.362  21.658  13.469
54963W        W18731  43.307  35.420   3.217
54964W        W18732  38.036  11.160  11.124
54965W        W18733  11.363  28.619   3.229
54966W        W18734  27.584  25.196  12.370
54967W        W18735  33.883   5.708   2.794
54968W        W18736  26.544  44.009   2.749
54969W        W18737  25.124  35.452   0.459
54970W        W18738  10.285  19.760   2.240
54971W        W18739  18.601  24.150  13.810
54972W        W18740   6.417   9.224  14.285
54973W        W18741  16.650  40.320   1.254
54974W        W18742  38.059  19.277   0.843
54975W        W18743  14.791  40.029   0.449
54976W        W18744  12.348  30.624  14.927
54977W        W18745  12.303   9.367  10.510
54978W        W18746  16.202  12.329  10.980
54979W        W18747  16.231   2.868  14.298
54980W        W18748  31.462  38.371   0.909
54981W        W18749  35.500  30.095  10.543
54982W        W18750  20.119  25.995  10.549
54983W        W18751  15.137  11.769   2.779
54984W        W18752  14.299  38.908   4.205
54985W        W18753  18.549  24.680   9.640
54986W        W18754   1.911  21.085   4.760
54987W        W18755  21.050  26.675   3.166
54988W        W18756   7.686  13.210   3.146
54989W        W18757  16.579  29.098   3.646
54990W        W18758  36.089  12.828   1.403
54991W        W18759  18.168   1.807   0.736
54992W        W18760   5.438  31.938  10.065
54993W        W18761   2.834  41.849  12.577
54994W        W18762  19.190  31.445   0.280
54995W        W18763  19.201  41.536  10.452
54996W        W18764   1.410  22.725   2.294
54997W        W18765  44.959  12.161  12.833
54998W        W18766  43.393  32.418  14.768
54999W        W18767   5.860  33.559   1.724
55000W        W18768  40.848  40.038  14.771
55001W        W18769   7.714  20.040   3.754
55002W        W18770  18.271   9.846  11.009
55003W        W18771  44.270  43.003  10.925
55004W        W18772  36.097  15.237  12.059
55005W        W18773   7.348  11.743   4.332
55006W        W18774  37.943  34.537   1.771
55007W        W18775  15.794   1.388   0.376
55008W        W18776  13.142  15.155  12.891
55009W        W18777   1.370  16.117   4.756
55010W        W18778  31.541  37.523  12.067
55011W        W18779  13.116  37.858   3.380
55012W        W18780  37.358   5.333  13.395
55013W        W18781  19.693  15.180   2.285
55014W        W18782  15.677   0.429  12.465
55015W        W18783  40.517  18.737   1.779
55016W        W18784  24.125  26.001   4.606
55017W        W18785   3.832   3.309  13.313
55018W        W18786  10.144  37.054   2.843
55019W        W18787  19.092  44.914  11.045
55020W        W18788  29.101  19.267   0.784
55021W        W18789   5.244  18.574   0.820
55022W        W18790  30.629  30.037  10.555
55023W        W18791  38.538  27.037  14.974
55024W        W18792  36.501  16.686  12.357
55025W        W18793  20.666  28.546   3.234
55026W        W18794  15.796  22.196  13.424
55027W        W18795  17.261   7.313   1.909
55028W        W18796  13.826  31.469   3.287
55029W        W18797   8.360  37.432  14.837
55030W        W18798   5.438  40.998   0.319
55031W        W18799  43.460  22.712   2.198
55032W        W18800   8.221   5.877  11.991
55033W        W18801  40.369  18.218  10.117
55034W        W18802  18.280  38.441   2.785
55035W        W18803  19.679  30.645  11.442
55036W        W18804  37.549  28.439  14.343
55037W        W18805  42.432  12.627  14.442
55038W        W18806  43.896   3.259  13.996
55039W        W18807  32.580  14.754   1.259
55040W        W18808  34.483  26.023  12.835
55041W        W18809   7.720  11.262   3.337
55042W        W18810  35.953  19.583  12.406
55043W        W18811  28.145   8.365   1.446
55044W        W18812  37.856  23.663  11.505
55045W        W18813  42.369  28.185   2.852
55046W        W18814  26.591  43.360   2.333
55047W        W18815  42.511  14.778  10.609
55048W        W18816  42.326  44.802   2.269
55049W        W18817   4.713   0.908   1.857
55050W        W18818   6.748  24.601  14.471
55051W        W18819  38.843  43.332   4.665
55052W        W18820  23.171   9.806   2.735
55053W        W18821  10.783   8.334   0.738
55054W        W18822  36.368   5.890  10.941
55055W        W18823  27.656   8.335  13.483
55056W        W18824   2.471  36.915   3.208
55057W        W18825  43.514  18.070  11.069
55058W        W18826  19.650  32.513   3.240
55059W        W18827  12.314  32.589   2.413
55060W        W18828   8.249  24.014   2.229
55061W        W18829   1.854  42.515  10.638
55062W        W18830   2.834  11.265  12.088
55063W        W18831  35.081  39.051   1.873
55064W        W18832  42.849   2.233   5.251
55065W        W18833  43.987  29.452  14.308
55066W        W18834  22.030  15.102   4.724
55067W        W18835   1.772  22.239   0.788
55068W        W18836  40.969  31.527   1.411
55069W        W18837  30.653  11.236  12.989
55070W        W18838  15.640   6.767  11.042
55071W        W18839   3.858   4.228   1.920
55072W        W18840  35.436  20.685   4.749
55073W        W18841  31.627   8.879  12.083
55074W        W18842   7.394  34.024   3.702
55075W        W18843  17.796  39.335  13.002
55076W        W18844   7.341  12.245   3.162
55077W        W18845  13.728  13.172   4.201
55078W        W18846  11.130   5.914  12.385
55079W        W18847  26.602   4.391   2.223
55080W        W18848  44.865  14.637  13.979
55081W        W18849  14.602  44.411   2.277
55082W        W18850   9.723  11.707  12.828
55083W        W18851  22.092   5.408   3.180
55084W        W18852  15.664  10.277  12.361
55085W        W18853   6.213  15.262   4.220
55086W        W18854  43.864  25.979  13.410
55087W        W18855  19.747  10.163   4.123
55088W        W18856  37.492  41.356  12.824
55089W        W18857  40.035  32.998   4.275
55090W        W18858  26.650   5.911  12.859
55091W        W18859   5.326  39.380  12.078
55092W        W18860   3.900   9.840   2.791
55093W        W18861  10.782  14.611  12.518
55094W        W18862  12.256  19.275   3.215
55095W        W18863  13.336  42.996  10.447
55096W        W18864  11.650  25.045  10.430
55097W        W18865  31.958  20.047   4.630
55098W        W18866  25.183   7.207  13.022
55099W        W18867  15.119  30.535  11.583
55100W        W18868  41.433  30.436   3.378
55101W        W18869  35.358   1.844   2.817
55102W        W18870  33.537  18.676  10.551
55103W        W18871   0.873  16.605  13.794
55104W        W18872  18.787  21.563  11.101
55105W        W18873  34.469   2.465   3.856
55106W        W18874  33.950  28.670  13.018
55107W        W18875  24.196  23.586  14.925
55108W        W18876  16.219   7.872  11.391
55109W        W18877   2.722  26.063   4.617
55110W        W18878   5.762   5.419   1.761
55111W        W18879   9.694  35.362  12.431
55112W        W18880  25.215  44.456   0.819
55113W        W18881  43.853   7.225   3.846
55114W        W18882  42.315  17.660  14.816
55115W        W18883  34.429   0.460  14.417
55116W        W18884  39.371  35.545  12.837
55117W        W18885  11.136  32.594   4.814
55118W        W18886  22.079  41.527  13.044
55119W        W18887  35.517  30.471  14.394
55120W        W18888  37.006   6.886  13.531
55121W        W18889   5.775  17.699  12.550
55122W        W18890  12.210  41.827  12.486
55123W        W18891  20.222  21.530  10.418
55124W        W18892  32.920  13.325  13.307
55125W        W18893  27.692  40.386   3.717
55126W        W18894  40.910  43.965   3.743
55127W        W18895  23.998  18.094  14.768
55128W        W18896  36.031  38.927   4.670
55129W        W18897  21.691   9.736   0.937
55130W        W18898  36.477  41.014   0.759
55131W        W18899  11.729  18.100   5.121
55132W        W18900  11.833  34.889   0.415
55133W        W18901  32.014  41.864  13.929
55134W        W18902  32.447  33.565  11.921
55135W        W18903  28.576  33.939   3.825
55136W        W18904  13.205  15.804  10.108
55137W        W18905   9.644  26.631   3.166
55138W        W18906  14.185  44.321   0.840
55139W        W18907  30.023   6.246  11.514
55140W        W18908  13.711   6.281  13.883
55141W        W18909  44.872  38.974  13.938
55142W        W18910  29.923  44.426  11.518
55143W        W18911  12.686  13.727  14.004
55144W        W18912   2.421  33.585   3.735
55145W        W18913  35.416  13.167  11.377
55146W        W18914   7.722  20.157  13.012
55147W        W18915  13.185  25.213  11.471
55148W        W18916  41.385  38.349  12.978
55149W        W18917  24.634  42.975   3.844
55150W        W18918  15.299  34.594   1.791
55151W        W18919  25.219  43.991  10.509
55152W        W18920  17.778   9.279   4.239
55153W        W18921  18.269  13.778  11.096
55154W        W18922  43.510  34.511  12.837
55155W        W18923   1.808  31.552  14.873
55156W        W18924   0.975  19.542  12.515
55157W        W18925  31.494  22.581   0.962
55158W        W18926  14.194  43.280   1.442
55159W        W18927  21.738   3.773  12.886
55160W        W18928   2.967  11.719   1.413
55161W        W18929  29.503   2.755   2.876
55162W        W18930  35.097  30.965   2.381
55163W        W18931   5.932  19.120   0.254
55164W        W18932  39.367   8.197  10.431
55165W        W18933  25.103  40.325   0.806
55166W        W18934  17.738  16.675   0.326
55167W        W18935  42.430  42.842   4.706
55168W        W18936   4.820   7.681  13.520
55169W        W18937   4.416  31.617   0.364
55170W        W18938  30.625   1.974   1.905
55171W        W18939  14.318  10.748   3.166
55172W        W18940  29.079   1.402  14.435
55173W        W18941  44.780  26.573  11.858
55174W        W18942  16.703  38.051   4.318
55175W        W18943  36.465  36.390   1.395
55176W        W18944  27.140  34.970  14.361
55177W        W18945   4.736  39.343   1.758
55178W        W18946  42.777  44.879  10.502
55179W        W18947   8.172  18.229   0.965
55180W        W18948  11.240  36.858   3.743
55181W        W18949  21.253  33.061  14.303
55182W        W18950  43.352  27.534   4.698
55183W        W18951  43.996   0.787  12.452
55184W        W18952   3.862  10.140   1.421
55185W        W18953  20.763  25.596  13.947
55186W        W18954   0.976   1.736   1.434
55187W        W18955  14.792  33.972  13.831
55188W        W18956  37.421  37.490   2.902
55189W        W18957  38.326  25.088   1.858
55190W        W18958   6.914  22.116   0.369
55191W        W18959  22.601  42.460   4.208
55192W        W18960  34.069   9.322   1.294
55193W        W18961  20.539  44.375   4.144
55194W        W18962  42.778  29.087  14.002
55195W        W18963  21.143  44.406   1.735
55196W        W18964  41.875  13.612   3.707
55197W        W18965  31.454  11.191  13.007
55198W        W18966   2.370   5.693   0.798
55199W        W18967  21.068  33.458   4.292
55200W        W18968   9.645   8.171   1.718
55201W        W18969   2.728  12.638  14.837
55202W        W18970  35.962  17.287  12.472
55203W        W18971  35.948   4.795   4.715
55204W        W18972  19.094  12.212   4.341
55205W        W18973  21.108  14.812   2.231
55206W        W18974   8.357  23.686  13.357
55207W        W18975  38.568  17.741   3.251
55208W        W18976  31.426  17.637   0.411
55209W        W18977   1.392   9.703  11.100
55210W        W18978  39.533  41.916  14.301
55211W        W18979  39.840   7.353   3.834
55212W        W18980   7.242  29.005  14.354
55213W        W18981  33.429  39.040  12.917
55214W        W18982   1.246   4.352  10.474
55215W        W18983  25.120  40.518  13.846
55216W        W18984  24.678   9.155   2.416
55217W        W18985  39.445  24.675  11.990
55218W        W18986  20.057  15.751  10.063
55219W        W18987   0.862  40.832  13.435
55220W        W18988  22.621  35.940  11.924
55221W        W18989  43.815  21.025  11.420
55222W        W18990  33.978  28.636  13.437
55223W        W18991   0.401  20.560  10.993
55224W        W18992  15.667  26.116   2.862
55225W        W18993   0.436  34.985   0.309
55226W        W18994  27.151  12.694   2.831
55227W        W18995  37.482  21.705   1.295
55228W        W18996   0.465  13.110   0.312
55229W        W18997  18.622   1.436   0.466
55230W        W18998  15.707   5.225   4.713
55231W        W18999  14.284  36.542  13.056
55232W        W19000   9.175  28.031  12.381
55233W        W19001   0.877  28.935   2.417
55234W        W19002   1.277  26.067   3.317
55235W        W19003   7.413  43.852   1.870
55236W        W19004  14.142  29.002  14.827
55237W        W19005  19.566   1.812   3.263
55238W        W19006  33.575  32.985  12.018
55239W        W19007  16.290  37.405   4.619
55240W        W19008   6.824  29.991   4.717
55241W        W19009  28.560  10.801  11.542
55242W        W19010  32.114  36.521  14.376
55243W        W19011   0.886  25.963  13.478
55244W        W19012   0.746  20.645  13.884
55245W        W19013  37.340  13.842  12.980
55246W        W19014  12.267  18.137   2.679
55247W        W19015  43.376  33.992  13.385
55248W        W19016  12.765   5.718  12.013
55249W        W19017  24.502  35.051  11.613
55250W        W19018  35.879  17.289   0.404
55251W        W19019  24.068  13.351  10.616
55252W        W19020  15.655   5.292   3.689
55253W        W19021  12.303  40.368   0.471
55254W        W19022  11.773  30.431  10.587
55255W        W19023  18.217   0.296  14.025
55256W        W19024  34.886  26.146  14.957
55257W        W19025  13.124  30.920  14.966
55258W        W19026   4.719  30.064  13.840
55259W        W19027  15.592  41.494   1.789
55260W        W19028  43.807  35.852   1.216
55261W        W19029  36.010   1.808  14.427
55262W        W19030  32.525  11.860   3.363
55263W        W19031  27.187  38.824   2.709
55264W        W19032   5.758   9.774   3.819
55265W        W19033  32.052   7.829   5.117
55266W        W19034  23.714   7.383  12.877
55267W        W19035   5.260  44.372   4.741
55268W        W19036  41.974  16.693   1.816
55269W        W19037  36.893  40.875   4.752
55270W        W19038  33.063  22.179  11.954
55271W        W19039  12.336  11.203  13.503
55272W        W19040  39.385  27.681   1.416
55273W        W19041  22.691  22.052  14.983
55274W        W19042   1.400  32.580   0.333
55275W        W19043  35.884   9.826   3.662
55276W        W19044  12.718   7.196   4.147
55277W        W19045  16.710   4.927  12.511
55278W        W19046   9.748  29.565   3.150
55279W        W19047   4.223  35.488   0.891
55280W        W19048  33.062   6.905  12.077
55281W        W19049  42.019  15.189  10.506
55282W        W19050  32.010  12.610   2.708
55283W        W19051  23.522  41.528  14.475
55284W        W19052  11.355  20.040   2.381
55285W        W19053  42.908  36.958   4.607
55286W        W19054   0.921  38.443   0.475
55287W        W19055  22.054   2.265  11.441
55288W        W19056  21.049  44.831   3.365
55289W        W19057  41.420  41.383  12.501
55290W        W19058  11.186  37.416  13.323
55291W        W19059  14.304  17.708  13.438
55292W        W19060  23.025   4.244  11.498
55293W        W19061   3.455   9.236   5.153
55294W        W19062  35.551  14.278   0.775
55295W        W19063  37.943  44.447   1.921
55296W        W19064  11.746  18.548   3.834
55297W        W19065  30.608  43.326   1.337
55298W        W19066  22.141  30.061   0.294
55299W        W19067   0.399  33.874  13.481
55300W        W19068  38.524  15.696  12.911
55301W        W19069  14.598  37.866   3.267
55302W        W19070  34.579  31.984   1.444
55303W        W19071  29.499  22.094   3.830
55304W        W19072  34.373  40.888   1.401
55305W        W19073  16.217  18.613   9.994
55306W        W19074  21.124  40.001   1.340
55307W        W19075  28.034  19.179   3.641
55308W        W19076  32.033  12.289   2.693
55309W        W19077  32.464  42.395  12.389
55310W        W19078  16.769  10.830  13.844
55311W        W19079  11.753  40.445  10.029
55312W        W19080  30.928  28.548  14.919
55313W        W19081  34.992  31.416  11.420
55314W        W19082  39.854  27.186   0.426
55315W        W19083   2.263  31.089  14.425
55316W        W19084  11.833  15.282  12.881
55317W        W19085  21.559   5.261   4.152
55318W        W19086  17.107  15.196   0.955
55319W        W19087  37.502  32.974  14.796
55320W        W19088  28.053  14.732   3.735
55321W        W19089  20.127  20.641  14.920
55322W        W19090  35.878  16.772  12.065
55323W        W19091  17.271  22.688   2.662
55324W        W19092  19.634  16.675   1.934
55325W        W19093  32.522  43.295   3.218
55326W        W19094  21.229  36.891   1.799
55327W        W19095  23.131  19.544   1.330
55328W        W19096   8.380  38.327  11.558
55329W        W19097  16.181  18.617   5.245
55330W        W19098  43.359  35.496   0.367
55331W        W19099  36.346  21.173  10.954
55332W        W19100   2.248  20.212  14.844
55333W        W19101  25.061  27.573  10.967
55334W        W19102  19.665  38.925   2.870
55335W        W19103  38.381  26.545  12.488
55336W        W19104  27.551  37.060   4.137
55337W        W19105  29.964   0.297   3.289
55338W        W19106  32.116  20.031   4.331
55339W        W19107  18.214   8.174   1.230
55340W        W19108  36.842   7.334   4.245
55341W        W19109  15.134  29.489  12.844
55342W        W19110   2.893  38.464   3.313
55343W        W19111   8.213  40.354  10.575
55344W        W19112  44.260  38.861  13.373
55345W        W19113  19.263  12.240   1.375
55346W        W19114  35.072  38.515  14.890
55347W        W19115  10.253  22.047  10.923
55348W        W19116  36.948  32.430   3.257
55349W        W19117   0.380  20.582  11.968
55350W        W19118  28.956   3.739   0.352
55351W        W19119  35.516  30.928   4.748
55352W        W19120  19.067  11.253  12.036
55353W        W19121  29.473  32.127  13.954
55354W        W19122  25.654   0.443   1.248
55355W        W19123  16.276   5.932   4.731
55356W        W19124  20.043   7.222   2.895
55357W        W19125  24.542  25.986  14.927
55358W        W19126  39.917  27.992   0.462
55359W        W19127  31.950  16.578  14.986
55360W        W19128  16.232  44.354   4.794
55361W        W19129  18.184  28.999   1.449
55362W        W19130   3.718  36.047  10.923
55363W        W19131  17.296  11.372   3.359
55364W        W19132  27.670  24.219  13.458
55365W        W19133  16.208  21.081  14.799
55366W        W19134  43.357  29.460   4.319
55367W        W19135   0.366  39.365  10.576
55368W        W19136   1.936  25.115  10.638
55369W        W19137  40.395  28.939  13.463
55370W        W19138   5.407   4.419  10.981
55371W        W19139  22.742   8.178   4.736
55372W        W19140  14.128  41.002  13.524
55373W        W19141  29.157  37.924  13.865
55374W        W19142  34.405  37.456   2.188
55375W        W19143  37.555  31.527   5.270
55376W        W19144   3.878   2.937   0.374
55377W        W19145   7.714  10.158  12.889
55378W        W19146  33.928  29.971   0.460
55379W        W19147  31.646  40.805   2.690
55380W        W19148   4.791   1.462   1.229
55381W        W19149  26.117   5.288  14.509
55382W        W19150  19.242  24.113   3.644
55383W        W19151  36.566   3.460   1.342
55384W        W19152  14.666  26.128   4.679
55385W        W19153  33.388  42.525  12.541
55386W        W19154  23.551  11.169  11.031
55387W        W19155  19.270  24.018  12.903
55388W        W19156  11.730   8.215   2.785
55389W        W19157   6.427  23.689  14.800
55390W        W19158  16.077  21.219  10.452
55391W        W19159  31.473  39.344   2.277
55392W        W19160  14.169  36.529   0.461
55393W        W19161  22.194  36.592   1.362
55394W        W19162   3.846   0.760   1.238
55395W        W19163  13.619   9.213  12.976
55396W        W19164  13.739  24.498   4.120
55397W        W19165  16.171  16.597  11.376
55398W        W19166  11.866  28.565   2.311
55399W        W19167  20.205   6.381   1.836
55400W        W19168  40.412  11.816   4.160
55401W        W19169  33.058  32.121   0.322
55402W        W19170  10.691  23.188   2.778
55403W        W19171  33.880  20.182  10.588
55404W        W19172  34.603  40.049   0.443
55405W        W19173  13.781  14.829  13.800
55406W        W19174  15.175   5.290   3.164
55407W        W19175  34.591  21.614   3.237
55408W        W19176  37.070  35.924  13.307
55409W        W19177   4.903  44.305  10.017
55410W        W19178  12.675   0.279  11.065
55411W        W19179  40.918  28.635  11.088
55412W        W19180  23.732  34.059   2.269
55413W        W19181   3.363  21.671   3.807
55414W        W19182  11.729  20.227   3.769
55415W        W19183  33.550  42.955   0.267
55416W        W19184  19.698  35.500  14.347
55417W        W19185  15.777  36.399  12.062
55418W        W19186  32.998  11.210   2.190
55419W        W19187  22.156  37.559   3.344
55420W        W19188  30.037  36.897  13.938
55421W        W19189  44.862  29.546  13.865
55422W        W19190  16.204  43.275   2.882
55423W        W19191  18.230  10.321   0.887
55424W        W19192  26.147  39.390  11.532
55425W        W19193  21.600   4.784  12.823
55426W        W19194   4.386  38.829  12.347
55427W        W19195   4.939  19.559   4.645
55428W        W19196   5.921  43.855   4.830
55429W        W19197  40.835  31.516   1.875
55430W        W19198  14.784  10.700   4.720
55431W        W19199  18.148   2.852  11.092
55432W        W19200  39.453  35.091   4.314
55433W        W19201   9.280  35.873   2.264
55434W        W19202  28.941  19.557   1.841
55435W        W19203   4.869  18.057  10.498
55436W        W19204  12.121  14.273  10.624
55437W        W19205  14.791   7.813  12.455
55438W        W19206   2.325  16.234  14.493
55439W        W19207   7.704  44.861   2.865
55440W        W19208  29.943  35.374  12.067
55441W        W19209  15.800  13.173  10.910
55442W        W19210  29.580  44.807  12.546
55443W        W19211   0.485  18.296  13.927
55444W        W19212  26.004   4.769  11.937
55445W        W19213   8.713  14.198   3.145
55446W        W19214  11.697  43.474  10.952
55447W        W19215  21.602  38.950   1.855
55448W        W19216  17.800  20.603  10.620
55449W        W19217  31.151  22.009   0.945
55450W        W19218  15.773  23.573   2.886
55451W        W19219   6.807  44.798   2.676
55452W        W19220  21.749   3.366  12.998
55453W        W19221   9.753  26.626  13.318
55454W        W19222  23.695  37.498   2.697
55455W        W19223   7.209  29.479   0.348
55456W        W19224  44.433  40.318   3.751
55457W        W19225   0.865  36.546   0.756
55458W        W19226  26.075  40.876   4.257
55459W        W19227  23.723  28.963  13.432
55460W        W19228  10.295  35.895  13.971
55461W        W19229  36.868  41.942  14.806
55462W        W19230  18.157   5.347  11.425
55463W        W19231   8.212  11.280   4.155
55464W        W19232  17.252  27.030  10.627
55465W        W19233  31.631  38.413   2.249
55466W        W19234  22.729  24.171  12.910
55467W        W19235  22.055  35.563   1.769
55468W        W19236  34.902  37.896   0.818
55469W        W19237  31.021  19.159  11.009
55470W        W19238  32.556  37.447   0.320
55471W        W19239  21.730   0.308   4.663
55472W        W19240  37.579  30.914   4.175
55473W        W19241   6.804  43.809  10.999
55474W        W19242  33.961  44.315  12.942
55475W        W19243  30.146  37.389  13.432
55476W        W19244  29.434   4.265   4.190
55477W        W19245   6.280   1.293  12.529
55478W        W19246  30.484  31.413   1.371
55479W        W19247  25.023  14.713  14.762
55480W        W19248  17.796  33.506  13.927
55481W        W19249  12.306  42.287  11.911
55482W        W19250  26.027  28.998   3.833
55483W        W19251   9.205  44.768  14.932
55484W        W19252  12.295  24.090   0.941
55485W        W19253  44.449  34.520   2.213
55486W        W19254  36.419  37.844   2.735
55487W        W19255  17.176  14.094  14.361
55488W        W19256  36.440  39.945  13.835
55489W        W19257  17.263  32.915   1.257
55490W        W19258  12.257  30.036  11.523
55491W        W19259  44.315  10.831  12.512
55492W        W19260  21.526  26.463   0.247
55493W        W19261  31.465  37.001   0.925
55494W        W19262  43.904  28.135   4.217
55495W        W19263   4.875  41.293  10.923
55496W        W19264   6.795  43.511   2.789
55497W        W19265  24.676  30.038  13.890
55498W        W19266  38.838  27.599   2.842
55499W        W19267  15.291  24.619   2.266
55500W        W19268   3.350  40.347  11.587
55501W        W19269  17.802  44.462  14.470
55502W        W19270  16.627  37.463  11.038
55503W        W19271  26.173  33.092  10.457
55504W        W19272  24.558  31.587   4.332
55505W        W19273  41.308  12.363   4.790
55506W        W19274  40.004  15.775   0.291
55507W        W19275  36.350   7.408   1.718
55508W        W19276  22.524  42.378   3.747
55509W        W19277  32.984  43.329   2.222
55510W        W19278  23.721  30.005  14.796
55511W        W19279  31.453  42.393  12.945
55512W        W19280  11.373   5.435  14.028
55513W        W19281  27.484  29.479  14.294
55514W        W19282  32.997   5.708  11.956
55515W        W19283   3.829  30.535  10.522
55516W        W19284  10.324  34.581  12.870
55517W        W19285   1.804  21.513   4.267
55518W        W19286  24.222  21.723  14.859
55519W        W19287  30.140   4.828   0.280
55520W        W19288   3.238  34.874   2.394
55521W        W19289  22.501  12.140  11.499
55522W        W19290   9.727   9.376  11.901
55523W        W19291  31.018   3.304   4.654
55524W        W19292  39.017  15.591   1.382
55525W        W19293   8.857   5.223  12.465
55526W        W19294  17.683  19.143   0.479
55527W        W19295   1.357  11.203  11.953
55528W        W19296  22.613   7.849  14.957
55529W        W19297  12.660  16.308  12.015
55530W        W19298  44.268  13.742   0.302
55531W        W19299  13.185   1.912  13.874
55532W        W19300  31.076  35.515   3.356
55533W        W19301  14.311   0.333  12.958
55534W        W19302  34.583  42.293  11.469
55535W        W19303  21.150  16.771   2.202
55536W        W19304   0.468  44.413   4.132
55537W        W19305  15.203  26.988   5.203
55538W        W19306  21.159   8.899   2.399
55539W        W19307  18.109   9.362   4.731
55540W        W19308  22.645   8.375  11.958
55541W        W19309  35.929  32.052   2.676
55542W        W19310   3.339   7.810  10.446
55543W        W19311  17.680  23.719  12.468
55544W        W19312  16.250  38.959   4.212
55545W        W19313  32.486  43.974   3.202
55546W        W19314  32.892  29.604   4.177
55547W        W19315  27.086  34.373  11.510
55548W        W19316   2.325  43.779   2.296
55549W        W19317   1.476  29.033   1.816
55550W        W19318   5.205  10.706   2.265
55551W        W19319  24.052  30.467  10.954
55552W        W19320  17.190  34.001  13.045
55553W        W19321   7.193  28.501  12.470
55554W        W19322  37.966   0.773  13.838
55555W        W19323  20.657  21.195  14.839
55556W        W19324  29.660  34.891  14.342
55557W        W19325  43.766  41.413  11.456
55558W        W19326  33.132  18.638  14.351
55559W        W19327  43.903  31.920   2.375
55560W        W19328  43.385  25.180   5.180
55561W        W19329  40.966  19.724   4.695
55562W        W19330  37.404   5.420  12.518
55563W        W19331  38.352  28.075   5.286
55564W        W19332  32.886   4.438  12.389
55565W        W19333   9.151   7.257   3.738
55566W        W19334  41.846  12.826   2.794
55567W        W19335  26.966   8.723   3.854
55568W        W19336  28.537  24.128   2.815
55569W        W19337  22.084  31.100  14.468
55570W        W19338  16.750   1.248  13.455
55571W        W19339  42.510  41.394   0.928
55572W        W19340  36.030  11.655   4.753
55573W        W19341  43.779   9.878   3.809
55574W        W19342  25.473  32.498  12.890
55575W        W19343  40.981  40.824   3.356
55576W        W19344  37.519  43.788  14.822
55577W        W19345   4.340  11.303   4.702
55578W        W19346  33.058  40.425  14.910
55579W        W19347  26.055  14.137  14.794
55580W        W19348  42.343   8.260   4.745
55581W        W19349   2.810   4.801  12.498
55582W        W19350  16.269  27.079   1.715
55583W        W19351  10.304  33.625   5.209
55584W        W19352   7.687   9.338  12.073
55585W        W19353  33.965   9.705  13.376
55586W        W19354  20.763  24.098   3.807
55587W        W19355  12.341  18.237   0.312
55588W        W19356  33.131   8.708   3.847
55589W        W19357  24.035  13.273  11.526
55590W        W19358  14.125  27.072  12.841
55591W        W19359  30.434  24.214  12.382
55592W        W19360  26.090  14.284  11.029
55593W        W19361  20.745  13.326   2.833
55594W        W19362  36.914  34.418   2.323
55595W        W19363  28.079  15.759   4.300
55596W        W19364  34.562  13.222   1.838
55597W        W19365  14.327  27.664   3.278
55598W        W19366  43.281  25.566  14.498
55599W        W19367   2.809  35.089  11.055
55600W        W19368  42.500   1.327  14.810
55601W        W19369  26.605  11.134  14.348
55602W        W19370  26.695  41.823   5.193
55603W        W19371   5.831   5.861   3.314
55604W        W19372  16.262   3.840  11.003
55605W        W19373  20.049   6.307   9.993
55606W        W19374  21.238  26.668   5.239
55607W        W19375  18.072  30.533  12.859
55608W        W19376   7.816  30.456   5.261
55609W        W19377  11.259  19.259  14.359
55610W        W19378  26.686  35.403  13.924
55611W        W19379  43.464  14.256   3.224
55612W        W19380   0.800  38.958   2.825
55613W        W19381  13.256   1.931   5.290
55614W        W19382  17.188  21.228   4.606
55615W        W19383  38.438  23.672  12.910
55616W        W19384  25.141  14.225   9.565
55617W        W19385  36.532  42.825   0.310
55618W        W19386  36.541  22.531  11.538
55619W        W19387  38.492   7.228   0.833
55620W        W19388  27.988  29.645  14.919
55621W        W19389  41.904  32.098   5.122
55622W        W19390  40.977  22.168  12.836
55623W        W19391   2.886  16.150  14.310
55624W        W19392  28.615   7.695  12.539
55625W        W19393  34.104  19.069   2.789
55626W        W19394  32.965   5.688  13.925
55627W        W19395  38.977  30.632   0.838
55628W        W19396  43.463  21.610  14.315
55629W        W19397  33.965  23.134   4.747
55630W        W19398  25.047   9.371  13.312
55631W        W19399   0.400  24.055   1.830
55632W        W19400  33.515  22.074   3.841
55633W        W19401   6.343  18.669  13.913
55634W        W19402  38.450  31.954  10.438
55635W        W19403  22.222   3.364  11.047
55636W        W19404  34.081  43.858   3.797
55637W        W19405   0.405  35.108  13.012
55638W        W19406   9.199  16.601   1.356
55639W        W19407  17.240  31.059  11.429
55640W        W19408   8.269  26.512  12.899
55641W        W19409  33.034   3.802  12.027
55642W        W19410  42.515  25.147  13.544
55643W        W19411  23.035  40.541   2.820
55644W        W19412  39.942   3.923   4.794
55645W        W19413  31.906   8.805   2.772
55646W        W19414  11.763  42.953  11.493
55647W        W19415  14.787  28.932  11.371
55648W        W19416  26.164  17.614   0.899
55649W        W19417  12.203  23.075  12.060
55650W        W19418  11.150  31.955  12.004
55651W        W19419  34.044   3.754  11.511
55652W        W19420  24.188   9.233   3.846
55653W        W19421  23.141  34.865   3.724
55654W        W19422  20.052  39.352  10.943
55655W        W19423   2.861  30.430   4.643
55656W        W19424  27.491  43.832  10.474
55657W        W19425   9.150  34.456  12.924
55658W        W19426  28.554  38.967  14.761
55659W        W19427  12.766  33.914  13.328
55660W        W19428  35.096  10.191  10.021
55661W        W19429  30.163   4.387  12.513
55662W        W19430  25.120  18.773  13.376
55663W        W19431  18.245  35.494  12.370
55664W        W19432  41.886  39.027   1.400
55665W        W19433   6.760  27.097   0.336
55666W        W19434  21.148  33.415  10.968
55667W        W19435  15.804  17.067   3.736
55668W        W19436  26.995   4.353   1.250
55669W        W19437  15.639   8.314  14.281
55670W        W19438   2.352  44.867   2.764
55671W        W19439  43.485  18.605  10.465
55672W        W19440   4.412  30.913  13.006
55673W        W19441  10.722  38.841  11.568
55674W        W19442  21.141  41.393  12.361
55675W        W19443  14.607  40.453   1.340
55676W        W19444   1.381   1.821   1.866
55677W        W19445   3.724  12.261  11.911
55678W        W19446  35.014  12.822   4.145
55679W        W19447   3.404  38.470   4.796
55680W        W19448  27.518   9.726  10.595
55681W        W19449  44.498  34.473  13.017
55682W        W19450  38.365  34.566   4.184
55683W        W19451  37.454  10.813  10.995
55684W        W19452  37.528  26.671   5.147
55685W        W19453  32.061  35.538  11.544
55686W        W19454  40.993  38.416   3.263
55687W        W19455  10.732  27.676  13.797
55688W        W19456  13.757  21.620  10.610
55689W        W19457  16.709  43.307   1.443
55690W        W19458  31.435   3.768   0.749
55691W        W19459   0.791  44.305  10.529
55692W        W19460  29.059   9.862  14.029
55693W        W19461  22.224  29.152  11.601
55694W        W19462   4.860  29.427  14.317
55695W        W19463  39.378  38.566   1.393
55696W        W19464   6.902   6.801   0.386
55697W        W19465  20.622  22.620   3.842
55698W        W19466  16.811  22.655   1.701
55699W        W19467  14.196  19.723  12.547
55700W        W19468   1.415   0.777  12.071
55701W        W19469  14.263   7.189  13.319
55702W        W19470   8.383  28.035  10.970
55703W        W19471  13.757  31.080   3.356
55704W        W19472  31.944  42.491  11.897
55705W        W19473   0.377  12.345  12.441
55706W        W19474  43.830   3.285   3.272
55707W        W19475  19.087  14.278   3.639
55708W        W19476  42.799  43.474   3.844
55709W        W19477  19.043   7.728   1.435
55710W        W19478   9.847   0.784  14.932
55711W        W19479  32.503  41.976   0.417
55712W        W19480  16.580  24.145  11.520
55713W        W19481  20.679  28.146   0.317
55714W        W19482  32.559   1.895   5.149
55715W        W19483  26.136  29.595  13.859
55716W        W19484  33.543  28.504  13.538
55717W        W19485  23.078  16.135  14.804
55718W        W19486  29.943  38.895   1.768
55719W        W19487   6.335   7.749  13.982
55720W        W19488  42.797  44.868   1.437
55721W        W19489  17.749  42.300   2.405
55722W        W19490  13.845  10.382  14.978
55723W        W19491  23.155  44.357   0.448
55724W        W19492  15.746  29.502  10.456
55725W        W19493  22.509  40.835  10.074
55726W        W19494  25.057  21.623  14.338
55727W        W19495  42.960   8.882  10.150
55728W        W19496   5.873  28.955  12.856
55729W        W19497   5.332  21.754   1.934
55730W        W19498  40.036  29.637   9.970
55731W        W19499  31.591   3.413  13.410
55732W        W19500  20.752  15.099  10.444
55733W        W19501   1.473  31.999  10.584
55734W        W19502  40.506  28.617   4.830
55735W        W19503  22.093   9.379   4.174
55736W        W19504  44.333  10.772   3.816
55737W        W19505  39.965  13.227  14.968
55738W        W19506   0.286  14.744   1.915
55739W        W19507  34.613  16.073   4.338
55740W        W19508  25.523  39.321   2.364
55741W        W19509  21.719  12.130  11.535
55742W        W19510  18.655  15.645   2.887
55743W        W19511  29.080   5.425   0.298
55744W        W19512  41.476  25.168   0.909
55745W        W19513  21.650   0.305   2.853
55746W        W19514  18.075  41.520  11.946
55747W        W19515  25.650   2.966  13.857
55748W        W19516  12.281   4.725  14.444
55749W        W19517  29.039   7.268  12.866
55750W        W19518  34.483  21.213  12.558
55751W        W19519  35.521   3.805   3.759
55752W        W19520   1.852   1.478   1.784
55753W        W19521  25.095  22.560   3.192
55754W        W19522  28.023  37.944  11.449
55755W        W19523  11.180  13.237   0.880
55756W        W19524   3.904  32.124   2.211
55757W        W19525  44.985   3.786   3.183
55758W        W19526   2.386   3.404  10.095
55759W        W19527  37.357  42.466  12.526
55760W        W19528   6.352  32.929  10.421
55761W        W19529   2.914  36.592  14.944
55762W        W19530  24.520  19.228  13.831
55763W        W19531  26.656  38.833   1.237
55764W        W19532  16.263  22.638  11.500
55765W        W19533  35.435   6.887  13.039
55766W        W19534  40.887  30.917   1.877
55767W        W19535   6.240  33.572  10.473
55768W        W19536  41.511  26.653  13.438
55769W        W19537   3.331  20.738  12.044
55770W        W19538   5.770  42.293   0.840
55771W        W19539  35.034   6.756  14.419
55772W        W19540  21.166  30.114  13.456
55773W        W19541  11.186  33.430   2.766
55774W        W19542  20.058  10.251  13.858
55775W        W19543   9.180  37.071   4.121
55776W        W19544  42.947  39.041  13.511
55777W        W19545  29.450  11.305  12.358
55778W        W19546  39.470   4.823  11.892
55779W        W19547   2.226   7.878   1.726
55780W        W19548  24.054  20.214   1.876
55781W        W19549  18.249  38.995  13.545
55782W        W19550  21.233  27.957   1.244
55783W        W19551  37.890  27.519  14.364
55784W        W19552  42.475   5.868  10.632
55785W        W19553  14.234  44.805  14.845
55786W        W19554  13.330  22.664   4.714
55787W        W19555  44.486  33.595  10.627
55788W        W19556   9.151  33.886  10.498
55789W        W19557  38.946  12.732   4.771
55790W        W19558  43.445  18.775  12.580
55791W        W19559  39.026  27.558   9.614
55792W        W19560  28.162  15.634   0.837
55793W        W19561  41.950  36.494   3.193
55794W        W19562  29.588  31.541  10.590
55795W        W19563  37.868  39.364  13.373
55796W        W19564   0.806  39.423   4.776
55797W        W19565  21.257   9.217   5.099
55798W        W19566  26.552   3.267  14.340
55799W        W19567  39.471  41.377  12.096
55800W        W19568  44.274   5.214   4.744
55801W        W19569  37.853  37.930  12.507
55802W        W19570  27.122   7.211   0.247
55803W        W19571  30.101  30.428  14.760
55804W        W19572  28.153   5.199   0.897
55805W        W19573  17.795  19.772   1.770
55806W        W19574  33.127   2.766   2.410
55807W        W19575  15.702  25.569  13.062
55808W        W19576  14.108   2.889   4.313
55809W        W19577  36.846   3.755  11.940
55810W        W19578  25.056  24.051   3.296
55811W        W19579  39.951  36.457   0.739
55812W        W19580  35.526   8.331   5.761
55813W        W19581  41.896  10.633   4.724
55814W        W19582  22.718  30.658  11.014
55815W        W19583  22.138  24.598  13.955
55816W        W19584  41.321  41.368   3.740
55817W        W19585   9.383  44.883  10.459
55818W        W19586   7.720  26.080  12.510
55819W        W19587  43.807  18.242  14.769
55820W        W19588  28.515  27.178   2.805
55821W        W19589  28.548  13.707  12.893
55822W        W19590  21.587  23.133  10.468
55823W        W19591   7.383  23.990  14.307
55824W        W19592  29.494  25.489  13.362
55825W        W19593  38.980  22.142   9.999
55826W        W19594  41.341   7.856   1.890
55827W        W19595   1.281   8.228  10.521
55828W        W19596  35.886  32.097   1.435
55829W        W19597  22.079  36.349   3.743
55830W        W19598   6.716  27.508   1.856
55831W        W19599  36.997  37.044   3.258
55832W        W19600  22.232  30.548  13.334
55833W        W19601   7.221  43.278   1.893
55834W        W19602  43.957  33.413  14.480
55835W        W19603  35.492  27.082   3.296
55836W        W19604  25.061  22.540  11.890
55837W        W19605  13.273   4.352  12.563
55838W        W19606  14.225  23.572   2.248
55839W        W19607  17.184  13.349   1.304
55840W        W19608  35.058  22.103  11.126
55841W        W19609   7.755  42.823  13.795
55842W        W19610  17.235  21.070   1.895
55843W        W19611  37.914   4.857   2.239
55844W        W19612  44.949   1.753   5.161
55845W        W19613   5.717   0.341  11.064
55846W        W19614   5.248  39.005   1.785
55847W        W19615  19.271   2.810   1.211
55848W        W19616  15.630  29.450   4.601
55849W        W19617   7.230   2.381   1.878
55850W        W19618  28.006   2.309   3.358
55851W        W19619   8.827   1.324  12.946
55852W        W19620  15.617  19.121   4.724
55853W        W19621  27.941  33.875  10.984
55854W        W19622  40.035   7.852   3.834
55855W        W19623  34.017  13.674   0.813
55856W        W19624   3.733  27.581   1.339
55857W        W19625  18.211   6.268  14.876
55858W        W19626  30.926  25.678   1.417
55859W        W19627   9.366  37.415   0.744
55860W        W19628  21.747  36.899   1.817
55861W        W19629  43.830  13.648  14.394
55862W        W19630  10.314  18.570   0.322
55863W        W19631  25.483  31.548  12.093
55864W        W19632  39.434   8.853  14.414
55865W        W19633  42.873  12.332  10.519
55866W        W19634  29.997  35.074   2.903
55867W        W19635   3.428  24.982  12.545
55868W        W19636  35.479  14.094  10.596
55869W        W19637  22.661  27.672   0.382
55870W        W19638   3.416  12.153   2.672
55871W        W19639  21.024  33.062  10.049
55872W        W19640  22.519  23.994  14.903
55873W        W19641  34.494  21.238   3.331
55874W        W19642  35.363  34.387   4.198
55875W        W19643  41.816   5.781   3.777
55876W        W19644   2.853  31.622  10.469
55877W        W19645  40.977  15.137   3.740
55878W        W19646  23.643   1.454   1.862
55879W        W19647  30.558  44.985   2.724
55880W        W19648  33.609  19.725  12.356
55881W        W19649  19.090  36.511  14.971
55882W        W19650   9.723  13.835   3.275
55883W        W19651  42.408  37.075  14.474
55884W        W19652  22.608  32.142   1.289
55885W        W19653  35.455  20.093  12.870
55886W        W19654  33.576  16.752   2.189
55887W        W19655   6.695  14.754   4.169
55888W        W19656  36.841  28.609   4.763
55889W        W19657  35.047  38.943  13.420
55890W        W19658   7.709   3.913   2.261
55891W        W19659   3.346  30.595  10.991
55892W        W19660  33.998  39.397   4.245
55893W        W19661  16.248  31.531   1.865
55894W        W19662  19.680  39.819   4.344
55895W        W19663  31.005   8.287  12.995
55896W        W19664  11.757   5.883   0.348
55897W        W19665  35.379   9.329   2.893
55898W        W19666  19.058  26.080  10.989
55899W        W19667  27.047  34.492   0.380
55900W        W19668  43.932  15.660   3.732
55901W        W19669  32.592  27.065  13.977
55902W        W19670  26.464  37.416   1.344
55903W        W19671  11.263  42.005  12.524
55904W        W19672  25.690  42.482   2.369
55905W        W19673  36.484  39.427  10.601
55906W        W19674  12.315  43.933  13.892
55907W        W19675  44.274  37.479  11.391
55908W        W19676  33.041  26.499  14.032
55909W        W19677  30.911  41.372  13.416
55910W        W19678  25.673  30.517   2.304
55911W        W19679  28.152  21.612   0.322
55912W        W19680  27.632  22.683   2.277
55913W        W19681  27.473  25.707   3.855
55914W        W19682  16.194  42.384   4.304
55915W        W19683  20.051   7.686  14.759
55916W        W19684  31.442  25.486   0.395
55917W        W19685  39.463  30.011   0.801
55918W        W19686  30.984  35.367   0.875
55919W        W19687  25.987   2.840   0.774
55920W        W19688   3.767  18.766   4.724
55921W        W19689  17.164  28.517   4.775
55922W        W19690  27.108  43.863  14.448
55923W        W19691   0.468  31.647   1.717
55924W        W19692  33.507  31.456   3.727
55925W        W19693  28.515  25.994  12.393
55926W        W19694  11.197   6.211  11.885
55927W        W19695  14.675  26.077  12.977
55928W        W19696   0.338  11.333  14.899
55929W        W19697   9.653  12.665   0.940
55930W        W19698  22.524   0.397  11.436
55931W        W19699  22.617  10.157   3.339
55932W        W19700  32.040  15.657   4.290
55933W        W19701  15.264  40.904  12.993
55934W        W19702  23.700  43.507  14.774
55935W        W19703  44.419  25.580   3.364
55936W        W19704   9.183  23.591   2.322
55937W        W19705  43.887  24.533  14.297
55938W        W19706  23.031   9.706  10.891
55939W        W19707  39.883  18.108  12.984
55940W        W19708  40.956   1.256  10.932
55941W        W19709  10.368  20.086   0.741
55942W        W19710  11.244  22.074  10.415
55943W        W19711   7.779   7.762   4.206
55944W        W19712  27.690  10.748  10.112
55945W        W19713  16.112  33.484   0.257
55946W        W19714  40.516  22.083   1.735
55947W        W19715  19.543  31.119   1.258
55948W        W19716  16.790  13.764   2.388
55949W        W19717  33.379  13.792  14.515
55950W        W19718  22.690   5.210  11.011
55951W        W19719  41.310   6.411   0.967
55952W        W19720  12.777  38.032   0.408
55953W        W19721  10.309   8.204  12.399
55954W        W19722  11.322  16.581   4.228
55955W        W19723   9.718  26.027   1.921
55956W        W19724  19.754  40.880  11.016
55957W        W19725  32.098  38.897  12.905
55958W        W19726  12.806  40.542   3.804
55959W        W19727   4.765  12.613   2.210
55960W        W19728  10.698   1.798   0.332
55961W        W19729  11.758  15.756   4.689
55962W        W19730  42.907   9.844   3.658
55963W        W19731  13.784  26.132   1.928
55964W        W19732  35.898  43.785   4.129
55965W        W19733  27.512  11.229  12.504
55966W        W19734  20.248   6.333  12.856
55967W        W19735  33.514  35.545   2.203
55968W        W19736  13.842  30.063   0.816
55969W        W19737  42.949  40.453   1.721
55970W        W19738  28.458  14.656   4.647
55971W        W19739   6.739  31.598   3.775
55972W        W19740  12.821  37.417  13.932
55973W        W19741   6.425  31.024   1.333
55974W        W19742   4.384  19.171   4.757
55975W        W19743  35.522  14.773  10.923
55976W        W19744  15.613   6.792   3.791
55977W        W19745   3.381  18.605   3.804
55978W        W19746  29.028  27.067  11.417
55979W        W19747   0.293  29.538  11.461
55980W        W19748   4.832  40.912  11.865
55981W        W19749  31.589  31.128  14.939
55982W        W19750   1.425  14.748   3.308
55983W        W19751  29.439   8.749  13.028
55984W        W19752   5.769  38.983  10.944
55985W        W19753  35.597  33.426  11.867
55986W        W19754  20.219  36.562   0.465
55987W        W19755   3.261  31.949   4.167
55988W        W19756   5.301  16.753   3.267
55989W        W19757  27.042  18.613   4.274
55990W        W19758  18.178  37.852   1.251
55991W        W19759   1.357  21.581   0.843
55992W        W19760  42.488  28.594   3.160
55993W        W19761  24.587  10.249   5.633
55994W        W19762  15.780  38.547   2.195
55995W        W19763  38.565  34.530   0.894
55996W        W19764  10.755  16.710  10.548
55997W        W19765  12.643   0.863   0.326
55998W        W19766  17.764  11.236   1.695
55999W        W19767   2.959  23.584  10.980
56000W        W19768  23.560  30.072  13.032
56001W        W19769  27.002  35.505  13.000
56002W        W19770  10.803  33.936  12.893
56003W        W19771   2.870   0.765   4.325
56004W        W19772  35.938   4.853   0.391
56005W        W19773  38.007  36.005  14.941
56006W        W19774   7.324   8.878  12.459
56007W        W19775  24.492  26.027  11.102
56008W        W19776   2.458  23.046   1.729
56009W        W19777   5.818  17.761  10.588
56010W        W19778  15.258  19.754  10.443
56011W        W19779  40.527   9.291  12.864
56012W        W19780  31.532   8.350  14.019
56013W        W19781   2.813  28.079   4.164
56014W        W19782  34.914  23.646   2.312
56015W        W19783  18.229  14.242  14.882
56016W        W19784  21.133  16.153  10.577
56017W        W19785  39.469   7.886   1.838
56018W        W19786  33.498  42.495   0.466
56019W        W19787  33.971  22.116  12.911
56020W        W19788  34.073  39.825  12.889
56021W        W19789  20.065  14.259   4.179
56022W        W19790   1.788  17.199   3.795
56023W        W19791  14.109  35.027  14.889
56024W        W19792   7.348   3.449   4.278
56025W        W19793  11.214   4.897   1.842
56026W        W19794  39.349  17.288  14.335
56027W        W19795  26.699  38.467   3.370
56028W        W19796   3.392  38.947  13.939
56029W        W19797  16.574   9.206   3.713
56030W        W19798  26.179   4.236   4.276
56031W        W19799  27.619  39.836   3.169
56032W        W19800   2.329  15.619   4.695
56033W        W19801  44.978   9.378  13.404
56034W        W19802  18.579   8.882  14.942
56035W        W19803  36.533  30.047   3.259
56036W        W19804  24.116  43.878   0.760
56037W        W19805  19.093  30.507  13.063
56038W        W19806   4.698  36.525  14.828
56039W        W19807  34.981  41.375   4.620
56040W        W19808  26.006  26.619  13.480
56041W        W19809  38.851  32.035   5.309
56042W        W19810   2.736  18.203  13.937
56043W        W19811  28.003  40.482   9.946
56044W        W19812  21.736  19.140  10.445
56045W        W19813  11.689   4.334   3.719
56046W        W19814  25.526  34.588  14.786
56047W        W19815   5.342   9.734   0.372
56048W        W19816   2.280  10.310  10.937
56049W        W19817   6.701  34.873   0.469
56050W        W19818   9.792  36.906   0.338
56051W        W19819  33.067  42.498   1.711
56052W        W19820  25.713  27.641  13.520
56053W        W19821  21.516  13.125  14.771
56054W        W19822  13.799  30.580   1.797
56055W        W19823  15.269  25.519  10.605
56056W        W19824  40.828  33.605  11.586
56057W        W19825  23.226  24.514  13.813
56058W        W19826  23.180  16.602  14.401
56059W        W19827  27.950  11.867   0.935
56060W        W19828  11.796  23.096   0.264
56061W        W19829  28.118  11.721   3.786
56062W        W19830  38.974  26.505   1.756
56063W        W19831  42.980   0.830   0.926
56064W        W19832  12.695  10.240   2.749
56065W        W19833  41.354  13.680   3.779
56066W        W19834  34.499  30.447   1.396
56067W        W19835   2.229  38.027   1.871
56068W        W19836  39.363  19.594  13.002
56069W        W19837  41.374   6.344   0.389
56070W        W19838  21.023  40.393  12.867
56071W        W19839  12.299  39.811  14.307
56072W        W19840  35.934  15.271   3.292
56073W        W19841  23.605  36.075  10.938
56074W        W19842  26.062  43.405  12.519
56075W        W19843  36.053  39.911   2.337
56076W        W19844  24.183  44.329  10.562
56077W        W19845  33.609   6.896   9.931
56078W        W19846   1.450  20.085  12.048
56079W        W19847   9.251  26.650   2.709
56080W        W19848  30.425  22.195   2.326
56081W        W19849  29.627  15.707   1.268
56082W        W19850  26.472  33.900  12.055
56083W        W19851  23.576   4.787  12.456
56084W        W19852  42.443  12.636   4.312
56085W        W19853  19.551   6.773   1.741
56086W        W19854  36.085  43.379  11.491
56087W        W19855   7.394  14.308  10.633
56088W        W19856  38.467  27.091  13.394
56089W        W19857  33.571  34.584  10.975
56090W        W19858  42.484   5.411  11.455
56091W        W19859  13.220   4.853  12.487
56092W        W19860  23.052  22.735  14.353
56093W        W19861  17.157  17.206   4.290
56094W        W19862   1.346  34.407   0.415
56095W        W19863   9.247   9.342   3.318
56096W        W19864   0.811   9.870  10.472
56097W        W19865   5.760  39.915   4.630
56098W        W19866  40.818   4.422   0.469
56099W        W19867  29.147  42.494   3.346
56100W        W19868  32.422  13.711   4.114
56101W        W19869  26.620  13.142  12.365
56102W        W19870   9.200  29.097   3.674
56103W        W19871  17.662  10.280  12.059
56104W        W19872   7.788  11.757  10.507
56105W        W19873  39.336  29.175  14.994
56106W        W19874  37.371   3.454  12.371
56107W        W19875  39.459  26.048  14.498
56108W        W19876  20.262  17.295   4.732
56109W        W19877  40.896  37.011   0.450
56110W        W19878   6.824  14.283  14.348
56111W        W19879  18.206  29.933  13.417
56112W        W19880  11.141  42.521  14.885
56113W        W19881  24.198  38.839   4.798
56114W        W19882  40.863   3.322   2.664
56115W        W19883   8.782   9.848  13.791
56116W        W19884   5.778   2.291   1.716
56117W        W19885  41.797   8.253   0.321
56118W        W19886   4.316   8.283  11.870
56119W        W19887   7.828   7.828  14.471
56120W        W19888  43.962  22.048  14.861
56121W        W19889   5.835  25.684  13.535
56122W        W19890   9.310  21.046   9.986
56123W        W19891  32.135  17.298   4.224
56124W        W19892  36.521  23.207  11.450
56125W        W19893  41.922   9.298   1.756
56126W        W19894  28.593  36.081  14.355
56127W        W19895  12.851  18.052   1.924
56128W        W19896  32.934  36.491   2.272
56129W        W19897  39.454  27.579   0.966
56130W        W19898  16.214  11.727   1.263
56131W        W19899  12.199  25.142  10.582
56132W        W19900  15.157  16.274   1.412
56133W        W19901  14.221  22.562  11.073
56134W        W19902  18.137  44.882   3.253
56135W        W19903  21.161   3.847  11.087
56136W        W19904  23.072  25.615  10.431
56137W        W19905  25.699  26.661  14.842
56138W        W19906  15.164  21.707   2.213
56139W        W19907   4.252   5.842   1.734
56140W        W19908   2.398  29.943   0.760
56141W        W19909  14.615  21.110  10.486
56142W        W19910  27.087  42.923  14.994
56143W        W19911   0.286  43.768   0.346
56144W        W19912  20.583   6.214   1.825
56145W        W19913   8.880  29.060  13.816
56146W        W19914   3.725  15.586  11.907
56147W        W19915  36.562   4.284   2.682
56148W        W19916  25.676  38.044   0.246
56149W        W19917   9.690  31.551  14.503
56150W        W19918  31.972   9.864  12.025
56151W        W19919  29.053   4.743  10.590
56152W        W19920  31.017  42.810   4.232
56153W        W19921  12.688  33.381   4.166
56154W        W19922   7.872  13.303   1.385
56155W        W19923  29.067  33.518   1.399
56156W        W19924  39.383  10.649  12.357
56157W        W19925   9.743  23.535  14.794
56158W        W19926   6.716  16.173  10.931
56159W        W19927  37.360  22.713  11.862
56160W        W19928  17.624  31.448  13.812
56161W        W19929  38.384  37.081  10.560
56162W        W19930  31.603   8.734  13.442
56163W        W19931  31.487  25.116   1.866
56164W        W19932   6.815  13.626  14.499
56165W        W19933  30.077  25.995   1.796
56166W        W19934  35.388  30.527   4.635
56167W        W19935  10.243  31.013  14.800
56168W        W19936  25.574  33.615  13.048
56169W        W19937  13.280   3.395   3.146
56170W        W19938  30.925  21.731  11.060
56171W        W19939  37.961  12.165  13.445
56172W        W19940   8.827  39.317  11.943
56173W        W19941  31.616  40.434   4.685
56174W        W19942   8.207  16.724  13.928
56175W        W19943  17.641  11.148   3.182
56176W        W19944   7.283  32.142  12.865
56177W        W19945  29.971   4.361  14.480
56178W        W19946   7.249  16.594   1.287
56179W        W19947  42.874  27.978  14.292
56180W        W19948  31.567   6.696  12.470
56181W        W19949  20.269  16.092  12.004
56182W        W19950  39.544  32.127   4.160
56183W        W19951  12.350  18.629  13.381
56184W        W19952  13.820  16.631   0.835
56185W        W19953  14.264  32.925   0.873
56186W        W19954  27.556  43.342   1.247
56187W        W19955  35.898  23.566  12.873
56188W        W19956  20.679  22.736  14.914
56189W        W19957  41.437  31.464   5.244
56190W        W19958  10.222  21.523   1.321
56191W        W19959  27.946  35.881   9.924
56192W        W19960  33.110  42.022  12.512
56193W        W19961  12.243  10.323   0.436
56194W        W19962  22.505  33.956  10.032
56195W        W19963  11.707  38.471   4.207
56196W        W19964  14.199  13.746   3.170
56197W        W19965  11.292  35.060   3.352
56198W        W19966  16.311  24.489  11.596
56199W        W19967   4.816  17.753  11.921
56200W        W19968  20.593   4.884  10.550
56201W        W19969  41.991   7.870   0.734
56202W        W19970  23.173   8.840  11.071
56203W        W19971  33.493  32.969  13.809
56204W        W19972  42.426  20.533  12.933
56205W        W19973   1.433  14.315   1.341
56206W        W19974  34.495  42.957   5.246
56207W        W19975  32.936  29.083   1.724
56208W        W19976  18.237   7.231   2.859
56209W        W19977  25.136  22.064  14.833
56210W        W19978   5.336  36.436  12.070
56211W        W19979  21.202  37.396  14.809
56212W        W19980  44.480  29.530   1.801
56213W        W19981  25.571  34.538  12.394
56214W        W19982  43.884  34.460   4.326
56215W        W19983  42.325  18.567  12.381
56216W        W19984  43.018  27.060   3.865
56217W        W19985  29.171  34.958  14.467
56218W        W19986  14.151  25.672  13.963
56219W        W19987  31.902  37.912   4.197
56220W        W19988   1.746  18.776  13.488
56221W        W19989  18.252  19.586   2.680
56222W        W19990  41.453  39.823  13.986
56223W        W19991  31.510  23.143  14.946
56224W        W19992  26.995   8.760   2.250
56225W        W19993  10.284  14.333   2.766
56226W        W19994  21.086  15.632  14.453
56227W        W19995  27.163  43.338   4.724
56228W        W19996   3.905  21.119  12.840
56229W        W19997  16.133   2.876   0.417
56230W        W19998  22.603  27.058  13.971
56231W        W19999  15.329  31.101   0.278
56232W        W20000  16.616  35.531  10.563
56233W        W20001  28.968  22.641   0.893
56234W        W20002   7.172  13.748  12.985
56235W        W20003  16.583  13.604   4.264
56236W        W20004  18.660  20.261  11.914
56237W        W20005  30.104  42.901  14.813
56238W        W20006   7.401  29.493   1.344
56239W        W20007  31.072   2.941  12.963
56240W        W20008   3.763   4.246  14.299
56241W        W20009  10.208   3.877   3.850
56242W        W20010  24.656  39.011  12.929
56243W        W20011  37.337   3.273   3.689
56244W        W20012  41.472  11.158  13.366
56245W        W20013  29.921  15.237  11.972
56246W        W20014  23.506  21.663   4.291
56247W        W20015  35.538  34.580  13.511
56248W        W20016  38.415  37.053  10.895
56249W        W20017  44.894  27.579  11.587
56250W        W20018  18.233  28.669   0.823
56251W        W20019  21.618  37.830   4.116
56252W        W20020  29.526  30.489  13.547
56253W        W20021  27.583  33.132   3.291
56254W        W20022  10.858  20.111  14.011
56255W        W20023  37.445   9.327  11.964
56256W        W20024   2.469  16.191   1.809
56257W        W20025   1.430  31.448  13.358
56258W        W20026   0.934  43.920  12.454
56259W        W20027  33.492   9.681   3.856
56260W        W20028   8.845   2.788   4.825
56261W        W20029  12.724  14.749  12.570
56262W        W20030  34.545  43.891   0.929
56263W        W20031  30.486  28.583   3.699
56264W        W20032  14.821  24.996   3.674
56265W        W20033  27.944   2.451  11.465
56266W        W20034  31.939  15.117   0.394
56267W        W20035  11.803  33.065  12.577
56268W        W20036  44.461  22.550  12.431
56269W        W20037  28.023  41.438   5.092
56270W        W20038  28.543  21.551   3.783
56271W        W20039  20.074  38.505  13.837
56272W        W20040   8.251  42.930   1.357
56273W        W20041   3.853  11.315   3.736
56274W        W20042  36.496  25.536  11.611
56275W        W20043   3.281  32.560  12.470
56276W        W20044  28.172   6.297   4.625
56277W        W20045  17.566  19.106   0.909
56278W        W20046  21.052  32.911   0.791
56279W        W20047  27.130  10.277   4.222
56280W        W20048   3.227  27.948  14.825
56281W        W20049  19.246  29.545   0.445
56282W        W20050  42.298  13.696  13.948
56283W        W20051  24.179  11.778   1.847
56284W        W20052   3.299  18.784   2.187
56285W        W20053  40.339  12.231   3.864
56286W        W20054  27.181  29.449   3.674
56287W        W20055  24.000  23.038  13.898
56288W        W20056   7.396  18.255  11.969
56289W        W20057  44.409  25.994   3.837
56290W        W20058  31.444  23.705  12.042
56291W        W20059  34.091  22.553   2.865
56292W        W20060  22.637  13.787  12.929
56293W        W20061  22.628   7.238   0.907
56294W        W20062  34.008  23.183   3.845
56295W        W20063  27.940  32.083  14.515
56296W        W20064  41.464  19.277   0.819
56297W        W20065  10.171   4.293  12.428
56298W        W20066  17.115  29.120  13.013
56299W        W20067   4.450  15.695   4.271
56300W        W20068  27.051  33.528   4.147
56301W        W20069  15.607  36.533   4.790
56302W        W20070   1.259  44.842   4.719
56303W        W20071  12.725  10.797   4.120
56304W        W20072  29.546  38.372   4.788
56305W        W20073  22.116  36.868   2.375
56306W        W20074  32.105  31.973   1.417
56307W        W20075  30.566  18.786   1.751
56308W        W20076  41.841  42.008  13.542
56309W        W20077   2.343  32.428  11.946
56310W        W20078  44.297   8.742   3.663
56311W        W20079  25.205   2.432  13.502
56312W        W20080   7.217   1.455  12.868
56313W        W20081  43.968  22.154   3.870
56314W        W20082   9.263   6.688  10.567
56315W        W20083  40.888  22.501  13.801
56316W        W20084  27.655  37.013   0.259
56317W        W20085  17.562  21.560   1.321
56318W        W20086  14.221  17.289   4.296
56319W        W20087  26.100  20.059   3.170
56320W        W20088  25.488   9.775   3.204
56321W        W20089  26.083  12.206   2.780
56322W        W20090  36.842  20.703   2.781
56323W        W20091  31.042  38.443  10.449
56324W        W20092   3.745  26.508  12.981
56325W        W20093   1.885  24.667   1.839
56326W        W20094  24.093  38.483  12.961
56327W        W20095  31.977  10.274   5.227
56328W        W20096  34.380  31.450  10.528
56329W        W20097  10.146   3.349   4.669
56330W        W20098  15.272  44.852  10.630
56331W        W20099  29.932   2.435  13.961
56332W        W20100  40.481   4.940  10.411
56333W        W20101  43.311  31.425   2.735
56334W        W20102  18.594  32.394   2.733
56335W        W20103  37.068  17.290  11.013
56336W        W20104  10.758  28.036  13.535
56337W        W20105  32.587   2.861   4.245
56338W        W20106   6.338   5.735  13.057
56339W        W20107  32.498  14.133   9.990
56340W        W20108  33.539  36.552  11.439
56341W        W20109  36.358  17.588   2.331
56342W        W20110   8.400  39.475   2.794
56343W        W20111  22.136   6.807  12.421
56344W        W20112  16.234   2.735  12.069
56345W        W20113  10.338  39.495  12.496
56346W        W20114   5.216   5.416   0.368
56347W        W20115  31.110  28.446  10.622
56348W        W20116  18.721  22.728   4.325
56349W        W20117  32.927   3.880   1.919
56350W        W20118  14.692   5.726  13.388
56351W        W20119  31.472  28.460   1.365
56352W        W20120  44.495  43.894  14.382
56353W        W20121  30.938  43.922  11.042
56354W        W20122  20.181  32.440  13.972
56355W        W20123  23.559  19.734  13.867
56356W        W20124  18.286  42.376  13.484
56357W        W20125  27.656  34.528   3.707
56358W        W20126   8.331  16.142   1.912
56359W        W20127   0.833  37.457   4.165
56360W        W20128  14.270  35.013   4.738
56361W        W20129  31.150   6.210  10.089
56362W        W20130  34.980   0.948  10.074
56363W        W20131   1.912  21.680  13.538
56364W        W20132  42.442  36.592  14.508
56365W        W20133  43.410  40.521  12.550
56366W        W20134   3.756  16.775   3.705
56367W        W20135   3.427   0.776   4.781
56368W        W20136   0.250   1.962   4.637
56369W        W20137   8.790   6.703  10.546
56370W        W20138  41.446  44.441   3.370
56371W        W20139  37.913   2.365   0.768
56372W        W20140   4.907  30.982   2.300
56373W        W20141   1.278  10.741   0.342
56374W        W20142  21.537  20.715  13.047
56375W        W20143  11.332  38.392   4.191
56376W        W20144   5.704   0.440   2.743
56377W        W20145  33.929   6.271  12.046
56378W        W20146  27.500  43.909  13.916
56379W        W20147  28.521  44.411  13.791
56380W        W20148  20.647  17.772   3.182
56381W        W20149  13.766   9.680  12.418
56382W        W20150  13.126  29.647   4.330
56383W        W20151  21.211  40.414   3.679
56384W        W20152  27.615   4.830  10.494
56385W        W20153  27.163   1.377   1.302
56386W        W20154  19.144  15.761  10.987
56387W        W20155  29.636   5.784   0.439
56388W        W20156   6.725  32.600   3.799
56389W        W20157  30.947   3.916  14.969
56390W        W20158  35.486  29.439  10.894
56391W        W20159  22.548   9.767  10.105
56392W        W20160  42.986  31.428  13.039
56393W        W20161  15.146  28.680   1.857
56394W        W20162   1.847  36.020  12.944
56395W        W20163  29.944  31.648   4.836
56396W        W20164  21.589  27.475   1.740
56397W        W20165  29.004  11.273  13.991
56398W        W20166  44.462  18.579  14.497
56399W        W20167  44.871   6.364   1.337
56400W        W20168   4.796   8.664   5.117
56401W        W20169  39.372  15.307  14.297
56402W        W20170   8.230  42.293  14.894
56403W        W20171  44.844  21.226  14.941
56404W        W20172  33.936   9.230   4.174
56405W        W20173  44.810  34.958   0.737
56406W        W20174  11.193  11.242   1.786
56407W        W20175   4.304   2.953  11.030
56408W        W20176  37.572  30.135  11.494
56409W        W20177  40.441  40.016  12.092
56410W        W20178   8.716  33.560   2.682
56411W        W20179  22.201  21.625  13.930
56412W        W20180  13.609  20.087  10.045
56413W        W20181  22.023  25.051   4.136
56414W        W20182  42.957  18.096  14.814
56415W        W20183  38.919  22.174  11.393
56416W        W20184  22.197  42.923  13.487
56417W        W20185  20.702  34.448   3.151
56418W        W20186   2.261  30.122   2.713
56419W        W20187  22.742  13.825  11.454
56420W        W20188  36.925  29.544  14.926
56421W        W20189  33.519  32.905   2.343
56422W        W20190  23.600  24.562  10.540
56423W        W20191  24.133  19.195   4.770
56424W        W20192  19.126  28.638  14.963
56425W        W20193  27.620   9.653   1.717
56426W        W20194  42.963  21.135  12.874
56427W        W20195  35.423   7.347  13.865
56428W        W20196  39.823  30.161   0.483
56429W        W20197  23.095  25.116   0.897
56430W        W20198  32.425   0.468   0.355
56431W        W20199  24.209  24.111   4.304
56432W        W20200  24.661  10.693  13.516
56433W        W20201   4.376  20.762  14.833
56434W        W20202  25.974  12.117  14.850
56435W        W20203   7.835  18.052  13.508
56436W        W20204   4.812  12.206   2.284
56437W        W20205   6.795  33.001   0.893
56438W        W20206   1.767  26.669   2.890
56439W        W20207  21.033  11.131  12.909
56440W        W20208  27.655  34.015   4.223
56441W        W20209  33.929  19.126   0.757
56442W        W20210  37.525   9.696   0.258
56443W        W20211  26.536  37.575  11.527
56444W        W20212  15.159  25.520   0.262
56445W        W20213  33.124  44.898   3.278
56446W        W20214   9.681  40.003   0.919
56447W        W20215  12.269  23.495  13.840
56448W        W20216  28.994  36.869   0.433
56449W        W20217   6.710  43.965   4.807
56450W        W20218  25.598  34.108  14.823
56451W        W20219  18.152  35.508  10.003
56452W        W20220  18.755   0.398  11.515
56453W        W20221  40.525  13.106   1.744
56454W        W20222   0.397  10.161   0.744
56455W        W20223  17.736  25.207  14.293
56456W        W20224   6.755  24.532   4.266
56457W        W20225  38.913  20.571  14.881
56458W        W20226  44.301  18.222  11.877
56459W        W20227  23.145  32.127  11.101
56460W        W20228  16.306  19.650  14.420
56461W        W20229   0.896  37.459  11.519
56462W        W20230  32.576  27.541   0.898
56463W        W20231  10.702  12.299  11.035
56464W        W20232  40.882  22.646   1.788
56465W        W20233  19.141  42.917  14.302
56466W        W20234  36.469  36.932   2.282
56467W        W20235  31.031  37.862   4.118
56468W        W20236  44.908  36.372  13.852
56469W        W20237   5.868  22.569   0.262
56470W        W20238  38.966  36.481  13.052
56471W        W20239   2.748  33.104   5.584
56472W        W20240  41.306  33.422  14.028
56473W        W20241  28.990  11.156  13.041
56474W        W20242  25.964  22.013  13.813
56475W        W20243  38.982  23.143  12.354
56476W        W20244  44.985  22.081  14.947
56477W        W20245   9.276  14.151   4.828
56478W        W20246  30.155  16.710  11.942
56479W        W20247  21.069  18.293  11.066
56480W        W20248  25.538  39.019  11.880
56481W        W20249  10.804  16.239  11.999
56482W        W20250  43.283  18.603  13.812
56483W        W20251  15.758  32.415   1.213
56484W        W20252  25.699  40.514  10.909
56485W        W20253  22.109   4.807   1.935
56486W        W20254  20.100  38.484  13.448
56487W        W20255  14.243  24.619   2.402
56488W        W20256  16.596   2.722   0.881
56489W        W20257  11.720  26.973  12.890
56490W        W20258  30.596  34.989   4.280
56491W        W20259  34.576   5.725   4.250
56492W        W20260  18.749  19.133   1.413
56493W        W20261  30.523  28.633  10.456
56494W        W20262  26.559   7.178   0.782
56495W        W20263   8.738  40.369  12.572
56496W        W20264  36.430  33.113   1.824
56497W        W20265  15.645   7.265   2.879
56498W        W20266   1.866  42.934   1.406
56499W        W20267   0.749   2.241   0.288
56500W        W20268   4.906   5.792   1.767
56501W        W20269  39.351  28.450  13.958
56502W        W20270  37.508  39.467  13.844
56503W        W20271  42.018  41.362  12.872
56504W        W20272  15.649  23.093   0.332
56505W        W20273  26.659   0.856  12.460
56506W        W20274  42.972  22.032   0.362
56507W        W20275  33.038   3.731  14.891
56508W        W20276  27.595  14.096   4.775
56509W        W20277  22.252   6.721   3.259
56510W        W20278  42.309   6.697   2.250
56511W        W20279  15.253   2.764   3.657
56512W        W20280  37.057  23.692  13.435
56513W        W20281  12.826  25.631  12.555
56514W        W20282  13.630  21.676  12.886
56515W        W20283  26.968  31.535  14.934
56516W        W20284  26.990  17.713   1.438
56517W        W20285  21.599  39.333  12.403
56518W        W20286  41.402   6.806   3.715
56519W        W20287  22.688  29.593  14.938
56520W        W20288  22.006  37.431  11.909
56521W        W20289  34.456  18.760  10.144
56522W        W20290  41.955  24.092   0.280
56523W        W20291  10.817  39.907  10.623
56524W        W20292  19.116  32.116  12.393
56525W        W20293  14.269   7.334   1.703
56526W        W20294  41.338  35.863  14.361
56527W        W20295  14.678   7.352   4.783
56528W        W20296   3.928   6.720  10.431
56529W        W20297  13.284  43.922   0.729
56530W        W20298  38.477  10.315   9.521
56531W        W20299  42.903  17.692  13.935
56532W        W20300  20.595  36.042   3.819
56533W        W20301  34.936  27.151  12.398
56534W        W20302  38.983   6.905   2.366
56535W        W20303  22.666   9.653  14.972
56536W        W20304  39.386  16.674  12.899
56537W        W20305  41.413  41.903   0.304
56538W        W20306  18.090  17.746  11.878
56539W        W20307  36.976  39.892  10.953
56540W        W20308   2.371   3.835   2.178
56541W        W20309  34.448  32.966  12.392
56542W        W20310  34.045  28.123   3.725
56543W        W20311  41.982  22.229  10.491
56544W        W20312  43.446  28.501   1.895
56545W        W20313  25.682  31.512  12.930
56546W        W20314  28.981  26.134   4.712
56547W        W20315  18.730  18.584   5.193
56548W        W20316  40.909  34.977   2.725
56549W        W20317  13.165  27.019   2.320
56550W        W20318  24.723  31.025   1.262
56551W        W20319   4.705  17.644   0.341
56552W        W20320   9.290  21.589   3.836
56553W        W20321  23.198  35.494   2.244
56554W        W20322   0.334  34.449   2.345
56555W        W20323   3.308  20.174   3.300
56556W        W20324  26.701  29.134  14.421
56557W        W20325  43.903   8.320  10.904
56558W        W20326  15.786  44.291   2.241
56559W        W20327   1.276   4.258   4.686
56560W        W20328   7.290  22.589   5.276
56561W        W20329  17.680   0.761   2.338
56562W        W20330   9.256  40.909  10.426
56563W        W20331  22.687  12.771   4.812
56564W        W20332  28.954  41.036  11.926
56565W        W20333  25.189  14.818   3.684
56566W        W20334  40.474  10.838   2.408
56567W        W20335   4.380  18.171  11.460
56568W        W20336  18.710  41.790   2.214
56569W        W20337   1.395  32.547   3.180
56570W        W20338  17.125  19.664   0.348
56571W        W20339  33.131   1.358  11.970
56572W        W20340  36.845   5.777  12.511
56573W        W20341   4.414  37.839   4.652
56574W        W20342  14.200  37.459  13.388
56575W        W20343  44.381  28.602   4.251
56576W        W20344  44.337  10.803   3.324
56577W        W20345  16.317  26.056   2.710
56578W        W20346  10.203  34.483  13.856
56579W        W20347   8.218   2.238   2.746
56580W        W20348   1.277  38.335  10.587
56581W        W20349  11.209  26.041  12.519
56582W        W20350  31.144   3.382   2.900
56583W        W20351  40.517  15.805  10.460
56584W        W20352  36.064  33.971  13.325
56585W        W20353  12.321  16.299  11.129
56586W        W20354   5.349  17.140   4.226
56587W        W20355  41.889  37.393   1.922
56588W        W20356   8.371  23.161  13.934
56589W        W20357   9.244  26.991   4.225
56590W        W20358  39.350   7.271  12.859
56591W        W20359   2.434  23.089   1.226
56592W        W20360   3.746  40.988   1.423
56593W        W20361  23.493  21.031  13.487
56594W        W20362  19.594  23.673   9.502
56595W        W20363   2.820   6.774   1.214
56596W        W20364  33.593  24.652  12.024
56597W        W20365   2.801  39.322   4.688
56598W        W20366  31.428  26.462  12.366
56599W        W20367  20.643   5.278  10.972
56600W        W20368  34.538   9.288   9.487
56601W        W20369  35.395  20.143   3.749
56602W        W20370  38.943  25.094   4.209
56603W        W20371  32.571  16.306   1.818
56604W        W20372   9.265  23.051   3.298
56605W        W20373   4.288  27.445   1.878
56606W        W20374  25.150  27.070   3.770
56607W        W20375  21.585  15.185   3.326
56608W        W20376  18.164  16.725  13.993
56609W        W20377  22.236  21.553   0.943
56610W        W20378  17.726   9.735  11.547
56611W        W20379  38.453  41.999  12.034
56612W        W20380   1.815  43.874  11.407
56613W        W20381  28.996   1.289  14.926
56614W        W20382  30.429   2.465  13.997
56615W        W20383   2.249  43.489  12.071
56616W        W20384  17.287   5.837  12.883
56617W        W20385  10.280  11.302   1.804
56618W        W20386  32.417  32.136  11.568
56619W        W20387  39.978  30.419  11.938
56620W        W20388   2.759  17.555  12.372
56621W        W20389   4.928  33.476   3.799
56622W        W20390  44.931   0.388   0.949
56623W        W20391  38.497  23.680   4.712
56624W        W20392  35.359   0.899   3.668
56625W        W20393  21.098  31.928  11.422
56626W        W20394  44.333  42.896   9.989
56627W        W20395  10.196  32.129   1.306
56628W        W20396  41.802   3.796   0.310
56629W        W20397   8.740  18.568   0.765
56630W        W20398   2.727  28.456  11.570
56631W        W20399  39.978  32.001  14.877
56632W        W20400  23.061  30.519   1.846
56633W        W20401  25.002  16.574  14.798
56634W        W20402  19.135   0.359  13.483
56635W        W20403  22.665   8.361  14.914
56636W        W20404  31.547  39.356  14.382
56637W        W20405   0.958  19.193  12.480
56638W        W20406   6.314  41.535  12.512
56639W        W20407   3.418  10.691   1.312
56640W        W20408  17.600  23.071  10.091
56641W        W20409   5.922  11.134  11.578
56642W        W20410  29.650  25.696   1.740
56643W        W20411   2.808  15.710  13.411
56644W        W20412  27.037  39.810   4.697
56645W        W20413   7.340  25.018   3.273
56646W        W20414   3.782  30.634   3.764
56647W        W20415  23.060   9.287   0.481
56648W        W20416   4.301  37.011  12.031
56649W        W20417  23.654  31.588  12.085
56650W        W20418   1.355  14.204   2.684
56651W        W20419  16.763  16.249   0.834
56652W        W20420   3.248   8.203   4.775
56653W        W20421   1.928  30.503   0.465
56654W        W20422  18.226   5.271   3.165
56655W        W20423  26.980   4.239   2.381
56656W        W20424  26.612  17.158  13.360
56657W        W20425  17.723  43.385  10.582
56658W        W20426  31.491  15.329  10.062
56659W        W20427  42.921  33.011   1.264
56660W        W20428  37.553  13.279  12.474
56661W        W20429  35.444  41.995  14.323
56662W        W20430  33.063   3.332  12.502
56663W        W20431   7.896   3.273  10.008
56664W        W20432  16.586  42.335   2.252
56665W        W20433  33.925  39.528  10.960
56666W        W20434  40.998  39.824   1.268
56667W        W20435  24.701   7.869   2.691
56668W        W20436  12.118  35.870   0.797
56669W        W20437  11.128  18.132  10.522
56670W        W20438  12.720  34.400   1.371
56671W        W20439  18.126  32.888  11.371
56672W        W20440  32.416  15.745   3.819
56673W        W20441  33.592  42.487   1.803
56674W        W20442  35.916  40.397  13.791
56675W        W20443   7.317  21.034   0.350
56676W        W20444  28.601   9.837   4.601
56677W        W20445  24.982  44.951   4.276
56678W        W20446  26.683  14.832  12.463
56679W        W20447  10.185  15.675  10.407
56680W        W20448   5.828  34.512   3.677
56681W        W20449  17.570  43.765  11.942
56682W        W20450  17.743  15.083  12.898
56683W        W20451  20.687   6.923   1.246
56684W        W20452  13.772   9.164  14.981
56685W        W20453  16.642   1.876   2.203
56686W        W20454   6.243  36.485  11.036
56687W        W20455  13.149  28.164  12.464
56688W        W20456   1.355  27.952   0.471
56689W        W20457  23.653   6.351   3.160
56690W        W20458  43.850  35.435   3.318
56691W        W20459  42.420   0.988   3.293
56692W        W20460  15.174   0.802   0.298
56693W        W20461  16.624   0.480  10.439
56694W        W20462  38.861  25.983   0.822
56695W        W20463  20.649   2.227   0.251
56696W        W20464   0.323  10.687   4.708
56697W        W20465  32.932  18.789  12.471
56698W        W20466  32.430  34.486   3.660
56699W        W20467  34.954   6.398   2.330
56700W        W20468   1.763   3.849   3.773
56701W        W20469  22.505  40.818   0.944
56702W        W20470  15.656  30.119  12.450
56703W        W20471  38.062  10.299  10.102
56704W        W20472  20.157   8.689  13.845
56705W        W20473  37.012  39.929  14.841
56706W        W20474  24.160  33.390  12.485
56707W        W20475  15.243  19.050  14.864
56708W        W20476  24.567  10.839   1.810
56709W        W20477  42.393  24.046  13.978
56710W        W20478  15.618   3.933   3.717
56711W        W20479  23.663  26.181   2.745
56712W        W20480  43.877  26.200   3.353
56713W        W20481  22.743   3.799  11.000
56714W        W20482  35.387  25.667  14.285
56715W        W20483  14.601  30.093   3.191
56716W        W20484  10.280  42.816  10.447
56717W        W20485  25.129  19.656   4.256
56718W        W20486  42.943  19.048   1.843
56719W        W20487   3.383   7.334  12.885
56720W        W20488  24.587  21.747   4.619
56721W        W20489  42.776  27.001  11.552
56722W        W20490   1.761  34.431  13.368
56723W        W20491  39.341  22.645   4.609
56724W        W20492  39.901   7.325   0.443
56725W        W20493  43.516  10.656   2.400
56726W        W20494   0.867  42.830   5.168
56727W        W20495  44.843  37.045   3.349
56728W        W20496  39.036  41.928   3.721
56729W        W20497  22.166  25.997   2.765
56730W        W20498  14.315  44.502   2.668
56731W        W20499   3.727   9.179   3.772
56732W        W20500  42.327  33.004  10.895
56733W        W20501   2.832   3.304   2.237
56734W        W20502  10.349  39.971  10.139
56735W        W20503  28.500  16.297   3.852
56736W        W20504  14.286  19.587   4.171
56737W        W20505   0.839  33.537  11.394
56738W        W20506  27.173  19.545  12.002
56739W        W20507   3.835  44.441   5.100
56740W        W20508   7.228  35.363   4.665
56741W        W20509   0.260  25.054  14.959
56742W        W20510   0.878   0.355  12.950
56743W        W20511  23.594  41.967   0.412
56744W        W20512  29.975   1.454   0.787
56745W        W20513  37.578   2.811  14.294
56746W        W20514  15.663   3.257   2.389
56747W        W20515   4.375  21.700   1.229
56748W        W20516  20.719  33.554   3.864
56749W        W20517  17.157  29.920  12.539
56750W        W20518  20.196  10.652  11.097
56751W        W20519  38.072   0.304   0.397
56752W        W20520   2.350  44.885   1.872
56753W        W20521   9.326   9.801   4.720
56754W        W20522  16.137   8.890  13.947
56755W        W20523  37.063  34.543   1.885
56756W        W20524   8.178  40.530   2.763
56757W        W20525  12.115  38.361   0.956
56758W        W20526  20.056  18.153   2.751
56759W        W20527   5.390   3.390  13.921
56760W        W20528  25.207   9.702   3.631
56761W        W20529   1.873  32.927  14.986
56762W        W20530  42.883  18.147   1.320
56763W        W20531  14.305  23.535   5.752
56764W        W20532  19.060  14.216   1.354
56765W        W20533  36.458  41.894  14.984
56766W        W20534  15.759  44.785   0.392
56767W        W20535  42.339  32.994   4.206
56768W        W20536  32.955  27.133   0.247
56769W        W20537  15.202  11.718  13.846
56770W        W20538  19.190   0.924   4.241
56771W        W20539  17.137   8.276  10.437
56772W        W20540   5.697  24.193   3.709
56773W        W20541  19.088  19.593   2.178
56774W        W20542  36.382  16.132  14.331
56775W        W20543  27.626   8.227  10.927
56776W        W20544   1.416  12.280  10.477
56777W        W20545   9.649  43.984  13.424
56778W        W20546   1.247  40.410  13.316
56779W        W20547   2.812  19.122   3.325
56780W        W20548  26.189  35.067   3.662
56781W        W20549  40.951  31.080   0.259
56782W        W20550  32.139  16.757  11.592
56783W        W20551   6.328  12.279   3.256
56784W        W20552  38.507  42.281  14.394
56785W        W20553  42.945  42.430  14.943
56786W        W20554  13.718  41.917   0.263
56787W        W20555  31.088  27.991  10.547
56788W        W20556  11.144  19.762   2.405
56789W        W20557   2.744  34.475   3.299
56790W        W20558  41.983  40.887   1.701
56791W        W20559  32.959   2.780   1.391
56792W        W20560  32.061  23.603  13.794
56793W        W20561   7.185   4.231  10.632
56794W        W20562  29.979  36.456   2.342
56795W        W20563   1.895  34.100   0.727
56796W        W20564   0.956  22.222   1.430
56797W        W20565  21.034  33.590  14.496
56798W        W20566  33.980   4.432   2.291
56799W        W20567  34.474   6.345  14.451
56800W        W20568  12.218  26.020  12.379
56801W        W20569  17.776  25.971  11.453
56802W        W20570  20.549   2.438  11.542
56803W        W20571  33.562  22.128   4.824
56804W        W20572  22.502  10.304  12.932
56805W        W20573  39.902  28.014  11.597
56806W        W20574  38.490  11.322  13.972
56807W        W20575   6.366  39.059   0.907
56808W        W20576  11.807   9.200  14.902
56809W        W20577  37.464  16.760  11.459
56810W        W20578   0.869   4.829   4.607
56811W        W20579  33.025  15.250   9.999
56812W        W20580   6.750  12.162  14.360
56813W        W20581  19.178  21.227   2.693
56814W        W20582   7.812   4.795   5.192
56815W        W20583  18.579  35.006   3.791
56816W        W20584  20.708  42.881   2.771
56817W        W20585  40.377   8.207  11.544
56818W        W20586  32.544  23.560  14.790
56819W        W20587   6.804  17.612  11.468
56820W        W20588  23.141  28.602  13.908
56821W        W20589  26.114  16.644   4.717
56822W        W20590  11.371  13.191   2.231
56823W        W20591  33.126  37.894  14.778
56824W        W20592  18.787  32.045  10.109
56825W        W20593  26.682  31.493   1.914
56826W        W20594  26.111  29.530   2.405
56827W        W20595   6.699  20.587  10.572
56828W        W20596  28.039  15.651   1.308
56829W        W20597  42.505   6.367  10.903
56830W        W20598  33.115  31.107   3.369
56831W        W20599  29.466   4.758  14.330
56832W        W20600   8.810  15.806  14.950
56833W        W20601  27.106  32.624  13.529
56834W        W20602  20.174   7.338  12.488
56835W        W20603  34.974  12.278   4.745
56836W        W20604   8.681  43.888  11.930
56837W        W20605   0.345  23.084   2.226
56838W        W20606  44.792   9.347  12.942
56839W        W20607   1.848  14.619  10.490
56840W        W20608  16.754  10.336  14.845
56841W        W20609  16.095  18.251  12.048
56842W        W20610  42.503  30.581   0.850
56843W        W20611  18.178  43.985   0.420
56844W        W20612   0.266   2.392  13.320
56845W        W20613  42.378  21.250  10.072
56846W        W20614  17.780   3.806   1.299
56847W        W20615   2.887  33.447   4.280
56848W        W20616   2.329  18.263  12.518
56849W        W20617  29.044   5.206  12.422
56850W        W20618   5.439  18.118   1.340
56851W        W20619   6.195   2.334   2.269
56852W        W20620   2.733  14.756  10.990
56853W        W20621  32.993   7.820  13.469
56854W        W20622   2.927  40.938   3.295
56855W        W20623  30.049  31.485   2.259
56856W        W20624  11.846   4.699   0.764
56857W        W20625  15.582   7.291   0.737
56858W        W20626  36.397  13.281  13.488
56859W        W20627  13.729   7.181  12.372
56860W        W20628   8.703  23.501   4.234
56861W        W20629  16.695  27.167  13.002
56862W        W20630  44.336  36.456  10.545
56863W        W20631   4.301  26.500  14.408
56864W        W20632  41.888  30.539   0.962
56865W        W20633  23.163  31.938   5.158
56866W        W20634  28.670  38.003   3.766
56867W        W20635  42.360  38.333  14.472
56868W        W20636   5.377  20.177  11.504
56869W        W20637   2.342  32.614  14.449
56870W        W20638  38.381  40.334   1.777
56871W        W20639  21.017  43.796  13.015
56872W        W20640  44.490  32.453  10.935
56873W        W20641  39.920  33.934  12.367
56874W        W20642  32.590  42.870   0.854
56875W        W20643   9.823  36.090  12.364
56876W        W20644   8.738  10.657  10.604
56877W        W20645  32.421  38.837   1.402
56878W        W20646  28.456  20.205   4.679
56879W        W20647   6.767  17.251  14.480
56880W        W20648  21.527  35.954  12.090
56881W        W20649  21.229  32.009   2.726
56882W        W20650   0.875  38.383   2.181
56883W        W20651   5.302   6.286   2.863
56884W        W20652   1.760  39.326   0.475
56885W        W20653  19.137  26.684  11.545
56886W        W20654  30.515  35.861   3.653
56887W        W20655  15.320  21.095  10.968
56888W        W20656  21.160  33.966  11.481
56889W        W20657   5.762  34.121   1.309
56890W        W20658  23.194  17.580  13.853
56891W        W20659  23.992  33.606   3.211
56892W        W20660  14.771  43.962   1.699
56893W        W20661  29.573  40.043   3.211
56894W        W20662  26.041  25.028  13.944
56895W        W20663  11.151  38.030   3.351
56896W        W20664  37.510  26.505  12.521
56897W        W20665  25.477  19.257   0.967
56898W        W20666  33.545  34.575  10.055
56899W        W20667  26.631  33.132  13.312
56900W        W20668  40.353  10.144  14.440
56901W        W20669   6.883  44.348  11.447
56902W        W20670  15.186  38.916   2.779
56903W        W20671  24.050  35.892   2.786
56904W        W20672  23.078  11.822  13.539
56905W        W20673   4.222  20.097  10.421
56906W        W20674  27.530  39.895  14.343
56907W        W20675  29.497  24.608  11.553
56908W        W20676  34.970  22.716  13.842
56909W        W20677  25.554   3.422  13.901
56910W        W20678   6.244   1.748  10.030
56911W        W20679  39.850   2.291  11.429
56912W        W20680  39.042   4.753   2.191
56913W        W20681  10.802   4.768  11.094
56914W        W20682  18.070  27.568   3.210
56915W        W20683  34.535  22.163  11.391
56916W        W20684  35.887  42.393  10.938
56917W        W20685  21.216  15.263   2.747
56918W        W20686  34.583   2.826   2.357
56919W        W20687  20.152  13.813   4.809
56920W        W20688  29.102  10.150  10.087
56921W        W20689  26.023  21.257   1.222
56922W        W20690   8.736  39.494  13.427
56923W        W20691   4.327   1.914   3.322
56924W        W20692  18.142   0.847   3.687
56925W        W20693  21.667  35.435   2.838
56926W        W20694  35.938  33.039   1.213
56927W        W20695   7.791  15.199   0.430
56928W        W20696  37.083   2.254  11.991
56929W        W20697  40.855  28.965  10.492
56930W        W20698  34.516  33.554  10.502
56931W        W20699  44.805  39.521   0.749
56932W        W20700  34.099   7.670  11.376
56933W        W20701  14.304  28.037  12.343
56934W        W20702  43.463  19.119  12.578
56935W        W20703  16.726  12.347  13.009
56936W        W20704  44.796  44.262   3.716
56937W        W20705  29.649   8.225  13.059
56938W        W20706  26.043  15.726   4.169
56939W        W20707   4.934  27.479  10.441
56940W        W20708   1.249  21.069  13.990
56941W        W20709  39.968  27.675  12.059
56942W        W20710  41.455  37.437   2.798
56943W        W20711  31.470  27.620   4.748
56944W        W20712  38.888  21.546  11.428
56945W        W20713   9.206  40.393  10.898
56946W        W20714   1.283  17.734   2.326
56947W        W20715  35.093  12.137  12.379
56948W        W20716  10.713   3.303   1.442
56949W        W20717   3.407  15.126   1.928
56950W        W20718  12.814  42.454  11.077
56951W        W20719  40.432  21.737  14.432
56952W        W20720  32.475  20.542   2.772
56953W        W20721   6.248  41.487   2.293
56954W        W20722   5.917   3.431  11.460
56955W        W20723   7.343   2.855  13.927
56956W        W20724  29.994  33.387   1.722
56957W        W20725   6.251  42.296  13.403
56958W        W20726  32.449   9.192   3.866
56959W        W20727  23.189  18.756   1.842
56960W        W20728  30.129  10.828  11.924
56961W        W20729  33.460  35.923   1.696
56962W        W20730  31.568  12.335   1.412
56963W        W20731  24.052   5.868   3.232
56964W        W20732  11.360  15.104  14.894
56965W        W20733  12.776  17.650   3.336
56966W        W20734   0.933  11.332  13.814
56967W        W20735  33.598  44.927   4.236
56968W        W20736  23.071   8.170   3.774
56969W        W20737   5.352  23.503   2.896
56970W        W20738   5.705  18.587  13.056
56971W        W20739  35.921  12.275   2.711
56972W        W20740   9.183  44.323  14.347
56973W        W20741  11.305  10.720  10.897
56974W        W20742  15.200  26.141  11.004
56975W        W20743  28.435  27.462   3.195
56976W        W20744  16.750  18.599   4.709
56977W        W20745  16.618  44.374   4.243
56978W        W20746  41.983  26.692  13.899
56979W        W20747   3.234  43.364   1.379
56980W        W20748   0.458  39.521  14.502
56981W        W20749  22.053  10.724   3.675
56982W        W20750  15.309   6.681   2.818
56983W        W20751  39.366  26.977  14.369
56984W        W20752  41.950  38.438   2.320
56985W        W20753  26.982  29.947  14.866
56986W        W20754  25.708  16.155  14.766
56987W        W20755  29.078  35.887   1.791
56988W        W20756  37.548  39.511  11.470
56989W        W20757   7.717  38.553   4.279
56990W        W20758   4.707   0.918  10.406
56991W        W20759  29.133  34.420   0.456
56992W        W20760  19.583  39.989   3.174
56993W        W20761  27.546  33.936  14.919
56994W        W20762  11.834  33.905  12.867
56995W        W20763  15.180  13.287   4.732
56996W        W20764  34.594  28.521  10.988
56997W        W20765  36.094  32.053   4.330
56998W        W20766   7.855  32.028   3.148
56999W        W20767  20.548  29.592  13.451
57000W        W20768   6.226  12.253  13.490
57001W        W20769  30.500  41.801  13.530
57002W        W20770  38.325  33.900   4.615
57003W        W20771  34.597  17.752   4.352
57004W        W20772  35.470  22.674   0.936
57005W        W20773  31.983  16.193   1.924
57006W        W20774  35.532  44.939  14.326
57007W        W20775  36.524   9.829  11.014
57008W        W20776  27.606  32.041  12.894
57009W        W20777   7.675  19.153   4.730
57010W        W20778  31.121  36.097   4.615
57011W        W20779  20.638  10.758  14.382
57012W        W20780  16.154  23.198   5.127
57013W        W20781  11.778  34.884  13.799
57014W        W20782  11.635   1.809  13.319
57015W        W20783   4.839  26.550  10.936
57016W        W20784  20.544  22.122  13.373
57017W        W20785  14.743  31.037  13.808
57018W        W20786   7.197  42.836   1.320
57019W        W20787   8.835  30.533  12.486
57020W        W20788  23.631  12.143   4.299
57021W        W20789  32.031  25.996  11.397
57022W        W20790  16.173   6.775  11.383
57023W        W20791   6.197   6.301   5.180
57024W        W20792  25.207   0.323   1.828
57025W        W20793  24.991  30.641   4.789
57026W        W20794  11.693  14.276  11.437
57027W        W20795  44.326  22.622   0.472
57028W        W20796  25.578   0.777  13.448
57029W        W20797  40.878   7.704   0.828
57030W        W20798  42.422  15.286   2.851
57031W        W20799  31.446   9.793   3.154
57032W        W20800  38.408  17.717   3.806
57033W        W20801  24.175  20.205  14.322
57034W        W20802  36.566  40.864  12.051
57035W        W20803   5.897  13.277   4.121
57036W        W20804  15.139  11.755   4.324
57037W        W20805  37.055  19.239  12.378
57038W        W20806  39.918  33.947  13.851
57039W        W20807  32.578  33.938  10.522
57040W        W20808  26.015  30.083  10.595
57041W        W20809  42.842  37.983   1.351
57042W        W20810   2.269  36.014   1.334
57043W        W20811   0.752  17.555  14.349
57044W        W20812  31.000  10.842  11.934
57045W        W20813   7.290   4.744  10.437
57046W        W20814  34.440  19.210  10.134
57047W        W20815  21.573  41.824  11.919
57048W        W20816  43.387  18.624   2.807
57049W        W20817  21.694  36.899  11.912
57050W        W20818  44.315   4.899   4.131
57051W        W20819  29.448  38.443   3.148
57052W        W20820  42.852  33.468   0.387
57053W        W20821   4.425  34.014   0.828
57054W        W20822   4.212  34.883   0.422
57055W        W20823  19.245  39.878   2.828
57056W        W20824  34.952  25.493   2.767
57057W        W20825   4.849   3.289  13.853
57058W        W20826  35.919  24.649   3.631
57059W        W20827  30.602  34.372  14.973
57060W        W20828  24.641  20.052  13.389
57061W        W20829  32.583  42.298   1.440
57062W        W20830  38.869  13.151   3.181
57063W        W20831  20.643  20.653  12.348
57064W        W20832  27.528  38.059   1.396
57065W        W20833   2.884  10.183   3.237
57066W        W20834   4.237  21.062  12.949
57067W        W20835   7.727  41.015  14.784
57068W        W20836  41.927   6.770   4.163
57069W        W20837  39.400  24.672   0.451
57070W        W20838   6.769  25.697  14.984
57071W        W20839  21.122  12.714   0.801
57072W        W20840  32.404  19.119   3.825
57073W        W20841  39.922  22.133  13.396
57074W        W20842   2.250  16.623   4.181
57075W        W20843  13.801   8.194  11.882
57076W        W20844  36.918  42.281   1.384
57077W        W20845  23.050   4.284   2.258
57078W        W20846  11.699  44.002   4.715
57079W        W20847  19.710  19.167   1.432
57080W        W20848  44.377  43.470   1.404
57081W        W20849  30.091  27.122  13.913
57082W        W20850  38.326  37.899  10.628
57083W        W20851  16.254  41.810  12.564
57084W        W20852  29.467  34.433   5.209
57085W        W20853  10.174  30.629   9.970
57086W        W20854  35.055  24.067  11.897
57087W        W20855  37.363  39.445   3.787
57088W        W20856   8.835  10.789  11.993
57089W        W20857   1.798  24.098  12.526
57090W        W20858  31.910  42.310  14.323
57091W        W20859   4.699   6.704   5.110
57092W        W20860  34.067  40.360  14.011
57093W        W20861  43.394  41.832  13.539
57094W        W20862  38.506  28.087   3.205
57095W        W20863   9.851  35.105  13.418
57096W        W20864  29.636  18.696   5.309
57097W        W20865   6.338  34.598   4.208
57098W        W20866   6.379   1.769  10.958
57099W        W20867  44.432   9.312  11.076
57100W        W20868  24.541  23.651  12.009
57101W        W20869  37.446  35.057  11.025
57102W        W20870   5.352   8.330  13.055
57103W        W20871  35.491  25.524  14.879
57104W        W20872  37.883  21.735   3.633
57105W        W20873  10.270  24.693  13.965
57106W        W20874   9.335  36.030  12.370
57107W        W20875  16.653   1.438   3.357
57108W        W20876  37.078  39.379  11.861
57109W        W20877  15.664  43.832  12.540
57110W        W20878  19.073  28.154  12.419
57111W        W20879  38.022   6.773  12.867
57112W        W20880  36.563   0.754   3.710
57113W        W20881   2.805   3.368   1.245
57114W        W20882  39.442   9.733  11.402
57115W        W20883  20.672  30.607  11.963
57116W        W20884  30.155   2.383   1.795
57117W        W20885  31.942  18.144   4.776
57118W        W20886  39.041  30.645  12.994
57119W        W20887  35.492  24.153   1.876
57120W        W20888  27.581  23.722   2.290
57121W        W20889  29.517  34.570   0.853
57122W        W20890  39.921   8.840   0.303
57123W        W20891  18.736  20.656  14.953
57124W        W20892  16.660  35.575  14.774
57125W        W20893   3.337  14.672  13.421
57126W        W20894  18.215  31.602  14.374
57127W        W20895   1.355  36.523  12.500
57128W        W20896   7.701  32.562   3.364
57129W        W20897  37.882  44.407   2.852
57130W        W20898  27.034  34.504   2.327
57131W        W20899  30.114  13.649  14.998
57132W        W20900   1.251  13.736  12.989
57133W        W20901   5.259  34.542  11.913
57134W        W20902  37.897  17.101   0.755
57135W        W20903  20.614  31.957  13.824
57136W        W20904  23.033  10.309  11.501
57137W        W20905  26.672  41.467   2.299
57138W        W20906  35.908  27.042   4.833
57139W        W20907  44.812   1.451   3.231
57140W        W20908  15.765  34.096   1.767
57141W        W20909  40.471  22.720   3.265
57142W        W20910  24.576  21.584   0.454
57143W        W20911  17.269   3.915   0.304
57144W        W20912  32.904  14.316  13.007
57145W        W20913   2.257  25.154  11.907
57146W        W20914  18.760  17.274  14.962
57147W        W20915  42.281   9.841   3.199
57148W        W20916  35.866  13.633  13.009
57149W        W20917  30.117   4.407  14.015
57150W        W20918  44.952  18.758   2.398
57151W        W20919   3.335  25.567  12.067
57152W        W20920  34.096  12.652   1.339
57153W        W20921  22.068  34.543   4.178
57154W        W20922  39.963   3.854  12.500
57155W        W20923   3.392   0.791   3.630
57156W        W20924  33.066   0.314  13.042
57157W        W20925   1.886  37.914   5.197
57158W        W20926   7.407  22.138   3.170
57159W        W20927  13.279  36.062  11.898
57160W        W20928   5.289  32.617   3.864
57161W        W20929  36.508  19.065   4.681
57162W        W20930  25.003  33.556  14.859
57163W        W20931  10.139  24.567   1.828
57164W        W20932  22.032  12.308   0.836
57165W        W20933  42.461   2.262  10.947
57166W        W20934  41.526  18.719   2.225
57167W        W20935  36.030  10.639   2.684
57168W        W20936   4.315  15.105   0.433
57169W        W20937   5.277  34.027   4.833
57170W        W20938   0.942  11.657  12.463
57171W        W20939   8.659  21.732   3.161
57172W        W20940  15.758  37.081  13.803
57173W        W20941  37.551  31.148   2.189
57174W        W20942  24.055  16.729  12.422
57175W        W20943  14.301  31.448  13.854
57176W        W20944  10.638   4.330  14.408
57177W        W20945  37.433  32.584   2.687
57178W        W20946  35.090  20.570   0.865
57179W        W20947  23.584  37.500  13.909
57180W        W20948  21.742  36.068  13.514
57181W        W20949   8.743   3.809   1.240
57182W        W20950  37.985   6.185   0.935
57183W        W20951  32.601  26.171   1.248
57184W        W20952   6.843  41.538  13.992
57185W        W20953  26.698  24.657   1.419
57186W        W20954  11.273  21.235   4.799
57187W        W20955   5.713  16.686  12.888
57188W        W20956  31.577   8.307  11.089
57189W        W20957   0.900   8.254  11.926
57190W        W20958  39.045  15.665   3.381
57191W        W20959  15.709  17.609   0.413
57192W        W20960  24.063  35.884  14.874
57193W        W20961  40.418  36.507  11.543
57194W        W20962   3.375  13.844   2.763
57195W        W20963  21.741  11.682  14.016
57196W        W20964  39.838  37.041   2.700
57197W        W20965   7.726  38.381  14.994
57198W        W20966  42.025  23.018   1.227
57199W        W20967  23.730  27.115   2.195
57200W        W20968  18.634  26.997  12.392
57201W        W20969  17.654  28.463  13.008
57202W        W20970   5.243  40.949   2.195
57203W        W20971  29.486  11.253   2.705
57204W        W20972  10.225   5.883  11.507
57205W        W20973  37.348  25.183  10.936
57206W        W20974  27.510  30.489   0.842
57207W        W20975  11.179  12.645  12.094
57208W        W20976  44.397   8.675  13.499
57209W        W20977  22.501  32.603   0.930
57210W        W20978  41.354  20.585   0.363
57211W        W20979  22.081  39.062   1.729
57212W        W20980  22.553  10.315   5.181
57213W        W20981  32.448   4.223  10.978
57214W        W20982  13.231   1.444   2.765
57215W        W20983  26.021  38.029   9.483
57216W        W20984   3.938  34.997   2.857
57217W        W20985   1.320  12.269   1.881
57218W        W20986  33.930  36.351   0.753
57219W        W20987   8.222   2.246  14.277
57220W        W20988  35.110  11.361  14.442
57221W        W20989   2.836  16.594  11.468
57222W        W20990  27.022  22.184   1.758
57223W        W20991  23.091  27.656  14.955
57224W        W20992  14.307  39.490   1.815
57225W        W20993  17.638  22.622  14.951
57226W        W20994  25.634  32.575   2.863
57227W        W20995  35.483  16.589   3.702
57228W        W20996   3.850  39.044   4.275
57229W        W20997  32.071  35.470   4.654
57230W        W20998  14.179   8.295  10.584
57231W        W20999  43.900  22.092  11.982
57232W        W21000  41.897  14.193  10.089
57233W        W21001  40.546  20.093  12.908
57234W        W21002  44.838  19.210   0.415
57235W        W21003  36.903  37.402   1.343
57236W        W21004  13.206  41.027   0.933
57237W        W21005  11.769   5.280  14.310
57238W        W21006  23.991  41.025   4.784
57239W        W21007  33.533  39.465  11.934
57240W        W21008  22.560   5.208   2.669
57241W        W21009   1.455  42.521   3.307
57242W        W21010  42.989   5.731  12.578
57243W        W21011  23.568  27.143  14.024
57244W        W21012  39.471  36.407   2.833
57245W        W21013  16.585  23.045  10.503
57246W        W21014  24.031  17.568   0.893
57247W        W21015  16.191   5.315   4.283
57248W        W21016  30.516  35.873  13.457
57249W        W21017  24.142  36.983  11.883
57250W        W21018  30.636   6.812   0.397
57251W        W21019   3.778  13.213   3.674
57252W        W21020   7.706   2.321  10.907
57253W        W21021  41.322  14.295  11.873
57254W        W21022  11.776   0.268  13.004
57255W        W21023   2.322  24.053  13.050
57256W        W21024  41.293  10.285  11.917
57257W        W21025  28.531  20.111  13.490
57258W        W21026   8.304   5.794   0.294
57259W        W21027   9.340   4.411  14.792
57260W        W21028   6.682   2.401  12.825
57261W        W21029   2.402  30.656  10.037
57262W        W21030  39.048   9.771  10.974
57263W        W21031  13.711  34.964  13.965
57264W        W21032  41.027   7.901  13.040
57265W        W21033  34.110  10.259   3.836
57266W        W21034  21.121  24.667  12.876
57267W        W21035   9.685   0.831   0.732
57268W        W21036  25.008  33.525   1.296
57269W        W21037  23.004  28.635   3.225
57270W        W21038  19.050  35.550  14.818
57271W        W21039  28.563  33.561   2.780
57272W        W21040  31.464  21.258  10.577
57273W        W21041  19.587  15.714  13.447
57274W        W21042  35.445  19.595  14.855
57275W        W21043  23.621  17.217   3.250
57276W        W21044   9.796  29.582  12.954
57277W        W21045  42.523  11.868  11.078
57278W        W21046  15.718  24.055  11.474
57279W        W21047  24.180   6.326  14.324
57280W        W21048  42.891  17.197  14.471
57281W        W21049  17.634   2.813   4.280
57282W        W21050  26.059  11.773   0.336
57283W        W21051  20.549  33.880  12.565
57284W        W21052  24.588  30.966  10.945
57285W        W21053  11.816  14.323   3.866
57286W        W21054  16.719  11.156  13.793
57287W        W21055  13.712  31.090   2.335
57288W        W21056   8.267  37.376  11.503
57289W        W21057  17.792   5.823  13.861
57290W        W21058  41.981  44.971  12.571
57291W        W21059   7.357  15.168   4.345
57292W        W21060   3.397  37.988   2.869
57293W        W21061  32.047  24.709   0.261
57294W        W21062   5.762   5.282  11.601
57295W        W21063  29.463  30.066   3.236
57296W        W21064  38.993  18.648   1.393
57297W        W21065   2.264  41.959  12.402
57298W        W21066   2.766   2.947   0.425
57299W        W21067   6.881  44.426   0.929
57300W        W21068  20.078  20.090   1.450
57301W        W21069  30.996  13.647  10.996
57302W        W21070  17.140  16.620  13.381
57303W        W21071   6.824  22.548   4.309
57304W        W21072   5.763  33.984   1.835
57305W        W21073  18.178  17.148  11.931
57306W        W21074  20.696   6.824   0.730
57307W        W21075  20.265  21.018   0.853
57308W        W21076  32.903  27.120   1.331
57309W        W21077  31.125  20.176  11.483
57310W        W21078  38.525  16.251   0.888
57311W        W21079  33.433  20.650  13.381
57312W        W21080  41.502  24.095  10.571
57313W        W21081  42.433  20.681  12.377
57314W        W21082  33.045  43.871   4.314
57315W        W21083  35.452  15.799  14.469
57316W        W21084   3.848   0.427  12.545
57317W        W21085  22.697  35.500  13.937
57318W        W21086  43.334  30.583   1.725
57319W        W21087  36.427  37.515  11.408
57320W        W21088  25.616  21.722   2.676
57321W        W21089   6.335  15.675  13.497
57322W        W21090   1.765  30.649   3.334
57323W        W21091  11.172  18.289   2.293
57324W        W21092   6.812  33.113  14.341
57325W        W21093  19.276  44.988  12.921
57326W        W21094  33.066  11.676  12.356
57327W        W21095   9.854  25.975  11.591
57328W        W21096  43.488  27.046  14.319
57329W        W21097  25.146  32.505   4.301
57330W        W21098  21.027   7.330  12.059
57331W        W21099  17.199  40.827  13.803
57332W        W21100  39.039  35.108   0.480
57333W        W21101  31.947  44.319  13.353
57334W        W21102  29.968  11.238   0.468
57335W        W21103  25.128  41.033   4.782
57336W        W21104  39.515  37.462   4.312
57337W        W21105  13.719   0.816   1.261
57338W        W21106  41.996  39.406   4.200
57339W        W21107   7.398   1.879   2.375
57340W        W21108   9.743  29.103  13.038
57341W        W21109   5.265  29.606   4.611
57342W        W21110   8.277   9.762  10.888
57343W        W21111   0.353  24.082  13.388
57344W        W21112  38.544   5.817   2.179
57345W        W21113  21.215  44.492  12.484
57346W        W21114  10.356  29.565   1.231
57347W        W21115  41.340  20.046   0.918
57348W        W21116  21.740  23.063   4.338
57349W        W21117  34.430  42.910   2.816
57350W        W21118  19.265  29.594  12.353
57351W        W21119  13.625  35.914  11.385
57352W        W21120  43.002  29.530   0.947
57353W        W21121  24.218  38.054  11.393
57354W        W21122  21.680  35.903  12.571
57355W        W21123  31.997  38.938  13.384
57356W        W21124  36.354   5.415   3.332
57357W        W21125  17.787  26.965   4.738
57358W        W21126  19.765  24.137   2.755
57359W        W21127   9.187  26.516   0.439
57360W        W21128   3.882  32.548   3.219
57361W        W21129  12.638   7.713   3.686
57362W        W21130  18.585  35.513   0.947
57363W        W21131  43.271  12.353  13.847
57364W        W21132  37.034   9.747   4.718
57365W        W21133  36.579   7.812   1.739
57366W        W21134   5.210  34.551  12.851
57367W        W21135   8.771  15.131  12.909
57368W        W21136  35.366  39.550   4.827
57369W        W21137  31.898  21.038   5.128
57370W        W21138  36.894  24.512   3.244
57371W        W21139  13.699  12.233  11.568
57372W        W21140  43.787  18.650  12.039
57373W        W21141  36.997  29.088   0.930
57374W        W21142  32.570  26.177  11.918
57375W        W21143   7.195  25.178  14.313
57376W        W21144  12.222  22.649  14.292
57377W        W21145   0.303  21.717  11.395
57378W        W21146  24.686   8.230  12.076
57379W        W21147  39.332  28.043  13.444
57380W        W21148  13.302  31.970  12.417
57381W        W21149  22.622  20.126  11.999
57382W        W21150  35.859  35.063  11.901
57383W        W21151  35.977  39.386  13.973
57384W        W21152  11.168  39.553  13.328
57385W        W21153   4.270   1.296  12.025
57386W        W21154  31.620  19.587   3.364
57387W        W21155  13.128   6.379  11.889
57388W        W21156  35.471  29.460  13.056
57389W        W21157   3.855  10.739   4.266
57390W        W21158  43.876  34.100   0.790
57391W        W21159  11.694  13.719  12.478
57392W        W21160  19.567  31.521  10.483
57393W        W21161   4.323  14.762  14.886
57394W        W21162  33.563  26.662  10.987
57395W        W21163  26.522   7.352  10.896
57396W        W21164  24.975  28.947   3.643
57397W        W21165   4.444  26.609   4.253
57398W        W21166  23.193   2.368   2.817
57399W        W21167  13.794  28.013  12.979
57400W        W21168  44.972  31.456   4.813
57401W        W21169  15.210  28.664   2.246
57402W        W21170  41.828   5.410  11.935
57403W        W21171  21.560  19.065   4.802
57404W        W21172   6.319  32.028  12.416
57405W        W21173   4.863  11.756  11.384
57406W        W21174  16.798  43.855  12.842
57407W        W21175  30.566   0.951  12.849
57408W        W21176  28.504   4.857   4.271
57409W        W21177  18.160   5.914   4.745
57410W        W21178  25.970  18.761   0.338
57411W        W21179  21.742  32.507   9.622
57412W        W21180  42.907   9.309   1.800
57413W        W21181  18.177  18.681  10.499
57414W        W21182  32.066  28.441  10.429
57415W        W21183   0.883  28.056  14.357
57416W        W21184  13.165   7.860  11.581
57417W        W21185  17.689  41.005   2.189
57418W        W21186   0.369  39.495   2.664
57419W        W21187   3.257  36.910  10.928
57420W        W21188  18.132  15.293  11.059
57421W        W21189  24.690   6.293   0.875
57422W        W21190  18.271  23.151   4.349
57423W        W21191  30.926  42.479   3.801
57424W        W21192  10.285  39.487  13.993
57425W        W21193  14.804  25.047   4.150
57426W        W21194  33.598  29.536  14.765
57427W        W21195  11.677   6.793  13.312
57428W        W21196  26.105  29.923  13.414
57429W        W21197   7.272   7.668   3.792
57430W        W21198  29.970  26.040  13.955
57431W        W21199  33.529  23.642   1.366
57432W        W21200  15.255   7.194  12.939
57433W        W21201  15.151  11.151   2.263
57434W        W21202  20.217   5.785   2.766
57435W        W21203   2.881  39.004  13.995
57436W        W21204  35.050  16.098  14.848
57437W        W21205  35.033   6.744   4.716
57438W        W21206  20.156   2.324   1.448
57439W        W21207  13.151  16.712   3.363
57440W        W21208  17.697  21.662   0.285
57441W        W21209  21.225  40.834  11.994
57442W        W21210  32.961  13.743  11.896
57443W        W21211  33.100   7.373  13.506
57444W        W21212  27.487  38.349   0.416
57445W        W21213  31.469  23.095   1.861
57446W        W21214  38.037  42.383  14.797
57447W        W21215  33.102  12.719  14.467
57448W        W21216  29.590   7.848  12.423
57449W        W21217  36.353   1.848  13.894
57450W        W21218   4.331  32.058  11.560
57451W        W21219  18.548  21.120   3.681
57452W        W21220   5.818  44.304   0.308
57453W        W21221  40.927  15.815   4.349
57454W        W21222   8.838  38.559   0.243
57455W        W21223   1.871   5.356   2.734
57456W        W21224  30.471  12.346  14.763
57457W        W21225   0.887  34.499   1.249
57458W        W21226  32.117  37.973  12.480
57459W        W21227   0.343   9.706   0.377
57460W        W21228  33.971   7.239   1.440
57461W        W21229   4.256   2.289   4.165
57462W        W21230  36.939   9.739   0.297
57463W        W21231  17.663   0.915  12.371
57464W        W21232  35.020   1.321  13.494
57465W        W21233  22.720   9.708  10.538
57466W        W21234  39.853  18.184  12.532
57467W        W21235  23.146   8.198   4.633
57468W        W21236  33.910  18.197  10.478
57469W        W21237  20.213  34.383   0.449
57470W        W21238  21.054  42.840  13.834
57471W        W21239   1.860   6.730  12.560
57472W        W21240   8.314  34.613   3.819
57473W        W21241  11.707  30.631  11.431
57474W        W21242   5.741  15.121  13.988
57475W        W21243  31.962  23.037  11.439
57476W        W21244   8.190   5.293   2.250
57477W        W21245  15.190  39.943  13.797
57478W        W21246  34.462  15.116  12.075
57479W        W21247  40.927  41.518   1.344
57480W        W21248  11.837   2.464   3.234
57481W        W21249  41.346   9.151  13.377
57482W        W21250  10.870   3.360  14.854
57483W        W21251  30.114  16.189  13.384
57484W        W21252   2.740  42.029  14.841
57485W        W21253   1.742  36.456  11.953
57486W        W21254  32.026  16.125   3.748
57487W        W21255  19.624  34.398   0.796
57488W        W21256  10.841  40.863  10.930
57489W        W21257  25.477  30.069   3.252
57490W        W21258  11.761  42.873  13.537
57491W        W21259  17.110  22.114   0.896
57492W        W21260  24.087  32.053  10.443
57493W        W21261  22.508  43.395  14.500
57494W        W21262   3.813   8.845  10.161
57495W        W21263   7.333   0.769   4.789
57496W        W21264  10.208   4.408   0.823
57497W        W21265   6.773  27.639  12.458
57498W        W21266   5.305   5.364   1.923
57499W        W21267   1.823  15.726   4.269
57500W        W21268  43.367  28.602   3.355
57501W        W21269  25.962  23.553  14.289
57502W        W21270  23.558  42.957   4.630
57503W        W21271  38.867  23.016   4.816
57504W        W21272  20.638  12.297  12.341
57505W        W21273   3.426  39.833  11.568
57506W        W21274  12.768  29.102   3.817
57507W        W21275   6.694   2.353   3.372
57508W        W21276  38.469  24.686  11.377
57509W        W21277  27.181   6.245   0.351
57510W        W21278  34.544  44.909   1.746
57511W        W21279  31.014  10.634  12.547
57512W        W21280  17.232  19.097  12.924
57513W        W21281   8.736  31.473   1.814
57514W        W21282  21.619  37.005  10.988
57515W        W21283   0.282  29.615  14.826
57516W        W21284   3.832  15.092  11.510
57517W        W21285   5.854  23.533  13.827
57518W        W21286  44.456  31.638   2.251
57519W        W21287  14.701  15.590  10.620
57520W        W21288   4.442  26.080  14.971
57521W        W21289  19.194  29.450   2.272
57522W        W21290  29.503  40.906  12.940
57523W        W21291  31.062  30.938   1.769
57524W        W21292   9.667  33.120  14.987
57525W        W21293  37.437   1.338   4.208
57526W        W21294  29.960  15.740  12.888
57527W        W21295  13.224  31.965   0.324
57528W        W21296  35.602  39.873   3.826
57529W        W21297  18.237  14.647  12.354
57530W        W21298  22.071   3.845  13.947
57531W        W21299  43.938  42.301  12.062
57532W        W21300  30.077  10.352   2.202
57533W        W21301  35.392  29.140   1.911
57534W        W21302   2.826   3.945   4.265
57535W        W21303  10.765  41.414  12.001
57536W        W21304  29.531  32.461   4.200
57537W        W21305  37.052  43.414   3.691
57538W        W21306   9.354   1.787   2.856
57539W        W21307  32.415  32.596  13.891
57540W        W21308  22.184  18.240   0.870
57541W        W21309  43.907   2.927   2.770
57542W        W21310  13.610   3.324   4.717
57543W        W21311  14.121   4.867  11.909
57544W        W21312   5.216  31.423  10.921
57545W        W21313  27.126  25.139   1.800
57546W        W21314  13.123  38.870  13.411
57547W        W21315  11.281   6.748  12.843
57548W        W21316   9.395  27.625  11.477
57549W        W21317  41.390  14.834   0.242
57550W        W21318   8.699  28.182   2.201
57551W        W21319  17.223  41.788   2.368
57552W        W21320   8.901  33.549   1.281
57553W        W21321   4.863   5.894  13.887
57554W        W21322   5.433  12.123   1.368
57555W        W21323   4.284   0.426  12.577
57556W        W21324   5.844  19.199   4.784
57557W        W21325  24.515  18.104   1.224
57558W        W21326  42.325  35.972  10.497
57559W        W21327  30.950  28.053   4.643
57560W        W21328  23.023  28.970  13.899
57561W        W21329   8.406  13.730   3.247
57562W        W21330  23.562  32.508  11.856
57563W        W21331  15.601  14.150  11.948
57564W        W21332   3.438  43.979   1.864
57565W        W21333  17.166  28.585  13.836
57566W        W21334  19.773   0.864  12.454
57567W        W21335  15.274  31.557  11.519
57568W        W21336  35.521  33.095   1.355
57569W        W21337  40.392  14.767   2.217
57570W        W21338  20.067   3.799  11.032
57571W        W21339  13.705  13.780   1.382
57572W        W21340  22.637  31.542  10.536
57573W        W21341  22.170  39.421  12.844
57574W        W21342  32.956  19.735   2.859
57575W        W21343  24.198  18.754  13.309
57576W        W21344  38.525   0.423   4.783
57577W        W21345  36.978  21.226  12.845
57578W        W21346  35.530  40.040  10.952
57579W        W21347  21.633  25.693  12.452
57580W        W21348   9.875  20.742  14.379
57581W        W21349   0.912   6.271   5.144
57582W        W21350  10.183   0.428   0.324
57583W        W21351  23.219  12.818   4.243
57584W        W21352  43.767  16.593   1.447
57585W        W21353  20.088  15.148   2.688
57586W        W21354  10.143  34.528  10.071
57587W        W21355   8.824  26.544  13.022
57588W        W21356  42.822  15.099  10.946
57589W        W21357  37.062  25.595  11.937
57590W        W21358  36.973  34.438  13.837
57591W        W21359  18.149  13.781   2.719
57592W        W21360  22.181  29.137  14.506
57593W        W21361  15.329   8.729  14.299
57594W        W21362  17.238  24.217   3.325
57595W        W21363  32.995  39.975  14.511
57596W        W21364  15.202   8.281  12.571
57597W        W21365   7.395  22.547  14.292
57598W        W21366  36.586  32.962  10.577
57599W        W21367  19.118  12.348   2.224
57600W        W21368  22.154   5.241   3.800
57601W        W21369  44.002  11.765   0.746
57602W        W21370  18.663  33.563   2.208
57603W        W21371  43.373   4.883   0.786
57604W        W21372   7.318  18.107  12.998
57605W        W21373  23.150  37.919   3.648
57606W        W21374  44.928  11.178  11.592
57607W        W21375  11.295   5.878  14.771
57608W        W21376  40.341  10.285  11.079
57609W        W21377   7.844  43.854   2.204
57610W        W21378   8.169  17.210  12.884
57611W        W21379   0.470  40.315   4.146
57612W        W21380  41.485   7.238  12.339
57613W        W21381   3.755  20.097  12.992
57614W        W21382  18.157  30.142  12.359
57615W        W21383   2.272  44.367  14.999
57616W        W21384   2.840  37.547   1.703
57617W        W21385  31.908  39.351  12.906
57618W        W21386   5.410  23.045  10.500
57619W        W21387  42.480   4.723   3.196
57620W        W21388   6.304  24.220   0.368
57621W        W21389  25.699  11.161   4.624
57622W        W21390  38.898  24.200   0.772
57623W        W21391  32.474  23.564   1.817
57624W        W21392  29.476  16.301  10.522
57625W        W21393  11.858   5.704   3.702
57626W        W21394   0.369   2.290   4.759
57627W        W21395   1.357  39.496  11.493
57628W        W21396  32.894  41.324  11.438
57629W        W21397  19.775  37.389   2.378
57630W        W21398  38.045  35.108   4.124
57631W        W21399  37.987  13.290  14.951
57632W        W21400  31.412  40.875  13.889
57633W        W21401  18.575  27.134   4.231
57634W        W21402  11.746  37.871   0.300
57635W        W21403  25.637  16.597   1.418
57636W        W21404  31.095  15.110   4.262
57637W        W21405  31.002  28.184   1.281
57638W        W21406  41.370  26.130  13.524
57639W        W21407  28.459  43.345   1.357
57640W        W21408   7.306   5.299  11.601
57641W        W21409   4.888  22.011  14.308
57642W        W21410  23.496  33.985  12.390
57643W        W21411  32.454  37.906  11.094
57644W        W21412   1.807   1.802   2.854
57645W        W21413  33.087   3.821   2.322
57646W        W21414  19.231  28.588   4.199
57647W        W21415  17.730  44.385  10.949
57648W        W21416  27.982  35.596   0.262
57649W        W21417  31.108  41.909  10.917
57650W        W21418  23.736  17.739   0.888
57651W        W21419  13.755  11.635  12.919
57652W        W21420  19.763   7.753   1.745
57653W        W21421  19.567  34.972  11.437
57654W        W21422  40.050  31.113   2.288
57655W        W21423  32.025  27.953  10.914
57656W        W21424  26.982  19.152   4.289
57657W        W21425  11.755  43.326  13.002
57658W        W21426   3.327   3.357   3.262
57659W        W21427  23.695  33.065  11.923
57660W        W21428   0.869  21.226   1.791
57661W        W21429  33.965  31.901   2.415
57662W        W21430   4.841  28.094  11.590
57663W        W21431   1.454   7.878  14.466
57664W        W21432  12.352   6.735  10.453
57665W        W21433  27.004  41.503  13.829
57666W        W21434  20.164  24.585   4.785
57667W        W21435  35.601  11.134   4.791
57668W        W21436  40.516   2.293  12.915
57669W        W21437  36.498  10.227  11.901
57670W        W21438  31.145  34.047   2.772
57671W        W21439   5.752  13.299   1.919
57672W        W21440  35.942   5.783   0.752
57673W        W21441  28.483  36.080  10.124
57674W        W21442  44.902  21.626  13.499
57675W        W21443  10.718  29.453   3.664
57676W        W21444  44.990  33.896   4.770
57677W        W21445  27.663  12.643   2.893
57678W        W21446  21.209  11.314  11.997
57679W        W21447  31.977  20.245  10.907
57680W        W21448  34.934   2.738  14.838
57681W        W21449  19.711  44.006   0.884
57682W        W21450  29.141  31.608   2.363
57683W        W21451  28.552  42.430   3.690
57684W        W21452  30.924  21.231   5.108
57685W        W21453  17.119  17.087   3.315
57686W        W21454  10.674   8.284  13.931
57687W        W21455  17.704  39.967  14.871
57688W        W21456  42.807  23.205  13.040
57689W        W21457  34.015   4.335   1.218
57690W        W21458   9.725  16.252  13.477
57691W        W21459  22.514   3.937  13.930
57692W        W21460  43.822  14.768   3.659
57693W        W21461   4.801  23.554  11.092
57694W        W21462  29.631  24.601  11.857
57695W        W21463  32.598  26.011   2.802
57696W        W21464  27.978   6.705  11.548
57697W        W21465  29.523  40.356  13.040
57698W        W21466  22.662  11.314  14.477
57699W        W21467  17.726  18.655   0.950
57700W        W21468   7.669  19.151   1.819
57701W        W21469  36.532  25.632   2.788
57702W        W21470  20.111   0.795  10.422
57703W        W21471  34.372  27.449   4.115
57704W        W21472  38.407   7.718   2.772
57705W        W21473   3.943   2.276   2.875
57706W        W21474  17.174  14.712   1.910
57707W        W21475  12.225  41.344  11.472
57708W        W21476  37.062   7.303  14.955
57709W        W21477  15.599   1.928   0.377
57710W        W21478  36.431   1.743  10.564
57711W        W21479  10.169  11.237  14.796
57712W        W21480   2.461  26.084  13.866
57713W        W21481  18.117  38.884   2.344
57714W        W21482  28.624  39.928   2.270
57715W        W21483  13.784  39.474  11.553
57716W        W21484  37.083   1.363  11.001
57717W        W21485  16.156  34.516  12.020
57718W        W21486  41.346  24.191  14.882
57719W        W21487  12.830  15.154   0.933
57720W        W21488   6.193   3.830   9.943
57721W        W21489  44.868  17.215  12.480
57722W        W21490   6.921  33.886   0.292
57723W        W21491  43.003  23.039   4.630
57724W        W21492  42.967  28.059   1.862
57725W        W21493  40.993  34.545   0.454
57726W        W21494  21.740   1.472  14.480
57727W        W21495  22.540  44.305  14.315
57728W        W21496  42.344  30.922  13.537
57729W        W21497   5.886  31.043  10.490
57730W        W21498  37.853  28.502   0.410
57731W        W21499  35.109   1.263  12.025
57732W        W21500  17.656  23.143   1.723
57733W        W21501  32.604  37.400   3.751
57734W        W21502  41.967  13.226  10.535
57735W        W21503   3.764   8.259  10.953
57736W        W21504  36.916   1.920   1.933
57737W        W21505   1.307  31.019   3.799
57738W        W21506  21.756  30.511  12.347
57739W        W21507  15.161  36.860  11.591
57740W        W21508  15.823  18.753  13.503
57741W        W21509  17.646  37.404   3.319
57742W        W21510  33.004  19.210   2.822
57743W        W21511  12.627  18.178  11.453
57744W        W21512  24.715  35.028   5.663
57745W        W21513  42.001  22.207   4.677
57746W        W21514   5.285  16.743  11.478
57747W        W21515  20.259   7.750  14.295
57748W        W21516  28.940  23.577  13.028
57749W        W21517  44.432  24.036  14.505
57750W        W21518  23.543  22.570   3.226
57751W        W21519  27.126  20.219  12.018
57752W        W21520  10.699  43.963   4.144
57753W        W21521  13.186  42.453  10.985
57754W        W21522   6.308  12.148  11.020
57755W        W21523  23.601  10.729  12.384
57756W        W21524   3.271  29.447  11.375
57757W        W21525  15.195  38.905   4.214
57758W        W21526  31.070  41.320  13.926
57759W        W21527  10.232  10.794   1.918
57760W        W21528  36.068  13.652  10.443
57761W        W21529   0.309  13.729   0.402
57762W        W21530  31.485  39.412   0.309
57763W        W21531   1.321   0.453  10.915
57764W        W21532  14.143   6.340   1.800
57765W        W21533  18.752  40.389  11.371
57766W        W21534   5.238  13.187   3.274
57767W        W21535   7.719   1.286  12.004
57768W        W21536   8.680   1.468   4.780
57769W        W21537  19.730  43.287  13.322
57770W        W21538   1.402  34.494   9.584
57771W        W21539  15.098  28.126  14.872
57772W        W21540   1.762  41.301  13.388
57773W        W21541  42.019  21.101  11.883
57774W        W21542   1.468  12.356   0.352
57775W        W21543  27.592  36.875   2.736
57776W        W21544   5.696   4.395  10.561
57777W        W21545  31.040   2.861   2.725
57778W        W21546  35.964  12.801  12.471
57779W        W21547   7.900  37.389   4.226
57780W        W21548  18.254  31.040   5.707
57781W        W21549  36.851   8.662   2.706
57782W        W21550  40.899  10.191  10.973
57783W        W21551  27.955  42.375   4.713
57784W        W21552  32.498  13.157   4.659
57785W        W21553  36.568  24.164   2.265
57786W        W21554  17.571  14.250   0.469
57787W        W21555  12.685  41.804  10.477
57788W        W21556   2.313   1.277   2.693
57789W        W21557  41.868   3.812   2.365
57790W        W21558   8.394  20.106  11.427
57791W        W21559   2.830  31.113  14.279
57792W        W21560  32.602  17.763  13.845
57793W        W21561  31.475  38.449  11.598
57794W        W21562  12.617  31.426   1.707
57795W        W21563   5.236  42.917   2.291
57796W        W21564  16.212  41.813  13.424
57797W        W21565  32.887  36.400   3.148
57798W        W21566   0.476  40.994  14.992
57799W        W21567  39.002  34.051  11.064
57800W        W21568  10.239  42.393   0.766
57801W        W21569  43.940  15.124  10.470
57802W        W21570   9.177  24.166   0.922
57803W        W21571  11.774  21.740   3.315
57804W        W21572  21.107  12.190  12.964
57805W        W21573  21.037  18.587  10.519
57806W        W21574  31.595  36.969  11.021
57807W        W21575  34.485  34.036   4.305
57808W        W21576  31.586  35.579   0.441
57809W        W21577   8.199  44.299   1.233
57810W        W21578  15.173  40.548  10.959
57811W        W21579   1.253  19.688  14.354
57812W        W21580   0.458  17.256  11.580
57813W        W21581  33.949   1.277   2.790
57814W        W21582  15.312  11.197   9.671
57815W        W21583  36.899  39.386  14.502
57816W        W21584  25.485  39.962  10.463
57817W        W21585  42.988  25.600   0.260
57818W        W21586  43.796  14.199  12.370
57819W        W21587  13.617  28.175  10.561
57820W        W21588   8.777  17.196  14.389
57821W        W21589  23.679  29.029   3.327
57822W        W21590  41.424   1.391  14.844
57823W        W21591  16.776  20.645   0.854
57824W        W21592  43.508  34.085  10.412
57825W        W21593  30.913  22.123   0.319
57826W        W21594  16.657  21.046  11.457
57827W        W21595  29.649   4.207  11.128
57828W        W21596   3.751  19.687   5.268
57829W        W21597   7.730   1.467  13.804
57830W        W21598  16.168  17.587   3.205
57831W        W21599   0.902  44.770   2.192
57832W        W21600  20.226  10.711   0.344
57833W        W21601  39.925  18.654   4.601
57834W        W21602  32.937  20.535   2.376
57835W        W21603  18.766  44.001   3.177
57836W        W21604   3.916  36.940  14.826
57837W        W21605  12.787   6.680   4.208
57838W        W21606  43.388  22.995  13.926
57839W        W21607   5.248  31.022  14.023
57840W        W21608  33.423  22.150   0.881
57841W        W21609   2.439   2.837   4.274
57842W        W21610  22.097   2.815  13.971
57843W        W21611   8.352  40.496   3.303
57844W        W21612   6.319  23.561   4.831
57845W        W21613  24.117  26.482  13.371
57846W        W21614  17.072  15.804   4.762
57847W        W21615  29.075  40.345  13.906
57848W        W21616  40.991  31.578  10.459
57849W        W21617  16.295  34.396   3.730
57850W        W21618  23.206   2.402   3.383
57851W        W21619   3.712   8.747  12.069
57852W        W21620   2.325  13.128  14.829
57853W        W21621  11.832  15.084  13.890
57854W        W21622  36.869  32.990   0.953
57855W        W21623  27.491   8.402   3.860
57856W        W21624  29.650  27.561  10.413
57857W        W21625   3.873  25.678   0.769
57858W        W21626  20.249  21.714  11.007
57859W        W21627  33.432   0.763  12.516
57860W        W21628  38.402  21.231  11.478
57861W        W21629  33.443  42.983  12.391
57862W        W21630  28.012   3.906   0.799
57863W        W21631  30.635  42.432   4.807
57864W        W21632  26.123  19.558  11.008
57865W        W21633  29.639  39.523   1.728
57866W        W21634  25.165  11.774  12.873
57867W        W21635  37.917  42.485   1.229
57868W        W21636  35.036  44.901   3.827
57869W        W21637  10.815  32.497   3.718
57870W        W21638  16.765  34.114   0.821
57871W        W21639  19.143   6.250  11.928
57872W        W21640  39.474  22.745  10.023
57873W        W21641  17.637  41.333   3.333
57874W        W21642  15.280  38.426  11.078
57875W        W21643  12.159  19.691  10.482
57876W        W21644   8.222  30.472  12.038
57877W        W21645  24.537  13.321   2.684
57878W        W21646  17.759  38.352   1.448
57879W        W21647  26.193  23.108  11.094
57880W        W21648  18.700   3.310   1.707
57881W        W21649  43.325   1.284   3.750
57882W        W21650  18.234  11.797   3.360
57883W        W21651   8.183  22.539  10.412
57884W        W21652   6.327  37.911   2.315
57885W        W21653  15.601  39.835  10.074
57886W        W21654  42.806   8.260  14.870
57887W        W21655  37.465  18.668  11.433
57888W        W21656  34.567  35.411   1.284
57889W        W21657  14.310  19.690   4.830
57890W        W21658  19.225  40.396   3.773
57891W        W21659  15.180  23.507  10.615
57892W        W21660   5.763  21.744  12.081
57893W        W21661  13.814  23.725  12.012
57894W        W21662  41.530  38.526  12.043
57895W        W21663   5.424  29.923  13.433
57896W        W21664  21.221  26.066   1.425
57897W        W21665  34.087   5.906  14.908
57898W        W21666  38.897  23.104  13.907
57899W        W21667  13.812  34.592   0.806
57900W        W21668  30.928  38.950  14.362
57901W        W21669  34.045  33.583   0.732
57902W        W21670  38.532  35.493  13.402
57903W        W21671  42.863  37.515  11.906
57904W        W21672  33.424   1.266   0.450
57905W        W21673  42.413   1.407  11.459
57906W        W21674  18.662   5.372  12.494
57907W        W21675  39.551  24.009  12.385
57908W        W21676  21.716  10.295   3.194
57909W        W21677  16.295  41.326   3.313
57910W        W21678  14.094   1.248  10.634
57911W        W21679  12.792  11.158  12.471
57912W        W21680  25.535  32.404   3.753
57913W        W21681  43.438   8.345   4.778
57914W        W21682  21.619  31.465  12.508
57915W        W21683  31.626  18.278   3.645
57916W        W21684  15.803  15.212  12.353
57917W        W21685  16.137  30.546  13.905
57918W        W21686  24.555   8.387  12.989
57919W        W21687  44.401   3.878   3.762
57920W        W21688   3.416  15.667   2.842
57921W        W21689  12.181  18.241  10.554
57922W        W21690   2.278  34.476  10.535
57923W        W21691   9.329  23.161  12.417
57924W        W21692  30.029   1.938  11.007
57925W        W21693  27.149  36.446   2.248
57926W        W21694  34.574  39.489   1.881
57927W        W21695  12.281  35.016  13.909
57928W        W21696  26.574   6.848   0.873
57929W        W21697  32.414  25.709   0.913
57930W        W21698  25.594  14.833  14.357
57931W        W21699  24.626  27.050   4.613
57932W        W21700   1.942  29.055  14.317
57933W        W21701  11.623  27.121  13.823
57934W        W21702   0.961  17.255  12.913
57935W        W21703  33.892   5.432   0.460
57936W        W21704  18.772  36.411   4.742
57937W        W21705   1.288  44.476   2.710
57938W        W21706  16.790  24.019   2.228
57939W        W21707  17.222  38.037  12.356
57940W        W21708  13.313  30.478  13.311
57941W        W21709  10.322  14.275   2.304
57942W        W21710  38.035  11.635  12.526
57943W        W21711  13.211  13.636   0.787
57944W        W21712   4.758   8.253  10.453
57945W        W21713  39.453   8.839   2.209
57946W        W21714  22.683  38.846  13.451
57947W        W21715  17.233  35.531   1.736
57948W        W21716   9.243  29.657   4.123
57949W        W21717  10.151  35.939  14.763
57950W        W21718  41.035  23.173  11.533
57951W        W21719  19.152  25.527   2.705
57952W        W21720  15.788  33.034  12.422
57953W        W21721  19.050  35.881   0.359
57954W        W21722  19.223  33.026  11.501
57955W        W21723  18.290  14.745  13.465
57956W        W21724  38.825   1.963   1.786
57957W        W21725   3.734  12.121   0.416
57958W        W21726  28.604  20.645  14.030
57959W        W21727   6.350  40.012  14.846
57960W        W21728  35.973   0.305  10.516
57961W        W21729  13.813   7.911   2.691
57962W        W21730  30.475   0.391  11.534
57963W        W21731   8.323  14.188  13.452
57964W        W21732   1.787  15.663   0.446
57965W        W21733  43.788  25.522  11.522
57966W        W21734  22.207  38.037  11.529
57967W        W21735   3.274  19.645   1.283
57968W        W21736  15.712  21.553  13.970
57969W        W21737   9.321   9.748  11.387
57970W        W21738   3.250  28.179  12.568
57971W        W21739  27.182  30.556   2.299
57972W        W21740  26.045  19.550  12.984
57973W        W21741  29.551  22.703   4.162
57974W        W21742   1.468  23.990   4.346
57975W        W21743   3.456   4.880  10.926
57976W        W21744  32.503  30.908   3.743
57977W        W21745   7.317   3.839   0.341
57978W        W21746  17.674  11.140  11.561
57979W        W21747  29.460  20.750   3.657
57980W        W21748  11.372  39.017   0.863
57981W        W21749   8.890  22.607   4.251
57982W        W21750   5.828  29.651  12.880
57983W        W21751  24.040  18.746   2.702
57984W        W21752   5.786  42.946  13.424
57985W        W21753  27.515  21.072   3.855
57986W        W21754  30.436  15.688   2.870
57987W        W21755  25.964   4.726   2.666
57988W        W21756  32.893   6.753   2.785
57989W        W21757  25.539  11.814   3.269
57990W        W21758  31.913  22.055  11.570
57991W        W21759  35.027  24.671  14.449
57992W        W21760   9.361  41.824  11.526
57993W        W21761  22.556  32.138   3.147
57994W        W21762  21.688  12.833   3.288
57995W        W21763  39.413  29.506  13.351
57996W        W21764  21.122  36.371  10.568
57997W        W21765  40.049  40.837  10.933
57998W        W21766  35.884  19.727   4.600
57999W        W21767   4.833  29.437  13.527
58000W        W21768  25.993  35.926  10.594
58001W        W21769   9.810  10.749  14.855
58002W        W21770  11.137  21.705  14.994
58003W        W21771  41.844  40.477   3.646
58004W        W21772  35.380  20.254   4.337
58005W        W21773  35.548  10.194   3.659
58006W        W21774   4.921  33.619  13.977
58007W        W21775  40.442  39.533   2.385
58008W        W21776  20.232  13.310  14.969
58009W        W21777  40.054  22.085  12.539
58010W        W21778  12.311  25.203   2.822
58011W        W21779   5.706   8.694   3.828
58012W        W21780   9.797  17.731  12.517
58013W        W21781  35.386  26.696   1.884
58014W        W21782   7.334   2.318  11.945
58015W        W21783  43.808  37.009   4.300
58016W        W21784  14.123   9.795  10.445
58017W        W21785  10.862  31.537   1.722
58018W        W21786  15.178  23.680   3.315
58019W        W21787  35.017  38.505   3.343
58020W        W21788  36.983  25.193   4.142
58021W        W21789  20.709  38.824  11.512
58022W        W21790  35.009  19.164   4.620
58023W        W21791  37.397  19.557  14.382
58024W        W21792  42.913  21.022   0.430
58025W        W21793   5.790   0.292  13.433
58026W        W21794  37.469  24.618  12.498
58027W        W21795   4.277   6.220   4.293
58028W        W21796  10.269   8.248  13.417
58029W        W21797  42.473   1.928  13.835
58030W        W21798  25.629  37.343   0.960
58031W        W21799   3.936   1.912   1.256
58032W        W21800  31.069  11.841   1.839
58033W        W21801  42.514   4.856  11.897
58034W        W21802   7.818  38.837   2.901
58035W        W21803  17.644  41.892  14.025
58036W        W21804  15.590  33.522   0.739
58037W        W21805  37.962  31.078   2.774
58038W        W21806  36.536   0.469   0.833
58039W        W21807  35.488   7.295  10.094
58040W        W21808   3.287   1.848  14.858
58041W        W21809  14.722  22.111   4.616
58042W        W21810  38.354  30.469  12.521
58043W        W21811  14.777   2.237   0.943
58044W        W21812   5.783  14.165  12.020
58045W        W21813   1.942  14.772   2.228
58046W        W21814  31.425  18.786   2.710
58047W        W21815   0.367  30.472   4.237
58048W        W21816  14.782  34.610   1.905
58049W        W21817  11.852  35.483  14.322
58050W        W21818   1.937  28.062   3.642
58051W        W21819  35.086  11.750   2.759
58052W        W21820  44.336   1.283   3.854
58053W        W21821   6.192  23.614   0.380
58054W        W21822  14.724  18.563   9.969
58055W        W21823  37.559  23.661   0.946
58056W        W21824  39.336  37.515   0.404
58057W        W21825  38.553   7.258   2.818
58058W        W21826  17.151   8.320  12.502
58059W        W21827   6.187  10.169   0.433
58060W        W21828  10.687  22.517   4.255
58061W        W21829  43.479  37.855   0.912
58062W        W21830  42.827  10.264   0.878
58063W        W21831  33.019  21.141   0.800
58064W        W21832  30.025  19.584  11.433
58065W        W21833  38.407  34.893   2.272
58066W        W21834  12.684  15.808   1.347
58067W        W21835   1.870  41.888   0.823
58068W        W21836  33.044   5.793   1.258
58069W        W21837  44.455  12.822   2.401
58070W        W21838   3.778  21.162   5.207
58071W        W21839  29.984  28.072  13.941
58072W        W21840  10.341  38.838   1.312
58073W        W21841   7.413  18.629  12.395
58074W        W21842  19.694   8.264   1.761
58075W        W21843   4.373  27.950  11.063
58076W        W21844  31.970  35.421  13.946
58077W        W21845  22.604  38.414  11.069
58078W        W21846  18.616  18.196   5.687
58079W        W21847   4.242  16.072   3.797
58080W        W21848   6.780   1.307  11.448
58081W        W21849  37.061  27.016  14.376
58082W        W21850  11.294  16.073   2.291
58083W        W21851   0.321   9.362  11.416
58084W        W21852  13.803  26.685   0.334
58085W        W21853   9.318  28.621   1.294
58086W        W21854  18.606  25.984   2.873
58087W        W21855  16.593  15.745  14.489
58088W        W21856  36.444  14.295  14.842
58089W        W21857  19.619  10.180  13.408
58090W        W21858  38.344  41.305  10.508
58091W        W21859  18.744  30.007   3.847
58092W        W21860   0.837  37.055   3.807
58093W        W21861  14.138  38.960   1.389
58094W        W21862  42.899  35.470   0.388
58095W        W21863  25.075  18.209   4.649
58096W        W21864  40.000  39.399  13.468
58097W        W21865  23.022  41.377  12.415
58098W        W21866   5.280   4.340  13.879
58099W        W21867   1.830  13.608  14.483
58100W        W21868  36.558  31.621  11.447
58101W        W21869   8.229  39.497   0.890
58102W        W21870  25.690  31.017   0.354
58103W        W21871  21.519   8.399   4.266
58104W        W21872   8.830  14.285  14.877
58105W        W21873  12.241  26.105  14.428
58106W        W21874  14.215  23.591   5.240
58107W        W21875  30.554  30.113   4.680
58108W        W21876  44.341  16.161   2.709
58109W        W21877  37.839  17.669   0.945
58110W        W21878  19.667  23.555  13.917
58111W        W21879  25.662  24.600   1.851
58112W        W21880  38.469   2.861  10.929
58113W        W21881  32.104  10.370  13.960
58114W        W21882   5.420   2.763   2.780
58115W        W21883   2.375  25.500  11.494
58116W        W21884  42.382  39.964   4.696
58117W        W21885   7.704  25.005  11.599
58118W        W21886  33.511  37.578   0.443
58119W        W21887  10.311  17.684  11.937
58120W        W21888  16.609   5.304   2.900
58121W        W21889  42.435  28.524  11.034
58122W        W21890  36.415   7.190  11.861
58123W        W21891  19.182  23.679   4.142
58124W        W21892  16.610  26.682   4.170
58125W        W21893  25.146   0.338  14.470
58126W        W21894  38.349  23.526  13.309
58127W        W21895   5.811  23.684  14.502
58128W        W21896   0.335  26.041  11.612
58129W        W21897  13.182  41.333  11.550
58130W        W21898  29.174   6.909  11.024
58131W        W21899  23.703  33.071  13.953
58132W        W21900  38.418  22.138  12.943
58133W        W21901  28.436  30.447   2.393
58134W        W21902  14.190  26.464  13.985
58135W        W21903  30.986  43.906   2.323
58136W        W21904  40.475  15.730  13.480
58137W        W21905  10.644  14.282  12.024
58138W        W21906  20.062  26.529  12.350
58139W        W21907  27.965   2.926  11.440
58140W        W21908  30.948   7.237  14.802
58141W        W21909  39.533  34.395  11.027
58142W        W21910  38.513  19.621   4.651
58143W        W21911  25.498   1.269  14.281
58144W        W21912   4.826  29.578   4.276
58145W        W21913   4.827  33.599   5.174
58146W        W21914  27.481  18.667   2.220
58147W        W21915  14.597  36.034  14.304
58148W        W21916  35.556   6.855  14.371
58149W        W21917  31.472  28.476   3.226
58150W        W21918  36.058  34.025  11.508
58151W        W21919  36.998  21.702  10.474
58152W        W21920  32.093  11.353  14.784
58153W        W21921  15.240  22.579   0.391
58154W        W21922  13.292  11.259  14.945
58155W        W21923  36.551   6.842   4.253
58156W        W21924   2.747  41.350  13.520
58157W        W21925  42.449  41.475   1.264
58158W        W21926  44.846  20.181  13.972
58159W        W21927  35.057  10.714  10.477
58160W        W21928  44.396  22.662  10.553
58161W        W21929  26.631   9.771  13.338
58162W        W21930  37.428  36.034  14.515
58163W        W21931   6.866  22.226  13.938
58164W        W21932  42.878  40.329   0.450
58165W        W21933  25.178  21.209   3.787
58166W        W21934   1.256   9.393  11.512
58167W        W21935  42.927  11.753   0.258
58168W        W21936  44.433  39.965   1.852
58169W        W21937   1.315  31.567   2.311
58170W        W21938   3.377   9.377   2.897
58171W        W21939  10.741  31.096  11.427
58172W        W21940   7.814  43.926   4.705
58173W        W21941  33.438  12.611   2.744
58174W        W21942  18.294  20.028  11.573
58175W        W21943  10.645   4.715   2.811
58176W        W21944  41.793  30.627   3.764
58177W        W21945  37.577  31.992  12.856
58178W        W21946   0.428  33.895   0.747
58179W        W21947  13.832  11.132   2.877
58180W        W21948  21.117  27.018   0.756
58181W        W21949  11.323  26.514  14.464
58182W        W21950  22.505  12.126   0.262
58183W        W21951  13.827  14.709   2.294
58184W        W21952  19.259  11.668   4.252
58185W        W21953   6.227   5.835  11.980
58186W        W21954   9.360  27.530  11.874
58187W        W21955   3.872  19.713   4.724
58188W        W21956  14.598   3.323  13.443
58189W        W21957  43.817   7.377  14.292
58190W        W21958  21.701  15.760   2.386
58191W        W21959   2.403   1.391   1.396
58192W        W21960   6.326  38.337   3.167
58193W        W21961  30.070   7.866  12.896
58194W        W21962   0.959  10.274   3.747
58195W        W21963   2.401  13.650   2.241
58196W        W21964   6.772  10.635   4.678
58197W        W21965  11.649   2.875   0.896
58198W        W21966  43.013  40.884  13.331
58199W        W21967  38.506  23.016  14.826
58200W        W21968  30.042   0.457   0.286
58201W        W21969  13.599  31.463   4.825
58202W        W21970  19.763   5.197  14.352
58203W        W21971   0.928  27.994   4.352
58204W        W21972  44.993  41.451  14.006
58205W        W21973  15.322  10.281  14.901
58206W        W21974  21.034  23.163   3.639
58207W        W21975  40.935  41.416  12.426
58208W        W21976  10.664  28.469   4.320
58209W        W21977  36.054  33.541  11.484
58210W        W21978  12.202  43.288   3.302
58211W        W21979  10.198   0.773  10.541
58212W        W21980  15.614  29.562  14.931
58213W        W21981  29.995  29.070   2.809
58214W        W21982  19.666  16.121  14.991
58215W        W21983  31.462   0.290   1.403
58216W        W21984  20.590  28.124   0.731
58217W        W21985  34.884  17.734   1.437
58218W        W21986  41.432  34.602   3.736
58219W        W21987   1.351  13.601   2.252
58220W        W21988   8.340  11.166  11.957
58221W        W21989  35.922   3.835   4.631
58222W        W21990  35.067   6.203   5.278
58223W        W21991  27.522  42.786   2.668
58224W        W21992  11.684  36.965   2.732
58225W        W21993   8.289  23.991  12.362
58226W        W21994  13.105  39.502   0.284
58227W        W21995  40.985  31.087  11.079
58228W        W21996  36.079  25.638  12.510
58229W        W21997   8.401  40.852   1.397
58230W        W21998  25.709  23.561  13.003
58231W        W21999  10.186  18.640  13.797
58232W        W22000   7.899  18.095  10.524
58233W        W22001  10.314  18.649  12.979
58234W        W22002   4.295  36.507   2.843
58235W        W22003  33.558  39.419   9.999
58236W        W22004  21.248  38.067  13.976
58237W        W22005  44.419  14.604  13.522
58238W        W22006  22.573  11.817  10.022
58239W        W22007  38.325  26.050   1.771
58240W        W22008  40.393  17.200  12.422
58241W        W22009   8.889  10.245  12.092
58242W        W22010  27.508   2.251  11.914
58243W        W22011  44.341  24.156  13.545
58244W        W22012   6.826  43.295   1.435
58245W        W22013   9.693  26.563   3.796
58246W        W22014  37.039  23.200   1.703
58247W        W22015  22.159   6.379  12.987
58248W        W22016   6.693   7.724  12.433
58249W        W22017  23.636  12.743  13.332
58250W        W22018  11.856  39.528  10.560
58251W        W22019  24.606  22.606  14.016
58252W        W22020   3.306  28.969  14.285
58253W        W22021   9.366  26.702  11.399
58254W        W22022  29.612   9.335   3.220
58255W        W22023  18.592   7.695  14.516
58256W        W22024  10.343  34.881  12.462
58257W        W22025  44.283   8.171   0.961
58258W        W22026  25.969  43.305  11.449
58259W        W22027  27.949   3.224   2.402
58260W        W22028  44.820  13.616  14.956
58261W        W22029  37.582   9.838   2.258
58262W        W22030  34.608  42.415   0.269
58263W        W22031  33.929  44.347   2.346
58264W        W22032  12.723  34.115   1.350
58265W        W22033   5.249  41.862   4.614
58266W        W22034  44.883  24.164   2.747
58267W        W22035  37.411  17.738  13.531
58268W        W22036  44.404  32.052   5.272
58269W        W22037  18.668  26.473   1.735
58270W        W22038  35.972  11.138  10.946
58271W        W22039   0.760  22.694  11.875
58272W        W22040   4.269   9.349  13.326
58273W        W22041  40.012  19.749   5.293
58274W        W22042  36.988  42.836  14.494
58275W        W22043  22.209  43.801   3.787
58276W        W22044   0.425  35.434   1.313
58277W        W22045  20.757  43.310  13.344
58278W        W22046   8.846  10.809   3.163
58279W        W22047   9.257   0.461   3.277
58280W        W22048  17.207  43.428   4.170
58281W        W22049  27.151   0.839   3.751
58282W        W22050  40.463  35.090  10.490
58283W        W22051  21.092  13.246   3.322
58284W        W22052  27.612  24.129  12.960
58285W        W22053   1.465  11.724   0.324
58286W        W22054  11.862  39.972  13.543
58287W        W22055   7.244   5.688   0.915
58288W        W22056  14.776  34.927  14.426
58289W        W22057   6.379  23.549  12.450
58290W        W22058  33.047  40.914  13.384
58291W        W22059   4.402  15.203  13.834
58292W        W22060  30.649   5.409   3.744
58293W        W22061  42.001   2.755  11.542
58294W        W22062  24.645   0.888   3.171
58295W        W22063  35.896  36.089   2.178
58296W        W22064  37.954  18.258   2.772
58297W        W22065  22.115  38.519   1.878
58298W        W22066  36.970  15.196  11.948
58299W        W22067  11.641   9.234   2.746
58300W        W22068  36.357  26.667  10.976
58301W        W22069  35.961  14.690   4.688
58302W        W22070  34.443  11.141  13.547
58303W        W22071   4.437  22.677   1.439
58304W        W22072  43.486   9.190   1.302
58305W        W22073   5.847  12.813   0.328
58306W        W22074   2.393  30.119   2.320
58307W        W22075  12.640   9.268  13.498
58308W        W22076   9.149   2.338  10.984
58309W        W22077   8.309  44.816   3.221
58310W        W22078  21.534  29.073   2.283
58311W        W22079  28.483   5.933   0.934
58312W        W22080  14.725  11.295   2.331
58313W        W22081  18.778  20.709   3.712
58314W        W22082  31.899  11.633   0.285
58315W        W22083   3.417  27.467  10.156
58316W        W22084  35.463  27.659   1.850
58317W        W22085  43.295   2.806  11.388
58318W        W22086  20.258  27.186  10.981
58319W        W22087  16.594  36.048   1.850
58320W        W22088  40.884  10.350   3.241
58321W        W22089  34.395  39.444  14.829
58322W        W22090  10.141  24.046  11.004
58323W        W22091   2.326   9.759   0.740
58324W        W22092  41.352  44.485  13.507
58325W        W22093   0.274  22.076  10.504
58326W        W22094  38.900  34.983  12.516
58327W        W22095  13.699   1.423   1.332
58328W        W22096  18.686  37.085   2.783
58329W        W22097  19.748  23.625  12.522
58330W        W22098  19.111   6.298   2.273
58331W        W22099  21.734  25.190   1.850
58332W        W22100  26.607  19.663  12.368
58333W        W22101   7.396  14.287   4.272
58334W        W22102  21.702  42.330   2.237
58335W        W22103  30.123  16.233  13.016
58336W        W22104  12.684  34.605  10.954
58337W        W22105   6.323  39.870   3.734
58338W        W22106   0.481  12.656  13.536
58339W        W22107   3.265   8.290   3.793
58340W        W22108  20.261  31.979  11.046
58341W        W22109  35.109  26.090   1.853
58342W        W22110  11.838  28.045   1.892
58343W        W22111   0.746  15.673   0.460
58344W        W22112  22.509  16.791  14.305
58345W        W22113  17.694  41.978  14.833
58346W        W22114  30.073  17.748  12.995
58347W        W22115  18.676   6.290   4.178
58348W        W22116   0.305  24.149   4.672
58349W        W22117  40.458  28.043   2.256
58350W        W22118  35.503  40.488  10.959
58351W        W22119  33.903  22.111   0.943
58352W        W22120  31.527  18.683  13.050
58353W        W22121  36.071   6.740  12.533
58354W        W22122  17.065  29.029  14.456
58355W        W22123  27.140  26.679   2.884
58356W        W22124   5.770   1.396   3.748
58357W        W22125   3.385  29.991  11.010
58358W        W22126  44.836  38.327   0.351
58359W        W22127  14.724   8.348  10.501
58360W        W22128  23.709  39.900  10.981
58361W        W22129  26.582  34.921   2.672
58362W        W22130  39.515   7.400  12.351
58363W        W22131  28.935  24.068   2.728
58364W        W22132  34.916  35.489  13.521
58365W        W22133  16.120  34.428  11.477
58366W        W22134   8.332   5.695  12.916
58367W        W22135   2.836   1.953   1.394
58368W        W22136   4.771  22.046   5.190
58369W        W22137   7.912  14.310   3.866
58370W        W22138  29.993  18.682  13.813
58371W        W22139  42.923  21.176  10.915
58372W        W22140   3.792  22.694  10.554
58373W        W22141  26.976  31.408   1.728
58374W        W22142   1.411   1.875   0.796
58375W        W22143  10.864  22.602  11.958
58376W        W22144   1.772  12.359  13.507
58377W        W22145  11.372  24.486   0.421
58378W        W22146  22.140   9.359  13.801
58379W        W22147  12.154  23.664  11.434
58380W        W22148  17.269  28.102  11.877
58381W        W22149  42.289  35.880   0.371
58382W        W22150  12.675  29.159   2.406
58383W        W22151  17.062  33.921  14.974
58384W        W22152   7.281   2.428  10.572
58385W        W22153   3.902   8.861   1.827
58386W        W22154  15.759  33.607   2.760
58387W        W22155  22.094  21.553  11.384
58388W        W22156   2.843   8.707  12.573
58389W        W22157  42.458  23.071  11.395
58390W        W22158   0.334  42.926  14.306
58391W        W22159  29.516  10.179   0.767
58392W        W22160  30.922  12.684   3.674
58393W        W22161  10.768  39.940   0.462
58394W        W22162  19.770  18.649   1.896
58395W        W22163  12.662  27.615  11.965
58396W        W22164   4.322  24.658  10.966
58397W        W22165  38.906  16.774   4.707
58398W        W22166  32.091   5.381  10.573
58399W        W22167  32.484  13.762  11.423
58400W        W22168  18.619   2.401  12.864
58401W        W22169  22.114  15.131  11.082
58402W        W22170  16.770   8.795   0.292
58403W        W22171  15.284  21.219  10.466
58404W        W22172  15.807  13.340   3.691
58405W        W22173   7.184  23.631  14.441
58406W        W22174  33.918  29.072  11.586
58407W        W22175  18.164  33.049  11.953
58408W        W22176   2.844  43.873  14.358
58409W        W22177  35.541  16.738   5.659
58410W        W22178   1.237   9.768  12.904
58411W        W22179  40.318  33.116  10.622
58412W        W22180  38.885  35.429   2.301
58413W        W22181   9.877   5.759   3.762
58414W        W22182   2.746   8.245  14.776
58415W        W22183  20.205  21.209   5.180
58416W        W22184   8.318  14.097   3.813
58417W        W22185   2.235  17.262  13.540
58418W        W22186  18.053   6.188  10.540
58419W        W22187   6.197  21.174   5.145
58420W        W22188  17.148  25.047   2.883
58421W        W22189  38.866  21.683  14.430
58422W        W22190   2.846   1.278   3.781
58423W        W22191  40.843  22.525   2.182
58424W        W22192   6.417  15.686  11.960
58425W        W22193  30.073   3.768  13.011
58426W        W22194  25.509  27.475   3.827
58427W        W22195  38.844  42.027   5.321
58428W        W22196  38.906  10.253  13.433
58429W        W22197  19.652  10.224  13.985
58430W        W22198  21.749   5.841  12.032
58431W        W22199  21.608  33.042  13.485
58432W        W22200   5.785   6.368  14.000
58433W        W22201  36.582  10.815  10.472
58434W        W22202  37.461   3.375   2.279
58435W        W22203   3.325   4.801   5.086
58436W        W22204  43.829  44.863   2.253
58437W        W22205  12.835   4.730  14.405
58438W        W22206  12.740  28.599  13.800
58439W        W22207  13.233  25.525  13.419
58440W        W22208  40.799   4.227   1.441
58441W        W22209  40.998   3.297   3.819
58442W        W22210  26.110  31.450  10.159
58443W        W22211  12.638   1.898  12.568
58444W        W22212  34.563  24.064  13.921
58445W        W22213   8.733  29.047   3.695
58446W        W22214   3.837  33.433   1.861
58447W        W22215  29.437   2.240   4.734
58448W        W22216  27.064  35.395   5.168
58449W        W22217  37.441  24.156   2.288
58450W        W22218  19.708  26.658   4.330
58451W        W22219  24.521  10.704   3.687
58452W        W22220   3.733  44.913  13.321
58453W        W22221  40.350  23.566   3.776
58454W        W22222  15.586  33.591  11.886
58455W        W22223  10.268   4.881   1.932
58456W        W22224  22.581  12.219  12.056
58457W        W22225  38.407  41.907   2.358
58458W        W22226   1.895  33.517  11.941
58459W        W22227  23.638  15.716   4.165
58460W        W22228  26.510  43.324   1.425
58461W        W22229  24.028  11.704   4.341
58462W        W22230  19.729  29.564   1.881
58463W        W22231   9.758  40.357   0.749
58464W        W22232   9.670  27.666   4.295
58465W        W22233  37.497  42.948  13.502
58466W        W22234   3.275   3.372   4.183
58467W        W22235  28.567  19.097  13.040
58468W        W22236  11.278   2.786   1.294
58469W        W22237  37.913   0.810   2.797
58470W        W22238  15.263  40.482   4.195
58471W        W22239  37.567  43.958  13.414
58472W        W22240  28.533  10.821   2.355
58473W        W22241  25.686  32.067   4.199
58474W        W22242  22.544   2.796  10.428
58475W        W22243   5.896  16.714  14.361
58476W        W22244  14.627   3.264   3.680
58477W        W22245  10.639  20.571   2.294
58478W        W22246  35.078   5.724   3.730
58479W        W22247  29.110  34.440  14.312
58480W        W22248  25.523   8.183  13.825
58481W        W22249   4.401  11.749  11.481
58482W        W22250  14.732  13.319   0.881
58483W        W22251  14.137  38.056   3.169
58484W        W22252  21.233  14.753  12.863
58485W        W22253  11.331  31.078  12.888
58486W        W22254  12.249  25.684  12.066
58487W        W22255  31.120  13.732   2.247
58488W        W22256  10.714  43.905   2.190
58489W        W22257  10.241  13.628   0.899
58490W        W22258  28.574  36.434   1.376
58491W        W22259  42.901  36.917  10.489
58492W        W22260  41.869  29.468  10.000
58493W        W22261  24.491  41.498  12.973
58494W        W22262  27.529  17.079   3.162
58495W        W22263   1.380  10.289   2.319
58496W        W22264  22.668  15.689  12.495
58497W        W22265  37.945  34.506   2.314
58498W        W22266  22.688  29.172  14.332
58499W        W22267   1.477  22.614  10.528
58500W        W22268  35.468  23.199   3.865
58501W        W22269  27.455  39.468  11.956
58502W        W22270  10.879  30.639  14.387
58503W        W22271  17.235  21.038   2.775
58504W        W22272   3.871  34.431  14.357
58505W        W22273  36.362  40.033   3.195
58506W        W22274  28.972  33.551  13.035
58507W        W22275  23.198  25.040   5.252
58508W        W22276  21.520  28.035  13.892
58509W        W22277  11.318  10.813   3.828
58510W        W22278  27.981  31.596  13.001
58511W        W22279  18.740  23.215  10.573
58512W        W22280  33.611  42.798  10.618
58513W        W22281   4.217  21.028   2.259
58514W        W22282  40.852   3.861  13.979
58515W        W22283  34.975  18.630  14.450
58516W        W22284   6.733   4.842  14.488
58517W        W22285  24.119  31.402   4.318
58518W        W22286  10.359  18.710  11.110
58519W        W22287   1.359  29.130  10.476
58520W        W22288  21.119  41.041  11.092
58521W        W22289  22.653   5.783  14.861
58522W        W22290  20.110   7.784   3.286
58523W        W22291  40.961  17.617   1.842
58524W        W22292  16.079  30.972  11.387
58525W        W22293  27.458   5.244  11.954
58526W        W22294   0.411  39.556  14.918
58527W        W22295  34.584  40.458   3.383
58528W        W22296  44.440  37.576  10.130
58529W        W22297   1.734  44.285  12.540
58530W        W22298  21.682  14.826  14.916
58531W        W22299  30.006  23.604   4.254
58532W        W22300  15.787   7.875  14.825
58533W        W22301  32.499  28.525   0.780
58534W        W22302   6.288  23.156  12.561
58535W        W22303   3.744  44.380  13.419
58536W        W22304  27.550  23.531  10.633
58537W        W22305  11.796  43.889   2.380
58538W        W22306   1.340  22.209   3.665
58539W        W22307   0.315  38.877   2.219
58540W        W22308  13.830   0.364  13.980
58541W        W22309  21.664  39.548  14.364
58542W        W22310  41.968  36.496   3.798
58543W        W22311  30.934  32.123   0.338
58544W        W22312  42.515  23.093   4.830
58545W        W22313  40.801   1.852   1.836
58546W        W22314  34.614  41.481  14.815
58547W        W22315   6.233  44.871   3.677
58548W        W22316  14.767  39.315  11.946
58549W        W22317  11.795  38.362  12.507
58550W        W22318  12.656  29.535   2.365
58551W        W22319  38.351  19.204  13.946
58552W        W22320  19.662  17.275   4.816
58553W        W22321  40.822  40.939  11.995
58554W        W22322  31.148  20.096  12.380
58555W        W22323  13.200  20.236  13.828
58556W        W22324   7.685  37.837   0.877
58557W        W22325  26.700  24.072   0.913
58558W        W22326  42.512   4.888  12.884
58559W        W22327  33.982  31.150  12.368
58560W        W22328  10.738   8.187  11.492
58561W        W22329   4.884  31.595  13.455
58562W        W22330  18.139  23.223  11.424
58563W        W22331  32.533   5.759  12.467
58564W        W22332  25.631  11.277  12.356
58565W        W22333  30.087  24.486   0.343
58566W        W22334   3.847  13.252  13.845
58567W        W22335  28.946   2.354  13.045
58568W        W22336  10.812   6.753  11.894
58569W        W22337  13.735  11.773   2.379
58570W        W22338  19.107  22.229  13.856
58571W        W22339  12.356  41.960   3.216
58572W        W22340  33.098  35.390  14.330
58573W        W22341  21.162   4.279  14.887
58574W        W22342  43.373  26.528  12.013
58575W        W22343  14.724   0.859  14.900
58576W        W22344  44.931  15.659  14.457
58577W        W22345  31.485   6.855   4.608
58578W        W22346  19.695   0.759  12.891
58579W        W22347  18.172   9.847  14.287
58580W        W22348   2.363  21.040   9.989
58581W        W22349  12.802  31.431  12.029
58582W        W22350  14.238  31.437   3.682
58583W        W22351   3.830  14.270  12.034
58584W        W22352   8.848   4.794   1.259
58585W        W22353  43.925  18.108  11.962
58586W        W22354   4.725  37.565   4.293
58587W        W22355  31.558   7.856   0.845
58588W        W22356  21.049   9.785  11.118
58589W        W22357  39.878  32.934  14.443
58590W        W22358  31.998  18.583  11.411
58591W        W22359   4.329  42.357   4.600
58592W        W22360   1.282   2.763   1.371
58593W        W22361  36.875  39.340  13.883
58594W        W22362  17.709  19.169   1.450
58595W        W22363  24.046  33.465  13.544
58596W        W22364  38.328  11.263  11.955
58597W        W22365  37.083  36.430   0.928
58598W        W22366   6.795  22.523  13.976
58599W        W22367  39.947  19.564   4.309
58600W        W22368  21.086  12.349  10.461
58601W        W22369  17.770  15.103  13.820
58602W        W22370   7.687  26.477   2.184
58603W        W22371  20.675   3.848  14.336
58604W        W22372  42.979  30.035  14.845
58605W        W22373   0.322  39.992  14.368
58606W        W22374  23.234  12.678   1.918
58607W        W22375  28.569  28.640  10.949
58608W        W22376  43.468  17.253   1.809
58609W        W22377  31.007   1.976  10.475
58610W        W22378  43.428  37.408   4.800
58611W        W22379  33.401   8.723  14.883
58612W        W22380  35.416   0.479   0.834
58613W        W22381  43.368  27.105   0.455
58614W        W22382  14.798  15.321   2.203
58615W        W22383  12.196  22.542  13.948
58616W        W22384   9.832  38.394   2.329
58617W        W22385  31.509  28.954   2.679
58618W        W22386  13.753  27.661   3.713
58619W        W22387  26.612  26.022  12.395
58620W        W22388  41.946  20.694   4.711
58621W        W22389   6.378  34.952  10.953
58622W        W22390  44.842  35.466   0.857
58623W        W22391  12.271  40.797  10.418
58624W        W22392  16.139  15.145   0.376
58625W        W22393  37.983  43.818  12.018
58626W        W22394  21.246  25.093  12.966
58627W        W22395  36.393  21.185   3.385
58628W        W22396  11.355   1.422   0.299
58629W        W22397  11.627  22.182   1.846
58630W        W22398   3.803   2.866  13.801
58631W        W22399   2.941   1.959  13.478
58632W        W22400  15.229  11.650  13.055
58633W        W22401  38.929  44.997  12.537
58634W        W22402  23.712  16.229  13.862
58635W        W22403  15.155  13.751  12.044
58636W        W22404  13.130   3.252   2.848
58637W        W22405  44.814  12.702   4.282
58638W        W22406  29.154  17.243  14.328
58639W        W22407  15.084  13.755  11.442
58640W        W22408  23.634  42.869   2.298
58641W        W22409  32.081   2.245  13.442
58642W        W22410  28.541  38.547  12.374
58643W        W22411  28.147  14.258  10.962
58644W        W22412  23.581  18.689   4.732
58645W        W22413  12.145   5.836  11.394
58646W        W22414  36.394   4.841   1.785
58647W        W22415  43.928  32.587   2.839
58648W        W22416  23.689  21.162   2.761
58649W        W22417   8.388  27.090   3.164
58650W        W22418  21.677  31.070  11.887
58651W        W22419  24.152  34.580   2.765
58652W        W22420  44.853  13.762   3.382
58653W        W22421  21.112   9.793  14.515
58654W        W22422  42.526  17.178  12.081
58655W        W22423   2.324  24.643  10.612
58656W        W22424  42.284  12.655   2.259
58657W        W22425   9.793  25.115   3.228
58658W        W22426  18.765  24.187  11.088
58659W        W22427  15.320  13.803  10.058
58660W        W22428   4.941  14.314   3.359
58661W        W22429   8.767  14.799  14.029
58662W        W22430  38.469  13.730  11.530
58663W        W22431   3.752  28.676   4.216
58664W        W22432  14.815  27.143   0.383
58665W        W22433  40.496  32.028  11.024
58666W        W22434  28.038   4.240   4.248
58667W        W22435  14.154  33.014  11.472
58668W        W22436  38.077  30.568   0.757
58669W        W22437   6.355  27.151  14.018
58670W        W22438   0.892   8.302   2.869
58671W        W22439  14.152   2.340  13.988
58672W        W22440  34.086  29.548  14.415
58673W        W22441  35.409   3.237  13.501
58674W        W22442  19.659  31.952  11.906
58675W        W22443  29.464  19.041   1.395
58676W        W22444  35.888  28.618   2.192
58677W        W22445  26.203  18.192  14.922
58678W        W22446   7.398   9.750   1.250
58679W        W22447   2.325   1.904   2.261
58680W        W22448  25.702  16.650   4.694
58681W        W22449  31.547  28.941  11.441
58682W        W22450  31.445  16.761   3.292
58683W        W22451  16.797  35.046   9.976
58684W        W22452  13.338  43.376   0.377
58685W        W22453  22.221  30.013   2.826
58686W        W22454  27.637  21.091   2.335
58687W        W22455  20.649   7.319  11.480
58688W        W22456  28.557  30.539   2.806
58689W        W22457  28.579  33.447  12.962
58690W        W22458  33.386  40.336   1.876
58691W        W22459  22.023  10.841   2.323
58692W        W22460  37.428  20.079   4.838
58693W        W22461  20.189  17.300  10.137
58694W        W22462  39.930  23.638   3.855
58695W        W22463  37.860   3.455   2.268
58696W        W22464  38.069   3.416   5.187
58697W        W22465  19.715   1.407  12.998
58698W        W22466  15.248   2.228  14.810
58699W        W22467  41.801   9.300   3.674
58700W        W22468  28.534   0.923   3.265
58701W        W22469  37.493  42.317   3.262
58702W        W22470  15.131  20.038  12.977
58703W        W22471   9.778  31.470   0.918
58704W        W22472  21.021  42.981  11.435
58705W        W22473  28.574   6.184  11.387
58706W        W22474  28.483  25.502   0.344
58707W        W22475  37.839  32.483   1.712
58708W        W22476   7.345   9.856   1.720
58709W        W22477   6.329  14.614   0.734
58710W        W22478   4.314  10.195  13.331
58711W        W22479  41.526  35.557  14.294
58712W        W22480  23.119  41.824  12.344
58713W        W22481   3.710  27.192   1.293
58714W        W22482  11.641  33.400  14.862
58715W        W22483  15.669  27.450   1.889
58716W        W22484  15.689  30.119   2.748
58717W        W22485  28.506  39.836   3.186
58718W        W22486  24.090  15.690  11.875
58719W        W22487  23.158  23.636  14.974
58720W        W22488  44.824  38.445  11.958
58721W        W22489  17.598   4.426   3.643
58722W        W22490  44.348   7.684  11.981
58723W        W22491  13.665  22.124  13.849
58724W        W22492  25.030  17.611  11.873
58725W        W22493  15.167  19.273   1.790
58726W        W22494  33.918  13.638  12.390
58727W        W22495  15.320  34.006  14.499
58728W        W22496  31.960  36.061  10.910
58729W        W22497  34.106   8.353   1.913
58730W        W22498  25.054  44.874   1.236
58731W        W22499  15.823  11.265   0.306
58732W        W22500   2.302  21.630   2.688
58733W        W22501  11.685  10.322   3.847
58734W        W22502  32.412  22.525  12.840
58735W        W22503   3.235  35.439   2.398
58736W        W22504  30.500  24.007  13.342
58737W        W22505  25.029  34.070  13.919
58738W        W22506  25.685  13.730  12.847
58739W        W22507  30.598  43.983   3.791
58740W        W22508  28.081  18.703   0.929
58741W        W22509   6.222   5.241  12.825
58742W        W22510  38.048  29.935   2.216
58743W        W22511  18.717  26.150  14.006
58744W        W22512  38.412  28.966  14.901
58745W        W22513  31.483   5.745  14.028
58746W        W22514  12.145  11.777  13.951
58747W        W22515  36.892  31.120  13.990
58748W        W22516  26.174  21.666   0.738
58749W        W22517   8.900  44.313  14.782
58750W        W22518  26.687  36.062   4.114
58751W        W22519  21.660   0.338  14.969
58752W        W22520   3.952   0.413   0.953
58753W        W22521   8.208   5.332  11.125
58754W        W22522  15.323  13.283   3.164
58755W        W22523   5.410  37.013  11.101
58756W        W22524  22.640  31.994   9.948
58757W        W22525   8.781  43.275  11.512
58758W        W22526   4.906  24.041  13.467
58759W        W22527  16.615  28.453  12.995
58760W        W22528  21.217  26.155   2.835
58761W        W22529  14.228  28.152   2.293
58762W        W22530  14.226   1.860   0.425
58763W        W22531   2.392  19.196   0.741
58764W        W22532   7.788  28.626  12.910
58765W        W22533  26.668   3.296   2.744
58766W        W22534   9.375  31.084   2.406
58767W        W22535  29.562   6.865   2.883
58768W        W22536   6.239   5.431   3.689
58769W        W22537  13.745  18.594  11.492
58770W        W22538  11.729  40.435  10.945
58771W        W22539  15.163  20.151  11.032
58772W        W22540  17.132  26.068   1.310
58773W        W22541  14.210   6.886  14.967
58774W        W22542  16.077  34.935   1.303
58775W        W22543   4.794  44.384   1.853
58776W        W22544  36.086  36.855  10.602
58777W        W22545   0.747   7.252   2.679
58778W        W22546  23.038  13.791   1.298
58779W        W22547  13.130  44.771   1.446
58780W        W22548   4.871  22.731  10.570
58781W        W22549   6.898  27.123  14.020
58782W        W22550  39.044   3.214   0.752
58783W        W22551   9.250   0.824  13.992
58784W        W22552  28.017  28.186   1.275
58785W        W22553  27.068  26.580   3.748
58786W        W22554  10.307  35.089  11.525
58787W        W22555  18.140  36.523  11.919
58788W        W22556  10.738  30.102   0.334
58789W        W22557  41.930   6.797   2.744
58790W        W22558  16.235  32.507  10.572
58791W        W22559  31.424  22.528   1.720
58792W        W22560  38.861  44.384   1.421
58793W        W22561  28.535  38.567  14.829
58794W        W22562  28.964  25.572  12.025
58795W        W22563   8.384   6.729   1.775
58796W        W22564  37.371  14.695  13.849
58797W        W22565  16.074  32.423   1.737
58798W        W22566  35.404  17.201   1.430
58799W        W22567   7.331  44.913   0.885
58800W        W22568  25.535  39.523   4.175
58801W        W22569  40.962  39.965  10.903
58802W        W22570  36.012  25.149  13.359
58803W        W22571  24.038  10.302   2.897
58804W        W22572  12.164  44.846  10.508
58805W        W22573   2.939  18.777  10.914
58806W        W22574  24.695  42.498   0.944
58807W        W22575   2.472  17.120  12.569
58808W        W22576  23.183  42.897   4.210
58809W        W22577  37.394  44.932  10.481
58810W        W22578  14.166  42.827   2.704
58811W        W22579  30.945  25.131  14.288
58812W        W22580  15.793  17.202  13.451
58813W        W22581   3.303  32.990  14.489
58814W        W22582  44.435  33.924   1.295
58815W        W22583  38.344  31.976   2.810
58816W        W22584  13.602  18.654  10.910
58817W        W22585   2.826  10.747   4.122
58818W        W22586  14.827   4.235   1.770
58819W        W22587  14.171   0.316   2.886
58820W        W22588  34.944  33.509   4.682
58821W        W22589  38.893   9.764   2.741
58822W        W22590  22.604  42.281  12.505
58823W        W22591   3.309  18.285  12.031
58824W        W22592  10.711   9.271   0.868
58825W        W22593   1.334  40.482   2.406
58826W        W22594  14.595  43.481  11.971
58827W        W22595  14.179   1.299   1.890
58828W        W22596   7.748  26.564   5.289
58829W        W22597  23.513   4.900   4.827
58830W        W22598  30.031  36.505  12.370
58831W        W22599  41.018   6.265   2.829
58832W        W22600  26.654   3.946  14.891
58833W        W22601  32.614  36.065  11.062
58834W        W22602   7.377  29.487  12.564
58835W        W22603  16.226  12.321  11.963
58836W        W22604   3.843  27.982  11.855
58837W        W22605  42.948   7.868   2.765
58838W        W22606  33.549  33.415   0.272
58839W        W22607  16.269   0.779   0.310
58840W        W22608  44.368  31.975  14.940
58841W        W22609   7.416  20.110  13.868
58842W        W22610  29.452  37.506   0.291
58843W        W22611  14.670   1.380   4.746
58844W        W22612   8.169   2.914  11.530
58845W        W22613   8.346   3.261  10.543
58846W        W22614   8.196  15.619  14.389
58847W        W22615  22.581  40.053  13.947
58848W        W22616  37.949  19.191  14.933
58849W        W22617  28.003  26.507   3.198
58850W        W22618  40.873  18.610   3.838
58851W        W22619  43.306  35.859   4.726
58852W        W22620  38.988  41.319   0.745
58853W        W22621   1.417  19.176   4.722
58854W        W22622  43.870  38.956  10.912
58855W        W22623  17.559  18.549   2.271
58856W        W22624  18.748   0.806  10.046
58857W        W22625  11.672  36.414   1.335
58858W        W22626  13.635  25.164   0.885
58859W        W22627   2.942   9.712   4.279
58860W        W22628   5.741   7.893   4.318
58861W        W22629  44.367  27.528  10.966
58862W        W22630  20.728  30.578   1.352
58863W        W22631   0.974  19.184  14.770
58864W        W22632  19.658  30.142   0.345
58865W        W22633  42.870  20.091   0.929
58866W        W22634   4.746  36.039  14.905
58867W        W22635   7.780   3.379   4.761
58868W        W22636  18.576  36.428   5.267
58869W        W22637  30.922   0.947   0.820
58870W        W22638  43.836  25.097   1.274
58871W        W22639  17.295  43.935  11.574
58872W        W22640  12.224  17.575   1.333
58873W        W22641  15.735  31.439  12.465
58874W        W22642  21.083   9.844  12.939
58875W        W22643  33.073  26.080  11.488
58876W        W22644  17.157  17.740  14.472
58877W        W22645  27.497  33.120  11.428
58878W        W22646  13.782   1.971   3.831
58879W        W22647   9.673  22.089  14.784
58880W        W22648  29.093  24.494   3.258
58881W        W22649  33.573  31.935   0.891
58882W        W22650  20.563  25.202  11.912
58883W        W22651  40.950  10.204   1.434
58884W        W22652  22.702  18.253  12.056
58885W        W22653  29.065  23.658  10.570
58886W        W22654  44.390  16.270   0.805
58887W        W22655  33.451   3.955  11.898
58888W        W22656  42.377   9.783   1.909
58889W        W22657  25.481  35.106  13.516
58890W        W22658   4.218  28.977   3.207
58891W        W22659  41.328  15.802  10.483
58892W        W22660  43.819  24.187  10.607
58893W        W22661  12.322   8.865  14.292
58894W        W22662  37.043  17.208  13.880
58895W        W22663  41.892   2.415  12.869
58896W        W22664  43.309  20.137   2.724
58897W        W22665  25.044  23.086  14.458
58898W        W22666  17.125   3.322   1.374
58899W        W22667  29.963  28.085   1.844
58900W        W22668  24.706  37.426  10.913
58901W        W22669  14.116  41.343   2.700
58902W        W22670  34.565  22.997   0.946
58903W        W22671  24.988  14.260   4.244
58904W        W22672   5.784   3.301  11.053
58905W        W22673  11.743  13.112   1.411
58906W        W22674  32.889  37.844  13.458
58907W        W22675   5.356   5.365  14.902
58908W        W22676  17.157   8.728  13.405
58909W        W22677  33.589   2.288  10.639
58910W        W22678  42.410  26.659  10.518
58911W        W22679   3.389  33.919  10.910
58912W        W22680  33.616  37.485  10.403
58913W        W22681  34.999  33.119   3.308
58914W        W22682   6.312  28.558   4.310
58915W        W22683  33.091  34.415   4.147
58916W        W22684  34.993  21.099   5.125
58917W        W22685   4.806   2.415   9.925
58918W        W22686  21.152  28.649   3.834
58919W        W22687  39.873  39.442   0.936
58920W        W22688  20.568  23.103  13.986
58921W        W22689  10.706  13.139  11.554
58922W        W22690  15.803  40.040  13.829
58923W        W22691   5.762  29.567  14.804
58924W        W22692  11.289  26.614   2.782
58925W        W22693  19.083   5.721  14.970
58926W        W22694  44.301  35.095  10.530
58927W        W22695  18.067  39.548  11.929
58928W        W22696  14.128  16.766   0.469
58929W        W22697  13.784  17.249  12.464
58930W        W22698  25.164  23.617   1.901
58931W        W22699  35.385  39.872   0.279
58932W        W22700  34.932  43.854  12.018
58933W        W22701  43.990  37.444   1.422
58934W        W22702  11.632  34.007   3.845
58935W        W22703  25.481  33.457  14.781
58936W        W22704  34.392  43.280  12.828
58937W        W22705   8.807  42.788   3.383
58938W        W22706  14.814  41.302  13.412
58939W        W22707  33.625   5.286  12.956
58940W        W22708  11.673   7.263  13.322
58941W        W22709   4.851  16.237  10.951
58942W        W22710  23.135  34.460  10.459
58943W        W22711  15.712  31.550  13.946
58944W        W22712  12.734  30.966   4.682
58945W        W22713   4.308  28.935   1.791
58946W        W22714   4.316   8.788  13.876
58947W        W22715  42.443  42.851   2.802
58948W        W22716  35.030  31.917  13.512
58949W        W22717  32.430  30.613  14.425
58950W        W22718  39.343  24.547  12.906
58951W        W22719  41.935  24.001  11.500
58952W        W22720  39.538  33.937  14.876
58953W        W22721  37.579  16.776   0.473
58954W        W22722  41.868  19.631  12.833
58955W        W22723  27.113  11.314  13.027
58956W        W22724  18.712   0.288   3.244
58957W        W22725   2.873  18.641   1.876
58958W        W22726  19.556   1.384  12.502
58959W        W22727  31.092  42.397   4.288
58960W        W22728  36.856  41.319  11.990
58961W        W22729  32.950  25.037   4.837
58962W        W22730  13.275  17.281   1.333
58963W        W22731  42.832   4.846  13.418
58964W        W22732  37.037   0.282   1.894
58965W        W22733  18.167  36.441  14.372
58966W        W22734  35.531   3.264   5.257
58967W        W22735  25.655  23.579   1.316
58968W        W22736  23.068  29.124  14.961
58969W        W22737  41.345   1.744  10.605
58970W        W22738  43.854  14.231  13.493
58971W        W22739   5.413  38.511   3.782
58972W        W22740  28.643  32.632   1.248
58973W        W22741  19.241   0.986  10.926
58974W        W22742   1.456  42.881  14.951
58975W        W22743  17.091  13.803   3.693
58976W        W22744  44.860  39.015  10.123
58977W        W22745  30.979  19.685   1.929
58978W        W22746  35.934  11.691  13.877
58979W        W22747  30.941  22.733   5.315
58980W        W22748  38.011   4.378   3.253
58981W        W22749  11.292   8.190  12.926
58982W        W22750  15.815  15.607   1.370
58983W        W22751  27.053  12.804   3.377
58984W        W22752   0.448  17.303   0.907
58985W        W22753  23.529   6.351  14.878
58986W        W22754  39.497  14.216  11.084
58987W        W22755  12.254  33.085   4.157
58988W        W22756   9.881   3.458   0.894
58989W        W22757  29.619  38.032  14.334
58990W        W22758  19.747   6.360  14.290
58991W        W22759  27.028   2.722  13.018
58992W        W22760  36.374  39.001  13.015
58993W        W22761  40.471  14.704  13.843
58994W        W22762  31.424   0.928   1.430
58995W        W22763  43.965   4.936  14.353
58996W        W22764  40.803  43.907   1.254
58997W        W22765   3.721  39.332   0.373
58998W        W22766  35.003  43.884  14.325
58999W        W22767  41.336  42.343  11.425
59000W        W22768  37.876  15.289   3.205
59001W        W22769   3.943   4.795  14.763
59002W        W22770   7.711   4.442   4.295
59003W        W22771  28.603   9.172   2.329
59004W        W22772  33.436  43.786   1.349
59005W        W22773  44.877   0.778  10.896
59006W        W22774   1.297  37.401   3.641
59007W        W22775  39.362  20.591  11.518
59008W        W22776  30.482  21.145  13.935
59009W        W22777  15.819  36.510   2.207
59010W        W22778  40.455  39.059   1.266
59011W        W22779  13.631   0.942   1.818
59012W        W22780   8.854  18.547  11.036
59013W        W22781  42.414  13.303  10.961
59014W        W22782   2.314   7.184   3.795
59015W        W22783   0.340   1.878  14.763
59016W        W22784  24.534   9.270   3.317
59017W        W22785  42.836   0.272  13.824
59018W        W22786   1.860  34.512   9.468
59019W        W22787  35.867  13.602   3.862
59020W        W22788  15.195  33.427  13.349
59021W        W22789  24.519  32.913  13.873
59022W        W22790   3.764  17.664  13.531
59023W        W22791  36.903  40.919   0.281
59024W        W22792  28.020  35.460  12.477
59025W        W22793  42.392  43.277   4.284
59026W        W22794  34.389  29.647   3.208
59027W        W22795  25.989   8.728  13.866
59028W        W22796   2.374  21.543  14.278
59029W        W22797  32.467  12.715  12.349
59030W        W22798  22.688  40.851  11.872
59031W        W22799  10.256  28.582  14.906
59032W        W22800  27.984   6.333  11.560
59033W        W22801   4.403   3.948   3.266
59034W        W22802   9.227   1.820  13.324
59035W        W22803   8.691   0.483  14.313
59036W        W22804  33.891   6.333  11.460
59037W        W22805  29.957  29.511  13.310
59038W        W22806   7.789  19.625   4.340
59039W        W22807  41.438   0.459   4.670
59040W        W22808  16.148   7.278  14.436
59041W        W22809  39.507  16.811  14.417
59042W        W22810   1.309  20.734  13.847
59043W        W22811  10.164  27.496   3.269
59044W        W22812   4.420  33.907   1.728
59045W        W22813  25.154   8.243   0.349
59046W        W22814  14.627  33.444  10.151
59047W        W22815   3.399  38.373   3.228
59048W        W22816  28.144  42.876  12.085
59049W        W22817  14.681  38.569   0.816
59050W        W22818  36.013  11.354  10.546
59051W        W22819  22.076   9.325   1.845
59052W        W22820  17.151  36.079   5.158
59053W        W22821   6.345  16.587  12.408
59054W        W22822   9.813   4.846  13.019
59055W        W22823  43.861   9.869   3.264
59056W        W22824  10.728   9.215   1.887
59057W        W22825  24.131   1.343   0.872
59058W        W22826   4.261   9.313   3.218
59059W        W22827  20.746  19.691   3.376
59060W        W22828   3.217   6.696  11.420
59061W        W22829  34.037  15.798  13.512
59062W        W22830  37.060  15.791  14.904
59063W        W22831  23.998  30.623  10.423
59064W        W22832  40.335   0.749  12.551
59065W        W22833  42.436  31.025   4.753
59066W        W22834   8.809   5.907  12.831
59067W        W22835  23.719  33.561   3.340
59068W        W22836  44.860   0.356  12.339
59069W        W22837   8.658   0.861  10.932
59070W        W22838  24.572  36.348   0.416
59071W        W22839  28.650  42.871  12.409
59072W        W22840   0.285  25.625  13.516
59073W        W22841  31.494  12.760   1.842
59074W        W22842  22.244  14.141   0.860
59075W        W22843   2.957  22.650  13.793
59076W        W22844  37.553  37.890  13.036
59077W        W22845  23.699  13.158  14.896
59078W        W22846  27.012  15.276   3.764
59079W        W22847  40.347   6.280  12.565
59080W        W22848  17.179  43.373  13.454
59081W        W22849   9.252  32.087   1.882
59082W        W22850   5.436   6.897   4.186
59083W        W22851  11.310  23.200  14.001
59084W        W22852  33.623   4.374   3.297
59085W        W22853  34.520  34.519  14.021
59086W        W22854  38.447   4.911   1.287
59087W        W22855  18.066  28.516  13.328
59088W        W22856  31.993  22.214   1.838
59089W        W22857   2.338   4.402  11.978
59090W        W22858  43.913  40.351   4.787
59091W        W22859  33.590  12.329  13.016
59092W        W22860  22.645   6.894  11.945
59093W        W22861  21.092  24.128  11.476
59094W        W22862   3.905   4.285   2.257
59095W        W22863   2.800  27.583  11.485
59096W        W22864  32.059  35.469   0.778
59097W        W22865   3.440   7.730  11.062
59098W        W22866  12.716  34.570   3.231
59099W        W22867  39.918  17.771   1.862
59100W        W22868  35.386  12.271  12.898
59101W        W22869  20.171  17.174   0.887
59102W        W22870  15.304   3.222  11.959
59103W        W22871  37.055  34.559   4.628
59104W        W22872  11.648  17.112  13.412
59105W        W22873   8.878  26.184  10.469
59106W        W22874  39.555  25.085  11.569
59107W        W22875  27.166  11.781   2.245
59108W        W22876  16.279   7.767   2.380
59109W        W22877  10.710  31.976  14.419
59110W        W22878  36.576  24.544   2.261
59111W        W22879   0.788   6.681   2.280
59112W        W22880  32.627  27.034  11.547
59113W        W22881  19.221   9.312  14.920
59114W        W22882  36.978   0.835   0.282
59115W        W22883  29.649  26.161  12.903
59116W        W22884  21.543  36.524   3.357
59117W        W22885  15.289  43.514   3.241
59118W        W22886  29.986  27.007  11.477
59119W        W22887  16.084  36.877  14.339
59120W        W22888  16.151  31.560   0.342
59121W        W22889  20.217  27.607  13.469
59122W        W22890   1.758   6.687  10.999
59123W        W22891  40.513  31.116  14.363
59124W        W22892  31.116  17.222  13.543
59125W        W22893  13.684  40.802  11.912
59126W        W22894  32.119  15.783   4.734
59127W        W22895  26.493  25.503  12.439
59128W        W22896  20.726   9.375   0.800
59129W        W22897   7.321  10.201   0.869
59130W        W22898  11.783  42.805   2.748
59131W        W22899   0.956  14.785  11.568
59132W        W22900   0.438  36.953   4.227
59133W        W22901  44.948   9.256   2.369
59134W        W22902  14.631  28.649  13.459
59135W        W22903   4.205  33.600   0.739
59136W        W22904  30.578  25.217  11.053
59137W        W22905  11.848  16.176   3.236
59138W        W22906  23.210  27.584   3.305
59139W        W22907  44.400  31.431   3.381
59140W        W22908  12.842   9.152   0.377
59141W        W22909  32.534   9.301  12.971
59142W        W22910  35.384  12.799   4.351
59143W        W22911  22.602  16.097   4.116
59144W        W22912  43.499  32.573   3.259
59145W        W22913  14.099  41.505   3.282
59146W        W22914   7.379  39.938   1.768
59147W        W22915  14.094   5.356   3.311
59148W        W22916   5.897  44.269   4.623
59149W        W22917  24.513  30.157   3.854
59150W        W22918  29.437   8.214   0.899
59151W        W22919  28.966  29.016  13.365
59152W        W22920  16.168  21.746  10.134
59153W        W22921  24.174  40.898   3.223
59154W        W22922  33.031   3.314  10.551
59155W        W22923  35.440   4.276  12.518
59156W        W22924  26.467  32.024  14.956
59157W        W22925  41.796  28.438  13.910
59158W        W22926  30.077  32.517  13.518
59159W        W22927  17.105   7.228  11.452
59160W        W22928   2.311  36.970  12.524
59161W        W22929  27.460  36.391  10.953
59162W        W22930  44.937  42.824   3.850
59163W        W22931   1.894  32.921   3.846
59164W        W22932  11.726  43.406  13.897
59165W        W22933   6.418   9.802   1.932
59166W        W22934  21.513  28.182   1.721
59167W        W22935   7.794  44.491   2.870
59168W        W22936   7.763  28.026  10.931
59169W        W22937  19.581  32.902   3.250
59170W        W22938  10.645   9.776   0.462
59171W        W22939  38.408  22.593  13.308
59172W        W22940  42.983  39.522   4.345
59173W        W22941  24.052  16.241  13.922
59174W        W22942  42.891  19.141   0.880
59175W        W22943  26.498  29.993  13.906
59176W        W22944  43.329   8.684   0.809
59177W        W22945  31.631   2.939  13.903
59178W        W22946   3.942  36.365   0.432
59179W        W22947   5.216  16.252  10.896
59180W        W22948  19.563   9.804  12.838
59181W        W22949  37.575  37.943  14.860
59182W        W22950  20.650  35.938  12.383
59183W        W22951  24.567  30.528  13.812
59184W        W22952  15.291  17.773   0.317
59185W        W22953  43.852   4.306  12.980
59186W        W22954  37.842  15.194  14.790
59187W        W22955  33.878   0.491  12.371
59188W        W22956  22.193  19.632   1.435
59189W        W22957  14.209  16.211  14.969
59190W        W22958  26.041  22.134  13.033
59191W        W22959  21.240  11.349  11.448
59192W        W22960  18.565  21.153   2.739
59193W        W22961  24.095  21.752   4.126
59194W        W22962  19.168  23.571   5.721
59195W        W22963  11.704  25.672   2.370
59196W        W22964  22.693  22.139   1.737
59197W        W22965  39.884  13.730  12.987
59198W        W22966  42.365  40.541  10.517
59199W        W22967  29.934   6.892  11.515
59200W        W22968   8.840  35.100   3.866
59201W        W22969  41.410  26.494  10.619
59202W        W22970  42.848  27.104  11.939
59203W        W22971  26.525  22.145  13.813
59204W        W22972   3.900   3.896   4.801
59205W        W22973  19.180  15.251  11.128
59206W        W22974  43.308  24.539  13.427
59207W        W22975  35.895  21.637   3.266
59208W        W22976   2.798  43.404  11.878
59209W        W22977  24.013   0.982  12.921
59210W        W22978   5.848  23.608  14.893
59211W        W22979  14.236  27.612  13.370
59212W        W22980  43.320  27.122   2.255
59213W        W22981  10.802  33.027  11.020
59214W        W22982   7.877   8.862   2.801
59215W        W22983  12.272  37.058   0.918
59216W        W22984   8.870  19.704   1.327
59217W        W22985  33.116  15.772  12.983
59218W        W22986  15.690  10.305  14.771
59219W        W22987  23.588  44.934  10.557
59220W        W22988  30.105  44.467  13.325
59221W        W22989   2.746   9.166  11.047
59222W        W22990  31.604  21.557  13.492
59223W        W22991   2.810  15.748   3.264
59224W        W22992  13.213   9.868   4.652
59225W        W22993  24.205  23.200  14.448
59226W        W22994  14.821  35.480   1.723
59227W        W22995  19.268  24.712   4.630
59228W        W22996   6.392  33.919  14.969
59229W        W22997  18.609   5.868   0.431
59230W        W22998   8.861  18.763   2.388
59231W        W22999   3.237  41.391  14.853
59232W        W23000  40.409   9.181   0.381
59233W        W23001  36.039  27.597   3.330
59234W        W23002  32.126  25.119   3.372
59235W        W23003  34.025   7.683  14.463
59236W        W23004  18.607  18.255  13.520
59237W        W23005  13.254   2.301   2.267
59238W        W23006  19.596  10.312  12.054
59239W        W23007  31.032  43.336   1.749
59240W        W23008  11.150  26.691   3.377
59241W        W23009  25.508  12.788  13.004
59242W        W23010   9.202   1.915  14.485
59243W        W23011   7.677   0.851   4.353
59244W        W23012  28.560  39.367   1.922
59245W        W23013  37.557  11.317  13.408
59246W        W23014   2.255   8.357   0.962
59247W        W23015  28.634  40.403   3.251
59248W        W23016   0.455  33.092   1.867
59249W        W23017  17.189  15.733  10.963
59250W        W23018  35.980   7.409   0.731
59251W        W23019  17.231  41.895   4.309
59252W        W23020  44.977  12.274  12.381
59253W        W23021  31.149  15.245   2.269
59254W        W23022  32.462  21.216   5.254
59255W        W23023  32.475  30.451  11.947
59256W        W23024  30.056  27.035  10.596
59257W        W23025   2.325   1.862   2.826
59258W        W23026   5.287  25.168  11.496
59259W        W23027   6.329  43.969   4.642
59260W        W23028  36.873  20.069  12.413
59261W        W23029   3.291   2.903  12.468
59262W        W23030   7.224  41.496  13.356
59263W        W23031  31.610  18.554  14.499
59264W        W23032   6.801  38.514   1.364
59265W        W23033  39.463  44.426   2.882
59266W        W23034  14.732  25.094   3.194
59267W        W23035  27.664  11.720   1.794
59268W        W23036  20.102   3.836   3.806
59269W        W23037   5.866  22.083  14.513
59270W        W23038   5.399  30.954   1.331
59271W        W23039  38.364  39.003   0.866
59272W        W23040  32.932   8.389   1.280
59273W        W23041   9.869  41.406  13.548
59274W        W23042  40.943  23.666  13.000
59275W        W23043  10.840  41.959   0.248
59276W        W23044  19.139   2.258   4.660
59277W        W23045  13.326  15.682   2.845
59278W        W23046  14.164  13.845   1.743
59279W        W23047  33.009  19.122   4.654
59280W        W23048  34.950   3.318  10.055
59281W        W23049  34.888  43.916  13.912
59282W        W23050  24.686  36.544  12.562
59283W        W23051  37.550  13.332  11.531
59284W        W23052   0.351   0.764  12.931
59285W        W23053   1.751  43.283  10.532
59286W        W23054   6.919  44.498  12.417
59287W        W23055  19.283  14.650  12.018
59288W        W23056  32.009  14.285  11.916
59289W        W23057   6.758  25.043   2.195
59290W        W23058   8.212   1.352   4.117
59291W        W23059  42.961  22.648   5.322
59292W        W23060  41.406  13.203   2.180
59293W        W23061  23.127  44.457  13.398
59294W        W23062  29.542  16.776  14.461
59295W        W23063  37.975  33.883   2.663
59296W        W23064  30.581  41.027   1.444
59297W        W23065  19.632  16.306   3.320
59298W        W23066  43.335  39.972   0.447
59299W        W23067  11.363  32.550   0.781
59300W        W23068  11.648   4.204  11.026
59301W        W23069  24.712  10.680   5.579
59302W        W23070  32.554   9.724   0.870
59303W        W23071  40.322  39.824   2.845
59304W        W23072   7.345  16.123   2.269
59305W        W23073  42.879  33.952   2.782
59306W        W23074  25.968  34.371   3.167
59307W        W23075  37.987  18.216   4.207
59308W        W23076  27.552  39.478  12.969
59309W        W23077  32.888  30.129   3.679
59310W        W23078   6.279  33.995   1.253
59311W        W23079  40.810  19.576  11.098
59312W        W23080  14.315  32.456   5.112
59313W        W23081  13.114  16.167  11.978
59314W        W23082   0.982  31.587   3.341
59315W        W23083  19.057   6.721   0.881
59316W        W23084  19.742  43.823   1.356
59317W        W23085  44.868  33.402   4.130
59318W        W23086  33.876   9.735   0.252
59319W        W23087  19.738  27.565  11.980
59320W        W23088  30.528  32.988   4.246
59321W        W23089  40.997  15.314  12.399
59322W        W23090  22.544  18.246   2.335
59323W        W23091  17.645  15.138   2.697
59324W        W23092  41.388  42.984  11.103
59325W        W23093  22.703  37.352   0.440
59326W        W23094  29.100  28.646   0.808
59327W        W23095  23.649  38.874  11.559
59328W        W23096  26.051  34.951  12.526
59329W        W23097  14.704  39.409  11.062
59330W        W23098  35.522  18.787   4.257
59331W        W23099  16.666  32.894   0.905
59332W        W23100  44.888  22.636   1.406
59333W        W23101   4.806  38.467   1.306
59334W        W23102  19.706   3.905  14.422
59335W        W23103  33.538  37.048  14.772
59336W        W23104  20.703   8.357   1.407
59337W        W23105   9.248  43.955   3.196
59338W        W23106  33.095  39.347   0.447
59339W        W23107  33.128  43.944   4.688
59340W        W23108  18.196  43.994  14.011
59341W        W23109   7.779  17.229  13.468
59342W        W23110   0.802  12.308   1.790
59343W        W23111  11.302   0.902  14.816
59344W        W23112  20.698  17.151  12.479
59345W        W23113  27.099  30.029  13.979
59346W        W23114  19.056  23.101   2.321
59347W        W23115   2.929  20.767   4.313
59348W        W23116   7.822  26.062  11.946
59349W        W23117  29.450  39.401   3.699
59350W        W23118  15.132   8.654  11.480
59351W        W23119  18.140  35.962  13.501
59352W        W23120  33.521  36.845  13.964
59353W        W23121  20.623   2.761   0.258
59354W        W23122  38.847   8.845  13.033
59355W        W23123  36.018   5.214   1.821
59356W        W23124  18.219  20.687   1.246
59357W        W23125  24.692  26.688   1.932
59358W        W23126  35.364  22.619   4.782
59359W        W23127  20.548  35.987   3.264
59360W        W23128   4.209  23.705   2.213
59361W        W23129  20.077  38.861  10.533
59362W        W23130  42.296  19.638   4.747
59363W        W23131   3.853  35.456   1.320
59364W        W23132  44.460  26.546   1.292
59365W        W23133  42.886  16.642   4.637
59366W        W23134  13.782  25.696  13.899
59367W        W23135   7.249  21.751  10.514
59368W        W23136   0.469  32.076  10.008
59369W        W23137  12.328  43.018  10.507
59370W        W23138  22.147   3.928   0.838
59371W        W23139  34.944  14.248   0.303
59372W        W23140   5.235  41.026  11.011
59373W        W23141  32.132   7.722   2.196
59374W        W23142  35.381  30.152   2.695
59375W        W23143   5.901  18.659   4.749
59376W        W23144  32.907  29.953  10.620
59377W        W23145  26.198  18.673   4.342
59378W        W23146   3.919  17.293   3.158
59379W        W23147  26.518   1.765  11.123
59380W        W23148  21.112  11.720  13.352
59381W        W23149  39.550  31.004   2.884
59382W        W23150  21.560  44.812   4.174
59383W        W23151   9.836   8.205  12.879
59384W        W23152  20.154  36.913   2.889
59385W        W23153  11.293  36.053  12.357
59386W        W23154   6.744  40.856  14.967
59387W        W23155  19.265  44.762  13.520
59388W        W23156   7.409  15.104   2.339
59389W        W23157   2.775  16.595  12.514
59390W        W23158   5.843  33.888  11.981
59391W        W23159  25.063  14.621   2.730
59392W        W23160  20.120  42.000   2.341
59393W        W23161  39.395  15.652  14.943
59394W        W23162  34.465  10.771   0.427
59395W        W23163  23.165  43.338  10.486
59396W        W23164  18.052   2.265   0.267
59397W        W23165   0.771  35.407  11.473
59398W        W23166  43.513  34.959   0.762
59399W        W23167  40.474  42.828  13.794
59400W        W23168  40.416  22.156   4.627
59401W        W23169   5.755   0.289  12.432
59402W        W23170  15.625  30.564   2.736
59403W        W23171  23.015  32.553  14.425
59404W        W23172  40.317   7.877   0.297
59405W        W23173  14.313  37.894  11.951
59406W        W23174   5.277  15.769  12.906
59407W        W23175  32.626   4.761  13.004
59408W        W23176  25.078   9.319  10.473
59409W        W23177  26.469  15.661  10.035
59410W        W23178   8.386  11.210  10.514
59411W        W23179   7.758  18.104   4.796
59412W        W23180   9.275  42.973  11.900
59413W        W23181  10.219   2.303   0.377
59414W        W23182  29.038  40.851   0.787
59415W        W23183  23.661  24.540  14.767
59416W        W23184  22.602  24.503  10.515
59417W        W23185  33.623  14.245  12.058
59418W        W23186  20.084   3.860  12.919
59419W        W23187  15.175   5.365  14.387
59420W        W23188  33.971  19.042  13.981
59421W        W23189   3.307  36.450   2.854
59422W        W23190  27.487  16.603  12.052
59423W        W23191  35.468  44.875  13.828
59424W        W23192   5.305  29.134  12.359
59425W        W23193  12.287  29.928   1.741
59426W        W23194   3.345   9.180  10.632
59427W        W23195  29.964  22.523   0.834
59428W        W23196  30.024  36.522  14.310
59429W        W23197  10.233  23.636   2.695
59430W        W23198   9.789   0.964  11.424
59431W        W23199   6.882   8.732  14.497
59432W        W23200  16.757  21.107   1.394
59433W        W23201  22.038  14.602   3.227
59434W        W23202  28.091  14.608   2.372
59435W        W23203  23.079  16.246   0.313
59436W        W23204  35.005  26.686   4.743
59437W        W23205  30.434   7.282  12.368
59438W        W23206  24.031  32.934  12.555
59439W        W23207  13.637  28.497   2.216
59440W        W23208  28.931  26.676   3.201
59441W        W23209  21.223  36.395   2.769
59442W        W23210  19.574  23.492   3.636
59443W        W23211  44.757   6.274   1.759
59444W        W23212  11.788  39.929   4.192
59445W        W23213  22.158  30.949  13.396
59446W        W23214   4.930   7.369   3.172
59447W        W23215  14.657  31.554   4.683
59448W        W23216  36.970  32.125  10.572
59449W        W23217  10.864  18.087   1.317
59450W        W23218  43.766  26.965   2.342
59451W        W23219  17.580  20.674  12.954
59452W        W23220  30.028   4.336   1.728
59453W        W23221  12.361  31.499   4.187
59454W        W23222  32.113  28.502  13.386
59455W        W23223  29.972  27.178   2.250
59456W        W23224  31.463   0.870  11.007
59457W        W23225  43.898  21.549  10.486
59458W        W23226  27.172  35.054  14.913
59459W        W23227   8.311  25.603   3.700
59460W        W23228  21.613  37.453   2.261
59461W        W23229   5.925   4.400  14.463
59462W        W23230  14.815  40.336  10.495
59463W        W23231  20.760   9.172   4.735
59464W        W23232  39.938  44.948   4.159
59465W        W23233  37.986  26.955  13.835
59466W        W23234  19.156   4.328  13.864
59467W        W23235  44.964  28.008   1.406
59468W        W23236  26.550   9.281  12.063
59469W        W23237  43.346  17.123  12.383
59470W        W23238   4.804  26.678   3.366
59471W        W23239  30.005  13.120   0.383
59472W        W23240   7.225  17.261   0.840
59473W        W23241  37.540  12.801   1.367
59474W        W23242   5.898  33.011  12.001
59475W        W23243  23.156  13.677  10.540
59476W        W23244   0.816  39.962  12.572
59477W        W23245  18.563  13.801  12.556
59478W        W23246  25.105  30.019   1.399
59479W        W23247  28.469  11.219  11.074
59480W        W23248  22.153  18.133   0.314
59481W        W23249  28.670  37.056  10.428
59482W        W23250  19.540   4.397  14.920
59483W        W23251  25.053  35.035  14.418
59484W        W23252  41.431  26.985  13.478
59485W        W23253   8.705  31.461   2.303
59486W        W23254  32.964  43.378  10.472
59487W        W23255  20.064  15.630   3.185
59488W        W23256  18.184  25.515  11.612
59489W        W23257   9.759  24.567   1.276
59490W        W23258   0.757  23.158  12.456
59491W        W23259  12.686  33.503   3.344
59492W        W23260  13.766  20.164   1.841
59493W        W23261  38.463  23.154   3.227
59494W        W23262  23.531   0.348   4.678
59495W        W23263  33.565   5.738   1.802
59496W        W23264  31.426  22.022   1.415
59497W        W23265  28.596  16.788   2.787
59498W        W23266  44.956  40.494   9.938
59499W        W23267  28.985  28.626  11.937
59500W        W23268  40.976  43.444   3.695
59501W        W23269   0.404  37.459  12.488
59502W        W23270  19.727  21.591  12.072
59503W        W23271  30.063   7.205   3.853
59504W        W23272  39.391  26.981   1.433
59505W        W23273   5.869  29.667  13.876
59506W        W23274   0.811  37.949  12.081
59507W        W23275  26.690  18.277   2.855
59508W        W23276  16.195  21.195   1.412
59509W        W23277   3.452  28.668   3.781
59510W        W23278  25.169  35.510   3.364
59511W        W23279   1.907  27.559   3.233
59512W        W23280  12.705  28.558  14.766
59513W        W23281  15.822  40.881   3.699
59514W        W23282  40.817  15.770   1.379
59515W        W23283  23.576  37.455  12.938
59516W        W23284   8.253  11.676  14.479
59517W        W23285  28.616  36.389   1.723
59518W        W23286  14.621  42.906  10.417
59519W        W23287  24.999  31.128  12.387
59520W        W23288  18.183  32.953  11.071
59521W        W23289  31.451   0.859  12.868
59522W        W23290  34.383   5.402   3.748
59523W        W23291  27.165  17.766  13.434
59524W        W23292  39.474  31.113  10.921
59525W        W23293  36.400  14.237   3.292
59526W        W23294  16.301  27.009   4.624
59527W        W23295   4.416  40.391   0.448
59528W        W23296  41.422  36.587   4.132
59529W        W23297  29.461  10.800   2.703
59530W        W23298  20.041  34.057  11.098
59531W        W23299   2.268   2.769  11.883
59532W        W23300   7.823   1.784  11.500
59533W        W23301   7.412  18.666  12.004
59534W        W23302  39.322  21.612   2.883
59535W        W23303  42.414  20.260  11.995
59536W        W23304  22.727  33.518   2.671
59537W        W23305  30.937  20.748  14.416
59538W        W23306  44.990  34.977   4.335
59539W        W23307  18.247   7.842   1.353
59540W        W23308  44.476  12.712  13.800
59541W        W23309  38.369   4.835   2.822
59542W        W23310  27.196  29.070   4.660
59543W        W23311  37.888   6.750  12.475
59544W        W23312  17.689  33.522   0.758
59545W        W23313  38.437  41.863  10.548
59546W        W23314  37.399   8.708   2.302
59547W        W23315   9.850   4.848   4.668
59548W        W23316  20.202  23.058  13.845
59549W        W23317  41.481  18.771  10.526
59550W        W23318  15.581  44.812   3.328
59551W        W23319  44.293   0.871  14.941
59552W        W23320  12.345  24.094  12.513
59553W        W23321  14.810  19.137  13.828
59554W        W23322  39.034   7.381   4.216
59555W        W23323   6.240  28.596   3.717
59556W        W23324  13.317  13.698  10.637
59557W        W23325  22.681  26.515   0.776
59558W        W23326  40.312   4.783   4.347
59559W        W23327  13.758  29.944  14.852
59560W        W23328   6.353  32.448  13.839
59561W        W23329  32.094  12.827   9.995
59562W        W23330  15.772  41.883   3.634
59563W        W23331   3.231   0.981  12.057
59564W        W23332  38.856  26.031  13.363
59565W        W23333  28.128  35.376   3.824
59566W        W23334  41.032  33.464   2.326
59567W        W23335   8.305  37.492   1.874
59568W        W23336  18.730  23.174  12.060
59569W        W23337  10.683  23.027  10.609
59570W        W23338  37.943   7.379   1.388
59571W        W23339  13.683  26.650  11.576
59572W        W23340   3.910  21.108   4.762
59573W        W23341  12.629  36.982   1.830
59574W        W23342  44.279  32.912  14.839
59575W        W23343  12.331  24.575   2.812
59576W        W23344   7.902  25.176  10.896
59577W        W23345  38.458  43.776   1.221
59578W        W23346  35.950  21.125   2.670
59579W        W23347  14.718   3.791  10.616
59580W        W23348  43.871  15.155   0.260
59581W        W23349   7.188  18.571  14.288
59582W        W23350  37.377  16.093   4.684
59583W        W23351   0.757  37.844   4.765
59584W        W23352  25.097  33.918   3.671
59585W        W23353  25.157  21.708   1.227
59586W        W23354  24.207  33.013  13.366
59587W        W23355  29.480  37.514   3.259
59588W        W23356  38.933  28.068  14.285
59589W        W23357  43.309  22.659  13.929
59590W        W23358  43.317  14.263   0.873
59591W        W23359  32.114  42.474   0.884
59592W        W23360  28.083   0.376   1.717
59593W        W23361  36.087   8.340   3.321
59594W        W23362  26.621  39.536   1.907
59595W        W23363  43.911  17.616  13.419
59596W        W23364   6.210   8.297  12.353
59597W        W23365  21.673  17.104  10.641
59598W        W23366  14.200  32.987   2.720
59599W        W23367  44.433  14.314   5.110
59600W        W23368  12.752  29.629  13.051
59601W        W23369  11.637  44.276  11.581
59602W        W23370  27.063  24.028   3.210
59603W        W23371   6.188   1.949  13.376
59604W        W23372  28.146   6.743  12.458
59605W        W23373  25.102  13.309   9.946
59606W        W23374   2.461  31.559  13.058
59607W        W23375  10.184  36.540   1.823
59608W        W23376  16.158  38.384  11.400
59609W        W23377  32.579  14.835  11.451
59610W        W23378  13.281  37.867  13.987
59611W        W23379  40.377  43.374  14.031
59612W        W23380  30.054  22.075   3.222
59613W        W23381   2.888  18.123   1.267
59614W        W23382  13.617  21.220   2.894
59615W        W23383  42.002   0.962   1.704
59616W        W23384  26.088  41.959  10.978
59617W        W23385  28.142   5.194   3.316
59618W        W23386  27.055  16.629  13.486
59619W        W23387  34.375  36.084   2.276
59620W        W23388  18.678  30.540   5.285
59621W        W23389  17.619   5.723  11.529
59622W        W23390  28.613  18.070  14.952
59623W        W23391  22.726   6.853   3.739
59624W        W23392  17.644  18.763  12.039
59625W        W23393  18.649   2.328   1.227
59626W        W23394  11.798   1.357  12.997
59627W        W23395  19.549   9.718  12.482
59628W        W23396   2.331   1.344  14.340
59629W        W23397  30.111   4.349   4.134
59630W        W23398   9.888  10.293  14.842
59631W        W23399  14.819  28.571   4.207
59632W        W23400  32.891  12.341  13.331
59633W        W23401   6.297   3.265  12.938
59634W        W23402  12.833  29.053   2.775
59635W        W23403  12.182   7.705   2.250
59636W        W23404  21.662  11.727   0.803
59637W        W23405  43.390  30.999   3.662
59638W        W23406   0.492   4.914  14.459
59639W        W23407  11.822  18.690   4.795
59640W        W23408  21.075  44.775   3.850
59641W        W23409  32.533  29.941  12.376
59642W        W23410  30.653  18.615  13.489
59643W        W23411  22.233  19.169   2.404
59644W        W23412  39.040  37.944   3.329
59645W        W23413  38.389   0.853   3.790
59646W        W23414  19.704   5.320   1.362
59647W        W23415   8.856  20.101   5.119
59648W        W23416  38.434  22.056   1.414
59649W        W23417  42.399   2.290   4.135
59650W        W23418  34.990   9.176  14.464
59651W        W23419  14.718  41.422   4.299
59652W        W23420  25.583  38.982  14.312
59653W        W23421  29.962  10.246   0.296
59654W        W23422  22.659  15.754  11.076
59655W        W23423  32.528   4.931  11.936
59656W        W23424  22.526  20.175   1.388
59657W        W23425   2.737   5.201  14.760
59658W        W23426  25.550  34.069  10.417
59659W        W23427  44.453  23.695   3.690
59660W        W23428   6.836  28.965  13.437
59661W        W23429   8.873  39.941   3.642
59662W        W23430   5.844  27.682   4.824
59663W        W23431  42.436  26.190  14.353
59664W        W23432  38.041  11.265   3.773
59665W        W23433  42.322  33.549  14.301
59666W        W23434  43.380  39.553   4.709
59667W        W23435   7.303  26.999  13.936
59668W        W23436  21.252  36.880  13.940
59669W        W23437  35.942  31.640   5.257
59670W        W23438  39.547  24.587  10.410
59671W        W23439  27.066  40.391  13.064
59672W        W23440  42.004  28.623  12.838
59673W        W23441  15.250  35.532  10.917
59674W        W23442   4.832   6.368  13.996
59675W        W23443  39.499   3.298   3.683
59676W        W23444  29.660  27.471   2.378
59677W        W23445  36.560   3.895  11.017
59678W        W23446   1.849  38.945  12.364
59679W        W23447  23.082   2.897  12.968
59680W        W23448  29.127  44.310   4.741
59681W        W23449  14.695  30.989   3.326
59682W        W23450  12.702  28.158  12.888
59683W        W23451  31.428  38.847   3.787
59684W        W23452  19.611  22.726   2.898
59685W        W23453  23.056  32.612  11.064
59686W        W23454  43.505  15.133   3.721
59687W        W23455  14.118  35.950  14.349
59688W        W23456  38.376  12.301  12.919
59689W        W23457   7.894  16.144   2.362
59690W        W23458   2.941  10.380  10.967
59691W        W23459   8.308   1.956   1.842
59692W        W23460  15.754  17.732  12.518
59693W        W23461  13.611  10.281   1.435
59694W        W23462   4.420  40.863   0.817
59695W        W23463  43.423   9.768  10.990
59696W        W23464  42.811  20.212   3.699
59697W        W23465   9.348  22.589  12.046
59698W        W23466   3.782  28.017   1.879
59699W        W23467  41.913  14.282  14.805
59700W        W23468   2.317  11.718   3.246
59701W        W23469  33.537  23.724   0.826
59702W        W23470   2.942  15.690  12.056
59703W        W23471  19.676  39.034   0.800
59704W        W23472  13.820   3.426  11.019
59705W        W23473  36.585  31.116  14.961
59706W        W23474  19.183  42.834   1.439
59707W        W23475  24.100  19.640  10.079
59708W        W23476  44.943  17.136  10.967
59709W        W23477  44.788  32.098  10.531
59710W        W23478  32.456   6.388   0.732
59711W        W23479  23.648  44.468  10.488
59712W        W23480  39.975  40.454   3.863
59713W        W23481  33.905  14.141   2.217
59714W        W23482  15.760  41.479  11.446
59715W        W23483  22.744  21.722  12.406
59716W        W23484   4.225  19.644   0.821
59717W        W23485   1.346  27.969   3.633
59718W        W23486  29.614  12.661   4.632
59719W        W23487  21.213  18.140  11.989
59720W        W23488  37.011  24.151   1.720
59721W        W23489  13.766  13.222  14.364
59722W        W23490  42.938   9.229  10.993
59723W        W23491   9.720  40.525  13.330
59724W        W23492  18.069   7.177  13.793
59725W        W23493   9.863   4.261   4.708
59726W        W23494   7.678  44.849   1.432
59727W        W23495  22.591  41.517   2.693
59728W        W23496  20.598  38.389   3.715
59729W        W23497  17.221   7.258   9.980
59730W        W23498   5.388   1.872   2.329
59731W        W23499  33.441  32.517  11.578
59732W        W23500  24.198   2.382   0.461
59733W        W23501  29.074  23.226   4.168
59734W        W23502  22.617  42.462   0.765
59735W        W23503   1.256   5.751  13.977
59736W        W23504  41.419   1.261   3.704
59737W        W23505  38.007  19.204  11.606
59738W        W23506   0.317   0.398   0.810
59739W        W23507  27.450  20.245   2.811
59740W        W23508  32.996  13.274   0.867
59741W        W23509  10.186  19.225  14.324
59742W        W23510   5.854   8.378   3.706
59743W        W23511   3.370  22.577  12.847
59744W        W23512  29.430  15.134   1.401
59745W        W23513  42.939  21.221   4.314
59746W        W23514   4.710  25.711   4.271
59747W        W23515   7.687   2.865   3.148
59748W        W23516  11.136  44.411  12.900
59749W        W23517  14.295  11.231  13.546
59750W        W23518  38.335   6.189  14.961
59751W        W23519  43.325  26.701  13.820
59752W        W23520  34.535  19.676  11.419
59753W        W23521  12.638   1.784  12.047
59754W        W23522  32.532  29.472   0.447
59755W        W23523   7.290  35.545   0.402
59756W        W23524   7.236  41.872  13.331
59757W        W23525   2.244  40.489  13.845
59758W        W23526  16.240  11.345  10.573
59759W        W23527   0.476  17.576   0.907
59760W        W23528  38.552  22.213   1.802
59761W        W23529  24.132   4.292  14.889
59762W        W23530  35.387  17.169  13.517
59763W        W23531  17.629   8.215   3.214
59764W        W23532  44.911  24.991   0.892
59765W        W23533  34.110  17.796   0.737
59766W        W23534  16.697   3.329   3.686
59767W        W23535  33.015  30.098  13.486
59768W        W23536  14.738   0.968  12.447
59769W        W23537  31.499  37.512  14.771
59770W        W23538   2.379   3.330   1.307
59771W        W23539  39.931  43.499   0.763
59772W        W23540   2.354  11.353  11.464
59773W        W23541  13.176  43.951  13.879
59774W        W23542   1.244  43.306  10.449
59775W        W23543  25.521  16.178  13.389
59776W        W23544  36.046   1.864   4.353
59777W        W23545  21.025   2.276  12.079
59778W        W23546  21.189  12.170  13.854
59779W        W23547  26.576  21.183  11.445
59780W        W23548  25.509  21.690  14.277
59781W        W23549   0.257  25.595  11.436
59782W        W23550  14.619  43.986   1.416
59783W        W23551   4.782  28.497  11.887
59784W        W23552  29.020  10.216  11.866
59785W        W23553   3.853  32.583   2.191
59786W        W23554  27.137   3.254  11.860
59787W        W23555   1.323  26.566  13.447
59788W        W23556  13.674  16.708  13.484
59789W        W23557  40.848  29.495   0.726
59790W        W23558   6.215  40.933   0.258
59791W        W23559  20.074  43.365  13.827
59792W        W23560  40.824  13.174  12.996
59793W        W23561   7.195  43.406  12.896
59794W        W23562  39.847  35.536  13.921
59795W        W23563  36.856  30.573   2.198
59796W        W23564   1.393   3.325   4.692
59797W        W23565  34.538  36.907  11.092
59798W        W23566  12.829  24.545  11.030
59799W        W23567  31.046   6.895   0.788
59800W        W23568  23.670  32.550   4.331
59801W        W23569   1.766   8.857  10.932
59802W        W23570  40.882  31.527  10.101
59803W        W23571  27.530  31.030  11.006
59804W        W23572   8.164  31.592  13.495
59805W        W23573  11.367  26.513   2.350
59806W        W23574  28.038   3.341  12.984
59807W        W23575  28.106  42.389  12.465
59808W        W23576  25.213  18.118   0.893
59809W        W23577   6.770  23.999  11.076
59810W        W23578  22.624  37.960   2.773
59811W        W23579   8.811  11.695   4.636
59812W        W23580  27.496  37.946  12.834
59813W        W23581  10.644   8.210   3.184
59814W        W23582  12.720   4.707   0.482
59815W        W23583  34.904  41.020  14.854
59816W        W23584  24.532  35.885  11.576
59817W        W23585  35.001  26.460  13.885
59818W        W23586  34.540  33.538  14.346
59819W        W23587  42.490  43.479   4.823
59820W        W23588  22.179   4.425  10.453
59821W        W23589  38.552  29.117   2.815
59822W        W23590  37.535   8.266   3.852
59823W        W23591  24.033  33.056   0.897
59824W        W23592   5.228  15.294  10.482
59825W        W23593   4.918  25.077   3.850
59826W        W23594   7.302   0.808  13.011
59827W        W23595  34.393  25.039  13.475
59828W        W23596  42.827  36.939   0.905
59829W        W23597  39.006   7.820  12.986
59830W        W23598   3.436  37.447   2.372
59831W        W23599  27.553  40.488   1.899
59832W        W23600  20.667  41.036  14.876
59833W        W23601   0.804  33.056  11.394
59834W        W23602  33.614  14.185   2.371
59835W        W23603  25.663  11.195  13.848
59836W        W23604   7.816  34.001   0.831
59837W        W23605   7.410  38.367   0.854
59838W        W23606  11.850  32.108   1.831
59839W        W23607  41.338  35.907  13.829
59840W        W23608  16.253  33.549   2.230
59841W        W23609  32.423   7.690   0.793
59842W        W23610  19.757   9.245  10.569
59843W        W23611   2.787   5.696  13.840
59844W        W23612  44.399  28.074   1.718
59845W        W23613   4.292  32.563  14.475
59846W        W23614  22.140  40.824  14.945
59847W        W23615  15.246  34.884  10.897
59848W        W23616  38.054  23.173  12.368
59849W        W23617  28.968   7.700   2.221
59850W        W23618  28.632  11.638  12.969
59851W        W23619  19.128  34.071   2.347
59852W        W23620  14.720  28.658  13.958
59853W        W23621  24.655  32.049  12.871
59854W        W23622  16.126  15.116   3.258
59855W        W23623  16.783  42.892  10.610
59856W        W23624  15.111  16.799  12.011
59857W        W23625   3.232  13.801   1.710
59858W        W23626  37.464   2.857  14.930
59859W        W23627  12.792  14.607   1.256
59860W        W23628  14.706  19.229   1.899
59861W        W23629   5.229   8.230  11.501
59862W        W23630  27.095  44.973   4.818
59863W        W23631  27.046   9.808  13.501
59864W        W23632  11.713  44.270  12.382
59865W        W23633  31.054   4.287   1.810
59866W        W23634   0.289  31.510   2.376
59867W        W23635  43.863  24.481   1.812
59868W        W23636  24.055  40.533   1.741
59869W        W23637  17.141  11.336   1.770
59870W        W23638  33.939  27.135   1.723
59871W        W23639  29.979   8.779   5.186
59872W        W23640   5.199  29.022  13.822
59873W        W23641   7.315  33.908  14.881
59874W        W23642  14.125  41.863  11.531
59875W        W23643  31.514  26.630  14.846
59876W        W23644   1.299  29.040  11.955
59877W        W23645  38.413   2.729   1.740
59878W        W23646  28.564  30.625   0.748
59879W        W23647  33.928  15.135   5.302
59880W        W23648  33.057  35.878  11.083
59881W        W23649   0.946  27.567  12.044
59882W        W23650  38.997  17.216  12.575
59883W        W23651  34.937  15.739  13.532
59884W        W23652  36.051  11.358   1.780
59885W        W23653  16.285  26.960   3.870
59886W        W23654   5.209  31.634  11.969
59887W        W23655  32.489  11.692  10.559
59888W        W23656  41.516   1.879   3.375
59889W        W23657  35.027  29.493  14.473
59890W        W23658  26.129  43.449  13.419
59891W        W23659  40.955  40.464  12.944
59892W        W23660  43.406  23.002   1.824
59893W        W23661  28.461   0.795  13.362
59894W        W23662  40.954  24.167   1.771
59895W        W23663  39.348  36.080  14.422
59896W        W23664  24.503  41.869  10.974
59897W        W23665   1.474  22.194  14.959
59898W        W23666  25.482  22.638  10.478
59899W        W23667  32.621  41.000   4.230
59900W        W23668  44.919  25.639  12.916
59901W        W23669  21.136  36.071   3.749
59902W        W23670   7.291  21.187  12.914
59903W        W23671   8.189  16.618  14.327
59904W        W23672  13.238  25.665   3.296
59905W        W23673  13.677  17.113  11.032
59906W        W23674   1.335  29.960  11.885
59907W        W23675  12.789  40.486   0.289
59908W        W23676  43.921   2.759   2.305
59909W        W23677  38.442  39.997   2.230
59910W        W23678  33.471   7.749  14.017
59911W        W23679  16.296   4.713  12.968
59912W        W23680   9.748  31.110  10.483
59913W        W23681  34.886  24.121  11.104
59914W        W23682  27.542   8.669   1.754
59915W        W23683  29.616   7.891  11.403
59916W        W23684  12.237  27.633  11.993
59917W        W23685  27.996  40.991  13.405
59918W        W23686  19.238  13.755   4.838
59919W        W23687  24.711  23.580  11.449
59920W        W23688  39.330   1.274  13.987
59921W        W23689  33.999  23.535  14.803
59922W        W23690   0.314  29.479  11.883
59923W        W23691  15.104  18.064   0.415
59924W        W23692  20.082  31.425   3.712
59925W        W23693  28.458  44.308   3.309
59926W        W23694  43.501  19.084   1.707
59927W        W23695   5.419   6.697  12.828
59928W        W23696  29.144   6.254   2.351
59929W        W23697  29.931  11.782   3.191
59930W        W23698  29.531   1.360  12.404
59931W        W23699  24.690   0.257   0.283
59932W        W23700  37.037   4.743  11.569
59933W        W23701  10.296  16.131  14.002
59934W        W23702  27.184  27.172  12.557
59935W        W23703   4.286  24.606   4.129
59936W        W23704  43.896  17.579  14.281
59937W        W23705  15.654  24.484  12.424
59938W        W23706  19.596  35.940   0.863
59939W        W23707  33.464  25.133   1.802
59940W        W23708  36.367   0.307  10.464
59941W        W23709  43.396  22.611  12.092
59942W        W23710   2.820   0.895   0.338
59943W        W23711  44.809  22.094   1.416
59944W        W23712   9.191  29.501  14.387
59945W        W23713  44.000  33.031  11.872
59946W        W23714  15.598  29.094   0.469
59947W        W23715  30.997   8.686  14.992
59948W        W23716   7.376  31.011  13.799
59949W        W23717  43.270  22.122  11.509
59950W        W23718  44.262   4.879  14.454
59951W        W23719   2.389  19.614   0.769
59952W        W23720  12.847  35.927   1.874
59953W        W23721  11.624  43.274   4.182
59954W        W23722  34.613   5.275  14.405
59955W        W23723  22.532  27.019   3.747
59956W        W23724  26.538  36.357  14.501
59957W        W23725  17.700   8.216  11.547
59958W        W23726   5.321  10.672   1.282
59959W        W23727  16.807  31.452  13.488
59960W        W23728  25.039  41.493   3.804
59961W        W23729   2.320  29.563  11.899
59962W        W23730  20.562  37.033  11.488
59963W        W23731  22.190  20.132  14.373
59964W        W23732  15.192  13.317   9.457
59965W        W23733  13.283  32.561  13.313
59966W        W23734  14.148  43.778   3.754
59967W        W23735  37.486   6.285   3.162
59968W        W23736  17.261  25.571   9.503
59969W        W23737  30.019  32.048   4.289
59970W        W23738  39.863  41.786  10.460
59971W        W23739  18.120  19.267   1.779
59972W        W23740   6.275  11.693   2.374
59973W        W23741   4.392  28.010  14.768
59974W        W23742  33.981  31.542  10.898
59975W        W23743  13.787   8.855  10.505
59976W        W23744   5.283  22.553   3.658
59977W        W23745  14.214  18.761   4.252
59978W        W23746  39.394  16.191   2.258
59979W        W23747  28.670   1.776  12.845
59980W        W23748  34.490  27.507  14.898
59981W        W23749   3.890  32.965   4.632
59982W        W23750  38.543  44.925  10.453
59983W        W23751  25.195  10.758   0.436
59984W        W23752  10.689  44.965   1.842
59985W        W23753  34.512  30.599  12.091
59986W        W23754  44.406  37.406   0.876
59987W        W23755  24.718  34.519   2.878
59988W        W23756  30.619  16.242  14.925
59989W        W23757  41.474   1.430   2.814
59990W        W23758  38.461   7.693   4.250
59991W        W23759  16.226   1.328   3.211
59992W        W23760  41.998   9.661  13.543
59993W        W23761  10.821   7.346   4.782
59994W        W23762  14.745   8.180   0.834
59995W        W23763  26.595  17.273   0.401
59996W        W23764   3.810  37.498  11.536
59997W        W23765  23.034   9.159   3.775
59998W        W23766  15.737  14.686  14.850
59999W        W23767  23.196  12.354  11.482
60000W        W23768  25.674   2.802   4.718
60001W        W23769  19.705  33.599   1.867
60002W        W23770  12.308  14.205  12.399
60003W        W23771  18.215  14.780  13.047
60004W        W23772  29.044   6.342  14.966
60005W        W23773   3.750  20.040  14.987
60006W        W23774  39.435  18.574  14.348
60007W        W23775  25.992  15.107   1.869
60008W        W23776  18.103  38.455   4.669
60009W        W23777  26.653  19.060  13.482
60010W        W23778  13.335  14.707  14.412
60011W        W23779  25.581  35.533   5.640
60012W        W23780  25.539  21.217  13.464
60013W        W23781   7.787  27.015   2.303
60014W        W23782  13.319  29.069  14.330
60015W        W23783  33.914  34.074  12.921
60016W        W23784  19.542  29.930  12.045
60017W        W23785  26.186  12.281  14.384
60018W        W23786   2.962  42.950  14.906
60019W        W23787  14.238  35.892  13.036
60020W        W23788  12.728  28.636  11.477
60021W        W23789   0.970  16.701  13.378
60022W        W23790  28.138  21.234  14.437
60023W        W23791  12.238  14.116   1.338
60024W        W23792  22.077   2.890  14.362
60025W        W23793  16.142   6.382  13.519
60026W        W23794  19.051  18.286   2.399
60027W        W23795  12.141  43.422   1.214
60028W        W23796  22.563  42.946  11.416
60029W        W23797  29.658  44.473   1.804
60030W        W23798   8.683  42.487  10.907
60031W        W23799  29.937   9.205  12.400
60032W        W23800  41.033  42.490   4.175
60033W        W23801  39.439  39.395  14.411
60034W        W23802   8.709  13.339   4.268
60035W        W23803  38.967  44.874   4.832
60036W        W23804  29.978   0.460  14.762
60037W        W23805  21.018  38.407   1.751
60038W        W23806  28.173   1.766   3.351
60039W        W23807  11.332  20.620   3.768
60040W        W23808  32.539  22.527   4.814
60041W        W23809   6.381  35.999  14.333
60042W        W23810  33.100  21.754   2.753
60043W        W23811   5.210  14.804   1.829
60044W        W23812  18.694  37.849  10.562
60045W        W23813  28.509  22.573   2.185
60046W        W23814  13.126   5.424   1.253
60047W        W23815  26.999  37.947   4.690
60048W        W23816  42.485  22.710  14.308
60049W        W23817  44.983  33.411   2.741
60050W        W23818  16.151  17.650  14.023
60051W        W23819   8.873  14.701   1.397
60052W        W23820  23.128   3.416   1.292
60053W        W23821  20.264  25.687  13.456
60054W        W23822  37.375  10.855   9.957
60055W        W23823  30.126  27.453  10.959
60056W        W23824  35.873  26.081   0.397
60057W        W23825  44.009  44.477  10.579
60058W        W23826  21.662  19.634  12.407
60059W        W23827  40.490   1.754   3.372
60060W        W23828  25.067  44.309  14.324
60061W        W23829  29.149  13.178   1.309
60062W        W23830   4.787  36.909  12.086
60063W        W23831  16.676  34.023   1.741
60064W        W23832   7.821  27.638  12.882
60065W        W23833  33.515  41.397   0.896
60066W        W23834  41.880   0.281   4.245
60067W        W23835  22.077  34.020   1.381
60068W        W23836  31.129  17.156   1.406
60069W        W23837  38.034  32.012  14.818
60070W        W23838  23.571   6.710  13.967
60071W        W23839   1.863  38.828  13.488
60072W        W23840   9.722  35.530   0.300
60073W        W23841  27.155  15.257   0.756
60074W        W23842  25.651  36.930  10.072
60075W        W23843  20.658  36.347  10.606
60076W        W23844  15.245  30.929  10.999
60077W        W23845  35.072  27.511   4.131
60078W        W23846  23.112  11.742   3.787
60079W        W23847  37.489   5.890   3.331
60080W        W23848  37.902  15.695  11.418
60081W        W23849  19.699  22.704  10.940
60082W        W23850  34.937  39.539  12.832
60083W        W23851  29.056  14.142   1.805
60084W        W23852  32.408   0.417  13.418
60085W        W23853  18.646  12.157   1.724
60086W        W23854  27.947  39.375   4.131
60087W        W23855  21.054  13.121  13.311
60088W        W23856  35.512  34.597  14.006
60089W        W23857   7.812   7.835   0.361
60090W        W23858  12.659  40.821   4.758
60091W        W23859  41.000  37.419   3.275
60092W        W23860   3.734  40.417  10.945
60093W        W23861   7.289  11.683  13.839
60094W        W23862  40.342  24.046  12.869
60095W        W23863   8.233  22.608  13.900
60096W        W23864  37.004  28.068  11.434
60097W        W23865  28.937  27.991   2.285
60098W        W23866  41.372  11.808  12.511
60099W        W23867  26.494  25.042  14.020
60100W        W23868  13.277   2.866   2.315
60101W        W23869   6.896  29.496   4.808
60102W        W23870  38.331   7.783   1.765
60103W        W23871  25.985   5.767  13.495
60104W        W23872  32.089  32.571   2.695
60105W        W23873  23.647  32.422   0.403
60106W        W23874  24.485  10.815  11.487
60107W        W23875  29.122  44.269   2.410
60108W        W23876  41.942  15.113   0.858
60109W        W23877  37.510  26.011  12.073
60110W        W23878   6.852  36.458  14.277
60111W        W23879  34.572  33.560   1.897
60112W        W23880  30.103  16.206  11.391
60113W        W23881   3.282   4.839   2.302
60114W        W23882  37.034  19.563  13.495
60115W        W23883  40.443  24.582  10.461
60116W        W23884  11.634  41.388  10.634
60117W        W23885  15.710  32.047  13.449
60118W        W23886  14.106  15.100   0.426
60119W        W23887   3.898  20.147  11.110
60120W        W23888  42.012   9.364  12.837
60121W        W23889  11.784  16.154   2.392
60122W        W23890   7.254   4.827   0.856
60123W        W23891  40.422   4.747  13.907
60124W        W23892  21.598   7.891   0.308
60125W        W23893  31.479  44.820   0.758
60126W        W23894  32.062  17.257   1.247
60127W        W23895  28.100  12.202  10.450
60128W        W23896   4.264  34.500   1.909
60129W        W23897  22.034  19.146   0.464
60130W        W23898  44.959  26.099   0.416
60131W        W23899  31.525  18.065   1.697
60132W        W23900  43.469   5.326  11.515
60133W        W23901  44.433   1.401   0.408
60134W        W23902  19.253   1.915  14.866
60135W        W23903  33.079  23.022   2.251
60136W        W23904  11.327   1.815   3.731
60137W        W23905   1.872  30.153  11.482
60138W        W23906  42.816   1.962  10.893
60139W        W23907  22.729  44.456  12.075
60140W        W23908  40.846   7.409  12.989
60141W        W23909   3.918  24.714   3.677
60142W        W23910  30.090   8.307  12.005
60143W        W23911   9.717  12.667  10.922
60144W        W23912  35.879  18.053  10.919
60145W        W23913  40.396  40.533  12.491
60146W        W23914  43.323  23.577  10.124
60147W        W23915   9.209  27.450   0.826
60148W        W23916  31.095  34.456   1.763
60149W        W23917   9.308   9.357  11.609
60150W        W23918  29.664  24.608  14.008
60151W        W23919  16.593   1.915  14.028
60152W        W23920  10.655  16.142   0.448
60153W        W23921  28.526  18.612   0.912
60154W        W23922   0.409  18.751   3.814
60155W        W23923  35.396  15.582   0.305
60156W        W23924   0.802  26.491  12.490
60157W        W23925  26.167  23.143   1.310
60158W        W23926  24.058  17.242   4.703
60159W        W23927  30.527  30.931   0.820
60160W        W23928  19.563  14.725  14.345
60161W        W23929  13.777  23.177  12.378
60162W        W23930  39.961  26.168   2.347
60163W        W23931  33.047   4.388  13.964
60164W        W23932  35.436  33.912  11.904
60165W        W23933  44.917  13.338  10.427
60166W        W23934  19.255  17.795  12.944
60167W        W23935  33.420  13.225   1.330
60168W        W23936  29.478  17.716  10.422
60169W        W23937  35.057  24.101   2.352
60170W        W23938   6.391  43.938  13.411
60171W        W23939  16.313   7.753  13.434
60172W        W23940  22.252  16.681  12.016
60173W        W23941  33.571  30.531   3.306
60174W        W23942  19.764  14.214  13.060
60175W        W23943   0.473   1.243  12.826
60176W        W23944   4.266  10.159  14.920
60177W        W23945  37.928   8.890  10.895
60178W        W23946   2.890  28.059   3.773
60179W        W23947  29.943   6.753  13.829
60180W        W23948  14.155  16.744  13.488
60181W        W23949  14.266  32.913   4.609
60182W        W23950  34.596   7.854  14.454
60183W        W23951   9.844  25.964   3.854
60184W        W23952  19.055  38.846  12.531
60185W        W23953  22.092  10.291   2.736
60186W        W23954  29.534  31.937   0.324
60187W        W23955   9.809  11.298   0.909
60188W        W23956  39.400  41.346  14.858
60189W        W23957   2.401  33.934  13.474
60190W        W23958  31.634   4.934  13.898
60191W        W23959   8.299  23.123   0.771
60192W        W23960  18.715  32.580  10.476
60193W        W23961   7.291  42.786   4.294
60194W        W23962   5.918  18.110   4.127
60195W        W23963   0.283   5.744   4.122
60196W        W23964   4.882  41.333  10.105
60197W        W23965  28.120   9.310  14.790
60198W        W23966  10.143  37.560   0.884
60199W        W23967  24.041  39.375  12.854
60200W        W23968  27.162  44.308  13.326
60201W        W23969  40.458  13.118   3.169
60202W        W23970  23.001  21.201  14.512
60203W        W23971  20.524   2.856  13.508
60204W        W23972   3.410   6.398   1.438
60205W        W23973  30.459  35.445  11.904
60206W        W23974  34.907   4.832   2.796
60207W        W23975   1.450  12.218   2.880
60208W        W23976  27.138  25.617   2.867
60209W        W23977  37.962   5.905   1.221
60210W        W23978  20.129  18.573  13.533
60211W        W23979  14.783  41.533  12.032
60212W        W23980  39.551  14.598   4.626
60213W        W23981   7.680  10.317  10.023
60214W        W23982  35.553   4.823   0.855
60215W        W23983  31.948  34.386  14.029
60216W        W23984  13.762  21.118   1.790
60217W        W23985  13.310  37.357  12.394
60218W        W23986  28.542   6.235   4.344
60219W        W23987   6.297  22.541  12.896
60220W        W23988  32.553  33.390   4.785
60221W        W23989  14.705  26.539   0.417
60222W        W23990   1.825   5.437   1.242
60223W        W23991   6.286   0.387   4.685
60224W        W23992  14.599  14.309  14.869
60225W        W23993  40.830  23.725  10.611
60226W        W23994   1.362  42.018  10.587
60227W        W23995  24.060  39.448  13.511
60228W        W23996  21.193  25.564   3.189
60229W        W23997   2.862  30.425  13.447
60230W        W23998  33.589  10.344   2.399
60231W        W23999   5.279  25.486   0.392
60232W        W24000   6.772  29.440   3.256
60233W        W24001  26.591  26.669   4.273
60234W        W24002  41.382   7.690   5.286
60235W        W24003  13.174  29.130   4.814
60236W        W24004  26.631  43.884   4.128
60237W        W24005  16.798   4.788   3.656
60238W        W24006  16.680   6.204   0.441
60239W        W24007  20.240  19.093   2.178
60240W        W24008   2.228  40.965   1.409
60241W        W24009  32.489  20.245   5.202
60242W        W24010  41.941  20.102  10.435
60243W        W24011  34.437  18.599  14.332
60244W        W24012  24.075  10.868   3.778
60245W        W24013   3.821  17.122  13.339
60246W        W24014  42.947  27.568   1.917
60247W        W24015   1.482  10.234   1.379
60248W        W24016   9.330  37.847   3.171
60249W        W24017  28.114  38.915   1.907
60250W        W24018  19.199  35.002  12.576
60251W        W24019  33.478  11.787   3.801
60252W        W24020  14.660  29.931   2.811
60253W        W24021  44.329  11.368  10.155
60254W        W24022   5.720  23.219  12.443
60255W        W24023   0.339   1.843  13.946
60256W        W24024  19.720  20.572  12.549
60257W        W24025  35.537   6.731   3.654
60258W        W24026  32.105  28.513   0.297
60259W        W24027  38.452  34.049  10.078
60260W        W24028   8.825  10.323  12.994
60261W        W24029  27.513  24.540   2.795
60262W        W24030  33.031  25.021   0.730
60263W        W24031  13.311   2.407   1.796
60264W        W24032  17.778   7.291   2.366
60265W        W24033  43.998  25.972   4.258
60266W        W24034  44.003  40.460   3.296
60267W        W24035  31.595  11.830   0.324
60268W        W24036   3.295  34.976  10.504
60269W        W24037   4.701  40.907  11.573
60270W        W24038  39.408  22.649   1.359
60271W        W24039  12.249   2.391  13.884
60272W        W24040   6.851   7.393  10.518
60273W        W24041   6.758  17.715  12.963
60274W        W24042  25.049  10.733  14.406
60275W        W24043  22.727  12.706  13.386
60276W        W24044  41.906  18.183   4.806
60277W        W24045  35.891  40.437   2.267
60278W        W24046  41.439  26.004   1.404
60279W        W24047  44.393  17.154  12.571
60280W        W24048  30.985  35.078   9.943
60281W        W24049  34.902  25.074   1.778
60282W        W24050  43.918  19.560  14.277
60283W        W24051   3.875  43.960  10.621
60284W        W24052  40.473  43.410   2.893
60285W        W24053   7.817  20.035  12.512
60286W        W24054   2.824  32.515   4.710
60287W        W24055  20.580  11.172  13.038
60288W        W24056  14.232  14.827  12.491
60289W        W24057  39.482  16.261  14.463
60290W        W24058  44.407  35.954   1.823
60291W        W24059  10.762  25.164   5.298
60292W        W24060  41.827  33.421   2.190
60293W        W24061  40.925  16.079  12.007
60294W        W24062   1.279  39.980  13.365
60295W        W24063   1.812   2.883   1.697
60296W        W24064   8.885  24.013  11.379
60297W        W24065   0.787  23.144   1.451
60298W        W24066  26.651  44.462   1.888
60299W        W24067  18.781  13.280  10.954
60300W        W24068  42.818  24.030  11.979
60301W        W24069  40.951  28.072   0.293
60302W        W24070  38.525   2.802   3.681
60303W        W24071  19.127  33.031   1.309
60304W        W24072  18.173  26.560   0.260
60305W        W24073  20.667  28.115  10.448
60306W        W24074  44.865  19.728   0.829
60307W        W24075  21.749  25.642   3.338
60308W        W24076   1.261  23.609  13.994
60309W        W24077  22.014  24.699  10.968
60310W        W24078  40.807   6.680   4.238
60311W        W24079  42.938  18.738   1.428
60312W        W24080  27.564  25.140   4.328
60313W        W24081   9.149  10.743  12.350
60314W        W24082  10.243  15.639  13.531
60315W        W24083  42.984  25.124  14.335
60316W        W24084  39.453  27.494  12.825
60317W        W24085  13.143  12.227  12.516
60318W        W24086  21.175  38.491   4.225
60319W        W24087  14.131  18.789  11.401
60320W        W24088   0.351  24.011   0.856
60321W        W24089  37.955  34.036  10.891
60322W        W24090  12.199  32.069   0.319
60323W        W24091   4.283   0.943  11.386
60324W        W24092  43.870  43.834   4.225
60325W        W24093  22.746  35.396  14.315
60326W        W24094  38.022   4.879   1.797
60327W        W24095  27.496   6.856  11.456
60328W        W24096  29.430  29.923  12.547
60329W        W24097  19.620  18.696   3.854
60330W        W24098  31.556  14.682  12.974
60331W        W24099  11.320   2.286   0.250
60332W        W24100  33.490  29.616  12.403
60333W        W24101  14.160  40.907  14.376
60334W        W24102  23.140  20.545  14.818
60335W        W24103  17.214   7.680   3.811
60336W        W24104  18.744  30.437   0.785
60337W        W24105   2.841  39.937   2.338
60338W        W24106  31.105  22.242   4.180
60339W        W24107  11.693   5.703  13.517
60340W        W24108  15.780  28.621  13.312
60341W        W24109   8.814   0.377   1.220
60342W        W24110   3.271  33.489   1.834
60343W        W24111   5.737  15.780  11.373
60344W        W24112  24.018  43.278   2.179
60345W        W24113  34.505  16.141   5.285
60346W        W24114  39.898  23.206   4.669
60347W        W24115  37.046  16.313  10.620
60348W        W24116  30.915  33.542  11.009
60349W        W24117  13.349  30.653   3.368
60350W        W24118  38.486   7.809  11.975
60351W        W24119  18.624  21.547   2.182
60352W        W24120  41.370  43.956  13.500
60353W        W24121  31.138  31.423   4.656
60354W        W24122  27.504  26.687  14.997
60355W        W24123   6.785  19.253   0.760
60356W        W24124  25.496  35.386   4.650
60357W        W24125  38.020  15.617  14.892
60358W        W24126  21.091   1.263  11.524
60359W        W24127  19.660  42.937   3.681
60360W        W24128  42.433  24.593   4.806
60361W        W24129   4.258   0.856  10.600
60362W        W24130   3.421  37.525  13.027
60363W        W24131  13.684  16.587   1.406
60364W        W24132  28.990   7.346   0.263
60365W        W24133  37.423  28.131   5.278
60366W        W24134   9.687  34.059   0.789
60367W        W24135  20.758  16.278  10.556
60368W        W24136  29.486  20.082  12.915
60369W        W24137   7.338  34.500   3.829
60370W        W24138  14.766  37.438  13.845
60371W        W24139  44.894  12.813  13.015
60372W        W24140  29.509   1.795   0.873
60373W        W24141   2.331  38.982   4.627
60374W        W24142   0.442   4.927   3.205
60375W        W24143   0.920  17.630   3.285
60376W        W24144  19.705  15.307  14.992
60377W        W24145  27.686  12.309   2.898
60378W        W24146   5.391  10.321   0.395
60379W        W24147  19.203  13.164   4.243
60380W        W24148   0.744  21.194   2.225
60381W        W24149  22.706  40.873  10.976
60382W        W24150  16.651  11.276  10.906
60383W        W24151  43.934   7.674  10.989
60384W        W24152  39.370  40.479  13.373
60385W        W24153  29.064  18.119   5.194
60386W        W24154   4.862   9.369   1.880
60387W        W24155  39.345  39.947  10.925
60388W        W24156  20.033   7.238   3.180
60389W        W24157  33.915  33.521   2.306
60390W        W24158   2.331   4.307   2.683
60391W        W24159  42.419  44.328   2.376
60392W        W24160  31.125   6.250  12.344
60393W        W24161  38.973  40.441   3.767
60394W        W24162  29.959  11.731  11.608
60395W        W24163  15.103  34.108  13.800
60396W        W24164  32.925  27.046   1.705
60397W        W24165  40.010  19.606   3.670
60398W        W24166  34.097  26.683   1.388
60399W        W24167  29.636  40.359   1.404
60400W        W24168  12.764  33.438  13.834
60401W        W24169  40.479   0.815   1.912
60402W        W24170  28.965   1.880   1.215
60403W        W24171  16.708  32.058  14.890
60404W        W24172  31.465  35.568  11.976
60405W        W24173  41.523  17.300  12.540
60406W        W24174  22.122  43.930   1.441
60407W        W24175  34.419  40.433  10.968
60408W        W24176  33.055   4.736   4.304
60409W        W24177  37.541  44.382  12.534
60410W        W24178  39.326   9.828   0.828
60411W        W24179  23.237  19.240  10.460
60412W        W24180  10.679  16.806   0.930
60413W        W24181  14.337  42.961  13.881
60414W        W24182  37.339  22.740  13.547
60415W        W24183  32.445  17.777  11.070
60416W        W24184  15.272  12.846   1.888
60417W        W24185  26.198  16.072   0.757
60418W        W24186   5.322  26.461   3.306
60419W        W24187   4.814  32.540  14.896
60420W        W24188  42.897  17.184   2.264
60421W        W24189  14.193  12.189  14.462
60422W        W24190   3.227  28.078  10.899
60423W        W24191   8.321   6.303   1.896
60424W        W24192   3.950  43.478   2.778
60425W        W24193  19.630  10.680   0.879
60426W        W24194  26.659   6.723  14.420
60427W        W24195  34.903  18.086  10.926
60428W        W24196  21.631  42.479  14.962
60429W        W24197  37.572   5.756   4.178
60430W        W24198  10.265  31.092  10.975
60431W        W24199   8.874  32.023   2.702
60432W        W24200  14.247  26.479   3.289
60433W        W24201  28.180  28.931  13.459
60434W        W24202  21.194  14.195  14.461
60435W        W24203  32.449  26.540  10.634
60436W        W24204  17.144  13.694  14.475
60437W        W24205  14.775  17.266   9.952
60438W        W24206  11.204  30.430  11.580
60439W        W24207  24.075  33.399  11.522
60440W        W24208  24.480  22.721  14.834
60441W        W24209  20.541  30.623  10.551
60442W        W24210  41.007  42.820   2.681
60443W        W24211  42.380  15.305   0.274
60444W        W24212  39.952  34.565  14.002
60445W        W24213  43.401  30.933  13.830
60446W        W24214  27.166   7.254  14.477
60447W        W24215  44.764  40.502  14.400
60448W        W24216  20.687  19.694   0.292
60449W        W24217  36.979   8.358   2.779
60450W        W24218  27.498  37.981   0.428
60451W        W24219   7.241  21.067   1.401
60452W        W24220   0.772  19.766  13.864
60453W        W24221  21.050  28.658  11.507
60454W        W24222  14.638  13.701   2.333
60455W        W24223  21.555  43.913  12.370
60456W        W24224  25.102  29.105   0.965
60457W        W24225  42.394  24.214   4.260
60458W        W24226  31.623  39.018  12.972
60459W        W24227  13.137  27.478   1.325
60460W        W24228  15.191   7.852  10.524
60461W        W24229  21.607  27.180  14.017
60462W        W24230  15.083   6.397   1.408
60463W        W24231  39.972  12.242  14.284
60464W        W24232  17.636   6.421   4.745
60465W        W24233  10.213   0.267  14.783
60466W        W24234  35.103  44.993  12.937
60467W        W24235   4.261  26.643   1.851
60468W        W24236  16.715  20.674   4.794
60469W        W24237  42.418  31.154  10.919
60470W        W24238  12.327   6.875  14.325
60471W        W24239  14.735  35.888   2.337
60472W        W24240  21.043  39.934   4.247
60473W        W24241  20.539  21.751  12.371
60474W        W24242  33.579  25.011   1.361
60475W        W24243  43.309  39.537   3.330
60476W        W24244  30.582  32.920  14.937
60477W        W24245  19.594  12.204  11.441
60478W        W24246  19.712  10.219  12.887
60479W        W24247   8.271  30.633  10.566
60480W        W24248  41.919  12.736   1.864
60481W        W24249  29.469  12.294   2.731
60482W        W24250  23.078  13.816  12.366
60483W        W24251  15.685  14.207   3.739
60484W        W24252  36.539   1.410   3.233
60485W        W24253  28.475  29.592   4.650
60486W        W24254  21.116  29.665   4.641
60487W        W24255  25.143  22.573   4.165
60488W        W24256  42.465   2.268  14.500
60489W        W24257   9.160  13.275  12.426
60490W        W24258   9.366  12.136   1.327
60491W        W24259  44.780  10.791  10.488
60492W        W24260   3.341   2.472  14.835
60493W        W24261  34.103  41.530   0.738
60494W        W24262  33.575   9.340   1.423
60495W        W24263  39.991   1.868   1.211
60496W        W24264  25.649  31.549  13.317
60497W        W24265  44.847  31.055   3.312
60498W        W24266  40.323  38.845  12.865
60499W        W24267  31.573  16.170   3.774
60500W        W24268  36.422   0.848  14.820
60501W        W24269   2.447  34.406  14.453
60502W        W24270  24.619   4.263   1.289
60503W        W24271  15.093  41.380   4.601
60504W        W24272  42.297   3.863  13.975
60505W        W24273  33.966  44.494   0.946
60506W        W24274  24.124  44.273   4.785
60507W        W24275  31.414  37.490   2.772
60508W        W24276  33.126  35.932   0.392
60509W        W24277  38.391   5.256  12.057
60510W        W24278   4.331  35.507   5.599
60511W        W24279  40.304   7.389  11.446
60512W        W24280   2.830   9.223   4.185
60513W        W24281  14.730  43.833  10.951
60514W        W24282  35.596  16.132   3.685
60515W        W24283  22.017  18.777  12.850
60516W        W24284  16.246  15.617  14.448
60517W        W24285  12.668  27.961  13.475
60518W        W24286  29.495   7.900   0.393
60519W        W24287   3.369  25.035   2.290
60520W        W24288  29.114  18.761  10.116
60521W        W24289  37.868  37.925   2.251
60522W        W24290  30.632  18.078  11.027
60523W        W24291  16.669  35.005   2.183
60524W        W24292   0.303  38.045   2.698
60525W        W24293  34.907  44.401  10.636
60526W        W24294  30.426  42.315   4.129
60527W        W24295  25.707  42.911  12.463
60528W        W24296  14.615   5.878  11.405
60529W        W24297  21.634  12.610  11.583
60530W        W24298  29.940  22.124  14.984
60531W        W24299  16.095  10.869  10.644
60532W        W24300  30.607  27.060   1.709
60533W        W24301  30.937  25.615  11.866
60534W        W24302  17.717  40.854   2.846
60535W        W24303   1.883  21.671   2.403
60536W        W24304   7.181  40.947   3.255
60537W        W24305  40.344  40.835   3.669
60538W        W24306  34.545  31.040  12.415
60539W        W24307  40.472  41.520  12.483
60540W        W24308  32.904  37.357   1.414
60541W        W24309   0.449  28.951   3.151
60542W        W24310   5.196  18.057   4.630
60543W        W24311  43.365  23.137   1.359
60544W        W24312  38.017  44.884   2.881
60545W        W24313  41.992  17.607  10.465
60546W        W24314  32.020  39.058   3.190
60547W        W24315  25.481  27.034   3.345
60548W        W24316   7.782  29.053   2.896
60549W        W24317  13.837  22.705   1.769
60550W        W24318  44.267   3.918  13.950
60551W        W24319  34.046  42.421  12.528
60552W        W24320   5.239  33.521   2.816
60553W        W24321   7.859  37.357   0.754
60554W        W24322   1.742  32.416  13.894
60555W        W24323  14.630  15.100   3.662
60556W        W24324  40.014  17.097  10.960
60557W        W24325  33.434  43.811  11.540
60558W        W24326  28.573  30.155   1.220
60559W        W24327  16.195   0.267   1.358
60560W        W24328  35.938   6.203   0.438
60561W        W24329  16.223  18.216   2.382
60562W        W24330  25.020  20.642  12.069
60563W        W24331   7.836  34.514  14.360
60564W        W24332  22.245  27.618  10.457
60565W        W24333  37.419   5.204   4.683
60566W        W24334   9.225  11.197  11.552
60567W        W24335  25.162  39.847  12.961
60568W        W24336  18.292  40.305  12.877
60569W        W24337   8.280  13.612  11.025
60570W        W24338  44.269  25.557   0.835
60571W        W24339  39.441  42.336  13.453
60572W        W24340  24.562  22.596  12.373
60573W        W24341  35.528  19.572  13.468
60574W        W24342  44.404  30.457  13.946
60575W        W24343  24.712  31.047  13.533
60576W        W24344  34.103  42.963   3.154
60577W        W24345  18.679   4.723  10.994
60578W        W24346   1.291   6.198   4.837
60579W        W24347  31.611  32.141  10.508
60580W        W24348  25.669  37.909   2.672
60581W        W24349  35.926  14.244  13.869
60582W        W24350  24.699  14.595  11.408
60583W        W24351  40.477  11.807  14.970
60584W        W24352   1.330  25.569   3.777
60585W        W24353  40.530  16.316   2.766
60586W        W24354  12.343   2.957   3.248
60587W        W24355  28.186  23.054   4.270
60588W        W24356  16.095  19.712   0.899
60589W        W24357  29.652   6.830  14.790
60590W        W24358   7.411  15.722  12.366
60591W        W24359  39.837  25.063   2.678
60592W        W24360   2.748  28.113   2.866
60593W        W24361  34.506  35.455   4.670
60594W        W24362  35.065  18.181   5.283
60595W        W24363  15.145  12.300   2.845
60596W        W24364  39.892  38.518  10.438
60597W        W24365  10.336  39.991  14.960
60598W        W24366   9.303   8.271   4.837
60599W        W24367  44.924  25.509   0.361
60600W        W24368  16.613  11.816   1.771
60601W        W24369  35.068   9.212   3.669
60602W        W24370  44.450  13.138   3.274
60603W        W24371  37.449  30.627  13.349
60604W        W24372  35.521   7.385   9.648
60605W        W24373  38.003  27.570  12.402
60606W        W24374  31.952   9.374   2.182
60607W        W24375  16.696  14.754   0.871
60608W        W24376  38.523  37.948  11.057
60609W        W24377  32.596   4.415  14.343
60610W        W24378  17.074  14.624  14.778
60611W        W24379   4.932  15.643  12.930
60612W        W24380  15.097  19.645   1.814
60613W        W24381  13.837  21.061  13.063
60614W        W24382   3.411  12.840  10.963
60615W        W24383  18.173  44.806  14.812
60616W        W24384  34.096  37.061   2.864
60617W        W24385  12.260  35.538   4.784
60618W        W24386   2.958  33.517  14.860
60619W        W24387  34.889   1.362   1.707
60620W        W24388  19.578   7.214  12.036
60621W        W24389   7.839   2.299   4.625
60622W        W24390  36.460  38.914   4.832
60623W        W24391  27.012  31.452  13.043
60624W        W24392  22.016   5.320  12.977
60625W        W24393  11.147  19.671   0.381
60626W        W24394  28.484  33.519  11.468
60627W        W24395  40.471  19.698   3.303
60628W        W24396   7.708  20.633   2.827
60629W        W24397   3.354   2.353   5.085
60630W        W24398  15.127  24.978  11.972
60631W        W24399   3.227  27.991   2.262
60632W        W24400   7.756  23.541   1.779
60633W        W24401  13.817  38.560  13.449
60634W        W24402   1.756   2.892  11.051
60635W        W24403  41.373   4.758   1.398
60636W        W24404  25.150  40.882  14.824
60637W        W24405   0.929   8.843   2.694
60638W        W24406   2.467  25.673  14.486
60639W        W24407  43.788  27.102  12.094
60640W        W24408  27.539  10.317   2.697
60641W        W24409   5.396  37.916  10.518
60642W        W24410  15.610  32.619  12.413
60643W        W24411  17.078  12.703  10.574
60644W        W24412  23.081  13.818  13.021
60645W        W24413  25.535  32.479  11.098
60646W        W24414  26.611  38.927  12.858
60647W        W24415  27.553  30.413   1.814
60648W        W24416  30.445  44.497  14.877
60649W        W24417  12.240   2.448  13.019
60650W        W24418  35.108  19.574  14.378
60651W        W24419  33.607   9.816  14.287
60652W        W24420   5.262  10.876  10.900
60653W        W24421  18.256  24.704  13.473
60654W        W24422  25.049  20.065  11.887
60655W        W24423  11.228  24.714  13.799
60656W        W24424  10.878  19.620   3.678
60657W        W24425  41.358  37.336   1.816
60658W        W24426  15.767  20.028  12.434
60659W        W24427   5.398  26.965  14.964
60660W        W24428  32.587  18.558   4.135
60661W        W24429  33.085  11.682   2.384
60662W        W24430   4.768   0.348   1.376
60663W        W24431  24.705  12.796   0.934
60664W        W24432  20.215  30.973  13.339
60665W        W24433  28.677  15.696  12.043
60666W        W24434   6.838  42.484  11.478
60667W        W24435  22.999  25.044  12.053
60668W        W24436   3.858  17.636  13.032
60669W        W24437  22.552  19.745   1.743
60670W        W24438  11.635  13.646   3.329
60671W        W24439  39.918  26.461  14.014
60672W        W24440  31.489   6.242  14.816
60673W        W24441  21.244  19.726   3.309
60674W        W24442  36.909  24.084   2.412
60675W        W24443  33.401   7.310  10.469
60676W        W24444   8.818  20.604  10.564
60677W        W24445  42.027   3.945  11.935
60678W        W24446  33.567  42.026  13.052
60679W        W24447  44.483  28.140  14.455
60680W        W24448   9.661   3.448   2.411
60681W        W24449  28.126  25.667  10.627
60682W        W24450  23.593  16.698  14.966
60683W        W24451  13.304  33.491  13.926
60684W        W24452  41.409  27.537  12.417
60685W        W24453   9.379  23.242  14.793
60686W        W24454  44.876  26.581   3.348
60687W        W24455  17.299  34.565  11.562
60688W        W24456  28.435  11.662   4.703
60689W        W24457  17.089   3.718   4.333
60690W        W24458  29.977  39.499  14.016
60691W        W24459  21.583  23.988  13.479
60692W        W24460  33.087  30.995   1.375
60693W        W24461  13.168   0.355  10.457
60694W        W24462  26.506   8.374  13.546
60695W        W24463  32.022  20.528   3.695
60696W        W24464  28.109  20.180   1.916
60697W        W24465  33.395   9.308   3.676
60698W        W24466  15.687  19.773   3.327
60699W        W24467  38.552   6.780   9.566
60700W        W24468  18.150  13.610  13.901
60701W        W24469  42.830   1.810   1.923
60702W        W24470  39.443  11.675   1.705
60703W        W24471  44.816  10.637   1.332
60704W        W24472  16.311  40.418   3.300
60705W        W24473   8.881  40.339   3.705
60706W        W24474   2.255  40.998  13.467
60707W        W24475  20.069  21.194   3.157
60708W        W24476  11.747  40.378  13.046
60709W        W24477   1.883  28.013  14.026
60710W        W24478  22.711   3.399   1.826
60711W        W24479  37.341   2.415  11.612
60712W        W24480  31.985  37.040   3.672
60713W        W24481  31.427  22.567  13.312
60714W        W24482  36.069  22.715  12.065
60715W        W24483   2.316  39.824  13.847
60716W        W24484   4.732  35.473  10.919
60717W        W24485   6.348  32.008   4.198
60718W        W24486  25.499   5.787  10.441
60719W        W24487   8.224   2.240  14.862
60720W        W24488   0.807  29.667  11.983
60721W        W24489  29.973  20.169  11.995
60722W        W24490   0.347   5.862   3.211
60723W        W24491  28.541  38.954  12.064
60724W        W24492  30.599  25.495  12.019
60725W        W24493  19.232   5.360  10.551
60726W        W24494  44.879   2.748  10.979
60727W        W24495   1.402   1.957   4.812
60728W        W24496  13.813   3.414  10.466
60729W        W24497  42.994  39.397   1.377
60730W        W24498   7.237  27.552   3.366
60731W        W24499  18.153  40.414   4.807
60732W        W24500   3.456   4.271   1.391
60733W        W24501  20.598   7.779   0.460
60734W        W24502  16.304  20.668   9.447
60735W        W24503  26.630  20.039  12.853
60736W        W24504  39.498  42.937  12.465
60737W        W24505  14.105  25.115  12.930
60738W        W24506   0.309  44.765  14.481
60739W        W24507  40.807  10.152   1.763
60740W        W24508  25.708  34.046  14.284
60741W        W24509  38.455  33.535  12.529
60742W        W24510  20.225  30.582  12.882
60743W        W24511  12.182  24.540   3.373
60744W        W24512  43.965   5.418  14.775
60745W        W24513  44.823   8.662  13.044
60746W        W24514   3.858  20.594  10.458
60747W        W24515  32.106  37.533  14.338
60748W        W24516  27.129  31.511  13.426
60749W        W24517  21.047   4.330  13.943
60750W        W24518   6.766  34.073  14.013
60751W        W24519  24.698  44.437  13.049
60752W        W24520   2.739   9.766  13.434
60753W        W24521  36.934  38.979  11.391
60754W        W24522   2.237  26.661  10.471
60755W        W24523  17.180  34.427   4.283
60756W        W24524  42.868   6.399   1.295
60757W        W24525   5.863  15.201  11.901
60758W        W24526   0.264  20.677  13.424
60759W        W24527  37.929  43.367  11.455
60760W        W24528   8.754   5.755  11.050
60761W        W24529   9.160  28.170  10.157
60762W        W24530  24.040  13.338   0.823
60763W        W24531  21.757  13.719   4.754
60764W        W24532  37.338  41.032   2.180
60765W        W24533  31.402  18.151  14.469
60766W        W24534  26.992  33.107  13.858
60767W        W24535  31.056  31.132   2.739
60768W        W24536  36.898  17.573   3.295
60769W        W24537  16.187  13.228  10.903
60770W        W24538  41.044   9.816  11.557
60771W        W24539  19.174   5.345  11.870
60772W        W24540  24.107  26.613   1.407
60773W        W24541  11.804  40.813   1.737
60774W        W24542   7.178  27.641   0.931
60775W        W24543   7.680  20.179   4.700
60776W        W24544   9.840  14.658  11.445
60777W        W24545  19.058  15.595  11.886
60778W        W24546  11.810  30.588  12.456
60779W        W24547   1.857  19.143   1.785
60780W        W24548   3.381  26.139   0.273
60781W        W24549  42.285   5.430  13.330
60782W        W24550  30.612   5.751  11.378
60783W        W24551   0.421  28.522  10.905
60784W        W24552  33.564  41.015   3.825
60785W        W24553  36.472  35.439   2.263
60786W        W24554   6.305   8.799   0.362
60787W        W24555   2.747  44.864  12.950
60788W        W24556   7.222   5.415   1.891
60789W        W24557  21.172  11.735   4.273
60790W        W24558  11.150   0.884   1.883
60791W        W24559  25.527  25.147  14.323
60792W        W24560  15.162  38.961   0.254
60793W        W24561  11.699  34.873   0.806
60794W        W24562   7.909  20.763  14.463
60795W        W24563  25.187  13.131   0.482
60796W        W24564  41.015  18.785  11.377
60797W        W24565  40.353  11.782  11.454
60798W        W24566  11.668  32.590  12.537
60799W        W24567   1.859   0.825   1.256
60800W        W24568   6.304  12.353  13.923
60801W        W24569  22.708   6.275  12.087
60802W        W24570   2.230   0.912  12.491
60803W        W24571  35.403   8.873  14.845
60804W        W24572  27.013  23.179   1.929
60805W        W24573  12.792  31.008  13.063
60806W        W24574  29.058  18.598   1.892
60807W        W24575  20.151  34.555  13.458
60808W        W24576   8.669  44.974  13.035
60809W        W24577  27.521  42.985   0.344
60810W        W24578  36.569  15.099  13.934
60811W        W24579   8.322  28.494  11.445
60812W        W24580   0.279  16.228  14.412
60813W        W24581  20.596   8.677  13.408
60814W        W24582  43.404  29.488  14.807
60815W        W24583  10.374  37.086  11.490
60816W        W24584  39.888   0.301   2.245
60817W        W24585  14.673  23.576   3.802
60818W        W24586  10.155  27.611   5.215
60819W        W24587  43.018  39.545  14.794
60820W        W24588  35.882  43.401  12.572
60821W        W24589  14.652   6.808   2.324
60822W        W24590  16.671   4.872   1.866
60823W        W24591  32.927   8.795   4.295
60824W        W24592  19.210  38.429   1.916
60825W        W24593  14.291  31.148   3.205
60826W        W24594  30.564  18.158  14.511
60827W        W24595  21.624  19.742   3.152
60828W        W24596  27.535  27.459  12.056
60829W        W24597   5.840  17.286  10.970
60830W        W24598   1.293   8.867  14.444
60831W        W24599   5.281   4.774  14.992
60832W        W24600  23.730  17.170  13.325
60833W        W24601  18.149  38.351   3.695
60834W        W24602  40.487  29.979  14.867
60835W        W24603  42.394   8.697  11.063
60836W        W24604   2.374  18.565   2.810
60837W        W24605  40.922  40.423  10.422
60838W        W24606  35.088  24.051  14.863
60839W        W24607  11.730   0.862  10.888
60840W        W24608   1.467   1.738   3.286
60841W        W24609  22.692  11.845  10.539
60842W        W24610  16.090  35.604  12.347
60843W        W24611   9.151  44.961   1.234
60844W        W24612  21.577  41.299   1.708
60845W        W24613  25.096   9.643  14.822
60846W        W24614  38.831   8.855   3.322
60847W        W24615   8.389   7.349   4.181
60848W        W24616   5.894  42.299   2.368
60849W        W24617  44.873  12.764  14.818
60850W        W24618  41.365  33.064  10.927
60851W        W24619   5.766  10.662   3.217
60852W        W24620  27.108  18.618   4.781
60853W        W24621   7.196  30.074   3.723
60854W        W24622   1.422  40.530   0.736
60855W        W24623  25.487  20.658   4.707
60856W        W24624  34.420   7.358   4.659
60857W        W24625  23.221  21.698  11.445
60858W        W24626  11.821  37.373  10.440
60859W        W24627  10.804  44.872   4.676
60860W        W24628  32.417   0.863  10.553
60861W        W24629  41.866  29.973   0.850
60862W        W24630  33.071   1.311  11.586
60863W        W24631   0.415  44.406  13.378
60864W        W24632   7.223  35.042   1.852
60865W        W24633   0.417   5.383   0.363
60866W        W24634  13.644  14.614   1.888
60867W        W24635  19.107   2.313   1.404
60868W        W24636  22.694  34.509  13.025
60869W        W24637  19.538   8.852  10.070
60870W        W24638  37.526   0.409   1.330
60871W        W24639  24.524  25.555  13.387
60872W        W24640   6.183  36.991   1.251
60873W        W24641  18.247  22.102   4.155
60874W        W24642  35.027   9.177   4.163
60875W        W24643  33.597  24.196  13.492
60876W        W24644  40.952   1.750   0.478
60877W        W24645  37.339  10.797   3.225
60878W        W24646  11.707  10.188  12.450
60879W        W24647  40.447  39.835   1.281
60880W        W24648  24.615  26.477  10.580
60881W        W24649  24.160  18.220   1.448
60882W        W24650  11.212  23.224   2.829
60883W        W24651  25.134   2.869  12.005
60884W        W24652  19.588  25.978  13.888
60885W        W24653  26.687  24.109  12.043
60886W        W24654  25.691  15.772  11.918
60887W        W24655   0.369   4.446  13.064
60888W        W24656  43.416  15.585   4.169
60889W        W24657  15.799  26.660  10.599
60890W        W24658  12.329  28.492  13.428
60891W        W24659  26.637   3.771   1.227
60892W        W24660  17.799   1.842   3.695
60893W        W24661  19.118  19.192  14.309
60894W        W24662   9.755   9.163   1.871
60895W        W24663   6.389  39.909  12.343
60896W        W24664   5.346  23.666  10.920
60897W        W24665  16.574  17.255   1.817
60898W        W24666   5.890  36.983  12.963
60899W        W24667  33.905  12.259   3.274
60900W        W24668  37.462  10.806  12.989
60901W        W24669  18.160  13.193  11.455
60902W        W24670  37.481  41.821  12.357
60903W        W24671  15.771   9.648   4.130
60904W        W24672  41.970  43.797   4.319
60905W        W24673  23.088   8.199   0.901
60906W        W24674  21.727  41.517  13.369
60907W        W24675  29.517   8.336  11.534
60908W        W24676   7.238  32.057   0.462
60909W        W24677  44.424  25.123   2.314
60910W        W24678   6.892  29.494  14.886
60911W        W24679   2.925  40.405   0.805
60912W        W24680  31.475  34.916   1.285
60913W        W24681   0.891  29.628   2.720
60914W        W24682  41.532   9.664  11.498
60915W        W24683  15.300  23.714  10.150
60916W        W24684  26.152  35.407   3.801
60917W        W24685  11.855  11.140   3.815
60918W        W24686  21.024  40.359  13.809
60919W        W24687  38.033  40.304   2.675
60920W        W24688   7.177  17.777  11.396
60921W        W24689  18.673  31.450  13.922
60922W        W24690  35.896  32.566  12.420
60923W        W24691   2.848  37.478  10.895
60924W        W24692  37.942  42.901   4.287
60925W        W24693  40.885  39.055  13.922
60926W        W24694  40.478  28.155   2.823
60927W        W24695  15.668  12.766  14.448
60928W        W24696  39.969   2.910  12.384
60929W        W24697   0.306   2.258   4.157
60930W        W24698  40.955   6.284   2.303
60931W        W24699  43.814  19.696   1.696
60932W        W24700  12.141  20.625   3.374
60933W        W24701   6.200  33.081  12.017
60934W        W24702  34.445  12.770   1.899
60935W        W24703   5.862  41.798  13.811
60936W        W24704   0.954  43.810   3.650
60937W        W24705   5.197  39.321  11.504
60938W        W24706   4.419  29.554  13.856
60939W        W24707   4.938  38.444  14.851
60940W        W24708  16.193   7.375  11.939
60941W        W24709  11.218   4.860  14.960
60942W        W24710  33.458  44.496  14.815
60943W        W24711  33.091  12.238   3.792
60944W        W24712  15.259  21.046  13.045
60945W        W24713  43.916   0.856   4.266
60946W        W24714  25.997  19.706   0.764
60947W        W24715  32.140   3.450  11.047
60948W        W24716  38.423  37.043   3.344
60949W        W24717  31.898  19.137   0.451
60950W        W24718  14.686   4.764  10.602
60951W        W24719  15.144  42.025  11.996
60952W        W24720  23.535  29.459  14.842
60953W        W24721  35.508   2.881   4.352
60954W        W24722  36.585  34.570  12.990
60955W        W24723  43.403  39.538  12.448
60956W        W24724  10.642  13.113  13.050
60957W        W24725  11.197  40.830   3.721
60958W        W24726  32.015  26.076   1.848
60959W        W24727  27.651  42.437  12.896
60960W        W24728  28.459  27.035  10.603
60961W        W24729   1.406  19.654  11.067
60962W        W24730   0.838  22.046  12.428
60963W        W24731   0.458  39.883   2.314
60964W        W24732  22.012  27.100  10.642
60965W        W24733   1.918  29.042  13.980
60966W        W24734  10.861   4.914  10.437
60967W        W24735  30.974   3.872   3.694
60968W        W24736   7.729  15.107   3.198
60969W        W24737  31.443  12.149   4.327
60970W        W24738   2.922  21.115   0.441
60971W        W24739  20.723  24.563  14.855
60972W        W24740  30.985   7.253   2.843
60973W        W24741   8.818  10.756   4.173
60974W        W24742   3.867   8.303   4.199
60975W        W24743  24.119  25.493  11.095
60976W        W24744  16.204  18.072  13.876
60977W        W24745  29.016   1.959  12.892
60978W        W24746   5.332  38.843   0.907
60979W        W24747  27.550   4.925  12.479
60980W        W24748  31.945  18.241  14.000
60981W        W24749  19.767  39.919  13.006
60982W        W24750  34.109  40.997  14.420
60983W        W24751  33.034  20.048  14.869
60984W        W24752  10.291  22.054  13.923
60985W        W24753  42.296  29.932   0.316
60986W        W24754   1.909  42.495   2.292
60987W        W24755   2.426  29.960  12.823
60988W        W24756  13.143  25.135  13.451
60989W        W24757   6.334  42.926   0.854
60990W        W24758  42.011  43.429   1.390
60991W        W24759  25.094  23.236   4.215
60992W        W24760   3.422  39.962  14.911
60993W        W24761  24.227  13.610   1.701
60994W        W24762  17.199  13.228  10.551
60995W        W24763  15.709  10.223   0.830
60996W        W24764   2.820  23.996  14.819
60997W        W24765  30.546   9.710  10.611
60998W        W24766  31.454  43.009  12.899
60999W        W24767  10.640  33.575   3.823
61000W        W24768   6.798  16.736  11.023
61001W        W24769   7.712  21.655  10.944
61002W        W24770   1.400  21.211  11.956
61003W        W24771   4.754  30.092   1.377
61004W        W24772   1.899  22.183  10.979
61005W        W24773  26.961  27.630  11.378
61006W        W24774  33.604  43.843   0.265
61007W        W24775  44.319  29.038   0.870
61008W        W24776  34.393  27.007   3.190
61009W        W24777  19.130  38.956   2.680
61010W        W24778   3.741   0.373   3.192
61011W        W24779  10.714  13.317   3.849
61012W        W24780  24.204  42.926  12.013
61013W        W24781  22.202  41.018   1.817
61014W        W24782   0.960  27.085   0.290
61015W        W24783  32.526  12.829   4.311
61016W        W24784  30.582  30.138  14.789
61017W        W24785  22.240  32.589   3.830
61018W        W24786  23.154  44.382  11.372
61019W        W24787   9.652   7.842   0.256
61020W        W24788  30.932  39.875  11.588
61021W        W24789  37.012  39.413  12.858
61022W        W24790  33.409  11.170   2.827
61023W        W24791  44.927  43.385   3.154
61024W        W24792  12.694  35.076   3.796
61025W        W24793   5.689  30.511   1.916
61026W        W24794  21.226   4.402   4.652
61027W        W24795  36.362  34.977  13.330
61028W        W24796  36.858   7.890   4.218
61029W        W24797   1.914   8.696  11.501
61030W        W24798  30.121  13.119  13.369
61031W        W24799   0.791  33.026  12.978
61032W        W24800  37.579  12.744   0.745
61033W        W24801   4.252  39.357  11.895
61034W        W24802   1.288   0.900   2.226
61035W        W24803  27.643  18.692   1.439
61036W        W24804  12.180  24.627  11.398
61037W        W24805  17.741  36.948  11.860
61038W        W24806  34.993   3.358  13.979
61039W        W24807  43.839  17.150  12.066
61040W        W24808   4.943  43.916  10.468
61041W        W24809  24.174  22.519  10.956
61042W        W24810  10.199  19.259  11.010
61043W        W24811   2.876   5.906   4.186
61044W        W24812  19.715  43.980  13.960
61045W        W24813   1.447  11.792   2.352
61046W        W24814  19.746  24.183   4.123
61047W        W24815   4.275  36.517  11.379
61048W        W24816  30.628  25.685   2.183
61049W        W24817  44.943   4.791  13.061
61050W        W24818  43.483   3.867  12.550
61051W        W24819  44.385  18.110   2.366
61052W        W24820  35.859   2.419  12.514
61053W        W24821  31.534  41.382  12.950
61054W        W24822  13.223  40.387   4.720
61055W        W24823  37.376  21.093  13.001
61056W        W24824  14.334  14.723  11.399
61057W        W24825   8.171  35.014  12.975
61058W        W24826  29.048  15.121  14.890
61059W        W24827  21.212   1.401   3.179
61060W        W24828   4.301  27.173  10.945
61061W        W24829  43.376   5.248   0.848
61062W        W24830  11.785   6.326  13.842
61063W        W24831  26.688  16.648  14.306
61064W        W24832  19.716  14.772  11.914
61065W        W24833   6.911   4.874  14.920
61066W        W24834  25.475  42.511   0.249
61067W        W24835  44.308  21.629   4.197
61068W        W24836  30.583  40.855  12.964
61069W        W24837   4.387  23.030  13.461
61070W        W24838  20.524   1.776  13.383
61071W        W24839  20.209  28.627  11.530
61072W        W24840  20.180  10.716  11.388
61073W        W24841  14.589  40.948  14.349
61074W        W24842  23.040  23.549   1.307
61075W        W24843  28.950  31.140  12.404
61076W        W24844  28.159  36.511   1.918
61077W        W24845   9.868  14.711   2.318
61078W        W24846   3.405  36.069  12.402
61079W        W24847  38.504  41.478   1.912
61080W        W24848  43.788  14.726  11.578
61081W        W24849  41.027  12.273   1.273
61082W        W24850  30.564  42.828  13.312
61083W        W24851  42.466  32.984  10.611
61084W        W24852  13.613  34.466  11.555
61085W        W24853  12.666  26.625  12.823
61086W        W24854  14.207  11.276  14.990
61087W        W24855  21.178  37.482  11.486
61088W        W24856   2.423   7.860  14.461
61089W        W24857  34.920   2.257   2.835
61090W        W24858   9.831  23.200   1.779
61091W        W24859  44.268  33.006  12.404
61092W        W24860  44.283  22.580  11.915
61093W        W24861   7.193  12.280   1.212
61094W        W24862  11.252  38.855   0.285
61095W        W24863  37.055  11.734   4.125
61096W        W24864  39.346  29.170  11.863
61097W        W24865  14.761  21.670  12.562
61098W        W24866  43.427  29.077   3.304
61099W        W24867  15.818   1.400   0.878
61100W        W24868  42.027  28.120   1.763
61101W        W24869  35.501  21.575   0.766
61102W        W24870   9.336  19.638  13.452
61103W        W24871  35.578   6.374   4.337
61104W        W24872  33.530  29.980  11.022
61105W        W24873  34.923  15.138  14.418
61106W        W24874   5.234  30.431  10.556
61107W        W24875  11.802  42.791   1.935
61108W        W24876   9.272  41.503  10.576
61109W        W24877  41.395  41.535  10.597
61110W        W24878   0.884  19.274  10.966
61111W        W24879  12.773   9.657   2.193
61112W        W24880   1.963  20.529   4.333
61113W        W24881   9.742  19.708  14.964
61114W        W24882   2.765  43.839  11.601
61115W        W24883  37.450   9.317  13.064
61116W        W24884  12.200  29.453   2.310
61117W        W24885  18.579  15.323  11.016
61118W        W24886  14.284  15.722  12.481
61119W        W24887  10.219   3.798  11.017
61120W        W24888  24.658  39.813   0.388
61121W        W24889  32.038  41.413  10.525
61122W        W24890   2.788  12.667   2.252
61123W        W24891  25.151  18.152  14.889
61124W        W24892  31.908   3.383  13.869
61125W        W24893  25.545  14.817   4.786
61126W        W24894  22.069  37.420   0.454
61127W        W24895  40.518   7.305   0.480
61128W        W24896  12.130   0.892   3.285
61129W        W24897  29.561  36.958  12.942
61130W        W24898   1.869  21.046   3.335
61131W        W24899  44.475  11.664  10.903
61132W        W24900  43.446  35.385   2.868
61133W        W24901  24.225  17.193  14.889
61134W        W24902  22.511   5.364   0.923
61135W        W24903  26.048  34.481  14.484
61136W        W24904  33.967   6.266   4.201
61137W        W24905  12.624  33.503  13.330
61138W        W24906  16.794  11.194  10.603
61139W        W24907  15.178   0.924  10.610
61140W        W24908  14.689  26.186   2.367
61141W        W24909  35.930  19.065   4.646
61142W        W24910   8.760  34.473  10.638
61143W        W24911   0.436   0.475  11.455
61144W        W24912  11.824  16.715   3.251
61145W        W24913  27.169  13.261   4.165
61146W        W24914  27.616   4.252   2.664
61147W        W24915  27.685  18.056  13.861
61148W        W24916  25.691  14.622  12.476
61149W        W24917   7.690  44.368  14.816
61150W        W24918  36.426  30.033  11.560
61151W        W24919  16.784  30.456  14.492
61152W        W24920  34.115  38.963   0.745
61153W        W24921  42.024  42.968  11.939
61154W        W24922   4.771  11.666   0.423
61155W        W24923  13.827  27.681   0.883
61156W        W24924   5.805  16.179  13.493
61157W        W24925  19.547  17.739   0.450
61158W        W24926  30.545  23.173   0.246
61159W        W24927  21.591  23.242   1.414
61160W        W24928  20.575   0.976   0.264
61161W        W24929  18.103  25.037  13.865
61162W        W24930  34.479   6.238  12.914
61163W        W24931   8.846  11.702   2.698
61164W        W24932  15.185  24.640  13.389
61165W        W24933  41.308  28.046   3.370
61166W        W24934   0.899  38.463  10.933
61167W        W24935   9.820   8.210  13.498
61168W        W24936  16.724  34.891   5.702
61169W        W24937   0.462  28.065   4.720
61170W        W24938  42.903  10.650   3.807
61171W        W24939  16.091  24.621   1.292
61172W        W24940  43.959  24.106   1.398
61173W        W24941  44.814   4.421  10.973
61174W        W24942  18.667   1.342   1.447
61175W        W24943  32.579  42.992   1.404
61176W        W24944  10.682  16.737  13.811
61177W        W24945  12.730  10.276   2.367
61178W        W24946  16.072  40.455  10.925
61179W        W24947  35.864  26.029  12.497
61180W        W24948  23.677  38.899  14.946
61181W        W24949  10.657  44.756   3.375
61182W        W24950   3.907  43.013   0.460
61183W        W24951  22.590  44.416   4.730
61184W        W24952  30.041  13.142   0.965
61185W        W24953  27.533  40.990   4.800
61186W        W24954  23.024  40.390  14.290
61187W        W24955  25.586  36.075   2.727
61188W        W24956  44.936   2.292   4.243
61189W        W24957  42.026  37.943  13.458
61190W        W24958  25.053  16.666   2.757
61191W        W24959  31.584   5.790  11.868
61192W        W24960  22.217   5.759   3.160
61193W        W24961  32.984  19.196   9.956
61194W        W24962  41.523   1.840   2.673
61195W        W24963  11.258   1.372  10.571
61196W        W24964   5.378  19.045   0.964
61197W        W24965  42.423  26.674   4.169
61198W        W24966  31.917  43.869  13.791
61199W        W24967   8.364  34.920   2.297
61200W        W24968  29.639  30.074  10.479
61201W        W24969   6.747  27.973   2.414
61202W        W24970  21.037  12.174   0.408
61203W        W24971  30.999  26.581   0.735
61204W        W24972  12.808   2.315   1.706
61205W        W24973  28.630  26.506  12.985
61206W        W24974  21.147  10.272  11.893
61207W        W24975  39.527   1.410   3.289
61208W        W24976  43.448  17.635   3.279
61209W        W24977  43.427   5.254  12.465
61210W        W24978  30.550  11.847   5.161
61211W        W24979  32.041  13.327  10.429
61212W        W24980  43.926   3.293   2.735
61213W        W24981  24.523   8.746   3.350
61214W        W24982  39.836   3.276   2.718
61215W        W24983   2.822  28.008   0.315
61216W        W24984  15.709  24.102   2.211
61217W        W24985   3.711  42.787   0.924
61218W        W24986  20.695  13.614   2.345
61219W        W24987  23.036  32.601   0.257
61220W        W24988  23.026  41.395   3.763
61221W        W24989  37.459   4.339  11.467
61222W        W24990  11.168  19.250  11.520
61223W        W24991  18.702  23.707  13.934
61224W        W24992  39.907   4.278  11.488
61225W        W24993  43.800   9.347  13.523
61226W        W24994  44.824  31.940  13.334
61227W        W24995  35.445  15.715  11.382
61228W        W24996  20.246  39.471   2.239
61229W        W24997   1.746  35.892  14.281
61230W        W24998  44.458  35.513  10.527
61231W        W24999   6.803  28.071  13.465
61232W        W25000   0.804  34.470  13.467
61233W        W25001  14.661   1.915  13.543
61234W        W25002  19.239  23.095   3.656
61235W        W25003   3.297  24.718   1.331
61236W        W25004  17.260  12.726  14.946
61237W        W25005  21.110  11.217   0.754
61238W        W25006  27.537  43.985  14.473
61239W        W25007  28.472  41.454  11.954
61240W        W25008  40.364   4.700   1.425
61241W        W25009   1.427  14.727  11.462
61242W        W25010  44.965  44.965  13.062
61243W        W25011  12.328  42.390   4.154
61244W        W25012  20.091  35.091   2.380
61245W        W25013   5.693   9.337  13.543
61246W        W25014  32.925  31.500   2.840
61247W        W25015  44.010  18.133   0.468
61248W        W25016   4.235   7.178  11.020
61249W        W25017  14.231  37.488   3.771
61250W        W25018  15.094  10.834  10.406
61251W        W25019  33.007   7.755  14.888
61252W        W25020  21.207  14.235  13.866
61253W        W25021  26.024  44.933   3.768
61254W        W25022  36.877  11.335  14.868
61255W        W25023  35.454   6.395   0.871
61256W        W25024  10.277  28.175   3.740
61257W        W25025  24.720  21.257   2.327
61258W        W25026  24.531  16.191   0.956
61259W        W25027  41.036  29.443  11.528
61260W        W25028  18.178  22.056   1.927
61261W        W25029  17.794  20.058  10.034
61262W        W25030  29.124  22.632   3.822
61263W        W25031  26.006  13.627   2.859
61264W        W25032  39.834  25.483  13.307
61265W        W25033  35.361  15.707   2.410
61266W        W25034  29.032   1.764   2.799
61267W        W25035   3.785  17.633   3.786
61268W        W25036  35.592  34.555  10.520
61269W        W25037  41.830  31.481   1.322
61270W        W25038  43.920   4.273  13.811
61271W        W25039  18.688  31.490   9.929
61272W        W25040   6.260   7.218   4.128
61273W        W25041  42.471  11.208   1.288
61274W        W25042   6.402   4.436   0.924
61275W        W25043  19.699  43.996  13.318
61276W        W25044  25.494   7.716   4.190
61277W        W25045  11.269   8.741  11.386
61278W        W25046  30.597  14.149  10.561
61279W        W25047  27.177  35.515   9.970
61280W        W25048  27.497  13.218   4.279
61281W        W25049  34.459   1.464  11.882
61282W        W25050  38.999  24.161   1.373
61283W        W25051  28.638   3.868  10.971
61284W        W25052  33.966  43.969   3.283
61285W        W25053  31.013  35.919  13.947
61286W        W25054   1.247  40.356  13.951
61287W        W25055   5.875  26.585  11.531
61288W        W25056  14.334  13.340  14.405
61289W        W25057  40.514  36.543   1.273
61290W        W25058  36.087  33.944  12.396
61291W        W25059  31.900   8.667   4.177
61292W        W25060   1.339  43.963  12.026
61293W        W25061   0.968  43.985   4.636
61294W        W25062  28.634  37.921   1.797
61295W        W25063  36.427  29.029   5.143
61296W        W25064  33.558   8.334   2.407
61297W        W25065  30.461  25.216   2.852
61298W        W25066  34.599  16.734   2.820
61299W        W25067  38.075   2.406   3.671
61300W        W25068  20.095  19.637   3.733
61301W        W25069  37.575  14.777   0.752
61302W        W25070  27.485  23.582   2.853
61303W        W25071  23.561  30.038  12.406
61304W        W25072  29.546  19.775  10.940
61305W        W25073  11.725  42.481   4.290
61306W        W25074   3.742  35.540   0.796
61307W        W25075   2.313  11.219   3.170
61308W        W25076  31.456  16.300   4.347
61309W        W25077  37.564  30.147  13.936
61310W        W25078   3.255   6.718   2.226
61311W        W25079  30.096  42.502   1.328
61312W        W25080  16.758  34.867   2.776
61313W        W25081  28.969  34.393   4.139
61314W        W25082  33.605  13.167  13.483
61315W        W25083   4.308  28.179   0.940
61316W        W25084  23.525  41.466   1.437
61317W        W25085  25.709  27.599   2.753
61318W        W25086   8.195  41.017  13.059
61319W        W25087  26.499  32.956   3.834
61320W        W25088   2.366   7.833   0.775
61321W        W25089   1.917  39.048   3.327
61322W        W25090  33.435  32.055   4.318
61323W        W25091  25.700  30.095   0.794
61324W        W25092  40.405  11.155   2.330
61325W        W25093  36.852   7.849   1.414
61326W        W25094  11.761  38.993   3.310
61327W        W25095  44.973  28.664   1.807
61328W        W25096   6.815  35.583   3.228
61329W        W25097  25.647   5.920  14.421
61330W        W25098  38.518  15.145  14.952
61331W        W25099  18.093  23.998   0.357
61332W        W25100  26.685  28.987  11.031
61333W        W25101  37.870   7.230  12.514
61334W        W25102  25.220  42.977   4.309
61335W        W25103   0.987  15.600   1.922
61336W        W25104  15.196  17.768  13.329
61337W        W25105  18.161   6.681  14.437
61338W        W25106  32.944  36.399  14.020
61339W        W25107  35.867  38.332  13.888
61340W        W25108  44.499  11.133   4.714
61341W        W25109  31.150  22.070  12.093
61342W        W25110  40.034  40.028   3.734
61343W        W25111  32.089  33.471   1.436
61344W        W25112  28.956  17.302  10.020
61345W        W25113  42.927   9.888  12.452
61346W        W25114  44.937  17.653   3.215
61347W        W25115  39.328  36.497  11.057
61348W        W25116  43.326   0.479   1.881
61349W        W25117  14.179  34.472   1.929
61350W        W25118  37.981  34.954   0.281
61351W        W25119  34.872  20.228   2.668
61352W        W25120  33.383  38.456  10.995
61353W        W25121  33.452  28.947  10.113
61354W        W25122  14.768  12.786  10.077
61355W        W25123  38.385   4.256  12.361
61356W        W25124   9.156  38.034  12.355
61357W        W25125  34.556   3.403   4.616
61358W        W25126   3.769  24.176  10.466
61359W        W25127  23.001  14.639  13.851
61360W        W25128  13.246  40.495  11.892
61361W        W25129  15.258  16.765  13.494
61362W        W25130  44.909  30.032   3.796
61363W        W25131   8.743  42.810   1.390
61364W        W25132  29.065   6.231   1.897
61365W        W25133  33.923  42.365  13.813
61366W        W25134  38.934   2.911   5.095
61367W        W25135   2.266  24.143  11.552
61368W        W25136  44.398  21.229  11.520
61369W        W25137  41.449  42.957  14.492
61370W        W25138   8.375  40.882  10.430
61371W        W25139  30.083  15.615   5.153
61372W        W25140  42.437  26.195  12.894
61373W        W25141  13.151  12.312  11.460
61374W        W25142  12.282  38.949   2.801
61375W        W25143   4.725  44.854   3.722
61376W        W25144  25.165  12.713   0.878
61377W        W25145   0.924   1.799  12.555
61378W        W25146  21.663  38.559   3.863
61379W        W25147  16.304   2.413  13.535
61380W        W25148  28.057  24.230  11.002
61381W        W25149  24.156   5.378   2.768
61382W        W25150   0.332   9.378  12.383
61383W        W25151   2.281   5.433   0.481
61384W        W25152  11.265  37.854   2.409
61385W        W25153  32.546  29.170   1.896
61386W        W25154  15.585  30.618  11.059
61387W        W25155  13.170  36.485  14.504
61388W        W25156   1.362   4.731  12.379
61389W        W25157  30.150  10.798  11.415
61390W        W25158  17.208  29.101  10.890
61391W        W25159  36.422  23.223  11.906
61392W        W25160  35.592   0.986  13.338
61393W        W25161  21.540  42.526  12.924
61394W        W25162  15.804  26.615   3.240
61395W        W25163   6.686  23.229  11.076
61396W        W25164  12.223  26.019   2.407
61397W        W25165  26.026  42.458   1.872
61398W        W25166  26.206   6.289  12.955
61399W        W25167   6.292   9.817  10.484
61400W        W25168  12.323  44.377   1.335
61401W        W25169   3.729  29.434  10.526
61402W        W25170  10.757  15.660  12.075
61403W        W25171   5.338   8.320   0.433
61404W        W25172   8.319  22.746   1.400
61405W        W25173  29.992  40.014   4.662
61406W        W25174   8.795  42.002   4.784
61407W        W25175  31.078  11.131  14.513
61408W        W25176  32.622  37.953   1.910
61409W        W25177  20.693   2.285   1.907
61410W        W25178  34.477  44.932   1.349
61411W        W25179   3.248  22.580  14.933
61412W        W25180  43.386  27.482  14.477
61413W        W25181  40.482  10.318  14.944
61414W        W25182  41.533   6.183  12.989
61415W        W25183  14.811  41.327   3.326
61416W        W25184  33.110  24.155  14.318
61417W        W25185  23.646   9.753   2.817
61418W        W25186  13.163  32.966   1.222
61419W        W25187  36.023  29.595   5.091
61420W        W25188  13.227   8.827  12.486
61421W        W25189  43.991  21.209   0.904
61422W        W25190  12.250  41.514   0.250
61423W        W25191   8.812   4.896   3.163
61424W        W25192  31.935  29.429   5.143
61425W        W25193  25.664  35.570  12.080
61426W        W25194   6.196  40.366  14.815
61427W        W25195  43.017   4.216   3.365
61428W        W25196   5.206  31.932  13.840
61429W        W25197  18.196   6.285   4.714
61430W        W25198  32.539  13.259  11.875
61431W        W25199   4.206  23.495  12.564
61432W        W25200   0.774  41.373  11.549
61433W        W25201  38.974  43.972  13.044
61434W        W25202  28.679  23.154   2.237
61435W        W25203  16.749  38.492   2.341
61436W        W25204  23.157  43.992  13.795
61437W        W25205   5.902   9.379  12.395
61438W        W25206  38.032  21.111  11.483
61439W        W25207  27.613  38.389   0.941
61440W        W25208  42.885   7.183  10.639
61441W        W25209  42.982  24.579   3.856
61442W        W25210  39.355  39.966   0.860
61443W        W25211  32.129  22.582   4.793
61444W        W25212  26.028  36.001   0.358
61445W        W25213  26.633  34.507  12.558
61446W        W25214  42.295  10.190   0.924
61447W        W25215  18.230  39.485   1.304
61448W        W25216   7.264  43.386  13.455
61449W        W25217  16.299  29.462   0.444
61450W        W25218  44.792  35.404  14.942
61451W        W25219   7.808  41.291  12.569
61452W        W25220  12.317  43.895  14.350
61453W        W25221  22.663  10.662   3.192
61454W        W25222  38.929  32.046   3.282
61455W        W25223  34.867   8.691  11.880
61456W        W25224   0.976  21.694   2.212
61457W        W25225  31.971  29.966  12.963
61458W        W25226  22.018  23.675   0.335
61459W        W25227   5.340  12.854   0.731
61460W        W25228   2.885   3.753   3.722
61461W        W25229  11.245  19.101   2.233
61462W        W25230  31.595   6.786  13.438
61463W        W25231  16.298   7.398  11.592
61464W        W25232   5.358  14.191  13.009
61465W        W25233  11.837  11.288  13.911
61466W        W25234  43.852   3.930  12.478
61467W        W25235  31.074   5.402  13.452
61468W        W25236  26.523   6.895   4.151
61469W        W25237  42.003  24.634   0.445
61470W        W25238  15.135  33.551  11.579
61471W        W25239  38.054  17.284   2.182
61472W        W25240  31.483  10.242  12.017
61473W        W25241   0.357  33.982  10.155
61474W        W25242  38.519  39.365  11.572
61475W        W25243   3.922  39.063   2.225
61476W        W25244  37.874  26.963   1.810
61477W        W25245  35.095  39.396  14.285
61478W        W25246  35.970  35.401   1.326
61479W        W25247  28.464   5.724   2.367
61480W        W25248  43.318  27.066   1.701
61481W        W25249  33.050   5.386  12.862
61482W        W25250  33.459  37.927  10.933
61483W        W25251  35.097  44.370   1.748
61484W        W25252   4.758  20.065  10.582
61485W        W25253  35.574  25.499   1.821
61486W        W25254  37.543  34.521  12.055
61487W        W25255  41.326  42.426   4.719
61488W        W25256  13.663  31.910   3.815
61489W        W25257  18.278   6.902   3.177
61490W        W25258  25.642   4.715  12.974
61491W        W25259  12.639  11.835   1.848
61492W        W25260   8.254  14.289   4.699
61493W        W25261  24.142  16.779  13.541
61494W        W25262  37.952  31.432  12.414
61495W        W25263  39.840  36.906   3.809
61496W        W25264  28.989  34.102   2.381
61497W        W25265  29.544  30.454  12.062
61498W        W25266  32.006   9.261  12.028
61499W        W25267  17.120  15.784  11.419
61500W        W25268  32.447  28.680   0.343
61501W        W25269  41.299  34.382  14.003
61502W        W25270  21.732  21.663   0.857
61503W        W25271   3.410   2.301   4.660
61504W        W25272  25.486  22.220  13.025
61505W        W25273  33.083  23.562   2.822
61506W        W25274  14.594  11.272  14.011
61507W        W25275   1.813  19.187   3.270
61508W        W25276  33.587  21.558  13.456
61509W        W25277   9.858  30.041   2.416
61510W        W25278  17.672  23.173  11.007
61511W        W25279  40.378  41.944  14.031
61512W        W25280  28.151   7.814  14.513
61513W        W25281  32.991  25.474   0.924
61514W        W25282  43.810  27.666  10.538
61515W        W25283  27.118   7.251  10.967
61516W        W25284  19.278  36.489   0.746
61517W        W25285  39.378  17.645   1.242
61518W        W25286  36.489   8.165  12.429
61519W        W25287  26.544  11.187  13.450
61520W        W25288   2.762  11.232   2.419
61521W        W25289   7.346  25.679   0.432
61522W        W25290  21.228  17.265   3.386
61523W        W25291   7.706   5.725  10.598
61524W        W25292  40.350   0.253  10.892
61525W        W25293  30.019   5.229   0.948
61526W        W25294   0.793  39.012  11.865
61527W        W25295  21.187   4.430   5.082
61528W        W25296  11.227  31.932   5.271
61529W        W25297  31.984  33.954   1.781
61530W        W25298   6.920  14.312  11.064
61531W        W25299   8.172  16.222  10.889
61532W        W25300  30.029  34.905  14.828
61533W        W25301  11.720  18.083  10.889
61534W        W25302   0.932  17.141  11.557
61535W        W25303  37.997  11.153  14.897
61536W        W25304  32.498  22.200  13.903
61537W        W25305  40.938  40.882   1.706
61538W        W25306  24.635   1.477  11.055
61539W        W25307   1.396  19.773  13.968
61540W        W25308  24.108  37.549  14.328
61541W        W25309  40.430  17.268   3.695
61542W        W25310  32.471  16.585   0.419
61543W        W25311  28.106   7.191  12.880
61544W        W25312  26.022  32.550  14.502
61545W        W25313  37.361  15.734   2.709
61546W        W25314  40.413  44.755   3.774
61547W        W25315  38.942  37.463  14.002
61548W        W25316  29.002  32.895   3.343
61549W        W25317   8.235   2.316  10.602
61550W        W25318   5.838  29.058  11.074
61551W        W25319  11.805  29.022  14.494
61552W        W25320  29.459  20.226   4.243
61553W        W25321  22.158  17.282   3.794
61554W        W25322  30.021  15.780  11.402
61555W        W25323  33.479  42.514   3.741
61556W        W25324  39.822  39.534   1.292
61557W        W25325  35.510  27.480   2.274
61558W        W25326  26.039  25.096   4.240
61559W        W25327  40.966  32.896   0.888
61560W        W25328  19.122  11.781   4.640
61561W        W25329   1.450  25.050   0.418
61562W        W25330  34.034  12.731   4.284
61563W        W25331  21.596  41.867   2.677
61564W        W25332  43.514  39.348   0.932
61565W        W25333   9.237  17.093   4.616
61566W        W25334  21.538  36.012   0.393
61567W        W25335  42.411  11.351   2.300
61568W        W25336  31.978  20.752   4.160
61569W        W25337   1.337  40.853   1.730
61570W        W25338  43.869  28.534  13.965
61571W        W25339   6.214  28.653   4.789
61572W        W25340  37.907  42.971  10.639
61573W        W25341  11.729  44.306  10.059
61574W        W25342  44.988  32.440   4.743
61575W        W25343   7.770  36.370   0.310
61576W        W25344   7.417  17.164   1.853
61577W        W25345   4.261  31.953  10.110
61578W        W25346   1.445   6.355   0.257
61579W        W25347  14.280  30.449  12.540
61580W        W25348   4.930  13.632  14.912
61581W        W25349  23.203   1.928  13.913
61582W        W25350  37.342  29.050   4.687
61583W        W25351   2.398  20.667   1.268
61584W        W25352  22.149  42.873   3.384
61585W        W25353  28.112   0.470  14.305
61586W        W25354  23.128  42.915   1.775
61587W        W25355   5.714  39.016   4.788
61588W        W25356  31.125  37.537   4.322
61589W        W25357  31.017  40.451   3.195
61590W        W25358  10.207  42.819   0.823
61591W        W25359  43.359  33.970   3.211
61592W        W25360  43.336  23.610   4.652
61593W        W25361  30.961  14.200  10.999
61594W        W25362  36.374  33.493   3.690
61595W        W25363  41.959  20.221  14.421
61596W        W25364   9.262  31.140   1.837
61597W        W25365  26.048  34.954   4.340
61598W        W25366   4.427  38.066   1.380
61599W        W25367  37.416  13.783   2.732
61600W        W25368  13.683   6.368   3.804
61601W        W25369  22.174   0.742   3.150
61602W        W25370  31.072  30.965   4.822
61603W        W25371  34.039  43.772  11.419
61604W        W25372  31.111  35.584   0.255
61605W        W25373   9.843  17.184  13.355
61606W        W25374  28.043  21.136  11.560
61607W        W25375  40.538  36.574   0.448
61608W        W25376  22.719  29.654   1.722
61609W        W25377  24.135   6.791   4.195
61610W        W25378  33.080   3.360   3.212
61611W        W25379   2.906  15.708   4.291
61612W        W25380   7.371   6.229   4.708
61613W        W25381  21.207  29.041   4.244
61614W        W25382   7.349  26.088   2.217
61615W        W25383  19.534  22.545  11.521
61616W        W25384   7.729  21.518   0.441
61617W        W25385   2.333   0.954   3.365
61618W        W25386  35.020  42.973   2.197
61619W        W25387  28.078  40.454   0.895
61620W        W25388  42.835  13.225   2.873
61621W        W25389  18.637   8.778   2.415
61622W        W25390  38.352  27.507   4.636
61623W        W25391  13.349   2.841  13.485
61624W        W25392  31.508  23.052  11.590
61625W        W25393  28.054   2.916   2.695
61626W        W25394  40.941  29.024  12.489
61627W        W25395  10.181   3.382  12.504
61628W        W25396  25.107  18.573  11.398
61629W        W25397  30.928  14.118   9.964
61630W        W25398  25.195  19.726   4.645
61631W        W25399  34.591  32.519   3.748
61632W        W25400  32.450  29.946   3.713
61633W        W25401   1.863  40.486   1.820
61634W        W25402  21.088   5.358  11.021
61635W        W25403  18.583  31.457  12.945
61636W        W25404  35.551   1.795   3.180
61637W        W25405   9.368   2.745   0.290
61638W        W25406  44.824  25.991  11.120
61639W        W25407   9.367  13.766   0.960
61640W        W25408  28.635  24.683   4.159
61641W        W25409  35.016   8.827  12.957
61642W        W25410  13.220  43.869   1.358
61643W        W25411   0.818  13.245  12.451
61644W        W25412  18.726  26.679  14.761
61645W        W25413   4.236  35.977   0.939
61646W        W25414  35.574   4.783  13.411
61647W        W25415   3.723  22.744   1.262
61648W        W25416  28.034  33.122   4.771
61649W        W25417  18.704  41.311  11.125
61650W        W25418   3.217  26.526   3.779
61651W        W25419  23.162  37.527  14.477
61652W        W25420  31.402   7.345   3.693
61653W        W25421  27.581  33.986  13.948
61654W        W25422  28.004  17.700  11.949
61655W        W25423  25.527  11.859  12.864
61656W        W25424   4.449   6.238  13.368
61657W        W25425  44.436  32.611  13.452
61658W        W25426   5.394  33.898  11.477
61659W        W25427  36.378  25.674  12.367
61660W        W25428  39.344  38.947   4.347
61661W        W25429  20.551   5.226   2.226
61662W        W25430   8.741  35.541  10.411
61663W        W25431  22.145  26.036  10.412
61664W        W25432  16.580   5.841   2.263
61665W        W25433  26.675  15.639   3.182
61666W        W25434  10.208  29.946  12.066
61667W        W25435  32.926   5.734   2.675
61668W        W25436  17.118  37.916   2.703
61669W        W25437  11.133   5.848   2.327
61670W        W25438   9.691  32.617  13.880
61671W        W25439   9.781  21.604  10.529
61672W        W25440  18.650  35.602   5.152
61673W        W25441  30.082  28.998   3.364
61674W        W25442  15.586   4.913  13.049
61675W        W25443  11.816  33.963   2.825
61676W        W25444   1.406  10.290  14.928
61677W        W25445  32.009   9.370  14.505
61678W        W25446  18.171  23.593   4.617
61679W        W25447  27.130  16.567  10.549
61680W        W25448  44.763  31.643   4.354
61681W        W25449  40.457  11.660   3.295
61682W        W25450  20.724  22.743  10.450
61683W        W25451   3.383  39.016  14.814
61684W        W25452  41.313  19.547  11.426
61685W        W25453   4.918  11.191  14.307
61686W        W25454  33.433   3.730  10.977
61687W        W25455  29.130  42.892   2.217
61688W        W25456  27.089  12.714  11.958
61689W        W25457  30.520  30.931  12.530
61690W        W25458  18.064  41.822  12.556
61691W        W25459   4.942   2.339   3.314
61692W        W25460  43.328  37.404   5.118
61693W        W25461  36.428  34.097   4.202
61694W        W25462  33.965   2.803   2.190
61695W        W25463   1.868  37.519  13.444
61696W        W25464  17.690  10.303   1.778
61697W        W25465  36.437  37.430  10.420
61698W        W25466  39.971  15.321   0.966
61699W        W25467  15.109   8.868   3.859
61700W        W25468  17.211  44.375   1.279
61701W        W25469  17.184  20.256   2.754
61702W        W25470  35.409  33.089  10.470
61703W        W25471  31.633  29.555  11.419
61704W        W25472  15.142  39.344   1.414
61705W        W25473  33.924  35.601  13.837
61706W        W25474  30.978  28.490  12.094
61707W        W25475  44.798  32.470   3.676
61708W        W25476  27.007  34.552   1.736
61709W        W25477  30.432  24.083   2.281
61710W        W25478  24.701   1.757  12.905
61711W        W25479  36.541  11.181   0.477
61712W        W25480  10.218  19.737  13.382
61713W        W25481  24.553  12.361   3.742
61714W        W25482  24.701  29.929   4.635
61715W        W25483  34.371  39.441   3.168
61716W        W25484  13.726  26.461   1.271
61717W        W25485  11.334  24.629  14.439
61718W        W25486  11.678  44.901  10.563
61719W        W25487   6.302  19.220   3.306
61720W        W25488  40.342  22.227   3.786
61721W        W25489  38.019  31.033  13.030
61722W        W25490  39.473  19.147   0.838
61723W        W25491  13.748  26.643   2.897
61724W        W25492  39.452  43.912  12.884
61725W        W25493   8.791  27.620   3.804
61726W        W25494  22.068  17.573   4.787
61727W        W25495   0.454  31.027  14.471
61728W        W25496  24.064   3.812   3.766
61729W        W25497  31.119   0.491   0.902
61730W        W25498  37.974  17.772  11.008
61731W        W25499  18.646  25.980   4.606
61732W        W25500  30.547  18.668   4.714
61733W        W25501  28.528  17.062  14.390
61734W        W25502  34.983  24.691   2.684
61735W        W25503  10.309  43.987   1.844
61736W        W25504  41.008  25.605   4.314
61737W        W25505  29.442  26.034   1.717
61738W        W25506  14.281  40.313   0.390
61739W        W25507  33.115  23.667   3.293
61740W        W25508  12.267   7.770  11.051
61741W        W25509  18.730   2.965   0.966
61742W        W25510  10.302  27.157   4.717
61743W        W25511   8.869  28.468   3.804
61744W        W25512  21.250  28.988   0.758
61745W        W25513  44.287   0.277  11.537
61746W        W25514  35.021   3.243  10.425
61747W        W25515  43.373  29.654  11.549
61748W        W25516   5.863   1.481   4.785
61749W        W25517  11.325  42.988  13.477
61750W        W25518  40.409   9.804  14.895
61751W        W25519  43.921  11.646   2.897
61752W        W25520  30.021   4.860   3.146
61753W        W25521  13.822  11.270  14.502
61754W        W25522   5.896  16.133  11.009
61755W        W25523  24.136  17.627   3.313
61756W        W25524   2.875  17.142  11.503
61757W        W25525  39.528  36.956   1.822
61758W        W25526   6.832  30.642   1.780
61759W        W25527  18.675   7.791  14.952
61760W        W25528  13.665  39.359   4.737
61761W        W25529   9.707  29.545   2.698
61762W        W25530  35.945   2.409  12.914
61763W        W25531  37.571   6.396  10.135
61764W        W25532  21.664   5.352  11.372
61765W        W25533  28.944   9.151  14.802
61766W        W25534  40.340  21.157  13.820
61767W        W25535   7.197  19.039  11.419
61768W        W25536  42.453   0.757  12.912
61769W        W25537  28.121   5.307  13.933
61770W        W25538  39.406   2.275   3.246
61771W        W25539  11.776   0.357   3.383
61772W        W25540  29.504  14.228  13.823
61773W        W25541  43.499  30.484   4.731
61774W        W25542  29.487  12.853   1.382
61775W        W25543  26.165  29.993   3.792
61776W        W25544  38.570  19.143   1.902
61777W        W25545  26.035   0.444   2.310
61778W        W25546   5.321  15.318  14.408
61779W        W25547  26.668   6.263   1.376
61780W        W25548  39.454   4.254   3.651
61781W        W25549  30.581   3.347  11.487
61782W        W25550  16.209  37.525  12.006
61783W        W25551  39.501  11.775   1.328
61784W        W25552  28.174  28.597   3.632
61785W        W25553  17.648  35.026  13.043
61786W        W25554  28.113   5.779   2.764
61787W        W25555  29.651  37.967   2.270
61788W        W25556  26.544  44.430  12.369
61789W        W25557   5.356  21.575  14.800
61790W        W25558  20.726  31.933   3.266
61791W        W25559  13.808  22.719   4.668
61792W        W25560  27.669  20.655   2.365
61793W        W25561  37.480   2.861   0.395
61794W        W25562  34.494   1.765  11.877
61795W        W25563  21.094   1.822   3.667
61796W        W25564  17.631  35.031  11.954
61797W        W25565  19.568  35.477  14.845
61798W        W25566  16.649  28.532  14.301
61799W        W25567  16.294  30.911   4.232
61800W        W25568   1.846  23.496  11.106
61801W        W25569  26.664  35.053   2.287
61802W        W25570  35.101  42.346  11.409
61803W        W25571  29.930   0.798   0.758
61804W        W25572  30.466   9.689  14.401
61805W        W25573   7.230  19.256  13.935
61806W        W25574  38.977  31.077  14.326
61807W        W25575  25.143  31.488   2.259
61808W        W25576  39.019  21.261   4.697
61809W        W25577  16.658  36.531  12.350
61810W        W25578  21.575  16.193   4.809
61811W        W25579   8.180  10.301  10.415
61812W        W25580   5.795  36.559   2.843
61813W        W25581  39.326   2.293   3.778
61814W        W25582   1.411  20.645  10.445
61815W        W25583  13.813  26.156   3.294
61816W        W25584  22.212   8.828   1.934
61817W        W25585  10.245   6.768  11.571
61818W        W25586   8.802  27.175   3.723
61819W        W25587  11.347  30.552   0.286
61820W        W25588  35.026  15.227  13.411
61821W        W25589  26.171   4.732  14.817
61822W        W25590  25.703   5.258  10.542
61823W        W25591  23.648  20.139   3.652
61824W        W25592   4.208  18.242   1.442
61825W        W25593  29.960   6.359   4.817
61826W        W25594  26.616   7.205  11.950
61827W        W25595  25.104  24.211   3.674
61828W        W25596  27.148  38.974  10.643
61829W        W25597  22.552   9.233   0.317
61830W        W25598  21.140  28.538  13.915
61831W        W25599  37.883  39.831   1.445
61832W        W25600  31.940  28.951   2.857
61833W        W25601   7.838  12.611   4.791
61834W        W25602  16.276  23.186  14.944
61835W        W25603   9.154  23.071   1.876
61836W        W25604   5.918  21.123   0.868
61837W        W25605  20.259  12.856  11.418
61838W        W25606  25.967   3.261   2.403
61839W        W25607  11.767   9.649  13.946
61840W        W25608  44.865   6.910   0.825
61841W        W25609  15.733  31.036   3.271
61842W        W25610  22.647  31.514  13.449
61843W        W25611  17.257   5.815   4.603
61844W        W25612  27.066   8.172   2.785
61845W        W25613  35.930   5.264  11.069
61846W        W25614  38.930  22.237   1.327
61847W        W25615  17.238  24.646   1.796
61848W        W25616  36.533  35.443  11.533
61849W        W25617  37.564  38.905  12.395
61850W        W25618  30.468  14.788  13.052
61851W        W25619   4.895   0.934   0.753
61852W        W25620  16.105   9.240  14.895
61853W        W25621  38.906  42.790   5.245
61854W        W25622  12.263  36.455  12.452
61855W        W25623  24.624  43.864  10.500
61856W        W25624  25.968  27.537  10.981
61857W        W25625  11.365  21.736   2.382
61858W        W25626  16.642   1.369  14.429
61859W        W25627  39.388  34.409  14.309
61860W        W25628  16.209  11.682  10.096
61861W        W25629  16.629  13.658   2.673
61862W        W25630  39.038  16.750  12.936
61863W        W25631  39.324   4.912   2.754
61864W        W25632  27.611  44.851  10.988
61865W        W25633  37.477  13.317   0.811
61866W        W25634  32.141  39.985  14.284
61867W        W25635  15.632  38.843   3.748
61868W        W25636  38.827   6.375   4.738
61869W        W25637  35.949  27.136  14.983
61870W        W25638   0.789  14.699  14.366
61871W        W25639   3.908  17.795  12.425
61872W        W25640  10.656  25.621  14.361
61873W        W25641  38.895  30.548   4.667
61874W        W25642  30.574  16.813   3.726
61875W        W25643  35.533  31.455   0.445
61876W        W25644  36.994   9.188  12.931
61877W        W25645   8.394  34.092  14.936
61878W        W25646  28.162  14.663   4.305
61879W        W25647  21.558  38.047   1.751
61880W        W25648  12.323  18.702   3.658
61881W        W25649  17.616  34.369  14.967
61882W        W25650  35.520  44.303   1.334
61883W        W25651  33.892  39.908   3.234
61884W        W25652  25.997  14.335  12.870
61885W        W25653  28.607  33.960  12.048
61886W        W25654  40.385  43.803   3.176
61887W        W25655  30.601  27.504   1.349
61888W        W25656  10.866  15.785   0.338
61889W        W25657   8.695  42.803  12.086
61890W        W25658  36.063  24.126   0.960
61891W        W25659  36.882   3.447  10.524
61892W        W25660  22.711  13.725  13.916
61893W        W25661  23.136  22.157   0.412
61894W        W25662  10.245  13.248  13.389
61895W        W25663  20.523  16.188   0.307
61896W        W25664  31.472  17.735  14.499
61897W        W25665  15.105  24.705  14.406
61898W        W25666  36.096  31.956  13.387
61899W        W25667  31.514   7.286   2.774
61900W        W25668  15.248  29.972   4.660
61901W        W25669  42.468  19.072  13.984
61902W        W25670  14.296  29.670   2.877
61903W        W25671  43.873  28.510  14.482
61904W        W25672  23.086  43.440   3.817
61905W        W25673  31.406  40.987   1.714
61906W        W25674  19.176  29.533   3.207
61907W        W25675   4.298  17.614  11.989
61908W        W25676   2.248  34.927   3.656
61909W        W25677  12.824  12.142   3.771
61910W        W25678  28.561  17.623   0.474
61911W        W25679  24.573  26.165  11.899
61912W        W25680  38.836  20.621  14.389
61913W        W25681  38.912  34.090   1.695
61914W        W25682   1.329  29.116   2.201
61915W        W25683  22.637  11.824   0.737
61916W        W25684   5.260   3.452  14.867
61917W        W25685  20.124  43.290  10.922
61918W        W25686  34.612   8.898  12.449
61919W        W25687  10.380  35.096   0.280
61920W        W25688  29.552  37.018  12.536
61921W        W25689  11.665  18.279   1.710
61922W        W25690  42.863  28.025   5.172
61923W        W25691  17.659  32.481   1.702
61924W        W25692  15.678  14.192   2.270
61925W        W25693   7.811  29.010   3.372
61926W        W25694  43.447   5.344   3.773
61927W        W25695   3.852  23.666   3.830
61928W        W25696  22.559  32.567   2.764
61929W        W25697  21.561  33.401  11.470
61930W        W25698  28.143  13.215   3.649
61931W        W25699  31.141  14.604   0.273
61932W        W25700   9.349  38.947  13.864
61933W        W25701   1.326  25.169   3.229
61934W        W25702   6.840   9.368  12.096
61935W        W25703  26.558  12.174  12.394
61936W        W25704  16.772   2.447  14.790
61937W        W25705  15.634  33.488  11.532
61938W        W25706  28.003   1.853   1.911
61939W        W25707  38.938  11.679   0.244
61940W        W25708   2.270  26.975   2.410
61941W        W25709  28.143   8.677  13.378
61942W        W25710  36.073  10.371   2.813
61943W        W25711  33.065  41.395  13.412
61944W        W25712  14.251  10.237  10.951
61945W        W25713  10.737  29.533   2.182
61946W        W25714   6.860  21.516  11.375
61947W        W25715   9.868  31.971  11.129
61948W        W25716  28.454  21.679  10.478
61949W        W25717  19.608  30.563   0.957
61950W        W25718  27.052  14.598   4.692
61951W        W25719  32.022  14.177   2.674
61952W        W25720  40.897  38.026   1.395
61953W        W25721  37.379  38.865   3.850
61954W        W25722   2.864  26.151  11.477
61955W        W25723  44.415  34.115   0.950
61956W        W25724  14.816  40.837  13.964
61957W        W25725   6.813  18.211  14.856
61958W        W25726  39.441  30.443   2.383
61959W        W25727   1.291   5.431  12.462
61960W        W25728  33.622   6.839   1.248
61961W        W25729  23.138  21.556  11.957
61962W        W25730  36.019  36.589   1.768
61963W        W25731  12.755  43.442   4.295
61964W        W25732  10.231   5.394  14.828
61965W        W25733  32.402  31.567   2.277
61966W        W25734  32.486  33.877   4.314
61967W        W25735  26.666   3.800  12.409
61968W        W25736   8.176  30.567  11.548
61969W        W25737   5.931  32.463  13.465
61970W        W25738  33.119  18.184  12.946
61971W        W25739  44.947  43.516  13.986
61972W        W25740  16.722  35.106  12.917
61973W        W25741  26.177   8.815   3.358
61974W        W25742   2.864   9.161   4.626
61975W        W25743  25.482  35.442   0.792
61976W        W25744  30.915  41.882  10.408
61977W        W25745  18.255  44.946  12.879
61978W        W25746  28.517  17.217   1.440
61979W        W25747  40.876  29.582   1.755
61980W        W25748  18.630   3.782   4.328
61981W        W25749   8.861   0.350  14.962
61982W        W25750  11.640   5.400  11.034
61983W        W25751  13.663  36.397  13.801
61984W        W25752  39.051   9.888   3.827
61985W        W25753  31.139  44.370   0.874
61986W        W25754  35.066  17.154   5.147
61987W        W25755  41.906  33.098  11.087
61988W        W25756   7.900  40.456   0.938
61989W        W25757  10.716  41.364  12.491
61990W        W25758  41.894   9.340  14.417
61991W        W25759  21.184  37.362   9.984
61992W        W25760  24.712  34.896   9.586
61993W        W25761  15.629  11.774  13.857
61994W        W25762  38.537  24.573   0.911
61995W        W25763  18.185  21.210   3.369
61996W        W25764  13.800  38.947   0.402
61997W        W25765  40.834  29.009   4.254
61998W        W25766  27.461  40.464   0.356
61999W        W25767  14.639  39.348   2.240
62000W        W25768   2.829  38.537   1.215
62001W        W25769  19.095  17.120  14.761
62002W        W25770   8.202  31.043   1.348
62003W        W25771  36.960   1.242  12.351
62004W        W25772  36.397   5.918  14.819
62005W        W25773   9.339  43.319  13.835
62006W        W25774  14.613  43.472  14.900
62007W        W25775   6.260  10.835  11.915
62008W        W25776  43.857  16.633  10.465
62009W        W25777  41.834  42.866   4.189
62010W        W25778   2.399  24.632   2.681
62011W        W25779   2.881  38.424  11.496
62012W        W25780  17.703  42.386   1.394
62013W        W25781  34.593  34.441  12.033
62014W        W25782  33.473  10.730   1.865
62015W        W25783   1.237   9.165   0.732
62016W        W25784  13.755   8.817   2.362
62017W        W25785  29.500  33.436   0.762
62018W        W25786  39.542  39.460  14.026
62019W        W25787  37.030  15.643  13.052
62020W        W25788   1.971  20.098   1.384
62021W        W25789  28.438  41.871   2.742
62022W        W25790  25.683   1.953  10.450
62023W        W25791  17.199  20.200  11.605
62024W        W25792  22.705  34.569   0.810
62025W        W25793  33.973  42.526   0.745
62026W        W25794   1.277  10.846   2.407
62027W        W25795   1.461  27.157   2.419
62028W        W25796  14.798  36.494  12.985
62029W        W25797   8.892   5.231  14.404
62030W        W25798   3.332  27.056  12.401
62031W        W25799   6.212  28.625  12.474
62032W        W25800  39.335  43.418  10.600
62033W        W25801  19.655  43.402   2.887
62034W        W25802  29.666   0.349   0.854
62035W        W25803  16.813  21.659  14.947
62036W        W25804  11.731  22.217  13.933
62037W        W25805  37.396  25.120   3.685
62038W        W25806   4.322  37.559   1.273
62039W        W25807  22.658  35.063   2.717
62040W        W25808  25.587  23.219  12.435
62041W        W25809  16.128  41.789  14.853
62042W        W25810  30.557  40.026   1.741
62043W        W25811  19.224   4.354  14.907
62044W        W25812  23.105  38.850   2.225
62045W        W25813   0.256  14.135   0.476
62046W        W25814  29.168  17.124   4.241
62047W        W25815   5.765   0.869   3.807
62048W        W25816  32.585  44.960  11.894
62049W        W25817  16.722  27.045  13.834
62050W        W25818  22.110  34.511  12.547
62051W        W25819   3.881   4.732  10.941
62052W        W25820  35.047  36.868   0.277
62053W        W25821   0.482  27.021   1.296
62054W        W25822  26.984  32.965   4.321
62055W        W25823   5.296  36.456  13.042
62056W        W25824  35.463   7.854   9.573
62057W        W25825  24.023   8.726   5.262
62058W        W25826  15.197  34.976   0.343
62059W        W25827  38.551  29.025  12.888
62060W        W25828   7.378  23.041  13.446
62061W        W25829  42.974  10.748  10.629
62062W        W25830  35.503  14.665   0.249
62063W        W25831   5.788  42.497  11.939
62064W        W25832  36.956  24.516   1.295
62065W        W25833  24.646  34.965   2.210
62066W        W25834  28.083   8.228  12.912
62067W        W25835  20.152  22.512  12.875
62068W        W25836  26.678  20.741   2.818
62069W        W25837  22.218  42.011  10.571
62070W        W25838   2.925  20.651  13.542
62071W        W25839  16.086  14.632   0.931
62072W        W25840  43.385  34.947  12.557
62073W        W25841   1.249  12.678   0.845
62074W        W25842  11.680  21.098   0.838
62075W        W25843  41.922  31.431  13.424
62076W        W25844  26.557  21.168  12.382
62077W        W25845  44.851  41.487   4.652
62078W        W25846  41.454  35.012   2.384
62079W        W25847  29.006  22.639   4.206
62080W        W25848  11.818   7.729   1.370
62081W        W25849  14.277  44.493  13.892
62082W        W25850  28.052  15.156  14.309
62083W        W25851   3.278  21.686   2.293
62084W        W25852  41.422  39.317   1.239
62085W        W25853  16.591  27.025  10.131
62086W        W25854  28.670  17.802  11.502
62087W        W25855   8.694  14.814   3.239
62088W        W25856  34.453  34.907   1.323
62089W        W25857  17.185  30.934   4.195
62090W        W25858  16.586  15.220  14.963
62091W        W25859  12.168  42.501   3.213
62092W        W25860  37.423  34.551   9.990
62093W        W25861  32.025  44.912   2.400
62094W        W25862  35.521  42.426   0.436
62095W        W25863  41.911   7.295  11.466
62096W        W25864  19.541  16.596  12.427
62097W        W25865   8.703  34.942   0.476
62098W        W25866  17.073  26.105   2.667
62099W        W25867  16.803  38.501   4.207
62100W        W25868  25.611  44.854   1.364
62101W        W25869  15.786  41.818   4.347
62102W        W25870   3.272  42.357  12.073
62103W        W25871  19.645  26.531  12.555
62104W        W25872   5.788  32.073  12.829
62105W        W25873  41.333  38.478  11.054
62106W        W25874  19.545  37.387   2.739
62107W        W25875   4.283  44.929  13.888
62108W        W25876  29.920  27.657  14.929
62109W        W25877  28.050   0.291  11.489
62110W        W25878  17.783   4.874   2.662
62111W        W25879  11.864   5.852  12.076
62112W        W25880  32.453  31.000   0.343
62113W        W25881  21.118  14.113  13.458
62114W        W25882  27.041  43.983   4.835
62115W        W25883  31.469  34.974  14.319
62116W        W25884   8.654  27.095  14.954
62117W        W25885  33.890  40.425  11.987
62118W        W25886  20.146   0.461  11.868
62119W        W25887   1.318  18.196  11.965
62120W        W25888  16.642   6.734  10.998
62121W        W25889  39.041   6.243  12.396
62122W        W25890   3.428  28.436  11.381
62123W        W25891  23.567  20.718  12.578
62124W        W25892  31.052   4.909  11.451
62125W        W25893  32.132  33.990  12.982
62126W        W25894  24.555  23.022   4.767
62127W        W25895  24.043   9.267  12.566
62128W        W25896   8.172   8.682   3.379
62129W        W25897   9.230  25.967   1.865
62130W        W25898  26.106  23.076   4.833
62131W        W25899   1.440   3.824  13.329
62132W        W25900  17.798  27.473   4.293
62133W        W25901  14.185  19.769  14.022
62134W        W25902  24.071   2.416  12.454
62135W        W25903  31.059  37.960  10.645
62136W        W25904  19.592  26.981   1.778
62137W        W25905   2.721  13.253  13.317
62138W        W25906  14.715  36.906   2.807
62139W        W25907  34.370  38.910   0.270
62140W        W25908  30.976  34.871   3.690
62141W        W25909  21.117  35.994  12.444
62142W        W25910  37.889  17.176  14.294
62143W        W25911  19.155   3.252  14.964
62144W        W25912  44.275  17.070  11.494
62145W        W25913  12.674  29.954   3.805
62146W        W25914  20.218  21.233   0.477
62147W        W25915  39.478  20.258  11.869
62148W        W25916  13.312   6.726  14.412
62149W        W25917  32.446  43.340  12.083
62150W        W25918  13.114  32.483   4.237
62151W        W25919   8.303  28.164  13.308
62152W        W25920  37.919  21.191   3.178
62153W        W25921  38.503   5.241   1.807
62154W        W25922   6.840  21.097   4.132
62155W        W25923  36.466  38.536   0.473
62156W        W25924  38.552  43.871  13.818
62157W        W25925  24.214  35.956   0.428
62158W        W25926  24.708  23.493   2.816
62159W        W25927  31.049  24.028   2.767
62160W        W25928  38.026   4.763  14.008
62161W        W25929  34.601  36.949   2.883
62162W        W25930   7.861  38.551   1.315
62163W        W25931  12.171  16.577   2.742
62164W        W25932  22.061  17.799   3.206
62165W        W25933  17.677  10.194   1.355
62166W        W25934  19.203  14.792  12.365
62167W        W25935  10.722   7.731  14.958
62168W        W25936  10.174  42.367   4.700
62169W        W25937  27.668  35.420  10.564
62170W        W25938  37.069  23.631  10.922
62171W        W25939   8.690  29.453  13.983
62172W        W25940  35.916  25.025   2.328
62173W        W25941  40.541  28.462  11.534
62174W        W25942   8.187  14.095  10.890
62175W        W25943   3.830   7.224   3.250
62176W        W25944  23.504  42.441   1.425
62177W        W25945  28.973  26.956   2.369
62178W        W25946  21.081   5.264  12.933
62179W        W25947  33.509  23.649  11.381
62180W        W25948  31.413  44.010  14.964
62181W        W25949  44.373   3.336  11.092
62182W        W25950  35.468  28.078   1.872
62183W        W25951  16.712  30.532  12.508
62184W        W25952  14.721  42.994   4.715
62185W        W25953  39.485  16.109   1.324
62186W        W25954  42.416  41.007  12.034
62187W        W25955  26.122  15.173   3.815
62188W        W25956  26.049  21.147  11.947
62189W        W25957  38.502  30.966  11.407
62190W        W25958   3.894   7.866  14.358
62191W        W25959   2.467  36.570  14.429
62192W        W25960  22.691  26.645   1.867
62193W        W25961  18.212  35.447  10.415
62194W        W25962   7.772  21.654   1.239
62195W        W25963  26.033  20.767   4.289
62196W        W25964  36.971   3.927  13.515
62197W        W25965  39.485   5.743   1.895
62198W        W25966  34.596  27.600  12.420
62199W        W25967   0.340  33.008  11.022
62200W        W25968  20.101  43.388   0.782
62201W        W25969  37.454  34.511  13.912
62202W        W25970  11.132  14.700   4.282
62203W        W25971  30.447   4.795   4.793
62204W        W25972  30.015  37.879  12.952
62205W        W25973   7.869  11.339   0.935
62206W        W25974  36.046   0.439   2.217
62207W        W25975  19.280  14.251  11.459
62208W        W25976  38.901  24.496  14.792
62209W        W25977  16.248  23.676  12.058
62210W        W25978  11.703   1.768  12.445
62211W        W25979  28.164  14.116   9.970
62212W        W25980  37.434  40.937   0.881
62213W        W25981   1.901  32.908   4.264
62214W        W25982  19.759  26.573   3.807
62215W        W25983   7.254  43.505  10.952
62216W        W25984  36.374  20.620  14.842
62217W        W25985  24.054  29.555   0.467
62218W        W25986  32.042  28.471   4.189
62219W        W25987  25.538  30.938   3.206
62220W        W25988  36.850  29.030   1.231
62221W        W25989  37.430  21.080   2.403
62222W        W25990   4.391  13.262   4.212
62223W        W25991  23.092   1.791  11.929
62224W        W25992  23.232  28.167  10.536
62225W        W25993  34.969  10.753   2.336
62226W        W25994   3.398  44.286  14.793
62227W        W25995  27.578   5.248  14.032
62228W        W25996  20.667  18.601  13.936
62229W        W25997  40.838  19.728   2.226
62230W        W25998   7.882  31.551   4.233
62231W        W25999  40.425   0.455   0.370
62232W        W26000  44.387  14.744  11.011
62233W        W26001  40.499  35.855   2.785
62234W        W26002  16.609  19.659   9.951
62235W        W26003  35.543   7.353   5.724
62236W        W26004  11.845  29.960  10.514
62237W        W26005  38.075  15.592  11.026
62238W        W26006  41.466  16.308  11.023
62239W        W26007  23.237  18.068   4.628
62240W        W26008  37.909  27.940  13.882
62241W        W26009   6.406  37.843  10.615
62242W        W26010   7.222  42.384   0.774
62243W        W26011  21.562  39.447  13.795
62244W        W26012  35.875  20.182  12.548
62245W        W26013   6.401  15.194   1.347
62246W        W26014   9.736   6.419  12.494
62247W        W26015  13.797  41.936  10.490
62248W        W26016  29.501  27.979  10.062
62249W        W26017   2.877   4.270   2.189
62250W        W26018   1.898  41.812   4.353
62251W        W26019  39.506  13.619  12.950
62252W        W26020  31.459  14.627  12.351
62253W        W26021  10.704  35.070  14.886
62254W        W26022  40.812   3.780  13.377
62255W        W26023  10.835  37.883   0.292
62256W        W26024  44.967   4.825   4.724
62257W        W26025  22.588   6.277   3.159
62258W        W26026  26.164  27.687   4.133
62259W        W26027  31.531  36.002   4.613
62260W        W26028  24.602  34.417   4.345
62261W        W26029  15.683  25.595  12.524
62262W        W26030   0.408  12.763   1.717
62263W        W26031  32.912  22.192  13.998
62264W        W26032  43.785  30.046  13.403
62265W        W26033  28.038  31.916   0.845
62266W        W26034  16.636   7.226  10.920
62267W        W26035  41.883   2.853   1.717
62268W        W26036  11.268  32.119   3.711
62269W        W26037   4.810  33.889   1.332
62270W        W26038  32.971  42.439  12.380
62271W        W26039  12.126  27.540  11.446
62272W        W26040  11.668  43.496   4.668
62273W        W26041  10.154  32.944   0.453
62274W        W26042   7.826  17.565   1.382
62275W        W26043  29.550  35.997  14.838
62276W        W26044  29.932   9.773   3.197
62277W        W26045  14.100   8.358   2.900
62278W        W26046  29.040  35.486   0.918
62279W        W26047  38.413  28.066  14.410
62280W        W26048  17.268  43.377   1.433
62281W        W26049  25.710  14.185   1.276
62282W        W26050  19.193  30.567   1.373
62283W        W26051  42.300  27.175   3.303
62284W        W26052  17.778  27.468  11.124
62285W        W26053   5.288  20.587  12.430
62286W        W26054   1.841  29.648   5.268
62287W        W26055  33.517  32.934   1.855
62288W        W26056  11.219  17.125   4.802
62289W        W26057  39.894   1.935  10.482
62290W        W26058  27.557   7.905   4.630
62291W        W26059   9.359  41.945   3.222
62292W        W26060  36.492  39.418  12.947
62293W        W26061  41.835  28.674   2.364
62294W        W26062  26.157  22.565  12.938
62295W        W26063   9.646  23.712   0.376
62296W        W26064  44.365  42.410   1.736
62297W        W26065  22.721   4.324   4.334
62298W        W26066  24.680   3.273  13.951
62299W        W26067  18.169  39.501  13.908
62300W        W26068  20.690  28.107  11.399
62301W        W26069  40.940   7.891  11.566
62302W        W26070  28.983  15.813  14.977
62303W        W26071  34.395  28.658  12.861
62304W        W26072  40.948  35.392  13.975
62305W        W26073  41.041  10.740   0.247
62306W        W26074  10.794   7.832  13.544
62307W        W26075   5.849  43.804   0.464
62308W        W26076  43.903   6.698   3.245
62309W        W26077  19.225   3.360  12.539
62310W        W26078  33.550   1.414  11.510
62311W        W26079   4.896   5.755  12.370
62312W        W26080  38.831  41.827  14.922
62313W        W26081  13.286  40.468  13.845
62314W        W26082  23.623  35.424   5.249
62315W        W26083  30.539  12.361  12.065
62316W        W26084  38.485  18.585  13.967
62317W        W26085   4.340  37.564   0.907
62318W        W26086  10.694  23.221  11.557
62319W        W26087  32.474  19.721  14.502
62320W        W26088  36.512  22.149  14.381
62321W        W26089  32.489   7.226   1.870
62322W        W26090  18.724  21.703  12.841
62323W        W26091  24.641  12.845  12.407
62324W        W26092  22.661  19.776  13.511
62325W        W26093  28.434  32.530  12.370
62326W        W26094  41.945  33.384  10.484
62327W        W26095  32.590  34.600  12.010
62328W        W26096  44.845  38.348  14.893
62329W        W26097  15.267  40.441   2.750
62330W        W26098  27.630  22.548   0.384
62331W        W26099  14.219  16.237  12.075
62332W        W26100  41.794  37.921   1.423
62333W        W26101  28.610  18.139   1.331
62334W        W26102   7.376  24.568   0.882
62335W        W26103  17.689  16.288  14.827
62336W        W26104  43.315  17.712   4.684
62337W        W26105  30.086  37.440   4.677
62338W        W26106  25.058  18.111   2.841
62339W        W26107   4.287  24.149  14.809
62340W        W26108  41.297  38.866  12.042
62341W        W26109  42.286  31.592  14.993
62342W        W26110  26.952   7.174  10.541
62343W        W26111  26.621  14.815   2.798
62344W        W26112   3.350   0.968   1.371
62345W        W26113   8.879  15.731   4.328
62346W        W26114   1.865   3.835  14.825
62347W        W26115   1.765  33.131   1.348
62348W        W26116  41.970  34.968  13.003
62349W        W26117  42.878  32.581  14.789
62350W        W26118  26.026  21.148  13.516
62351W        W26119   1.852   8.697  10.485
62352W        W26120  25.966  24.991   3.170
62353W        W26121  16.208  26.952  12.512
62354W        W26122  40.399  27.083  11.436
62355W        W26123   3.372   8.164  14.338
62356W        W26124  31.594  42.819   0.886
62357W        W26125  36.054  20.711   1.841
62358W        W26126   3.459   3.919  11.993
62359W        W26127  31.990  28.508  11.589
62360W        W26128  18.147  25.692  14.327
62361W        W26129  15.233  25.504   3.266
62362W        W26130  15.713   7.694  12.866
62363W        W26131   0.365  21.751   0.819
62364W        W26132  11.132   1.946  13.064
62365W        W26133  20.564  23.579   3.654
62366W        W26134  38.441  24.075   4.658
62367W        W26135  16.584  21.580   4.260
62368W        W26136  20.672  19.755   1.802
62369W        W26137  25.128  15.165  11.416
62370W        W26138  39.372  41.808   1.439
62371W        W26139  33.534  29.139  12.392
62372W        W26140  10.144  27.515  13.959
62373W        W26141   5.210  34.562  14.949
62374W        W26142   8.776  17.253   3.284
62375W        W26143  15.814  44.007   4.274
62376W        W26144   6.352   2.933   2.879
62377W        W26145  44.456  15.713   0.908
62378W        W26146  22.547   2.262  11.544
62379W        W26147  37.459  22.045   3.639
62380W        W26148  42.291  22.168   0.272
62381W        W26149  25.652  41.797  11.483
62382W        W26150  42.312  43.477  14.443
62383W        W26151  18.072  37.556   1.370
62384W        W26152  22.734  43.358  11.449
62385W        W26153  22.720  25.483   4.236
62386W        W26154  34.428  17.623  11.049
62387W        W26155   3.894   2.336  10.406
62388W        W26156  42.352  17.633   4.188
62389W        W26157  32.984  33.939  11.024
62390W        W26158  29.594  19.258  13.392
62391W        W26159  25.469  27.505  12.536
62392W        W26160  35.595  34.441   4.818
62393W        W26161  31.121   4.417  14.441
62394W        W26162  31.516  20.186   1.437
62395W        W26163  32.136  34.608   1.303
62396W        W26164   6.313   0.276   2.404
62397W        W26165  40.451  27.973   0.785
62398W        W26166  14.820  34.459   2.398
62399W        W26167  20.197  38.827  10.996
62400W        W26168  44.773   1.276   3.784
62401W        W26169  30.128   6.814  14.385
62402W        W26170  39.349  31.424   1.210
62403W        W26171  14.741   2.465   3.816
62404W        W26172  14.103  25.185   5.185
62405W        W26173  24.005  27.468  14.777
62406W        W26174   3.376  38.897  14.510
62407W        W26175  18.157  18.677  14.483
62408W        W26176  11.625  13.603  10.512
62409W        W26177  35.007  14.273  13.414
62410W        W26178   0.877   8.214   3.381
62411W        W26179  26.464  25.988   0.396
62412W        W26180  11.352  21.580   3.699
62413W        W26181   1.876  28.616   0.827
62414W        W26182  15.687  20.250  13.382
62415W        W26183  40.043  28.488   1.299
62416W        W26184  18.098  33.957   1.930
62417W        W26185  23.671  44.838  11.374
62418W        W26186   4.223   2.400   0.923
62419W        W26187  44.922  44.760  11.537
62420W        W26188   7.246   9.825  11.878
62421W        W26189  17.578  12.713   2.364
62422W        W26190  14.130   3.314   2.386
62423W        W26191   6.366  14.296   3.256
62424W        W26192  21.665  26.579  14.004
62425W        W26193   7.795   9.865  11.572
62426W        W26194  24.551   4.346  12.870
62427W        W26195  13.762  40.892   4.742
62428W        W26196  19.159   7.215  14.870
62429W        W26197  19.159  26.479   2.744
62430W        W26198  44.350  23.538  11.465
62431W        W26199  22.710  21.218  14.794
62432W        W26200  43.940  15.713   4.814
62433W        W26201   2.380  23.180  13.799
62434W        W26202  39.859  19.588   2.217
62435W        W26203  42.526  28.453  11.933
62436W        W26204  20.269  21.172  14.815
62437W        W26205  33.950  10.676   0.744
62438W        W26206  25.995  15.800   4.688
62439W        W26207  29.004  42.785   4.252
62440W        W26208  23.142  29.627   1.341
62441W        W26209  19.566   5.422   4.198
62442W        W26210  20.685  12.325  14.288
62443W        W26211  23.207  14.310   2.855
62444W        W26212  32.032  25.077  14.280
62445W        W26213  19.151  36.558   9.649
62446W        W26214  34.578   9.679   4.621
62447W        W26215  21.032  43.415   2.249
62448W        W26216   9.852  38.541  10.610
62449W        W26217  31.497  11.661  10.586
62450W        W26218  23.526  20.710   3.758
62451W        W26219   0.891  27.198  13.514
62452W        W26220   1.402   9.338   1.310
62453W        W26221  22.151  42.978  12.038
62454W        W26222  18.688  42.961   3.642
62455W        W26223  27.189   0.318  13.391
62456W        W26224  10.825  15.763   1.372
62457W        W26225  31.087  33.544  12.495
62458W        W26226  43.946  30.643  10.424
62459W        W26227  22.119   8.763   0.942
62460W        W26228  15.672   1.740   4.694
62461W        W26229  35.540  11.306  13.990
62462W        W26230  43.829  32.451  10.896
62463W        W26231   1.944  39.450  14.392
62464W        W26232  30.030  44.799  11.069
62465W        W26233  35.575  30.094  13.358
62466W        W26234  32.454  41.302  11.978
62467W        W26235  44.495  24.552  11.990
62468W        W26236  14.229  24.160   1.247
62469W        W26237  33.393  34.440  12.936
62470W        W26238  17.627   9.670  14.991
62471W        W26239  11.189  24.681  12.920
62472W        W26240   5.827  32.561  14.308
62473W        W26241  40.952  10.715   4.331
62474W        W26242  41.919  20.767  12.492
62475W        W26243  23.540  40.998   4.732
62476W        W26244  20.220   1.314   3.675
62477W        W26245  10.192  17.795   0.311
62478W        W26246   6.397  26.599   3.286
62479W        W26247  31.129  12.271  14.414
62480W        W26248  42.521  16.191  14.848
62481W        W26249  35.360  11.134  10.486
62482W        W26250  11.229  35.078  13.465
62483W        W26251   2.375  41.347   1.932
62484W        W26252  11.683  43.931  13.868
62485W        W26253   1.894   2.349  14.336
62486W        W26254   3.427  20.074  14.943
62487W        W26255  28.984  28.059   1.747
62488W        W26256  36.069  39.871  13.875
62489W        W26257  16.108  28.970   0.815
62490W        W26258  38.961  32.491   1.720
62491W        W26259  33.536  39.474   4.203
62492W        W26260   3.233  27.194  14.998
62493W        W26261   6.215  32.066  10.981
62494W        W26262  20.524  14.341  12.408
62495W        W26263  28.979  28.134  12.526
62496W        W26264   6.829  39.895   0.782
62497W        W26265   1.476   8.723  12.370
62498W        W26266   7.336  24.162  10.492
62499W        W26267  27.530  34.471  13.483
62500W        W26268   3.394  39.334   3.805
62501W        W26269   4.772   5.834  12.064
62502W        W26270  20.062   5.266   4.758
62503W        W26271  34.907  26.523   2.753
62504W        W26272   3.351  19.692  13.849
62505W        W26273  20.679  19.737   4.262
62506W        W26274   8.357  18.548  14.765
62507W        W26275  26.684  33.505   3.810
62508W        W26276   0.810   9.330  13.537
62509W        W26277   1.816  38.405  14.825
62510W        W26278  40.501  17.622   2.888
62511W        W26279  41.464  18.141   2.278
62512W        W26280  39.334   3.343  10.471
62513W        W26281  40.839  35.019   1.818
62514W        W26282   5.740   8.740  14.440
62515W        W26283   3.289  20.658   0.392
62516W        W26284  33.451  34.064   4.215
62517W        W26285  18.753  21.727   0.337
62518W        W26286  20.077   8.881   2.864
62519W        W26287  14.630   9.171  11.592
62520W        W26288  25.660   4.819  11.507
62521W        W26289  20.766   5.383   3.793
62522W        W26290  30.107  39.415   1.890
62523W        W26291  22.614  31.404   2.674
62524W        W26292  33.428   3.877  12.511
62525W        W26293  23.991  28.641  14.359
62526W        W26294  42.983  42.480  11.067
62527W        W26295  24.682  38.349   2.211
62528W        W26296  17.243  44.481  14.416
62529W        W26297  26.959  26.952   0.411
62530W        W26298   7.696  25.103   0.421
62531W        W26299   4.874  19.693  14.461
62532W        W26300  41.384  14.135  13.907
62533W        W26301  10.636  15.668   2.762
62534W        W26302  12.182  38.488  11.588
62535W        W26303  41.460  44.896   4.602
62536W        W26304   2.723   1.447   0.740
62537W        W26305  37.957  16.632  14.980
62538W        W26306  17.787  41.954   4.641
62539W        W26307  31.607  28.184  14.370
62540W        W26308  42.477  24.128   1.358
62541W        W26309  41.929  24.574   4.794
62542W        W26310  20.197   6.854  14.384
62543W        W26311  38.928  18.294  11.054
62544W        W26312  30.947  10.380  12.976
62545W        W26313  31.463  18.562  13.447
62546W        W26314  33.014   0.974  13.957
62547W        W26315   6.683  13.333   3.269
62548W        W26316  36.940   5.230  13.453
62549W        W26317  30.009  20.132   2.856
62550W        W26318  12.143  30.996   4.642
62551W        W26319  28.042  24.589  13.541
62552W        W26320  41.447  27.059   3.701
62553W        W26321  22.519  12.224   0.768
62554W        W26322  33.040  34.115   1.754
62555W        W26323  40.346  15.120   3.382
62556W        W26324  43.019  29.602  14.482
62557W        W26325  24.008  30.089  14.482
62558W        W26326   4.337  38.502   0.322
62559W        W26327  33.508  11.234   3.784
62560W        W26328  16.195  22.007  10.567
62561W        W26329  43.357  39.032  10.998
62562W        W26330  43.006  41.824   4.698
62563W        W26331  18.151  20.231   9.998
62564W        W26332  14.829  12.738  13.451
62565W        W26333   8.355  14.122  12.359
62566W        W26334  23.699  16.287  11.436
62567W        W26335  30.038   5.882  11.048
62568W        W26336  19.716  29.076  14.429
62569W        W26337  32.633  17.229   4.721
62570W        W26338   9.658  12.337   3.325
62571W        W26339  12.760  20.228  13.373
62572W        W26340  30.009  16.786   5.650
62573W        W26341  22.126  12.209   5.671
62574W        W26342  29.038  42.461  13.973
62575W        W26343  36.515  14.817   4.333
62576W        W26344   6.287   7.734  13.507
62577W        W26345  22.549  15.791   2.740
62578W        W26346  26.683   6.319  10.638
62579W        W26347  19.713  42.415   3.348
62580W        W26348  17.095  26.623   2.412
62581W        W26349  17.184  41.523  14.410
62582W        W26350  27.971  16.086  12.053
62583W        W26351   3.761  39.017   3.665
62584W        W26352  34.915  12.736  14.893
62585W        W26353  26.513   2.400   2.860
62586W        W26354   2.435  34.450   0.381
62587W        W26355  18.068  22.075   2.311
62588W        W26356  25.518  31.049   4.598
62589W        W26357   7.379  26.624   4.706
62590W        W26358  38.380  28.558   9.511
62591W        W26359   3.913  39.378  12.025
62592W        W26360   0.935  20.250   2.192
62593W        W26361  14.611  41.394   4.794
62594W        W26362  38.049  21.203  10.907
62595W        W26363  16.204  10.791  11.445
62596W        W26364  34.093  36.063   4.708
62597W        W26365  31.900  26.048   9.939
62598W        W26366  32.538  30.924  11.609
62599W        W26367  42.306  34.532   1.764
62600W        W26368  37.373  38.386   0.314
62601W        W26369  30.052  25.058  13.846
62602W        W26370  41.795  29.614  12.438
62603W        W26371  24.593  18.072  10.969
62604W        W26372  30.659   8.269   2.377
62605W        W26373   5.305  29.551  13.346
62606W        W26374  25.050   4.420   4.317
62607W        W26375  15.160  20.702   2.394
62608W        W26376  14.201  20.242  11.433
62609W        W26377   2.736  25.529   0.831
62610W        W26378   1.791  30.518  13.008
62611W        W26379  11.863   7.757   4.244
62612W        W26380  43.436   8.241   2.416
62613W        W26381  28.972  12.304  13.489
62614W        W26382  10.215  22.059   2.273
62615W        W26383   5.266   8.164   2.688
62616W        W26384   5.900  28.605   0.282
62617W        W26385  39.345  33.522   0.471
62618W        W26386   5.353  30.625  13.057
62619W        W26387  13.765  34.497   1.357
62620W        W26388   9.261  20.523  11.948
62621W        W26389   0.418  30.620   0.961
62622W        W26390  18.610  26.002  11.002
62623W        W26391  25.983  22.079  11.096
62624W        W26392  11.238  26.135  11.989
62625W        W26393  40.542  22.619  10.020
62626W        W26394   2.722  29.531   4.159
62627W        W26395  20.754  15.783  12.055
62628W        W26396  33.119  26.085  13.980
62629W        W26397   2.933   5.689   3.682
62630W        W26398   2.234  13.743   3.763
62631W        W26399  12.761  30.033  11.454
62632W        W26400   9.384  22.618  13.426
62633W        W26401   2.945  39.058  13.332
62634W        W26402  20.755  31.900  14.366
62635W        W26403   8.381  19.065   4.727
62636W        W26404  19.261  30.493   3.631
62637W        W26405  16.292  44.498  10.592
62638W        W26406  14.335  22.079   4.179
62639W        W26407  30.620   0.917   4.717
62640W        W26408  14.806  23.002   0.261
62641W        W26409  11.709   6.703   2.794
62642W        W26410   2.456  29.152   0.465
62643W        W26411  36.399  34.071  10.575
62644W        W26412  23.698  43.281  11.383
62645W        W26413  29.035  38.392  11.922
62646W        W26414  43.893  17.221  12.488
62647W        W26415  26.468   4.939   5.202
62648W        W26416   0.865  38.341   5.115
62649W        W26417   9.766  41.302  13.860
62650W        W26418   0.262  18.253   3.276
62651W        W26419  11.214  11.361   0.443
62652W        W26420  24.642  25.059   1.242
62653W        W26421  43.777  19.064  12.942
62654W        W26422  13.219  15.176  14.394
62655W        W26423   9.802  37.491   1.891
62656W        W26424  38.444  38.833  13.969
62657W        W26425   0.468  23.153  10.981
62658W        W26426  16.108  39.316   2.733
62659W        W26427  36.424  32.062  13.969
62660W        W26428  14.300  11.829   9.609
62661W        W26429  28.509  24.116   3.183
62662W        W26430  13.170   9.266   2.843
62663W        W26431  35.919  31.004   2.262
62664W        W26432  12.652   3.331  12.066
62665W        W26433  17.595  41.307  14.951
62666W        W26434  27.959   6.206   2.752
62667W        W26435  24.123  28.172  13.440
62668W        W26436   0.804  34.460   0.407
62669W        W26437   9.866   4.306   3.772
62670W        W26438   2.349  19.081  10.435
62671W        W26439   1.932  15.678  11.387
62672W        W26440  42.839  10.320   4.707
62673W        W26441  36.890  24.607  11.483
62674W        W26442   8.779  44.303  11.540
62675W        W26443   0.313  27.547   4.636
62676W        W26444  25.085  35.086  13.529
62677W        W26445  30.568  26.671  11.011
62678W        W26446  41.334   0.821  13.044
62679W        W26447   2.428  34.066   4.655
62680W        W26448   2.376  12.275  11.402
62681W        W26449  31.945  44.789  12.077
62682W        W26450  16.794  20.640  10.974
62683W        W26451  27.674  12.244  11.977
62684W        W26452  23.994  42.777  13.904
62685W        W26453  43.367  42.870  10.460
62686W        W26454   0.351  25.172   0.860
62687W        W26455  38.979  30.947   2.738
62688W        W26456  35.044   6.828  11.041
62689W        W26457  34.425  41.365  13.024
62690W        W26458   5.746   6.745  12.883
62691W        W26459   9.688  29.006   0.375
62692W        W26460  34.053  31.630   2.334
62693W        W26461  42.356  27.604   4.123
62694W        W26462  29.625   8.884  11.106
62695W        W26463   6.278  30.935   0.285
62696W        W26464  43.395  13.234   3.334
62697W        W26465  28.007  24.019  13.531
62698W        W26466   5.845  21.688   2.727
62699W        W26467  11.294  21.104  13.802
62700W        W26468   2.768  12.650  10.970
62701W        W26469  37.553   4.369  10.159
62702W        W26470   9.719  19.138  14.799
62703W        W26471   5.230   4.838   4.249
62704W        W26472   3.269  42.505   0.327
62705W        W26473  38.020  36.096   1.423
62706W        W26474  41.031  13.720   2.306
62707W        W26475  21.687   4.843   2.371
62708W        W26476  17.203  12.727  13.450
62709W        W26477  29.008  35.535  14.987
62710W        W26478  38.368  37.986   0.276
62711W        W26479  18.213   2.385  10.622
62712W        W26480  38.388  35.877  10.622
62713W        W26481  34.532   2.415  13.912
62714W        W26482  28.076   2.330   3.762
62715W        W26483   3.327  31.584  11.459
62716W        W26484  16.597  12.695  12.896
62717W        W26485  34.601  33.390   4.235
62718W        W26486  15.704  29.010  13.503
62719W        W26487  34.602  29.081   4.281
62720W        W26488  14.295  43.019  11.000
62721W        W26489   1.885   8.818  14.482
62722W        W26490   7.677  14.202  13.403
62723W        W26491   1.738  23.584   0.447
62724W        W26492  44.890  23.633   3.655
62725W        W26493  40.312   7.208  12.437
62726W        W26494  22.645  43.884  14.463
62727W        W26495  39.883  23.046  11.422
62728W        W26496   7.365  26.145  12.518
62729W        W26497  12.831  28.528  11.124
62730W        W26498  34.988  38.985   3.635
62731W        W26499  12.128  42.374  14.806
62732W        W26500  15.718  39.814  14.463
62733W        W26501  21.133   9.387  14.019
62734W        W26502  23.657  35.473  13.476
62735W        W26503  37.949  29.122   4.801
62736W        W26504  22.544   2.794  12.884
62737W        W26505  20.680  26.149   4.211
62738W        W26506  11.668  42.365  14.018
62739W        W26507  10.689  29.045  11.046
62740W        W26508  32.601   2.416   3.188
62741W        W26509   8.176   2.258  13.369
62742W        W26510  23.019  11.242  13.864
62743W        W26511  32.517  19.564   3.649
62744W        W26512  34.931   4.294   4.759
62745W        W26513  32.407  38.468  12.522
62746W        W26514   7.890   1.947  13.873
62747W        W26515  41.854  39.036   2.772
62748W        W26516  37.447  27.144  12.413
62749W        W26517   7.666  38.968  12.339
62750W        W26518  22.112  39.809   1.218
62751W        W26519  20.118  36.053   4.674
62752W        W26520  29.643  37.869  13.891
62753W        W26521   4.236  38.347  14.482
62754W        W26522   0.825   2.915  14.020
62755W        W26523  11.281  12.202   0.479
62756W        W26524  25.984   4.263   1.318
62757W        W26525  19.106  36.400  11.484
62758W        W26526   2.840   5.835   0.326
62759W        W26527  26.182  33.901   1.833
62760W        W26528  16.572  39.056  14.994
62761W        W26529  14.785  13.813  13.366
62762W        W26530  36.091  29.945  13.381
62763W        W26531  14.737  25.628   3.728
62764W        W26532   3.809  41.422   4.277
62765W        W26533  37.429  32.591   4.148
62766W        W26534  43.475  23.189   2.859
62767W        W26535   2.334  24.979   0.928
62768W        W26536   6.763   4.856   2.853
62769W        W26537  16.149  36.403  12.552
62770W        W26538  25.654  15.283   1.294
62771W        W26539  14.153   5.759   0.864
62772W        W26540  19.113   1.794   4.118
62773W        W26541  22.141  44.496   1.330
62774W        W26542  19.213  34.998   2.243
62775W        W26543  18.759   9.260   0.811
62776W        W26544   1.767  33.036   0.757
62777W        W26545  10.233  33.933  12.970
62778W        W26546  18.054  43.301   4.268
62779W        W26547  12.741   3.410   3.196
62780W        W26548  30.002  37.067   2.665
62781W        W26549  37.370  17.239   0.326
62782W        W26550   8.245  15.138   3.660
62783W        W26551  32.964  27.604   1.386
62784W        W26552  40.493  14.273   1.447
62785W        W26553  17.581  35.905   4.315
62786W        W26554  11.167  30.565   2.820
62787W        W26555  28.009  14.754   2.759
62788W        W26556   0.784  36.041   0.377
62789W        W26557   4.218   1.344   4.141
62790W        W26558  38.555   7.871   1.292
62791W        W26559  21.044  29.438  11.069
62792W        W26560   4.364  32.050   0.793
62793W        W26561  18.152   7.819  12.412
62794W        W26562  30.958  36.590   0.931
62795W        W26563  34.509  35.938   0.251
62796W        W26564  16.662  28.099   0.862
62797W        W26565  10.330   4.780  10.520
62798W        W26566  24.594   1.784  14.019
62799W        W26567   9.169   8.178   2.737
62800W        W26568   0.752  15.128  14.314
62801W        W26569   0.320  20.609  11.410
62802W        W26570  11.175  28.165   4.319
62803W        W26571   1.878   9.212   1.237
62804W        W26572  42.976   9.305  13.311
62805W        W26573  26.561  15.586  12.960
62806W        W26574   5.805  20.769   4.815
62807W        W26575  19.598  30.532   1.222
62808W        W26576  17.191   1.391   4.740
62809W        W26577  21.610  19.172   1.788
62810W        W26578  18.168  28.477  12.033
62811W        W26579  16.683  31.545   2.779
62812W        W26580  14.780  13.144  14.783
62813W        W26581  11.174   9.655   9.540
62814W        W26582  23.587  20.090   4.201
62815W        W26583  17.583  26.038   1.854
62816W        W26584  30.058  38.926  12.573
62817W        W26585  38.955   4.738   3.353
62818W        W26586  42.350  19.538  11.061
62819W        W26587  23.181  24.110  14.024
62820W        W26588  26.571  35.439  14.950
62821W        W26589  27.948  40.023   0.903
62822W        W26590   1.445  28.679   4.692
62823W        W26591  18.570  35.942  11.592
62824W        W26592  22.100   4.897  11.867
62825W        W26593  24.100  19.714   4.257
62826W        W26594  21.739  11.275   2.682
62827W        W26595   9.302  25.182   2.840
62828W        W26596   3.909  16.696   0.840
62829W        W26597  35.556   1.918  13.832
62830W        W26598  42.957  29.612   4.670
62831W        W26599   5.279  24.708   0.260
62832W        W26600   4.426  12.680  14.358
62833W        W26601   2.839  10.860  12.943
62834W        W26602  14.337  28.566  13.434
62835W        W26603  38.877   2.317  10.458
62836W        W26604  19.741  26.989  11.375
62837W        W26605   7.710  41.847   3.753
62838W        W26606  27.506  30.925   3.348
62839W        W26607   2.728  19.534   4.146
62840W        W26608   9.650  16.777  14.807
62841W        W26609  10.231  30.058   2.843
62842W        W26610  24.025  25.597  14.421
62843W        W26611   5.427  39.333   4.290
62844W        W26612  44.787  32.930  11.968
62845W        W26613   4.257   7.213  12.990
62846W        W26614  24.112  35.460   5.143
62847W        W26615  35.008   5.752   0.912
62848W        W26616  13.175  25.052   1.335
62849W        W26617  42.825   9.722  13.437
62850W        W26618  42.003  43.797  11.865
62851W        W26619  40.954  36.869   4.166
62852W        W26620  26.639  11.329   9.927
62853W        W26621   4.700  26.120   0.330
62854W        W26622  38.368  37.482  13.914
62855W        W26623  12.612   6.230  13.862
62856W        W26624  42.866  21.230   3.314
62857W        W26625  35.441   8.165   1.353
62858W        W26626  41.794  26.201  11.506
62859W        W26627  38.981  11.758  14.892
62860W        W26628  13.625  40.474  12.363
62861W        W26629  43.305   5.256  12.902
62862W        W26630   1.894  44.767  11.409
62863W        W26631  22.558   1.273  14.337
62864W        W26632  36.022  38.012  14.280
62865W        W26633  40.954  24.554  12.066
62866W        W26634   2.388  38.419   1.926
62867W        W26635  22.634   7.902  13.973
62868W        W26636  24.708  31.123   0.889
62869W        W26637   3.283   2.231  10.591
62870W        W26638  20.633  24.590   1.872
62871W        W26639  29.167  31.421  13.348
62872W        W26640   0.919   5.303  10.452
62873W        W26641  35.388  33.887  10.979
62874W        W26642  18.085   8.326  11.424
62875W        W26643  21.051   3.860  12.391
62876W        W26644  24.545   9.756  11.107
62877W        W26645  12.322  29.652  14.843
62878W        W26646   9.187  44.475   4.265
62879W        W26647  31.058  19.039   3.826
62880W        W26648  24.004  24.987  13.472
62881W        W26649  43.933  25.695   2.358
62882W        W26650  34.924  14.235  14.392
62883W        W26651  13.323  36.422   0.931
62884W        W26652  17.120   0.823   2.869
62885W        W26653   1.884   6.809  13.908
62886W        W26654  32.943  23.520  11.981
62887W        W26655   8.659  19.127   0.285
62888W        W26656  14.193  17.070   4.707
62889W        W26657  23.650  24.183  12.469
62890W        W26658  44.332   2.864  12.504
62891W        W26659  25.186   6.795  12.900
62892W        W26660  30.624   2.411   3.149
62893W        W26661  17.277  18.621   4.149
62894W        W26662  27.637  28.451  14.872
62895W        W26663  40.415  24.011   5.167
62896W        W26664  27.042  44.388   4.211
62897W        W26665  19.126  31.988   2.310
62898W        W26666  30.530  39.517  10.506
62899W        W26667  43.962  36.523  13.370
62900W        W26668   8.216  42.818   2.770
62901W        W26669   5.905  33.432   4.319
62902W        W26670  35.103  25.521   1.259
62903W        W26671  38.822  39.854  11.962
62904W        W26672   2.340  18.060   1.931
62905W        W26673  12.626   6.378   2.330
62906W        W26674  12.347   1.325   3.695
62907W        W26675   9.172  32.953   3.291
62908W        W26676  44.317  28.518   3.809
62909W        W26677  36.589  37.040  12.517
62910W        W26678  24.196  26.633  13.930
62911W        W26679   5.222  39.544  14.307
62912W        W26680  28.612  36.069  13.045
62913W        W26681  21.698  21.650   2.205
62914W        W26682  34.513  42.855  12.900
62915W        W26683  12.730  33.111  11.044
62916W        W26684  14.694  24.709  10.536
62917W        W26685  13.153  10.877   4.633
62918W        W26686  29.022   4.793   4.334
62919W        W26687  15.618  44.503   1.896
62920W        W26688  14.696  32.980  12.836
62921W        W26689   5.370   4.234  13.529
62922W        W26690  17.191  11.730  11.451
62923W        W26691  15.161  20.545   1.757
62924W        W26692  27.634  38.886   1.253
62925W        W26693  11.648  39.526   3.380
62926W        W26694   3.347  36.929   0.386
62927W        W26695  38.510  44.417   1.695
62928W        W26696   1.327  18.722  12.580
62929W        W26697   7.184  20.198   1.842
62930W        W26698  24.120  17.689  10.636
62931W        W26699  27.047  29.064  10.468
62932W        W26700  13.735  20.618   2.384
62933W        W26701  15.182  22.197  10.123
62934W        W26702  38.885  43.838   0.308
62935W        W26703   4.225  30.601  14.895
62936W        W26704   0.818   4.267  14.021
62937W        W26705   0.830   5.395   4.831
62938W        W26706  39.940  14.261   3.852
62939W        W26707  40.512  32.973   1.694
62940W        W26708  32.986  23.706  11.011
62941W        W26709  37.459  29.600  11.466
62942W        W26710   8.342  40.414   1.815
62943W        W26711  28.169   5.903  11.596
62944W        W26712  43.973  28.960   1.246
62945W        W26713   5.847   9.204  14.928
62946W        W26714   4.765  37.909   3.381
62947W        W26715  40.046  11.198  13.506
62948W        W26716  41.036  29.525   2.346
62949W        W26717  33.578  28.004  13.063
62950W        W26718  38.825   3.743   3.868
62951W        W26719  39.954   5.378   4.793
62952W        W26720  22.224  10.732   3.316
62953W        W26721  13.326  25.588  12.388
62954W        W26722  16.600   2.953   3.239
62955W        W26723   6.332  13.724   1.849
62956W        W26724  40.828  18.224   0.479
62957W        W26725  17.757  29.962  11.444
62958W        W26726   2.348  38.374   1.246
62959W        W26727  14.135  18.223   2.236
62960W        W26728  25.649  14.098  13.951
62961W        W26729  33.113  20.066   9.544
62962W        W26730  34.097  32.438   0.752
62963W        W26731  29.584  13.753   0.396
62964W        W26732  15.240  30.108  14.419
62965W        W26733  11.323  41.503  12.435
62966W        W26734   8.716   8.406   1.758
62967W        W26735  19.094   8.312  10.420
62968W        W26736  34.011  38.982  14.335
62969W        W26737  36.909   0.339   0.440
62970W        W26738  19.645  30.638   3.251
62971W        W26739  33.083  22.081  11.432
62972W        W26740  10.782  29.554   1.214
62973W        W26741  15.664  18.774  12.030
62974W        W26742  20.201  11.288   2.418
62975W        W26743  14.336  14.670  11.975
62976W        W26744  44.300  36.941   2.890
62977W        W26745  42.781  22.034   4.290
62978W        W26746  35.067  39.876  12.374
62979W        W26747  17.777  31.515  13.450
62980W        W26748   2.309  43.001   5.272
62981W        W26749  39.404  44.993  12.365
62982W        W26750  27.177   3.413   2.262
62983W        W26751   8.201  33.126  13.496
62984W        W26752   2.956  44.410   2.832
62985W        W26753  29.573  27.682   0.843
62986W        W26754   7.729  34.905   2.409
62987W        W26755  20.091  32.560  13.047
62988W        W26756  36.845  28.931  10.436
62989W        W26757  30.541  31.486  13.529
62990W        W26758   5.211  11.751   0.347
62991W        W26759   4.234  35.488  12.969
62992W        W26760  28.998  26.565  12.556
62993W        W26761   7.221  31.013  13.006
62994W        W26762  36.965  25.669   2.254
62995W        W26763  19.591  27.013   1.444
62996W        W26764  27.494  24.051   0.796
62997W        W26765  31.967  15.595  11.906
62998W        W26766  28.974  38.564  13.813
62999W        W26767  13.623  16.074  14.821
63000W        W26768  33.109   6.878  12.433
63001W        W26769  19.089   2.321  10.932
63002W        W26770  25.637  15.253  13.380
63003W        W26771  19.742  13.715   2.782
63004W        W26772  13.715  43.832   4.319
63005W        W26773   7.853  39.414   4.159
63006W        W26774  37.465  23.048  12.553
63007W        W26775  37.010  38.872  11.040
63008W        W26776  30.092  28.956   3.640
63009W        W26777  43.814   4.724  10.135
63010W        W26778   9.742   1.324   4.684
63011W        W26779  24.492   3.236  11.538
63012W        W26780  21.163  27.644  12.510
63013W        W26781  19.245  13.199   0.363
63014W        W26782  42.984   4.734  11.454
63015W        W26783  20.553  11.256   3.653
63016W        W26784  20.643  12.714   0.256
63017W        W26785   6.832  26.700   0.856
63018W        W26786  25.968  36.968  13.351
63019W        W26787  44.954   7.839   0.933
63020W        W26788  25.557  14.309   4.695
63021W        W26789  21.160   6.256  11.436
63022W        W26790  12.312  41.942  14.967
63023W        W26791  27.685   7.218  11.023
63024W        W26792  30.086   4.392   3.385
63025W        W26793  21.200  20.541  14.454
63026W        W26794  44.483   5.247  12.439
63027W        W26795  31.049  19.124   4.197
63028W        W26796   8.895  38.024  11.042
63029W        W26797  22.041  42.317   1.742
63030W        W26798   4.354   4.303  13.052
63031W        W26799  38.983  21.039  11.525
63032W        W26800   8.767  21.062   3.230
63033W        W26801  17.603  29.454   3.257
63034W        W26802  42.367  40.048  11.070
63035W        W26803  16.746   2.942   1.803
63036W        W26804  14.186  35.091  11.508
63037W        W26805  12.223  24.985   0.417
63038W        W26806  16.091  13.144   2.390
63039W        W26807  24.625  33.116   2.323
63040W        W26808  20.647  17.167   0.923
63041W        W26809  40.016  36.859   0.245
63042W        W26810  28.968  26.558   1.243
63043W        W26811   5.839  28.951   4.613
63044W        W26812  19.641  28.535   1.858
63045W        W26813  39.340   7.858  13.352
63046W        W26814   3.948  25.700  11.438
63047W        W26815  38.917  43.306  10.934
63048W        W26816  35.936  14.160  12.944
63049W        W26817  39.326   8.261  14.335
63050W        W26818  29.448  24.687  13.535
63051W        W26819  42.006   5.200   1.739
63052W        W26820  17.729  23.726   0.827
63053W        W26821  36.009  13.843   2.819
63054W        W26822  39.862  38.505   4.821
63055W        W26823  27.647  19.777  10.514
63056W        W26824  40.441  22.163  10.600
63057W        W26825  35.074   3.918   4.350
63058W        W26826  11.186  21.620  13.451
63059W        W26827   5.293  35.375  12.342
63060W        W26828  28.173  26.039   1.774
63061W        W26829  16.778  25.008   4.327
63062W        W26830  41.316  14.828   0.869
63063W        W26831  28.086  13.685   5.149
63064W        W26832  40.839  17.168  11.873
63065W        W26833   6.841  39.525  11.995
63066W        W26834   3.438  13.224  10.619
63067W        W26835  19.250  39.361   0.453
63068W        W26836  18.651   6.794  12.087
63069W        W26837  44.430  43.347  12.068
63070W        W26838  39.007   0.939   1.259
63071W        W26839  29.046  27.069   0.385
63072W        W26840  35.042  30.013  10.488
63073W        W26841  32.045   2.434   3.743
63074W        W26842   9.315   6.835  13.944
63075W        W26843  39.412  12.333  11.461
63076W        W26844  29.956  39.845   2.742
63077W        W26845   8.241  43.393   2.706
63078W        W26846  20.715  15.728  14.348
63079W        W26847   2.955   5.385   3.840
63080W        W26848  44.818  34.518  14.345
63081W        W26849  42.886  32.613  11.403
63082W        W26850   8.294  17.183  13.887
63083W        W26851  40.010  19.134  12.477
63084W        W26852  14.793  36.437  11.466
63085W        W26853  29.959  33.438  14.876
63086W        W26854  24.500   1.970  11.966
63087W        W26855  42.296   0.805  12.560
63088W        W26856  21.585  44.958  14.278
63089W        W26857   5.913  26.032  13.921
63090W        W26858  20.529  38.505   2.777
63091W        W26859  32.068  14.179   0.270
63092W        W26860  36.069  30.136   1.743
63093W        W26861  33.565  35.424   0.268
63094W        W26862  33.419  21.070  13.482
63095W        W26863   3.315  43.803   3.802
63096W        W26864   3.808  20.246   0.831
63097W        W26865   2.236  21.683  13.407
63098W        W26866   2.388  28.018  10.078
63099W        W26867  36.919   9.362  14.995
63100W        W26868  32.909  17.291  14.887
63101W        W26869  41.357   2.313   3.170
63102W        W26870   5.701  16.272   4.141
63103W        W26871  36.547  20.733  11.056
63104W        W26872  44.468   2.418  13.365
63105W        W26873  43.861  39.956  11.448
63106W        W26874  18.718  20.671   4.148
63107W        W26875   5.211   8.661   4.766
63108W        W26876  24.700  37.525   0.902
63109W        W26877  31.927   1.815  14.488
63110W        W26878   8.201  16.645   2.867
63111W        W26879   1.908   0.920  14.029
63112W        W26880   4.806   7.261  11.474
63113W        W26881  10.739  17.682   1.915
63114W        W26882  10.223  10.801   5.264
63115W        W26883  33.504   4.315  11.435
63116W        W26884   9.658  39.042   4.173
63117W        W26885  38.395   0.476  10.423
63118W        W26886  40.814  16.284  10.889
63119W        W26887  42.811  35.545  10.434
63120W        W26888   9.821  23.592  11.499
63121W        W26889  31.004  19.167  13.023
63122W        W26890  36.011  39.922   0.842
63123W        W26891  29.164  30.069   1.393
63124W        W26892  15.737  42.392   1.742
63125W        W26893   4.294   7.358   4.318
63126W        W26894  31.613  40.407   0.307
63127W        W26895  40.498  38.376   1.313
63128W        W26896  35.518  32.895   0.771
63129W        W26897   9.162  34.394   3.199
63130W        W26898  25.652   2.293  13.319
63131W        W26899  12.348  33.009   0.398
63132W        W26900   9.820  13.841   1.766
63133W        W26901   4.246  33.514   4.285
63134W        W26902  37.550  17.598   4.727
63135W        W26903  33.966  14.698   3.737
63136W        W26904  20.154   5.876   4.601
63137W        W26905  39.521   0.963   4.659
63138W        W26906  11.722  26.648  14.303
63139W        W26907  25.657  40.314  14.479
63140W        W26908  16.263   1.313   4.287
63141W        W26909  41.975   8.743   1.352
63142W        W26910  36.518   3.770  12.538
63143W        W26911  11.798  10.667   3.661
63144W        W26912  28.660  33.519   9.661
63145W        W26913  12.698  40.413   1.285
63146W        W26914   4.281  14.168   3.175
63147W        W26915  16.214  32.129   2.749
63148W        W26916   4.254  29.108   0.323
63149W        W26917  39.925   1.338   3.844
63150W        W26918  44.502  25.994   2.804
63151W        W26919  43.894   9.697  11.931
63152W        W26920  17.588  26.193  10.629
63153W        W26921  32.414  42.877   2.734
63154W        W26922   7.813  26.581  11.465
63155W        W26923  16.578  27.197  14.424
63156W        W26924  32.625  27.688   4.823
63157W        W26925  26.477   9.241  11.095
63158W        W26926  27.014   7.345  12.977
63159W        W26927   6.383  13.350  11.081
63160W        W26928  30.132  32.986   4.597
63161W        W26929  14.644   7.176   9.976
63162W        W26930  32.513  31.554  11.482
63163W        W26931  13.236  40.325   0.447
63164W        W26932  27.618  44.987  11.891
63165W        W26933  18.130  43.492  14.314
63166W        W26934   2.759   8.239  14.494
63167W        W26935   8.291  42.902  13.442
63168W        W26936  24.994  39.876   0.354
63169W        W26937  25.477   0.360   0.751
63170W        W26938  42.440  23.566  12.885
63171W        W26939  27.515  20.194   1.723
63172W        W26940  29.598  36.583   2.749
63173W        W26941  26.548  41.537  12.976
63174W        W26942  25.041   3.231   0.911
63175W        W26943  15.279  26.063  12.374
63176W        W26944   5.798  16.813  11.432
63177W        W26945  16.163  20.693   0.782
63178W        W26946  13.616   3.756  14.345
63179W        W26947   7.852   8.280  14.929
63180W        W26948  27.604  30.415  11.405
63181W        W26949  31.990  10.212   2.719
63182W        W26950  34.393  42.999  14.800
63183W        W26951  17.293   2.966  13.036
63184W        W26952  19.746  27.560   1.339
63185W        W26953   3.378   5.740   0.452
63186W        W26954   9.328  38.913  11.856
63187W        W26955  29.533  32.510  13.309
63188W        W26956  27.648  14.691   1.249
63189W        W26957  18.555  37.512   4.601
63190W        W26958  32.008  17.634  11.128
63191W        W26959  23.216  22.688  12.536
63192W        W26960  17.740   7.358  12.579
63193W        W26961  27.514  35.383  12.091
63194W        W26962  35.967   1.428   2.282
63195W        W26963  24.611  40.871  11.940
63196W        W26964  35.380   0.271  13.394
63197W        W26965  25.621  23.172   3.868
63198W        W26966  26.955  38.909   3.320
63199W        W26967  14.741  27.519   1.721
63200W        W26968   6.874  14.313   1.727
63201W        W26969   2.859   3.404  11.503
63202W        W26970  10.760  13.757  14.367
63203W        W26971  35.996  41.937  13.545
63204W        W26972   8.890  21.247   2.360
63205W        W26973   8.825   5.753   1.924
63206W        W26974  25.560  27.509   1.807
63207W        W26975  13.170   7.416   4.341
63208W        W26976  18.658  12.149  11.032
63209W        W26977  30.577   6.272   3.222
63210W        W26978  19.769  32.625   1.889
63211W        W26979  35.575  44.965   2.733
63212W        W26980  36.432  20.078  12.089
63213W        W26981  18.165  15.692   3.772
63214W        W26982  21.689  37.976  14.961
63215W        W26983  15.304  36.562   3.756
63216W        W26984  10.686  14.768   2.844
63217W        W26985   6.287  38.910   2.353
63218W        W26986  21.020  38.422   0.314
63219W        W26987  35.399  44.342  14.460
63220W        W26988  13.173  16.641   4.701
63221W        W26989  42.946  30.648   1.730
63222W        W26990  28.561  36.947  13.470
63223W        W26991  22.085   1.372   1.440
63224W        W26992   5.229   1.838  11.372
63225W        W26993   3.730   9.788   0.861
63226W        W26994   1.439  22.121  12.910
63227W        W26995  44.943  20.149   4.218
63228W        W26996  26.023  25.105  10.954
63229W        W26997  22.040  32.099  10.890
63230W        W26998  30.651  43.348   2.274
63231W        W26999  23.529  17.143  11.092
63232W        W27000  10.290   7.308  10.934
63233W        W27001   7.270  44.003  13.427
63234W        W27002  24.130   8.283   0.889
63235W        W27003  24.648  11.327   0.337
63236W        W27004  21.626  34.435   2.247
63237W        W27005  41.919  10.763  11.936
63238W        W27006  37.055   5.291  11.400
63239W        W27007  43.351   4.231   3.735
63240W        W27008  30.434  30.576   0.287
63241W        W27009  25.574   4.248  10.565
63242W        W27010  25.995   2.798   3.642
63243W        W27011  29.537  43.796  10.932
63244W        W27012   0.344  39.334   0.265
63245W        W27013  16.207   1.358  10.427
63246W        W27014  28.621  33.550  14.827
63247W        W27015  20.644  15.610   0.403
63248W        W27016  28.651  41.998   3.837
63249W        W27017  14.209  20.659  12.348
63250W        W27018   1.448  32.069  12.039
63251W        W27019  26.029  20.159   3.769
63252W        W27020  34.952  17.280   9.935
63253W        W27021   7.365  26.984  14.939
63254W        W27022  19.141  11.644  12.967
63255W        W27023  31.543  19.634   2.199
63256W        W27024   1.480  30.012  14.934
63257W        W27025  30.638  43.395  11.918
63258W        W27026  29.146  20.245   4.352
63259W        W27027  24.600   4.292  11.978
63260W        W27028  25.536  33.097  10.910
63261W        W27029  16.244   2.835   1.887
63262W        W27030  15.121  13.690  10.548
63263W        W27031  19.629  21.097   1.843
63264W        W27032  32.001  10.139   1.365
63265W        W27033  17.297  42.339   1.826
63266W        W27034   3.873  10.138  11.052
63267W        W27035   4.899  30.942  10.497
63268W        W27036  18.620  20.583  10.624
63269W        W27037  34.459   1.383   3.188
63270W        W27038  14.724  43.419   1.865
63271W        W27039  30.976  32.398  11.108
63272W        W27040   4.401   8.774  10.914
63273W        W27041  27.014  44.753  14.515
63274W        W27042  26.544  26.054   4.607
63275W        W27043  39.994  37.053  14.899
63276W        W27044  13.747  44.330  11.499
63277W        W27045  21.212  27.530   2.191
63278W        W27046   3.781   9.198   2.188
63279W        W27047  31.972  16.177   5.228
63280W        W27048  26.003   7.283  14.514
63281W        W27049  30.930   3.710   3.213
63282W        W27050  11.689   2.842   3.332
63283W        W27051   9.652  37.390  10.619
63284W        W27052  20.043  22.221   0.355
63285W        W27053  13.350  44.797  10.899
63286W        W27054  30.582  30.147   0.822
63287W        W27055  36.430  37.436  14.804
63288W        W27056  21.717  16.308  13.385
63289W        W27057  25.583  37.420  13.990
63290W        W27058  37.502  21.211  11.462
63291W        W27059  35.489  24.082  14.975
63292W        W27060   2.248  23.240  14.339
63293W        W27061  38.916  43.989  11.441
63294W        W27062  26.688  37.020   2.341
63295W        W27063  31.036  11.149   2.877
63296W        W27064  24.498  13.719  14.779
63297W        W27065   0.957  42.007   1.299
63298W        W27066  15.721   9.361  12.057
63299W        W27067  26.038  30.075   4.742
63300W        W27068   1.909  42.490   1.376
63301W        W27069  15.746  12.358   1.875
63302W        W27070  35.925  24.680  13.450
63303W        W27071  22.593  30.104  10.581
63304W        W27072   0.864  41.292   0.744
63305W        W27073  42.008  17.679  14.770
63306W        W27074   5.845  34.432   4.120
63307W        W27075  42.789  36.421   1.859
63308W        W27076  18.105  12.165  14.324
63309W        W27077   0.744   7.221  11.409
63310W        W27078  39.929  40.997  14.881
63311W        W27079  44.809   3.875   4.674
63312W        W27080  19.131  32.995  13.487
63313W        W27081   0.450  17.706   1.316
63314W        W27082  23.071   1.758  11.087
63315W        W27083  13.116  13.709  11.005
63316W        W27084  21.023  29.044  12.575
63317W        W27085   5.930  14.811  14.883
63318W        W27086  15.150  10.331  12.499
63319W        W27087  13.795   2.935  12.499
63320W        W27088  29.486  27.484   2.808
63321W        W27089   7.669  14.200   5.084
63322W        W27090  10.138  18.119  14.775
63323W        W27091  10.822  39.037   3.792
63324W        W27092  21.696  12.159  12.516
63325W        W27093  36.438  40.497   1.818
63326W        W27094  28.009  24.194   2.210
63327W        W27095  38.912  40.829   2.780
63328W        W27096  18.140  28.449   2.761
63329W        W27097  33.564   6.912  13.517
63330W        W27098  38.433   6.419  10.975
63331W        W27099   6.408   8.769   2.244
63332W        W27100  31.118  27.684   2.416
63333W        W27101   1.950  32.920  13.427
63334W        W27102  13.196  13.321  14.464
63335W        W27103  39.851   6.336  11.440
63336W        W27104  33.624  39.539   4.736
63337W        W27105  28.132  10.763   2.202
63338W        W27106  36.477  21.263  13.936
63339W        W27107  38.846  24.557  11.011
63340W        W27108  19.610  12.856   3.309
63341W        W27109  21.049  34.053  12.456
63342W        W27110  24.161  26.141  13.063
63343W        W27111  26.058   7.715  12.046
63344W        W27112  37.022  30.082  11.054
63345W        W27113  17.122  42.297   3.793
63346W        W27114  37.517   3.311  10.929
63347W        W27115   0.789  30.613  14.837
63348W        W27116  42.802   3.796   4.118
63349W        W27117   6.424  29.046  12.434
63350W        W27118  30.920   2.270   1.821
63351W        W27119  26.016   2.819  13.469
63352W        W27120  27.017  28.022   1.240
63353W        W27121  23.512  21.233   3.827
63354W        W27122  32.891  42.455  10.450
63355W        W27123  19.140  19.201   1.382
63356W        W27124   6.690  26.141   0.410
63357W        W27125  32.957   5.237   0.382
63358W        W27126   1.930  34.045   3.654
63359W        W27127  27.533  27.021  13.524
63360W        W27128  13.156  37.995   1.895
63361W        W27129  28.633  10.264   0.348
63362W        W27130  29.924  41.935   4.276
63363W        W27131  17.212   7.199   0.359
63364W        W27132  38.052  25.538   1.437
63365W        W27133  25.006   7.372  11.117
63366W        W27134  22.140  14.708   1.238
63367W        W27135  13.776   0.815  13.860
63368W        W27136  29.609  20.119   1.919
63369W        W27137   8.781   1.808   3.662
63370W        W27138   2.372  25.107   2.382
63371W        W27139  10.709  28.645   3.284
63372W        W27140  23.099  12.849  12.054
63373W        W27141   8.266  25.000   0.321
63374W        W27142  34.396   6.787   3.784
63375W        W27143  27.593  24.028  11.054
63376W        W27144  31.577   8.403   0.825
63377W        W27145  41.302  24.213   2.379
63378W        W27146  33.609  17.642  11.050
63379W        W27147  27.582  37.472  14.506
63380W        W27148  42.031  36.942   2.824
63381W        W27149   3.390  16.141   2.357
63382W        W27150  19.086   3.897  10.937
63383W        W27151  34.377   3.455  11.460
63384W        W27152  16.758  40.807  12.867
63385W        W27153  28.670   4.424   1.746
63386W        W27154  33.059  12.169   4.614
63387W        W27155  41.305  21.254  14.973
63388W        W27156  21.072  13.660   4.158
63389W        W27157  21.749   7.401  11.917
63390W        W27158   6.785   9.194   3.247
63391W        W27159  25.681   4.709   5.256
63392W        W27160  28.488  30.933   0.392
63393W        W27161  41.456   9.776   2.399
63394W        W27162   6.185   4.449  12.412
63395W        W27163  24.200  40.013  11.566
63396W        W27164  18.290  30.081   2.219
63397W        W27165  28.066  40.357   0.290
63398W        W27166  27.597  17.299  12.975
63399W        W27167  42.391  43.959  14.331
63400W        W27168  13.240  31.525   2.799
63401W        W27169  31.060  39.418   4.225
63402W        W27170  42.996  21.739  12.859
63403W        W27171  27.627   3.916   3.196
63404W        W27172  12.815   5.281   3.219
63405W        W27173  22.550  37.930   1.305
63406W        W27174  23.088  18.196   3.268
63407W        W27175   9.699   3.878  14.471
63408W        W27176  25.986  22.205   1.221
63409W        W27177  43.349  27.569   2.879
63410W        W27178  41.509   9.684   1.735
63411W        W27179  16.698  10.756   0.420
63412W        W27180   6.333   2.824  11.927
63413W        W27181  33.611   0.938   0.928
63414W        W27182  26.579  26.645   2.307
63415W        W27183  12.264   4.247  11.951
63416W        W27184  10.814  44.006  14.381
63417W        W27185  37.546  35.021   3.647
63418W        W27186  14.143  34.111   3.280
63419W        W27187  38.389  34.586  13.366
63420W        W27188  22.107   8.858   0.412
63421W        W27189   3.772   1.749   2.227
63422W        W27190   8.286  29.504   1.713
63423W        W27191  26.051  32.449   1.913
63424W        W27192  32.537  16.764  12.353
63425W        W27193   4.343  10.281   3.839
63426W        W27194  21.513  29.546   3.227
63427W        W27195  42.916  23.723  11.026
63428W        W27196   0.965   5.867  10.030
63429W        W27197  10.376  10.641  14.330
63430W        W27198   4.302  32.992  12.030
63431W        W27199  38.479  16.732  10.586
63432W        W27200  34.500   2.835   4.714
63433W        W27201  30.107  41.331   4.784
63434W        W27202  25.036  26.111   4.211
63435W        W27203  21.154  38.481  10.897
63436W        W27204  15.245  18.763   2.748
63437W        W27205  29.481  12.347   1.401
63438W        W27206  33.595  10.752   2.855
63439W        W27207  23.238  13.205  14.767
63440W        W27208  16.676  31.915   5.272
63441W        W27209  36.852  38.902   4.684
63442W        W27210  30.535  39.447   0.953
63443W        W27211  11.714   4.895   4.157
63444W        W27212  12.229  24.009   2.777
63445W        W27213  31.440  33.126  12.947
63446W        W27214  16.181  36.844  10.485
63447W        W27215   6.272  24.150  11.023
63448W        W27216  38.835  19.599   0.936
63449W        W27217  11.723  41.454  13.486
63450W        W27218  25.546   1.471  12.462
63451W        W27219  12.330   0.944  10.950
63452W        W27220  13.662   3.833  12.386
63453W        W27221  14.791  21.254   1.773
63454W        W27222  43.834  11.262  14.486
63455W        W27223  24.154  40.459   5.141
63456W        W27224   0.267  35.900   2.835
63457W        W27225  40.856  43.495  14.473
63458W        W27226  11.725  21.231  12.350
63459W        W27227  19.692  23.731   4.123
63460W        W27228  15.202  37.387   1.356
63461W        W27229  33.444  36.043  11.903
63462W        W27230   2.461  32.545   2.673
63463W        W27231  23.154  17.278   4.639
63464W        W27232  25.120  38.025  13.380
63465W        W27233  28.959  14.257  13.459
63466W        W27234  24.062  44.770  10.462
63467W        W27235  10.282  15.708  12.534
63468W        W27236   6.375  26.544  13.371
63469W        W27237  31.517  31.902   4.292
63470W        W27238  34.418   2.767  13.806
63471W        W27239  41.352  37.040  10.642
63472W        W27240  22.504  44.774   2.247
63473W        W27241  17.571  21.231   0.733
63474W        W27242  26.962  32.500   4.795
63475W        W27243  13.734  20.695   3.757
63476W        W27244  36.949  40.407   1.252
63477W        W27245   3.452  44.329   4.160
63478W        W27246  10.371  15.162  13.846
63479W        W27247  35.538   8.810   4.773
63480W        W27248   4.378  37.020   3.711
63481W        W27249  35.404   2.368  11.068
63482W        W27250  43.997  19.285  12.559
63483W        W27251  11.818  38.868  14.464
63484W        W27252   1.803  38.559  10.950
63485W        W27253  44.762  34.498   4.272
63486W        W27254  11.829  40.416  13.318
63487W        W27255   2.810   9.227  14.013
63488W        W27256   1.367  34.560  11.396
63489W        W27257  22.611   7.754   2.324
63490W        W27258   0.988  37.347  13.898
63491W        W27259   1.477  19.054  14.825
63492W        W27260   5.693  35.086  14.022
63493W        W27261  40.914  22.144   2.671
63494W        W27262  43.472  44.468  12.847
63495W        W27263  33.480  11.773  10.912
63496W        W27264   5.711  22.112   4.746
63497W        W27265  19.057  34.907  11.420
63498W        W27266  42.447   3.413  12.897
63499W        W27267   6.206  36.952  14.974
63500W        W27268   9.269   2.944   1.727
63501W        W27269  12.647  14.237  10.055
63502W        W27270  11.127  24.096  12.436
63503W        W27271  21.200  32.058   4.353
63504W        W27272  23.990   2.377   2.373
63505W        W27273  18.177  22.644   4.698
63506W        W27274  41.348  29.553   2.351
63507W        W27275  12.794  44.343  13.000
63508W        W27276  44.351  12.349  14.346
63509W        W27277  17.301  15.720   2.827
63510W        W27278  44.942  30.650  10.956
63511W        W27279  41.797  21.045   1.390
63512W        W27280  20.659   4.241  13.846
63513W        W27281  10.259   8.390   5.133
63514W        W27282  30.942  32.404  10.414
63515W        W27283  30.451  20.626   4.828
63516W        W27284  43.868  15.686   2.706
63517W        W27285  10.149  39.355   4.150
63518W        W27286  38.039  14.646  13.905
63519W        W27287  19.620  40.891  11.398
63520W        W27288  37.538  43.496   3.817
63521W        W27289  28.593  42.951  10.514
63522W        W27290  21.197  41.025  11.511
63523W        W27291  34.424  13.808   4.792
63524W        W27292   3.849  16.601   4.757
63525W        W27293  27.071  23.136  12.346
63526W        W27294   6.826   8.795  10.610
63527W        W27295  41.880   0.363  10.562
63528W        W27296   7.799  39.442  13.870
63529W        W27297  11.345  17.787  14.932
63530W        W27298  31.420   9.174   0.326
63531W        W27299  16.746   2.800  10.547
63532W        W27300  36.491  32.424   3.193
63533W        W27301   1.847  37.431  13.829
63534W        W27302  19.220  19.142   4.287
63535W        W27303  44.913  36.396   3.213
63536W        W27304  21.200  44.351   4.636
63537W        W27305  42.447  27.109  14.448
63538W        W27306  24.024  22.667  13.526
63539W        W27307  35.563   9.291   1.833
63540W        W27308  44.822  40.052   1.759
63541W        W27309   1.376  12.764  10.465
63542W        W27310  12.805  19.253  11.945
63543W        W27311  44.396  20.242  12.924
63544W        W27312  24.098  20.523  14.029
63545W        W27313  23.147   3.373   2.741
63546W        W27314  17.736  42.347  11.075
63547W        W27315   7.402  21.169   1.730
63548W        W27316  16.240  25.682   4.228
63549W        W27317  26.628  35.445   0.294
63550W        W27318  42.467   8.767  12.378
63551W        W27319  37.417  29.465   1.776
63552W        W27320  21.618  25.076  14.497
63553W        W27321  35.554  12.303  12.094
63554W        W27322  28.596   8.877  13.818
63555W        W27323  26.121  23.623   3.221
63556W        W27324  19.170   6.693  11.112
63557W        W27325   4.765  34.440  14.487
63558W        W27326   3.455  36.883   3.681
63559W        W27327  26.605  31.635   3.206
63560W        W27328  36.960  19.176  11.579
63561W        W27329   3.813  29.998  10.923
63562W        W27330  29.616  42.936   3.276
63563W        W27331  27.145  19.765   0.815
63564W        W27332   0.336  37.903   4.707
63565W        W27333  33.538  12.667  14.769
63566W        W27334  14.206  12.665  14.288
63567W        W27335  33.582  15.297   0.311
63568W        W27336  27.153  29.934  10.969
63569W        W27337  14.155   0.886  14.369
63570W        W27338  32.030  23.075   4.167
63571W        W27339  25.179   0.383  13.547
63572W        W27340  28.058   5.714  12.868
63573W        W27341  30.047  40.324  14.835
63574W        W27342  41.439   2.946  12.350
63575W        W27343  26.458   1.845  12.510
63576W        W27344  16.647  31.153  12.551
63577W        W27345   6.325  34.497  11.537
63578W        W27346  18.091  24.210   4.287
63579W        W27347  33.089  42.964  13.906
63580W        W27348  37.080  18.255  14.297
63581W        W27349  23.100  14.298  14.896
63582W        W27350  42.822  42.467   3.278
63583W        W27351  39.322  30.508   0.446
63584W        W27352  29.506  35.576  13.474
63585W        W27353  11.236   4.312   3.813
63586W        W27354  41.851   0.441  11.891
63587W        W27355  10.276  36.029  13.440
63588W        W27356  17.087  20.664   5.166
63589W        W27357  23.176  34.059  11.472
63590W        W27358   9.385  38.385   0.474
63591W        W27359  37.511  12.145   4.617
63592W        W27360  38.355   1.466   3.215
63593W        W27361  38.472  19.284   4.159
63594W        W27362   5.400  33.534  11.412
63595W        W27363  30.629   5.320   4.678
63596W        W27364   2.730  17.119   1.758
63597W        W27365  18.245  42.884   0.352
63598W        W27366  38.399  36.078   4.223
63599W        W27367  38.864  11.694  10.901
63600W        W27368  14.743   8.289  13.052
63601W        W27369  30.432   9.309   2.695
63602W        W27370  40.549   5.313   2.807
63603W        W27371  38.488  22.710   1.724
63604W        W27372   0.267  19.538  13.530
63605W        W27373  33.051   7.885  14.355
63606W        W27374  39.050   6.274  11.468
63607W        W27375  36.878  37.362   4.830
63608W        W27376  10.381  21.724   3.636
63609W        W27377  43.299  11.647   1.883
63610W        W27378  16.280  30.017  14.021
63611W        W27379  36.588  25.515  10.436
63612W        W27380  36.089  42.913  12.952
63613W        W27381  12.712  36.047   0.862
63614W        W27382  42.313   7.754   1.781
63615W        W27383  14.770   1.266   0.919
63616W        W27384  19.130  34.981   0.959
63617W        W27385  11.162  27.546  10.988
63618W        W27386  26.041   9.650   0.482
63619W        W27387  40.498  27.189   1.862
63620W        W27388   9.703  19.666   2.329
63621W        W27389  18.625  19.717  11.607
63622W        W27390   2.376  17.287   3.304
63623W        W27391  43.358  12.210   2.291
63624W        W27392   4.836  11.276   2.804
63625W        W27393  26.055  15.285  13.484
63626W        W27394  18.148  31.434   2.368
63627W        W27395  13.646   2.321   1.756
63628W        W27396  20.644   8.359   2.389
63629W        W27397  33.380  38.057   4.277
63630W        W27398  41.501   4.752   2.756
63631W        W27399  34.429  11.320   3.702
63632W        W27400   4.919  13.813   0.932
63633W        W27401  24.540  20.636   1.379
63634W        W27402  10.384  29.944   3.259
63635W        W27403  18.237  10.241  12.437
63636W        W27404  42.330  27.187  12.497
63637W        W27405  31.929  26.528  11.458
63638W        W27406  42.281  36.490  14.923
63639W        W27407  22.047  20.535  10.449
63640W        W27408  25.544  14.300  12.529
63641W        W27409  20.066  31.424   4.622
63642W        W27410  16.149   7.715  12.477
63643W        W27411  32.992  13.742   4.722
63644W        W27412  13.638  42.450  10.486
63645W        W27413   1.754   4.863  13.338
63646W        W27414  41.952   6.830  12.527
63647W        W27415   7.727  18.642  11.096
63648W        W27416  10.256   5.371   3.352
63649W        W27417   3.311   8.879  11.076
63650W        W27418   8.406   5.874  11.015
63651W        W27419  15.676  15.785  11.118
63652W        W27420  38.568   7.834  13.850
63653W        W27421   4.730   5.806  11.534
63654W        W27422  31.460  32.941  11.054
63655W        W27423  37.342  23.035   3.344
63656W        W27424  37.988  10.279   3.271
63657W        W27425   3.239   4.724  11.382
63658W        W27426   8.197   6.774  12.844
63659W        W27427  37.511   2.470  10.440
63660W        W27428  44.825  32.556  14.436
63661W        W27429   1.406  15.295   3.866
63662W        W27430  42.356   6.908   2.743
63663W        W27431   5.716   7.327   4.741
63664W        W27432  39.049  20.575   0.455
63665W        W27433   4.418  23.151  14.970
63666W        W27434   1.754   1.405   0.966
63667W        W27435   1.733  23.110  14.891
63668W        W27436   9.808   0.760   1.706
63669W        W27437   4.758  30.633   0.856
63670W        W27438  22.104  25.489   0.277
63671W        W27439  15.283   5.929  11.075
63672W        W27440  11.234  44.942  12.342
63673W        W27441   1.733  42.991   3.716
63674W        W27442  43.786   8.782   5.233
63675W        W27443  13.219  39.849   0.348
63676W        W27444  28.481  34.522  14.867
63677W        W27445  27.950   6.722  14.884
63678W        W27446   4.344  12.239   4.278
63679W        W27447  44.346  24.616   1.221
63680W        W27448  26.702  39.992   1.440
63681W        W27449  13.822  11.847  11.001
63682W        W27450  35.567  17.305  13.996
63683W        W27451   8.804   3.281  13.959
63684W        W27452  25.490  22.073   2.873
63685W        W27453  24.547  28.584   4.302
63686W        W27454  36.874  32.404   2.680
63687W        W27455  25.989   4.873   1.712
63688W        W27456  12.302  28.024  14.289
63689W        W27457  25.473  10.325   3.278
63690W        W27458  16.227  36.456   2.762
63691W        W27459  24.516  33.597  12.859
63692W        W27460  42.448   1.244   0.467
63693W        W27461  35.479  23.193  10.642
63694W        W27462  11.703   3.928  10.428
63695W        W27463  39.911  28.495   0.844
63696W        W27464   6.680   2.730   0.827
63697W        W27465  30.452  20.268  12.957
63698W        W27466  18.121  30.988   0.244
63699W        W27467  34.958  39.946   2.390
63700W        W27468  31.008  34.591  10.497
63701W        W27469   0.893  32.425   4.349
63702W        W27470  35.010  42.356   3.350
63703W        W27471   2.246  11.837   1.380
63704W        W27472  16.118  16.169  14.929
63705W        W27473  21.736  37.496  13.934
63706W        W27474   1.862  37.913   5.684
63707W        W27475  18.600  30.155   1.887
63708W        W27476   7.865  35.499   3.640
63709W        W27477  38.987   8.165   4.613
63710W        W27478  14.779   0.820  12.986
63711W        W27479  41.820  39.983   3.289
63712W        W27480   7.259  31.436  13.437
63713W        W27481  35.449  35.540   1.398
63714W        W27482  30.592  19.666  13.355
63715W        W27483  29.963   7.781  13.483
63716W        W27484  44.505  29.531  13.528
63717W        W27485   6.383  23.580   3.647
63718W        W27486  32.116  32.981  13.420
63719W        W27487  11.162  14.213  13.316
63720W        W27488  36.582  18.192  14.412
63721W        W27489  41.518   2.457   1.261
63722W        W27490  26.554  16.163  13.546
63723W        W27491  26.958  11.681   9.550
63724W        W27492  36.592  29.931  12.367
63725W        W27493  25.031   9.651   2.361
63726W        W27494  43.835  35.599   4.338
63727W        W27495   4.412  22.088  14.350
63728W        W27496  17.766  38.949  11.572
63729W        W27497   0.972  23.031  13.809
63730W        W27498  23.044  13.339   2.838
63731W        W27499  23.207  34.590  14.347
63732W        W27500  40.889  20.754   3.851
63733W        W27501  17.782  26.522   2.880
63734W        W27502   5.377  20.147   4.319
63735W        W27503   0.479   1.331   3.321
63736W        W27504  25.161   5.849  12.086
63737W        W27505   7.906   9.650  11.902
63738W        W27506  21.132  40.806   1.757
63739W        W27507   2.388  15.644   0.269
63740W        W27508  18.161  17.105  12.917
63741W        W27509   5.379  17.116   1.891
63742W        W27510  20.581   0.385   4.117
63743W        W27511  10.651  38.944  14.489
63744W        W27512  26.149   3.875   1.363
63745W        W27513  22.602  22.652  12.356
63746W        W27514  40.427   5.426  14.486
63747W        W27515  22.032  15.161   1.295
63748W        W27516  36.960  27.065   1.776
63749W        W27517  15.796   4.824   0.859
63750W        W27518  10.290  27.173   2.196
63751W        W27519  33.913  22.500  12.930
63752W        W27520   5.269  25.967   1.323
63753W        W27521  41.864   3.216  11.985
63754W        W27522  13.680  38.462  13.846
63755W        W27523  41.986  27.478  12.529
63756W        W27524   9.813  22.652  12.905
63757W        W27525  38.019  39.886  12.062
63758W        W27526  29.158  42.945  13.478
63759W        W27527  33.890  14.228   0.405
63760W        W27528  31.608  23.069  12.913
63761W        W27529  42.996  15.091  14.842
63762W        W27530  14.628   4.858  11.970
63763W        W27531  29.664   4.858   3.835
63764W        W27532  43.877  43.471  11.991
63765W        W27533   2.252  25.179   0.446
63766W        W27534   0.843  39.415  13.378
63767W        W27535  34.939   9.886  13.047
63768W        W27536  26.651  44.805  11.517
63769W        W27537  43.917  30.112   0.333
63770W        W27538  10.788  19.735  11.063
63771W        W27539  22.102  27.971  11.946
63772W        W27540  30.113  34.053   2.769
63773W        W27541  17.153  36.469  11.106
63774W        W27542  18.221  42.826   4.791
63775W        W27543  28.980  41.970  13.413
63776W        W27544  28.581   7.268  10.585
63777W        W27545  24.035  18.688   2.337
63778W        W27546  13.233   1.373   1.918
63779W        W27547  13.190  39.928  10.924
63780W        W27548  32.622  15.589   4.128
63781W        W27549   8.748  23.494   1.839
63782W        W27550  42.321  30.960   3.356
63783W        W27551   9.707  29.512  12.346
63784W        W27552  19.158  22.047   0.358
63785W        W27553   3.843   5.814  11.383
63786W        W27554  17.083   1.290   1.353
63787W        W27555  44.421   1.271   4.214
63788W        W27556  16.605  38.873  13.924
63789W        W27557  15.782   0.988  14.460
63790W        W27558  39.544   3.726  14.824
63791W        W27559  10.820  14.178   0.363
63792W        W27560  15.805   8.881  10.601
63793W        W27561   7.360  40.417  11.411
63794W        W27562  28.526   6.425   0.921
63795W        W27563  43.839  35.943  13.920
63796W        W27564  25.584  25.140  14.991
63797W        W27565  36.969  44.358  12.008
63798W        W27566  19.604  36.920   4.601
63799W        W27567  38.007  16.301   3.792
63800W        W27568  24.016  30.655  11.526
63801W        W27569  23.537   1.287   3.837
63802W        W27570  36.037   3.808   3.289
63803W        W27571   1.821  18.558   3.372
63804W        W27572  18.146  43.852  14.770
63805W        W27573  30.511  39.423   3.732
63806W        W27574  27.627  23.537  10.944
63807W        W27575  33.047   9.834  14.797
63808W        W27576  29.066   7.795  12.478
63809W        W27577  44.768   9.806   0.296
63810W        W27578  25.619  34.480  14.393
63811W        W27579   4.826   3.861   3.850
63812W        W27580   3.941  25.668  14.369
63813W        W27581  12.682   9.666   0.289
63814W        W27582  30.974  16.635   1.786
63815W        W27583  28.089  41.871  12.926
63816W        W27584  34.050  37.487   5.305
63817W        W27585   7.263   2.792  10.575
63818W        W27586   9.833  20.147   0.396
63819W        W27587  31.137   1.820   4.253
63820W        W27588  14.706  24.702   4.287
63821W        W27589  26.119   8.761  12.852
63822W        W27590  35.457  12.335  13.948
63823W        W27591  40.370  12.664  14.346
63824W        W27592   2.344   6.321  11.449
63825W        W27593  32.634   7.271  12.506
63826W        W27594  36.537   9.743  12.540
63827W        W27595  15.278   1.844  10.482
63828W        W27596  18.057  34.083  11.604
63829W        W27597   2.373  39.501   9.634
63830W        W27598  11.292  27.466   4.210
63831W        W27599  22.020  33.100  10.558
63832W        W27600  43.011  15.133   4.718
63833W        W27601  12.249  44.426  11.876
63834W        W27602  41.412  28.969  11.916
63835W        W27603  16.298  25.534  12.407
63836W        W27604  20.201  35.863  13.404
63837W        W27605  26.635  18.112  10.615
63838W        W27606  42.816  32.062   4.619
63839W        W27607  33.412  39.841   4.176
63840W        W27608  37.888  30.003   0.344
63841W        W27609  27.648  18.146   0.849
63842W        W27610  21.602  21.123   2.378
63843W        W27611  38.925   4.811  11.067
63844W        W27612   8.821  41.989  13.840
63845W        W27613  37.053  28.152   2.311
63846W        W27614  10.866  23.169   0.278
63847W        W27615  39.415   9.154  14.029
63848W        W27616   4.300  25.170   1.233
63849W        W27617  33.592  10.156  10.643
63850W        W27618  32.935   1.800   3.806
63851W        W27619  22.579  25.058   4.762
63852W        W27620  13.284  10.238  14.416
63853W        W27621  37.379   6.694   9.452
63854W        W27622  33.920  43.016   4.140
63855W        W27623  31.604   3.868   1.833
63856W        W27624  27.622  19.719   4.696
63857W        W27625  31.134   1.417   0.949
63858W        W27626  25.487  42.375  12.505
63859W        W27627  16.146  27.520   1.741
63860W        W27628  42.517   0.955   4.716
63861W        W27629  10.700  39.062  13.548
63862W        W27630  30.032  40.468   4.338
63863W        W27631  30.500  20.558   3.694
63864W        W27632  15.228  24.046   0.926
63865W        W27633  24.111   6.835  11.579
63866W        W27634  27.571   2.926  11.019
63867W        W27635  21.540  25.219   4.747
63868W        W27636   0.824   1.356   0.824
63869W        W27637  10.257  16.150   0.798
63870W        W27638  44.834  26.958   2.288
63871W        W27639  10.693  31.518  13.931
63872W        W27640  25.062  25.641   1.886
63873W        W27641  44.790  22.234   1.855
63874W        W27642  26.130  18.281  13.854
63875W        W27643  39.892  19.727  13.331
63876W        W27644  11.667  23.722   4.137
63877W        W27645  13.627   9.747   1.849
63878W        W27646  30.026  25.124   1.397
63879W        W27647  14.253  19.658  11.090
63880W        W27648  20.682   1.243   4.256
63881W        W27649  36.958  35.957  14.503
63882W        W27650  41.962  42.978  14.825
63883W        W27651  12.796   8.788  14.776
63884W        W27652  21.581  12.818   2.414
63885W        W27653  23.129  30.920  13.361
63886W        W27654   8.700   3.842  13.006
63887W        W27655  11.135  43.285  11.413
63888W        W27656  44.963  35.071   4.642
63889W        W27657  36.001  41.828  10.459
63890W        W27658  19.283   5.292   2.707
63891W        W27659  43.782  40.547  13.801
63892W        W27660  31.968  37.501  14.889
63893W        W27661  27.676  43.479  12.937
63894W        W27662  27.688  18.773  11.922
63895W        W27663  44.920  27.092  11.436
63896W        W27664  31.076  12.139  11.385
63897W        W27665  19.670  19.099  13.524
63898W        W27666  40.871  42.976  11.599
63899W        W27667  30.040   3.825  12.546
63900W        W27668  40.044  21.241  12.428
63901W        W27669  24.985  41.903  11.890
63902W        W27670  12.667  34.952  14.992
63903W        W27671  11.639  42.390   2.290
63904W        W27672   7.309  31.054   5.094
63905W        W27673  38.907  21.229   0.481
63906W        W27674  22.527  11.824   0.319
63907W        W27675  19.633  13.319   3.183
63908W        W27676  26.535  15.587  13.333
63909W        W27677  40.353  21.210  10.546
63910W        W27678  10.203  31.605  11.472
63911W        W27679  35.447   0.456  10.585
63912W        W27680  29.018   7.261  13.333
63913W        W27681  20.688  43.270   3.224
63914W        W27682  17.280   7.363   5.095
63915W        W27683  21.070   0.916   0.787
63916W        W27684  19.697  23.030  10.911
63917W        W27685   6.726  40.448   2.301
63918W        W27686  38.878  19.099  11.376
63919W        W27687  37.047   1.930   0.748
63920W        W27688   7.358  37.877  14.004
63921W        W27689  15.644  44.464  13.059
63922W        W27690  40.969  29.949   0.285
63923W        W27691   9.355   6.215   3.812
63924W        W27692   0.817   1.449   0.330
63925W        W27693  21.745  43.944   3.243
63926W        W27694  39.351  34.896  14.459
63927W        W27695  15.250  15.580   4.693
63928W        W27696  35.967  13.630  14.835
63929W        W27697  44.899  32.400   0.739
63930W        W27698  15.810   0.791  11.977
63931W        W27699   5.280  17.291  14.008
63932W        W27700  36.894  42.955  13.793
63933W        W27701  35.601  25.047   2.715
63934W        W27702  39.950   7.206   2.394
63935W        W27703   1.830  29.158  11.119
63936W        W27704  38.422  34.403  14.513
63937W        W27705  31.045  24.715  13.012
63938W        W27706  33.878  28.136   3.364
63939W        W27707  10.287  40.361   5.134
63940W        W27708  36.954  41.933  13.997
63941W        W27709  36.493  23.492   0.452
63942W        W27710  28.975  28.578  13.030
63943W        W27711  15.205   9.679  12.909
63944W        W27712  23.707  21.567  13.984
63945W        W27713  35.076  12.712   3.343
63946W        W27714  41.011  29.082  11.399
63947W        W27715  34.959   5.320  13.362
63948W        W27716   1.858  10.714  10.917
63949W        W27717  31.645  13.128  12.017
63950W        W27718  20.739  31.139  11.573
63951W        W27719  27.992  12.823   0.333
63952W        W27720  27.468  37.941   2.776
63953W        W27721   0.253  31.493   0.346
63954W        W27722  11.176  17.794   0.439
63955W        W27723  41.881  35.043  11.376
63956W        W27724   2.749   0.253  14.004
63957W        W27725  24.002  11.231   4.739
63958W        W27726   6.239  13.718  14.400
63959W        W27727  36.022  44.806  14.349
63960W        W27728  29.519  23.732  10.103
63961W        W27729  30.131  12.128  11.389
63962W        W27730  35.006   2.354   3.155
63963W        W27731   0.791   6.700   1.244
63964W        W27732  36.065   6.229   2.291
63965W        W27733   4.321  21.070  12.372
63966W        W27734   2.332  39.056   0.883
63967W        W27735  23.074  25.635   0.844
63968W        W27736  23.683  41.322  13.493
63969W        W27737  24.090  10.321  10.493
63970W        W27738  12.666  29.564  11.859
63971W        W27739  38.546  42.502   0.392
63972W        W27740   0.843  20.737   4.788
63973W        W27741   8.688  32.554  13.503
63974W        W27742  38.413   5.287   4.767
63975W        W27743  25.103   7.866   3.347
63976W        W27744  12.321  38.984   4.320
63977W        W27745   2.897  36.559   3.797
63978W        W27746  42.315  17.590  11.500
63979W        W27747  26.460   5.910  14.799
63980W        W27748  41.401   1.482   3.368
63981W        W27749  36.098  35.048  12.425
63982W        W27750  44.757  43.432  13.358
63983W        W27751   8.739   0.822  10.595
63984W        W27752  21.205   4.254   9.991
63985W        W27753   1.283   4.341  11.609
63986W        W27754   6.398  12.143  11.430
63987W        W27755  35.502  31.491   0.807
63988W        W27756   0.848  11.155  11.407
63989W        W27757   9.810  44.989  11.518
63990W        W27758  29.123  33.469  12.414
63991W        W27759  16.627  43.870   4.609
63992W        W27760  11.307  34.981   3.781
63993W        W27761  20.138   2.361   3.371
63994W        W27762  17.285   2.758   2.406
63995W        W27763  30.015  21.162   1.232
63996W        W27764  44.333  14.293   1.786
63997W        W27765   9.346  26.553  10.955
63998W        W27766  25.962  21.254  10.404
63999W        W27767  29.047   5.916  14.466
64000W        W27768  13.678  19.581  14.769
64001W        W27769  28.502  13.797  14.280
64002W        W27770   2.953   9.837  14.516
64003W        W27771  12.116  32.996  12.084
64004W        W27772  44.871  22.049   3.818
64005W        W27773   2.924  44.786   2.206
64006W        W27774  36.375  29.657  11.107
64007W        W27775  27.155  41.029  12.016
64008W        W27776  12.766   6.885  13.452
64009W        W27777  28.501  27.524   1.818
64010W        W27778  20.089   9.306  10.460
64011W        W27779  20.080   9.782   1.748
64012W        W27780  21.255  17.119   2.821
64013W        W27781  22.656  17.251   1.730
64014W        W27782   3.836   7.285   4.339
64015W        W27783  16.727  35.393   0.957
64016W        W27784  38.467  15.597  12.418
64017W        W27785  19.167  32.981  14.373
64018W        W27786  13.846   4.808   3.304
64019W        W27787   8.841  31.420  14.325
64020W        W27788  13.630  36.078  14.018
64021W        W27789   5.856  29.512   4.156
64022W        W27790  16.251   2.777   3.661
64023W        W27791  25.655  44.308   0.933
64024W        W27792  32.962  43.838  10.903
64025W        W27793  17.123  13.845   3.366
64026W        W27794  31.056  28.967  13.456
64027W        W27795  16.308  17.124   1.785
64028W        W27796  24.581  39.428   3.738
64029W        W27797  30.657  21.099  12.472
64030W        W27798  25.043  11.851   2.283
64031W        W27799  36.435  28.509   4.772
64032W        W27800  19.125  39.862  12.060
64033W        W27801   4.902   0.384   5.276
64034W        W27802   0.418   4.706  13.462
64035W        W27803  33.087  33.451  11.980
64036W        W27804  24.488  29.517   4.186
64037W        W27805  12.771  18.269   1.430
64038W        W27806  12.267   8.300   4.660
64039W        W27807  24.061  19.174  13.930
64040W        W27808   6.215  20.057  12.917
64041W        W27809  25.153  41.894   1.449
64042W        W27810  18.597  15.769   0.876
64043W        W27811  31.423  10.778   4.606
64044W        W27812  32.515  44.420   0.905
64045W        W27813  23.684  24.209   1.255
64046W        W27814  40.543   1.798  14.824
64047W        W27815   2.347  30.439   3.252
64048W        W27816  32.022  33.944   0.736
64049W        W27817  44.393  38.355   1.803
64050W        W27818  10.165  36.435  10.487
64051W        W27819  23.700  28.552   3.756
64052W        W27820  28.141   1.904   3.680
64053W        W27821  25.595  17.112   1.270
64054W        W27822  35.572  32.521  13.401
64055W        W27823  18.254  24.519  14.446
64056W        W27824  36.416  28.513  14.443
64057W        W27825  36.575  20.181  14.982
64058W        W27826  24.509   5.389  13.000
64059W        W27827  31.115  20.069   1.722
64060W        W27828  22.602  37.501  10.581
64061W        W27829  34.480   4.749   0.840
64062W        W27830   6.246  15.640   4.326
64063W        W27831  25.684  22.089  13.385
64064W        W27832  10.768  21.529   4.629
64065W        W27833  18.621   7.206   4.624
64066W        W27834  40.357  24.570   4.835
64067W        W27835  16.081  23.104   4.124
64068W        W27836  39.062  43.782   1.791
64069W        W27837  10.238   5.286   4.788
64070W        W27838  34.401  40.810   4.231
64071W        W27839  26.527  29.610   3.741
64072W        W27840  23.620  33.922  10.097
64073W        W27841  25.187  10.706   3.736
64074W        W27842  44.437  22.501  14.869
64075W        W27843  18.057  13.226   0.352
64076W        W27844  41.409  39.466  10.535
64077W        W27845  40.936  17.578   4.268
64078W        W27846  25.687  41.308  14.876
64079W        W27847  28.048  19.190   0.900
64080W        W27848  20.094  35.013  13.832
64081W        W27849  13.289  37.020   4.786
64082W        W27850  42.787  21.575   2.185
64083W        W27851   9.845   3.359   4.813
64084W        W27852  26.036  36.498  13.031
64085W        W27853  40.446   5.210   4.610
64086W        W27854  22.233  12.239   1.730
64087W        W27855  12.679   4.752   4.625
64088W        W27856  37.967  25.672  14.502
64089W        W27857  18.196  37.872  11.094
64090W        W27858  44.377  32.473   4.676
64091W        W27859  41.866   2.951  13.917
64092W        W27860  18.172  20.648  11.018
64093W        W27861  14.118   6.861  12.080
64094W        W27862  33.885  19.182  11.875
64095W        W27863  34.486  24.036  11.108
64096W        W27864  27.459  18.075  13.450
64097W        W27865  18.132  33.893   4.347
64098W        W27866  40.395   2.853   1.450
64099W        W27867   7.318  21.569  11.400
64100W        W27868  29.127  24.000   4.688
64101W        W27869  27.448  33.495   2.846
64102W        W27870  24.069  42.783  13.061
64103W        W27871  21.747   6.713   4.665
64104W        W27872  34.559   4.709   3.839
64105W        W27873  21.681  21.215   4.114
64106W        W27874  33.005   2.298  13.501
64107W        W27875   8.168   4.361  10.404
64108W        W27876  29.567   6.182   5.182
64109W        W27877  26.024  40.444   3.729
64110W        W27878   8.356   4.245   1.761
64111W        W27879  30.156  18.654   0.911
64112W        W27880  40.014  38.947   3.695
64113W        W27881  16.570  42.874  11.983
64114W        W27882   1.856  17.611  14.285
64115W        W27883  30.421  42.962   4.350
64116W        W27884   0.811   7.904  12.441
64117W        W27885   6.359  37.554   3.634
64118W        W27886   2.236  30.413   1.775
64119W        W27887  42.520   6.211  12.091
64120W        W27888   2.264  21.031   3.785
64121W        W27889  41.931  33.010  13.462
64122W        W27890  24.143  22.023   2.775
64123W        W27891  11.846  28.094   0.803
64124W        W27892  35.024  17.746   4.245
64125W        W27893  15.134  30.966  12.355
64126W        W27894  28.481  15.238  12.567
64127W        W27895  36.011  36.983  11.923
64128W        W27896   2.343  24.999   3.325
64129W        W27897  34.092  32.595  14.423
64130W        W27898  31.510  38.075   1.352
64131W        W27899  22.178   2.379   3.344
64132W        W27900  42.329  29.566   3.864
64133W        W27901  28.182   7.760  12.404
64134W        W27902   7.312  42.459  11.894
64135W        W27903  14.716  40.461   0.816
64136W        W27904  33.557   4.801   5.291
64137W        W27905  40.852   8.847   0.253
64138W        W27906   1.325  23.510   3.669
64139W        W27907   6.186   2.248  12.351
64140W        W27908  34.985  22.165  14.956
64141W        W27909  16.170   6.913  13.849
64142W        W27910   5.399   6.340  10.928
64143W        W27911  33.884  10.382   9.999
64144W        W27912  37.013  40.027   2.843
64145W        W27913  17.233  27.626  14.833
64146W        W27914  12.165  10.237   4.686
64147W        W27915  35.548  24.607   4.298
64148W        W27916  28.168  34.989   3.709
64149W        W27917  18.684   6.900   0.409
64150W        W27918  31.014   3.879   2.773
64151W        W27919  14.662   4.810   4.748
64152W        W27920   8.179  14.732   2.726
64153W        W27921  16.107   3.424  11.070
64154W        W27922   6.699  29.923   1.355
64155W        W27923  21.217  38.838  12.034
64156W        W27924  12.142  31.439  14.004
64157W        W27925  43.911  38.395  14.843
64158W        W27926  42.929   5.316  10.613
64159W        W27927  39.867  10.148  12.082
64160W        W27928  43.833  22.108  12.968
64161W        W27929  36.586   2.271  13.965
64162W        W27930  17.230   0.811  10.064
64163W        W27931  40.412  36.910  14.339
64164W        W27932  37.368  18.186   1.749
64165W        W27933  16.102   5.392  11.094
64166W        W27934   2.263  42.868   0.901
64167W        W27935  13.643  20.695   3.243
64168W        W27936   2.790   9.395  13.366
64169W        W27937  27.946  21.744   2.892
64170W        W27938   6.183  18.229   1.775
64171W        W27939  34.486  37.456  13.970
64172W        W27940  24.056  14.807   0.919
64173W        W27941  18.113  42.791  10.445
64174W        W27942  38.820  35.100  14.821
64175W        W27943  12.361  22.178  11.572
64176W        W27944  30.936  33.620   3.342
64177W        W27945  24.666  40.947  12.423
64178W        W27946  38.493  19.656   3.301
64179W        W27947   1.345  28.073   1.399
64180W        W27948  44.334   5.713  11.934
64181W        W27949   4.783  16.218  13.456
64182W        W27950  42.969  17.097  11.968
64183W        W27951  17.676  28.492   2.848
64184W        W27952  25.118  14.660  10.990
64185W        W27953   6.392  40.384   5.169
64186W        W27954  42.301  39.982  11.426
64187W        W27955  36.393  44.305   2.826
64188W        W27956  34.871  41.461  11.870
64189W        W27957   6.894  36.092  14.794
64190W        W27958  31.624  26.041   3.780
64191W        W27959  28.143  23.064   2.744
64192W        W27960   7.402  34.614  12.841
64193W        W27961  11.791   2.846  11.528
64194W        W27962   0.481  36.426  12.907
64195W        W27963  32.055  32.018  10.968
64196W        W27964   8.676  40.864  12.412
64197W        W27965   9.782  11.152  12.864
64198W        W27966   6.750  31.043  12.892
64199W        W27967   6.263  32.936  14.324
64200W        W27968   4.922  24.491   0.336
64201W        W27969  20.087  31.028  13.911
64202W        W27970  17.679  32.598  12.940
64203W        W27971  12.730   8.242  14.975
64204W        W27972  27.558  34.895  14.948
64205W        W27973  38.034   7.733  11.448
64206W        W27974  34.060   5.385   4.319
64207W        W27975   4.937  31.016  14.801
64208W        W27976  10.177  25.503  14.820
64209W        W27977  24.002  27.990  12.874
64210W        W27978   6.897  36.032  13.964
64211W        W27979  21.757  10.304  13.832
64212W        W27980  33.577   0.395  12.567
64213W        W27981  23.720  11.720   0.256
64214W        W27982  29.010   3.344   1.412
64215W        W27983   4.918  23.219  11.926
64216W        W27984  29.106  32.908   2.199
64217W        W27985  39.008  12.244  13.903
64218W        W27986  25.613   1.404  13.491
64219W        W27987   0.454  15.801  14.488
64220W        W27988  35.373   5.325   3.375
64221W        W27989  21.122  37.524   1.768
64222W        W27990  40.028  23.718   4.218
64223W        W27991  32.888  43.977  13.961
64224W        W27992  36.096  42.915   5.127
64225W        W27993  20.205  34.017  11.376
64226W        W27994  34.410  17.787   9.548
64227W        W27995  10.639  12.249  11.991
64228W        W27996  27.984  32.431   0.884
64229W        W27997  30.641  38.971  10.562
64230W        W27998  31.524  40.307  13.833
64231W        W27999  25.087  44.472   3.724
64232W        W28000   9.382   7.723  13.859
64233W        W28001  39.931  21.106  11.936
64234W        W28002  44.974  14.254   2.685
64235W        W28003  16.595  33.919   2.218
64236W        W28004  35.360  16.159  12.862
64237W        W28005  39.932  40.548  13.797
64238W        W28006   5.831  30.613  11.038
64239W        W28007  17.728  26.700  10.429
64240W        W28008  31.575  15.130  13.414
64241W        W28009  19.581  39.032  10.507
64242W        W28010   3.864  11.254  11.420
64243W        W28011  23.208  21.730   1.440
64244W        W28012   0.770   4.875  13.834
64245W        W28013  17.709  43.820  14.781
64246W        W28014  11.823  30.945  11.567
64247W        W28015  26.991   7.731   3.763
64248W        W28016  43.838  10.791   2.780
64249W        W28017  18.113   7.243  14.396
64250W        W28018  30.494  27.469   3.181
64251W        W28019  14.284  40.042  11.044
64252W        W28020   2.784  27.171   3.212
64253W        W28021  42.855  19.754  11.946
64254W        W28022  39.512   2.791  11.483
64255W        W28023   5.398  27.510   1.870
64256W        W28024  26.636  18.146   3.362
64257W        W28025   0.276  16.176   1.782
64258W        W28026  18.116  13.729  14.791
64259W        W28027   5.734  24.037  14.508
64260W        W28028  28.558   6.414   2.400
64261W        W28029  21.026   9.327   2.236
64262W        W28030  38.511  27.951   1.222
64263W        W28031  15.089   8.204   3.270
64264W        W28032  34.096   4.898   3.832
64265W        W28033  20.725  41.863  14.993
64266W        W28034  36.370  27.013  10.635
64267W        W28035  11.838   1.344   4.697
64268W        W28036   6.212  29.502  10.920
64269W        W28037   9.356  12.355  12.389
64270W        W28038  21.583   0.936  12.966
64271W        W28039  20.215  44.816  14.865
64272W        W28040   6.880  26.479  11.977
64273W        W28041  42.364  44.851  11.898
64274W        W28042  11.278  22.589   3.160
64275W        W28043  39.884  22.151  13.022
64276W        W28044  33.415  21.157   1.751
64277W        W28045  39.382   4.898   4.169
64278W        W28046  25.597  10.750   4.634
64279W        W28047   6.787  40.021   1.830
64280W        W28048  11.350  21.209  14.882
64281W        W28049  31.980  25.128   2.898
64282W        W28050  19.268   2.897  10.426
64283W        W28051  18.775  10.662  11.060
64284W        W28052  13.808  20.043  10.417
64285W        W28053  12.766  17.644  10.995
64286W        W28054  25.014  38.846   1.447
64287W        W28055  21.654   0.437  11.080
64288W        W28056  25.211  35.495   4.151
64289W        W28057  40.880  18.193   1.819
64290W        W28058  43.907  21.619  12.383
64291W        W28059   8.374  43.917  13.382
64292W        W28060  40.841  29.025   1.730
64293W        W28061   2.962   3.399   2.895
64294W        W28062  37.364  36.435   3.260
64295W        W28063   7.667  28.183   3.380
64296W        W28064  30.632  21.585  11.055
64297W        W28065  13.212  21.247  11.570
64298W        W28066  20.039  30.092  11.862
64299W        W28067   4.844  37.071  10.432
64300W        W28068  43.376  18.286   3.840
64301W        W28069   8.258  14.606  12.545
64302W        W28070  15.757  21.241  12.061
64303W        W28071   8.839  39.889   2.254
64304W        W28072  13.140  33.546  12.861
64305W        W28073  40.819  19.742  11.979
64306W        W28074  43.784  11.766   3.218
64307W        W28075  37.960  15.239  10.507
64308W        W28076  27.520  12.834   1.254
64309W        W28077  12.133  13.270   5.636
64310W        W28078  25.547  34.511   3.370
64311W        W28079   9.818  38.419   3.646
64312W        W28080  19.227  22.517   4.299
64313W        W28081  17.722  14.222  12.579
64314W        W28082  36.368  22.206   1.785
64315W        W28083  44.763  24.585  12.998
64316W        W28084  43.393   5.843   2.269
64317W        W28085  16.130   6.287  12.910
64318W        W28086  42.394  23.164   0.853
64319W        W28087   5.741  31.975  12.479
64320W        W28088  34.060  20.082   2.338
64321W        W28089  36.438  39.900  14.435
64322W        W28090  18.157  21.513  13.437
64323W        W28091  37.394  29.510   9.538
64324W        W28092  27.587  42.421   1.770
64325W        W28093  38.519  35.936   3.828
64326W        W28094  20.064  36.585   3.382
64327W        W28095  12.715  30.022   0.309
64328W        W28096  12.126   1.752  11.988
64329W        W28097  25.596  29.973   2.860
64330W        W28098  10.248  24.697  10.057
64331W        W28099  21.612  40.441   1.917
64332W        W28100  30.629  29.437  12.983
64333W        W28101  36.863  37.846  12.052
64334W        W28102  17.290   3.902   1.441
64335W        W28103  21.565  42.351  11.871
64336W        W28104  20.057  32.978  13.528
64337W        W28105  10.846  28.017   3.206
64338W        W28106  13.336  41.489  13.850
64339W        W28107  10.211  37.978  12.547
64340W        W28108  36.481   2.419  12.004
64341W        W28109  15.635  20.179   9.485
64342W        W28110  38.042   3.312  12.895
64343W        W28111  17.294  20.766  12.869
64344W        W28112  15.281   5.747  10.459
64345W        W28113  21.227  22.585  10.612
64346W        W28114   6.894  32.458   0.784
64347W        W28115   2.882  12.222  12.027
64348W        W28116  21.180  30.619  13.385
64349W        W28117   9.245  43.345   1.838
64350W        W28118   1.888   5.304   3.832
64351W        W28119  20.650  29.607   0.286
64352W        W28120  11.814  36.841  11.423
64353W        W28121  12.845  28.134  14.882
64354W        W28122  23.537  36.013  14.961
64355W        W28123  41.042  40.339   4.624
64356W        W28124  44.983   3.330   1.849
64357W        W28125   8.896  29.480   0.888
64358W        W28126  13.783  12.330   2.749
64359W        W28127  36.881   9.368   1.698
64360W        W28128   3.454   7.290   3.261
64361W        W28129  34.871  36.037   0.919
64362W        W28130  41.801  43.992   1.897
64363W        W28131  25.515   2.842  14.452
64364W        W28132  41.876  22.015   1.840
64365W        W28133  41.021  30.030   1.911
64366W        W28134  21.750  25.109   1.297
64367W        W28135   9.769  42.942   4.682
64368W        W28136  17.656   3.936  11.550
64369W        W28137   4.300  23.713  11.605
64370W        W28138  35.410  42.807   1.793
64371W        W28139  14.618  38.009   1.902
64372W        W28140  35.892  30.639  11.609
64373W        W28141  16.760  31.082  11.575
64374W        W28142  36.990  31.921   1.725
64375W        W28143  16.099  28.972   2.363
64376W        W28144  23.675  10.166  12.496
64377W        W28145  37.540  16.625  12.509
64378W        W28146  34.096  27.563   4.190
64379W        W28147   2.451   2.449  13.385
64380W        W28148   6.722  41.450   0.398
64381W        W28149   7.275  13.650   4.225
64382W        W28150  16.277  18.587   2.298
64383W        W28151   8.283  15.584   1.716
64384W        W28152   0.824  29.562   2.343
64385W        W28153  10.824  22.561  10.159
64386W        W28154  30.494  12.302  10.488
64387W        W28155  30.141  39.879  11.884
64388W        W28156  39.474   2.276   1.857
64389W        W28157  30.930   2.843  12.079
64390W        W28158  10.344  38.898  12.825
64391W        W28159  11.356  31.525   2.213
64392W        W28160  38.547  10.797  14.902
64393W        W28161  36.462  31.477  12.994
64394W        W28162   8.349   2.924  12.974
64395W        W28163   7.394  44.962  12.861
64396W        W28164  43.393  17.234   0.332
64397W        W28165  33.615   3.720   1.860
64398W        W28166  14.686  32.398  13.401
64399W        W28167   5.844   3.862  10.625
64400W        W28168   4.919  42.363  11.526
64401W        W28169  38.890  10.707  12.865
64402W        W28170  14.596  38.038   2.781
64403W        W28171  14.100   5.740   4.829
64404W        W28172  42.881  37.001   4.348
64405W        W28173  22.125   8.405  10.622
64406W        W28174  30.579  29.103  11.499
64407W        W28175   5.421  28.460  12.454
64408W        W28176  19.662  36.994  10.625
64409W        W28177  38.933  43.016   3.276
64410W        W28178   5.837  40.472   4.216
64411W        W28179  41.832  28.951   5.146
64412W        W28180  17.599  12.339  11.610
64413W        W28181  18.144   1.296   2.179
64414W        W28182  17.631   7.343  14.910
64415W        W28183  36.876  39.883   1.914
64416W        W28184  33.608   5.867  11.989
64417W        W28185  38.879  34.426   9.998
64418W        W28186   0.910  24.205  12.920
64419W        W28187  38.873   9.308   3.643
64420W        W28188  12.778  44.970  11.864
64421W        W28189  35.085  32.564   3.265
64422W        W28190  22.504  29.057   5.133
64423W        W28191   5.818  44.933   2.316
64424W        W28192   4.335  32.470  10.624
64425W        W28193  38.043   3.387  11.401
64426W        W28194  27.573  23.024   1.700
64427W        W28195  16.726  35.105  11.083
64428W        W28196   8.289  36.928  13.840
64429W        W28197  25.127  22.111  12.019
64430W        W28198  40.523  20.592   1.699
64431W        W28199  38.855  29.500  13.343
64432W        W28200   1.761   6.190   3.213
64433W        W28201   5.787  27.940  14.276
64434W        W28202  44.875  19.193  12.496
64435W        W28203  11.352  12.715  14.882
64436W        W28204  15.653  16.624   3.212
64437W        W28205  41.459  31.930  10.428
64438W        W28206  12.641   3.948  11.607
64439W        W28207  10.635  17.219   4.116
64440W        W28208  28.139   4.833  13.356
64441W        W28209  18.768  17.677  10.892
64442W        W28210   7.683  38.387   0.950
64443W        W28211  18.198  21.250   0.362
64444W        W28212  22.173  36.431  13.544
64445W        W28213  23.063   9.683   0.389
64446W        W28214   6.411  18.757   3.145
64447W        W28215  26.030   8.300  12.028
64448W        W28216  29.474   1.276   4.766
64449W        W28217  28.039  13.284   2.781
64450W        W28218  10.660  25.985  10.598
64451W        W28219  43.498  24.977   3.839
64452W        W28220  40.841  17.629   1.310
64453W        W28221  32.979  43.401  14.394
64454W        W28222  19.644  11.782   2.342
64455W        W28223  33.111   4.763   0.436
64456W        W28224  31.931  16.152   2.308
64457W        W28225  16.714   7.224   0.450
64458W        W28226   6.198  42.311   0.789
64459W        W28227   7.837  25.109   4.782
64460W        W28228  43.863  14.106  10.944
64461W        W28229   5.434  28.609  10.912
64462W        W28230  17.603  29.979  11.026
64463W        W28231  30.972  28.987   3.247
64464W        W28232  33.943   8.696  14.906
64465W        W28233  17.074  11.298   4.602
64466W        W28234   6.198  28.456   1.813
64467W        W28235  36.996   3.247  13.806
64468W        W28236  35.428  44.935   2.381
64469W        W28237   7.693  44.323   1.829
64470W        W28238   2.844  13.784   2.338
64471W        W28239  23.098  10.251   1.883
64472W        W28240  22.556   9.278  13.410
64473W        W28241  26.043  40.467  14.403
64474W        W28242   8.806  29.464  11.595
64475W        W28243  32.972  11.281   4.629
64476W        W28244  10.782  23.055   4.714
64477W        W28245  39.485  36.037  11.490
64478W        W28246  19.692  27.685   3.820
64479W        W28247  16.601  10.330   4.208
64480W        W28248   6.783  33.504  13.051
64481W        W28249  28.498  36.474  12.854
64482W        W28250  20.656  26.541   4.221
64483W        W28251  25.605  34.918   0.297
64484W        W28252  44.968   7.246  14.990
64485W        W28253  22.121  18.682   4.238
64486W        W28254  30.006  26.045   0.278
64487W        W28255  29.108  20.637   2.199
64488W        W28256  16.796  12.308  12.441
64489W        W28257  17.290  32.106   0.251
64490W        W28258  11.313  11.700   3.187
64491W        W28259  40.390  20.603  13.972
64492W        W28260   5.365  23.631  13.022
64493W        W28261  10.754   0.354  12.009
64494W        W28262   6.309   5.906   1.836
64495W        W28263   7.865  41.374   1.347
64496W        W28264  24.094  39.534  14.302
64497W        W28265   7.801  37.830   2.773
64498W        W28266  22.688  23.229   0.870
64499W        W28267  15.757  27.130   2.748
64500W        W28268   6.753  36.946   1.329
64501W        W28269  41.529  31.010  11.008
64502W        W28270  25.581  29.129   0.850
64503W        W28271   8.338  18.165  10.510
64504W        W28272  25.622  15.625  10.613
64505W        W28273   2.865  29.511   1.425
64506W        W28274  18.749  22.111   3.729
64507W        W28275   6.355   8.759  11.105
64508W        W28276   5.919  37.070   1.704
64509W        W28277  44.435  10.682   0.265
64510W        W28278  24.701  40.481   4.684
64511W        W28279  12.665  17.302  13.827
64512W        W28280  41.494  10.275   2.258
64513W        W28281  42.915  38.346   0.339
64514W        W28282  17.719  16.775  10.510
64515W        W28283  27.641   4.206  11.589
64516W        W28284  27.454  44.914  13.045
64517W        W28285  30.152  32.055   1.290
64518W        W28286  26.954  20.562  13.790
64519W        W28287  13.230   5.927   4.131
64520W        W28288  15.787   5.327  14.436
64521W        W28289  37.350  14.329   0.845
64522W        W28290  33.461  18.296   0.371
64523W        W28291  42.932  42.424  12.930
64524W        W28292  24.532   7.357  11.961
64525W        W28293  16.227   7.836  13.016
64526W        W28294  38.949  10.376  13.023
64527W        W28295  12.762   7.245  13.360
64528W        W28296   8.284  33.059   4.673
64529W        W28297  40.026  23.988   0.966
64530W        W28298   3.894  36.057  12.952
64531W        W28299  36.067  33.075   0.966
64532W        W28300  16.297  25.200  12.493
64533W        W28301   2.750   9.740   1.772
64534W        W28302  32.072  27.043  11.028
64535W        W28303  30.466  35.013  12.910
64536W        W28304  26.110  40.478  13.977
64537W        W28305  12.810   3.225   0.743
64538W        W28306  36.889   3.296  14.363
64539W        W28307  39.020  23.566  12.883
64540W        W28308   6.907  27.542   2.880
64541W        W28309  20.166   2.873  10.981
64542W        W28310  12.227  17.136   1.737
64543W        W28311  10.689  37.971  12.961
64544W        W28312  34.030  41.315  14.459
64545W        W28313  25.096  19.114   4.154
64546W        W28314  37.362   9.853   3.305
64547W        W28315  20.231  23.509   0.440
64548W        W28316  43.482  25.476  12.359
64549W        W28317  14.615  16.260  11.377
64550W        W28318  41.030   4.766   0.827
64551W        W28319   3.363  43.314   2.264
64552W        W28320  43.875  23.234  14.913
64553W        W28321   5.268  43.271  14.309
64554W        W28322  13.611  33.021  13.459
64555W        W28323  13.188  39.449   3.280
64556W        W28324  10.166  28.554   4.162
64557W        W28325  33.071  30.489   2.775
64558W        W28326  34.501   7.406  12.006
64559W        W28327   6.818  21.147  11.556
64560W        W28328  44.286  18.100   1.316
64561W        W28329  30.916  13.189   1.880
64562W        W28330  30.600  37.421  14.484
64563W        W28331  40.892  15.614   0.365
64564W        W28332   4.428  32.968  14.857
64565W        W28333  38.527  33.558   5.234
64566W        W28334  43.839  18.070   4.623
64567W        W28335  15.279  32.551  11.436
64568W        W28336  29.570  32.571   0.950
64569W        W28337  36.413  21.566  12.360
64570W        W28338   7.687   0.418  14.896
64571W        W28339  36.080  38.892  11.540
64572W        W28340  17.252   6.894  10.615
64573W        W28341  14.291  28.991   4.796
64574W        W28342   3.916  32.459   0.359
64575W        W28343  29.142  31.632   2.699
64576W        W28344  38.979  35.042  10.523
64577W        W28345   7.209  37.902   1.828
64578W        W28346  20.737  36.349  13.500
64579W        W28347  11.268  41.518   2.197
64580W        W28348  36.061  20.614  13.341
64581W        W28349  42.004  29.551  11.063
64582W        W28350  32.537   7.719   4.180
64583W        W28351  17.715  33.445   0.299
64584W        W28352  32.417  38.062   3.201
64585W        W28353  41.516  30.925  11.610
64586W        W28354   5.245  25.962   2.322
64587W        W28355  25.176   9.393   3.385
64588W        W28356   1.302   4.944   3.152
64589W        W28357   1.414  24.482  10.967
64590W        W28358  28.184   3.867  12.408
64591W        W28359  44.971  11.663  10.968
64592W        W28360  34.433   3.439  11.964
64593W        W28361  27.035   1.822  13.852
64594W        W28362  28.038  38.561  10.640
64595W        W28363  10.222  23.231   2.719
64596W        W28364  32.401  35.522   2.230
64597W        W28365  31.515  12.847  11.929
64598W        W28366  33.082  28.456   4.604
64599W        W28367  29.451   2.287   4.259
64600W        W28368  42.903  14.790   1.792
64601W        W28369  37.964  22.035   3.156
64602W        W28370  11.330  42.948  11.518
64603W        W28371   5.728  40.511  13.482
64604W        W28372   1.310   5.705   2.670
64605W        W28373  12.638  40.966  11.101
64606W        W28374   2.344   5.687  14.771
64607W        W28375  34.382  17.688   2.251
64608W        W28376  34.414  40.513   2.688
64609W        W28377   0.388   1.277  14.924
64610W        W28378  27.002  15.600  14.353
64611W        W28379  27.597  23.678   0.419
64612W        W28380  17.202  36.964   4.833
64613W        W28381   0.949   0.363   0.761
64614W        W28382  24.119  11.739   3.686
64615W        W28383   7.795   3.287   2.281
64616W        W28384  12.186  28.074  12.863
64617W        W28385  30.093  30.142  14.306
64618W        W28386  17.195  25.156  10.922
64619W        W28387  19.586  35.109   4.727
64620W        W28388  13.111   3.736   3.254
64621W        W28389  43.445  13.843  10.551
64622W        W28390  42.428   9.682   3.652
64623W        W28391  41.513  12.129   1.924
64624W        W28392  37.506  21.177  13.515
64625W        W28393  44.941  34.415  13.058
64626W        W28394   2.896  10.347   4.139
64627W        W28395   9.331  17.572  12.827
64628W        W28396  23.514   2.370   3.687
64629W        W28397  26.615   0.752  11.578
64630W        W28398  41.026  40.799  12.450
64631W        W28399  38.976  33.581   4.305
64632W        W28400  44.870  22.066  12.505
64633W        W28401  13.702  43.377   4.640
64634W        W28402   9.284  25.173   4.266
64635W        W28403  19.752  24.991   0.938
64636W        W28404  42.898  28.598   3.834
64637W        W28405  30.907   1.384   3.278
64638W        W28406  18.283   0.359  14.881
64639W        W28407   4.874  24.488  10.453
64640W        W28408  36.052  26.955  13.541
64641W        W28409  15.650  25.135  14.331
64642W        W28410  41.036  33.559  11.983
64643W        W28411  15.723  18.088   1.219
64644W        W28412  38.934  12.170   4.726
64645W        W28413   1.388  42.503   2.799
64646W        W28414   0.782  22.240   0.316
64647W        W28415  10.284   2.732  11.096
64648W        W28416  29.517  44.444  10.093
64649W        W28417  40.978  44.480  14.365
64650W        W28418  35.437   1.973  13.509
64651W        W28419  15.128  32.466   1.709
64652W        W28420  14.304  11.696   3.217
64653W        W28421  25.195  32.576   3.232
64654W        W28422  39.874   4.834  12.922
64655W        W28423  22.161   7.691   0.902
64656W        W28424   7.283   9.373   3.722
64657W        W28425  13.673  22.075  12.460
64658W        W28426  29.563   6.690  10.508
64659W        W28427  38.029  26.982  11.991
64660W        W28428  32.952  12.651  11.484
64661W        W28429  21.580   9.651  14.311
64662W        W28430  24.118  27.593  14.362
64663W        W28431  17.746  12.311   0.413
64664W        W28432  37.869  37.446  14.871
64665W        W28433   6.329  14.732  12.477
64666W        W28434  39.815  32.047  10.531
64667W        W28435  17.307  22.732   3.842
64668W        W28436  11.325  30.118   0.947
64669W        W28437  25.037  41.985   0.755
64670W        W28438  19.776  24.126   9.936
64671W        W28439   6.808  41.868  13.365
64672W        W28440  21.242  12.822   2.211
64673W        W28441   3.302  44.343  12.839
64674W        W28442  30.574  34.523  12.977
64675W        W28443   3.738  10.371   4.258
64676W        W28444  13.130   2.842  14.770
64677W        W28445   0.383  35.928   0.769
64678W        W28446  28.152  44.753  11.577
64679W        W28447  10.349   2.956   3.341
64680W        W28448  40.355  38.021  10.914
64681W        W28449  27.465  43.019  14.365
64682W        W28450  27.136   7.693  14.404
64683W        W28451  34.372  28.998  11.375
64684W        W28452  28.516  12.263  12.538
64685W        W28453  33.536  13.648  12.400
64686W        W28454  10.193  44.277   1.267
64687W        W28455  16.218  44.481   1.821
64688W        W28456  10.292  24.688  14.998
64689W        W28457  32.421  23.241   3.316
64690W        W28458  37.393  25.521  13.945
64691W        W28459  29.468  22.147   3.212
64692W        W28460  43.797  33.132   3.743
64693W        W28461   9.336   7.828   1.384
64694W        W28462   5.731   1.895  14.942
64695W        W28463  25.649  10.716   0.801
64696W        W28464   5.414  31.997  13.532
64697W        W28465  13.813  27.562  12.844
64698W        W28466   4.207  20.119   2.668
64699W        W28467  11.311   0.464  14.834
64700W        W28468  16.806  14.212  11.993
64701W        W28469  42.848  16.795  14.955
64702W        W28470  12.688  39.831   0.948
64703W        W28471   6.387  17.790   3.195
64704W        W28472   1.917  29.923  13.380
64705W        W28473  38.377  44.762  14.278
64706W        W28474  27.059   8.869  10.521
64707W        W28475  29.094   0.837  10.477
64708W        W28476   9.817  40.904   4.141
64709W        W28477  11.281  34.439  13.025
64710W        W28478  35.956  28.435   3.770
64711W        W28479  35.597   4.426  14.869
64712W        W28480  12.358  10.337  11.067
64713W        W28481   7.258  12.735  10.641
64714W        W28482  14.194  42.001  13.437
64715W        W28483   9.887   8.326  14.378
64716W        W28484  37.338  30.970  14.838
64717W        W28485  22.724  44.307  14.894
64718W        W28486   5.789  10.318   4.127
64719W        W28487  25.579  21.254  13.050
64720W        W28488  44.925  31.548  10.602
64721W        W28489  36.472  25.114   9.964
64722W        W28490  33.885  24.173  12.045
64723W        W28491  35.560   5.288  12.934
64724W        W28492   7.842   0.849   5.096
64725W        W28493  38.527  17.674  12.869
64726W        W28494  31.553  36.366   4.332
64727W        W28495  41.041  27.035   2.264
64728W        W28496  10.849  23.612  11.600
64729W        W28497   0.943  33.924  12.948
64730W        W28498  37.964  16.293  12.429
64731W        W28499  44.798  37.869   3.646
64732W        W28500  28.551  28.138   2.398
64733W        W28501   5.262  38.402  13.942
64734W        W28502  25.963  38.445   2.711
64735W        W28503   1.249  35.870   3.212
64736W        W28504  18.562  26.621  12.951
64737W        W28505  36.348  22.240  11.031
64738W        W28506  38.012  18.732   1.269
64739W        W28507  39.397  38.386   3.811
64740W        W28508   9.272  31.896   4.188
64741W        W28509   1.765  41.495  12.384
64742W        W28510  18.600  36.347  11.031
64743W        W28511   7.354  28.088  10.997
64744W        W28512   0.947  18.601   1.934
64745W        W28513  11.365  20.590  12.365
64746W        W28514   0.945  43.306  13.393
64747W        W28515  39.960   5.215   0.816
64748W        W28516   8.220  38.035   0.258
64749W        W28517  39.830  20.534  11.067
64750W        W28518   9.678  36.895   1.794
64751W        W28519  19.044  12.295   1.845
64752W        W28520  16.173  44.932  14.465
64753W        W28521  41.396  15.744  13.310
64754W        W28522  19.198  25.522  11.419
64755W        W28523  18.628  37.580  13.981
64756W        W28524  18.068  10.723  14.901
64757W        W28525  16.633  23.525  12.479
64758W        W28526  24.492  16.271  11.592
64759W        W28527  19.160  12.709   2.275
64760W        W28528  19.058   8.787   3.646
64761W        W28529  36.574  22.123  14.844
64762W        W28530  27.613  11.860   3.860
64763W        W28531   9.713   3.930   2.364
64764W        W28532  18.074  43.333  11.128
64765W        W28533  15.757   8.207   4.131
64766W        W28534  37.522   7.364  12.902
64767W        W28535   5.363   2.370   0.808
64768W        W28536   5.926  42.959  11.586
64769W        W28537  14.162  23.648  13.458
64770W        W28538  23.709  43.481  13.850
64771W        W28539  30.636   3.360  10.498
64772W        W28540  25.581  27.198   1.305
64773W        W28541   2.460   7.811   0.290
64774W        W28542  26.993  38.512   1.276
64775W        W28543  17.752  42.867  11.874
64776W        W28544  18.237   5.204   3.751
64777W        W28545  29.989   6.872  10.607
64778W        W28546  23.719  27.038  13.494
64779W        W28547  22.533   0.799   0.451
64780W        W28548  13.123  38.562   2.727
64781W        W28549  18.706  41.450  14.280
64782W        W28550  10.260  19.135  11.497
64783W        W28551  23.498  31.113  14.414
64784W        W28552  40.341   0.825  14.484
64785W        W28553   7.882  40.329  10.485
64786W        W28554  24.553  39.049  10.593
64787W        W28555  40.824  24.998  12.504
64788W        W28556  21.094  31.425  13.501
64789W        W28557  42.420  10.162  12.411
64790W        W28558  10.353   3.264   2.860
64791W        W28559  34.496   0.823  14.884
64792W        W28560  23.526  26.547  14.923
64793W        W28561  24.490  24.678   4.181
64794W        W28562  12.632   6.420   0.924
64795W        W28563  40.544  30.454   3.203
64796W        W28564  27.684  31.504  11.486
64797W        W28565  27.112  33.114  12.344
64798W        W28566  23.994  12.143   4.148
64799W        W28567  27.154  31.597   3.256
64800W        W28568   1.833   0.966   0.247
64801W        W28569  17.684  37.954  12.461
64802W        W28570   3.839  17.234  11.032
64803W        W28571  22.082  30.629  10.912
64804W        W28572   0.978  12.307  12.479
64805W        W28573  25.150   7.796   0.285
64806W        W28574  41.810  25.014   2.215
64807W        W28575  31.120  29.032  14.278
64808W        W28576  31.634  23.572  14.970
64809W        W28577   2.243  20.254  13.431
64810W        W28578  28.630  17.560  11.884
64811W        W28579  40.465  13.800  12.524
64812W        W28580  21.096   3.906  13.014
64813W        W28581   1.769  10.234  10.501
64814W        W28582   2.262  40.444  11.862
64815W        W28583  33.577  14.218  12.824
64816W        W28584  43.412  41.517  14.849
64817W        W28585  30.000  38.909  13.856
64818W        W28586  24.209  16.650   0.406
64819W        W28587  19.254  37.346  12.399
64820W        W28588  34.877  22.718  11.083
64821W        W28589  30.035  22.122  10.995
64822W        W28590  24.507  14.283  11.091
64823W        W28591  36.851  25.128   1.864
64824W        W28592  32.962   3.375  11.117
64825W        W28593  35.561  22.655  14.366
64826W        W28594  18.729  10.332  11.013
64827W        W28595   8.281  40.379  14.322
64828W        W28596  23.040  29.159   4.710
64829W        W28597   2.408   3.876   3.782
64830W        W28598  29.646  19.778  11.613
64831W        W28599  43.350  12.789  10.404
64832W        W28600  33.401  15.245  13.891
64833W        W28601  31.140  35.589   1.247
64834W        W28602  14.706  38.326   4.657
64835W        W28603  34.448  19.241  11.459
64836W        W28604  22.047  41.898   2.796
64837W        W28605   5.249  11.134   3.263
64838W        W28606   1.306  44.416   0.929
64839W        W28607  26.585   3.407  11.522
64840W        W28608  35.567   7.670   3.689
64841W        W28609  38.421  44.461  13.405
64842W        W28610  33.908   4.448  13.479
64843W        W28611  10.855  41.399   2.885
64844W        W28612  37.907  35.047  13.867
64845W        W28613   9.166  20.626   1.372
64846W        W28614  18.153   5.224  14.966
64847W        W28615  44.814   1.803  14.354
64848W        W28616   0.302   8.167  13.814
64849W        W28617  20.656  27.594   3.664
64850W        W28618  32.478  21.537  12.394
64851W        W28619  39.544  12.817   4.239
64852W        W28620   5.360  16.250   1.380
64853W        W28621  32.532   5.901   4.689
64854W        W28622   4.941  41.016   4.354
64855W        W28623  10.846  21.562   1.896
64856W        W28624  26.079  18.198  13.369
64857W        W28625   3.823   7.408   4.836
64858W        W28626  44.461  10.331  13.539
64859W        W28627  32.140  40.019  10.103
64860W        W28628  22.518  19.209  13.942
64861W        W28629   9.771  11.272  11.501
64862W        W28630  15.609  22.735   3.837
64863W        W28631  43.408  17.146   2.262
64864W        W28632  32.109  39.899   2.890
64865W        W28633   5.775   4.773  10.617
64866W        W28634  11.289  25.096  13.544
64867W        W28635  41.800   7.721  14.400
64868W        W28636  28.460  23.205   1.769
64869W        W28637   5.221  37.017  11.444
64870W        W28638  34.431  10.774  14.496
64871W        W28639   1.958   6.197  10.926
64872W        W28640  30.477  29.508   2.743
64873W        W28641  16.567  25.984   1.264
64874W        W28642   4.211  21.227  11.559
64875W        W28643  40.855  42.494  14.863
64876W        W28644  23.523  12.772   3.305
64877W        W28645   1.325  33.612  14.873
64878W        W28646   9.835  17.241  13.995
64879W        W28647   9.354   8.296   1.383
64880W        W28648  24.020   6.677   3.299
64881W        W28649  30.551  42.349   3.787
64882W        W28650  13.607  28.538  10.914
64883W        W28651  20.729  41.952   4.676
64884W        W28652  20.621   8.225   3.684
64885W        W28653   3.809   9.776  13.034
64886W        W28654   0.269  12.126   2.319
64887W        W28655  30.563   5.407   1.925
64888W        W28656  18.715  24.097  13.541
64889W        W28657   1.894  19.698   2.262
64890W        W28658  26.470   8.654  13.385
64891W        W28659  44.822  16.666  13.532
64892W        W28660  17.117  18.105  13.793
64893W        W28661   2.239   6.905   0.766
64894W        W28662   2.302   9.225  12.914
64895W        W28663   3.765  24.977   2.835
64896W        W28664  35.556  30.491  12.089
64897W        W28665  42.286  33.073  14.016
64898W        W28666   2.845   3.796   4.629
64899W        W28667  22.103  11.316  14.955
64900W        W28668  35.077  31.138  11.583
64901W        W28669  35.564  11.145   2.685
64902W        W28670  24.620  35.592  14.999
64903W        W28671   9.715  20.697   1.287
64904W        W28672  21.544  10.261   1.831
64905W        W28673   8.221  17.692  14.407
64906W        W28674  31.139   8.213   0.772
64907W        W28675  28.533  43.804  13.449
64908W        W28676  14.095   2.811   3.336
64909W        W28677   5.197  19.146   2.850
64910W        W28678  43.317  21.669  10.587
64911W        W28679  29.575  29.082   3.643
64912W        W28680  12.799  39.442   3.350
64913W        W28681  32.394  35.432  11.390
64914W        W28682  10.344  33.535   1.404
64915W        W28683  23.731  26.170  13.376
64916W        W28684  30.632  37.904  14.468
64917W        W28685  19.228  20.683  13.433
64918W        W28686  33.918  41.423   3.791
64919W        W28687  34.571  21.716  11.089
64920W        W28688  32.911   9.175   2.400
64921W        W28689  41.513  23.599  11.518
64922W        W28690  36.422  14.603  13.011
64923W        W28691   2.386  43.308   3.252
64924W        W28692  42.391  37.429  12.016
64925W        W28693  13.236  26.205  11.017
64926W        W28694  22.575  10.172  10.619
64927W        W28695  40.511  13.816  13.951
64928W        W28696  28.442  22.185  11.034
64929W        W28697  37.364   7.393  11.538
64930W        W28698  15.748  44.348  12.005
64931W        W28699  20.537  17.778  12.926
64932W        W28700  30.452   0.943  13.441
64933W        W28701  41.301  21.121  14.385
64934W        W28702  10.382  41.026   1.412
64935W        W28703  18.083  11.725  11.860
64936W        W28704  35.866   7.294  13.904
64937W        W28705  22.201  34.975   1.329
64938W        W28706  27.081   3.220  12.346
64939W        W28707  42.342   2.258  10.445
64940W        W28708  10.641  25.640   3.644
64941W        W28709  41.981  13.649   2.792
64942W        W28710   2.235  16.144   0.932
64943W        W28711  24.184   9.824   1.391
64944W        W28712   1.924  15.256  11.027
64945W        W28713  22.675  28.957  12.832
64946W        W28714  23.560  37.355   4.608
64947W        W28715  42.298  33.065  12.533
64948W        W28716  24.104  22.149   3.646
64949W        W28717  20.063  39.531   4.677
64950W        W28718  18.272  15.807  11.435
64951W        W28719  39.956  33.624   2.409
64952W        W28720  20.098   3.775  11.534
64953W        W28721  16.721  11.180  13.332
64954W        W28722  38.841  26.579  14.896
64955W        W28723  27.088  10.252  13.907
64956W        W28724  14.119  28.935   2.365
64957W        W28725  32.091  37.963   1.429
64958W        W28726  23.119  27.014   1.383
64959W        W28727   4.233  32.109   0.339
64960W        W28728   2.418  35.027   5.566
64961W        W28729   4.797   1.387  14.964
64962W        W28730  14.295  32.094   4.811
64963W        W28731  13.641  35.520   2.218
64964W        W28732  26.682   7.670   0.850
64965W        W28733  32.109  25.520  12.052
64966W        W28734  37.921   6.897  10.623
64967W        W28735  43.897  27.656   2.364
64968W        W28736  29.513   8.172  13.938
64969W        W28737  13.252   2.243  14.993
64970W        W28738   3.231  37.472  13.434
64971W        W28739   3.277  11.664   0.860
64972W        W28740  18.640  11.785   2.864
64973W        W28741   3.918   8.899  12.520
64974W        W28742   8.862  30.457   2.300
64975W        W28743  12.225  20.755   2.727
64976W        W28744  24.094   7.241   3.147
64977W        W28745  31.557  40.873  12.073
64978W        W28746  40.040   9.768  13.978
64979W        W28747  12.827  30.024   0.962
64980W        W28748  19.534   8.667  14.424
64981W        W28749  29.583  22.743  10.515
64982W        W28750  33.422  24.509   0.371
64983W        W28751  20.051  23.166   2.756
64984W        W28752   8.789  16.236  13.033
64985W        W28753  30.638   4.443   4.756
64986W        W28754   2.729  31.049  12.505
64987W        W28755  12.700  26.682  10.443
64988W        W28756   9.384   1.759   4.710
64989W        W28757  26.985  26.040  14.766
64990W        W28758  40.482   1.894  10.099
64991W        W28759  18.617  34.870   3.341
64992W        W28760  22.077  33.915   3.244
64993W        W28761  16.779  15.138   2.769
64994W        W28762  36.463   6.203   3.339
64995W        W28763  29.112  43.921   2.311
64996W        W28764  11.364   4.217   1.319
64997W        W28765  31.642  10.801   0.310
64998W        W28766  31.039  26.702  11.558
64999W        W28767   4.382  14.805  13.892
65000W        W28768  29.632  40.355  14.804
65001W        W28769   7.226  10.288   2.250
65002W        W28770  16.784  21.083   0.253
65003W        W28771   0.472  43.366  10.969
65004W        W28772  17.586  35.886  13.050
65005W        W28773  15.655   0.849   3.720
65006W        W28774  21.237  12.269  10.945
65007W        W28775  32.058  33.467  11.395
65008W        W28776   7.665  23.034  14.885
65009W        W28777  35.359   6.792  11.392
65010W        W28778   5.748  40.972  12.894
65011W        W28779   8.845  26.205  14.908
65012W        W28780   4.421  21.692  10.558
65013W        W28781  15.604  38.933  13.497
65014W        W28782  43.301   2.907   3.661
65015W        W28783  12.343  16.263  12.367
65016W        W28784   5.806  12.198  13.460
65017W        W28785  29.112  11.653   3.280
65018W        W28786  39.546   0.860   0.793
65019W        W28787  31.900  18.623   3.632
65020W        W28788  37.869  10.644  14.994
65021W        W28789  20.608   5.908  14.988
65022W        W28790  36.359  26.184   2.694
65023W        W28791   7.853   0.394   1.345
65024W        W28792  34.027  26.702  11.418
65025W        W28793  30.102  34.906   4.772
65026W        W28794  24.716  36.053   2.200
65027W        W28795  18.748  43.016  14.291
65028W        W28796   4.351   1.424   4.642
65029W        W28797  18.103   6.274  12.470
65030W        W28798  30.016   4.349  13.386
65031W        W28799  30.413   7.736  13.854
65032W        W28800  21.027   9.280  11.973
65033W        W28801  29.489   2.883  14.880
65034W        W28802  13.701   5.929  12.867
65035W        W28803  25.552  35.452  10.546
65036W        W28804  21.643  41.800   0.892
65037W        W28805  17.079  21.518  11.911
65038W        W28806  18.652  42.018   1.817
65039W        W28807  38.526   1.874  12.064
65040W        W28808  35.867  23.094  13.539
65041W        W28809   4.822  22.121   4.134
65042W        W28810  24.112   7.377   5.131
65043W        W28811  20.087   9.806   3.367
65044W        W28812  44.369  40.018   2.849
65045W        W28813  18.287  44.819   3.795
65046W        W28814   2.390   3.276  11.534
65047W        W28815  29.467  41.322  11.964
65048W        W28816  18.564   6.280  14.804
65049W        W28817  26.578  35.097  14.856
65050W        W28818  22.629   6.887   4.219
65051W        W28819  10.809  24.638  14.961
65052W        W28820  10.820  12.744   2.753
65053W        W28821  23.143  10.167  10.562
65054W        W28822  13.128  35.426  12.897
65055W        W28823  17.103   4.396   1.821
65056W        W28824  24.601  20.196   4.157
65057W        W28825  42.793  35.381   0.750
65058W        W28826  36.938  36.894   0.800
65059W        W28827  24.584   4.391  14.767
65060W        W28828  13.810  22.062   3.865
65061W        W28829  27.057   9.860   0.412
65062W        W28830  19.549  17.624  11.908
65063W        W28831  43.271   5.920  13.404
65064W        W28832  41.861  30.052   2.336
65065W        W28833  22.696   1.435   2.775
65066W        W28834  41.851   1.473   1.246
65067W        W28835   1.830  35.436   2.324
65068W        W28836  25.134  41.807  11.056
65069W        W28837  16.719  16.244   3.660
65070W        W28838  37.850   9.678   4.253
65071W        W28839  19.135   6.693   0.367
65072W        W28840  34.509  14.320   2.233
65073W        W28841  16.092  30.041  14.277
65074W        W28842  13.226  36.501  13.374
65075W        W28843  26.160  31.467  13.811
65076W        W28844  10.222  44.828  11.867
65077W        W28845  17.164  29.495  13.381
65078W        W28846  34.895  27.568  12.839
65079W        W28847   8.676  23.586  12.486
65080W        W28848  11.772  17.579   0.899
65081W        W28849  10.829   9.651   5.587
65082W        W28850  37.527   0.796   3.301
65083W        W28851  11.626  40.356   4.687
65084W        W28852  43.821  44.337  14.483
65085W        W28853  44.892  13.121   4.688
65086W        W28854   8.753  11.634   1.878
65087W        W28855  40.366  22.009   2.723
65088W        W28856  40.841  28.109   1.927
65089W        W28857  21.652  22.167  11.557
65090W        W28858  14.095  19.141  10.100
65091W        W28859  44.978  42.900  13.974
65092W        W28860  33.461  34.540   2.894
65093W        W28861  18.733  29.642   5.167
65094W        W28862  14.322   0.906   4.350
65095W        W28863  32.637  17.227   1.247
65096W        W28864  26.646  21.667  10.907
65097W        W28865  32.026  30.083   4.649
65098W        W28866   5.917  37.942   4.732
65099W        W28867  41.526   5.268   2.332
65100W        W28868   1.939  37.552  11.495
65101W        W28869   2.235   1.292  12.349
65102W        W28870  26.992   3.767   2.707
65103W        W28871   3.215  17.305  14.279
65104W        W28872  13.834   4.399   2.395
65105W        W28873   6.247   1.357   2.832
65106W        W28874  11.661  33.534  12.064
65107W        W28875  20.053  10.172   2.410
65108W        W28876  33.912  41.909  13.833
65109W        W28877  23.547  20.594  14.275
65110W        W28878   0.859  16.570  11.079
65111W        W28879  19.619  39.826  11.448
65112W        W28880  18.585  11.206  12.529
65113W        W28881  27.659  13.245  11.954
65114W        W28882  23.083  19.698  12.958
65115W        W28883  10.806   7.801  14.412
65116W        W28884  35.502  29.989  14.783
65117W        W28885  23.174  13.777   0.752
65118W        W28886  12.667  23.169  13.459
65119W        W28887  12.292  17.233   0.317
65120W        W28888  20.721  35.888  13.849
65121W        W28889  38.943   1.797  11.477
65122W        W28890  43.339  29.972  10.568
65123W        W28891   1.474  30.116  11.111
65124W        W28892  34.977  19.256  13.052
65125W        W28893  34.109  25.190  10.547
65126W        W28894  36.941  36.402   3.365
65127W        W28895  18.257  31.405  11.878
65128W        W28896  27.608  34.030   0.896
65129W        W28897  17.208  14.650   0.481
65130W        W28898  12.318   3.828  14.937
65131W        W28899  15.708  14.674  11.407
65132W        W28900  35.944  33.978  13.026
65133W        W28901  32.010  41.964   1.310
65134W        W28902  25.660  15.657  12.432
65135W        W28903   3.726  29.154  14.826
65136W        W28904  19.761  11.139  13.982
65137W        W28905  19.182  40.943   4.641
65138W        W28906  39.914   8.742  11.393
65139W        W28907  28.522  14.777  11.584
65140W        W28908  12.756  34.578   4.651
65141W        W28909   4.926  21.187   4.307
65142W        W28910   0.960  38.887  13.391
65143W        W28911  13.647  29.647  11.921
65144W        W28912  29.085  30.530  14.993
65145W        W28913  27.519  18.578  13.457
65146W        W28914  38.492  32.936   1.833
65147W        W28915  26.538  28.562   1.884
65148W        W28916  40.510  44.920  13.357
65149W        W28917  18.568  14.732   3.708
65150W        W28918  11.325  31.123   3.358
65151W        W28919  44.905  10.312  11.527
65152W        W28920  14.741  25.077  10.466
65153W        W28921  21.180  35.461  13.347
65154W        W28922  33.475  39.464  11.440
65155W        W28923  23.618   8.256   2.232
65156W        W28924  20.535  34.987  11.396
65157W        W28925  42.447  12.138   2.410
65158W        W28926   1.333   9.822   2.221
65159W        W28927  36.579  37.456   0.874
65160W        W28928  44.892   0.271   0.353
65161W        W28929  19.553  20.643  13.856
65162W        W28930  15.686  22.562   3.336
65163W        W28931  21.092  19.564   5.266
65164W        W28932  43.443  26.497  10.538
65165W        W28933   8.786  25.637  13.018
65166W        W28934   9.303  37.486   2.784
65167W        W28935  10.785  44.327  10.485
65168W        W28936  34.509   4.273   1.704
65169W        W28937  26.636  42.468   0.448
65170W        W28938  30.590  41.866   0.864
65171W        W28939  14.242  43.927  13.336
65172W        W28940  33.598  42.812  14.508
65173W        W28941  29.012  12.140  11.426
65174W        W28942  35.975   6.211  14.820
65175W        W28943  19.549   1.902  13.377
65176W        W28944  17.190  23.077   1.423
65177W        W28945  11.323   4.885  13.409
65178W        W28946  34.409   5.699   3.300
65179W        W28947  31.500   7.671   1.327
65180W        W28948  10.138  40.907  10.637
65181W        W28949  12.686   1.767   1.431
65182W        W28950   1.934   4.785  11.063
65183W        W28951  37.949   7.303  11.082
65184W        W28952  25.679   9.881   0.841
65185W        W28953  13.150  44.265   0.773
65186W        W28954  36.013   2.270   2.291
65187W        W28955   2.350  28.003  10.521
65188W        W28956  11.372  10.244  10.897
65189W        W28957  38.431  29.107   5.174
65190W        W28958  18.694  43.961  14.870
65191W        W28959  27.177   7.869   0.782
65192W        W28960  44.278   2.303   1.705
65193W        W28961  12.169  44.934  13.057
65194W        W28962  17.562  41.979  12.097
65195W        W28963  16.792  31.087  12.891
65196W        W28964  10.156  17.145  11.018
65197W        W28965  33.004   0.271  14.371
65198W        W28966  17.173  26.201   3.663
65199W        W28967  27.947  31.916  12.903
65200W        W28968  13.153  13.819  11.568
65201W        W28969  13.113  37.932   4.656
65202W        W28970  29.983  20.057  13.365
65203W        W28971  38.980  34.889  13.408
65204W        W28972  42.809  42.464  10.526
65205W        W28973   9.153  39.533   1.696
65206W        W28974  28.124   6.258  10.521
65207W        W28975   8.253  43.907   4.232
65208W        W28976  10.345  23.155   1.283
65209W        W28977  18.295  18.595  13.027
65210W        W28978  39.482   8.184   0.885
65211W        W28979  30.586  42.811  13.976
65212W        W28980  28.995  14.795  12.973
65213W        W28981  17.259  17.581  12.039
65214W        W28982  39.012  39.365   4.653
65215W        W28983  44.501   9.818  14.854
65216W        W28984  33.494  26.682   2.259
65217W        W28985  27.023  23.689   1.420
65218W        W28986  39.052  44.808   3.257
65219W        W28987  37.559  15.274   4.283
65220W        W28988  37.571  39.838   3.153
65221W        W28989  35.048  38.062  11.963
65222W        W28990  13.125   6.779   3.154
65223W        W28991  28.586  14.763   4.242
65224W        W28992  17.265  10.254   1.273
65225W        W28993  16.737  42.897  13.976
65226W        W28994  35.431  44.954   3.304
65227W        W28995  33.563  44.801   0.310
65228W        W28996  31.128  27.481   1.869
65229W        W28997  36.507   5.840   4.185
65230W        W28998  21.215  38.959   2.717
65231W        W28999   1.734  12.361  14.469
65232W        W29000  16.197  10.790   4.742
65233W        W29001  42.024  25.164  12.396
65234W        W29002   1.476  33.426   3.817
65235W        W29003  40.921  28.960  14.383
65236W        W29004  14.280  43.918   4.751
65237W        W29005  42.375   6.905  13.867
65238W        W29006   6.217  41.845  13.995
65239W        W29007  27.631  33.089   3.652
65240W        W29008  14.117  33.881  14.998
65241W        W29009  41.817   3.937   4.638
65242W        W29010  42.780   4.828   4.326
65243W        W29011   7.173  21.226   0.918
65244W        W29012  25.133  32.118   4.136
65245W        W29013  43.457  37.980  12.086
65246W        W29014  22.623  30.972   1.255
65247W        W29015  32.447   3.407  11.895
65248W        W29016  11.129  41.406  10.963
65249W        W29017  41.872  24.125   2.662
65250W        W29018  18.282  23.129  11.072
65251W        W29019  23.604  28.168  13.336
65252W        W29020  38.823  37.509   0.877
65253W        W29021  37.361  17.756  13.828
65254W        W29022  39.951  42.426   2.889
65255W        W29023  30.053   1.473   0.296
65256W        W29024  23.540  41.480  11.557
65257W        W29025  30.983   6.909   1.243
65258W        W29026  31.442  35.544   3.780
65259W        W29027  16.720  37.413   4.268
65260W        W29028  33.106   9.786   2.783
65261W        W29029  14.148  16.135  12.449
65262W        W29030   5.696  29.514   0.960
65263W        W29031  42.288  25.489  10.992
65264W        W29032   1.861   0.420   3.211
65265W        W29033  41.040  28.938  13.440
65266W        W29034   4.935  25.016   1.808
65267W        W29035  14.618  44.428  14.333
65268W        W29036  29.651  42.411   2.386
65269W        W29037  41.515   9.865   4.717
65270W        W29038  36.377   4.308  11.869
65271W        W29039  33.051  36.889   3.634
65272W        W29040  43.776  38.051   2.200
65273W        W29041   1.953  24.070   4.268
65274W        W29042  39.385  43.859   2.273
65275W        W29043   7.311   0.280   0.906
65276W        W29044  22.168   5.431   2.349
65277W        W29045  25.049  32.395  12.432
65278W        W29046  26.084  19.666   4.240
65279W        W29047   5.314  29.471   0.370
65280W        W29048   9.162  22.118  13.935
65281W        W29049  34.557  40.334   0.426
65282W        W29050  10.772  37.481  11.544
65283W        W29051  33.417  23.616  14.924
65284W        W29052  33.624   4.803   2.819
65285W        W29053  28.579  17.199   1.793
65286W        W29054  11.256  13.747   1.242
65287W        W29055  17.711   1.912  11.997
65288W        W29056   7.887  38.829  11.399
65289W        W29057   2.233   1.896  13.540
65290W        W29058  42.951  21.646   0.437
65291W        W29059  39.477  23.001  11.971
65292W        W29060  16.107   0.431  13.009
65293W        W29061  32.007  20.708  14.291
65294W        W29062  34.929   0.836   0.778
65295W        W29063   2.371  35.978  13.837
65296W        W29064  35.036   4.440   1.395
65297W        W29065  34.906  39.959   4.770
65298W        W29066  42.005  14.629  12.943
65299W        W29067  10.755   5.778  14.357
65300W        W29068  30.924   3.815   0.923
65301W        W29069   8.838  26.462   2.320
65302W        W29070   1.733   1.253  14.772
65303W        W29071   2.351   0.396  13.496
65304W        W29072   6.786  19.574   0.934
65305W        W29073   9.708   7.274  11.903
65306W        W29074  31.562  16.612   0.899
65307W        W29075  44.787  31.053  14.368
65308W        W29076  35.540   7.282   4.800
65309W        W29077   2.279  27.583   2.812
65310W        W29078  11.801  21.589  10.573
65311W        W29079  42.788  42.960   2.257
65312W        W29080  43.298  43.806  13.020
65313W        W29081   5.791   0.403  10.497
65314W        W29082  13.316  15.111  10.151
65315W        W29083  10.272  10.364  12.013
65316W        W29084  33.622  11.276  11.418
65317W        W29085  10.346  11.768  11.887
65318W        W29086  15.679   3.369   0.244
65319W        W29087   7.206  18.275  10.445
65320W        W29088  26.054  40.539   0.816
65321W        W29089  15.205  24.126   3.791
65322W        W29090   3.216   4.732  14.923
65323W        W29091  35.084  12.252  11.067
65324W        W29092  31.554   6.843  14.476
65325W        W29093  16.576  16.248   1.382
65326W        W29094  40.925   9.389   0.346
65327W        W29095  34.390  41.828   3.283
65328W        W29096  32.109  42.370  13.424
65329W        W29097  25.520  39.467   0.773
65330W        W29098  22.552  11.776   1.404
65331W        W29099   0.291   0.982   3.258
65332W        W29100   8.875  31.524   4.771
65333W        W29101  43.282   1.944   0.314
65334W        W29102  28.457  14.200  12.482
65335W        W29103  17.245  14.215   4.682
65336W        W29104  15.656  21.045  14.290
65337W        W29105  31.092  29.034  12.850
65338W        W29106  28.148   4.293   0.869
65339W        W29107  22.233  23.719  10.589
65340W        W29108   8.779  23.185  12.510
65341W        W29109  32.099  41.877  12.446
65342W        W29110  24.016  21.675  14.471
65343W        W29111   5.831  29.025  13.530
65344W        W29112  14.830  36.024   0.967
65345W        W29113  31.912   6.737   0.379
65346W        W29114  36.915  15.637   1.367
65347W        W29115   7.311  22.201  13.326
65348W        W29116  31.074   6.217   2.372
65349W        W29117  21.663  33.933   0.344
65350W        W29118  38.061  36.503  10.482
65351W        W29119  12.829  28.052  11.121
65352W        W29120  32.932  34.072  11.599
65353W        W29121  32.532  37.919  13.930
65354W        W29122   2.771  16.782  14.002
65355W        W29123  16.781   7.737   4.280
65356W        W29124  35.032  11.275   4.767
65357W        W29125   9.201   8.766  12.452
65358W        W29126   2.742   4.823   1.268
65359W        W29127  10.752  23.506  11.973
65360W        W29128   1.754  25.602   0.271
65361W        W29129  16.148   6.227  10.939
65362W        W29130  13.611  34.538   2.303
65363W        W29131   4.704   0.880  12.405
65364W        W29132  40.428   7.665  14.496
65365W        W29133  33.040  24.993  14.821
65366W        W29134  34.024  16.247  12.856
65367W        W29135  10.339  17.716  13.921
65368W        W29136  43.924   5.281  11.418
65369W        W29137   9.246   1.474  11.997
65370W        W29138  10.210   5.354  12.869
65371W        W29139  21.689  26.569  11.082
65372W        W29140   3.412  39.996   0.963
65373W        W29141  35.044  41.930  13.034
65374W        W29142  10.329  24.125  14.406
65375W        W29143   4.853   0.375   2.834
65376W        W29144   2.373  27.550   0.254
65377W        W29145  44.479  26.668   1.740
65378W        W29146  33.553  18.637  12.569
65379W        W29147  21.752  22.129   0.397
65380W        W29148   5.197  31.471   0.470
65381W        W29149  33.892  44.374  13.506
65382W        W29150  13.254  28.588  11.524
65383W        W29151  11.140   0.776  13.875
65384W        W29152   2.447  33.408   3.331
65385W        W29153  12.188   1.469   3.301
65386W        W29154  35.091   5.749   2.868
65387W        W29155  12.348  18.079   1.874
65388W        W29156   3.954  24.056   4.211
65389W        W29157   7.201  27.678   0.465
65390W        W29158  15.185  37.365  10.421
65391W        W29159  28.098  40.847   4.272
65392W        W29160  10.727  27.588   1.239
65393W        W29161  26.963  17.279   4.294
65394W        W29162  25.705   6.771   4.766
65395W        W29163  42.407   4.833   2.391
65396W        W29164  20.546  36.877   1.787
65397W        W29165  39.053  34.577   0.778
65398W        W29166  37.436  17.158   2.825
65399W        W29167  29.449   1.254  11.510
65400W        W29168  38.866  11.314  10.578
65401W        W29169  20.166  15.279   1.412
65402W        W29170   6.237  25.005  13.407
65403W        W29171  40.353  26.543   0.801
65404W        W29172  13.725  32.445  11.963
65405W        W29173  16.616  15.662  13.364
65406W        W29174  31.534  14.188   4.184
65407W        W29175  37.006  42.481   4.773
65408W        W29176  16.088   9.152   4.639
65409W        W29177  38.025   9.153  13.791
65410W        W29178  14.121   9.826  11.998
65411W        W29179  35.878  28.613   2.673
65412W        W29180  35.588  13.200  12.566
65413W        W29181  44.989  22.579  14.816
65414W        W29182  29.625  25.167   2.317
65415W        W29183  14.227   3.265   4.186
65416W        W29184  11.240   2.773  10.568
65417W        W29185  29.452  22.139   4.281
65418W        W29186  38.964  38.415  13.517
65419W        W29187  23.600  35.013  11.486
65420W        W29188  21.617   4.916   1.247
65421W        W29189  26.108  13.202  11.553
65422W        W29190  36.524  20.125  14.380
65423W        W29191  43.430  32.597   4.205
65424W        W29192  20.190  34.461   2.901
65425W        W29193  44.885  43.408   3.704
65426W        W29194  35.914   8.186  12.899
65427W        W29195  30.601  12.763   3.263
65428W        W29196  12.289  23.605  10.908
65429W        W29197  31.140  30.627  10.108
65430W        W29198  11.674  19.156   0.958
65431W        W29199  32.992   6.727  13.905
65432W        W29200  24.002   1.801   2.732
65433W        W29201  30.948  33.542  11.496
65434W        W29202   4.349  17.296   3.849
65435W        W29203  19.757  19.633  11.589
65436W        W29204  22.711  12.185  12.937
65437W        W29205  33.985   1.314   1.863
65438W        W29206  27.166  40.030   3.805
65439W        W29207  10.824  15.139   2.718
65440W        W29208  26.157  16.207   2.178
65441W        W29209  35.896  31.512  10.411
65442W        W29210  27.542  40.459  10.436
65443W        W29211  13.296  42.000   2.312
65444W        W29212  31.401   5.764   2.283
65445W        W29213   1.269  16.598   4.831
65446W        W29214  11.143  42.012   2.304
65447W        W29215   7.364  28.968  13.043
65448W        W29216  35.873  44.451  14.510
65449W        W29217   8.695  28.463  11.541
65450W        W29218   7.292   1.779  11.610
65451W        W29219  22.557  32.018   4.771
65452W        W29220  32.030  35.093   3.147
65453W        W29221   5.772  40.052  14.374
65454W        W29222  38.509  29.147  12.527
65455W        W29223  28.140  28.435  14.961
65456W        W29224  18.607  17.760   3.368
65457W        W29225   0.488  14.315  13.006
65458W        W29226   1.918  32.435   2.891
65459W        W29227   2.346  21.098  12.504
65460W        W29228  39.414   2.820  13.323
65461W        W29229  29.562  16.707   2.388
65462W        W29230  44.928  30.095  11.049
65463W        W29231  34.891   3.734   3.720
65464W        W29232  25.500  36.435   1.367
65465W        W29233   9.310   4.387   0.480
65466W        W29234  40.836  28.101   2.316
65467W        W29235   8.185  32.477  13.839
65468W        W29236   5.777  32.031   3.345
65469W        W29237  20.237  41.845  11.902
65470W        W29238  33.065  34.376  11.062
65471W        W29239  17.257   9.389  14.503
65472W        W29240  40.500  44.970   0.270
65473W        W29241  40.930   7.277  11.926
65474W        W29242  17.674  33.029  13.351
65475W        W29243  24.123  18.628  14.352
65476W        W29244  34.109   5.329  13.016
65477W        W29245  10.141  36.543  14.831
65478W        W29246   0.281  19.604  13.009
65479W        W29247  42.493   5.756  14.899
65480W        W29248   2.231   5.767   2.363
65481W        W29249   8.292  14.252  10.519
65482W        W29250  14.126  21.138   5.302
65483W        W29251  40.360  38.522  10.939
65484W        W29252  12.720  17.090   1.876
65485W        W29253   2.351  43.020   0.323
65486W        W29254   9.209  38.916   3.631
65487W        W29255  21.701  10.669  10.589
65488W        W29256  22.555  41.326   0.740
65489W        W29257  37.967  41.930  12.048
65490W        W29258  22.717  32.423   2.220
65491W        W29259  30.953  11.337  13.393
65492W        W29260  39.422  37.489  13.018
65493W        W29261   0.301  17.299  14.868
65494W        W29262  44.443  23.085   9.957
65495W        W29263   1.806  10.263   3.333
65496W        W29264  33.965   3.238   1.809
65497W        W29265  26.138  38.009   4.183
65498W        W29266   7.200  33.399  11.947
65499W        W29267  34.984   2.823   3.816
65500W        W29268  37.873  13.169  11.499
65501W        W29269  13.809  15.214   1.829
65502W        W29270  21.689  24.118   3.350
65503W        W29271  19.662  29.608  11.458
65504W        W29272  24.668  18.764   2.834
65505W        W29273  40.992  34.002   1.907
65506W        W29274   7.402  19.052  11.064
65507W        W29275  16.282   4.283  11.881
65508W        W29276   2.815  22.658   1.246
65509W        W29277  38.427  11.736   4.778
65510W        W29278  25.995  33.511  10.501
65511W        W29279  21.140   1.252   4.733
65512W        W29280  11.690  26.953  13.422
65513W        W29281   0.314  30.535  14.862
65514W        W29282  38.447  29.434  12.524
65515W        W29283   4.846  40.370   4.786
65516W        W29284  39.537   2.960   3.358
65517W        W29285  42.300   8.378  10.910
65518W        W29286  32.978   8.794  12.054
65519W        W29287  12.209  40.351  12.032
65520W        W29288  22.097  36.569  12.848
65521W        W29289  23.049  23.240   0.392
65522W        W29290  14.719   5.706   2.691
65523W        W29291  40.501  17.264   5.278
65524W        W29292  10.291  18.642   4.348
65525W        W29293  37.517  28.988  13.983
65526W        W29294  14.654  38.416  10.928
65527W        W29295  30.921  25.511   0.758
65528W        W29296   0.785  32.918   2.856
65529W        W29297   5.741  30.963   1.880
65530W        W29298  28.960  26.683   2.223
65531W        W29299   9.259  40.032   1.385
65532W        W29300  40.977  43.856  13.047
65533W        W29301  33.056  21.515  11.513
65534W        W29302  24.991  11.276  14.006
65535W        W29303  21.098  33.448   2.397
65536W        W29304  41.949   5.300   0.778
65537W        W29305  36.348  30.965  13.319
65538W        W29306  17.578   6.355   0.838
65539W        W29307  39.986  18.749  12.475
65540W        W29308  42.859  22.101  10.408
65541W        W29309  14.648   1.928  10.917
65542W        W29310  41.827  42.343   0.900
65543W        W29311   9.761  37.428   3.755
65544W        W29312   9.767  30.119  13.991
65545W        W29313  28.101  40.437   4.638
65546W        W29314  35.488  38.824  11.977
65547W        W29315   8.751   0.889   0.936
65548W        W29316   5.238  18.720   4.292
65549W        W29317  41.807  29.476   0.379
65550W        W29318  43.285  28.961   2.255
65551W        W29319  13.732  14.156  10.626
65552W        W29320   7.759  34.560  10.917
65553W        W29321  17.685  13.154   3.304
65554W        W29322  18.133  36.950   1.404
65555W        W29323   3.361  32.606  13.926
65556W        W29324  28.632  25.155  10.561
65557W        W29325   6.890  30.620  12.418
65558W        W29326  20.696  18.179  13.063
65559W        W29327   5.764   4.719  14.766
65560W        W29328  41.315  22.039  11.380
65561W        W29329   5.372  31.443  13.326
65562W        W29330  41.317  15.760  11.514
65563W        W29331   1.950  34.612   9.993
65564W        W29332   3.842  40.028   1.841
65565W        W29333  33.519  32.011  11.889
65566W        W29334  44.367   5.344  14.322
65567W        W29335  44.781  34.887  14.336
65568W        W29336  43.481  36.002   4.332
65569W        W29337  23.059  30.467  14.809
65570W        W29338  19.560   5.804   4.250
65571W        W29339  38.931  37.350   3.380
65572W        W29340  37.565  12.279   4.271
65573W        W29341   2.863  39.961   2.672
65574W        W29342   2.277   3.380   4.756
65575W        W29343  44.803   8.749   2.704
65576W        W29344  34.407  19.757  11.108
65577W        W29345   6.426  29.599  10.448
65578W        W29346  17.149  20.271   5.614
65579W        W29347  43.791  41.344  12.535
65580W        W29348  31.638  12.754   4.732
65581W        W29349  25.176  21.082  11.529
65582W        W29350  17.584  15.195  14.340
65583W        W29351  38.357  35.373   3.849
65584W        W29352  29.041   4.362  13.817
65585W        W29353   9.177  18.116   2.852
65586W        W29354  26.177  41.900  13.824
65587W        W29355   9.762  20.043   3.379
65588W        W29356  13.121  18.189   2.347
65589W        W29357  12.124  43.974   1.313
65590W        W29358  26.534  27.149   3.805
65591W        W29359   9.241   3.423  12.053
65592W        W29360  31.015  34.945   4.152
65593W        W29361  38.943  40.001   0.263
65594W        W29362   2.734  12.676   4.668
65595W        W29363  18.699  27.662   1.752
65596W        W29364  26.096  40.468  10.484
65597W        W29365  23.221  36.419  12.076
65598W        W29366  31.923   9.886  14.317
65599W        W29367  24.614  13.117   0.922
65600W        W29368  29.537  38.570   1.409
65601W        W29369  16.164  23.043   9.578
65602W        W29370  21.752  20.223   4.755
65603W        W29371  11.776  43.003   0.859
65604W        W29372   5.711  22.105   0.289
65605W        W29373   6.412  42.370   4.627
65606W        W29374  10.271  39.416  11.512
65607W        W29375  16.261  40.052   2.677
65608W        W29376  30.067  44.930  12.362
65609W        W29377  34.380  30.105  14.926
65610W        W29378  18.647  43.917   0.435
65611W        W29379   8.688  23.989  10.500
65612W        W29380  25.506   2.365   4.256
65613W        W29381  20.269  22.231  11.532
65614W        W29382  42.018  28.663   4.688
65615W        W29383  24.619  35.503   1.230
65616W        W29384  19.085  30.027  13.524
65617W        W29385   9.857  19.179   1.823
65618W        W29386  17.177  39.010   0.779
65619W        W29387  29.527  11.758   1.847
65620W        W29388  28.110  40.844   1.317
65621W        W29389  18.288  30.996  11.492
65622W        W29390  25.527   3.236  10.991
65623W        W29391  28.990  34.376  11.586
65624W        W29392  22.098  29.011   2.267
65625W        W29393  39.968  12.718  14.914
65626W        W29394  13.343  44.292   2.894
65627W        W29395   9.231  22.685  12.933
65628W        W29396   5.336  34.091   4.176
65629W        W29397   6.259   7.225  13.886
65630W        W29398  22.639  25.547   1.783
65631W        W29399  16.611  20.156  14.476
65632W        W29400  22.203  39.897   2.903
65633W        W29401  27.649  16.772  14.351
65634W        W29402  12.237  38.018  12.948
65635W        W29403  37.049  40.501   2.233
65636W        W29404  44.807  43.351  12.539
65637W        W29405   1.973   8.338  10.963
65638W        W29406  19.647  29.007  12.362
65639W        W29407  25.589  23.596  12.546
65640W        W29408   5.375  31.487   3.244
65641W        W29409  25.971   6.909  11.562
65642W        W29410   8.376   4.334  13.835
65643W        W29411  31.025   5.307  11.934
65644W        W29412   4.897   5.203   4.810
65645W        W29413   5.422  19.597  10.963
65646W        W29414  44.920  35.933  11.431
65647W        W29415  44.852  24.486  14.397
65648W        W29416   8.334  13.115  11.872
65649W        W29417  27.089  28.045  14.384
65650W        W29418  18.078  44.879  10.519
65651W        W29419  25.126  40.046  11.087
65652W        W29420  17.770  12.722  13.481
65653W        W29421   0.986   8.386  14.304
65654W        W29422  28.506   7.179   0.361
65655W        W29423  23.013  16.151  11.917
65656W        W29424  17.166   3.744   4.634
65657W        W29425  37.030  41.838  11.035
65658W        W29426  22.041  32.536   0.396
65659W        W29427  44.930   9.375  14.874
65660W        W29428  39.429  34.025   4.265
65661W        W29429  41.801  36.984   1.926
65662W        W29430  44.481  14.725  11.504
65663W        W29431  44.491   0.794  10.451
65664W        W29432   4.802  22.028  11.948
65665W        W29433  23.031   4.757  12.893
65666W        W29434  40.453  43.374  12.442
65667W        W29435  32.534  22.010  13.327
65668W        W29436   0.762   0.836   4.835
65669W        W29437  21.654  12.781  12.443
65670W        W29438  36.978   7.327  12.091
65671W        W29439   6.341   4.446  12.847
65672W        W29440  27.965  27.081   3.812
65673W        W29441  32.513  32.607  14.789
65674W        W29442  40.809  43.938  14.299
65675W        W29443  38.526  17.164  13.931
65676W        W29444  41.407   1.240  11.504
65677W        W29445  38.949  36.523   1.330
65678W        W29446  30.024  11.676  12.875
65679W        W29447  37.905  15.614  10.477
65680W        W29448  44.321  41.514  10.157
65681W        W29449  41.921  32.529   4.338
65682W        W29450   6.420   8.319  12.863
65683W        W29451   0.962  19.208  14.287
65684W        W29452  30.161  24.222   3.863
65685W        W29453  10.808  40.008   4.154
65686W        W29454  13.193   6.193   4.728
65687W        W29455  34.070  22.105   2.836
65688W        W29456  29.475  19.639  12.544
65689W        W29457   8.692  14.713   2.826
65690W        W29458  15.084  24.019  11.392
65691W        W29459  39.343  40.891   4.773
65692W        W29460   4.797  15.202  12.009
65693W        W29461  14.115  42.011   2.807
65694W        W29462  27.608  41.975  14.782
65695W        W29463  22.643  26.049   3.634
65696W        W29464  18.565   3.438   2.250
65697W        W29465  31.896  41.295   1.795
65698W        W29466  41.817  23.160  10.605
65699W        W29467  39.988  44.494   4.271
65700W        W29468  28.987  37.022  12.433
65701W        W29469  36.390  37.072  14.482
65702W        W29470  24.646  38.863  14.485
65703W        W29471  24.576  15.718   0.418
65704W        W29472   1.753  14.337   0.925
65705W        W29473  31.598  26.184   4.223
65706W        W29474  30.979   1.797  14.801
65707W        W29475  26.526  17.129   2.871
65708W        W29476  36.944  32.029   4.720
65709W        W29477   5.264   8.865  10.450
65710W        W29478  21.695  12.717   1.419
65711W        W29479  38.497  20.261  14.359
65712W        W29480  11.730   8.830  12.920
65713W        W29481   7.780  21.650  13.409
65714W        W29482  14.104  20.698  12.829
65715W        W29483  44.824  36.864  11.107
65716W        W29484  10.161  35.943   4.127
65717W        W29485  14.787  41.398  10.929
65718W        W29486  15.186  19.657   2.844
65719W        W29487   6.299  24.120   4.730
65720W        W29488  13.761  31.419  10.611
65721W        W29489  17.733  43.988  13.966
65722W        W29490  11.756  25.591   2.674
65723W        W29491  23.218  27.636   1.332
65724W        W29492  13.613  10.237  13.516
65725W        W29493  18.564  20.034   4.138
65726W        W29494  12.215  12.726  10.441
65727W        W29495  14.831  36.359   1.809
65728W        W29496  19.576  15.305  10.541
65729W        W29497  25.642  38.512  10.452
65730W        W29498   4.764  27.601  10.913
65731W        W29499   3.897  21.219   1.245
65732W        W29500  25.497   1.939  13.014
65733W        W29501  24.577  30.419  12.841
65734W        W29502  37.873  41.968  14.442
65735W        W29503  39.341   8.833   3.274
65736W        W29504  35.894  19.724   1.915
65737W        W29505  40.853  44.892  12.511
65738W        W29506  12.328   6.264   2.816
65739W        W29507  42.794  37.890  10.565
65740W        W29508  12.787  14.334  10.997
65741W        W29509  19.572  30.516  12.083
65742W        W29510   3.740  15.812   2.258
65743W        W29511  19.716  11.759   2.861
65744W        W29512  43.280   7.297  13.984
65745W        W29513  27.676  44.279   4.215
65746W        W29514   8.656  24.530   4.612
65747W        W29515  10.312  25.494   4.221
65748W        W29516  31.146   6.732   2.342
65749W        W29517  24.038   4.863   1.223
65750W        W29518  39.979  23.236  11.088
65751W        W29519  31.100  20.585   1.862
65752W        W29520  12.726  40.390   2.675
65753W        W29521  36.047  21.568   1.233
65754W        W29522   3.411  27.027  12.019
65755W        W29523  28.663  42.481   0.291
65756W        W29524  16.632  31.429   9.990
65757W        W29525  41.958  37.993  14.501
65758W        W29526  23.590  32.030  12.882
65759W        W29527  14.817  15.610  11.098
65760W        W29528  12.242   5.820  13.881
65761W        W29529  31.408  41.857  13.834
65762W        W29530  44.448   3.709   1.709
65763W        W29531  10.196  28.116   4.611
65764W        W29532  32.400  30.443   5.283
65765W        W29533  21.129  43.310   4.241
65766W        W29534  44.925   3.925  11.503
65767W        W29535  26.579   5.829  10.934
65768W        W29536  30.502  34.994  14.914
65769W        W29537  37.856  34.392  11.492
65770W        W29538  29.140  19.649  13.047
65771W        W29539  26.561  38.464   2.225
65772W        W29540  30.450  13.685   4.193
65773W        W29541  19.634   9.251   1.279
65774W        W29542  31.906  25.981   3.733
65775W        W29543  34.603  15.120   3.844
65776W        W29544  34.548   5.339  11.500
65777W        W29545  15.276  42.399   3.171
65778W        W29546  12.227  21.256  13.414
65779W        W29547  31.498   3.797   4.694
65780W        W29548   1.362   6.849   0.443
65781W        W29549  11.162  31.509   3.635
65782W        W29550  24.991   5.921  13.865
65783W        W29551  12.286   3.926   4.123
65784W        W29552  31.437  36.353  10.642
65785W        W29553  20.737  38.966   0.338
65786W        W29554  20.142  23.213   0.783
65787W        W29555   6.808  11.227   1.339
65788W        W29556   6.724  44.316   4.685
65789W        W29557  10.865   8.787  14.006
65790W        W29558  29.033  32.466  12.837
65791W        W29559  16.075  13.285  12.505
65792W        W29560  23.500  30.645  13.973
65793W        W29561  37.913  38.943   3.381
65794W        W29562  17.259  18.256  11.866
65795W        W29563   9.215  37.437   1.803
65796W        W29564  25.215  13.643   0.317
65797W        W29565  22.114  37.021   3.179
65798W        W29566   6.743  11.190  10.945
65799W        W29567  35.005  10.739   2.848
65800W        W29568  42.869  15.101  12.472
65801W        W29569  13.637  13.281  11.565
65802W        W29570   0.427   1.307   3.860
65803W        W29571  44.973  38.861   4.160
65804W        W29572  25.967  14.785   2.681
65805W        W29573  26.661  42.484  11.551
65806W        W29574  36.380  32.423  10.541
65807W        W29575  14.768  13.298  10.024
65808W        W29576  10.756  12.227   4.262
65809W        W29577  33.582  16.665  13.499
65810W        W29578   3.846  32.010  12.888
65811W        W29579  33.887  30.981  11.075
65812W        W29580  22.039  39.984   4.279
65813W        W29581  37.351  32.527   2.399
65814W        W29582  31.540  35.467   1.887
65815W        W29583   5.213  28.954  10.425
65816W        W29584  39.475  20.118   4.608
65817W        W29585  24.685  28.475  12.884
65818W        W29586  39.986  20.088  13.813
65819W        W29587   7.299  16.146   3.644
65820W        W29588  41.940  12.795  11.973
65821W        W29589   5.712  40.955   0.429
65822W        W29590  23.170   2.772   1.761
65823W        W29591  20.627  36.060   0.907
65824W        W29592   4.781  35.035   1.780
65825W        W29593  34.115  10.853  13.378
65826W        W29594  35.601  17.630   0.321
65827W        W29595  23.105  42.918   3.231
65828W        W29596  44.979   4.873   3.698
65829W        W29597  44.463  14.742  13.024
65830W        W29598   2.781  28.158  14.905
65831W        W29599  33.937  13.141  14.781
65832W        W29600  15.292  41.535   3.745
65833W        W29601  43.821   9.263  11.448
65834W        W29602  44.442  39.948   9.998
65835W        W29603  21.530  29.663   3.845
65836W        W29604  34.980   7.860   4.277
65837W        W29605  13.144  19.089  13.968
65838W        W29606  11.860   6.831   4.337
65839W        W29607  32.930  37.022   2.378
65840W        W29608  31.604  32.999   4.772
65841W        W29609   6.790  17.764   1.761
65842W        W29610  13.165  29.128  10.542
65843W        W29611   7.873  34.874  10.565
65844W        W29612  32.590  38.863   0.904
65845W        W29613  14.717  39.031   0.749
65846W        W29614   7.177  14.181  11.587
65847W        W29615  22.100  12.673   4.830
65848W        W29616  18.679  12.763   1.782
65849W        W29617  19.155  19.555  12.900
65850W        W29618  42.394   1.969   3.758
65851W        W29619  12.644  25.104   2.851
65852W        W29620  32.463  17.766  12.577
65853W        W29621  28.085   9.165  12.022
65854W        W29622  38.968  37.388   9.951
65855W        W29623  32.100  16.200  13.353
65856W        W29624  19.204  22.077   1.240
65857W        W29625  27.622  41.843   2.852
65858W        W29626  22.113  23.510  12.495
65859W        W29627   0.780  39.459  11.870
65860W        W29628  11.683  24.524  12.514
65861W        W29629  22.179  17.254  11.586
65862W        W29630  31.445   1.878   3.701
65863W        W29631   6.338  24.578  13.934
65864W        W29632   5.701   1.868   3.277
65865W        W29633  13.213  17.613  11.123
65866W        W29634  13.651   9.274   2.759
65867W        W29635  33.045  16.764  12.344
65868W        W29636  43.851  16.179  12.838
65869W        W29637  30.623  18.640   0.315
65870W        W29638  39.544  17.773  10.926
65871W        W29639  41.945  20.741  10.921
65872W        W29640  22.026  12.828   2.183
65873W        W29641  31.052   1.402  11.544
65874W        W29642   5.241  20.143   3.635
65875W        W29643  15.316  24.108   1.347
65876W        W29644  11.699  34.083  13.333
65877W        W29645  27.455  28.007  11.079
65878W        W29646  33.028   6.390   3.688
65879W        W29647  33.544  24.185  12.403
65880W        W29648  24.518  26.658   4.166
65881W        W29649  26.076   2.282   3.778
65882W        W29650  22.521  10.706  11.384
65883W        W29651  28.492  42.291   1.867
65884W        W29652  23.165  33.087   3.152
65885W        W29653  17.119   5.764  12.502
65886W        W29654  31.084  15.303   0.437
65887W        W29655  32.446  14.663  12.082
65888W        W29656  10.285  14.701  11.547
65889W        W29657  31.561   5.388  11.445
65890W        W29658  28.538   6.893   4.712
65891W        W29659   3.752  39.507  11.428
65892W        W29660   0.853  27.462   4.737
65893W        W29661  21.570  18.272   5.091
65894W        W29662  28.628  18.562   3.799
65895W        W29663   1.820  34.005   3.344
65896W        W29664   7.223  13.258   0.440
65897W        W29665  17.101  35.860  11.374
65898W        W29666  19.128  37.431   3.691
65899W        W29667  32.140   2.731  12.021
65900W        W29668  36.946   6.866   3.738
65901W        W29669  29.443  18.248  13.932
65902W        W29670   6.280   2.374   1.845
65903W        W29671   2.371  17.184   2.851
65904W        W29672  38.959   1.785  11.062
65905W        W29673  35.016  12.617   0.840
65906W        W29674  16.186  30.459  10.965
65907W        W29675  37.487  39.848  11.588
65908W        W29676   6.395  12.684   4.769
65909W        W29677  33.485   3.381  10.055
65910W        W29678   4.316  36.452   9.457
65911W        W29679   1.818  28.526   2.298
65912W        W29680  14.819  29.058   4.640
65913W        W29681  25.587  24.006   4.774
65914W        W29682  37.351  10.261  14.961
65915W        W29683  26.131  26.494  11.408
65916W        W29684  26.137  12.182   2.319
65917W        W29685  33.967  42.824   1.382
65918W        W29686  15.185   6.382   2.799
65919W        W29687  17.248  35.044   2.201
65920W        W29688  18.151  28.517   1.696
65921W        W29689  26.086  37.405  14.904
65922W        W29690  28.132  19.755  12.415
65923W        W29691  32.104  27.061  10.516
65924W        W29692   3.312   3.852  11.513
65925W        W29693  29.599   8.703   1.820
65926W        W29694  38.420  14.745  10.930
65927W        W29695  44.470   6.397   5.260
65928W        W29696  41.376  42.815  10.415
65929W        W29697   9.830   7.239   1.931
65930W        W29698  30.137  18.185  10.987
65931W        W29699   0.833  38.503   3.819
65932W        W29700   4.445  13.617  14.950
65933W        W29701   5.923  22.516  11.003
65934W        W29702  13.228  38.331   2.398
65935W        W29703  27.660  41.858   4.353
65936W        W29704   8.342  32.908  12.012
65937W        W29705  24.009  32.454   1.702
65938W        W29706  28.115   6.191  13.798
65939W        W29707  25.168  23.570   4.611
65940W        W29708  32.018  25.196  13.794
65941W        W29709  39.910  28.527  13.919
65942W        W29710  34.519  15.795  10.593
65943W        W29711  41.821  30.011  11.881
65944W        W29712  17.718  32.952  14.928
65945W        W29713   9.741  15.789   2.408
65946W        W29714   1.809   5.794  14.844
65947W        W29715  28.617   4.419  10.456
65948W        W29716   2.425   1.339  13.796
65949W        W29717  44.260  12.258  12.504
65950W        W29718   2.846  34.962  12.367
65951W        W29719  12.793  41.016   1.404
65952W        W29720  18.598  30.932   3.343
65953W        W29721   4.420   4.402   0.348
65954W        W29722  19.102  34.511  14.789
65955W        W29723  36.983  26.481  13.499
65956W        W29724  21.143   0.931  14.512
65957W        W29725   0.834  22.019  13.416
65958W        W29726   2.737  15.611  14.923
65959W        W29727  24.071  23.112   1.317
65960W        W29728  36.484  21.513  14.485
65961W        W29729  12.714  17.139   4.232
65962W        W29730  18.633  14.211   4.182
65963W        W29731   0.909  15.183  14.905
65964W        W29732  25.147  41.538   3.150
65965W        W29733  19.773  11.237  12.547
65966W        W29734   2.775  25.489  10.961
65967W        W29735  31.096  37.367   2.850
65968W        W29736  28.946  28.079   0.846
65969W        W29737   8.852   8.251  14.895
65970W        W29738  33.610  13.614   4.314
65971W        W29739  10.349  31.574   1.709
65972W        W29740  40.894  29.973  11.392
65973W        W29741  28.155  19.107  13.528
65974W        W29742  31.946   2.410  14.953
65975W        W29743  24.720  41.803  12.929
65976W        W29744  25.676  18.286  12.012
65977W        W29745   5.303  33.123   2.314
65978W        W29746  31.140  26.547   3.176
65979W        W29747  24.620   1.963   1.900
65980W        W29748  34.462  38.827   4.733
65981W        W29749  33.419   8.865  13.006
65982W        W29750  38.329  15.088   2.728
65983W        W29751  18.292   8.367   3.181
65984W        W29752  26.167   1.277   1.818
65985W        W29753  31.993   0.811  14.393
65986W        W29754  20.658  10.262   4.143
65987W        W29755  20.092  11.148   3.723
65988W        W29756  28.978   4.863  13.482
65989W        W29757  16.143   9.166   2.811
65990W        W29758  25.162  10.679  14.965
65991W        W29759  17.676  27.972  11.035
65992W        W29760  17.780  35.108   1.899
65993W        W29761  41.446  10.771  12.877
65994W        W29762   6.308   7.185   3.834
65995W        W29763  19.242   9.890   1.771
65996W        W29764  15.692  42.342  10.471
65997W        W29765  41.471  37.490  10.995
65998W        W29766  32.102  13.695  13.539
65999W        W29767  40.495  29.072   0.943
66000W        W29768   3.866   7.345  14.472
66001W        W29769   5.762  26.660   5.319
66002W        W29770  30.625  24.185  13.018
66003W        W29771  43.414  23.689  10.907
66004W        W29772  32.914  14.622  13.876
66005W        W29773  38.840  43.950  14.964
66006W        W29774  38.885  26.654   4.304
66007W        W29775  14.122  13.815  11.964
66008W        W29776  10.855   3.948  14.971
66009W        W29777  33.613  43.439   0.275
66010W        W29778  15.172  12.736   1.265
66011W        W29779  37.576  44.976   4.661
66012W        W29780  40.501   9.758  13.043
66013W        W29781  25.593  24.685  10.897
66014W        W29782   5.931  36.085   4.830
66015W        W29783  19.124  15.278   0.802
66016W        W29784  26.647  15.782   2.822
66017W        W29785  35.870  17.101   4.832
66018W        W29786   7.864  31.408  13.322
66019W        W29787  28.169  26.534   3.735
66020W        W29788   7.714  32.568  13.466
66021W        W29789  42.930  13.113   3.751
66022W        W29790  34.923   0.403   2.733
66023W        W29791  41.329  14.202   1.742
66024W        W29792  37.377  41.423  11.575
66025W        W29793  23.708  15.266  13.870
66026W        W29794   4.435  41.333  13.063
66027W        W29795  36.561   9.669  11.522
66028W        W29796  21.665  40.500   0.939
66029W        W29797  39.856  24.050   3.672
66030W        W29798  42.949   9.873   2.229
66031W        W29799  22.643  16.585   4.233
66032W        W29800  13.696  27.138   0.402
66033W        W29801  10.256  43.431   4.256
66034W        W29802  42.298  42.282   4.792
66035W        W29803  30.111  10.635   3.641
66036W        W29804  27.943  32.977  11.484
66037W        W29805   3.917  22.616   2.337
66038W        W29806  16.138  11.254  12.014
66039W        W29807  16.807  40.015   4.790
66040W        W29808  25.029  35.051  12.967
66041W        W29809  30.156   9.227   0.438
66042W        W29810   6.272  18.117  14.836
66043W        W29811  28.107  40.015   1.314
66044W        W29812  42.803  11.284  10.040
66045W        W29813   1.348  21.200   3.223
66046W        W29814  40.920  10.210   4.252
66047W        W29815  28.635  11.662   4.201
66048W        W29816  44.280  15.819   4.663
66049W        W29817  39.537   2.741   0.329
66050W        W29818  13.843  37.883  12.091
66051W        W29819  21.637   8.812   1.839
66052W        W29820   9.364  42.785  13.048
66053W        W29821   1.970  44.817   2.874
66054W        W29822  13.630  17.689  12.398
66055W        W29823   7.381   0.358   3.363
66056W        W29824  28.094  30.496   1.341
66057W        W29825  21.717   2.345  13.966
66058W        W29826   9.714   8.776  11.098
66059W        W29827  30.550  15.309  14.005
66060W        W29828  21.191  24.976   1.369
66061W        W29829  26.650  37.926   0.449
66062W        W29830  28.177  28.091  10.092
66063W        W29831  15.693  32.064  10.575
66064W        W29832   2.459   4.783   2.203
66065W        W29833   9.216  13.696   0.299
66066W        W29834  34.947  35.990   1.426
66067W        W29835  35.091  33.979   3.362
66068W        W29836  30.459  17.201  14.900
66069W        W29837  22.107  37.464   1.701
66070W        W29838  42.296  27.982   3.323
66071W        W29839   5.360  38.958  10.617
66072W        W29840  10.240   3.748  11.414
66073W        W29841   5.853  21.549   0.902
66074W        W29842  30.053  33.089   1.308
66075W        W29843   9.306  32.460  14.000
66076W        W29844  11.199  25.553   2.714
66077W        W29845  21.559  15.601  10.099
66078W        W29846  11.853  36.091   5.137
66079W        W29847  13.199  35.524   4.676
66080W        W29848  38.882  17.778  11.066
66081W        W29849  35.403  27.574   0.789
66082W        W29850  33.029  14.113   0.370
66083W        W29851  30.921  35.584  12.578
66084W        W29852  22.141  40.392   4.709
66085W        W29853  32.562  25.704  10.404
66086W        W29854  30.524  30.139   2.224
66087W        W29855  25.036   8.840   4.816
66088W        W29856  15.133  30.048  12.959
66089W        W29857  23.628  42.357  12.844
66090W        W29858  27.492  16.715  11.600
66091W        W29859  30.447  29.998  10.998
66092W        W29860   2.913   8.281   0.409
66093W        W29861  17.214   4.304  13.474
66094W        W29862   8.398  44.388   0.404
66095W        W29863   2.836  24.020  13.330
66096W        W29864   1.823   2.901   4.167
66097W        W29865  15.627   5.843  14.936
66098W        W29866   0.372  29.600   0.810
66099W        W29867  43.977   1.875   3.673
66100W        W29868  22.658  10.310  13.350
66101W        W29869  28.110  34.910   2.261
66102W        W29870  41.902  10.186  14.915
66103W        W29871  35.384  15.701  12.418
66104W        W29872  37.010  11.354   2.200
66105W        W29873  44.417   7.701   2.223
66106W        W29874  25.635  12.239   4.298
66107W        W29875  33.559  26.559   0.438
66108W        W29876  23.001  37.503   1.434
66109W        W29877  27.480  42.836  10.417
66110W        W29878   9.879   4.428  13.985
66111W        W29879  44.501  18.586  12.563
66112W        W29880  14.126  27.640  12.479
66113W        W29881  43.464  27.151  13.471
66114W        W29882  29.561  30.070   4.718
66115W        W29883  31.898  18.165   1.895
66116W        W29884   5.346  28.678  14.866
66117W        W29885   9.667  37.028  10.631
66118W        W29886  31.596  36.388  12.922
66119W        W29887   3.303   9.266  14.480
66120W        W29888  13.791  19.691   4.731
66121W        W29889  17.108  23.555  11.073
66122W        W29890  33.128  34.000   3.310
66123W        W29891  10.634  26.457  13.926
66124W        W29892  26.092   3.403   3.378
66125W        W29893  36.856   5.325   2.871
66126W        W29894  10.171  16.217  12.523
66127W        W29895   7.736  18.617   4.350
66128W        W29896   1.913  41.373   0.790
66129W        W29897  44.999  20.210   1.929
66130W        W29898  42.508  28.598  14.441
66131W        W29899  32.049  11.313   2.746
66132W        W29900   5.722  16.793   1.799
66133W        W29901  42.945  21.094   3.841
66134W        W29902  13.198  28.564   3.335
66135W        W29903  12.283   7.772  12.505
66136W        W29904  16.678  37.367   3.703
66137W        W29905  18.173  43.835  10.978
66138W        W29906   2.867  19.244   1.344
66139W        W29907  12.355  29.068   0.277
66140W        W29908   9.840   0.323   1.230
66141W        W29909   4.450  11.330   1.407
66142W        W29910  27.482  37.493  11.523
66143W        W29911   1.261  44.885   4.132
66144W        W29912  23.121   2.856   3.339
66145W        W29913  23.558  43.402  10.982
66146W        W29914   9.193   0.417  13.332
66147W        W29915  37.450  27.604  14.874
66148W        W29916  36.524   9.880  10.542
66149W        W29917  17.735  40.348  12.975
66150W        W29918   6.822   7.267  10.999
66151W        W29919   7.395  27.007   1.215
66152W        W29920   7.226  42.479   4.289
66153W        W29921   0.777   4.395  12.556
66154W        W29922  22.122  42.444   2.378
66155W        W29923  18.599  18.622   0.914
66156W        W29924   5.209  32.958   4.825
66157W        W29925  24.974  15.324  10.526
66158W        W29926   4.718  22.709  12.413
66159W        W29927  29.579  38.821  12.501
66160W        W29928  32.142  11.654   1.407
66161W        W29929  39.346  30.999  13.996
66162W        W29930  23.165  34.585  12.373
66163W        W29931  34.037  27.574   2.365
66164W        W29932  21.696  27.517  10.411
66165W        W29933  39.966  29.473   2.275
66166W        W29934  36.411  27.069   1.343
66167W        W29935  34.988   8.212   2.779
66168W        W29936  20.701  31.592  14.012
66169W        W29937   1.885  18.267  11.394
66170W        W29938  33.553  36.029   9.929
66171W        W29939  27.664  33.941   1.872
66172W        W29940  33.954   8.238  11.538
66173W        W29941   1.245  30.415   2.242
66174W        W29942  31.952  11.630  14.317
66175W        W29943   4.855  34.377   3.196
66176W        W29944  35.963  38.515  11.569
66177W        W29945  24.541  15.796  12.864
66178W        W29946  24.093  24.547   0.286
66179W        W29947  22.556  33.472   3.677
66180W        W29948  25.507  16.120  11.984
66181W        W29949  40.959  15.818   2.299
66182W        W29950  30.080  23.072  13.460
66183W        W29951  16.649  17.307   2.384
66184W        W29952  21.225  35.966   1.227
66185W        W29953  38.480  27.081  10.558
66186W        W29954  30.564   8.728  12.045
66187W        W29955  42.973  43.291   4.823
66188W        W29956  24.036  16.644  10.541
66189W        W29957  11.716   6.890   0.431
66190W        W29958  18.761   6.744  13.938
66191W        W29959  25.132   7.392  10.549
66192W        W29960  29.521  14.139  13.315
66193W        W29961  33.401  42.411   1.450
66194W        W29962  18.718  11.688  13.988
66195W        W29963  25.165   5.901  12.975
66196W        W29964  36.354  36.891   2.745
66197W        W29965  23.642  19.155  14.830
66198W        W29966   8.329  20.219  14.980
66199W        W29967  31.554  24.201   0.286
66200W        W29968  12.770  28.586  13.039
66201W        W29969  36.953  20.665   3.374
66202W        W29970  27.588  42.877   3.692
66203W        W29971  23.066   6.272  14.415
66204W        W29972  28.937  17.640  12.504
66205W        W29973   0.353  27.518   3.176
66206W        W29974  40.479  23.056  12.087
66207W        W29975  17.647  11.292  10.404
66208W        W29976  23.599  13.717   1.397
66209W        W29977   4.346  10.768  13.310
66210W        W29978  30.553  43.274  10.636
66211W        W29979  14.732   7.781   2.705
66212W        W29980  12.610  39.469   4.140
66213W        W29981  34.422  35.897   3.655
66214W        W29982  34.419  33.118  14.910
66215W        W29983  14.148  29.484  14.377
66216W        W29984  37.443  44.999  13.536
66217W        W29985   2.343  22.161   1.839
66218W        W29986  20.657  25.646  11.469
66219W        W29987  13.283  24.074  12.402
66220W        W29988  26.034   7.364   0.869
66221W        W29989  21.635  39.974   3.754
66222W        W29990   4.794   1.890  12.903
66223W        W29991   8.818  44.795  11.437
66224W        W29992  18.585  19.261   0.275
66225W        W29993  15.272   8.221   0.833
66226W        W29994  19.560   9.728  12.082
66227W        W29995  20.069  30.591   1.226
66228W        W29996  40.869   5.248  14.985
66229W        W29997   7.230   7.227   3.174
66230W        W29998  34.895  35.100   1.350
66231W        W29999  15.809   6.186  14.011
66232W        W30000  15.638  29.966  11.044
66233W        W30001  43.930  22.613   0.341
66234W        W30002  20.225  28.947   0.289
66235W        W30003  31.114  40.451   4.618
66236W        W30004  39.910  40.440   4.148
66237W        W30005   4.221  29.627   2.732
66238W        W30006   9.284  17.573   1.729
66239W        W30007  35.547   5.835   5.177
66240W        W30008  38.931  25.585   0.906
66241W        W30009  22.620  21.744   0.754
66242W        W30010  32.959  18.780  13.416
66243W        W30011  28.043  17.136   1.294
66244W        W30012  41.793  17.594   2.664
66245W        W30013  33.043   2.347   4.635
66246W        W30014  38.504  26.465   0.435
66247W        W30015  43.948  31.988  12.434
66248W        W30016  28.488   9.294  11.119
66249W        W30017   8.683  42.946   4.198
66250W        W30018  29.059   1.413  12.353
66251W        W30019  44.799  12.833   3.168
66252W        W30020   4.378  25.119  13.830
66253W        W30021  42.843  40.047   4.347
66254W        W30022   2.877  14.337   4.785
66255W        W30023  42.489  20.580   2.697
66256W        W30024  10.825  32.562   0.803
66257W        W30025  43.286   9.675   1.806
66258W        W30026  26.511   7.821   0.285
66259W        W30027  24.205  28.572   1.313
66260W        W30028  43.358  34.061   2.812
66261W        W30029  33.886  23.544   1.724
66262W        W30030  36.391   7.192  14.469
66263W        W30031  34.528  22.547   1.806
66264W        W30032  20.649  10.304   1.783
66265W        W30033  29.977   0.405  10.957
66266W        W30034   8.373  39.409  14.350
66267W        W30035   1.760  29.566   3.653
66268W        W30036   6.722  27.172   3.666
66269W        W30037   6.809  42.802  10.937
66270W        W30038  39.916  31.082  13.349
66271W        W30039  40.979  23.082  14.402
66272W        W30040   2.350  19.191  13.370
66273W        W30041  18.625  28.659   2.866
66274W        W30042  29.509  41.476   0.324
66275W        W30043  28.156  19.573   1.825
66276W        W30044  18.105  21.254  11.535
66277W        W30045   2.927  17.166  11.868
66278W        W30046  33.986  38.443  13.818
66279W        W30047   0.897  13.169  11.931
66280W        W30048  23.610   5.901   3.300
66281W        W30049   1.279   2.901   4.262
66282W        W30050  11.339  16.193  12.397
66283W        W30051  22.656   0.292  14.912
66284W        W30052   2.238   9.186  13.901
66285W        W30053  34.920  16.217  14.395
66286W        W30054  14.217  43.822   2.867
66287W        W30055   1.360  38.071   2.405
66288W        W30056  35.480  35.602  12.880
66289W        W30057  26.660   1.951  10.089
66290W        W30058  20.538  21.210   0.335
66291W        W30059  38.534   5.239  14.887
66292W        W30060  37.985  27.008   2.282
66293W        W30061  10.695  27.996  10.906
66294W        W30062   6.227  17.299   1.807
66295W        W30063   3.745   5.933  10.617
66296W        W30064   3.396   9.808  13.483
66297W        W30065   1.906   1.453  14.330
66298W        W30066  42.292  40.420   4.823
66299W        W30067  25.560   1.907  14.990
66300W        W30068   9.738  22.647  10.547
66301W        W30069  33.406  34.457   3.816
66302W        W30070   1.258   2.420  14.293
66303W        W30071  27.053  16.715   0.934
66304W        W30072   2.365   7.377  10.101
66305W        W30073  13.347  31.109   2.796
66306W        W30074   2.418  12.636  10.430
66307W        W30075  35.951  10.202  14.438
66308W        W30076  41.013  29.521   5.270
66309W        W30077  21.516  21.124  10.042
66310W        W30078  40.548  29.926  10.912
66311W        W30079  40.002  24.177  10.438
66312W        W30080   2.840  38.405   3.674
66313W        W30081  18.601   4.824  11.862
66314W        W30082  30.990  12.295   3.782
66315W        W30083  34.585  33.896  11.116
66316W        W30084   6.307  33.527  13.984
66317W        W30085  10.640  24.718   2.343
66318W        W30086  43.794  33.071   3.152
66319W        W30087  26.071  19.070   4.617
66320W        W30088  43.456  30.038   0.283
66321W        W30089  28.985  27.576   0.919
66322W        W30090   4.392  23.203   4.155
66323W        W30091  26.559  25.501  10.492
66324W        W30092  13.179  42.952   2.222
66325W        W30093  12.188  23.002  10.555
66326W        W30094  12.317  16.740  13.958
66327W        W30095  32.103  24.035   4.252
66328W        W30096   7.753  30.991  10.596
66329W        W30097   8.297  32.615  14.278
66330W        W30098   8.675   3.765  10.523
66331W        W30099   0.253  18.671   0.418
66332W        W30100  12.642   1.742  13.491
66333W        W30101   7.893  32.596  14.327
66334W        W30102  38.339  11.345   3.364
66335W        W30103  16.740  21.172   5.757
66336W        W30104   9.241  17.285  10.520
66337W        W30105  13.244  20.559   0.469
66338W        W30106   4.780  12.259   1.211
66339W        W30107   8.384   8.796   3.831
66340W        W30108  25.700   0.484  14.964
66341W        W30109  36.382  23.576  12.524
66342W        W30110  14.165  11.344   2.333
66343W        W30111  39.000  44.356  13.048
66344W        W30112  23.022   6.199  10.960
66345W        W30113  14.334  39.381   4.229
66346W        W30114  33.545  21.602   3.339
66347W        W30115   9.708  34.970   4.334
66348W        W30116  37.394  38.445   4.774
66349W        W30117   5.907  41.790  13.336
66350W        W30118   7.410  39.866   4.304
66351W        W30119  22.146  30.109  11.050
66352W        W30120  41.835  34.066   0.924
66353W        W30121   4.375  25.183  10.529
66354W        W30122  23.697   6.386   0.873
66355W        W30123  32.115  36.412   0.257
66356W        W30124  18.272  31.421   1.883
66357W        W30125  27.959  23.030  12.390
66358W        W30126  41.500   8.172   4.675
66359W        W30127  37.542  27.027   2.782
66360W        W30128  13.835   3.452  13.323
66361W        W30129   4.353  16.090   4.817
66362W        W30130  27.162  12.308  11.873
66363W        W30131  43.270   6.762   1.877
66364W        W30132  31.150  34.518   2.881
66365W        W30133  21.679  24.099   1.718
66366W        W30134  11.823  21.133  14.493
66367W        W30135  13.332  14.154  14.308
66368W        W30136   9.648   2.755   1.220
66369W        W30137  37.900  31.135  11.421
66370W        W30138  25.687  11.676   3.847
66371W        W30139  20.642  13.221  13.913
66372W        W30140  41.872  21.164   4.204
66373W        W30141   0.854   6.751   0.358
66374W        W30142  43.313  30.149   4.233
66375W        W30143  11.264   5.321   1.727
66376W        W30144  29.556   0.415  11.107
66377W        W30145  44.416  40.545  12.932
66378W        W30146  24.582  36.568   3.222
66379W        W30147  23.142  23.021  13.993
66380W        W30148  25.654  15.106   2.241
66381W        W30149  41.962  34.905   2.870
66382W        W30150  13.746  38.541   2.867
66383W        W30151  37.887  18.726  11.518
66384W        W30152   3.871  23.183   0.738
66385W        W30153  41.013   3.933  11.959
66386W        W30154  25.527  21.529   3.740
66387W        W30155  21.074   8.285  10.626
66388W        W30156  31.088  12.720  10.154
66389W        W30157   9.381  13.327   0.840
66390W        W30158   9.857  25.217  13.005
66391W        W30159  14.114  18.098   3.804
66392W        W30160  38.460  20.248   0.425
66393W        W30161  21.737  15.774   0.278
66394W        W30162  24.208   0.446  10.418
66395W        W30163  30.043  16.594   0.765
66396W        W30164  42.443  14.669  12.973
66397W        W30165   4.710  12.759   3.754
66398W        W30166  19.533  26.669  13.455
66399W        W30167   7.835  17.612   0.737
66400W        W30168   3.218  10.174  11.877
66401W        W30169  36.464  42.871   9.996
66402W        W30170   4.418  30.648   0.466
66403W        W30171  20.084  27.587   1.394
66404W        W30172  38.571  25.995  11.020
66405W        W30173  42.494   5.325   4.654
66406W        W30174   6.239   2.231   4.122
66407W        W30175  23.548  26.169  14.288
66408W        W30176  15.809  15.170   4.727
66409W        W30177   4.839  23.698   0.386
66410W        W30178  21.174  16.735   5.139
66411W        W30179   7.193  12.117  14.974
66412W        W30180  42.521   1.353   1.300
66413W        W30181  24.133  33.572   9.522
66414W        W30182  22.653  29.977  13.536
66415W        W30183   4.228  23.595  14.786
66416W        W30184  28.659  41.504   4.824
66417W        W30185  22.110  26.645   2.689
66418W        W30186  32.934   7.196  14.919
66419W        W30187  23.181  37.558  13.029
66420W        W30188   2.386  20.122  11.378
66421W        W30189  39.317  25.125   4.731
66422W        W30190   4.233  38.486  12.469
66423W        W30191  20.272  23.647  14.314
66424W        W30192   3.225   5.731   0.923
66425W        W30193  22.125  40.448   3.849
66426W        W30194  44.818  36.096  10.523
66427W        W30195   1.369  15.287  12.942
66428W        W30196   1.316  38.943  11.433
66429W        W30197   6.788  17.078   0.780
66430W        W30198  37.996  15.801   1.401
66431W        W30199  14.818  26.651   4.221
66432W        W30200  15.242  17.724   3.355
66433W        W30201  43.461  43.272   1.383
66434W        W30202  16.159  39.999  12.956
66435W        W30203   3.286  17.619  11.444
66436W        W30204  15.587  30.478  13.368
66437W        W30205  41.016   0.839  10.441
66438W        W30206  21.611  33.920   1.434
66439W        W30207  33.532  35.395  11.926
66440W        W30208  11.810  24.976  13.486
66441W        W30209  43.296  27.065  10.477
66442W        W30210  44.284  21.102  13.473
66443W        W30211   7.283  24.205   2.846
66444W        W30212  40.405  23.690   0.292
66445W        W30213  40.512  35.089  14.468
66446W        W30214   1.907   3.953   4.788
66447W        W30215  23.492   4.392   0.776
66448W        W30216  33.971  24.046   3.303
66449W        W30217  13.810  43.487  14.964
66450W        W30218  28.108   8.208   0.383
66451W        W30219  11.271  16.776   1.239
66452W        W30220  21.122  18.596   3.713
66453W        W30221  42.844  17.085   5.257
66454W        W30222  34.508  37.951  12.000
66455W        W30223  27.154  11.845  10.522
66456W        W30224  11.798  17.285  10.639
66457W        W30225  24.600  39.927   2.323
66458W        W30226   7.895   5.315  13.798
66459W        W30227  19.256  23.553   1.238
66460W        W30228  44.997  37.984  11.375
66461W        W30229   1.846  24.116  13.958
66462W        W30230  42.968  41.475  13.437
66463W        W30231   7.864  21.049  10.052
66464W        W30232   2.347  40.969  14.773
66465W        W30233  36.904   7.335  12.454
66466W        W30234   7.733  12.781  10.915
66467W        W30235   4.707   0.893   3.865
66468W        W30236  40.801  23.137  12.376
66469W        W30237  39.542  34.059   3.340
66470W        W30238  32.017  20.574   2.375
66471W        W30239  39.384   7.818   5.608
66472W        W30240  33.453  35.602  12.503
66473W        W30241  33.987  25.107   2.372
66474W        W30242   5.855   6.783   1.233
66475W        W30243  31.037  10.735   3.632
66476W        W30244  29.169  16.178   4.171
66477W        W30245   2.923  26.496  14.394
66478W        W30246   9.674  15.256  13.801
66479W        W30247  38.824  10.226  10.520
66480W        W30248  28.069  13.726   0.338
66481W        W30249  11.272   7.228   2.232
66482W        W30250  12.284   5.806   0.964
66483W        W30251   3.918  40.052  11.045
66484W        W30252  15.665  43.304   9.922
66485W        W30253   7.312  35.908   3.744
66486W        W30254  41.967  28.095   4.313
66487W        W30255  11.791  27.038   1.712
66488W        W30256  29.943  23.509   1.888
66489W        W30257  29.024   6.727  13.369
66490W        W30258   0.851  25.047   2.386
66491W        W30259  40.408  13.137  10.541
66492W        W30260  17.282   8.194   0.888
66493W        W30261  21.096  26.572  11.453
66494W        W30262  38.543  20.657   1.817
66495W        W30263  13.665  22.088   2.251
66496W        W30264   9.724  12.636   9.972
66497W        W30265  32.609  20.761  11.071
66498W        W30266  42.446  42.309   3.758
66499W        W30267   8.840  12.723   2.704
66500W        W30268  39.016  37.559  14.321
66501W        W30269  41.884  44.956   3.812
66502W        W30270  24.630  25.055  13.339
66503W        W30271  24.697  32.509  12.565
66504W        W30272   7.383   1.319  11.980
66505W        W30273  14.715  12.207  12.971
66506W        W30274  24.121  42.405  12.059
66507W        W30275  13.157   4.311  14.878
66508W        W30276   9.877  17.588  14.888
66509W        W30277  37.523  43.388  11.054
66510W        W30278  36.947   6.316  10.043
66511W        W30279  16.643  17.643  12.414
66512W        W30280  15.798  12.198   0.369
66513W        W30281  33.989   4.932  10.522
66514W        W30282  32.618  13.746   2.400
66515W        W30283  29.511  14.135  14.411
66516W        W30284  18.276  43.435  13.387
66517W        W30285  40.375  18.088  12.490
66518W        W30286  37.084  25.588   3.642
66519W        W30287  32.508   9.770   1.293
66520W        W30288  41.886  28.447   1.745
66521W        W30289  44.415  20.544  11.910
66522W        W30290  38.029  41.336  11.032
66523W        W30291  41.973  27.967   2.675
66524W        W30292  39.011  36.853   4.284
66525W        W30293  12.273  31.930   3.820
66526W        W30294   2.953  17.266   4.742
66527W        W30295  16.290   5.404  11.518
66528W        W30296  41.486  12.832  12.889
66529W        W30297  16.222  24.123   0.789
66530W        W30298  44.830   0.294  12.856
66531W        W30299  32.142   4.351  13.320
66532W        W30300  27.636   0.829  10.959
66533W        W30301  30.926  13.651  11.606
66534W        W30302  35.058  13.263   1.786
66535W        W30303   7.860   5.410  11.050
66536W        W30304  41.424  25.082  13.923
66537W        W30305  12.790  23.224   1.260
66538W        W30306   0.755  26.142  14.990
66539W        W30307  44.996  24.062  11.575
66540W        W30308  26.499  26.184   4.347
66541W        W30309  39.893  35.921  11.483
66542W        W30310  20.675   6.224   4.745
66543W        W30311  10.823  31.440  14.482
66544W        W30312  25.130  33.034   0.416
66545W        W30313  11.859   7.207   4.613
66546W        W30314  14.309   7.272  11.374
66547W        W30315   9.719  11.211   5.301
66548W        W30316  15.693  33.025   4.286
66549W        W30317   9.669  37.919   2.753
66550W        W30318  21.228  17.614   3.707
66551W        W30319   8.665  19.147   2.297
66552W        W30320  20.117  12.784  13.913
66553W        W30321  30.477  25.211  10.522
66554W        W30322  12.638  37.527   0.828
66555W        W30323  43.516  10.308   1.747
66556W        W30324  20.755   0.267   2.791
66557W        W30325  25.030  25.016   1.715
66558W        W30326  14.776  13.129  12.077
66559W        W30327  39.890  15.141   1.908
66560W        W30328   3.356  39.374  10.946
66561W        W30329  10.708  19.772  10.628
66562W        W30330  28.044  26.194  14.956
66563W        W30331  37.927  25.969   0.800
66564W        W30332  41.372   7.785   2.704
66565W        W30333  24.607   3.718  11.114
66566W        W30334  42.424  21.569  14.506
66567W        W30335   7.890  22.688   1.859
66568W        W30336  12.327  33.959   0.439
66569W        W30337  30.587  25.526   4.252
66570W        W30338  33.077   7.861   0.941
66571W        W30339   5.251  44.761  12.845
66572W        W30340  23.067  17.561   3.219
66573W        W30341  14.203   5.827  13.858
66574W        W30342  13.814  25.013   2.312
66575W        W30343  19.543  19.619  13.976
66576W        W30344  16.244   8.796   3.217
66577W        W30345  22.588  33.609  10.955
66578W        W30346  36.090  44.494  11.011
66579W        W30347  33.407   2.783   1.220
66580W        W30348  27.947  32.458  10.015
66581W        W30349  40.442  19.168  10.898
66582W        W30350  39.922  17.097   3.241
66583W        W30351   8.181  33.967  11.593
66584W        W30352  21.732  35.573   4.179
66585W        W30353  41.361  41.885  13.340
66586W        W30354  44.426  29.533   4.742
66587W        W30355  33.415  28.591   0.410
66588W        W30356  14.817  24.597  13.912
66589W        W30357  30.432  30.937   0.271
66590W        W30358  11.370  37.513   2.315
66591W        W30359   3.740  41.419  11.074
66592W        W30360  39.049  36.998  12.936
66593W        W30361   2.231  27.088   2.814
66594W        W30362   1.911   8.667   2.702
66595W        W30363  35.001  32.637  11.423
66596W        W30364  15.615   2.305  10.543
66597W        W30365  11.696  24.161   1.446
66598W        W30366   8.389   5.294   0.317
66599W        W30367  15.807  31.490  14.474
66600W        W30368  21.660  25.092   0.317
66601W        W30369  34.477  38.076   2.776
66602W        W30370  40.355  36.882   4.223
66603W        W30371  28.131  37.847  12.053
66604W        W30372  41.537  24.007  13.048
66605W        W30373  20.565   1.446  11.447
66606W        W30374  32.500   6.834   2.369
66607W        W30375  39.428  18.768   0.756
66608W        W30376  29.557  33.613  12.972
66609W        W30377   4.248  13.189   1.810
66610W        W30378   5.357  44.934  13.881
66611W        W30379  28.469   0.804  13.041
66612W        W30380  33.934  22.506  13.852
66613W        W30381  44.392  22.999   4.277
66614W        W30382  26.668  18.584  11.062
66615W        W30383  36.360  15.685  14.413
66616W        W30384  18.088   0.306   1.228
66617W        W30385   6.823  16.577  11.557
66618W        W30386  23.653   8.801  12.414
66619W        W30387  40.549  15.179   0.360
66620W        W30388  35.501  23.684   2.275
66621W        W30389  24.507  40.808  13.036
66622W        W30390  42.827  22.182  14.760
66623W        W30391  11.758   8.169   3.635
66624W        W30392  11.864  41.366   2.837
66625W        W30393  29.629  33.072  11.942
66626W        W30394   3.261  17.770   3.722
66627W        W30395  14.761   6.901  11.867
66628W        W30396   7.391  40.987   0.377
66629W        W30397  43.857  36.888  14.508
66630W        W30398  15.704  10.800   1.869
66631W        W30399  10.831   6.215  11.464
66632W        W30400  11.655  11.832   0.735
66633W        W30401  10.737  27.677   0.333
66634W        W30402  43.326  15.168   1.428
66635W        W30403  23.143  38.016  11.548
66636W        W30404  37.372  33.882   3.676
66637W        W30405   2.336  34.532  11.911
66638W        W30406   5.426   8.400   3.257
66639W        W30407  29.980  25.514  12.341
66640W        W30408  32.059  37.568   3.384
66641W        W30409  40.823  32.988   3.843
66642W        W30410   9.843  23.207   3.237
66643W        W30411  27.536   8.755  13.888
66644W        W30412  15.172  12.182   3.748
66645W        W30413  23.597  39.907  12.408
66646W        W30414  24.716  29.609  13.044
66647W        W30415  13.293  12.752  14.419
66648W        W30416  27.189  41.413  11.980
66649W        W30417  21.540   4.790   0.823
66650W        W30418  41.842  18.693  12.926
66651W        W30419  27.004  18.128  13.831
66652W        W30420  44.359  30.101   0.341
66653W        W30421  32.031   9.352   2.837
66654W        W30422  41.982  42.378   0.411
66655W        W30423  43.015  30.646   2.744
66656W        W30424   0.446  36.508  14.459
66657W        W30425   3.422  44.954  11.403
66658W        W30426  28.502  32.994   2.814
66659W        W30427  13.626   9.184  10.490
66660W        W30428  18.164  23.049  12.942
66661W        W30429  12.652  17.638   1.903
66662W        W30430  25.484  23.008  11.920
66663W        W30431  43.347  33.404  13.918
66664W        W30432  27.517  24.142   3.814
66665W        W30433  35.888  44.807  14.833
66666W        W30434   3.276   4.385  13.307
66667W        W30435  22.199  34.454   4.830
66668W        W30436  11.130  42.330  14.436
66669W        W30437  38.857  34.492  10.507
66670W        W30438  29.148  16.780  12.034
66671W        W30439  17.141  26.054  12.931
66672W        W30440  25.975  15.206   1.251
66673W        W30441   3.762  38.345   2.686
66674W        W30442   7.231  11.771   2.765
66675W        W30443  29.979  41.867  14.016
66676W        W30444  39.415  44.321  13.940
66677W        W30445  36.535  24.578   4.654
66678W        W30446  44.883  10.742   2.776
66679W        W30447   5.809   7.239  11.036
66680W        W30448  34.458  35.398   0.822
66681W        W30449   9.361  17.169  14.508
66682W        W30450   1.406  34.112  11.385
66683W        W30451  42.417   9.774   2.894
66684W        W30452  17.642  15.622  13.972
66685W        W30453   4.256  19.242  14.302
66686W        W30454  18.082   9.156  13.835
66687W        W30455  12.331  30.649  11.095
66688W        W30456  14.303  33.414  14.859
66689W        W30457  13.265  44.303   1.741
66690W        W30458  21.044  18.064   9.952
66691W        W30459  23.218  34.103  14.778
66692W        W30460  39.452   3.845   0.281
66693W        W30461  25.162  25.081   4.192
66694W        W30462  35.534  24.150  14.367
66695W        W30463   8.222   2.270   4.145
66696W        W30464  12.214  28.074  10.946
66697W        W30465  36.995  26.968   4.821
66698W        W30466   3.404   7.283  13.391
66699W        W30467  20.265  14.727  10.989
66700W        W30468  13.801  39.412   0.965
66701W        W30469   5.255  13.698   2.746
66702W        W30470   6.812   5.271  12.945
66703W        W30471  44.966  35.885   2.394
66704W        W30472  43.016  43.836   2.739
66705W        W30473  43.306   2.773  12.985
66706W        W30474  13.846  41.908   2.334
66707W        W30475   4.439  29.514   0.881
66708W        W30476  12.831   5.876   1.731
66709W        W30477   2.449  44.928  11.523
66710W        W30478  40.875  42.486  13.862
66711W        W30479  13.649  22.177  11.968
66712W        W30480  13.178   2.350  10.548
66713W        W30481  36.084  28.633   1.756
66714W        W30482  30.925  13.826  12.066
66715W        W30483   9.721   3.249  12.353
66716W        W30484  30.007  25.135   4.761
66717W        W30485  40.860  43.441  10.604
66718W        W30486  37.069   4.918   4.267
66719W        W30487  25.164  32.981  10.026
66720W        W30488  13.831  36.561  14.347
66721W        W30489  23.001  23.117   1.397
66722W        W30490  20.135  18.690   0.835
66723W        W30491  33.535   8.327   1.264
66724W        W30492  11.329  28.576  10.559
66725W        W30493  36.053   6.223  10.586
66726W        W30494  25.495  15.239   3.737
66727W        W30495  10.658   8.345   1.914
66728W        W30496   8.392  10.689   1.924
66729W        W30497  35.091  23.134   4.191
66730W        W30498  25.116  41.027  10.576
66731W        W30499  43.874  25.191  13.989
66732W        W30500  26.605  34.053  14.913
66733W        W30501   3.455  29.538   3.290
66734W        W30502  32.917  26.613   3.756
66735W        W30503  18.156   9.666  13.359
66736W        W30504   4.302  31.079  14.816
66737W        W30505  32.556  14.137  11.927
66738W        W30506   2.761  37.926   9.464
66739W        W30507  14.702  37.944  11.946
66740W        W30508  10.825  15.252  11.037
66741W        W30509  12.199   3.350   3.274
66742W        W30510  25.680  15.774   1.361
66743W        W30511   4.442  40.030   2.824
66744W        W30512  14.687  43.851  13.938
66745W        W30513  18.225  25.217   1.913
66746W        W30514   7.222  43.818   0.361
66747W        W30515  39.367  15.180  14.962
66748W        W30516  10.351  41.033   2.219
66749W        W30517  15.168  23.721  13.004
66750W        W30518  14.657  33.040  10.963
66751W        W30519  25.547  44.864  11.869
66752W        W30520  32.997  19.173   3.214
66753W        W30521  37.072  39.349   1.760
66754W        W30522  26.093  36.005   4.752
66755W        W30523  16.805  38.042   0.948
66756W        W30524  17.794   7.392   4.354
66757W        W30525  30.068  16.152  13.972
66758W        W30526  20.673  35.433   9.980
66759W        W30527  32.965  35.030   0.312
66760W        W30528  18.591  30.491  11.946
66761W        W30529   6.348  35.455   0.378
66762W        W30530   5.912  25.994  11.434
66763W        W30531  27.969  38.439  11.587
66764W        W30532  12.719  13.675  11.385
66765W        W30533  23.986  25.152  11.057
66766W        W30534  37.469   9.234   9.459
66767W        W30535  18.147  27.589  13.470
66768W        W30536  42.910   7.864   1.755
66769W        W30537  11.178   1.841  14.296
66770W        W30538  44.003  20.551   2.417
66771W        W30539  31.050  43.854  11.594
66772W        W30540   9.733  21.072   2.303
66773W        W30541   4.408  42.942  14.361
66774W        W30542  34.065  27.170   3.368
66775W        W30543  20.664  34.867   5.711
66776W        W30544  16.753  29.123   1.740
66777W        W30545   6.296   6.872   4.267
66778W        W30546  25.112  10.246  10.060
66779W        W30547  23.021  11.187   2.219
66780W        W30548   2.897  43.786  13.059
66781W        W30549   6.747  43.440  11.116
66782W        W30550  35.036  23.648  12.477
66783W        W30551  19.718  11.679  11.516
66784W        W30552  21.626  17.074  13.403
66785W        W30553  25.604  17.158  11.492
66786W        W30554   9.693  33.933   1.706
66787W        W30555   9.740  39.939  11.529
66788W        W30556  36.917   2.824   4.715
66789W        W30557  15.302   8.310  12.909
66790W        W30558  16.683  21.707   1.254
66791W        W30559   5.236  39.456  12.561
66792W        W30560  10.232  41.523  13.443
66793W        W30561   8.685  39.856  10.639
66794W        W30562   3.841  30.097   3.270
66795W        W30563  33.381  41.842  13.329
66796W        W30564  18.651  11.204  12.895
66797W        W30565  32.466  12.327  13.034
66798W        W30566  29.518   3.387  10.964
66799W        W30567   2.448   6.234   0.930
66800W        W30568  24.202   0.768  12.368
66801W        W30569  38.861  18.224  13.436
66802W        W30570  22.093  12.342  14.969
66803W        W30571  41.017  24.567   4.160
66804W        W30572   1.761   6.761   0.912
66805W        W30573  15.226  10.859  13.392
66806W        W30574  20.030   2.746   0.265
66807W        W30575   1.837  42.988   0.732
66808W        W30576  44.860  16.104   0.430
66809W        W30577   8.707  16.208  12.532
66810W        W30578   2.278  17.305   9.984
66811W        W30579   5.419   7.335   3.266
66812W        W30580  19.675   0.329   2.835
66813W        W30581   4.857  30.956  13.960
66814W        W30582  43.402   2.834  14.967
66815W        W30583   5.225  12.727  12.083
66816W        W30584   3.427   6.260   0.907
66817W        W30585   7.178  23.550  12.884
66818W        W30586  10.632   9.657   9.979
66819W        W30587  18.595  28.992  12.826
66820W        W30588   2.813  26.120  11.015
66821W        W30589  26.543  30.085   1.221
66822W        W30590  32.991  42.927  14.957
66823W        W30591   0.263  31.517  12.517
66824W        W30592  41.334  22.023  10.557
66825W        W30593  34.968  15.694   9.971
66826W        W30594  27.065  35.052   2.716
66827W        W30595  13.717  38.475  12.062
66828W        W30596  42.373  38.954   3.661
66829W        W30597  30.606  38.928   4.187
66830W        W30598  11.363   5.349  10.413
66831W        W30599  25.590  32.988   4.119
66832W        W30600  30.933  44.780   3.662
66833W        W30601  13.642  33.061   2.762
66834W        W30602   1.450  26.604   4.772
66835W        W30603  15.782   0.791   9.925
66836W        W30604   1.921  42.489  11.036
66837W        W30605  37.483  26.031   4.725
66838W        W30606  14.161  24.516  12.945
66839W        W30607  28.953  24.712  10.930
66840W        W30608  32.431  37.990  10.549
66841W        W30609  27.086  38.903   4.827
66842W        W30610  26.172  10.319   4.794
66843W        W30611  15.803  37.570  11.932
66844W        W30612  36.425  21.715   2.787
66845W        W30613   9.780  14.123  13.526
66846W        W30614   5.845   4.222  11.524
66847W        W30615  25.115   3.415  12.825
66848W        W30616  26.494  31.469  10.434
66849W        W30617  16.267  36.401   1.712
66850W        W30618   1.298   2.766   2.314
66851W        W30619  14.281  23.231  12.035
66852W        W30620  22.189  26.099  12.076
66853W        W30621  13.812  32.058   0.373
66854W        W30622  12.812   9.787   3.784
66855W        W30623  38.948  26.010   1.852
66856W        W30624  15.116  25.599   2.723
66857W        W30625  18.172  17.123  10.918
66858W        W30626  21.512   8.774   2.858
66859W        W30627   7.312  22.612   0.817
66860W        W30628  25.099  35.001   0.939
66861W        W30629  17.066  20.678  13.507
66862W        W30630   6.244  18.716   2.298
66863W        W30631  27.638  29.090   3.158
66864W        W30632   1.973  24.172  14.927
66865W        W30633  18.062  30.515  11.538
66866W        W30634  15.216  35.098   0.794
66867W        W30635  33.453  41.438   1.224
66868W        W30636  28.020  17.703  14.496
66869W        W30637  28.585  38.406   2.251
66870W        W30638  19.066   3.303   0.339
66871W        W30639  14.150  22.742  13.813
66872W        W30640  26.058  36.842   1.707
66873W        W30641  12.676  22.577  12.963
66874W        W30642  38.334   5.235   1.426
66875W        W30643  17.759  28.049   1.325
66876W        W30644  16.605  19.233  12.454
66877W        W30645   6.697   5.416  13.435
66878W        W30646  41.895  41.369   0.316
66879W        W30647  42.994  34.024   4.832
66880W        W30648  21.107   6.913   3.700
66881W        W30649   9.859  26.625  12.579
66882W        W30650  21.664  10.793  12.888
66883W        W30651  19.047   1.734  13.542
66884W        W30652  10.160  16.102  14.309
66885W        W30653  28.146   8.692   2.216
66886W        W30654  35.397  31.137  13.384
66887W        W30655  28.186   1.307   0.456
66888W        W30656  31.935  18.608  10.423
66889W        W30657   1.426   7.827   4.121
66890W        W30658   4.346  23.630  14.310
66891W        W30659  31.114  20.112   2.304
66892W        W30660  35.107   0.910  10.999
66893W        W30661  19.697  44.865   2.662
66894W        W30662  15.582  44.762   2.203
66895W        W30663  36.524  27.567   3.686
66896W        W30664  12.710  42.805  11.897
66897W        W30665   9.704   8.671   0.948
66898W        W30666  40.878  14.241  11.390
66899W        W30667   4.783   0.279  13.947
66900W        W30668   7.383  36.519   1.354
66901W        W30669  36.451  17.210   3.719
66902W        W30670  21.567  19.677  13.538
66903W        W30671   0.762  36.970  10.149
66904W        W30672  28.140  17.298  13.978
66905W        W30673  23.715   4.882  12.932
66906W        W30674  25.602  24.593   1.357
66907W        W30675  40.533  12.118  14.494
66908W        W30676   8.659   5.772  10.148
66909W        W30677  37.530  12.229   0.812
66910W        W30678  29.431  27.144  13.940
66911W        W30679  36.370  25.678   1.260
66912W        W30680  43.437  41.937   4.779
66913W        W30681  15.796   7.746  12.080
66914W        W30682  33.561  41.513   2.217
66915W        W30683  44.006  24.133   2.276
66916W        W30684  10.161  22.210   3.385
66917W        W30685  44.995   4.775   0.952
66918W        W30686   3.838  10.784   2.352
66919W        W30687  12.684   2.777   3.719
66920W        W30688  29.973  30.591  10.981
66921W        W30689  24.538  20.117  12.486
66922W        W30690  43.871  29.113  13.404
66923W        W30691   7.755  44.873   0.800
66924W        W30692  38.477  36.962   3.837
66925W        W30693  23.002  18.153   0.853
66926W        W30694  22.589  44.261   0.339
66927W        W30695   2.918  27.588  11.071
66928W        W30696  39.942   5.403  12.397
66929W        W30697  22.198  34.057   2.839
66930W        W30698   4.730   6.823  13.424
66931W        W30699  23.130   2.779  11.433
66932W        W30700  36.377  44.914  14.008
66933W        W30701  24.032  22.210  12.427
66934W        W30702  28.061  34.873  12.045
66935W        W30703  26.147  42.972   4.240
66936W        W30704  41.497  33.488   0.805
66937W        W30705   1.936   1.329  11.090
66938W        W30706  18.653  30.543   4.342
66939W        W30707  31.550  23.985  12.909
66940W        W30708   1.314  11.370  14.981
66941W        W30709  34.006  34.003   4.720
66942W        W30710  10.748  11.665   1.799
66943W        W30711  34.487   5.302   2.200
66944W        W30712  31.970   8.260  11.396
66945W        W30713  19.676  22.080  12.530
66946W        W30714  25.496  38.534  14.295
66947W        W30715  27.449  28.532   4.319
66948W        W30716  27.170  41.371  12.429
66949W        W30717  13.151  10.161   2.841
66950W        W30718  25.988  26.465  10.895
66951W        W30719  12.839  10.769  10.152
66952W        W30720  21.093  17.259   1.335
66953W        W30721   9.168  13.236   1.760
66954W        W30722  44.266  21.167  13.847
66955W        W30723   4.256  33.960  12.851
66956W        W30724  19.672  34.591  12.952
66957W        W30725  36.439  28.533   2.192
66958W        W30726  24.623  41.980  11.881
66959W        W30727  41.507   1.908   4.780
66960W        W30728   4.410  27.139   2.676
66961W        W30729  16.730  12.274  13.440
66962W        W30730  17.245  28.025  14.865
66963W        W30731  41.516  11.748   0.348
66964W        W30732  13.189  28.538  14.904
66965W        W30733  18.236  10.190   0.342
66966W        W30734  37.011  18.647  11.483
66967W        W30735  12.230   3.855   0.932
66968W        W30736  42.335  20.242  13.013
66969W        W30737  28.649   7.371   1.228
66970W        W30738  34.556  40.308  11.523
66971W        W30739   3.867  15.795   0.894
66972W        W30740  44.834  22.009   0.452
66973W        W30741  19.682   2.413  13.318
66974W        W30742  14.647   3.709   3.205
66975W        W30743  24.534  24.574  10.598
66976W        W30744  27.957  30.962   2.832
66977W        W30745  40.439  28.116  10.478
66978W        W30746  22.024  10.795  12.344
66979W        W30747  27.962  24.177   2.796
66980W        W30748  33.393  13.144   2.398
66981W        W30749   9.781   1.786   1.882
66982W        W30750  27.023  34.483  12.829
66983W        W30751   0.388   5.253   2.308
66984W        W30752   8.878  24.672   0.848
66985W        W30753  42.525  30.445  13.793
66986W        W30754  41.971  24.688   3.859
66987W        W30755  36.009  42.496   4.718
66988W        W30756   3.711   0.884  14.822
66989W        W30757   1.867  17.777   2.835
66990W        W30758  11.280  16.089   1.418
66991W        W30759   8.860   3.248   0.275
66992W        W30760  25.628  25.712  11.604
66993W        W30761  26.594  41.303  14.758
66994W        W30762  43.438  13.338  12.567
66995W        W30763  25.533  43.808  11.075
66996W        W30764  18.760   0.383  14.830
66997W        W30765  39.031  30.950  12.890
66998W        W30766   3.899   7.395  11.114
66999W        W30767  25.099   4.863  12.370
67000W        W30768  33.981  19.630  12.978
67001W        W30769  31.034  18.759  14.023
67002W        W30770  18.642  22.702   2.250
67003W        W30771  18.252  18.209  11.975
67004W        W30772  43.429  11.252  11.420
67005W        W30773   5.299  25.620   2.417
67006W        W30774  23.511  31.115   2.858
67007W        W30775  36.385  18.174  13.511
67008W        W30776  35.549  43.823   2.316
67009W        W30777  13.746  13.809  11.011
67010W        W30778  39.884  28.165  12.002
67011W        W30779  26.652   0.856  14.973
67012W        W30780  31.453   6.771   0.453
67013W        W30781  37.398  11.693   0.481
67014W        W30782   0.372  36.841  10.499
67015W        W30783   6.911  15.304  12.963
67016W        W30784  40.484  34.010   2.864
67017W        W30785  16.754  35.437  12.090
67018W        W30786  37.371  35.565   3.863
67019W        W30787  36.567  39.472   4.168
67020W        W30788  34.886  18.587  10.995
67021W        W30789  41.862  23.563  11.893
67022W        W30790  16.212  33.106  13.884
67023W        W30791  17.559  41.441   2.813
67024W        W30792  23.571  27.605  13.332
67025W        W30793  12.821  42.801   1.382
67026W        W30794  12.120  39.825  13.023
67027W        W30795  44.754  43.388  11.117
67028W        W30796  36.466  29.120  13.817
67029W        W30797  29.048  24.614  14.329
67030W        W30798  11.706  14.608  10.976
67031W        W30799  44.976  13.622  11.441
67032W        W30800   6.854  10.228  13.809
67033W        W30801  42.867   0.415  10.953
67034W        W30802  15.734  24.036   3.637
67035W        W30803  43.368  27.690   0.448
67036W        W30804   4.443  16.158   3.267
67037W        W30805  18.206  43.468   3.155
67038W        W30806  10.358  13.836  12.395
67039W        W30807   5.245  14.257   3.277
67040W        W30808  24.504  27.632  13.371
67041W        W30809   3.316  30.505   2.232
67042W        W30810   5.379  27.139  11.031
67043W        W30811   1.336  22.648  10.915
67044W        W30812  42.948  31.426  10.589
67045W        W30813  15.715  20.729  14.365
67046W        W30814  31.070   9.725   2.762
67047W        W30815   9.179  12.193  13.451
67048W        W30816  36.991  30.516   4.299
67049W        W30817   3.740   8.897  10.408
67050W        W30818   2.753  33.473   2.255
67051W        W30819  23.495  24.999  14.952
67052W        W30820   2.752  40.501  12.891
67053W        W30821   8.303   5.787   3.754
67054W        W30822  39.975  32.570   3.255
67055W        W30823  14.124  26.679   0.331
67056W        W30824  13.800  15.772  10.924
67057W        W30825   7.767  25.094  11.892
67058W        W30826   3.281  43.905   9.929
67059W        W30827  38.332   0.864   2.288
67060W        W30828  41.986  15.722   0.338
67061W        W30829  12.662  17.740   4.173
67062W        W30830  36.411  34.550  13.513
67063W        W30831  31.049  15.609   3.811
67064W        W30832  37.447   8.709  10.921
67065W        W30833  35.097   2.722   3.245
67066W        W30834   0.818   5.775   0.440
67067W        W30835  36.874  11.780   1.766
67068W        W30836  36.550  15.267   3.323
67069W        W30837   9.184  44.971  12.507
67070W        W30838  33.549   6.731   3.669
67071W        W30839  25.592  36.080  14.955
67072W        W30840   7.203  30.641   3.209
67073W        W30841  31.452  16.136   0.823
67074W        W30842  15.146  24.012   2.208
67075W        W30843  12.318  19.718  14.445
67076W        W30844  31.082  12.804  11.453
67077W        W30845  17.645  14.308   0.947
67078W        W30846   3.917  17.188   4.265
67079W        W30847  13.663  18.154   2.877
67080W        W30848  29.538  17.289  13.891
67081W        W30849  44.842  33.561  14.934
67082W        W30850  10.357   7.186  10.426
67083W        W30851  31.022   1.425  14.827
67084W        W30852  15.217  39.901  14.368
67085W        W30853  40.454  11.647   2.407
67086W        W30854  28.937  18.687   3.747
67087W        W30855  28.056  42.315   0.365
67088W        W30856   4.428  40.380   0.855
67089W        W30857  23.145  40.045   0.777
67090W        W30858  10.711  40.537  11.539
67091W        W30859  19.104  43.486  11.893
67092W        W30860  40.009   0.329   4.598
67093W        W30861  21.662  33.423  10.440
67094W        W30862  32.083  32.487   0.835
67095W        W30863  14.766   9.321  13.055
67096W        W30864  42.306  16.287   2.277
67097W        W30865  37.485  41.928   0.323
67098W        W30866  18.771  12.324  14.344
67099W        W30867  36.930  33.041   4.635
67100W        W30868  21.195  12.611   3.354
67101W        W30869  30.017  29.965   2.260
67102W        W30870  21.741   8.857   1.385
67103W        W30871  20.609   2.849   2.249
67104W        W30872  38.957  21.550   4.237
67105W        W30873  11.676  17.277  12.975
67106W        W30874   8.160  11.164  14.298
67107W        W30875   7.345  24.049  11.423
67108W        W30876  29.077  35.395   4.205
67109W        W30877  23.099  33.381   9.952
67110W        W30878  34.057  20.266   1.212
67111W        W30879  27.629  44.389  13.916
67112W        W30880  44.913  41.525  13.011
67113W        W30881  16.661   2.375  10.477
67114W        W30882  26.126   1.359  12.087
67115W        W30883  32.920  25.178   2.845
67116W        W30884  21.046  15.250   4.735
67117W        W30885  37.844  37.365   0.839
67118W        W30886  30.159   8.292   4.294
67119W        W30887  12.675  12.266   9.633
67120W        W30888  44.779   3.255   2.878
67121W        W30889  24.601  30.052  12.563
67122W        W30890   3.330  11.249   3.791
67123W        W30891   4.800  26.198  14.900
67124W        W30892  18.582   7.900   4.140
67125W        W30893  37.544  43.313  14.487
67126W        W30894   3.896  21.717  10.535
67127W        W30895  35.402  44.846  11.580
67128W        W30896   1.789  11.657   4.723
67129W        W30897  29.168  37.935  12.940
67130W        W30898  11.710  37.525   4.200
67131W        W30899  11.166   5.925  11.426
67132W        W30900  43.506  38.852   2.786
67133W        W30901  13.702  34.613  12.431
67134W        W30902  35.073  37.945  12.531
67135W        W30903  14.295  18.697   2.394
67136W        W30904   0.917  30.612  10.117
67137W        W30905   1.737   2.409   3.709
67138W        W30906  32.020   4.442  13.987
67139W        W30907  28.941  37.470   4.768
67140W        W30908  29.074  29.149   2.255
67141W        W30909  42.967   4.880   0.779
67142W        W30910   6.422  24.611   2.312
67143W        W30911  29.940   1.865  12.374
67144W        W30912  11.653   4.910  10.452
67145W        W30913  32.391  34.553   2.809
67146W        W30914  23.160  35.375  14.355
67147W        W30915  34.921  29.050   2.767
67148W        W30916   1.807  12.233   1.249
67149W        W30917  22.216  43.288   4.620
67150W        W30918  26.624   8.712   4.136
67151W        W30919  41.326  25.038  12.065
67152W        W30920  39.886   8.388   1.833
67153W        W30921  11.252  10.212   3.356
67154W        W30922  33.499  11.679  14.023
67155W        W30923  15.763  20.067  11.566
67156W        W30924   1.920  23.049  12.073
67157W        W30925  30.496   9.844   3.822
67158W        W30926  26.998  30.473   4.305
67159W        W30927  24.121  39.915   4.242
67160W        W30928   1.940   9.319  12.473
67161W        W30929   7.281   3.457   1.298
67162W        W30930  26.023   6.216   1.436
67163W        W30931  10.873   4.934  14.299
67164W        W30932  27.189  12.798   3.678
67165W        W30933   6.743  15.109   3.848
67166W        W30934  12.715  34.417   0.814
67167W        W30935   1.282  25.969  11.056
67168W        W30936  35.979   5.784  12.370
67169W        W30937  30.908   9.722  10.448
67170W        W30938  20.189  33.496   3.193
67171W        W30939  23.079  21.051  14.026
67172W        W30940  34.080  30.012  12.508
67173W        W30941  20.702  16.791   0.930
67174W        W30942  31.065   0.912  13.539
67175W        W30943   8.828  27.965   3.254
67176W        W30944  39.412  13.243   1.220
67177W        W30945  32.408  32.973  11.863
67178W        W30946  21.605  30.017   1.225
67179W        W30947  37.924  22.594   3.789
67180W        W30948  30.595  36.584  14.797
67181W        W30949  25.629  36.546   5.190
67182W        W30950  26.493  38.963   0.311
67183W        W30951  41.834   9.250  10.475
67184W        W30952  32.970  34.906   0.956
67185W        W30953  20.125   1.755  10.635
67186W        W30954  39.030  20.208  13.024
67187W        W30955  28.529  39.342  13.369
67188W        W30956  35.364  18.244  12.465
67189W        W30957  19.701  31.993  11.058
67190W        W30958  39.446  40.984   2.856
67191W        W30959  14.739  42.882   3.174
67192W        W30960  20.230  11.344  10.491
67193W        W30961  18.749  38.544   4.809
67194W        W30962   0.266  30.443  10.952
67195W        W30963  20.246  19.759  10.558
67196W        W30964  35.502  30.917  10.426
67197W        W30965  28.588  13.125   2.715
67198W        W30966  40.914   1.902   3.634
67199W        W30967  15.149  41.360  13.323
67200W        W30968  11.127  23.062  14.870
67201W        W30969  34.120  34.416   1.800
67202W        W30970  37.580   3.293  13.798
67203W        W30971  19.562  25.102   5.206
67204W        W30972  12.755  37.049  11.888
67205W        W30973  33.025   5.764   2.350
67206W        W30974  23.506   3.774  12.985
67207W        W30975  24.685   2.768  13.045
67208W        W30976  30.476  44.855  14.765
67209W        W30977  42.406  28.149  12.944
67210W        W30978  18.230  44.956  11.456
67211W        W30979  11.808  13.837  10.916
67212W        W30980  40.818  14.599   1.211
67213W        W30981  12.140  14.310  14.992
67214W        W30982  23.706  35.407  10.604
67215W        W30983  21.223  30.063  14.025
67216W        W30984  24.680  17.141  13.928
67217W        W30985   3.734  43.449  12.893
67218W        W30986  29.011  35.536   4.645
67219W        W30987  22.101  23.591   3.266
67220W        W30988  34.408  31.570  13.376
67221W        W30989  44.282  37.995  11.865
67222W        W30990  31.442  12.617   0.283
67223W        W30991  17.118   7.876   0.365
67224W        W30992  10.778   7.171   0.901
67225W        W30993   6.300  43.886  13.027
67226W        W30994  20.089  19.245   4.753
67227W        W30995  15.212  32.428   3.772
67228W        W30996  33.597   4.763   0.942
67229W        W30997  16.109  11.373   1.316
67230W        W30998  25.707  17.251  10.910
67231W        W30999   6.314  34.080  12.023
67232W        W31000  23.706  29.431   1.796
67233W        W31001  35.535   5.738   2.182
67234W        W31002   9.263   4.931   0.742
67235W        W31003  42.849  33.578  14.477
67236W        W31004  36.384   2.239  10.894
67237W        W31005  35.925  41.435  14.842
67238W        W31006  26.076  17.657  14.021
67239W        W31007  29.585  26.021   4.805
67240W        W31008  25.985  12.845  11.610
67241W        W31009   6.298   2.887   3.328
67242W        W31010  25.154  12.815   3.343
67243W        W31011   1.952  43.974  12.396
67244W        W31012  14.816  19.646   3.371
67245W        W31013   1.947  16.126  11.382
67246W        W31014  32.085  31.925  10.423
67247W        W31015  19.248  33.507  13.451
67248W        W31016   9.224  16.204  11.867
67249W        W31017   0.790  13.271   1.389
67250W        W31018  11.691   8.167   1.781
67251W        W31019  32.580  32.619  11.947
67252W        W31020  12.684  32.075   2.738
67253W        W31021  44.894  21.522  12.877
67254W        W31022  44.822   2.339   3.336
67255W        W31023  39.891  16.672   1.392
67256W        W31024  38.415  21.086   0.727
67257W        W31025  13.208  13.131  14.942
67258W        W31026  16.654  25.626  13.525
67259W        W31027  15.713  26.034  10.894
67260W        W31028  32.518  23.560  11.121
67261W        W31029  22.646  19.663   3.161
67262W        W31030   7.801  27.670   4.804
67263W        W31031  37.860   9.153  13.367
67264W        W31032  35.061   8.324   3.750
67265W        W31033  12.209   6.327   0.435
67266W        W31034  36.075   5.257  14.860
67267W        W31035  40.922  21.171   2.691
67268W        W31036  15.742  32.982   1.854
67269W        W31037  17.133  44.386  10.502
67270W        W31038  31.000  41.448   1.769
67271W        W31039   3.931  31.597   2.719
67272W        W31040   0.311  12.778   1.303
67273W        W31041  10.705  18.665  11.547
67274W        W31042  17.125  16.094   1.846
67275W        W31043  26.020  23.676  12.913
67276W        W31044  13.180  29.053   3.728
67277W        W31045  28.487  14.293  14.868
67278W        W31046  27.446  20.060   1.331
67279W        W31047  28.135  36.047   3.151
67280W        W31048  36.569  35.996  13.320
67281W        W31049  24.988   4.423  11.389
67282W        W31050  39.506  43.476   3.723
67283W        W31051  29.064  17.772   4.176
67284W        W31052  17.233  38.943   2.691
67285W        W31053  12.760  39.356  13.415
67286W        W31054  32.097  23.535   1.426
67287W        W31055  15.217   4.363  14.482
67288W        W31056  40.458  40.951  14.807
67289W        W31057  26.955  36.929  11.553
67290W        W31058  37.419  30.960  12.448
67291W        W31059  44.828  39.450   3.762
67292W        W31060  28.482  16.736  11.586
67293W        W31061  39.059  12.116  13.061
67294W        W31062  11.836  34.477  12.484
67295W        W31063  31.124  32.942  12.849
67296W        W31064   0.960   8.767   3.273
67297W        W31065  37.997  35.556  13.989
67298W        W31066  13.206  34.072  12.055
67299W        W31067  42.455  17.787   2.861
67300W        W31068   4.226   9.662   0.293
67301W        W31069  34.875  32.022   1.754
67302W        W31070  23.159  24.196  10.914
67303W        W31071  37.018  35.479  14.810
67304W        W31072  44.319  42.484   2.371
67305W        W31073  18.687  35.022  13.473
67306W        W31074  14.245  30.449  11.454
67307W        W31075   2.963  37.047   3.251
67308W        W31076  31.956   4.281  10.441
67309W        W31077  26.064  36.915  10.080
67310W        W31078  10.800  33.105   0.919
67311W        W31079  31.022  33.922   3.675
67312W        W31080  23.506  12.151   3.223
67313W        W31081  19.090  34.536  10.938
67314W        W31082   1.795  13.176  10.422
67315W        W31083  14.107  18.585   0.366
67316W        W31084  39.889  31.093  11.532
67317W        W31085  31.104  38.876  12.832
67318W        W31086  44.339  44.283   3.158
67319W        W31087  38.427   6.817   3.854
67320W        W31088  35.879  37.570  12.993
67321W        W31089  31.999  40.381   4.653
67322W        W31090   5.405  18.615   2.254
67323W        W31091   4.386  11.163  14.289
67324W        W31092   6.227  34.590   2.875
67325W        W31093  33.918  31.548  12.557
67326W        W31094  34.484   5.712  12.355
67327W        W31095  35.372  22.159  14.029
67328W        W31096  18.565   2.314   4.630
67329W        W31097   8.834  21.081  12.835
67330W        W31098  43.275   3.355   3.830
67331W        W31099  14.649  10.258  12.564
67332W        W31100  14.219   4.239   3.810
67333W        W31101   8.310  38.021  13.360
67334W        W31102  17.232  13.174   3.665
67335W        W31103  27.077   9.719  13.918
67336W        W31104   9.265   5.768  14.306
67337W        W31105   6.289  35.107  10.441
67338W        W31106   5.324  41.501  11.082
67339W        W31107   9.375   2.879   1.282
67340W        W31108  31.498  36.918   2.277
67341W        W31109  13.709   9.305  14.460
67342W        W31110  42.798  44.842  11.871
67343W        W31111  17.716   0.390  14.383
67344W        W31112   9.376   8.739   2.267
67345W        W31113  25.549  23.092  10.644
67346W        W31114   7.180  25.080  14.780
67347W        W31115  27.545   1.295  12.897
67348W        W31116   2.286  16.705  12.536
67349W        W31117   7.881  32.020   1.835
67350W        W31118  25.123  16.629  12.894
67351W        W31119  35.430   2.866  11.537
67352W        W31120  31.541  23.214  14.372
67353W        W31121   5.406   0.834   3.854
67354W        W31122   5.237   2.862   1.307
67355W        W31123  16.742   3.908   3.235
67356W        W31124  19.577  32.542   1.276
67357W        W31125  22.735  44.920  13.008
67358W        W31126   6.350  35.961   0.841
67359W        W31127  34.503   1.764   4.316
67360W        W31128  24.618  24.097   1.747
67361W        W31129  15.625  23.228  14.277
67362W        W31130  43.379  17.151  10.948
67363W        W31131   5.196  15.197   0.333
67364W        W31132   5.862  22.601  13.896
67365W        W31133  23.009  28.001  13.324
67366W        W31134  25.094  25.662  12.506
67367W        W31135  37.471  38.002   3.764
67368W        W31136  23.183  22.639  10.409
67369W        W31137  15.818   5.716   1.733
67370W        W31138  21.708  39.842  11.948
67371W        W31139  26.136  15.692   3.756
67372W        W31140  43.861  38.420  10.971
67373W        W31141  33.030   9.289  11.014
67374W        W31142  27.974  44.381   2.343
67375W        W31143  44.294  43.863  10.620
67376W        W31144  10.632   9.371   3.691
67377W        W31145  31.018   3.244  14.284
67378W        W31146  36.427  21.746   3.665
67379W        W31147  36.922   6.905   2.178
67380W        W31148  42.955  14.788  11.005
67381W        W31149   7.233  11.716   3.870
67382W        W31150  25.976  21.142  13.045
67383W        W31151  32.577  10.209  13.369
67384W        W31152  15.108  29.974  12.538
67385W        W31153  20.110  23.997  10.109
67386W        W31154  22.230  25.108   0.881
67387W        W31155  44.317   8.369   4.607
67388W        W31156  27.943  33.468   0.449
67389W        W31157   5.280  42.344   4.766
67390W        W31158  44.328  33.433  14.971
67391W        W31159  26.510  40.017  11.586
67392W        W31160  20.689  21.202  11.500
67393W        W31161  35.559   6.880   1.372
67394W        W31162  23.723  18.124  13.900
67395W        W31163  15.238  26.061  10.553
67396W        W31164  23.207   9.353   4.751
67397W        W31165  11.314  26.179   2.229
67398W        W31166  14.103  36.411   3.856
67399W        W31167  23.116  42.876  11.953
67400W        W31168   3.261  36.586  13.483
67401W        W31169  37.436  18.265   4.352
67402W        W31170  10.244  39.320   4.750
67403W        W31171  44.323  21.743   2.246
67404W        W31172  28.465  35.889  14.804
67405W        W31173  44.330  44.424  10.920
67406W        W31174  38.896  29.005   4.715
67407W        W31175  22.012  36.039  13.467
67408W        W31176   7.899  32.067  12.537
67409W        W31177  20.049  34.032  14.468
67410W        W31178  16.804  35.015  14.795
67411W        W31179   2.742  44.316   3.254
67412W        W31180  25.135  14.174  11.947
67413W        W31181  14.672  18.127  13.453
67414W        W31182   7.766   2.234   0.866
67415W        W31183   3.256  13.221  11.511
67416W        W31184  32.427  36.444   4.668
67417W        W31185  17.244  25.484  14.973
67418W        W31186  30.035  33.449  12.948
67419W        W31187   6.825  40.535  13.013
67420W        W31188  19.567  17.229  13.345
67421W        W31189  25.136  28.654  13.881
67422W        W31190  42.486  25.105   1.809
67423W        W31191   6.286   1.322  13.923
67424W        W31192  22.183  38.022  11.085
67425W        W31193  23.180  24.981  13.803
67426W        W31194  13.647  10.762   3.846
67427W        W31195  42.309   4.248   4.154
67428W        W31196   4.269  10.663  14.906
67429W        W31197  17.686  34.595  12.497
67430W        W31198  27.500  41.307   4.689
67431W        W31199  32.597   0.432  13.862
67432W        W31200  43.839  40.362   0.889
67433W        W31201  39.908   4.283  12.998
67434W        W31202  35.429   9.835   1.885
67435W        W31203  44.441  30.528  12.345
67436W        W31204  11.139  42.382  12.427
67437W        W31205  37.904  40.960   2.354
67438W        W31206   1.902  32.432   3.759
67439W        W31207   7.799  12.769   1.705
67440W        W31208  18.643  13.629   4.316
67441W        W31209  33.595  17.120   1.380
67442W        W31210  24.974  27.575  13.531
67443W        W31211  33.477  33.397   3.822
67444W        W31212   8.832  30.061   1.784
67445W        W31213   2.961  26.084  12.959
67446W        W31214   8.163   3.406   2.317
67447W        W31215  27.133  15.299   4.611
67448W        W31216  19.171  15.770   2.890
67449W        W31217   0.283  20.161   1.324
67450W        W31218  15.594  11.349   2.696
67451W        W31219  25.083   7.700  10.893
67452W        W31220  30.649  37.460  14.817
67453W        W31221  19.574  29.032  14.889
67454W        W31222   2.314  33.584   2.325
67455W        W31223   9.719  35.034  11.004
67456W        W31224  17.574  29.051   3.736
67457W        W31225  36.936  19.045   4.140
67458W        W31226  25.575   3.379   0.342
67459W        W31227   8.702  17.556   0.843
67460W        W31228  40.947  16.609   3.171
67461W        W31229  30.130  37.891   2.333
67462W        W31230   4.443  29.146  11.109
67463W        W31231   8.840  34.975  12.840
67464W        W31232  23.228  13.282   3.715
67465W        W31233  21.744   8.805   4.656
67466W        W31234  25.218  33.960   2.396
67467W        W31235  39.900  26.505   4.255
67468W        W31236  32.394   8.192  11.940
67469W        W31237  17.749  27.133   0.471
67470W        W31238   9.346  30.413   0.410
67471W        W31239  38.971  12.307  14.942
67472W        W31240   8.735  20.637   4.178
67473W        W31241  28.458  19.760  14.912
67474W        W31242  34.871  19.127   2.829
67475W        W31243  16.721  32.945  14.803
67476W        W31244  18.216  42.863  12.465
67477W        W31245   6.423  17.633  11.583
67478W        W31246  12.713  36.580  13.501
67479W        W31247  14.716  12.160   2.786
67480W        W31248  19.160  15.757   0.948
67481W        W31249   5.221  40.978  13.886
67482W        W31250  31.067   8.396  13.953
67483W        W31251  34.958   6.408   3.301
67484W        W31252   2.962   1.781   2.792
67485W        W31253  23.579  10.724  13.061
67486W        W31254  13.323   4.784   3.639
67487W        W31255  15.208   9.381   0.949
67488W        W31256  14.621  31.120  14.314
67489W        W31257  42.876   1.445  13.459
67490W        W31258  29.114   5.217  11.860
67491W        W31259  30.613  13.226  11.013
67492W        W31260  26.150  40.923   2.850
67493W        W31261  29.425  23.606  14.294
67494W        W31262  18.240  18.235  13.038
67495W        W31263   0.852   2.957   2.323
67496W        W31264  18.705   7.817   0.309
67497W        W31265  24.668  10.263   2.845
67498W        W31266  16.765  31.635   4.288
67499W        W31267  36.999  33.592   1.380
67500W        W31268  31.947  24.229  11.085
67501W        W31269  36.060  18.575   0.861
67502W        W31270   0.259  13.110  10.996
67503W        W31271  27.054  32.440   1.415
67504W        W31272   0.306  25.584  11.043
67505W        W31273  19.622  26.074  11.391
67506W        W31274  10.278  31.055  10.644
67507W        W31275   2.820  32.984  11.566
67508W        W31276  20.668  15.731   4.264
67509W        W31277  43.994   7.365   0.871
67510W        W31278  11.798  11.373  11.607
67511W        W31279  19.256  29.570   2.840
67512W        W31280  15.621  39.492  14.882
67513W        W31281  24.616  44.775   4.118
67514W        W31282   9.691  33.591  10.579
67515W        W31283  42.823  14.166   0.937
67516W        W31284  16.807  25.001   3.658
67517W        W31285  25.199  22.598  14.789
67518W        W31286   5.781   3.402  13.835
67519W        W31287  20.605  24.989  11.061
67520W        W31288  20.644   2.932   4.150
67521W        W31289   2.312  44.271   4.788
67522W        W31290  16.719  10.275  13.028
67523W        W31291  24.506  19.666  14.970
67524W        W31292  14.605  15.231  14.765
67525W        W31293  31.571  24.073  11.455
67526W        W31294  26.611  35.570   2.734
67527W        W31295  29.511  40.054   4.200
67528W        W31296  17.707  14.318   3.756
67529W        W31297   0.363  22.047  12.478
67530W        W31298  21.203  14.195   3.851
67531W        W31299  26.208  18.545  12.353
67532W        W31300  29.512  36.476   3.195
67533W        W31301  33.934  28.084  14.866
67534W        W31302   7.737  40.845   2.258
67535W        W31303  13.301  34.377  12.859
67536W        W31304  39.434   2.773  14.762
67537W        W31305  37.503  36.044  10.967
67538W        W31306   2.455  23.721  10.510
67539W        W31307  30.644  25.497  13.911
67540W        W31308  36.900  16.731  10.984
67541W        W31309  12.829  30.925  14.460
67542W        W31310   3.365  19.229  13.919
67543W        W31311  22.199  25.120  14.491
67544W        W31312  10.805  43.795   3.354
67545W        W31313  15.124  31.563   1.345
67546W        W31314  29.948   5.328  10.963
67547W        W31315  24.666  16.206  10.419
67548W        W31316  22.157  28.676  12.489
67549W        W31317   2.467   3.283   0.320
67550W        W31318   7.321   7.222   1.756
67551W        W31319  43.975  19.698   3.174
67552W        W31320  24.569  10.853  14.843
67553W        W31321   1.877  39.403  14.844
67554W        W31322  35.887  44.376   4.689
67555W        W31323  29.162   2.947  12.466
67556W        W31324   0.250  29.501   1.406
67557W        W31325  31.051  23.648   2.795
67558W        W31326  37.573  39.365  10.493
67559W        W31327  37.428  16.292   2.291
67560W        W31328  32.489  18.170  14.463
67561W        W31329  42.936  20.232  13.900
67562W        W31330   6.875   1.946  12.424
67563W        W31331  29.437  17.768   0.800
67564W        W31332  17.787  11.266  11.952
67565W        W31333  44.952  40.542   1.912
67566W        W31334  33.593  11.803   1.782
67567W        W31335  16.253  39.955  11.938
67568W        W31336  43.311  43.435   1.700
67569W        W31337  21.181   7.880   4.329
67570W        W31338  31.520   9.382  11.443
67571W        W31339  15.671  24.995   0.851
67572W        W31340   0.777   2.438   4.226
67573W        W31341  25.508  39.929  11.934
67574W        W31342  28.120   6.291  14.494
67575W        W31343  40.038   3.886   2.747
67576W        W31344  13.728  42.829  14.967
67577W        W31345   8.692  19.239  14.811
67578W        W31346  23.725   9.176   4.289
67579W        W31347  43.008  25.613   0.825
67580W        W31348  13.722  12.763   1.870
67581W        W31349  20.742  40.468  11.434
67582W        W31350  32.994  37.886   1.378
67583W        W31351   2.774   5.248  11.511
67584W        W31352  17.259  41.353   5.097
67585W        W31353   9.304  34.111  14.012
67586W        W31354  16.693  22.139   2.353
67587W        W31355  43.807  32.986  11.453
67588W        W31356  14.326  22.525  12.907
67589W        W31357  15.802   7.368   3.703
67590W        W31358   8.194   0.358   1.397
67591W        W31359   0.775  35.029  10.933
67592W        W31360  15.748   9.384  10.541
67593W        W31361  42.001  41.347   0.816
67594W        W31362  22.019  33.432   4.301
67595W        W31363  36.883   6.192   3.752
67596W        W31364   3.335  22.193   0.931
67597W        W31365  27.591  41.853  14.019
67598W        W31366  44.410  14.739   4.317
67599W        W31367  17.598  26.516  12.542
67600W        W31368  23.119  43.995  13.329
67601W        W31369  21.088  13.619   0.765
67602W        W31370   7.864  42.786  12.509
67603W        W31371  20.170  42.330   3.684
67604W        W31372  29.522  10.356   1.823
67605W        W31373  10.812  12.335   1.727
67606W        W31374   1.844   2.346   1.255
67607W        W31375  35.358  15.115  11.462
67608W        W31376  22.241  34.067  10.430
67609W        W31377  31.007  33.553  10.056
67610W        W31378   1.436  12.627  13.015
67611W        W31379  44.281   6.243  13.418
67612W        W31380  19.687  42.790  11.529
67613W        W31381   1.929  27.012   3.149
67614W        W31382  20.204  10.849   0.837
67615W        W31383  23.209  19.242  14.472
67616W        W31384   8.714  33.945  13.528
67617W        W31385   9.837   1.340   2.240
67618W        W31386  44.851   7.890   1.694
67619W        W31387  25.001   7.212   1.799
67620W        W31388  35.435  35.433   1.715
67621W        W31389  14.275  18.161   1.324
67622W        W31390  21.599  28.019   2.270
67623W        W31391   7.869  16.215  11.478
67624W        W31392  13.229  35.434  11.385
67625W        W31393  20.255  25.088   4.150
67626W        W31394   7.225  34.396  12.051
67627W        W31395  11.667  20.659  12.894
67628W        W31396  44.333  36.404  14.854
67629W        W31397   5.279  38.450   4.770
67630W        W31398  29.063  23.135   4.768
67631W        W31399  21.221  19.630  13.802
67632W        W31400  21.727  38.565   3.307
67633W        W31401  32.096  32.455  13.412
67634W        W31402  24.666  22.173   3.201
67635W        W31403   1.274  20.566   0.927
67636W        W31404  13.641  30.528  12.537
67637W        W31405  14.740  35.910  14.000
67638W        W31406  41.836   0.291   0.826
67639W        W31407  20.089  26.633   3.655
67640W        W31408  15.109   6.809  14.450
67641W        W31409  21.116  24.034   1.754
67642W        W31410  38.328   3.283   0.479
67643W        W31411  36.558   9.161   2.700
67644W        W31412  12.342  13.823   3.345
67645W        W31413   9.807  20.206   4.240
67646W        W31414  18.175  21.618  10.507
67647W        W31415  31.474  25.692   2.232
67648W        W31416   5.786  19.144  13.036
67649W        W31417   0.384  32.613   3.702
67650W        W31418  41.404   6.194  14.330
67651W        W31419  36.470  43.482  10.984
67652W        W31420  24.593   2.252   1.871
67653W        W31421  19.258  34.907   3.803
67654W        W31422  33.574  17.588  12.885
67655W        W31423  36.572  42.356   1.366
67656W        W31424  23.992  37.339   4.280
67657W        W31425  13.152  17.276  10.998
67658W        W31426  16.683  17.656  10.616
67659W        W31427  25.642  21.137   5.316
67660W        W31428   1.477  28.572   3.863
67661W        W31429  37.493  31.134  14.343
67662W        W31430  33.907  41.006  13.974
67663W        W31431  35.980  21.250   5.223
67664W        W31432   6.850  36.511  11.604
67665W        W31433   0.311  15.771   3.213
67666W        W31434  25.560  15.188  14.027
67667W        W31435  41.007  42.856   3.629
67668W        W31436  43.909  39.328   2.758
67669W        W31437  26.994  18.076  11.049
67670W        W31438  10.690  25.042  13.843
67671W        W31439  32.035  29.149  12.932
67672W        W31440  21.122   7.696  13.409
67673W        W31441  23.570  13.117   9.951
67674W        W31442  36.911  12.834   0.245
67675W        W31443   5.380  31.554   1.379
67676W        W31444  13.254  38.468  10.921
67677W        W31445   4.704  25.572   0.758
67678W        W31446   3.406  27.013   1.847
67679W        W31447  17.608  36.075  14.767
67680W        W31448  26.508  17.776  11.856
67681W        W31449  32.518  18.641   0.270
67682W        W31450  33.522  24.588  13.889
67683W        W31451  21.734   6.899   3.248
67684W        W31452  37.353   7.385   0.383
67685W        W31453  16.273  36.041  11.046
67686W        W31454   9.823   9.765  13.916
67687W        W31455  19.191  15.215   0.359
67688W        W31456   0.885  28.523  10.632
67689W        W31457  40.390  13.154  13.872
67690W        W31458  44.787  23.496   4.199
67691W        W31459  37.877  26.672   2.230
67692W        W31460  39.352  13.639   0.453
67693W        W31461  40.946  35.548   1.430
67694W        W31462  30.120   7.408   2.696
67695W        W31463  19.040  15.294  14.986
67696W        W31464  24.185   1.750  13.332
67697W        W31465   1.238  29.548   0.483
67698W        W31466   9.260   5.307   3.713
67699W        W31467  17.799  10.636   3.231
67700W        W31468  33.973  13.151  13.374
67701W        W31469  20.633  40.334   1.856
67702W        W31470  23.187  42.373   2.814
67703W        W31471  28.059   5.862   3.682
67704W        W31472  22.728   4.394   3.682
67705W        W31473   1.907  33.110  10.993
67706W        W31474  38.059  43.332   0.897
67707W        W31475  22.583  17.142  13.978
67708W        W31476  44.755  35.491  14.513
67709W        W31477  31.145  21.127  12.957
67710W        W31478  31.020  21.241  11.002
67711W        W31479  27.944  24.027   4.299
67712W        W31480   5.822  33.960   2.417
67713W        W31481   4.319  30.007   1.887
67714W        W31482  17.186  25.143  14.317
67715W        W31483  15.788   9.299  12.554
67716W        W31484  44.328  14.216   2.812
67717W        W31485  30.425  15.270   4.725
67718W        W31486  14.737  23.073   3.311
67719W        W31487   4.304  44.761   0.789
67720W        W31488   1.817   3.810  13.023
67721W        W31489  43.865  18.637   2.182
67722W        W31490  13.249  22.056   0.287
67723W        W31491  37.401  30.552  12.010
67724W        W31492   6.922  13.264   3.792
67725W        W31493  31.529  32.411  12.942
67726W        W31494  28.985  43.963  13.867
67727W        W31495  14.732   2.344  14.398
67728W        W31496  13.795  29.964   4.639
67729W        W31497   9.155  41.010  11.464
67730W        W31498  20.551   5.708  10.435
67731W        W31499  16.627   5.335  13.449
67732W        W31500  18.179   0.404   3.698
67733W        W31501  31.933   4.398  12.488
67734W        W31502  33.115   3.916   4.600
67735W        W31503  23.062  21.159  11.944
67736W        W31504  14.758   9.728  11.379
67737W        W31505   8.768   8.822   0.353
67738W        W31506   4.380  41.846   0.847
67739W        W31507  40.901  11.693   4.804
67740W        W31508  15.775  11.676   2.381
67741W        W31509   4.239   6.247  10.889
67742W        W31510  34.605   7.367   0.753
67743W        W31511  40.445   9.654   3.660
67744W        W31512  39.439  24.202   2.271
67745W        W31513  15.126  11.324   3.333
67746W        W31514  38.890  22.154  11.127
67747W        W31515  41.794   4.783  11.022
67748W        W31516  20.113  10.259  10.445
67749W        W31517  14.656  21.656   3.816
67750W        W31518  43.008  25.985   2.402
67751W        W31519  17.747  30.469   1.752
67752W        W31520  34.992  12.286  10.543
67753W        W31521  29.149  15.823   0.835
67754W        W31522  40.349  22.184  12.937
67755W        W31523  33.578  43.305   1.341
67756W        W31524  35.887  16.682  11.393
67757W        W31525  17.243  34.441   1.900
67758W        W31526  36.028  33.892  11.092
67759W        W31527  15.824   1.851  13.539
67760W        W31528   2.957  16.205   0.303
67761W        W31529  21.548  17.252   2.853
67762W        W31530  12.721  19.559  13.943
67763W        W31531  25.577  20.558  13.530
67764W        W31532  32.417   5.739   4.278
67765W        W31533  42.382  30.073   3.262
67766W        W31534   7.316  35.938  12.493
67767W        W31535  22.075  34.405  10.997
67768W        W31536  10.344  14.660   4.330
67769W        W31537   8.223  13.698  10.585
67770W        W31538  33.922  34.429  11.567
67771W        W31539  43.373  10.261   1.410
67772W        W31540  10.805   8.830   0.441
67773W        W31541   0.855  33.977   3.232
67774W        W31542  34.117   8.821   1.807
67775W        W31543  41.317   8.207  11.054
67776W        W31544  24.633  18.783  13.955
67777W        W31545  29.580  25.604  12.033
67778W        W31546  36.051  13.106   4.693
67779W        W31547  25.485  23.183   4.627
67780W        W31548  24.585  39.560  10.561
67781W        W31549  32.490  28.937  13.466
67782W        W31550  22.511  33.093  10.465
67783W        W31551  23.541  37.439  13.362
67784W        W31552  43.913  43.315  12.422
67785W        W31553  34.012   7.752   4.172
67786W        W31554  28.500   1.843  13.377
67787W        W31555  28.635   3.850   4.312
67788W        W31556   9.374  38.044   1.696
67789W        W31557  37.399  21.529   3.756
67790W        W31558  29.113   8.241  11.571
67791W        W31559  32.508  13.730   2.859
67792W        W31560  25.970   4.206  10.507
67793W        W31561   9.715  24.647  12.840
67794W        W31562  28.602  25.521   1.888
67795W        W31563  42.974  26.017  10.966
67796W        W31564  42.345  35.582  14.932
67797W        W31565   4.772  40.868   0.483
67798W        W31566  19.136  33.932   4.138
67799W        W31567   4.851   7.328  12.464
67800W        W31568  11.285  18.282  14.995
67801W        W31569  33.562   8.873   1.909
67802W        W31570  33.035  13.275   1.810
67803W        W31571  31.517  34.061   4.668
67804W        W31572  20.047  23.169   3.335
67805W        W31573  32.440  40.494   4.224
67806W        W31574  28.097  42.431  10.626
67807W        W31575  23.520  44.841  13.838
67808W        W31576   1.889  16.084  14.006
67809W        W31577  21.097  14.590   4.788
67810W        W31578  20.541  31.629   5.204
67811W        W31579   0.824  15.249  11.109
67812W        W31580  17.646   5.420  11.915
67813W        W31581  34.049   2.931  12.868
67814W        W31582  15.774  24.666   1.894
67815W        W31583   4.278  10.822   3.870
67816W        W31584  27.478  15.588  13.807
67817W        W31585  21.249  37.891  12.827
67818W        W31586   6.253  22.182   2.759
67819W        W31587   8.238  41.963   4.742
67820W        W31588  15.227   6.220   0.759
67821W        W31589  11.158  19.715  13.976
67822W        W31590   8.781  39.066  12.487
67823W        W31591   8.173  16.308   4.259
67824W        W31592  11.235  22.561  14.450
67825W        W31593  24.119  24.664  11.417
67826W        W31594  10.777  23.050  13.017
67827W        W31595   6.382  40.821   4.239
67828W        W31596   6.199  11.291  10.129
67829W        W31597  17.303  29.661   1.371
67830W        W31598  31.928  38.354   2.873
67831W        W31599  19.059  43.892  14.990
67832W        W31600  41.533  31.639  12.971
67833W        W31601  34.446  23.098  14.288
67834W        W31602  18.663  42.985  13.041
67835W        W31603   8.726   0.477   3.193
67836W        W31604  26.566  12.782  14.504
67837W        W31605  17.123   7.668   4.603
67838W        W31606  18.119   6.707  12.874
67839W        W31607  13.131  13.231   1.436
67840W        W31608   6.274  21.707   3.218
67841W        W31609  28.494   3.402   2.306
67842W        W31610  14.777  39.839  12.869
67843W        W31611  40.854  29.991   1.260
67844W        W31612   2.288  16.801  10.537
67845W        W31613  27.502  26.035   0.258
67846W        W31614  31.485  33.885   4.277
67847W        W31615  29.059  36.507  10.496
67848W        W31616  42.996  10.307  12.032
67849W        W31617  19.090  15.763   4.287
67850W        W31618  37.441  26.105   4.234
67851W        W31619  25.471  37.078  13.956
67852W        W31620  44.396  25.484  12.494
67853W        W31621  19.675  24.180   3.181
67854W        W31622   8.873  13.226  11.083
67855W        W31623  16.672  28.960   2.398
67856W        W31624   6.389  36.970   3.226
67857W        W31625  35.861  18.172   2.408
67858W        W31626  18.139  13.820  10.586
67859W        W31627   2.406  28.987   0.749
67860W        W31628  30.984  18.756   4.252
67861W        W31629  35.901  43.800   0.316
67862W        W31630  33.064  25.498   1.325
67863W        W31631   8.769  10.236   0.932
67864W        W31632  38.539  26.632  14.957
67865W        W31633  14.795  19.248   2.898
67866W        W31634  37.023   1.894  12.440
67867W        W31635  44.381  30.484   3.659
67868W        W31636  32.094  28.064   3.771
67869W        W31637  34.013  42.929  11.574
67870W        W31638  23.084  19.223   4.207
67871W        W31639  31.042  19.534  14.436
67872W        W31640   2.276  44.271   1.285
67873W        W31641  31.521  18.170  11.425
67874W        W31642  41.410  44.860  13.019
67875W        W31643  27.138  23.209  14.400
67876W        W31644  20.164  33.529   3.652
67877W        W31645   1.466   5.259  13.532
67878W        W31646  38.498   5.296   4.171
67879W        W31647  15.783  32.573  11.466
67880W        W31648  25.665  19.092   2.249
67881W        W31649  39.004   1.262   4.122
67882W        W31650   3.909  10.381   0.808
67883W        W31651  27.622  15.664   5.172
67884W        W31652  32.928  29.472   3.339
67885W        W31653   8.235   9.803   2.347
67886W        W31654  29.975   6.404  14.988
67887W        W31655  31.587  44.869  11.890
67888W        W31656  13.113  20.667   2.249
67889W        W31657   8.231  33.480   4.669
67890W        W31658  16.808  19.156  10.475
67891W        W31659   7.250  13.157  13.812
67892W        W31660   2.226  42.403   2.725
67893W        W31661  31.497  42.394   1.833
67894W        W31662  29.112  40.461   2.393
67895W        W31663  26.181  35.478  13.472
67896W        W31664   4.257  43.919  11.098
67897W        W31665  16.158  24.224  14.848
67898W        W31666  14.291  43.819  12.550
67899W        W31667   5.899  11.176  10.500
67900W        W31668  32.588  34.973  11.861
67901W        W31669  11.210  36.903  12.407
67902W        W31670  23.131  12.663   2.711
67903W        W31671   9.810  18.149  12.088
67904W        W31672  22.034  33.444  10.926
67905W        W31673  28.982  32.486  11.592
67906W        W31674  37.518  20.134  12.474
67907W        W31675  17.587  16.202   3.198
67908W        W31676  38.929  14.594   0.835
67909W        W31677  40.400  24.644  13.943
67910W        W31678  14.611   4.328   3.764
67911W        W31679  17.172  26.472   4.259
67912W        W31680  38.057   6.898   4.148
67913W        W31681  41.514  11.717   0.828
67914W        W31682  17.212  29.953  12.931
67915W        W31683  42.320  15.273   0.935
67916W        W31684  30.034  21.631   3.698
67917W        W31685  41.419  32.548  14.963
67918W        W31686  41.974  22.116  12.509
67919W        W31687  14.338  34.612   0.459
67920W        W31688   8.308  26.991  13.516
67921W        W31689  37.977  12.633   3.827
67922W        W31690  29.169  41.536  10.508
67923W        W31691  42.333  17.286   3.269
67924W        W31692  34.501  26.204   2.283
67925W        W31693  32.469   3.350  10.616
67926W        W31694  34.046  28.150  13.541
67927W        W31695  29.142  37.472   0.730
67928W        W31696   9.367  10.217  11.026
67929W        W31697  41.535  28.051   1.414
67930W        W31698  33.119  38.570  12.504
67931W        W31699   3.727  40.008   2.388
67932W        W31700  21.616  14.815  13.367
67933W        W31701   9.679  20.631  14.985
67934W        W31702  36.486   7.174  11.086
67935W        W31703  27.616   0.955   2.835
67936W        W31704  43.506   3.712   0.782
67937W        W31705  43.439   7.172   2.325
67938W        W31706  18.099  26.509   1.875
67939W        W31707  25.096  18.074  13.887
67940W        W31708  25.204  16.591   3.772
67941W        W31709  24.612  24.547  10.952
67942W        W31710  27.182   8.720   0.460
67943W        W31711  28.473  21.654   1.384
67944W        W31712  25.971  33.913   4.223
67945W        W31713  42.453  28.471   4.687
67946W        W31714   1.309  18.699   1.809
67947W        W31715  37.947  17.615   3.351
67948W        W31716  41.341  22.193  13.508
67949W        W31717  29.632  18.154   1.845
67950W        W31718  22.035   1.793   1.442
67951W        W31719  27.988  33.456  14.475
67952W        W31720  29.668   6.332  13.995
67953W        W31721  10.214   7.761   0.297
67954W        W31722  24.104  41.940   1.746
67955W        W31723  33.431  38.042   1.881
67956W        W31724  17.752  44.418  13.418
67957W        W31725  11.854   6.795   3.344
67958W        W31726   9.864  37.340   1.300
67959W        W31727  28.436  30.554  14.011
67960W        W31728   5.306  35.062   1.219
67961W        W31729  28.670  25.472  10.580
67962W        W31730  25.555   4.791   4.721
67963W        W31731   6.193   5.378   2.696
67964W        W31732  25.161  19.587   1.730
67965W        W31733  32.940  10.855  12.541
67966W        W31734   4.710  25.625  13.959
67967W        W31735  21.542   4.765  12.548
67968W        W31736  25.157  25.497   1.224
67969W        W31737  38.453  11.811   2.226
67970W        W31738  36.040  28.096  10.503
67971W        W31739  42.522  26.968  13.456
67972W        W31740  32.090  26.963   4.703
67973W        W31741   8.336  24.205  12.971
67974W        W31742  27.692   0.836   3.180
67975W        W31743  18.097  20.676  12.078
67976W        W31744  32.476   2.800  11.980
67977W        W31745  43.509  14.233   0.396
67978W        W31746   2.875  14.757   2.780
67979W        W31747  28.522  11.765   3.656
67980W        W31748  14.136  14.710   4.672
67981W        W31749  14.173  17.154   3.728
67982W        W31750  29.138  40.417   4.348
67983W        W31751  11.269  13.229   4.195
67984W        W31752   6.279  19.555   3.817
67985W        W31753  36.502  15.604  11.874
67986W        W31754  37.040  11.201  13.467
67987W        W31755  42.020  28.938  12.351
67988W        W31756   3.772   0.257   3.779
67989W        W31757  26.554  24.688  12.013
67990W        W31758   3.883  38.534   3.228
67991W        W31759  31.968  44.475   1.785
67992W        W31760  43.349  13.667  11.061
67993W        W31761   9.299  13.145  10.442
67994W        W31762   3.382  24.170  13.016
67995W        W31763  29.010  43.961  14.463
67996W        W31764  36.055  17.259   1.296
67997W        W31765  32.539  16.243   1.425
67998W        W31766  26.642  11.743   2.701
67999W        W31767  23.997  16.752   2.827
68000W        W31768  25.581   9.266  14.001
68001W        W31769  29.450   5.246  14.365
68002W        W31770  26.033  27.469  12.055
68003W        W31771  33.575  17.113  11.095
68004W        W31772   2.361  27.530  12.407
68005W        W31773  19.728  36.452   1.223
68006W        W31774   3.712  21.680  13.465
68007W        W31775  14.290  10.145  14.845
68008W        W31776   3.286  31.007  10.609
68009W        W31777  18.599  19.188  11.022
68010W        W31778  13.282   7.272  10.449
68011W        W31779  11.366   3.884   3.189
68012W        W31780   9.231  30.615  13.519
68013W        W31781  37.506  30.156   2.392
68014W        W31782  18.276  44.299   4.126
68015W        W31783  36.967  29.666   2.700
68016W        W31784   5.752  44.945   1.809
68017W        W31785  34.410  14.719  13.510
68018W        W31786  41.877  19.697  14.367
68019W        W31787   6.197  17.568  11.097
68020W        W31788  13.817   6.218   2.879
68021W        W31789   9.356  13.345  12.081
68022W        W31790  24.515  33.576   5.256
68023W        W31791  16.190  14.680  10.481
68024W        W31792  19.693  35.029   4.188
68025W        W31793  20.535  15.090   2.873
68026W        W31794  23.001  14.776   2.672
68027W        W31795  21.615  20.750  11.526
68028W        W31796  42.823  22.217   2.372
68029W        W31797  39.065  26.685  14.390
68030W        W31798  40.939  26.954   1.355
68031W        W31799  14.213  44.461   1.295
68032W        W31800  11.200  16.690   3.256
68033W        W31801  41.788  12.132  13.503
68034W        W31802   7.406   2.397  13.855
68035W        W31803  34.937  25.111   3.634
68036W        W31804   6.398  40.423   4.207
68037W        W31805  22.231   7.354   3.825
68038W        W31806  15.093  27.037  11.566
68039W        W31807  43.959  29.155  10.526
68040W        W31808   1.365  35.968  13.404
68041W        W31809  26.018  19.708  14.419
68042W        W31810   9.757  25.197   2.840
68043W        W31811  43.440  30.028  12.052
68044W        W31812  13.120  43.844  12.974
68045W        W31813  40.402  10.294   2.669
68046W        W31814  19.272  14.255   4.789
68047W        W31815  32.599  26.989  14.839
68048W        W31816  18.098  10.824   3.259
68049W        W31817  31.565  30.099  14.790
68050W        W31818  40.545  28.113   1.820
68051W        W31819  16.714   2.337   4.787
68052W        W31820   9.776  40.922   2.819
68053W        W31821  39.339  43.435   2.207
68054W        W31822  29.621  24.005   4.253
68055W        W31823  13.600  10.139  12.339
68056W        W31824  23.678   6.748   0.932
68057W        W31825  35.086  30.594   1.235
68058W        W31826  33.917  10.158  10.958
68059W        W31827  38.528   8.746  12.555
68060W        W31828   1.806  16.796  11.043
68061W        W31829  34.899  36.549  14.010
68062W        W31830  16.721  15.621   0.439
68063W        W31831  39.967  35.070  11.506
68064W        W31832  34.075  37.078   3.768
68065W        W31833  16.750  19.216   0.355
68066W        W31834  30.552  24.574  11.564
68067W        W31835  40.425  31.011   4.230
68068W        W31836  29.974   4.776  11.471
68069W        W31837   7.361  11.173  12.978
68070W        W31838  26.087  28.664   3.330
68071W        W31839  29.168  25.470  11.072
68072W        W31840   4.275  14.167  10.474
68073W        W31841  38.941  25.000  13.831
68074W        W31842  37.889  25.693   2.243
68075W        W31843  14.232   9.360   4.695
68076W        W31844  40.340  36.419  14.982
68077W        W31845  10.693  36.481  11.456
68078W        W31846  17.300  40.538   1.224
68079W        W31847  41.960  33.596   3.373
68080W        W31848  10.877  31.111   4.185
68081W        W31849  12.626  11.674   3.826
68082W        W31850  28.511  32.073   2.673
68083W        W31851  29.645  30.561   0.429
68084W        W31852   8.868   1.835  10.904
68085W        W31853  18.220  29.042  10.590
68086W        W31854   4.375  26.999   4.243
68087W        W31855   4.873  37.478   9.979
68088W        W31856  37.898   3.275  13.946
68089W        W31857  43.390  30.018   4.669
68090W        W31858  10.227  29.000  11.084
68091W        W31859   7.902  34.913  14.494
68092W        W31860  33.597  44.409   3.639
68093W        W31861   7.764  16.210  14.987
68094W        W31862  24.557  37.946   1.241
68095W        W31863  43.342  30.160   1.435
68096W        W31864  44.422   5.841  14.790
68097W        W31865  41.876  21.579  14.279
68098W        W31866   4.764  39.417   3.729
68099W        W31867   1.945  20.200  10.534
68100W        W31868  24.976   0.260   4.773
68101W        W31869  38.525  23.570   1.324
68102W        W31870  18.582  30.983   3.738
68103W        W31871   8.204  37.563  12.944
68104W        W31872  24.049  14.169  12.521
68105W        W31873   5.218  29.157   1.712
68106W        W31874  37.891  10.152  10.435
68107W        W31875  23.585  22.148  13.351
68108W        W31876   6.704   1.343  14.838
68109W        W31877  18.697   6.881  11.385
68110W        W31878  32.997  24.122   0.440
68111W        W31879  34.871   4.419  14.869
68112W        W31880  41.448  31.966   3.780
68113W        W31881  23.073  22.112   1.217
68114W        W31882   0.889  12.125   4.618
68115W        W31883  40.348   6.823   0.318
68116W        W31884   2.412  16.082  13.377
68117W        W31885  39.938  35.596  13.534
68118W        W31886  13.652  23.496   2.299
68119W        W31887  37.397  27.140  14.773
68120W        W31888  29.496   0.467   2.300
68121W        W31889  32.050  20.601  11.120
68122W        W31890  44.295   2.839   3.323
68123W        W31891   0.858  13.253  12.970
68124W        W31892  39.407  28.470   2.235
68125W        W31893  12.288  10.169   9.980
68126W        W31894  24.141  43.003   1.834
68127W        W31895  40.994  38.860  10.478
68128W        W31896  23.130   5.439  13.806
68129W        W31897  38.881   8.761   2.812
68130W        W31898   8.302  30.911  14.415
68131W        W31899  18.249  30.930  14.356
68132W        W31900  32.062  18.582  12.411
68133W        W31901  10.663  37.905  14.028
68134W        W31902  26.552  10.638   3.356
68135W        W31903  29.169  15.758   2.361
68136W        W31904  37.078  20.677   1.357
68137W        W31905   1.289  39.485   0.324
68138W        W31906  38.008  24.045   2.211
68139W        W31907  42.945  33.486  14.029
68140W        W31908  16.725  25.999  10.565
68141W        W31909  25.566   8.850   1.860
68142W        W31910  27.616  36.039  13.365
68143W        W31911  29.444  23.058  14.431
68144W        W31912   1.476  12.731  12.463
68145W        W31913  42.401  33.984   2.258
68146W        W31914   0.476  14.809   2.783
68147W        W31915  10.785   8.796   4.168
68148W        W31916  12.361   5.416  14.022
68149W        W31917  23.542   3.317  13.848
68150W        W31918   0.431  33.468   1.259
68151W        W31919  36.438   2.329  10.635
68152W        W31920  30.556  19.236   1.801
68153W        W31921   1.925  42.429  12.014
68154W        W31922  10.649  17.622  13.345
68155W        W31923   1.441  43.936   2.688
68156W        W31924   5.339   7.385  10.406
68157W        W31925  41.938  31.111  10.593
68158W        W31926  28.054  12.290  11.552
68159W        W31927  25.012  17.133  11.099
68160W        W31928  41.875  37.905   3.792
68161W        W31929  41.932   3.764  12.954
68162W        W31930   3.427  37.907  14.798
68163W        W31931  27.048  26.207   1.832
68164W        W31932  31.618  28.640  11.978
68165W        W31933  38.532  30.498   2.892
68166W        W31934   4.307  41.418  14.502
68167W        W31935   0.307  26.978  10.919
68168W        W31936  10.820  23.037   2.234
68169W        W31937  10.823  24.212   1.758
68170W        W31938   0.951   3.804   4.202
68171W        W31939  17.795  35.414   0.352
68172W        W31940  43.365  32.035   5.291
68173W        W31941   7.764  15.285   4.198
68174W        W31942  21.124  37.480  13.460
68175W        W31943  22.679   7.363  10.578
68176W        W31944   6.382   4.858   2.796
68177W        W31945  36.875  42.408  11.020
68178W        W31946  22.105  34.965   4.271
68179W        W31947   6.404  32.428  14.935
68180W        W31948   6.775  21.144  14.312
68181W        W31949  10.640   2.266  14.008
68182W        W31950   5.835  36.930  14.905
68183W        W31951  19.534   5.368  10.960
68184W        W31952  40.327  25.577   0.733
68185W        W31953   0.923   4.360  14.917
68186W        W31954  15.818  43.397  11.018
68187W        W31955  25.977  11.818   1.856
68188W        W31956  15.770   6.765  14.986
68189W        W31957  23.041  33.882  14.342
68190W        W31958   7.412   0.401   4.718
68191W        W31959   2.721  40.913  13.961
68192W        W31960  26.093  18.092   4.338
68193W        W31961  28.052  19.260  11.538
68194W        W31962   1.852  40.868   3.679
68195W        W31963  21.575   6.370   0.318
68196W        W31964   4.846   4.204   0.261
68197W        W31965  16.155  10.217  14.836
68198W        W31966  13.723   0.870   0.248
68199W        W31967   0.925   1.378  11.082
68200W        W31968  24.196  32.480  11.891
68201W        W31969  17.097  43.455   0.794
68202W        W31970  38.534  11.663   2.719
68203W        W31971  42.494   7.716  12.558
68204W        W31972  33.879  19.657  14.336
68205W        W31973   9.215  13.701   4.639
68206W        W31974  38.875   3.289  12.841
68207W        W31975  27.119  10.661  11.888
68208W        W31976  22.647  28.629  12.351
68209W        W31977  43.006  23.671   1.287
68210W        W31978  35.376  25.001  11.402
68211W        W31979  41.961  10.200  12.962
68212W        W31980  37.898  19.576   2.214
68213W        W31981  11.705  10.325  14.777
68214W        W31982  44.888  35.913   3.676
68215W        W31983   3.269  23.993   1.927
68216W        W31984  40.521  29.476   0.789
68217W        W31985  10.155   6.736   4.747
68218W        W31986  24.014  29.971  10.514
68219W        W31987  28.972  41.882   2.355
68220W        W31988   9.747  21.053  13.936
68221W        W31989  33.469   0.971  10.513
68222W        W31990  44.354  17.160  13.485
68223W        W31991  36.363  30.547   3.196
68224W        W31992  16.763  20.205  14.762
68225W        W31993  19.264  36.532   3.339
68226W        W31994  25.626   2.296  12.922
68227W        W31995  11.291  30.017   3.364
68228W        W31996   7.217   0.464   3.729
68229W        W31997  41.929   5.824  12.023
68230W        W31998  22.661  13.347   3.765
68231W        W31999  25.679  31.055  13.393
68232W        W32000  39.316  36.382   3.765
68233W        W32001   4.319  43.980  13.047
68234W        W32002  43.487  29.139   1.864
68235W        W32003  16.806  10.675  13.033
68236W        W32004  37.868   9.782   2.202
68237W        W32005   7.309  29.449  13.987
68238W        W32006  33.530   9.390  14.030
68239W        W32007   4.703  28.054  13.526
68240W        W32008  16.785   8.794   3.376
68241W        W32009  10.689   8.685   3.248
68242W        W32010  16.278  23.682   1.340
68243W        W32011   2.460   8.299  14.446
68244W        W32012  37.904  33.430  12.893
68245W        W32013  39.027  33.073  12.023
68246W        W32014   1.390  15.112   2.886
68247W        W32015   1.260  35.529   2.286
68248W        W32016  16.293  30.532   4.705
68249W        W32017  38.827  15.255  13.486
68250W        W32018  26.703  16.259   2.794
68251W        W32019  30.533   8.262  14.302
68252W        W32020  12.792  43.841   0.262
68253W        W32021   2.890  40.405  14.952
68254W        W32022  13.109  22.140   4.115
68255W        W32023  35.602  12.257   3.781
68256W        W32024  22.008  10.346  11.890
68257W        W32025  39.352   2.235  14.449
68258W        W32026  21.220  21.539   0.803
68259W        W32027   5.753  26.093  14.896
68260W        W32028  34.404  27.967  13.311
68261W        W32029  18.665  11.266  14.825
68262W        W32030  30.088  42.419   4.773
68263W        W32031  34.984  41.798  13.821
68264W        W32032   3.412  22.130   2.831
68265W        W32033  17.676  31.083  13.979
68266W        W32034   3.919   1.911   4.291
68267W        W32035   8.237  10.683  12.943
68268W        W32036  26.527  42.435   2.341
68269W        W32037   4.762   1.969  13.847
68270W        W32038  31.530  11.845   1.243
68271W        W32039   5.850  37.472   3.231
68272W        W32040   0.331  34.399   2.894
68273W        W32041  14.144  23.180  13.545
68274W        W32042  11.665   8.294  14.318
68275W        W32043  22.657   0.479  13.518
68276W        W32044  36.871  44.499   1.805
68277W        W32045   6.408   2.869  10.964
68278W        W32046  34.585  41.003   2.731
68279W        W32047  21.653  25.058  14.031
68280W        W32048  33.127  43.812  12.339
68281W        W32049   2.923  41.886   4.805
68282W        W32050  35.063  25.689  11.080
68283W        W32051   2.818  34.049   1.749
68284W        W32052  15.724  33.431  13.512
68285W        W32053  40.993  43.353  11.460
68286W        W32054  33.605   1.783  12.028
68287W        W32055  27.989  31.005  13.951
68288W        W32056   9.747  26.148  14.401
68289W        W32057  20.741  24.143   3.386
68290W        W32058  16.633   7.238  11.519
68291W        W32059  35.386  26.486   3.330
68292W        W32060  15.259   3.777  10.497
68293W        W32061  42.989  27.141   0.748
68294W        W32062  37.865  32.466  12.569
68295W        W32063  30.615  32.619  14.368
68296W        W32064  17.125  16.796   0.893
68297W        W32065  10.641  14.300   3.818
68298W        W32066  32.464  34.981   2.415
68299W        W32067  34.112  32.554  12.565
68300W        W32068   7.692  13.808   2.389
68301W        W32069  32.582  36.351   0.814
68302W        W32070  21.521  39.823  11.446
68303W        W32071  11.777  13.139   2.891
68304W        W32072  12.321  26.657   2.413
68305W        W32073  11.653   1.834  11.570
68306W        W32074  22.594   2.783  14.443
68307W        W32075  33.075  28.667  11.934
68308W        W32076  43.896  14.195  11.933
68309W        W32077  19.583  25.072   2.305
68310W        W32078  16.147  26.037   3.165
68311W        W32079  27.638  20.680   0.267
68312W        W32080  34.482  16.122  14.329
68313W        W32081  18.545  29.661  13.815
68314W        W32082  16.758  11.372  14.470
68315W        W32083  38.983  16.232  11.903
68316W        W32084  38.991  18.572   3.858
68317W        W32085  12.654  43.888  14.878
68318W        W32086   1.829  10.830  14.508
68319W        W32087  12.842  23.207  10.491
68320W        W32088  40.458  21.594   3.165
68321W        W32089  41.423  13.642   2.312
68322W        W32090  27.012  17.092   3.313
68323W        W32091  14.650  16.745   4.137
68324W        W32092  29.158   1.890  14.301
68325W        W32093   6.335  44.759   2.405
68326W        W32094  20.657  43.791   4.307
68327W        W32095   7.170  44.282  13.405
68328W        W32096   2.271  29.125  11.019
68329W        W32097  21.566  21.550  11.904
68330W        W32098  37.851  36.414  13.338
68331W        W32099   0.935  30.996   2.830
68332W        W32100  25.040  13.192  14.494
68333W        W32101   1.950   3.258   4.330
68334W        W32102  41.487  31.981   2.729
68335W        W32103  23.558   0.279  13.962
68336W        W32104  23.110   2.262  13.815
68337W        W32105  18.791  44.909   2.819
68338W        W32106   3.714  26.471   1.450
68339W        W32107   4.906   9.647   3.205
68340W        W32108  21.666  11.710  14.880
68341W        W32109   6.400  33.432  13.356
68342W        W32110  32.050  35.006   4.330
68343W        W32111  16.566  22.159  14.298
68344W        W32112  26.016  17.575  11.555
68345W        W32113   0.494  37.509  13.967
68346W        W32114  41.317  13.753   4.638
68347W        W32115  28.049  30.643   3.678
68348W        W32116  29.524  14.217  14.824
68349W        W32117   3.943   0.950  10.124
68350W        W32118  33.913  23.645   2.838
68351W        W32119  27.474  10.247   1.742
68352W        W32120  26.475   2.793  12.832
68353W        W32121   1.850  29.980   0.949
68354W        W32122  41.532  43.317  11.860
68355W        W32123  11.818  41.885   2.385
68356W        W32124  34.484  33.512   2.199
68357W        W32125   0.399  44.361  12.512
68358W        W32126  40.043  43.987  12.052
68359W        W32127  26.022  20.194  13.400
68360W        W32128  15.259   6.873  11.559
68361W        W32129  37.493   7.846  10.528
68362W        W32130  27.498  12.232   3.724
68363W        W32131  16.583  19.156   0.910
68364W        W32132  42.506   0.428   2.353
68365W        W32133  19.194  34.064  13.541
68366W        W32134  18.227  10.206  14.499
68367W        W32135  22.520   5.882  13.403
68368W        W32136  16.315  37.367  13.941
68369W        W32137   7.857  17.728  10.421
68370W        W32138   1.875  12.634  14.442
68371W        W32139  18.181   7.391   4.142
68372W        W32140  17.096  35.421  11.886
68373W        W32141  30.542  25.207   4.256
68374W        W32142  19.276  36.981  12.913
68375W        W32143  23.534  19.679  14.434
68376W        W32144  26.122   7.259  11.562
68377W        W32145  15.618   8.799   4.187
68378W        W32146   3.365  23.121  12.843
68379W        W32147  21.115   1.461  14.955
68380W        W32148  38.493  14.776   0.872
68381W        W32149   7.324  33.937   0.411
68382W        W32150  36.569   1.917   3.774
68383W        W32151  20.124  32.141   3.823
68384W        W32152  18.741  39.401   0.452
68385W        W32153   8.217  37.404  14.310
68386W        W32154  33.924  27.020  10.410
68387W        W32155  32.900  24.583  14.497
68388W        W32156  27.195  22.187  13.808
68389W        W32157   2.236   2.421  13.806
68390W        W32158  10.707  12.798   3.181
68391W        W32159   6.786  16.304  12.352
68392W        W32160  37.017  35.052  13.316
68393W        W32161  31.116  15.291  14.462
68394W        W32162  10.250   3.847   4.742
68395W        W32163   8.259  44.011   0.810
68396W        W32164   4.863  44.436   2.242
68397W        W32165  21.582   9.203   3.300
68398W        W32166   0.754  41.381  10.555
68399W        W32167  30.046   8.385  14.392
68400W        W32168  21.563  12.621  14.467
68401W        W32169  26.463  24.639   3.206
68402W        W32170  13.612  18.565  12.510
68403W        W32171  25.018  35.603   1.862
68404W        W32172  43.403  16.632  11.531
68405W        W32173  41.975   6.735  12.913
68406W        W32174  32.909  44.797  12.906
68407W        W32175  18.664  33.893   1.216
68408W        W32176   6.342  13.634  12.951
68409W        W32177  15.726  33.500  10.470
68410W        W32178  38.927  12.119   9.957
68411W        W32179  13.614  15.759  12.856
68412W        W32180  15.214  20.153  13.400
68413W        W32181   8.795   6.405   0.855
68414W        W32182  25.972   5.814   3.231
68415W        W32183   5.310  42.443   0.928
68416W        W32184  43.305  44.924  12.571
68417W        W32185  34.483  13.756  11.087
68418W        W32186  22.119  39.493   2.837
68419W        W32187  18.266  39.464  14.301
68420W        W32188  15.687   9.872  14.939
68421W        W32189   1.828  21.735  13.832
68422W        W32190  33.038  35.926   1.268
68423W        W32191  15.781   8.786   2.223
68424W        W32192   0.783   9.740  14.841
68425W        W32193  18.145  11.328   3.796
68426W        W32194  41.013  14.290  14.980
68427W        W32195  29.988  16.770   4.719
68428W        W32196  41.866  42.983  14.437
68429W        W32197  39.423  34.046   5.630
68430W        W32198  14.340  14.135  11.523
68431W        W32199  39.530  37.408  14.775
68432W        W32200  32.008  11.304  14.401
68433W        W32201  39.363  38.492  10.425
68434W        W32202  30.481  31.125   3.833
68435W        W32203  19.717  17.146   0.905
68436W        W32204   5.920  38.897  12.899
68437W        W32205  25.608  24.193  10.422
68438W        W32206  10.689  39.818   1.778
68439W        W32207  20.524  22.153   2.249
68440W        W32208   2.946  22.692   4.644
68441W        W32209   5.297  15.794  11.501
68442W        W32210  40.541   2.229   4.179
68443W        W32211  40.019  44.845  10.460
68444W        W32212  17.731  18.608  14.851
68445W        W32213  10.173   2.254  13.449
68446W        W32214  10.147  42.020  11.921
68447W        W32215  23.214  11.811   2.383
68448W        W32216  19.258  41.970  11.602
68449W        W32217  24.178  13.214   1.705
68450W        W32218  18.077  29.089   3.726
68451W        W32219  13.345   3.294  12.967
68452W        W32220  19.625  10.690  10.551
68453W        W32221  38.541   7.379   1.388
68454W        W32222  32.939  21.758   2.311
68455W        W32223  28.166  18.101   0.756
68456W        W32224  42.975  17.187   3.837
68457W        W32225  29.467  11.165  10.435
68458W        W32226  36.447  38.911   0.301
68459W        W32227  33.574   2.425   3.150
68460W        W32228   1.841  15.156   1.290
68461W        W32229  18.591  31.114  14.351
68462W        W32230   6.786  25.627  11.917
68463W        W32231  29.474  41.371   3.827
68464W        W32232  40.938   9.734   4.323
68465W        W32233  39.027  24.219  11.495
68466W        W32234  31.018  15.277  14.852
68467W        W32235  35.362  37.079   2.875
68468W        W32236  10.214  21.117   5.155
68469W        W32237  38.539  29.119  13.542
68470W        W32238  37.455   7.326  13.887
68471W        W32239  33.048  21.168   4.306
68472W        W32240  14.719  11.240   0.966
68473W        W32241  18.757  23.562   5.172
68474W        W32242  43.841   5.399   4.183
68475W        W32243  16.311  25.091   3.356
68476W        W32244  30.155   4.388  11.564
68477W        W32245   9.730  42.365  12.958
68478W        W32246  15.230   0.880  10.956
68479W        W32247  19.062  26.592  12.360
68480W        W32248  26.587  18.561   0.254
68481W        W32249  13.632   4.380   4.654
68482W        W32250  32.606  34.083   4.703
68483W        W32251  26.564  36.524   0.967
68484W        W32252  27.111  32.068   3.781
68485W        W32253  38.981  20.555   0.913
68486W        W32254  10.299   1.882  11.065
68487W        W32255  44.994  28.552  10.575
68488W        W32256  33.618  38.380  14.422
68489W        W32257   0.383  21.559   4.166
68490W        W32258  34.470  26.571  13.883
68491W        W32259  34.554   4.264  14.331
68492W        W32260   3.318  25.151  14.379
68493W        W32261  36.973  40.898   0.791
68494W        W32262  30.545  16.279   1.729
68495W        W32263  12.738  12.712  13.500
68496W        W32264   7.343  13.300  14.339
68497W        W32265  41.837   0.920   4.325
68498W        W32266  39.553  14.600   3.299
68499W        W32267  30.991  44.475   3.723
68500W        W32268  15.170  16.121   0.470
68501W        W32269  19.208   3.874  13.856
68502W        W32270   6.834  14.813  11.018
68503W        W32271  11.642  39.422  10.075
68504W        W32272  17.112  35.557   0.756
68505W        W32273  21.204  10.176  10.602
68506W        W32274  39.003  13.323  10.487
68507W        W32275  26.995   0.881   2.809
68508W        W32276  32.115   9.753  10.580
68509W        W32277  17.088  42.368  14.797
68510W        W32278  38.536  17.222  14.439
68511W        W32279  34.409  35.492  11.500
68512W        W32280  11.193   1.826   2.275
68513W        W32281  44.858  16.723   2.415
68514W        W32282  33.589   2.770   4.780
68515W        W32283  41.904  44.406  10.441
68516W        W32284  40.964  13.234   3.349
68517W        W32285   6.715  26.681  13.311
68518W        W32286  17.215   4.789  11.375
68519W        W32287  44.897  25.621  13.402
68520W        W32288   4.418  25.547   2.787
68521W        W32289  31.136  37.999   0.960
68522W        W32290  33.576   1.262   2.389
68523W        W32291   7.275   7.382   0.361
68524W        W32292  28.482   8.764   1.300
68525W        W32293  36.895  33.621  12.861
68526W        W32294  14.708  24.103  14.824
68527W        W32295  18.583  17.287   1.380
68528W        W32296   0.266  41.322  12.510
68529W        W32297  42.375  22.667  12.458
68530W        W32298  10.342  31.941  10.076
68531W        W32299  16.609  43.338   1.769
68532W        W32300  43.784  13.114   3.823
68533W        W32301  11.148  35.875  13.502
68534W        W32302  41.455  31.076   9.584
68535W        W32303   5.252   7.709  12.985
68536W        W32304  44.296  27.681  12.998
68537W        W32305  30.933  25.503  10.497
68538W        W32306  23.102  25.648   4.750
68539W        W32307  25.685  28.491  11.557
68540W        W32308  23.058   4.213  13.463
68541W        W32309  38.487  14.593  12.884
68542W        W32310  28.982  34.969  10.908
68543W        W32311  21.027  14.198  12.386
68544W        W32312   4.224  30.520  11.972
68545W        W32313  20.229   7.869   4.353
68546W        W32314  22.707  17.110   0.855
68547W        W32315  32.016   1.973  13.336
68548W        W32316  30.023   2.390   3.368
68549W        W32317  22.045  12.124   3.225
68550W        W32318  38.881  14.134   1.217
68551W        W32319  44.807  32.462  11.899
68552W        W32320  31.637   0.806  14.422
68553W        W32321   0.751  10.208  11.067
68554W        W32322  13.319  23.518  13.419
68555W        W32323  34.973  36.016   4.297
68556W        W32324  34.452   7.811   4.690
68557W        W32325  22.509  41.407   5.301
68558W        W32326  39.487  29.969   1.447
68559W        W32327   0.796   5.860   1.828
68560W        W32328   0.844  20.129  14.274
68561W        W32329  32.140  42.391   3.288
68562W        W32330  40.832  30.918   0.771
68563W        W32331  43.394  15.597  10.129
68564W        W32332   9.381  22.139  12.937
68565W        W32333  11.266  32.894  12.367
68566W        W32334   7.268  16.761   3.648
68567W        W32335   8.174  23.659   0.741
68568W        W32336  16.106  19.260  13.491
68569W        W32337  24.101  39.459  11.555
68570W        W32338  30.580   6.189  11.881
68571W        W32339  39.323  24.028   3.751
68572W        W32340  12.801  21.215  13.423
68573W        W32341  19.047   1.397   2.347
68574W        W32342   2.958   1.333  10.455
68575W        W32343  24.640  20.667  12.431
68576W        W32344  18.193  34.954   3.155
68577W        W32345  24.635  38.068   3.318
68578W        W32346  42.970   1.345   0.356
68579W        W32347  42.900  44.463  13.946
68580W        W32348  27.672  43.975   3.682
68581W        W32349   5.738   1.896  12.830
68582W        W32350  41.915  28.931   4.683
68583W        W32351   4.777  18.703  13.450
68584W        W32352  30.589   8.372   1.447
68585W        W32353  37.525  21.132   0.268
68586W        W32354   6.380   4.926   4.696
68587W        W32355  28.606   0.797  10.572
68588W        W32356  18.609   0.847   0.796
68589W        W32357  37.876  14.260  13.524
68590W        W32358  27.595  26.595  11.887
68591W        W32359  29.657   7.237  11.469
68592W        W32360  22.648  40.863   3.259
68593W        W32361  11.143  11.675  14.357
68594W        W32362   6.423  31.041  15.000
68595W        W32363  44.392  37.019  12.865
68596W        W32364   3.362  33.619   5.197
68597W        W32365  41.894  21.734   1.917
68598W        W32366  40.897   0.377   0.745
68599W        W32367  21.216  20.149   2.391
68600W        W32368  31.622   0.749  12.556
68601W        W32369  29.582  38.928   0.362
68602W        W32370  14.648  23.547   4.304
68603W        W32371  30.119  38.461   3.228
68604W        W32372  41.315   5.844   1.789
68605W        W32373  27.686  36.971  10.637
68606W        W32374  25.472  27.173   2.242
68607W        W32375   3.400  30.100   0.335
68608W        W32376  40.874  42.527  12.948
68609W        W32377  23.592  39.421  12.870
68610W        W32378  37.025  31.624   0.466
68611W        W32379  19.536  17.295   1.234
68612W        W32380   6.746  25.510   2.703
68613W        W32381   0.970   2.447   4.759
68614W        W32382   9.301  33.582  12.515
68615W        W32383   1.894  27.127  11.555
68616W        W32384  13.331  21.040   2.302
68617W        W32385   4.888  11.795   2.305
68618W        W32386  34.451   1.465  12.519
68619W        W32387   1.424  20.087  13.329
68620W        W32388  22.131   0.471   4.639
68621W        W32389  16.651  15.118   1.733
68622W        W32390  43.496  23.527  13.525
68623W        W32391  41.858  43.352  14.938
68624W        W32392   8.291   5.920   4.281
68625W        W32393  10.252  37.379   2.753
68626W        W32394  44.011  27.593  13.061
68627W        W32395  20.070  17.640  12.518
68628W        W32396  24.509   0.815   1.355
68629W        W32397  43.457  42.838  12.852
68630W        W32398   0.782  23.701  10.617
68631W        W32399  34.089   7.783  14.906
68632W        W32400  24.213  40.402  14.473
68633W        W32401  15.579  13.620   0.347
68634W        W32402   1.839   1.329  12.568
68635W        W32403  29.586  10.315   2.667
68636W        W32404  39.888  23.502  11.084
68637W        W32405  33.463  27.110   1.407
68638W        W32406  24.564   2.407  14.921
68639W        W32407  31.501  11.273  10.466
68640W        W32408  16.736  11.724  13.431
68641W        W32409  24.186  13.748   4.253
68642W        W32410  24.556   6.896   4.750
68643W        W32411  34.064  10.224   4.196
68644W        W32412  29.586  40.831   1.261
68645W        W32413  27.529  35.929  14.395
68646W        W32414   8.671  41.017   0.904
68647W        W32415  28.969   4.897  13.939
68648W        W32416  25.052  14.266   3.297
68649W        W32417  25.097  15.642  11.470
68650W        W32418  18.259  43.879  13.033
68651W        W32419  16.680  20.156  11.476
68652W        W32420  10.639   5.844   2.809
68653W        W32421  38.435   9.252   4.790
68654W        W32422  18.786   5.390  14.792
68655W        W32423   9.190   8.319  13.039
68656W        W32424  16.791   5.360  14.787
68657W        W32425  25.170  20.633  14.842
68658W        W32426  34.076  13.615   1.876
68659W        W32427  20.659  19.739   3.719
68660W        W32428  32.508  11.755   3.849
68661W        W32429  34.864  27.044   1.719
68662W        W32430  11.205   5.712  11.111
68663W        W32431   7.231  44.503  14.338
68664W        W32432  11.837  11.208  14.383
68665W        W32433  35.509   4.322   2.899
68666W        W32434  20.098  28.566   0.822
68667W        W32435  43.514  16.145  11.964
68668W        W32436  35.439   4.389  13.806
68669W        W32437  42.799  19.056  12.437
68670W        W32438  10.788  30.123  12.883
68671W        W32439   6.229   6.208  10.907
68672W        W32440  32.562  20.066  11.478
68673W        W32441  28.459  32.999   3.632
68674W        W32442   4.251  23.625   3.175
68675W        W32443  31.425   3.812   1.233
68676W        W32444   7.337  35.392  14.279
68677W        W32445  18.753  37.337  10.988
68678W        W32446   3.319  23.719   2.392
68679W        W32447  14.320  39.988   2.388
68680W        W32448  10.866  33.437   4.623
68681W        W32449  14.159  34.528   2.224
68682W        W32450  29.665  18.602   2.760
68683W        W32451  41.882  42.900   2.412
68684W        W32452  22.064  35.993  10.594
68685W        W32453  39.851   8.362   9.971
68686W        W32454  38.042  40.351  12.011
68687W        W32455   7.867  41.477   0.757
68688W        W32456   9.824   3.404  12.014
68689W        W32457  13.126  20.751  11.452
68690W        W32458  27.669  43.273   4.287
68691W        W32459  40.544  40.859  13.328
68692W        W32460  28.963   8.161  14.403
68693W        W32461  15.138  38.890  11.907
68694W        W32462  25.050  42.814  14.939
68695W        W32463  42.447  10.248   3.773
68696W        W32464  36.462  34.392  11.466
68697W        W32465  18.160  19.669   0.311
68698W        W32466  36.569  11.245   3.205
68699W        W32467  24.689  32.889  13.047
68700W        W32468   5.374  10.162   4.124
68701W        W32469  36.365   7.747  11.884
68702W        W32470  20.700  31.454  11.965
68703W        W32471   1.885  29.489  14.811
68704W        W32472  41.804  11.772  10.922
68705W        W32473   1.393  23.577  12.374
68706W        W32474  16.253  43.336   1.722
68707W        W32475  28.672  38.401  14.024
68708W        W32476  41.036  20.642   2.263
68709W        W32477  10.294  26.156  14.778
68710W        W32478  25.535  30.497  12.395
68711W        W32479  13.703  37.077  14.913
68712W        W32480  28.549   3.772   1.695
68713W        W32481  44.314  37.353  13.346
68714W        W32482  15.640  30.056   3.814
68715W        W32483   2.395  37.991  10.974
68716W        W32484  15.822   0.848  10.442
68717W        W32485  40.901   6.724   2.811
68718W        W32486  22.998  22.677   4.686
68719W        W32487  15.818   8.219   1.432
68720W        W32488  39.362  18.688  12.350
68721W        W32489  20.055   1.302   2.859
68722W        W32490  26.516  40.407  13.433
68723W        W32491  43.835  34.413   0.947
68724W        W32492  15.746  28.972   5.231
68725W        W32493  44.789  23.629  10.514
68726W        W32494  41.388  37.977   2.894
68727W        W32495  36.367   5.846   1.792
68728W        W32496  30.158   0.313   3.743
68729W        W32497  23.151  28.959   0.293
68730W        W32498  22.746   0.432  12.465
68731W        W32499  23.696   4.934  13.520
68732W        W32500   6.878  21.525   0.919
68733W        W32501  37.877  20.545   4.241
68734W        W32502  33.437  34.463   1.700
68735W        W32503  42.328  14.308  14.344
68736W        W32504   6.272  20.589  13.419
68737W        W32505  32.061  44.360  12.412
68738W        W32506  33.093  11.201  10.566
68739W        W32507  36.903   2.293  13.820
68740W        W32508  17.582   5.790  14.404
68741W        W32509  38.334  29.537   3.664
68742W        W32510  36.506  29.431  13.375
68743W        W32511  26.473  17.722   4.640
68744W        W32512  43.409  35.059  11.123
68745W        W32513  12.130  28.603   2.210
68746W        W32514  39.534  12.252  10.972
68747W        W32515  25.200  14.261   5.213
68748W        W32516  10.800  22.635   2.782
68749W        W32517  28.987   0.967   2.672
68750W        W32518  29.550  32.066   0.918
68751W        W32519  12.266  13.336  13.840
68752W        W32520  33.610   4.327   0.448
68753W        W32521   0.743  35.461  11.120
68754W        W32522   7.825  12.719  14.997
68755W        W32523  22.506   7.229   4.340
68756W        W32524  13.330  32.576  14.990
68757W        W32525   4.894  10.255  13.441
68758W        W32526  28.563   8.268   3.827
68759W        W32527  11.341   3.272   1.757
68760W        W32528  20.225   9.802  13.375
68761W        W32529  11.661  15.651  13.382
68762W        W32530  20.612  21.519  10.638
68763W        W32531  15.232  33.570  12.474
68764W        W32532  14.688   8.664  11.990
68765W        W32533  29.994  34.891  14.501
68766W        W32534  35.084  41.825  14.812
68767W        W32535  28.561  38.569   3.825
68768W        W32536  44.884  25.086  14.826
68769W        W32537  22.596  30.967  14.995
68770W        W32538  41.928  25.514   1.268
68771W        W32539   7.726   3.425   3.666
68772W        W32540  15.761  27.531  10.446
68773W        W32541   2.794   8.219   0.795
68774W        W32542   6.917  27.979  12.903
68775W        W32543  36.979   9.646   1.265
68776W        W32544  12.290  12.669  11.531
68777W        W32545  37.925   9.208   5.681
68778W        W32546   3.392   1.245  12.450
68779W        W32547   7.816   9.376   3.309
68780W        W32548  30.162  29.097  10.972
68781W        W32549  38.019  11.849  11.065
68782W        W32550  20.685  13.773  13.332
68783W        W32551  15.669  29.444   0.783
68784W        W32552  21.586  13.326   1.224
68785W        W32553  21.613  20.140   3.643
68786W        W32554  38.917   5.690   3.844
68787W        W32555  40.905  35.482   2.677
68788W        W32556  27.545  30.963   1.385
68789W        W32557   9.343  22.737  10.069
68790W        W32558  30.070  39.532  10.572
68791W        W32559  31.988  18.102   2.286
68792W        W32560  35.561   8.769   5.293
68793W        W32561   8.308  43.477   3.260
68794W        W32562  17.766  21.744  11.076
68795W        W32563  25.031  23.057  13.818
68796W        W32564  35.905  24.110   5.170
68797W        W32565  32.041  32.565   1.709
68798W        W32566  43.285  20.269   3.859
68799W        W32567  40.843  44.802   0.278
68800W        W32568  36.473  44.937  10.526
68801W        W32569  24.217  24.561   1.311
68802W        W32570  12.759  13.168   4.650
68803W        W32571  44.387  16.289   4.328
68804W        W32572  33.034  13.625   1.740
68805W        W32573  23.606  35.096  12.479
68806W        W32574  26.103  44.800   2.184
68807W        W32575  17.763   2.344   3.817
68808W        W32576  11.626  36.527   4.748
68809W        W32577  30.106   2.895  11.864
68810W        W32578  31.080  44.910   0.860
68811W        W32579   3.815  23.193   3.839
68812W        W32580   0.425  41.848  10.527
68813W        W32581  20.596   0.418  13.865
68814W        W32582  34.593  13.772   2.396
68815W        W32583  34.948  18.095  14.390
68816W        W32584  36.567  33.490  10.051
68817W        W32585  34.510  37.438  14.767
68818W        W32586  24.063  31.018  11.089
68819W        W32587  39.460  24.692   3.719
68820W        W32588  13.744   9.812  11.404
68821W        W32589  30.005  15.147   4.764
68822W        W32590  20.267  44.397   1.416
68823W        W32591  32.019   7.801   0.744
68824W        W32592   0.935   1.792  10.996
68825W        W32593   0.771   0.960  11.400
68826W        W32594  23.555  28.944   0.380
68827W        W32595  29.131  36.954   3.352
68828W        W32596  30.493  39.982   3.274
68829W        W32597  16.236  28.471  10.635
68830W        W32598   0.358  13.689   3.637
68831W        W32599  15.213  23.549  10.962
68832W        W32600  39.054  16.583   1.927
68833W        W32601  25.149   6.347   1.420
68834W        W32602  37.404  29.509  12.878
68835W        W32603  32.021  17.273   3.366
68836W        W32604  11.190  21.624  10.447
68837W        W32605   2.265  42.806  13.792
68838W        W32606  13.795  25.546   4.598
68839W        W32607  34.560   3.769  14.482
68840W        W32608  18.076  11.711  11.428
68841W        W32609  38.845  18.296   1.271
68842W        W32610  12.260  30.452   1.384
68843W        W32611   0.391  29.111  13.878
68844W        W32612  42.897  18.746   0.928
68845W        W32613  17.577  30.576  14.296
68846W        W32614  26.203  22.700   1.764
68847W        W32615  15.315  37.990  11.062
68848W        W32616   1.769  40.040   0.424
68849W        W32617  14.638  42.028   0.433
68850W        W32618   5.257  33.980   0.451
68851W        W32619   6.902   7.825   0.816
68852W        W32620  14.131  24.158   0.802
68853W        W32621  25.105  43.278  10.988
68854W        W32622  15.100  18.069   0.823
68855W        W32623  34.942   8.771  14.985
68856W        W32624  39.064   4.221  10.403
68857W        W32625   3.790   6.727  11.928
68858W        W32626  28.662   1.972   2.200
68859W        W32627  41.890  10.305  14.026
68860W        W32628  21.227   5.360   0.336
68861W        W32629  28.447  12.800   4.302
68862W        W32630  27.987  22.175   2.252
68863W        W32631   2.774   8.892   2.194
68864W        W32632  26.187   9.645  14.346
68865W        W32633  34.863  21.028  13.963
68866W        W32634  42.941  11.668   4.310
68867W        W32635  16.268  28.641   4.232
68868W        W32636  40.377  22.506  12.566
68869W        W32637  40.947  10.212  13.527
68870W        W32638  39.466  14.671   2.218
68871W        W32639   0.440   8.856   3.269
68872W        W32640  21.209  33.452  14.977
68873W        W32641  35.537  43.830   0.836
68874W        W32642  15.669   4.375   5.194
68875W        W32643  22.182  13.622  12.992
68876W        W32644  38.036  30.143  14.476
68877W        W32645   1.302   7.345   2.187
68878W        W32646  31.491  42.866  13.910
68879W        W32647   4.939  28.941   3.713
68880W        W32648  16.197  36.557   0.797
68881W        W32649  13.645   2.785  11.097
68882W        W32650  37.521  19.198  14.468
68883W        W32651   0.958  30.493   0.854
68884W        W32652  38.061  24.988   2.880
68885W        W32653  18.561   9.772   2.780
68886W        W32654   1.331  43.986   4.242
68887W        W32655   6.299  35.976   1.822
68888W        W32656  32.076   7.210  12.462
68889W        W32657  15.250  44.905  11.120
68890W        W32658  38.903  34.401   2.810
68891W        W32659  24.115  11.340   5.279
68892W        W32660  23.590  38.390   3.290
68893W        W32661  31.521  38.472  13.452
68894W        W32662  20.642  19.637  13.523
68895W        W32663   4.897  26.145   2.304
68896W        W32664  30.022   7.875  11.022
68897W        W32665   0.823  13.768   0.953
68898W        W32666  32.895  26.045   0.302
68899W        W32667  42.795  36.001   2.744
68900W        W32668   6.289  15.791   4.795
68901W        W32669   0.487  21.154  14.828
68902W        W32670  25.180  21.148   4.651
68903W        W32671  26.561   0.346  14.877
68904W        W32672   0.343  40.815   3.216
68905W        W32673  12.205  43.504   3.767
68906W        W32674  41.866  21.246   3.651
68907W        W32675  39.447   6.199  10.081
68908W        W32676   7.375  36.537  14.498
68909W        W32677  10.725   4.401  14.855
68910W        W32678   2.738  36.521  14.468
68911W        W32679  11.200  20.583   1.420
68912W        W32680   9.874   2.820  12.379
68913W        W32681  10.278  23.542  11.411
68914W        W32682  35.039  25.973  13.843
68915W        W32683  12.661  42.389  14.830
68916W        W32684  30.466  32.005   0.852
68917W        W32685  20.574   2.412  13.390
68918W        W32686  17.237  36.889   1.286
68919W        W32687  32.012  30.158  13.807
68920W        W32688  15.179   8.323  10.518
68921W        W32689  39.051   5.284   3.726
68922W        W32690  17.241   8.404  11.597
68923W        W32691  10.793   3.267  11.000
68924W        W32692   6.183  44.474  13.311
68925W        W32693   5.689  38.433  13.883
68926W        W32694  43.891  13.778  12.353
68927W        W32695  39.049  17.234  11.993
68928W        W32696  20.607  16.742   4.210
68929W        W32697   1.960  41.028  13.548
68930W        W32698  14.190  12.640  13.373
68931W        W32699  22.049   1.935   2.700
68932W        W32700  26.002  14.696  13.514
68933W        W32701   1.935   5.209  11.488
68934W        W32702   6.262  11.234   2.259
68935W        W32703   2.774  22.528  13.421
68936W        W32704  24.688   4.699   1.907
68937W        W32705   5.379  34.112  14.339
68938W        W32706  32.966  36.385   0.933
68939W        W32707   3.729  16.315  14.400
68940W        W32708  41.909  37.019  10.468
68941W        W32709   2.951  11.256   2.829
68942W        W32710  39.439  21.735   0.297
68943W        W32711   9.831  11.306  10.510
68944W        W32712  19.731  18.057   2.325
68945W        W32713  43.835   0.757  12.839
68946W        W32714  42.964  17.597  13.416
68947W        W32715  35.507   3.866  14.363
68948W        W32716  15.746   6.287   1.878
68949W        W32717  10.797  32.536   1.852
68950W        W32718  10.249   5.782  14.937
68951W        W32719  25.184  41.966   3.305
68952W        W32720  13.242  11.733  12.939
68953W        W32721  10.366  21.740   4.701
68954W        W32722  38.071  30.154   3.764
68955W        W32723   6.258  26.550  11.387
68956W        W32724  24.131  35.452  12.983
68957W        W32725  10.202  14.165   1.214
68958W        W32726  24.532  18.722  13.351
68959W        W32727  31.521  24.544  12.946
68960W        W32728  41.410  35.939   2.902
68961W        W32729  14.257  43.303  10.481
68962W        W32730  33.899   2.430  13.504
68963W        W32731  22.622  28.452  13.811
68964W        W32732   9.158  18.567  14.432
68965W        W32733  33.955  25.679  11.922
68966W        W32734  43.898  42.902   3.311
68967W        W32735  13.700  29.965  11.490
68968W        W32736  41.846  38.999   4.741
68969W        W32737  28.933  20.105  11.410
68970W        W32738   2.448  13.686  13.920
68971W        W32739   1.861  17.643  11.469
68972W        W32740  44.882  16.238   1.427
68973W        W32741  19.646  24.039  12.860
68974W        W32742  24.542  33.037   4.703
68975W        W32743   2.318  28.462  11.901
68976W        W32744  39.500   3.262   3.182
68977W        W32745  33.426  41.398   4.702
68978W        W32746  22.129  29.955  14.398
68979W        W32747   3.283   2.819   2.871
68980W        W32748  44.947  34.556   1.314
68981W        W32749  38.503  19.266  11.119
68982W        W32750  17.266  12.174   1.387
68983W        W32751  24.575  28.679  10.912
68984W        W32752  32.534  30.931   4.203
68985W        W32753  36.992  14.630   0.326
68986W        W32754  16.171  28.938   3.226
68987W        W32755  16.116  14.818   4.287
68988W        W32756  37.497  25.149  10.105
68989W        W32757  42.477  36.509   0.799
68990W        W32758   9.677  38.843  11.401
68991W        W32759   6.407  23.501  14.497
68992W        W32760  16.284  20.620   3.185
68993W        W32761  19.751   0.909  11.418
68994W        W32762   9.281  21.554  10.502
68995W        W32763  41.937  18.667  11.389
68996W        W32764  30.525  38.527   3.649
68997W        W32765  20.272  44.855  13.363
68998W        W32766   6.337   7.180   0.427
68999W        W32767  35.567  24.078  13.967
69000W        W32768  32.978  36.484   0.434
69001W        W32769  24.065  10.723  12.543
69002W        W32770  37.512  16.741   4.245
69003W        W32771  35.471  12.727   3.187
69004W        W32772  22.110  28.024   4.314
69005W        W32773  14.791   5.356  12.976
69006W        W32774  43.422  32.018  13.958
69007W        W32775  24.700  26.003   3.630
69008W        W32776  36.904  32.984  12.380
69009W        W32777  44.435   2.733  13.018
69010W        W32778  43.336  18.213   5.309
69011W        W32779  34.435  17.272   1.248
69012W        W32780   8.366  13.669  12.462
69013W        W32781   7.329  36.967  11.559
69014W        W32782  40.311  18.759   3.859
69015W        W32783  10.842  35.937   2.256
69016W        W32784  33.440  43.829   2.397
69017W        W32785   5.195  40.870  12.414
69018W        W32786   7.291  23.625  13.813
69019W        W32787  30.991  31.409   1.844
69020W        W32788  23.593  18.730  10.517
69021W        W32789  29.919  22.543   3.819
69022W        W32790  34.411  38.019   1.791
69023W        W32791   4.237   6.877   4.147
69024W        W32792   1.836  17.667  10.632
69025W        W32793  41.928  41.804   4.813
69026W        W32794  36.884  35.598  14.329
69027W        W32795   8.326  43.809   3.174
69028W        W32796  18.154   4.251  13.971
69029W        W32797  37.922  13.325  11.095
69030W        W32798  38.390  26.671  11.945
69031W        W32799  13.678  13.155   2.275
69032W        W32800  25.197  23.560   2.832
69033W        W32801  16.083  21.262   4.624
69034W        W32802  18.601  22.677   0.801
69035W        W32803  12.125  22.118  14.357
69036W        W32804  17.598   9.795  10.905
69037W        W32805  32.633  18.118   2.213
69038W        W32806  18.079  27.459   1.341
69039W        W32807   4.737  11.674  14.335
69040W        W32808   0.299  27.449  14.416
69041W        W32809  34.999   0.440  13.417
69042W        W32810   2.305  43.944  13.039
69043W        W32811  44.829  25.966   3.194
69044W        W32812   0.479  11.332  13.891
69045W        W32813   6.248  22.599   5.268
69046W        W32814  20.194  24.606  14.018
69047W        W32815  12.750  11.764   1.303
69048W        W32816  41.300  18.216   4.625
69049W        W32817   1.781   4.705  12.496
69050W        W32818  22.017  31.547   4.686
69051W        W32819   0.912   0.979  13.385
69052W        W32820  26.659   6.261   2.417
69053W        W32821  22.129  23.102   0.430
69054W        W32822  34.937  21.215   2.742
69055W        W32823  40.851  39.418  14.799
69056W        W32824  32.636   3.357   2.692
69057W        W32825   9.816   4.872   4.337
69058W        W32826  24.014  18.143   3.868
69059W        W32827  39.922  37.883  12.912
69060W        W32828  14.658  33.490   4.783
69061W        W32829  33.069  18.756   1.373
69062W        W32830  37.865   9.160   4.348
69063W        W32831  15.163  21.608  12.375
69064W        W32832  28.111  34.038   0.770
69065W        W32833  44.773  43.992  12.517
69066W        W32834  20.166   7.296   0.903
69067W        W32835  16.781  19.554   1.322
69068W        W32836  11.196  33.074  14.314
69069W        W32837  32.439  12.287  12.432
69070W        W32838  37.394  34.010   3.288
69071W        W32839  14.296  20.260  10.996
69072W        W32840   6.870   6.711  11.922
69073W        W32841  34.495  44.942   0.349
69074W        W32842  44.359  30.070  14.791
69075W        W32843   7.184  40.342  10.634
69076W        W32844  26.157  36.053   1.259
69077W        W32845  30.620   5.266   4.234
69078W        W32846  30.561   3.240   3.699
69079W        W32847   5.212  22.008  14.884
69080W        W32848  14.684  19.729   2.351
69081W        W32849   8.746  14.644   1.831
69082W        W32850   8.715   6.352  11.564
69083W        W32851  26.458  12.718  11.480
69084W        W32852  38.931  11.748  10.050
69085W        W32853  16.734   6.409  11.906
69086W        W32854  10.706   6.262   9.998
69087W        W32855   5.903   5.370   1.280
69088W        W32856  14.654  38.997   2.781
69089W        W32857  39.322   7.389  10.993
69090W        W32858  19.744  25.487  12.909
69091W        W32859  40.861  21.684  12.450
69092W        W32860   4.366   3.238   4.710
69093W        W32861  25.709  34.400   2.211
69094W        W32862   7.274  36.054   4.750
69095W        W32863  43.845  21.711   3.792
69096W        W32864   9.672   8.690  13.530
69097W        W32865  25.643  20.686   3.279
69098W        W32866  44.284   2.321  10.496
69099W        W32867  27.166   7.772  11.980
69100W        W32868  41.512  34.067   1.893
69101W        W32869   0.834   6.799   0.812
69102W        W32870  23.136   1.406  11.505
69103W        W32871   5.840  19.161  11.487
69104W        W32872  42.879  30.044   2.794
69105W        W32873  26.178   3.728  13.363
69106W        W32874  43.768  28.992   4.182
69107W        W32875  44.004  40.472  14.788
69108W        W32876  38.042  13.346  14.026
69109W        W32877  34.974  34.923   0.906
69110W        W32878   1.382   2.797  14.423
69111W        W32879  36.875   1.417   3.764
69112W        W32880  42.391  23.237   3.674
69113W        W32881  17.689  26.082  12.503
69114W        W32882   6.774  26.116   1.873
69115W        W32883  20.557  39.018   3.266
69116W        W32884  15.231  17.079  12.963
69117W        W32885   5.902   6.303   2.744
69118W        W32886  33.488  38.867  14.905
69119W        W32887  28.000   4.742   5.116
69120W        W32888  17.640  22.691   0.887
69121W        W32889  14.245   9.317  11.888
69122W        W32890  35.859  10.761  14.836
69123W        W32891  36.436  14.186   2.662
69124W        W32892  18.637  34.522   9.921
69125W        W32893  42.778   1.305   4.732
69126W        W32894  23.575  33.613  13.034
69127W        W32895  41.340   7.356   0.894
69128W        W32896  35.377  14.294   1.785
69129W        W32897  18.133  14.643   0.737
69130W        W32898  39.910  40.369   1.415
69131W        W32899  40.471   3.247   4.752
69132W        W32900  41.903   9.706  11.869
69133W        W32901  17.252  26.021   0.732
69134W        W32902  31.475  38.049  10.545
69135W        W32903  33.123  21.518  11.092
69136W        W32904   4.423  25.627   4.739
69137W        W32905  26.016  34.868  14.427
69138W        W32906  31.004  22.043   3.650
69139W        W32907   5.690  34.431  14.850
69140W        W32908  38.057  18.122  12.517
69141W        W32909  43.951   8.682   0.832
69142W        W32910  10.188  21.105  12.451
69143W        W32911  30.544  29.919  13.896
69144W        W32912  42.902  40.488  11.610
69145W        W32913  23.130  37.391  11.415
69146W        W32914  35.539  18.076  13.883
69147W        W32915  24.516  30.474   4.281
69148W        W32916   8.668  11.696  13.966
69149W        W32917   1.375  40.433   0.451
69150W        W32918  10.688  10.705   4.620
69151W        W32919   9.223  33.380   3.185
69152W        W32920  28.985  20.142   0.781
69153W        W32921   7.847  34.423   0.901
69154W        W32922   3.339  24.099  13.395
69155W        W32923  18.274  21.195   1.877
69156W        W32924   8.247   9.747  13.026
69157W        W32925  34.397  28.500   0.272
69158W        W32926  17.145   5.835   3.346
69159W        W32927  12.838  16.138   0.279
69160W        W32928  15.591   8.179   2.736
69161W        W32929  39.838  11.843  11.885
69162W        W32930  20.035  44.779  11.575
69163W        W32931   2.889  19.158  10.551
69164W        W32932  36.024  27.618  11.485
69165W        W32933  40.023  20.604   3.678
69166W        W32934   6.211   1.382   0.277
69167W        W32935  25.043  38.459   4.822
69168W        W32936  33.114  15.139   1.865
69169W        W32937  44.339  36.359   2.818
69170W        W32938  22.506  35.383   2.414
69171W        W32939  42.006  29.149  13.968
69172W        W32940  31.534  14.800   3.764
69173W        W32941  11.312   1.764   4.193
69174W        W32942  10.749  22.020   1.907
69175W        W32943  20.664  34.907   3.843
69176W        W32944   5.242   1.770  12.396
69177W        W32945  26.523   8.783   4.647
69178W        W32946   1.765  26.641  12.395
69179W        W32947  36.929  36.348  12.918
69180W        W32948  25.673   1.746   2.318
69181W        W32949   0.823  26.977   3.363
69182W        W32950  33.089  33.428  14.406
69183W        W32951  12.289  43.814   3.720
69184W        W32952  28.993  35.920   3.680
69185W        W32953  32.994  31.510  12.556
69186W        W32954   5.698   2.861   2.210
69187W        W32955   7.178   8.242   2.185
69188W        W32956  30.463  42.381   1.240
69189W        W32957  42.419  36.851   2.810
69190W        W32958  31.992  21.687  14.031
69191W        W32959   0.773  37.404  13.539
69192W        W32960   5.934  36.454  11.507
69193W        W32961  23.218   2.456   2.404
69194W        W32962  16.161  13.824   4.758
69195W        W32963  10.292  24.598   4.157
69196W        W32964  33.579  29.571   3.713
69197W        W32965  42.006  22.600  12.843
69198W        W32966  40.012   4.875  10.010
69199W        W32967   2.239  14.593   4.812
69200W        W32968  11.772  12.156  11.603
69201W        W32969  37.407  21.704  13.049
69202W        W32970  36.472  10.691   4.685
69203W        W32971  37.853  35.864   4.810
69204W        W32972  40.382  43.830   2.832
69205W        W32973  18.582  18.161  12.046
69206W        W32974   4.255   7.884  11.042
69207W        W32975  42.871  22.703   4.668
69208W        W32976  38.529   0.811   2.860
69209W        W32977  15.717  26.189  13.489
69210W        W32978   7.243   1.766   1.855
69211W        W32979  22.724  34.044   2.362
69212W        W32980  24.718   4.212   2.283
69213W        W32981  35.486  27.545  13.458
69214W        W32982  39.417  41.974  13.346
69215W        W32983  43.514   3.812   4.271
69216W        W32984  16.587  16.312   3.331
69217W        W32985  32.133   8.810   1.711
69218W        W32986  19.178  10.361  11.086
69219W        W32987  14.707  40.015  11.888
69220W        W32988   2.825  34.051   3.203
69221W        W32989  28.179  43.416  11.000
69222W        W32990  36.590  18.725   0.277
69223W        W32991   5.882  10.260   2.202
69224W        W32992  18.103  29.986   1.809
69225W        W32993  28.064   4.855  13.048
69226W        W32994  17.602  13.621   0.306
69227W        W32995  25.174  16.794   4.797
69228W        W32996  24.606   5.757   2.847
69229W        W32997   8.734  33.454   4.762
69230W        W32998  41.413  41.342   4.261
69231W        W32999  18.612   4.797   1.292
69232W        W33000  27.679  43.825  11.997
69233W        W33001  10.724  26.157  14.299
69234W        W33002  28.522   2.435   1.213
69235W        W33003   6.376  20.134  13.887
69236W        W33004   3.383  33.438  11.560
69237W        W33005  16.592  36.954   3.659
69238W        W33006  12.143   3.878  12.408
69239W        W33007  25.018   9.706  11.606
69240W        W33008  25.171   3.416   4.638
69241W        W33009   7.725  24.180  14.348
69242W        W33010   9.236  24.137   1.913
69243W        W33011  44.283   7.717   4.309
69244W        W33012   7.698  24.206   3.251
69245W        W33013  27.614  26.181   2.273
69246W        W33014   6.856   8.836  12.371
69247W        W33015  10.174  31.896   4.243
69248W        W33016   9.706  36.991   2.887
69249W        W33017  27.046  10.182   1.895
69250W        W33018   8.679  19.205  11.449
69251W        W33019  20.208  28.662   2.232
69252W        W33020  23.717  44.471   0.941
69253W        W33021  31.500  31.490  10.994
69254W        W33022  28.647  17.601   2.283
69255W        W33023   7.900  18.570  12.825
69256W        W33024  25.064  15.595   3.767
69257W        W33025  43.290   3.437   5.083
69258W        W33026  44.895  42.457   3.806
69259W        W33027  32.434  44.464  13.962
69260W        W33028   8.321  19.617  14.991
69261W        W33029  27.445  10.661  13.840
69262W        W33030  26.117  15.322   4.166
69263W        W33031  21.758  11.210  12.907
69264W        W33032  35.532  18.673  14.293
69265W        W33033   2.782  23.165   3.763
69266W        W33034  18.058  40.514  10.613
69267W        W33035  39.417   1.438  11.921
69268W        W33036  38.862   2.907  14.275
69269W        W33037   1.826  17.264  12.423
69270W        W33038  38.011  27.133  12.868
69271W        W33039  33.481  24.055   0.361
69272W        W33040  10.333  13.788   3.835
69273W        W33041  13.761   8.253   3.164
69274W        W33042  16.748  23.721   4.663
69275W        W33043  39.404  22.161   2.875
69276W        W33044  43.357   6.900   2.404
69277W        W33045   3.884   3.839   3.639
69278W        W33046   4.814   7.399  13.018
69279W        W33047   6.202  16.587  11.126
69280W        W33048  32.073  21.608   4.814
69281W        W33049   3.933  37.001   2.224
69282W        W33050  33.399  34.059   0.323
69283W        W33051   6.747  38.993  14.767
69284W        W33052  13.178  22.149  14.507
69285W        W33053  13.122  30.438  10.122
69286W        W33054  41.014  19.068  12.870
69287W        W33055  14.835  28.512   1.265
69288W        W33056  33.432  30.502   0.914
69289W        W33057  32.896   8.739   1.868
69290W        W33058   9.769  11.239  14.814
69291W        W33059   7.795   9.842   3.772
69292W        W33060  40.827  36.521   4.810
69293W        W33061  30.961  31.972   1.852
69294W        W33062  28.107  28.992  12.957
69295W        W33063  35.084   4.433  10.461
69296W        W33064  23.647   4.718  12.017
69297W        W33065  23.491   3.715   2.706
69298W        W33066   7.838  16.603   1.211
69299W        W33067  43.973  37.435  12.561
69300W        W33068  35.858   2.776   3.146
69301W        W33069  37.473  43.299   4.723
69302W        W33070  30.942  38.385  13.394
69303W        W33071  19.179  40.813  12.948
69304W        W33072  36.891  32.434   1.785
69305W        W33073  33.902   8.659   0.919
69306W        W33074   2.314  23.652  10.956
69307W        W33075  29.945  43.965   3.835
69308W        W33076   3.423  17.734   4.626
69309W        W33077  30.043  12.799  12.950
69310W        W33078  40.963   0.267  13.901
69311W        W33079   0.410  19.271  13.806
69312W        W33080  26.677  35.070  14.366
69313W        W33081  27.565   8.293   2.755
69314W        W33082  34.441  31.515   4.782
69315W        W33083  43.953  31.111   0.259
69316W        W33084  24.196  33.398   5.252
69317W        W33085  32.462  15.781  11.974
69318W        W33086  26.021  15.587  11.490
69319W        W33087  10.352   5.805  13.832
69320W        W33088  36.015  15.670  14.359
69321W        W33089  16.152   9.206  12.920
69322W        W33090  21.238  22.050  10.562
69323W        W33091  12.360  34.972   4.819
69324W        W33092   3.859  38.493   1.727
69325W        W33093  43.478   6.919  12.386
69326W        W33094  41.507  40.851   3.221
69327W        W33095  16.174  39.375   1.323
69328W        W33096  25.006  13.199  12.480
69329W        W33097  35.460  16.087   4.697
69330W        W33098  38.512  35.000   1.786
69331W        W33099  38.961   9.212   4.819
69332W        W33100  31.932   2.835   2.896
69333W        W33101  16.767  43.962   2.314
69334W        W33102  22.115   2.300  13.989
69335W        W33103   1.773  23.088   0.416
69336W        W33104  22.616  11.130  12.916
69337W        W33105   3.424  13.188   4.827
69338W        W33106  35.547  35.580  10.962
69339W        W33107  37.545  38.377  13.473
69340W        W33108  24.701  39.870   3.200
69341W        W33109  43.276  25.694  14.941
69342W        W33110   1.354  25.965  12.547
69343W        W33111  32.547  19.576  10.082
69344W        W33112  42.976   2.363   3.805
69345W        W33113   3.253  41.016  13.907
69346W        W33114   1.945   5.295   4.309
69347W        W33115  40.941  13.713   0.338
69348W        W33116  21.549  41.523   3.319
69349W        W33117  20.098  16.592   0.364
69350W        W33118  16.728  18.279   1.797
69351W        W33119  33.418  11.711  10.563
69352W        W33120  44.414   4.390   4.264
69353W        W33121  38.458  32.131  14.876
69354W        W33122  10.693  42.486  11.927
69355W        W33123  15.699  27.074  11.418
69356W        W33124  40.821  42.877   3.317
69357W        W33125  38.449  32.032  11.445
69358W        W33126   7.704  40.324   0.465
69359W        W33127   2.383  12.646  14.437
69360W        W33128  18.254   1.304   4.826
69361W        W33129  13.275   2.376   0.951
69362W        W33130  32.557  42.967   1.726
69363W        W33131  27.592  32.052   2.877
69364W        W33132  37.535  15.238  10.961
69365W        W33133  37.981  24.498  13.522
69366W        W33134  24.161  38.995  11.898
69367W        W33135  26.149  26.472  14.375
69368W        W33136  35.899  16.106  12.360
69369W        W33137   7.250  43.408   4.719
69370W        W33138  33.905  26.131   0.807
69371W        W33139  11.760  32.054  10.508
69372W        W33140  13.708  22.243  10.453
69373W        W33141  27.027   7.676   2.304
69374W        W33142   5.336  30.165   4.344
69375W        W33143  10.732  33.042  13.516
69376W        W33144  26.134  30.517  10.535
69377W        W33145   3.236  32.497  14.486
69378W        W33146  20.590  29.126  10.590
69379W        W33147  23.183  43.370   3.268
69380W        W33148  12.833  35.438   0.294
69381W        W33149  42.895   4.407   0.267
69382W        W33150  44.331   6.257  13.854
69383W        W33151   2.861  38.957   1.823
69384W        W33152   3.840  42.812  14.975
69385W        W33153  38.461   3.313   1.429
69386W        W33154  43.300  14.646  13.887
69387W        W33155  13.170  12.119  10.891
69388W        W33156  19.066   5.222   4.147
69389W        W33157  12.841  20.173  11.987
69390W        W33158  33.598  21.139   2.261
69391W        W33159   0.970  35.443   2.308
69392W        W33160  37.873   4.929   3.316
69393W        W33161  29.535   9.246   2.870
69394W        W33162  24.701  41.915  14.885
69395W        W33163   8.726  11.127  14.410
69396W        W33164  41.017   9.342   3.171
69397W        W33165   7.692  43.336  12.443
69398W        W33166   8.765  24.703  13.933
69399W        W33167  22.091  41.466  13.820
69400W        W33168  25.032  10.233  12.085
69401W        W33169   5.817  14.602  13.311
69402W        W33170  10.321  31.002   4.216
69403W        W33171   3.779  25.696  10.482
69404W        W33172  30.579   2.246  12.380
69405W        W33173  13.807  36.935  11.982
69406W        W33174  17.164  20.251  11.950
69407W        W33175  10.862  24.094   2.320
69408W        W33176  31.499  16.262  13.466
69409W        W33177  26.489  12.172  13.519
69410W        W33178  22.650  29.995  12.980
69411W        W33179   6.244  30.601   1.244
69412W        W33180  24.137  35.550   3.692
69413W        W33181  17.114  20.682  13.841
69414W        W33182  17.164  42.378   2.391
69415W        W33183  31.943   3.936   2.207
69416W        W33184   7.292   8.235  12.406
69417W        W33185  16.715   2.893   0.479
69418W        W33186  19.190  21.192  14.026
69419W        W33187  38.935  23.230   3.167
69420W        W33188  37.359  22.628   0.858
69421W        W33189   0.819  29.163  13.930
69422W        W33190   0.290  36.578   4.829
69423W        W33191  15.187  39.359  14.440
69424W        W33192  16.791  24.621   4.217
69425W        W33193   5.421  33.013  14.378
69426W        W33194  11.863   7.253  14.925
69427W        W33195  25.710   9.331   0.819
69428W        W33196  18.085   5.335   1.360
69429W        W33197  42.331  21.229  12.965
69430W        W33198  10.802  28.052   4.178
69431W        W33199  41.797   6.328   4.342
69432W        W33200  30.934  36.893   4.719
69433W        W33201  13.745   9.722  11.866
69434W        W33202  44.914  43.466  14.800
69435W        W33203  41.987  44.260   0.287
69436W        W33204   6.315  32.518   2.685
69437W        W33205   8.856  43.938   0.441
69438W        W33206   6.817  22.092   4.759
69439W        W33207  13.776  18.686   3.759
69440W        W33208  39.857  44.837   2.333
69441W        W33209  19.270  34.931  11.055
69442W        W33210  37.405  27.082   1.351
69443W        W33211  12.293  22.203  12.934
69444W        W33212  44.844  16.088   2.316
69445W        W33213  29.141  36.849   4.676
69446W        W33214  34.440   7.679  10.625
69447W        W33215   9.719  31.035  12.851
69448W        W33216  34.070   0.355   2.348
69449W        W33217  37.032  24.541   0.464
69450W        W33218  22.511  37.538   1.801
69451W        W33219  34.571  24.604  12.425
69452W        W33220   2.955   7.314  13.545
69453W        W33221  32.077  36.492   5.313
69454W        W33222  31.523  14.312   3.679
69455W        W33223  32.554   8.210   0.316
69456W        W33224  34.997   8.302  14.487
69457W        W33225  43.347  40.485  13.038
69458W        W33226  34.021  34.982  11.476
69459W        W33227  26.994  35.541   1.212
69460W        W33228  17.612  18.259   2.320
69461W        W33229  23.089  37.420   2.248
69462W        W33230  27.073  23.542  12.970
69463W        W33231  32.468   7.384   5.200
69464W        W33232   7.181  34.007   2.320
69465W        W33233   3.242  10.156   3.177
69466W        W33234   4.731  25.011  13.947
69467W        W33235  35.541   3.273  13.003
69468W        W33236  14.785   8.719  14.946
69469W        W33237  40.983  30.521   3.370
69470W        W33238  33.046  18.773   2.703
69471W        W33239  37.369  12.345  12.932
69472W        W33240  38.470  10.156  12.923
69473W        W33241  19.100   4.252  12.533
69474W        W33242  39.992   8.238   0.419
69475W        W33243  13.724  28.988   2.791
69476W        W33244   8.402  38.394  10.492
69477W        W33245   9.196  36.488   0.471
69478W        W33246  18.226  20.234  11.984
69479W        W33247  18.217  38.423  10.516
69480W        W33248  28.481  31.607   2.711
69481W        W33249  31.486  13.692   2.826
69482W        W33250  19.584  33.548  14.915
69483W        W33251   0.828  26.526   5.299
69484W        W33252   4.408  38.472   2.894
69485W        W33253  31.062  18.551  14.439
69486W        W33254   1.738  32.539  12.962
69487W        W33255  26.554   3.737   2.761
69488W        W33256   1.397  40.984  11.068
69489W        W33257  40.830  36.502  14.937
69490W        W33258  30.456  21.729   2.694
69491W        W33259  41.361  40.876  12.412
69492W        W33260   0.785  34.909   1.380
69493W        W33261   9.759  41.460   1.332
69494W        W33262  40.940  40.489  11.951
69495W        W33263   2.262   1.244  12.940
69496W        W33264   1.957  14.791   3.698
69497W        W33265  11.238  10.762  13.046
69498W        W33266  15.771  39.055  10.991
69499W        W33267  29.461  44.438   5.237
69500W        W33268   7.397  27.638  11.588
69501W        W33269   4.860  14.818   0.421
69502W        W33270   9.751   9.156  12.371
69503W        W33271  30.425  43.312  13.822
69504W        W33272  15.171  34.902  12.018
69505W        W33273  27.142   1.877  11.032
69506W        W33274  38.996  30.995   1.897
69507W        W33275  15.629   1.883   3.832
69508W        W33276  38.887  30.033   0.731
69509W        W33277  30.642  31.552  11.531
69510W        W33278  28.660  39.926   1.423
69511W        W33279  35.516   0.808   2.703
69512W        W33280  11.845  32.420  10.987
69513W        W33281  10.847  16.285   3.316
69514W        W33282   1.763  18.137  11.106
69515W        W33283  27.041  28.661  13.813
69516W        W33284  36.088  13.334   3.195
69517W        W33285  23.101  44.488   4.801
69518W        W33286  38.050  20.653  11.518
69519W        W33287  11.682  41.845   0.893
69520W        W33288  26.695  28.940   3.225
69521W        W33289  30.560  35.000   4.607
69522W        W33290   5.267  12.743  10.520
69523W        W33291  18.288  37.484  14.951
69524W        W33292  33.383  38.001  12.090
69525W        W33293  38.347  32.108   0.244
69526W        W33294   8.370  12.336   1.262
69527W        W33295  39.919  20.751   0.847
69528W        W33296  29.955  11.186   1.431
69529W        W33297  17.219  15.173   3.660
69530W        W33298  14.668   8.302   4.701
69531W        W33299  32.984   6.218   1.838
69532W        W33300  44.961  37.354   4.746
69533W        W33301  13.129   3.805  14.277
69534W        W33302  22.084  12.117  11.551
69535W        W33303  23.985   1.453  11.447
69536W        W33304  16.691  15.666   5.229
69537W        W33305  40.971  40.485   0.361
69538W        W33306  16.805  32.032  13.860
69539W        W33307  24.032  19.754   0.365
69540W        W33308  34.420  24.498   2.351
69541W        W33309  31.097  35.521  12.916
69542W        W33310  18.297   3.404  10.626
69543W        W33311  20.232   6.400  11.483
69544W        W33312  30.117  21.553  14.801
69545W        W33313   1.407   1.421  14.447
69546W        W33314  22.552  11.333  11.533
69547W        W33315  43.885   5.732   4.818
69548W        W33316  29.147  33.454   4.163
69549W        W33317  37.352  16.240  13.528
69550W        W33318  29.507  22.047  10.631
69551W        W33319   3.784  34.532   1.772
69552W        W33320  16.622  20.078  13.814
69553W        W33321  11.190  26.195   0.749
69554W        W33322   5.826  14.263  11.047
69555W        W33323  20.591  14.773   2.224
69556W        W33324  18.644   8.221   4.702
69557W        W33325  30.929   3.847  14.466
69558W        W33326  21.096  22.645  13.054
69559W        W33327  19.234  38.890   1.335
69560W        W33328   3.445  15.646   3.737
69561W        W33329  15.592   9.177   0.926
69562W        W33330   8.727  20.211  10.405
69563W        W33331  22.021  43.895  13.830
69564W        W33332  35.904  43.883  12.398
69565W        W33333  40.526   7.666   4.816
69566W        W33334  29.136  17.120   2.417
69567W        W33335   2.867  15.582   1.851
69568W        W33336  23.230   0.334  10.962
69569W        W33337   4.713   9.314   4.345
69570W        W33338   9.644  19.551  13.347
69571W        W33339  30.446  43.858   0.857
69572W        W33340  31.510  20.671   1.877
69573W        W33341  34.550  40.924   4.647
69574W        W33342  30.616   2.240   5.148
69575W        W33343   9.252  15.591  12.045
69576W        W33344  38.984  16.696  14.850
69577W        W33345  23.015  33.903  10.456
69578W        W33346  18.696  32.059  11.372
69579W        W33347  29.598   0.265  11.390
69580W        W33348  38.025  30.109   2.867
69581W        W33349  36.592  24.025   1.820
69582W        W33350  37.989  13.812   2.198
69583W        W33351  37.472  33.617   0.327
69584W        W33352  13.180  39.363  13.053
69585W        W33353  32.417  14.648   0.906
69586W        W33354  14.622  40.400  13.041
69587W        W33355  40.017  16.134   2.773
69588W        W33356  30.099  28.522  11.463
69589W        W33357  34.521  18.689   1.218
69590W        W33358  44.764   7.747  12.480
69591W        W33359   7.884  23.561   2.772
69592W        W33360  24.479   7.345  11.074
69593W        W33361  10.199  11.798  13.974
69594W        W33362  15.803  10.714  10.946
69595W        W33363  42.433   0.282   1.232
69596W        W33364   6.348  33.468  12.561
69597W        W33365  12.771  25.071   3.211
69598W        W33366   2.448   4.701  10.411
69599W        W33367  40.009  11.160  11.594
69600W        W33368  19.189  37.852  14.442
69601W        W33369  20.135  16.757  13.377
69602W        W33370  26.070  13.208  12.999
69603W        W33371  34.455  29.131  13.826
69604W        W33372   5.248  40.342  13.837
69605W        W33373  40.344   9.372  11.120
69606W        W33374  29.549  19.736   1.883
69607W        W33375  24.049  40.857   0.250
69608W        W33376  14.671   3.235   4.270
69609W        W33377  43.353  30.115  11.048
69610W        W33378  28.593  24.031  14.312
69611W        W33379  35.005  34.056  13.376
69612W        W33380  15.678  14.799   2.790
69613W        W33381  23.573  28.934   2.845
69614W        W33382  27.964  32.540  12.455
69615W        W33383  16.688  26.504  10.980
69616W        W33384   5.226  20.164  14.948
69617W        W33385  11.666  16.146  13.037
69618W        W33386  25.693   3.852   1.238
69619W        W33387  22.610   0.893  14.425
69620W        W33388   7.751  34.918  13.334
69621W        W33389  42.334  21.025   0.905
69622W        W33390  10.850  37.497   0.765
69623W        W33391   3.768   5.898   4.772
69624W        W33392   9.868  10.187  13.529
69625W        W33393  38.924   2.849  10.444
69626W        W33394  25.493  11.764   2.221
69627W        W33395  15.619   7.222  12.059
69628W        W33396  18.073  18.277   2.757
69629W        W33397  19.602  18.155   0.467
69630W        W33398  17.174   6.300   3.822
69631W        W33399  12.817  36.085   1.298
69632W        W33400   0.332  22.735   4.776
69633W        W33401  33.468   5.229   4.799
69634W        W33402  38.035   3.901  10.430
69635W        W33403  36.536  44.815   1.261
69636W        W33404  12.726   8.291   0.298
69637W        W33405  21.713   7.180   4.119
69638W        W33406  29.571  36.385  12.884
69639W        W33407  34.522   3.252  13.444
69640W        W33408   5.207  21.030  13.812
69641W        W33409   4.291   0.889  12.072
69642W        W33410  18.703  18.144  11.398
69643W        W33411   0.456  33.383  13.041
69644W        W33412  17.286  23.062  12.064
69645W        W33413  13.726  22.205   0.372
69646W        W33414  36.936  42.843   2.221
69647W        W33415  41.391  33.081  12.905
69648W        W33416   5.266   8.821   1.408
69649W        W33417   8.855  26.180  11.546
69650W        W33418  35.559  40.502   4.658
69651W        W33419  31.591  20.570  13.524
69652W        W33420  30.573  23.059   3.180
69653W        W33421  36.953  13.273  11.392
69654W        W33422  11.652  21.753   0.350
69655W        W33423  18.572  16.612   3.368
69656W        W33424  26.097  34.477  10.905
69657W        W33425  16.210  31.067  11.010
69658W        W33426  41.466  22.547   3.871
69659W        W33427  14.306  39.929   3.247
69660W        W33428  16.201  16.812  13.882
69661W        W33429  13.137  14.315   4.698
69662W        W33430  33.883  12.784   3.284
69663W        W33431  41.802  30.513  11.924
69664W        W33432   4.338   2.897   3.258
69665W        W33433  13.295  18.588  12.432
69666W        W33434  15.322  12.207   4.269
69667W        W33435  22.595  22.649  14.873
69668W        W33436  34.527  29.435   4.161
69669W        W33437  39.817   9.153   2.292
69670W        W33438   9.703  30.039   3.333
69671W        W33439  40.050  12.754   4.151
69672W        W33440   3.878  44.769   0.285
69673W        W33441  38.412   2.468  14.441
69674W        W33442   1.844  30.131   2.203
69675W        W33443  28.663  39.362   1.389
69676W        W33444  15.322  14.660  12.874
69677W        W33445  31.524   1.440  11.585
69678W        W33446  16.204  34.110   5.113
69679W        W33447  24.564  41.926  10.627
69680W        W33448  41.890  33.420   4.773
69681W        W33449  41.354  13.146   1.299
69682W        W33450  22.572  29.498   3.659
69683W        W33451   4.408  28.943  10.643
69684W        W33452  28.001  33.066  10.110
69685W        W33453  40.491   7.194   4.210
69686W        W33454  40.956  40.343  13.325
69687W        W33455  37.003  39.976  11.939
69688W        W33456  30.428  34.968   0.283
69689W        W33457  41.488  32.499   0.470
69690W        W33458  28.965   5.851  10.540
69691W        W33459  38.053   1.287  10.493
69692W        W33460  21.123  11.864   1.727
69693W        W33461  17.199  38.943   5.302
69694W        W33462  16.604  36.591   2.807
69695W        W33463  37.421  32.493   0.244
69696W        W33464  16.287   4.759   3.802
69697W        W33465   9.214  32.495  12.354
69698W        W33466  35.532  30.102   0.843
69699W        W33467   8.333  35.094  13.840
69700W        W33468  31.074  21.180  11.989
69701W        W33469   2.349  15.703  12.899
69702W        W33470  12.119  22.118  11.054
69703W        W33471  42.441  33.996  10.458
69704W        W33472   4.866  41.438   2.812
69705W        W33473  20.116  28.132   1.411
69706W        W33474  13.626  27.686   1.841
69707W        W33475  23.681   2.238   0.885
69708W        W33476   5.438  13.708   3.244
69709W        W33477  22.198   5.735  14.454
69710W        W33478  19.636  42.356   2.669
69711W        W33479  12.187  34.480  11.032
69712W        W33480  14.654   8.777  13.346
69713W        W33481  31.066  44.279  11.922
69714W        W33482  14.776   8.692   0.835
69715W        W33483  37.381  25.684  13.017
69716W        W33484   5.873  38.870  13.393
69717W        W33485  13.212  28.126  13.834
69718W        W33486  27.963   2.342  13.840
69719W        W33487   2.745  27.998  10.523
69720W        W33488  17.632  13.119  12.352
69721W        W33489  36.353  24.702  12.547
69722W        W33490  35.936  25.165  14.419
69723W        W33491  26.988   8.809   0.793
69724W        W33492  24.683  38.355   2.674
69725W        W33493  23.090  23.655  11.548
69726W        W33494  38.964  16.156   1.813
69727W        W33495  27.960  24.504  14.852
69728W        W33496   9.283  15.099  10.415
69729W        W33497  18.709  36.542  11.867
69730W        W33498  37.368   4.309  11.105
69731W        W33499  32.433  14.250   0.286
69732W        W33500  40.927  19.703  10.508
69733W        W33501  31.992   4.706  13.449
69734W        W33502  30.919  15.242  12.049
69735W        W33503  38.561  39.961  13.526
69736W        W33504  15.117  43.464   1.853
69737W        W33505  24.656  15.728  10.080
69738W        W33506  11.291  18.138   0.740
69739W        W33507  33.129  35.894  12.861
69740W        W33508  30.032  34.107  13.516
69741W        W33509  12.182  37.339  11.116
69742W        W33510  21.174  13.641   0.414
69743W        W33511  34.002  33.120  11.906
69744W        W33512   1.409   4.421   2.684
69745W        W33513  19.742  35.468   1.323
69746W        W33514  35.378  23.121  12.916
69747W        W33515  11.371  39.471   2.404
69748W        W33516  27.645  28.989  14.368
69749W        W33517  29.932   1.430  12.931
69750W        W33518  18.741   5.367  12.004
69751W        W33519  11.256  15.170   0.430
69752W        W33520  25.502   3.774  11.943
69753W        W33521  38.820   5.688   2.711
69754W        W33522  44.796   4.707   9.948
69755W        W33523  43.402  21.537   2.399
69756W        W33524  16.083  29.463  13.538
69757W        W33525  22.635   9.271   1.754
69758W        W33526   2.292  27.653  12.975
69759W        W33527  26.150  38.327  14.011
69760W        W33528  28.463  15.093   1.808
69761W        W33529  18.274  41.930  13.407
69762W        W33530   8.816   8.195  12.930
69763W        W33531  44.373  31.989   0.798
69764W        W33532  29.547  19.086  10.497
69765W        W33533  19.125   8.223  12.464
69766W        W33534  32.971  16.183  12.836
69767W        W33535  16.735  43.342  10.906
69768W        W33536  13.738  25.091  14.355
69769W        W33537   9.890  24.153  14.974
69770W        W33538  36.045   6.335   3.322
69771W        W33539  41.392   3.276   1.926
69772W        W33540  38.995   6.685  14.331
69773W        W33541  23.649  15.642   4.622
69774W        W33542  28.612  11.289  13.919
69775W        W33543  14.597  39.392  12.425
69776W        W33544   3.339  44.816   3.644
69777W        W33545  29.988  44.429  14.292
69778W        W33546  25.584  14.788   0.314
69779W        W33547  23.141  40.484  14.974
69780W        W33548  16.092  22.059   2.225
69781W        W33549  18.595  44.890   1.418
69782W        W33550  42.005  10.263  14.392
69783W        W33551  17.228   0.471   0.268
69784W        W33552  28.545   6.319  14.508
69785W        W33553   9.669  32.615   2.252
69786W        W33554   8.275  31.960   1.734
69787W        W33555  39.843   6.686   3.357
69788W        W33556  25.099  42.445   3.748
69789W        W33557  44.281  34.379   2.734
69790W        W33558  16.237  26.991  10.600
69791W        W33559  26.016  32.899   3.654
69792W        W33560  41.347   6.826  11.933
69793W        W33561  26.088  15.604   5.195
69794W        W33562  30.564  12.180   2.774
69795W        W33563  32.410   1.389  11.479
69796W        W33564  15.671  13.831  14.419
69797W        W33565   2.257  26.500   2.254
69798W        W33566  37.582   6.288   3.661
69799W        W33567  14.131  40.406  10.994
69800W        W33568  24.008  32.911   4.760
69801W        W33569  12.320  18.223  14.305
69802W        W33570  40.523  14.169   5.091
69803W        W33571  30.418  24.636   4.233
69804W        W33572   0.797  42.944  14.929
69805W        W33573  39.362  17.225   0.964
69806W        W33574  33.540  26.559  14.940
69807W        W33575  29.543  15.227  14.418
69808W        W33576  10.174   0.448   2.370
69809W        W33577  27.987  17.227  14.930
69810W        W33578  16.281   5.391  14.786
69811W        W33579  29.539  31.017  11.066
69812W        W33580  36.377  14.809  13.941
69813W        W33581  40.379  42.451   3.866
69814W        W33582  39.319  39.422   4.828
69815W        W33583  39.973  18.204   0.322
69816W        W33584  44.808   6.208  10.494
69817W        W33585   0.841  26.564   3.662
69818W        W33586  33.446  23.553   0.414
69819W        W33587  40.318  35.054   5.250
69820W        W33588  42.403   9.233   2.774
69821W        W33589  35.400  41.010   3.806
69822W        W33590  34.115  16.181   3.641
69823W        W33591  29.004  20.092  13.336
69824W        W33592  31.455  17.708  12.900
69825W        W33593  29.986  23.034   3.165
69826W        W33594  35.430   9.851  11.865
69827W        W33595  43.359   7.355  14.828
69828W        W33596  11.814  37.010   0.909
69829W        W33597  14.661  19.603  14.337
69830W        W33598  32.110  28.658  11.914
69831W        W33599  39.552  31.033   1.752
69832W        W33600  35.387  24.226   4.154
69833W        W33601  42.370   7.878   3.789
69834W        W33602  40.846  41.879   2.840
69835W        W33603   5.255  35.595   1.261
69836W        W33604  23.994  34.060   2.845
69837W        W33605  37.972  18.575  10.995
69838W        W33606  41.433  41.823  13.040
69839W        W33607  14.793  16.661   2.892
69840W        W33608  42.404  14.326  11.123
69841W        W33609   1.345  22.504  14.444
69842W        W33610  34.944  27.084   2.319
69843W        W33611  12.177   6.744  13.881
69844W        W33612  44.429   8.734   2.806
69845W        W33613  13.695  30.086   0.444
69846W        W33614  15.654  22.560  13.858
69847W        W33615   3.238  27.006   2.408
69848W        W33616  35.404   3.222   1.818
69849W        W33617  25.687  32.107  10.995
69850W        W33618  23.637   5.354   0.820
69851W        W33619  32.495  43.919   2.210
69852W        W33620   6.408  28.579  11.933
69853W        W33621   8.230  20.086   1.863
69854W        W33622  37.058  34.489  11.573
69855W        W33623   7.764  34.476   0.380
69856W        W33624  36.876  37.847   1.928
69857W        W33625  37.981  36.880   1.294
69858W        W33626   9.800  14.673   4.331
69859W        W33627  26.558   8.266   5.182
69860W        W33628  31.974  18.622   3.254
69861W        W33629  25.592  28.552   2.391
69862W        W33630   0.790  12.271   0.450
69863W        W33631  17.589   9.196  10.515
69864W        W33632  16.172  38.368  12.965
69865W        W33633  25.980  41.025  14.301
69866W        W33634  38.969  42.833   1.363
69867W        W33635  38.544  38.047  14.980
69868W        W33636  12.821  40.036  12.040
69869W        W33637  14.162  15.744  12.993
69870W        W33638   7.328  41.901  11.434
69871W        W33639   0.450  25.209   4.666
69872W        W33640  37.030  31.481   2.286
69873W        W33641   4.748   5.368   2.246
69874W        W33642  31.135  18.695  12.354
69875W        W33643  15.305   1.850   3.189
69876W        W33644  29.664  40.934  10.456
69877W        W33645  10.141  37.051   3.267
69878W        W33646  10.874   2.724  11.389
69879W        W33647  14.150   0.988  13.793
69880W        W33648  42.837  19.598   4.713
69881W        W33649   3.738  16.118   0.727
69882W        W33650  35.965  33.399   2.369
69883W        W33651  12.637  20.687   2.699
69884W        W33652  39.834  40.900  11.383
69885W        W33653  24.216   7.397  13.030
69886W        W33654  26.119   9.869  10.588
69887W        W33655  30.116  19.262  11.489
69888W        W33656  35.873   5.809  13.013
69889W        W33657  44.879  24.196  12.373
69890W        W33658  24.704  15.651  14.915
69891W        W33659   9.165  11.316   4.254
69892W        W33660   4.839   8.894  11.118
69893W        W33661  18.693  19.554  10.952
69894W        W33662   8.729  40.447   4.155
69895W        W33663   7.287  20.223   3.257
69896W        W33664   7.410   9.783  11.526
69897W        W33665  28.075  38.420  12.465
69898W        W33666  32.399  21.616   3.330
69899W        W33667  32.397  40.381  10.577
69900W        W33668  41.864   7.688  10.437
69901W        W33669  15.142  22.532  13.827
69902W        W33670  30.916  25.488   0.392
69903W        W33671  41.385  14.299  12.881
69904W        W33672  41.870  18.582   1.345
69905W        W33673   3.756  12.733  13.026
69906W        W33674   5.279  29.056   1.435
69907W        W33675  40.405  41.310  13.985
69908W        W33676  36.454  24.622  11.470
69909W        W33677  15.822  35.949   3.219
69910W        W33678   9.884   6.752  11.899
69911W        W33679  12.685  43.000   1.809
69912W        W33680  19.766  24.146   1.281
69913W        W33681  35.863  10.240   3.861
69914W        W33682  17.195  25.492   0.311
69915W        W33683   7.398  36.510   3.739
69916W        W33684  17.236  34.076  10.516
69917W        W33685   5.715  26.683  10.483
69918W        W33686  20.047   0.485   3.785
69919W        W33687  20.148  35.416   3.331
69920W        W33688  25.475  41.396   4.795
69921W        W33689  34.079  10.161   1.437
69922W        W33690  21.697  13.774   2.832
69923W        W33691  26.534   3.941  10.585
69924W        W33692  43.309  34.527  10.581
69925W        W33693  40.021  33.084   0.257
69926W        W33694   1.750  21.078   1.330
69927W        W33695   0.349   7.221  12.363
69928W        W33696  35.906   9.803  10.455
69929W        W33697  41.456  25.531  12.371
69930W        W33698  41.394  44.925   1.235
69931W        W33699  26.660  22.729   1.737
69932W        W33700  39.877  29.544  13.546
69933W        W33701  18.261   6.183   1.215
69934W        W33702  18.640  44.307  13.325
69935W        W33703  19.160   2.417  11.993
69936W        W33704  39.507  21.222  10.507
69937W        W33705  20.563  30.529   0.303
69938W        W33706  35.877   6.834   1.260
69939W        W33707  15.692  36.892  12.399
69940W        W33708  41.435  24.005   0.910
69941W        W33709  27.122  39.435   3.832
69942W        W33710   8.376  21.207   0.863
69943W        W33711  28.963   6.718   4.164
69944W        W33712  19.630  15.740  13.892
69945W        W33713   5.863  22.662  14.311
69946W        W33714  28.105  16.605  10.052
69947W        W33715  24.583   1.459  12.421
69948W        W33716  35.567  31.647   4.197
69949W        W33717  19.132  30.479   1.819
69950W        W33718  42.944  16.639   0.436
69951W        W33719  40.989  44.796  13.350
69952W        W33720  26.604  18.769   4.829
69953W        W33721  26.678  32.546   2.357
69954W        W33722  26.093  17.597   4.250
69955W        W33723  38.015   1.906  12.995
69956W        W33724  21.578  35.047   4.634
69957W        W33725  33.504   0.926   3.336
69958W        W33726  19.679  16.776   2.332
69959W        W33727  31.594  38.526   3.203
69960W        W33728  28.053   2.886  14.408
69961W        W33729  22.124  25.043  12.019
69962W        W33730  12.276  26.460  12.565
69963W        W33731  14.632  25.567   2.873
69964W        W33732  36.579  42.357  13.450
69965W        W33733   3.350   3.719   2.355
69966W        W33734  22.164  25.109   0.305
69967W        W33735   9.826  26.482  14.792
69968W        W33736   3.716  21.073  11.411
69969W        W33737  35.946  33.105   3.252
69970W        W33738  21.075  15.799  14.019
69971W        W33739  33.968  37.971   0.778
69972W        W33740   2.473   5.789   3.759
69973W        W33741  33.041  13.842   0.443
69974W        W33742   1.276   5.772  12.908
69975W        W33743  36.955   5.253   5.721
69976W        W33744   2.288  34.028  14.411
69977W        W33745  33.513  35.868  13.495
69978W        W33746  43.319  29.596   2.783
69979W        W33747  38.354  23.111   3.691
69980W        W33748  19.250   5.193  12.521
69981W        W33749  20.573  10.637   0.854
69982W        W33750  30.909   5.793  12.075
69983W        W33751  17.201  39.464  11.900
69984W        W33752   4.941  13.346  13.906
69985W        W33753  37.487  40.310  11.450
69986W        W33754   0.281   8.776   2.282
69987W        W33755  36.088   0.801  11.452
69988W        W33756  38.821  21.646  11.959
69989W        W33757  32.418   7.219  14.412
69990W        W33758  35.930  38.371   0.403
69991W        W33759  22.136  17.085   4.647
69992W        W33760   4.446  13.257  10.526
69993W        W33761   4.868  11.346  11.056
69994W        W33762  33.546  20.687   4.789
69995W        W33763  36.358  28.110  12.096
69996W        W33764  43.405  36.045  11.500
69997W        W33765   9.170  29.153  13.896
69998W        W33766  16.249  37.004   1.898
69999W        W33767   7.728   2.316  11.954
70000W        W33768  36.040  12.233  11.922
70001W        W33769   9.211   4.844   2.368
70002W        W33770  16.277  22.166   5.584
70003W        W33771  38.948  42.330  12.914
70004W        W33772  18.688  32.944  14.857
70005W        W33773   5.837  22.653   1.786
70006W        W33774   1.855  35.425   3.828
70007W        W33775  43.490  16.280  13.828
70008W        W33776  37.573   7.685  12.341
70009W        W33777  19.557  25.679   4.300
70010W        W33778   1.936   6.259  14.967
70011W        W33779   5.696  24.041  10.641
70012W        W33780  29.028   6.828  14.771
70013W        W33781  34.871   7.375  14.891
70014W        W33782  36.452  28.143   4.292
70015W        W33783  11.208  13.692   2.663
70016W        W33784  28.500  41.931  13.349
70017W        W33785   4.220  41.330  12.017
70018W        W33786  44.329  32.458  13.812
70019W        W33787  17.253   0.376  10.619
70020W        W33788   2.861  19.272  12.000
70021W        W33789  34.109  14.146  12.372
70022W        W33790  23.093  26.462   2.187
70023W        W33791  44.772  26.040   1.280
70024W        W33792  12.713  39.830  11.548
70025W        W33793   1.966  32.506  11.547
70026W        W33794  24.094  29.544   2.756
70027W        W33795  37.864  40.888  11.868
70028W        W33796  12.316   1.471  12.430
70029W        W33797  26.107  25.074  12.962
70030W        W33798  17.068  10.700   1.439
70031W        W33799  10.302  40.994  13.814
70032W        W33800  43.438   2.448  10.504
70033W        W33801  35.386   2.330  14.775
70034W        W33802  20.075  36.940   4.292
70035W        W33803  27.690  30.101   2.770
70036W        W33804  20.738  38.456  14.864
70037W        W33805  22.690  36.511   1.855
70038W        W33806  14.811  35.026   1.703
70039W        W33807  40.549   0.799  13.922
70040W        W33808  21.742   1.811  13.497
70041W        W33809   1.778   7.806   0.939
70042W        W33810   6.727  41.523  14.499
70043W        W33811  42.411  16.215   0.735
70044W        W33812   6.680  42.411   4.634
70045W        W33813  31.006  15.211  13.543
70046W        W33814  18.171   6.368  13.448
70047W        W33815  12.817  12.179  10.609
70048W        W33816  22.663  12.704   2.766
70049W        W33817   0.885  42.962  13.953
70050W        W33818  21.216  15.582  11.482
70051W        W33819  11.711  41.342   3.741
70052W        W33820  24.230  44.299   5.097
70053W        W33821  24.710  12.201  14.882
70054W        W33822  23.139  28.186  14.785
70055W        W33823  22.670   3.882  11.870
70056W        W33824  41.304  13.609  13.431
70057W        W33825  42.868   1.859   3.747
70058W        W33826  24.092  42.839   3.383
70059W        W33827   6.733  28.593   0.916
70060W        W33828  39.968   9.324   1.427
70061W        W33829  18.563  39.021  12.983
70062W        W33830  15.706  30.942  14.819
70063W        W33831  35.389  12.173   4.331
70064W        W33832   8.183   5.221   4.179
70065W        W33833  42.851  25.600   3.303
70066W        W33834  34.580  15.747  14.820
70067W        W33835  32.991  34.115   1.237
70068W        W33836  11.247  43.770   1.214
70069W        W33837  37.442  14.826   2.194
70070W        W33838  41.857  13.626  10.440
70071W        W33839  23.724  10.710   0.252
70072W        W33840   6.231  44.948  12.982
70073W        W33841  12.308  39.412  10.576
70074W        W33842  15.734  25.180  10.951
70075W        W33843   0.902  12.612   0.928
70076W        W33844  12.207   7.745  13.497
70077W        W33845  28.454  32.548   0.384
70078W        W33846  25.971  37.352   2.788
70079W        W33847   1.307  21.187   4.681
70080W        W33848  19.280  35.970   2.874
70081W        W33849  20.653   6.201   3.863
70082W        W33850  44.945   4.275   0.422
70083W        W33851  29.935   6.901   3.198
70084W        W33852   6.323  29.920   3.356
70085W        W33853  24.652  42.303   1.381
70086W        W33854  25.690   8.678  13.812
70087W        W33855  36.024   8.185   2.357
70088W        W33856   5.845  25.054  13.878
70089W        W33857   8.170  10.377   1.406
70090W        W33858  27.455  15.591   4.131
70091W        W33859  25.008   1.304   3.810
70092W        W33860   8.834  43.482  13.872
70093W        W33861  25.495  26.127  13.470
70094W        W33862  40.475  12.845   4.768
70095W        W33863  14.108  23.611   2.798
70096W        W33864  10.316   8.701  13.836
70097W        W33865  35.446   4.810   2.876
70098W        W33866  25.685  34.060   5.138
70099W        W33867  19.272  31.490  13.336
70100W        W33868  44.337   5.370  13.807
70101W        W33869  32.013  34.034  13.794
70102W        W33870   3.924   6.850   0.907
70103W        W33871   0.250  18.067   0.449
70104W        W33872  29.081   5.720   2.193
70105W        W33873  25.654  23.612   5.200
70106W        W33874   8.899  16.651   0.371
70107W        W33875   7.306  18.120  11.372
70108W        W33876  13.843  28.594  10.627
70109W        W33877  37.345   0.898  13.868
70110W        W33878  19.091  14.212   0.951
70111W        W33879  21.170  39.316   4.304
70112W        W33880  35.480   8.674  13.011
70113W        W33881  28.092   0.869   4.812
70114W        W33882  20.599   6.242  13.519
70115W        W33883  20.030   4.296  13.933
70116W        W33884  25.216  26.599  11.864
70117W        W33885  26.141  35.388  10.894
70118W        W33886  25.573  24.715  12.041
70119W        W33887  38.855  37.424  14.823
70120W        W33888  10.660  43.275  10.947
70121W        W33889  20.525  15.677  10.443
70122W        W33890   3.440   5.377  10.505
70123W        W33891   0.772  14.654   1.877
70124W        W33892  21.075  42.407   1.726
70125W        W33893  40.819  28.651   2.803
70126W        W33894  13.611  27.094   3.241
70127W        W33895   4.401  25.683  11.437
70128W        W33896  39.406   0.785   2.871
70129W        W33897  19.608  34.453   1.423
70130W        W33898  22.543  26.620  14.785
70131W        W33899   4.804  11.129  14.890
70132W        W33900  20.635  40.361   4.271
70133W        W33901   4.209   8.189  10.981
70134W        W33902   2.466  24.495  11.961
70135W        W33903  12.225   5.231   2.871
70136W        W33904  33.564  21.579  12.543
70137W        W33905  43.906  39.879  13.459
70138W        W33906  21.050  14.702  14.324
70139W        W33907  34.073   8.800   1.304
70140W        W33908   7.202  18.167  14.873
70141W        W33909   4.709  40.344   0.262
70142W        W33910  13.757  19.589   3.302
70143W        W33911  29.449  38.847  11.896
70144W        W33912  41.494  28.560  12.498
70145W        W33913  39.473   7.844  11.569
70146W        W33914  42.442  38.060  12.556
70147W        W33915  42.028   4.315  10.542
70148W        W33916  19.760   1.814  14.982
70149W        W33917  37.516   0.971   0.855
70150W        W33918  29.012  43.983   1.260
70151W        W33919  18.737   6.199   3.731
70152W        W33920  25.086  36.952  14.355
70153W        W33921   5.704  34.030  12.414
70154W        W33922  20.162   5.199  10.890
70155W        W33923  13.154  31.449  13.980
70156W        W33924   4.843   2.894  14.990
70157W        W33925   5.223  20.666  13.804
70158W        W33926  35.984   6.379  11.467
70159W        W33927  12.624  42.954  14.823
70160W        W33928  38.561  12.631  13.492
70161W        W33929  39.351  13.610  14.437
70162W        W33930   0.978  37.955  13.428
70163W        W33931  30.126  26.994  11.855
70164W        W33932  20.188   0.260   0.436
70165W        W33933  18.179  15.225  11.918
70166W        W33934   0.416  28.172  10.623
70167W        W33935   7.769  33.389  11.604
70168W        W33936  43.436  31.088   4.297
70169W        W33937   2.295  22.217   0.342
70170W        W33938   8.893  34.024  11.024
70171W        W33939  44.890  37.582  13.507
70172W        W33940  33.521  42.856  11.490
70173W        W33941  37.568  25.103  14.837
70174W        W33942  11.308   5.860  10.543
70175W        W33943  41.799  13.692  14.979
70176W        W33944   2.811  26.608  13.797
70177W        W33945  37.028  12.184  14.999
70178W        W33946  17.780  32.087  14.291
70179W        W33947  31.444  31.521  13.054
70180W        W33948  39.981  10.847   1.859
70181W        W33949  21.099   3.259  10.920
70182W        W33950   2.434  35.571   2.750
70183W        W33951   2.873  34.989   0.465
70184W        W33952  27.449   1.476  11.892
70185W        W33953   3.455  24.643  12.948
70186W        W33954  38.968  39.062   5.089
70187W        W33955  25.542  21.657  11.419
70188W        W33956  35.367   4.205   4.217
70189W        W33957  14.667  20.108   1.924
70190W        W33958  42.511   9.194   0.767
70191W        W33959  44.358  16.688  13.400
70192W        W33960  35.104  28.029   1.256
70193W        W33961  17.705   2.923  13.397
70194W        W33962  15.595  27.598  14.859
70195W        W33963  20.557  10.835   1.432
70196W        W33964  23.037  15.311   2.203
70197W        W33965  37.446   8.786   4.632
70198W        W33966   3.358   7.262  10.511
70199W        W33967  25.623  28.028   2.848
70200W        W33968   2.867  15.797  10.960
70201W        W33969  36.021  33.401   1.273
70202W        W33970  43.884  25.051   3.151
70203W        W33971  21.648  15.129   2.801
70204W        W33972  26.136  35.429  14.759
70205W        W33973   0.466  30.121   2.218
70206W        W33974  23.675  20.528   3.257
70207W        W33975  22.049  10.802   1.365
70208W        W33976  11.711  22.077  11.073
70209W        W33977  18.195   8.216   0.915
70210W        W33978  13.713   1.785   4.658
70211W        W33979  26.585   6.414  11.889
70212W        W33980  35.593  22.583  13.499
70213W        W33981  44.950  18.082  12.882
70214W        W33982  29.637  22.564   2.188
70215W        W33983   8.773  17.295  14.763
70216W        W33984   5.731  33.383   2.259
70217W        W33985   1.908  27.588   2.415
70218W        W33986  26.981   7.841   4.157
70219W        W33987  22.591   5.232  12.857
70220W        W33988  43.977  44.810  12.906
70221W        W33989  23.016   4.739   4.686
70222W        W33990  28.141  39.364  14.881
70223W        W33991  15.099  31.028  13.002
70224W        W33992  11.657  26.973   2.679
70225W        W33993   6.899   8.192   4.785
70226W        W33994  11.220  16.755  12.339
70227W        W33995   7.880   6.804  11.125
70228W        W33996  35.071   8.888   3.257
70229W        W33997   0.491  12.711   0.247
70230W        W33998  20.043  24.160  10.972
70231W        W33999  37.868  15.810   3.287
70232W        W34000  24.570  33.455  12.514
70233W        W34001  34.526  32.126  13.465
70234W        W34002  44.401  11.164  11.079
70235W        W34003  44.323   3.446  13.910
70236W        W34004  32.950  20.604   1.747
70237W        W34005  27.561  35.572   4.838
70238W        W34006  22.189  29.073   3.744
70239W        W34007  44.432  26.510   4.826
70240W        W34008  35.897  42.355   1.289
70241W        W34009  30.974  17.297   3.715
70242W        W34010  16.284  22.035  11.518
70243W        W34011   9.368  31.918   3.324
70244W        W34012  41.362   6.292  12.499
70245W        W34013  11.144  13.122  11.409
70246W        W34014  41.503  29.589  10.070
70247W        W34015  40.047  22.180   1.756
70248W        W34016  10.633   6.722  14.385
70249W        W34017   2.754  27.167  12.021
70250W        W34018  12.701   8.187   2.217
70251W        W34019  26.142   7.212   2.243
70252W        W34020   2.457  14.336  10.141
70253W        W34021  34.492  15.258   3.299
70254W        W34022  27.987  29.096   0.440
70255W        W34023   6.218  38.872   3.241
70256W        W34024  36.517   1.476  12.530
70257W        W34025  44.871  27.191   0.415
70258W        W34026  15.784  35.534   4.794
70259W        W34027  39.523  44.876  14.406
70260W        W34028   0.943   7.741   0.850
70261W        W34029   9.307  33.547   3.852
70262W        W34030  20.116  30.437  13.520
70263W        W34031  17.589  20.183  13.936
70264W        W34032  23.615  19.256   2.376
70265W        W34033  36.867  22.017  14.506
70266W        W34034  12.255  10.722   2.404
70267W        W34035   9.698   3.375  10.427
70268W        W34036  24.577  26.963  13.038
70269W        W34037  25.693  13.183   3.850
70270W        W34038  44.338   3.313   4.286
70271W        W34039  27.511  28.031   0.304
70272W        W34040   9.811   0.745  14.441
70273W        W34041  27.028  16.680   4.666
70274W        W34042  39.435  38.911  13.365
70275W        W34043  43.353  23.207  11.940
70276W        W34044  31.449  24.712  11.095
70277W        W34045  13.838  32.993  13.843
70278W        W34046  35.458  17.762   3.865
70279W        W34047  38.886   9.308  14.880
70280W        W34048  40.874  19.222  14.337
70281W        W34049  11.838   6.187  11.870
70282W        W34050  34.543  24.221   4.661
70283W        W34051  16.229  28.565  14.365
70284W        W34052  35.397  23.539   4.206
70285W        W34053  41.964  44.470   2.807
70286W        W34054  41.907  22.105  10.994
70287W        W34055   0.898  21.198  11.603
70288W        W34056  16.758  21.241   4.620
70289W        W34057  22.648  15.662  11.419
70290W        W34058   9.680  34.094  10.468
70291W        W34059  12.242  27.516   3.241
70292W        W34060  39.025  29.524   1.415
70293W        W34061  11.212  18.620   2.839
70294W        W34062  41.337  32.591   9.517
70295W        W34063  34.474   8.214   2.754
70296W        W34064  44.447   3.404  14.877
70297W        W34065  20.064  35.982  14.919
70298W        W34066   7.796  25.124   0.843
70299W        W34067  25.618  29.452  12.460
70300W        W34068  34.961  17.062   3.297
70301W        W34069  29.605   4.238  11.520
70302W        W34070  43.830  20.641  10.890
70303W        W34071   0.479  33.024   3.814
70304W        W34072  34.434  15.219  14.956
70305W        W34073  24.591  16.086   3.703
70306W        W34074   6.379   5.774   2.323
70307W        W34075  39.851  12.120   3.748
70308W        W34076   6.905  32.008  14.782
70309W        W34077  44.298   4.918   3.309
70310W        W34078  32.455   5.363   2.827
70311W        W34079  33.474  23.132  10.436
70312W        W34080  43.295  42.296  12.063
70313W        W34081   5.379  28.966   2.292
70314W        W34082  32.910  30.441  13.378
70315W        W34083  42.966   5.317   2.715
70316W        W34084   8.354  33.034  10.513
70317W        W34085   7.308   7.171   4.790
70318W        W34086  20.160  40.870  10.970
70319W        W34087  31.456  30.051   3.351
70320W        W34088  39.836  27.497   3.847
70321W        W34089  36.504   3.833  14.307
70322W        W34090  37.927  13.131  12.344
70323W        W34091  36.924  42.484   3.368
70324W        W34092  11.678  14.681   3.671
70325W        W34093  26.457  32.034  12.014
70326W        W34094  44.431   1.257  11.596
70327W        W34095  18.223  34.065   2.261
70328W        W34096   9.185  31.966  14.503
70329W        W34097  23.986   3.396   4.291
70330W        W34098  23.576   1.908   1.421
70331W        W34099  31.132  29.019  10.471
70332W        W34100  27.133   4.374   2.852
70333W        W34101   2.464  27.677  10.983
70334W        W34102  22.697  22.098   4.742
70335W        W34103  34.937  24.018   2.792
70336W        W34104   7.726  41.037   1.423
70337W        W34105  14.302  26.006   1.853
70338W        W34106  29.618  17.252   3.859
70339W        W34107  10.382  35.979  12.040
70340W        W34108  23.025   5.719   4.306
70341W        W34109   2.917  33.955   4.139
70342W        W34110   2.726  35.939  13.348
70343W        W34111   5.279  42.420   3.798
70344W        W34112  24.173  22.697   0.797
70345W        W34113  19.734  18.554   0.863
70346W        W34114  41.893  19.703  11.976
70347W        W34115  23.155  38.900  10.566
70348W        W34116  28.116   2.944  13.485
70349W        W34117  11.276   9.379   4.827
70350W        W34118  22.211  16.670   1.318
70351W        W34119  28.046  43.934   3.262
70352W        W34120  13.264  12.143  14.500
70353W        W34121  10.675   7.691  12.914
70354W        W34122  32.013  42.993   4.611
70355W        W34123  29.999  17.743   4.658
70356W        W34124  19.139   3.301  14.299
70357W        W34125  14.632  21.624  10.566
70358W        W34126  41.291   3.355  13.541
70359W        W34127   2.398  17.147  10.602
70360W        W34128  40.887  24.214  12.860
70361W        W34129  41.815  41.369   1.415
70362W        W34130  23.054  15.207  11.382
70363W        W34131  34.878   4.942   5.105
70364W        W34132  43.989   5.903   1.830
70365W        W34133  19.237  18.555  12.865
70366W        W34134  42.396  28.561   2.328
70367W        W34135   7.777  19.667  12.975
70368W        W34136   8.322  21.109  13.388
70369W        W34137  32.908  32.448  10.549
70370W        W34138  32.457  11.183   3.285
70371W        W34139  33.932  39.535   1.792
70372W        W34140  31.646  29.993  11.019
70373W        W34141   4.211  34.080   4.322
70374W        W34142  31.096  23.201  13.952
70375W        W34143  37.972  39.011   2.313
70376W        W34144   9.328  37.008   0.754
70377W        W34145   1.844  23.660   3.725
70378W        W34146   4.903  31.921  13.475
70379W        W34147  15.790   6.311   2.876
70380W        W34148   4.761  36.897  11.032
70381W        W34149  25.194  43.899   2.720
70382W        W34150   2.282   4.330  11.422
70383W        W34151  10.836  37.955  14.845
70384W        W34152  30.488  41.388   4.237
70385W        W34153  39.810   9.175   1.872
70386W        W34154  33.470  15.226   1.213
70387W        W34155   1.427  13.634   4.622
70388W        W34156  32.422  20.261   2.815
70389W        W34157  13.246   8.298   4.241
70390W        W34158  43.953  44.918   4.176
70391W        W34159  13.616   3.859   1.304
70392W        W34160  27.627  30.466  11.922
70393W        W34161  34.004   5.264   1.298
70394W        W34162  41.837   9.777   4.638
70395W        W34163   2.918  40.963  12.522
70396W        W34164   4.744  35.931  11.007
70397W        W34165  40.460  18.205   2.783
70398W        W34166  43.810  31.903  13.429
70399W        W34167  14.758  29.634  12.068
70400W        W34168  23.613  18.093  11.935
70401W        W34169  33.107  26.481  12.414
70402W        W34170   8.693  44.313  13.336
70403W        W34171   3.276  33.105   9.956
70404W        W34172   6.743  21.170  10.456
70405W        W34173  11.659  26.069  14.489
70406W        W34174   8.398  21.672  10.557
70407W        W34175  29.987  18.188  11.454
70408W        W34176  22.560   2.438   4.265
70409W        W34177  40.912   4.263  10.462
70410W        W34178   1.264   3.933  14.348
70411W        W34179  27.500  35.439   3.386
70412W        W34180   2.364  19.713  10.044
70413W        W34181  41.943  11.317   3.777
70414W        W34182   7.194  36.467   2.888
70415W        W34183  37.437  43.473   1.443
70416W        W34184  36.537  27.126   3.186
70417W        W34185   8.762  20.084  14.276
70418W        W34186  16.172  21.584  13.849
70419W        W34187  41.946   8.835   2.745
70420W        W34188  29.944  38.874  10.514
70421W        W34189  40.523  29.579  12.537
70422W        W34190  30.498  26.165  12.542
70423W        W34191  38.336  42.340  14.028
70424W        W34192  16.199  33.531  12.933
70425W        W34193  37.461  32.885  11.541
70426W        W34194  31.979  27.114  13.792
70427W        W34195   8.228   4.830   2.347
70428W        W34196   7.700  23.705   0.324
70429W        W34197  18.667  18.618  13.007
70430W        W34198  17.711  20.615  13.929
70431W        W34199   6.387   3.456  14.334
70432W        W34200  10.857  16.205  11.432
70433W        W34201  31.151   6.283   0.950
70434W        W34202  37.472  41.384  10.572
70435W        W34203  32.935  33.960   4.728
70436W        W34204  34.469  36.973  12.539
70437W        W34205  15.579  24.048  11.003
70438W        W34206  29.112   0.978   4.787
70439W        W34207  20.612  23.141   0.895
70440W        W34208   3.783   3.230   1.444
70441W        W34209   1.455  25.483  13.016
70442W        W34210   7.375  18.104   3.853
70443W        W34211   7.252   6.845  13.030
70444W        W34212  24.019  15.631   0.782
70445W        W34213   9.807  40.051   4.775
70446W        W34214   9.669  33.894   3.177
70447W        W34215  13.211   0.373  10.055
70448W        W34216  44.308   6.749  13.402
70449W        W34217  21.162   1.453   0.286
70450W        W34218  39.407   0.926   4.116
70451W        W34219  23.702  31.602  12.372
70452W        W34220  27.021  16.184   4.649
70453W        W34221  37.410  14.759   3.293
70454W        W34222  13.762  32.462   4.284
70455W        W34223  26.616  16.222  10.561
70456W        W34224  42.904  40.938  11.940
70457W        W34225  27.181  12.699   0.752
70458W        W34226  17.729  29.555  14.289
70459W        W34227  26.082  36.995   0.877
70460W        W34228   8.195   7.775   4.787
70461W        W34229  36.419  18.167   4.255
70462W        W34230  44.840  29.957   0.924
70463W        W34231  31.444   9.165  14.853
70464W        W34232   5.348  30.565   3.345
70465W        W34233  12.219  27.192   3.799
70466W        W34234  13.626  30.133  14.385
70467W        W34235   9.161  36.974  10.925
70468W        W34236  23.583  10.688   2.725
70469W        W34237   8.335  28.648  10.645
70470W        W34238  24.171  38.336   0.911
70471W        W34239  14.147   7.895  10.636
70472W        W34240  22.522  28.553   3.652
70473W        W34241   4.890  16.773   4.769
70474W        W34242  25.607  42.403  13.977
70475W        W34243  13.348  26.106   4.634
70476W        W34244  34.473   3.273  14.892
70477W        W34245  34.918  33.075   4.276
70478W        W34246  30.545   1.783   1.359
70479W        W34247  33.533  16.787  11.017
70480W        W34248  37.078  25.545   0.899
70481W        W34249  11.833   5.240   1.761
70482W        W34250  25.134  28.477   3.186
70483W        W34251  36.396  16.177  10.947
70484W        W34252  34.523   7.418   1.893
70485W        W34253  11.235  22.201   1.432
70486W        W34254  41.852  15.089   1.848
70487W        W34255  21.702  13.599   4.205
70488W        W34256   9.324  12.808  12.843
70489W        W34257   0.318  32.100   3.636
70490W        W34258  22.516   2.257  13.794
70491W        W34259  26.084  37.881   3.345
70492W        W34260  30.610  40.402  14.366
70493W        W34261  25.117  20.237   0.444
70494W        W34262  12.784  29.096  11.087
70495W        W34263  15.169  42.924   1.343
70496W        W34264  10.194  23.135  11.575
70497W        W34265  25.521  19.188  14.952
70498W        W34266  16.721  43.989  11.942
70499W        W34267  24.528  28.664   0.318
70500W        W34268  14.261  26.125   2.872
70501W        W34269   9.752  21.213  11.088
70502W        W34270  43.374  39.829  14.840
70503W        W34271  15.639   7.302   2.207
70504W        W34272  16.592   0.987   0.762
70505W        W34273  32.089  19.172   2.900
70506W        W34274  23.557  11.138  13.537
70507W        W34275  42.429  29.063   0.953
70508W        W34276  34.073  35.407   0.800
70509W        W34277   3.828  36.391   0.799
70510W        W34278  26.052  41.443  14.382
70511W        W34279   7.284  37.436   5.270
70512W        W34280  17.134   1.359   0.337
70513W        W34281   0.926  17.610   4.656
70514W        W34282  32.116  29.622  10.525
70515W        W34283  34.543   9.729  14.292
70516W        W34284  32.903   1.275   4.749
70517W        W34285  20.239  40.540  10.145
70518W        W34286  22.045  39.019   2.671
70519W        W34287   0.787  27.493  11.544
70520W        W34288  27.510  10.214   4.766
70521W        W34289  15.252   5.294  14.840
70522W        W34290   6.811   5.396   0.754
70523W        W34291  25.558  35.022  14.023
70524W        W34292   0.865   7.816   1.915
70525W        W34293   3.899  18.166  10.508
70526W        W34294   5.849  33.121   2.281
70527W        W34295  11.812  39.339  14.964
70528W        W34296  20.654  29.153   4.277
70529W        W34297  29.928  16.230   4.121
70530W        W34298   4.278  26.517  12.570
70531W        W34299  35.051  33.977   1.344
70532W        W34300  20.039  37.888   2.211
70533W        W34301  17.705  24.643  14.506
70534W        W34302  19.618   6.412  12.008
70535W        W34303  41.295  29.108   0.868
70536W        W34304  33.100  17.740  11.108
70537W        W34305  12.685  33.616   1.252
70538W        W34306  13.284   1.328   0.295
70539W        W34307  32.942  13.795  13.384
70540W        W34308  42.011  21.579   4.189
70541W        W34309  19.769  14.242   3.654
70542W        W34310  35.048   7.200  10.539
70543W        W34311   8.202  22.566   0.903
70544W        W34312  14.624  44.911   3.832
70545W        W34313   3.349  25.133  14.884
70546W        W34314  37.542  15.248  11.488
70547W        W34315  20.669  22.604   1.410
70548W        W34316  16.186  34.871  12.499
70549W        W34317  16.153  16.231   5.735
70550W        W34318  42.951  40.802   0.892
70551W        W34319   6.241  11.133  10.608
70552W        W34320  14.095  35.553  14.340
70553W        W34321   9.297  30.132   2.675
70554W        W34322  15.581  15.614  11.599
70555W        W34323  16.778  44.805   1.904
70556W        W34324   5.242  40.870   3.733
70557W        W34325   2.304  38.822  14.504
70558W        W34326   5.293  28.945   3.864
70559W        W34327  21.196  24.539  10.536
70560W        W34328  23.197   5.738  11.001
70561W        W34329  29.544  40.411   0.827
70562W        W34330   2.377  35.905   4.152
70563W        W34331  24.560  24.144   2.700
70564W        W34332  36.457  33.961  11.932
70565W        W34333  40.879  33.964  14.915
70566W        W34334  17.158   3.403   2.871
70567W        W34335   1.444  26.647  14.935
70568W        W34336  41.810  30.155  13.965
70569W        W34337  18.605  29.029  11.998
70570W        W34338  26.159  25.040   1.258
70571W        W34339  27.981   8.825   1.892
70572W        W34340  32.104  14.653   1.820
70573W        W34341  12.725  19.774  11.087
70574W        W34342  19.264  17.692  14.763
70575W        W34343   9.312  31.963  14.868
70576W        W34344  22.231  38.353  14.509
70577W        W34345  12.673   0.359  13.919
70578W        W34346  31.085   5.922   4.141
70579W        W34347  28.015  19.071   1.256
70580W        W34348  10.684  32.492  13.457
70581W        W34349  35.559  15.142   0.354
70582W        W34350  27.574   0.331  13.382
70583W        W34351   9.378   0.953  12.481
70584W        W34352  29.640   1.772  12.368
70585W        W34353  36.867  14.313   1.916
70586W        W34354  32.437   0.898   4.701
70587W        W34355  16.578  22.703   3.294
70588W        W34356  13.809  23.116  12.921
70589W        W34357  23.712  15.777   1.705
70590W        W34358  22.594   5.850   3.818
70591W        W34359  33.961  37.497  11.924
70592W        W34360  28.503  19.261  12.479
70593W        W34361  39.545   0.369   3.745
70594W        W34362  19.041  17.066   9.921
70595W        W34363  29.132  19.263  13.958
70596W        W34364  13.639  39.465  10.946
70597W        W34365  38.861   8.404  12.452
70598W        W34366   1.910  42.014   1.351
70599W        W34367  16.089  32.609   5.639
70600W        W34368  40.049  35.358   4.322
70601W        W34369  20.156   2.352  11.110
70602W        W34370   7.215   9.843  12.563
70603W        W34371  35.050  33.915   2.376
70604W        W34372  15.250  18.233   9.583
70605W        W34373  12.815  26.665   4.693
70606W        W34374  37.840  20.563  12.975
70607W        W34375  42.331   4.306  13.812
70608W        W34376  36.497  43.976  13.322
70609W        W34377   5.221  36.919  14.821
70610W        W34378  13.315  27.597  11.473
70611W        W34379  34.455  22.191  14.464
70612W        W34380  42.933  29.077  13.365
70613W        W34381   1.852  28.986  11.522
70614W        W34382   7.854  37.957  14.786
70615W        W34383  22.148  26.514   0.870
70616W        W34384  34.978  43.780   1.929
70617W        W34385  26.021  42.791  12.474
70618W        W34386  28.994  22.618  12.549
70619W        W34387  35.480  11.169  13.356
70620W        W34388  21.744  34.482  11.952
70621W        W34389   4.707  43.882  11.945
70622W        W34390  14.820   6.201  13.446
70623W        W34391  18.589  11.680   4.249
70624W        W34392   6.323  32.420  12.479
70625W        W34393  18.745  23.701  12.970
70626W        W34394  31.086  14.605  14.904
70627W        W34395   9.754  33.095  10.644
70628W        W34396  35.506   7.242  12.485
70629W        W34397  19.127  16.232  14.400
70630W        W34398   2.226  17.783   3.315
70631W        W34399   7.878  10.829  13.895
70632W        W34400  40.898  11.834  13.536
70633W        W34401  38.863  23.140   4.260
70634W        W34402  34.914  19.705  12.522
70635W        W34403  14.699  26.100  11.530
70636W        W34404  26.537   2.932   3.801
70637W        W34405  29.480  21.729  12.017
70638W        W34406  20.561  36.535  13.015
70639W        W34407  10.175  23.621  13.885
70640W        W34408   4.226  10.776  10.555
70641W        W34409  36.556  10.244  11.557
70642W        W34410  18.185   6.801   3.705
70643W        W34411   1.294  33.068   3.337
70644W        W34412   0.744  14.677   4.818
70645W        W34413  15.112  35.095   3.687
70646W        W34414   8.790  43.324  12.509
70647W        W34415  34.428  36.412  10.582
70648W        W34416  23.709  11.730  11.094
70649W        W34417   5.919  32.006  14.421
70650W        W34418  23.225  18.279   4.313
70651W        W34419  41.455   8.724   3.355
70652W        W34420  12.302  17.701  13.457
70653W        W34421  20.746   1.793   1.306
70654W        W34422   2.743  11.677   2.406
70655W        W34423  20.607  22.221  14.858
70656W        W34424  42.878   1.881   3.146
70657W        W34425  32.915  18.189  12.058
70658W        W34426  38.017  44.971  12.866
70659W        W34427  42.527  28.630   0.773
70660W        W34428  15.580   8.220   3.721
70661W        W34429  25.183  43.891  11.387
70662W        W34430  36.852  41.840   0.414
70663W        W34431  24.170   1.874   4.279
70664W        W34432  25.126   5.438   2.204
70665W        W34433  16.809  17.152   3.699
70666W        W34434  28.558   7.347  11.006
70667W        W34435  26.192  10.725  13.518
70668W        W34436  41.382  19.757   3.329
70669W        W34437  39.500  44.959  11.020
70670W        W34438  44.398  11.646  12.974
70671W        W34439  41.481  11.700  10.927
70672W        W34440   8.175  36.418   0.937
70673W        W34441  14.651  33.091  13.531
70674W        W34442  33.107   4.863   3.715
70675W        W34443   8.173  31.072  11.422
70676W        W34444   2.247  12.184  12.930
70677W        W34445   3.442  27.676   2.855
70678W        W34446  25.024  42.395  11.120
70679W        W34447  16.193  20.634  11.103
70680W        W34448  32.598  14.608  10.600
70681W        W34449  43.412  41.462  12.417
70682W        W34450  11.852  32.505   4.639
70683W        W34451  27.141   8.298   3.209
70684W        W34452   4.897  23.018  14.020
70685W        W34453  18.061  40.325   1.390
70686W        W34454  43.935  27.663  12.071
70687W        W34455  13.810   6.801   2.820
70688W        W34456  30.061   2.759  11.504
70689W        W34457  36.899  37.505  12.440
70690W        W34458  39.832   6.304   0.900
70691W        W34459  11.849  13.605   4.121
70692W        W34460  43.829   7.818  11.529
70693W        W34461  23.722  14.245   2.357
70694W        W34462   4.816  29.988  10.493
70695W        W34463   8.185  39.850  13.003
70696W        W34464  13.621  12.639   9.959
70697W        W34465   9.302   8.251   2.194
70698W        W34466  30.615  12.241   1.352
70699W        W34467  32.480  39.031  13.389
70700W        W34468  11.865  28.952   3.318
70701W        W34469   6.410  15.643  10.465
70702W        W34470  34.614  30.457   0.774
70703W        W34471   7.370  44.301  14.807
70704W        W34472  19.249   3.745   2.225
70705W        W34473  34.398   4.247   2.202
70706W        W34474   0.310   1.374   0.851
70707W        W34475   0.431  37.843   3.655
70708W        W34476  28.019  20.102   1.336
70709W        W34477  36.843  15.269   3.821
70710W        W34478   9.740  29.995   0.751
70711W        W34479   2.417  32.460   4.116
70712W        W34480  25.473   6.260   5.206
70713W        W34481  21.674   3.227  10.893
70714W        W34482  37.015  34.119  13.982
70715W        W34483  17.728  28.030   2.306
70716W        W34484  14.728  42.373  12.085
70717W        W34485  33.972  36.012  10.522
70718W        W34486  25.574  29.087   5.202
70719W        W34487  14.831  26.962   3.207
70720W        W34488  31.076  40.312   1.313
70721W        W34489  23.099  37.939  12.893
70722W        W34490  13.130  14.257  13.327
70723W        W34491  25.189  31.148  11.979
70724W        W34492  35.423  18.148   1.426
70725W        W34493  17.120  36.355  13.500
70726W        W34494  43.953  21.697  12.036
70727W        W34495   5.846  33.106   4.616
70728W        W34496   5.849  38.506  14.484
70729W        W34497  20.236  40.868  14.970
70730W        W34498   3.386  26.629   3.260
70731W        W34499  23.147  15.588  12.947
70732W        W34500   0.862  35.863  10.952
70733W        W34501  34.612  44.402   4.328
70734W        W34502  33.561  20.580   1.355
70735W        W34503  37.496  41.900  14.821
70736W        W34504   0.425  15.201   4.733
70737W        W34505  31.922  35.008  10.907
70738W        W34506  19.754  33.404  13.532
70739W        W34507  43.296  14.261  13.048
70740W        W34508   4.298  40.862  13.895
70741W        W34509  38.558  19.569  13.014
70742W        W34510  25.181  24.614  12.969
70743W        W34511  40.876  16.754   0.912
70744W        W34512  33.901  36.392  12.351
70745W        W34513  29.501  30.610   3.174
70746W        W34514  17.188  22.033  10.016
70747W        W34515  29.922  14.760   3.814
70748W        W34516   8.212  13.119  14.286
70749W        W34517   6.247  32.905   2.701
70750W        W34518   9.366  22.676   0.894
70751W        W34519   5.317  38.509  10.406
70752W        W34520  30.074   8.747   1.858
70753W        W34521  44.807  26.079  13.964
70754W        W34522  35.924   3.934  11.055
70755W        W34523  21.757  24.085  14.292
70756W        W34524  11.295  21.580   0.470
70757W        W34525   5.870  34.907   0.318
70758W        W34526   1.454  18.209   2.230
70759W        W34527   6.762  33.014  12.083
70760W        W34528  44.299   1.897   0.959
70761W        W34529  17.649  21.570  13.311
70762W        W34530  24.156  15.301   0.309
70763W        W34531  27.107   0.363   3.840
70764W        W34532  23.524  23.681   1.808
70765W        W34533  43.001  17.638   0.892
70766W        W34534  26.113  32.546   4.136
70767W        W34535   4.923  34.932  10.911
70768W        W34536  13.655  40.865  14.773
70769W        W34537   6.279   8.391  14.825
70770W        W34538  13.706  24.601  13.325
70771W        W34539   7.757  29.058  11.936
70772W        W34540  17.268  35.590   3.851
70773W        W34541   3.383  16.310   4.161
70774W        W34542  43.773  17.740   1.308
70775W        W34543  34.535   8.299  12.883
70776W        W34544  25.020  29.115  10.478
70777W        W34545  28.532  18.112   4.746
70778W        W34546   6.389  23.142   0.258
70779W        W34547   7.226  29.647  13.455
70780W        W34548  14.295  14.830  13.832
70781W        W34549  20.690  37.883   3.839
70782W        W34550  31.537  39.876   2.845
70783W        W34551   0.767   8.305  14.870
70784W        W34552  43.857  34.934  14.845
70785W        W34553  27.046   4.310   0.873
70786W        W34554  40.904  24.683   1.332
70787W        W34555   9.258  33.917   1.342
70788W        W34556  17.595  31.065  13.332
70789W        W34557  25.578  35.975   0.359
70790W        W34558  11.677  21.122   4.152
70791W        W34559  22.097  21.189   1.391
70792W        W34560  24.000  35.047   1.791
70793W        W34561  37.069   0.948   2.404
70794W        W34562  36.981  11.368  11.922
70795W        W34563   5.333  43.999   2.809
70796W        W34564  34.889  30.027   4.344
70797W        W34565  41.043  10.382   4.835
70798W        W34566   6.200  22.189   1.869
70799W        W34567  24.168  31.973  12.442
70800W        W34568  24.576   0.434   1.358
70801W        W34569  27.610  31.484  12.934
70802W        W34570  35.946  13.684  11.984
70803W        W34571  14.777  32.982  14.852
70804W        W34572   8.738  22.732   3.814
70805W        W34573  15.317  22.152   2.715
70806W        W34574  22.096  21.685  14.992
70807W        W34575  38.007  26.543   1.415
70808W        W34576  13.291  17.203   1.802
70809W        W34577  38.880   6.236  10.948
70810W        W34578   9.204  16.625  14.468
70811W        W34579  40.359  42.786  14.973
70812W        W34580  23.592   8.704  13.820
70813W        W34581   9.869   6.748   0.949
70814W        W34582  37.936  25.157  14.453
70815W        W34583  43.924   7.406  11.475
70816W        W34584  37.044  41.820  10.570
70817W        W34585  16.671  25.613   2.304
70818W        W34586  36.937  20.252   0.407
70819W        W34587  17.704  25.497   0.253
70820W        W34588  41.463  39.869   1.754
70821W        W34589  41.381  13.701  11.127
70822W        W34590  33.573   3.441  13.889
70823W        W34591   4.340  41.410  13.530
70824W        W34592  17.616  36.933   3.802
70825W        W34593  12.313   9.151   4.640
70826W        W34594  41.024  32.444  10.531
70827W        W34595  41.472   2.942  13.314
70828W        W34596   9.282  18.592   2.398
70829W        W34597  23.201  15.129   1.712
70830W        W34598   3.362  36.569   0.266
70831W        W34599  14.293   5.765   3.652
70832W        W34600  20.247  31.405   2.360
70833W        W34601  42.895  36.438   1.335
70834W        W34602  18.211  31.938  12.547
70835W        W34603   0.356  36.482  12.446
70836W        W34604  21.699  36.349   3.775
70837W        W34605  24.005  41.409   2.304
70838W        W34606  34.908  35.072  11.042
70839W        W34607  34.929  17.672  12.893
70840W        W34608  22.161  21.582   2.719
70841W        W34609  24.658  28.159  14.024
70842W        W34610  19.609  24.686  12.493
70843W        W34611  10.864  19.108   2.761
70844W        W34612  16.636  44.830   2.683
70845W        W34613  18.594  24.681  12.474
70846W        W34614  26.195  15.279   2.709
70847W        W34615   4.874  42.320   4.210
70848W        W34616   5.344  19.121   1.758
70849W        W34617   1.346   9.197   1.838
70850W        W34618  29.476  26.497   3.804
70851W        W34619  15.764  26.479   4.209
70852W        W34620  16.795  28.935   0.792
70853W        W34621  32.937  24.682  12.096
70854W        W34622  21.580  12.834   0.880
70855W        W34623   0.252  15.268  10.431
70856W        W34624   3.733  35.919   3.263
70857W        W34625  16.271   8.693   2.745
70858W        W34626  19.666  39.935   4.626
70859W        W34627  10.208  27.979   0.335
70860W        W34628  28.140  30.471  12.850
70861W        W34629  23.691   4.394   4.623
70862W        W34630  44.291  44.894  11.412
70863W        W34631  27.511  31.975  10.498
70864W        W34632  23.603  42.368   2.199
70865W        W34633   5.871   3.263   0.332
70866W        W34634  28.008  42.797  11.591
70867W        W34635   0.810  26.469   4.198
70868W        W34636  18.175  31.904   4.133
70869W        W34637  41.832  26.182   1.388
70870W        W34638  14.679  16.267  14.019
70871W        W34639  33.987  42.954  11.034
70872W        W34640  41.349   7.407  10.586
70873W        W34641  28.577  29.128  11.951
70874W        W34642  33.038  40.476  14.444
70875W        W34643  26.175  19.256   0.405
70876W        W34644  24.557   9.252  11.460
70877W        W34645   8.294  29.054   4.320
70878W        W34646  35.069   1.387  11.431
70879W        W34647  41.891  41.423   4.159
70880W        W34648  38.389   5.336  13.945
70881W        W34649   3.433  20.072   2.315
70882W        W34650  14.620  29.122  12.444
70883W        W34651  32.109  27.560   0.430
70884W        W34652  39.321  31.523   5.246
70885W        W34653   8.396  31.996   3.663
70886W        W34654  35.052   4.441   2.755
70887W        W34655  41.487   7.286  14.803
70888W        W34656  27.013  37.067   3.825
70889W        W34657  21.086  34.013   9.515
70890W        W34658  35.476  24.158  10.595
70891W        W34659   4.917  34.067  10.121
70892W        W34660  31.409  36.032   2.804
70893W        W34661  23.523  28.651  13.320
70894W        W34662  28.597  21.199  12.854
70895W        W34663  40.360  21.643   0.865
70896W        W34664  12.663  42.468  10.522
70897W        W34665   5.869   9.289  11.382
70898W        W34666  36.004   4.221   0.440
70899W        W34667  12.740  24.065  14.936
70900W        W34668  29.075  40.425   1.343
70901W        W34669  33.504  29.990   1.248
70902W        W34670  27.684  20.561   0.762
70903W        W34671  32.020  20.645  11.892
70904W        W34672   3.886  21.260  14.426
70905W        W34673  44.817   0.804  14.501
70906W        W34674  29.662  34.038   3.218
70907W        W34675  32.396  44.814   0.750
70908W        W34676  12.831   3.306   4.732
70909W        W34677   8.384  14.778  10.616
70910W        W34678  32.048  43.835   3.165
70911W        W34679  11.705   2.293   1.773
70912W        W34680  19.556  41.834  13.793
70913W        W34681  41.442  36.432   3.284
70914W        W34682  15.756   9.761   3.720
70915W        W34683   8.394  43.319  13.482
70916W        W34684  37.998   3.805   2.809
70917W        W34685  16.214  19.279   5.095
70918W        W34686  32.621  18.776   2.704
70919W        W34687  18.560  28.949   4.597
70920W        W34688  21.607  43.392  12.405
70921W        W34689   5.369  34.061  14.994
70922W        W34690  11.305  20.754   4.288
70923W        W34691  14.635  14.299   3.702
70924W        W34692  39.977  31.622   1.900
70925W        W34693  38.965  40.956   1.280
70926W        W34694   5.795  33.994  10.608
70927W        W34695  23.533  34.369  12.430
70928W        W34696  39.974  42.485  14.360
70929W        W34697  42.452  41.487  10.957
70930W        W34698  41.006  20.183  10.485
70931W        W34699   4.814  37.573   0.419
70932W        W34700  24.700  28.995   2.205
70933W        W34701  21.555  10.358   2.369
70934W        W34702  16.651   1.423  14.876
70935W        W34703   0.969  38.875   1.873
70936W        W34704  17.263  20.040  10.472
70937W        W34705  38.515  41.452  13.823
70938W        W34706  28.507   6.336  12.952
70939W        W34707   0.944  31.487   0.730
70940W        W34708   0.342  31.576  14.430
70941W        W34709   7.764  31.509   2.683
70942W        W34710  21.147  28.473   1.843
70943W        W34711   2.805   0.842   4.728
70944W        W34712  43.963   8.190   4.236
70945W        W34713   2.468   1.246  14.997
70946W        W34714  30.033  29.940  10.568
70947W        W34715  26.981  20.562   0.818
70948W        W34716  38.878  40.372  13.509
70949W        W34717  14.171  20.728   3.332
70950W        W34718  31.060  35.441   3.718
70951W        W34719  15.163  41.915  11.602
70952W        W34720  32.940   6.904   1.772
70953W        W34721  27.556  13.256   0.248
70954W        W34722  31.497  22.144   4.632
70955W        W34723   6.184  21.747  13.820
70956W        W34724  33.530   8.177  10.476
70957W        W34725  31.645  32.973   2.327
70958W        W34726  39.900  34.892   2.337
70959W        W34727  11.846  25.673   4.290
70960W        W34728   9.258  33.041  11.902
70961W        W34729  18.136  17.795  12.340
70962W        W34730   3.772   4.268  11.464
70963W        W34731   1.797   9.374   0.279
70964W        W34732  29.116   2.749  14.861
70965W        W34733  28.591  22.603  11.129
70966W        W34734  43.321  42.893   4.265
70967W        W34735  19.243  12.764  14.813
70968W        W34736   2.878   5.402   1.921
70969W        W34737   1.736  20.720   1.706
70970W        W34738   6.363  11.644  11.039
70971W        W34739  18.081  19.620   1.328
70972W        W34740  24.147  11.369   1.238
70973W        W34741   9.240  18.276  12.014
70974W        W34742  41.955  18.122  13.411
70975W        W34743  28.664  25.032   0.951
70976W        W34744  24.094   3.926   1.908
70977W        W34745  20.172   6.884   2.365
70978W        W34746   4.422   5.814   2.276
70979W        W34747  14.817  18.634   2.726
70980W        W34748   3.358  20.532   1.266
70981W        W34749  44.836  16.800   0.372
70982W        W34750  13.287  31.991   3.649
70983W        W34751  20.571   6.237  10.576
70984W        W34752  18.783   3.712   3.837
70985W        W34753  23.628   3.346   3.682
70986W        W34754  16.210  34.943  10.051
70987W        W34755  38.371  16.592   0.324
70988W        W34756  33.954  28.983   3.655
70989W        W34757  30.435  22.060  13.062
70990W        W34758  13.190  26.126   2.880
70991W        W34759  25.712  20.203   2.237
70992W        W34760  30.460   4.380  12.361
70993W        W34761  29.005  19.223  11.932
70994W        W34762  23.652  15.201  14.775
70995W        W34763  31.632  14.136  12.929
70996W        W34764  17.149  26.978   2.896
70997W        W34765  34.494   5.375   4.723
70998W        W34766   8.299  37.052  11.050
70999W        W34767  15.211   1.259   2.356
71000W        W34768  39.872  40.528   4.803
71001W        W34769   7.836  44.856   4.727
71002W        W34770  14.206  37.013  11.989
71003W        W34771  13.255  35.882  12.912
71004W        W34772  14.099   3.835  13.014
71005W        W34773  11.657  17.772  12.087
71006W        W34774  38.037  21.612  12.478
71007W        W34775   1.863  22.610  11.021
71008W        W34776   0.954   3.736   1.863
71009W        W34777  32.011  18.237  11.946
71010W        W34778  16.799  28.104   3.341
71011W        W34779   2.247  42.911  12.358
71012W        W34780  12.121  10.809  10.644
71013W        W34781  41.943  23.570   0.330
71014W        W34782   9.201   3.290   1.924
71015W        W34783  33.537  23.527  13.394
71016W        W34784  42.450  13.303  13.314
71017W        W34785  18.168  15.194  14.454
71018W        W34786  30.571  32.547   3.813
71019W        W34787  26.143  13.175   0.246
71020W        W34788   7.679  18.280   3.678
71021W        W34789  35.067   8.672  10.939
71022W        W34790  20.557  40.807  11.036
71023W        W34791  26.019  28.176   4.727
71024W        W34792  42.449   9.206   3.776
71025W        W34793  33.010   8.797  13.491
71026W        W34794  44.793  10.378   9.969
71027W        W34795  41.503  43.782   1.377
71028W        W34796  36.880  15.611  12.359
71029W        W34797  35.877  31.411  11.497
71030W        W34798   2.302   9.238  11.437
71031W        W34799  23.012  43.009  14.896
71032W        W34800   3.318  25.168   4.162
71033W        W34801  33.410   7.302   4.819
71034W        W34802  32.137  28.164  12.469
71035W        W34803   4.335  20.640   1.273
71036W        W34804  26.118   2.230  10.487
71037W        W34805  35.372  17.140   5.247
71038W        W34806  27.603   2.362   4.190
71039W        W34807  24.560  23.205   1.773
71040W        W34808  21.181  27.192  14.356
71041W        W34809  26.466  20.608  13.455
71042W        W34810   5.416  36.019   0.365
71043W        W34811  11.626  26.101   3.656
71044W        W34812  30.007  30.442   1.287
71045W        W34813  34.396  24.565   4.794
71046W        W34814  36.510  35.987   1.280
71047W        W34815   8.688   9.765  10.513
71048W        W34816  19.254   6.840  11.879
71049W        W34817  16.678  31.592  12.567
71050W        W34818  15.239  36.863   0.446
71051W        W34819  30.162  40.956  10.914
71052W        W34820  29.097  39.334  10.957
71053W        W34821  14.130  12.144   0.352
71054W        W34822  27.967  39.488  12.460
71055W        W34823   3.457   3.338   1.793
71056W        W34824  33.953  33.906  13.961
71057W        W34825  41.328  40.805  10.497
71058W        W34826  13.761  44.772  13.536
71059W        W34827  41.456  24.548   1.403
71060W        W34828  23.706  20.669  13.929
71061W        W34829  41.529  25.560  10.957
71062W        W34830  15.641   4.821  13.519
71063W        W34831  27.184  24.501  11.473
71064W        W34832  42.414  30.487  11.490
71065W        W34833   5.332  13.794   4.292
71066W        W34834  21.221  14.196   2.229
71067W        W34835  44.989   4.754  14.786
71068W        W34836   5.348  21.108   4.838
71069W        W34837  11.200  29.137  10.950
71070W        W34838  26.156   6.254   1.799
71071W        W34839  20.604  32.898   4.233
71072W        W34840  29.570  27.963  14.439
71073W        W34841  40.449  26.457  10.623
71074W        W34842  32.531  17.092   3.802
71075W        W34843   2.785  22.248  12.978
71076W        W34844  31.053   6.813  11.079
71077W        W34845  17.263  33.511  12.991
71078W        W34846  43.329  21.034   4.641
71079W        W34847  44.324   3.724   4.797
71080W        W34848  25.589  14.184   0.446
71081W        W34849   0.325  26.618   2.364
71082W        W34850  35.022  36.868  13.486
71083W        W34851   6.206  30.517   1.891
71084W        W34852  13.656  42.868  10.567
71085W        W34853  22.033  23.207   1.393
71086W        W34854  33.463  29.513  11.978
71087W        W34855  43.406   8.340   4.234
71088W        W34856  20.089  29.065   1.750
71089W        W34857  44.812  20.176   2.819
71090W        W34858   6.870  20.249   0.966
71091W        W34859  15.642  14.193   4.176
71092W        W34860  13.310  33.523  13.430
71093W        W34861   8.200  27.984  12.096
71094W        W34862  29.991  17.087   1.360
71095W        W34863  41.887  34.893  14.915
71096W        W34864  34.389  39.402   4.676
71097W        W34865  23.041   0.763  11.900
71098W        W34866  39.875   2.404   0.808
71099W        W34867  25.141  41.909   4.659
71100W        W34868  20.672  17.652   1.805
71101W        W34869  11.750  12.193   3.811
71102W        W34870  31.414  18.655   0.407
71103W        W34871  12.719  37.932   1.780
71104W        W34872  15.145  39.446  14.846
71105W        W34873  36.866   8.210   0.375
71106W        W34874  34.553  10.384   0.942
71107W        W34875   8.295  41.890   2.182
71108W        W34876  24.658  18.155  13.474
71109W        W34877  39.053  21.596   1.848
71110W        W34878  14.116  44.784   0.967
71111W        W34879  36.996  34.514  11.882
71112W        W34880   5.330   3.456  14.512
71113W        W34881  41.866  19.145  12.475
71114W        W34882  36.460  39.924  12.446
71115W        W34883  11.791   1.854   1.701
71116W        W34884  27.068  42.322  10.973
71117W        W34885   0.979  10.736  10.617
71118W        W34886  23.509  20.193  12.078
71119W        W34887  13.753  19.728  11.977
71120W        W34888  21.646   6.188  10.575
71121W        W34889  14.285   1.821  14.032
71122W        W34890   4.398  33.394   0.308
71123W        W34891  28.030  27.018  11.075
71124W        W34892   1.304  12.154   4.154
71125W        W34893   8.164   9.297   1.360
71126W        W34894   2.456  15.664   0.777
71127W        W34895   6.710  14.663  10.593
71128W        W34896  24.579  10.702  12.933
71129W        W34897  20.041  15.776   1.878
71130W        W34898  11.653  20.028  13.324
71131W        W34899  28.023  12.688  12.006
71132W        W34900  28.517  22.554   0.727
71133W        W34901  24.149  32.958   2.416
71134W        W34902  33.110   2.831   4.766
71135W        W34903  23.686  32.410  13.839
71136W        W34904  17.179  25.990  14.864
71137W        W34905  11.685  33.051   3.773
71138W        W34906  15.223  24.193   3.251
71139W        W34907  17.072  26.065   3.295
71140W        W34908  26.702  43.285   5.237
71141W        W34909  13.763  18.124   0.314
71142W        W34910  16.663  23.156   1.737
71143W        W34911  25.553  14.731   1.274
71144W        W34912  42.512  15.643  12.911
71145W        W34913  32.030  32.579  11.387
71146W        W34914  13.684  21.030  13.983
71147W        W34915  17.264  10.831   0.766
71148W        W34916  43.413  22.053  14.772
71149W        W34917  34.076  25.576  13.542
71150W        W34918  21.699  35.604  14.892
71151W        W34919  28.003  29.634  10.900
71152W        W34920  12.743  13.700   1.717
71153W        W34921  39.816  25.972   3.356
71154W        W34922  39.429   5.242  14.318
71155W        W34923  13.722  12.830   4.691
71156W        W34924  19.117   0.890   1.447
71157W        W34925  33.484  19.658  13.407
71158W        W34926  25.477  39.990  14.402
71159W        W34927  27.150  39.384  14.814
71160W        W34928   4.333   3.439   4.135
71161W        W34929  40.953  23.736  14.839
71162W        W34930  16.663  44.344  14.792
71163W        W34931  35.946  24.638  11.073
71164W        W34932   0.365   8.333   2.368
71165W        W34933  24.701  33.599  14.925
71166W        W34934  21.586  27.123   1.428
71167W        W34935  11.725  30.162   3.359
71168W        W34936  16.291  23.169   1.873
71169W        W34937  20.660  34.039   2.697
71170W        W34938  36.545   6.767   3.153
71171W        W34939  38.954   2.413   0.323
71172W        W34940  27.161  42.780  11.455
71173W        W34941  30.445  41.383  12.044
71174W        W34942   6.290  17.293   0.462
71175W        W34943  15.248  16.258  14.446
71176W        W34944  13.299  13.839  12.480
71177W        W34945  20.614  34.567   1.271
71178W        W34946  15.275  29.953  11.089
71179W        W34947  18.760   4.412   3.272
71180W        W34948  36.852  11.640  11.955
71181W        W34949   5.872  23.594   4.760
71182W        W34950  11.180  42.327   2.262
71183W        W34951  40.483  14.701   3.861
71184W        W34952  10.279  11.742   4.683
71185W        W34953   5.366  10.835  13.813
71186W        W34954   5.205  39.020   1.420
71187W        W34955  32.041  28.541  12.947
71188W        W34956  34.074   8.727  10.971
71189W        W34957   7.214   8.769  10.986
71190W        W34958   8.724  27.690  13.997
71191W        W34959  30.615  27.053   4.652
71192W        W34960  35.536   0.429   4.327
71193W        W34961  32.900  15.750   3.672
71194W        W34962   9.219  39.387   0.284
71195W        W34963  33.913  15.682  13.829
71196W        W34964  20.038  14.595  13.540
71197W        W34965  19.712  23.163  13.447
71198W        W34966  21.538  20.068   4.145
71199W        W34967  41.394  28.056  13.323
71200W        W34968  25.631  38.945  14.948
71201W        W34969   7.724  24.994   3.758
71202W        W34970  15.701  12.148  11.484
71203W        W34971  35.868  39.551  13.398
71204W        W34972  27.611  35.547   3.722
71205W        W34973  28.108  37.836   2.342
71206W        W34974  22.627  20.240   1.698
71207W        W34975  13.200  24.200  10.934
71208W        W34976  33.508  39.323  14.300
71209W        W34977   3.735  37.960  14.338
71210W        W34978  14.829  40.948  13.332
71211W        W34979   6.862  24.722  12.925
71212W        W34980  32.455  41.998   1.912
71213W        W34981  34.986  14.659   0.749
71214W        W34982  14.177  35.954   3.346
71215W        W34983  22.566  40.322  14.874
71216W        W34984  22.172  15.755   4.158
71217W        W34985  43.893  16.247   0.366
71218W        W34986  27.530  13.288  11.578
71219W        W34987   5.260  31.996  10.608
71220W        W34988  38.992  18.201  14.299
71221W        W34989   7.799  18.207  13.987
71222W        W34990  12.671  31.914   1.294
71223W        W34991  37.518  20.186   5.246
71224W        W34992   5.413  16.598  13.049
71225W        W34993  20.648  10.384   4.780
71226W        W34994  44.808  42.874   1.271
71227W        W34995  24.646   4.767   2.894
71228W        W34996  20.650   1.449   3.280
71229W        W34997  43.479  12.747  14.784
71230W        W34998   4.773   0.872  10.035
71231W        W34999  14.132  22.692   2.896
71232W        W35000  22.231  19.116   1.730
71233W        W35001  44.385  33.500  14.386
71234W        W35002  17.584  42.937  11.408
71235W        W35003  37.443  26.523   3.190
71236W        W35004   2.761  22.147  13.320
71237W        W35005  13.751  17.290  13.424
71238W        W35006  28.645  24.633   0.869
71239W        W35007  14.257  21.180  10.939
71240W        W35008  39.986  13.726   4.742
71241W        W35009   6.778  38.453  11.515
71242W        W35010  41.481  19.758  11.098
71243W        W35011  13.687   9.700   2.335
71244W        W35012  34.564  38.513   2.754
71245W        W35013  11.670   8.763  14.798
71246W        W35014  26.528  34.958  11.576
71247W        W35015  20.238  26.514   1.716
71248W        W35016  21.512   4.391   4.175
71249W        W35017  19.243  18.731  14.483
71250W        W35018   7.839  26.062   0.799
71251W        W35019  18.762  32.471   3.353
71252W        W35020  25.208   7.279  11.900
71253W        W35021  40.351  22.736   3.733
71254W        W35022  11.153  39.346   4.146
71255W        W35023  34.425  29.628   2.410
71256W        W35024  41.907  18.101   2.415
71257W        W35025  31.587  40.430   2.180
71258W        W35026  14.174  41.011   3.736
71259W        W35027   8.177  19.703   2.889
71260W        W35028  32.131  33.459   0.829
71261W        W35029   9.293  29.634  13.322
71262W        W35030  18.181  42.799   2.365
71263W        W35031  26.124  13.810   0.418
71264W        W35032  18.139  35.434   0.324
71265W        W35033  30.159  13.740   0.751
71266W        W35034   6.295  24.127  11.910
71267W        W35035   7.666   2.920  11.093
71268W        W35036  35.076  31.508  14.785
71269W        W35037  32.450   8.871   3.218
71270W        W35038  23.232  14.708  11.117
71271W        W35039  12.157   8.391   0.250
71272W        W35040  11.140  23.665  12.342
71273W        W35041  17.156  35.925   1.268
71274W        W35042   1.874  44.876  12.055
71275W        W35043  19.697  35.019  14.005
71276W        W35044  29.044  12.348   1.776
71277W        W35045   6.371  15.732   5.283
71278W        W35046  23.508  15.663   0.727
71279W        W35047  26.620  30.980   4.184
71280W        W35048   9.375   4.338  13.887
71281W        W35049  24.690   4.734  11.405
71282W        W35050   4.345   9.701  12.343
71283W        W35051   5.382   2.955  12.377
71284W        W35052  16.132  23.035  10.961
71285W        W35053  44.372  23.664  13.536
71286W        W35054   7.688  13.111  10.975
71287W        W35055  18.257  32.888  13.876
71288W        W35056   7.754   5.340  14.811
71289W        W35057  38.483   1.369   3.811
71290W        W35058   1.749  15.149   0.818
71291W        W35059   7.769  34.512   3.797
71292W        W35060  42.971  24.589   0.394
71293W        W35061   5.283   0.785   1.759
71294W        W35062  28.521   1.839   0.293
71295W        W35063  18.096   2.382  10.949
71296W        W35064  34.451  40.896  13.834
71297W        W35065  35.023  24.621   4.762
71298W        W35066  11.246  22.691   4.814
71299W        W35067  21.195  41.869   1.431
71300W        W35068  35.904  33.423  13.914
71301W        W35069  44.882  31.055   1.402
71302W        W35070  40.884  36.996  12.406
71303W        W35071  23.623  26.664   0.281
71304W        W35072  31.056   5.224   1.318
71305W        W35073   5.419  17.300   0.907
71306W        W35074   9.679   4.894   2.278
71307W        W35075  32.459  29.511  10.081
71308W        W35076  42.933  37.504  11.045
71309W        W35077  37.038  18.787  10.998
71310W        W35078  23.986  17.694  12.093
71311W        W35079  21.633   6.391  14.760
71312W        W35080  15.669  24.641   0.352
71313W        W35081   1.790  35.423  13.049
71314W        W35082   2.245  16.580   3.763
71315W        W35083  42.851  36.890   2.780
71316W        W35084  13.285  32.972  12.551
71317W        W35085  16.622  27.604   5.112
71318W        W35086  30.930   7.764  14.999
71319W        W35087  28.457  17.659  11.019
71320W        W35088   1.379  25.590  14.461
71321W        W35089  22.105   7.905   2.790
71322W        W35090  15.158  11.853   0.847
71323W        W35091  43.900  42.339  14.309
71324W        W35092   9.798   6.905  11.581
71325W        W35093  19.750  19.165  14.282
71326W        W35094   4.352  10.204  12.847
71327W        W35095  31.120  28.639   1.919
71328W        W35096  23.115  33.478   4.243
71329W        W35097  21.017  41.460  13.452
71330W        W35098  15.796   3.452  13.826
71331W        W35099  23.006  30.073   4.324
71332W        W35100  31.463  36.082  11.507
71333W        W35101   5.230  33.973  11.905
71334W        W35102  21.718  13.844  12.374
71335W        W35103  42.411  22.731   1.310
71336W        W35104   6.408  27.481   2.297
71337W        W35105   0.947  41.359  10.095
71338W        W35106  18.206  30.018  14.761
71339W        W35107  13.700  12.339   1.764
71340W        W35108  10.259  23.676   3.813
71341W        W35109  21.551  36.436   0.852
71342W        W35110  43.470   8.188  14.408
71343W        W35111  13.832  36.867   4.701
71344W        W35112   0.966   1.414  12.378
71345W        W35113  11.137  20.706   0.792
71346W        W35114  38.941  37.037   3.826
71347W        W35115  44.797  26.693   1.816
71348W        W35116  22.099  18.172  14.480
71349W        W35117  12.283   5.687  13.375
71350W        W35118  12.822  29.997   2.296
71351W        W35119  36.957   9.829   0.966
71352W        W35120   6.242  19.170   4.731
71353W        W35121  19.075   0.422   3.194
71354W        W35122  28.628  11.686  12.439
71355W        W35123   4.335  34.546   0.751
71356W        W35124  22.603  36.529   1.390
71357W        W35125  35.019  33.417   2.260
71358W        W35126  17.558  25.573   1.402
71359W        W35127  11.689  40.927  13.346
71360W        W35128  25.064  11.628  13.444
71361W        W35129  30.413  16.715   0.354
71362W        W35130  41.292   2.941   2.749
71363W        W35131  14.157  13.683   0.825
71364W        W35132  43.495   1.302   1.413
71365W        W35133   1.793  16.717   1.414
71366W        W35134  43.960  13.811   1.428
71367W        W35135  41.511  27.166  11.575
71368W        W35136  29.027  35.558   1.337
71369W        W35137  34.993  38.960   2.286
71370W        W35138  14.780  44.344  12.915
71371W        W35139  31.971  23.122   3.827
71372W        W35140  12.848  28.578   0.281
71373W        W35141  18.746  31.115  13.426
71374W        W35142  24.134   5.697   3.825
71375W        W35143  40.506   3.379   9.970
71376W        W35144   6.691   9.276   0.956
71377W        W35145  36.947  39.927  13.360
71378W        W35146  44.974   1.447   1.210
71379W        W35147  11.157  32.462  11.899
71380W        W35148  35.876  30.060   5.132
71381W        W35149   6.348   6.802  14.868
71382W        W35150  11.632  33.092  14.874
71383W        W35151  36.397   8.896  14.001
71384W        W35152  19.094   9.227   3.297
71385W        W35153  35.464  25.467   0.735
71386W        W35154  34.461  30.553  12.880
71387W        W35155  27.046  31.119   0.729
71388W        W35156  38.398  21.261   4.239
71389W        W35157  36.352  26.497  10.493
71390W        W35158  25.075  43.325   0.423
71391W        W35159   9.763  43.960   4.116
71392W        W35160  24.623  17.626  14.940
71393W        W35161  21.247   5.372  14.805
71394W        W35162   6.294  42.026  11.510
71395W        W35163  14.650  19.750   1.826
71396W        W35164  42.466  10.171   2.695
71397W        W35165  37.023  15.679  10.410
71398W        W35166  23.673  28.124  11.870
71399W        W35167   8.386  26.646  13.481
71400W        W35168  16.699  18.081  13.862
71401W        W35169   6.868  22.177  11.033
71402W        W35170   4.769  42.955   3.297
71403W        W35171  35.424  29.035  14.435
71404W        W35172  13.719  25.522  14.938
71405W        W35173   5.916  13.729   0.840
71406W        W35174   3.953  34.120  13.413
71407W        W35175   5.879  15.784   1.833
71408W        W35176   9.669  41.938  13.918
71409W        W35177   2.789  40.539  13.520
71410W        W35178  24.711  40.982   3.380
71411W        W35179   6.866  35.918   3.218
71412W        W35180  36.942  35.576   1.251
71413W        W35181  19.637  21.191   1.276
71414W        W35182  21.253  12.196   3.703
71415W        W35183  41.849  17.269  12.832
71416W        W35184  42.891  31.138   0.367
71417W        W35185  19.043  12.845  12.576
71418W        W35186  19.607  19.050  14.004
71419W        W35187  22.596  38.527   0.456
71420W        W35188  19.075   4.895  13.826
71421W        W35189   7.319  37.548  12.823
71422W        W35190  41.424  39.970  14.853
71423W        W35191   6.355  25.649  13.015
71424W        W35192  42.006  25.580   4.825
71425W        W35193  21.680  19.631  14.477
71426W        W35194  26.187  28.568   0.402
71427W        W35195  19.236   1.803  13.015
71428W        W35196  28.981  10.247  14.979
71429W        W35197  44.939   8.369   0.773
71430W        W35198  20.552  12.262   4.319
71431W        W35199   2.304  21.512   3.277
71432W        W35200  35.938  40.507  12.367
71433W        W35201  37.072  36.394  12.041
71434W        W35202   6.281   3.332   4.348
71435W        W35203   2.447  23.095  12.550
71436W        W35204  35.022   8.378   0.852
71437W        W35205  12.152  19.069  13.417
71438W        W35206  28.530   6.381  14.877
71439W        W35207  14.764  28.022  12.973
71440W        W35208  23.141  31.986  10.566
71441W        W35209  22.144   3.773  11.880
71442W        W35210  16.123  14.611  13.999
71443W        W35211  23.019  14.747   9.980
71444W        W35212   5.929  21.527  14.312
71445W        W35213  15.147  29.169  14.907
71446W        W35214  17.280  14.172   3.370
71447W        W35215   3.261  29.656   5.303
71448W        W35216   4.373  43.988   3.295
71449W        W35217  36.898  32.608   2.410
71450W        W35218  26.027   9.169  12.074
71451W        W35219   4.380   7.364   3.159
71452W        W35220  35.860  32.549   9.946
71453W        W35221  19.765  28.589  11.537
71454W        W35222   2.761  21.530  14.007
71455W        W35223  25.974  10.815   3.364
71456W        W35224  32.069  35.942  10.497
71457W        W35225  37.388   2.880   0.889
71458W        W35226   2.916  11.809  11.115
71459W        W35227  30.026  38.878   4.184
71460W        W35228   8.737  18.581   1.402
71461W        W35229   2.298  40.912   3.227
71462W        W35230  36.436   3.761   0.836
71463W        W35231  38.889  29.475   2.700
71464W        W35232  39.009  14.120   2.755
71465W        W35233  14.759  12.290  11.022
71466W        W35234  30.634   7.246  11.540
71467W        W35235  38.867  14.095   0.426
71468W        W35236  29.108  42.003  14.890
71469W        W35237  24.682  29.609  14.029
71470W        W35238  24.491  35.911  10.929
71471W        W35239  43.852  16.810   3.202
71472W        W35240  19.261  23.698  13.859
71473W        W35241  42.986  38.477   4.195
71474W        W35242  19.192  35.948   2.323
71475W        W35243  38.063  33.607   3.703
71476W        W35244  32.459  28.651  11.069
71477W        W35245   4.743  30.474  12.455
71478W        W35246  39.448   8.211   4.230
71479W        W35247  19.539  30.077  14.327
71480W        W35248  36.360   1.769   0.858
71481W        W35249  44.925  37.537  10.974
71482W        W35250  35.573   4.712  10.422
71483W        W35251   9.851   2.422   2.769
71484W        W35252   6.854  23.694  11.553
71485W        W35253  21.669  18.053   3.663
71486W        W35254  33.422  33.932  11.935
71487W        W35255  38.860   1.449   2.778
71488W        W35256  26.034  36.441  14.352
71489W        W35257  40.436  15.704   0.307
71490W        W35258  34.989  24.103  10.610
71491W        W35259  22.165  36.372  14.481
71492W        W35260  17.153  20.666   4.151
71493W        W35261  25.659  36.008  12.049
71494W        W35262   5.283  26.048  12.009
71495W        W35263  11.253  19.749  10.609
71496W        W35264  38.548   6.244   1.777
71497W        W35265  42.962  20.736   1.274
71498W        W35266  12.251  38.980   2.264
71499W        W35267  25.010  24.184   2.846
71500W        W35268  44.790   7.320  11.883
71501W        W35269  41.005  40.910   2.296
71502W        W35270  10.229  33.582  12.454
71503W        W35271   3.270  26.015   2.757
71504W        W35272  17.727  38.507  13.366
71505W        W35273   0.794  31.563  14.023
71506W        W35274  21.674  20.762   3.766
71507W        W35275   6.680  14.594   4.689
71508W        W35276  26.598  28.507  12.053
71509W        W35277  26.031   2.785   4.318
71510W        W35278  15.592  14.221   5.197
71511W        W35279   1.888   5.334  14.810
71512W        W35280  39.411  12.775  12.006
71513W        W35281  25.029  44.963  13.327
71514W        W35282  35.590  11.233   0.900
71515W        W35283  31.057  40.911  11.880
71516W        W35284   2.778  30.123  11.596
71517W        W35285  12.631   4.924  10.914
71518W        W35286  30.020   1.335   1.721
71519W        W35287   9.150  41.344   2.874
71520W        W35288  18.593  24.995   2.241
71521W        W35289  27.172   7.308  12.349
71522W        W35290  40.471  40.548   4.270
71523W        W35291  24.615  42.305   2.199
71524W        W35292  17.783  21.114  14.353
71525W        W35293  33.977  28.061   4.181
71526W        W35294  11.240   7.785  13.977
71527W        W35295  28.632  38.440   3.348
71528W        W35296  40.010  35.601  12.876
71529W        W35297  37.504  42.886   2.237
71530W        W35298   3.460  29.162   4.629
71531W        W35299  29.459   5.236  10.450
71532W        W35300  21.662  29.015  12.542
71533W        W35301  40.866  18.765  12.510
71534W        W35302  23.573  30.429   2.695
71535W        W35303   2.273  32.612   3.298
71536W        W35304  43.865   0.250   0.854
71537W        W35305   7.766  16.179   3.663
71538W        W35306  27.053   6.834  13.367
71539W        W35307  12.276  27.533   0.427
71540W        W35308  15.188  15.275  11.083
71541W        W35309  18.070  12.267   3.202
71542W        W35310  33.385  35.048  12.986
71543W        W35311   2.271  24.691   3.255
71544W        W35312   8.329  26.020   2.213
71545W        W35313  16.294  23.538  14.375
71546W        W35314   8.706  34.062   2.378
71547W        W35315  11.356  22.608  14.832
71548W        W35316  24.609  44.425   1.386
71549W        W35317  10.738  36.865   3.249
71550W        W35318  17.599  12.687   4.728
71551W        W35319  25.104  15.315   4.647
71552W        W35320  37.413  43.780   2.312
71553W        W35321  39.842  32.945  12.825
71554W        W35322   2.894  20.740  11.887
71555W        W35323  23.018   9.746   1.807
71556W        W35324   9.678   5.369  10.636
71557W        W35325  15.113  27.163   2.724
71558W        W35326  22.125  23.987   3.176
71559W        W35327  25.127   0.906   0.410
71560W        W35328   6.739  16.656   2.252
71561W        W35329  18.237  30.934   9.994
71562W        W35330  32.403  18.258  13.421
71563W        W35331  41.871   1.942  11.426
71564W        W35332   4.912  27.082   1.752
71565W        W35333  36.496  31.616   5.204
71566W        W35334  14.800  32.928   4.765
71567W        W35335  24.206  20.169  14.806
71568W        W35336  39.009   7.857   0.330
71569W        W35337  35.523  21.540   0.257
71570W        W35338  17.628  14.165   4.780
71571W        W35339  16.171  40.829  13.809
71572W        W35340  43.361  35.900  10.012
71573W        W35341  13.623  27.020   4.248
71574W        W35342  24.654  36.366   4.131
71575W        W35343   2.254  21.045   2.875
71576W        W35344  23.234  39.426  10.598
71577W        W35345  26.650  16.659   3.205
71578W        W35346   1.890  32.928   4.772
71579W        W35347  27.504  30.098   2.323
71580W        W35348  42.370  34.949  14.835
71581W        W35349  34.000  29.170  14.338
71582W        W35350  34.593  42.390  13.005
71583W        W35351  23.160  35.403   0.403
71584W        W35352  44.782   9.327   2.663
71585W        W35353  23.523  36.887   2.244
71586W        W35354  17.756  30.148   0.896
71587W        W35355   8.344  30.528  14.413
71588W        W35356  16.619   6.187   3.346
71589W        W35357  44.306  27.471   0.257
71590W        W35358  24.584  37.418   1.922
71591W        W35359  28.066  28.460   0.889
71592W        W35360  40.446  36.569   2.696
71593W        W35361  29.924  32.991  14.321
71594W        W35362  11.160   4.418  10.546
71595W        W35363  37.040   2.330  14.903
71596W        W35364  22.061   5.934  11.008
71597W        W35365  34.061  25.084   4.630
71598W        W35366  41.459  37.944  10.556
71599W        W35367  32.544  33.898   2.249
71600W        W35368  37.960  29.949  11.072
71601W        W35369  12.810  12.815   4.189
71602W        W35370  44.808  22.099  13.499
71603W        W35371   1.328  27.546   4.345
71604W        W35372  35.574  13.141  11.097
71605W        W35373   7.368  34.526   0.287
71606W        W35374  40.815   4.295   2.822
71607W        W35375  25.041  30.952   1.755
71608W        W35376  29.583  18.654   0.926
71609W        W35377  16.210  34.463  12.848
71610W        W35378  21.577   7.719   1.725
71611W        W35379   5.207  42.473   1.720
71612W        W35380  25.981  15.132  10.632
71613W        W35381  22.179  20.045  11.932
71614W        W35382  23.116  23.045  14.497
71615W        W35383   1.335  41.347   3.320
71616W        W35384   3.713  22.601  13.319
71617W        W35385   6.904  40.530   1.863
71618W        W35386  41.019  12.283  14.954
71619W        W35387  38.022  42.999  12.401
71620W        W35388  27.175  22.042  13.391
71621W        W35389   6.867  23.505   4.749
71622W        W35390   8.843  15.269   0.753
71623W        W35391  23.608  41.480   3.209
71624W        W35392   9.233  39.827  12.340
71625W        W35393  18.786  11.171   1.908
71626W        W35394   1.756  42.282  11.411
71627W        W35395  32.409  35.879  11.955
71628W        W35396  34.948  22.561   2.297
71629W        W35397  38.897  42.818  12.887
71630W        W35398   5.775  26.079   3.840
71631W        W35399  31.408  17.795  13.984
71632W        W35400   5.827   4.384   0.387
71633W        W35401  32.520  28.938   2.773
71634W        W35402  11.666  35.566  11.058
71635W        W35403  19.629   6.794   2.215
71636W        W35404  38.893  41.438  14.318
71637W        W35405   5.412  18.132  12.424
71638W        W35406  11.728   3.344   1.415
71639W        W35407  41.793  13.149   1.223
71640W        W35408  36.909  18.702  14.778
71641W        W35409  20.539  32.409  14.515
71642W        W35410   7.872  28.565  13.845
71643W        W35411   8.856  13.759  14.873
71644W        W35412  28.940  11.278  11.444
71645W        W35413  17.071  38.875  13.388
71646W        W35414  35.855  14.176  12.517
71647W        W35415  35.471   2.410  11.510
71648W        W35416  19.195  28.102  12.896
71649W        W35417  39.383  11.238   0.777
71650W        W35418   2.255  41.410   0.275
71651W        W35419  12.663   7.808  13.057
71652W        W35420  40.332  29.533  14.482
71653W        W35421  27.194  23.712  10.414
71654W        W35422  41.395  11.154   3.199
71655W        W35423  14.759   4.383  10.559
71656W        W35424  41.910  34.524   3.833
71657W        W35425   0.303  22.548  14.424
71658W        W35426  20.075  18.171   0.954
71659W        W35427  10.827  38.478   1.316
71660W        W35428   7.268   4.225  11.996
71661W        W35429  10.374  29.045   4.621
71662W        W35430  38.010  21.044   4.320
71663W        W35431  41.800  29.979  14.450
71664W        W35432  11.228  12.223   1.394
71665W        W35433  38.473  21.117   2.363
71666W        W35434  26.208   6.395  10.461
71667W        W35435   3.923  30.503  11.597
71668W        W35436   1.297  18.605   0.752
71669W        W35437   6.389  43.776  11.451
71670W        W35438  29.531  36.573   4.274
71671W        W35439  33.574  23.123   0.773
71672W        W35440  13.844  35.569   4.630
71673W        W35441   3.377  38.959   0.299
71674W        W35442  34.892  21.590   2.308
71675W        W35443   0.403  30.490   2.187
71676W        W35444  41.904  14.829   1.444
71677W        W35445  27.002  20.168   3.809
71678W        W35446  41.793  20.169   1.710
71679W        W35447  24.559  33.962  11.029
71680W        W35448   5.876  36.435  12.055
71681W        W35449  26.019   3.312   4.244
71682W        W35450   4.246  29.523  13.452
71683W        W35451  29.174   0.311   2.709
71684W        W35452  21.063  21.174  14.944
71685W        W35453  43.271  38.996   0.348
71686W        W35454  25.056  36.854   1.746
71687W        W35455  14.669  20.131   1.276
71688W        W35456  44.907  10.710  11.037
71689W        W35457   3.341  33.027  10.614
71690W        W35458   1.281   0.282   0.289
71691W        W35459  20.636  44.336  11.392
71692W        W35460  40.855  13.662   1.809
71693W        W35461  44.338  42.427   1.349
71694W        W35462  30.550  18.073  10.467
71695W        W35463  37.410  10.766   4.771
71696W        W35464  23.993   2.800   0.907
71697W        W35465  32.021  35.929   0.275
71698W        W35466  19.638  33.511   2.815
71699W        W35467  42.835  10.218   0.470
71700W        W35468   7.703  21.031   0.925
71701W        W35469  41.513  21.697   3.844
71702W        W35470  14.270  23.726   0.796
71703W        W35471  17.702  31.489   4.731
71704W        W35472   2.914  21.193   1.292
71705W        W35473  28.945  35.958  13.464
71706W        W35474  32.464  12.697  14.391
71707W        W35475  11.624  39.544   4.219
71708W        W35476  41.294  14.667  11.598
71709W        W35477  15.616  33.023   3.189
71710W        W35478  30.949   2.903   4.308
71711W        W35479  24.657  32.066  14.388
71712W        W35480   9.286   5.693   3.315
71713W        W35481  12.290   2.403   2.203
71714W        W35482  42.796   4.341  13.914
71715W        W35483  40.474  20.134  10.497
71716W        W35484   9.774  31.539  11.537
71717W        W35485  43.291   9.886  14.478
71718W        W35486  35.007  14.592  13.813
71719W        W35487  13.206  34.934   4.730
71720W        W35488   9.176  11.198   1.884
71721W        W35489  11.723  11.769  11.876
71722W        W35490  29.557   4.919   1.264
71723W        W35491  44.403  24.572  10.569
71724W        W35492   9.818   3.950  12.919
71725W        W35493  10.141  40.039   2.206
71726W        W35494   1.451   8.228  14.280
71727W        W35495   9.784   2.234   0.801
71728W        W35496   4.423  12.256  11.444
71729W        W35497  41.960  29.504   0.757
71730W        W35498  25.691  29.928  11.470
71731W        W35499  42.924   7.724  13.042
71732W        W35500   6.245   6.343   3.334
71733W        W35501  41.986  41.391  12.433
71734W        W35502  18.587  37.336   3.220
71735W        W35503  38.003  13.177  14.496
71736W        W35504   4.305   1.244  13.850
71737W        W35505  40.379  37.472   3.839
71738W        W35506   1.290   3.770   3.771
71739W        W35507  36.588  34.053  13.797
71740W        W35508  24.212  43.302  14.391
71741W        W35509   9.645  25.503   3.771
71742W        W35510  35.019  26.206  10.975
71743W        W35511  20.062  13.345  11.460
71744W        W35512  26.180  24.573   1.801
71745W        W35513   8.255   3.933   4.624
71746W        W35514  28.080  20.145   0.914
71747W        W35515  13.241  13.245   0.805
71748W        W35516  42.973  11.279   2.258
71749W        W35517  19.674  12.822   1.835
71750W        W35518  10.260  39.446   2.409
71751W        W35519   8.340  15.771  13.046
71752W        W35520  29.440  30.452  11.535
71753W        W35521  15.206  13.341   5.571
71754W        W35522  15.257  37.542   0.768
71755W        W35523  16.667  12.334   3.802
71756W        W35524   4.424  29.940   2.334
71757W        W35525  32.117   5.316   0.740
71758W        W35526   4.389  26.969  11.414
71759W        W35527  10.138  15.603   4.265
71760W        W35528   8.890  19.226  11.953
71761W        W35529  26.036  11.742   1.435
71762W        W35530  30.539  29.504  11.003
71763W        W35531  38.954  10.671   4.756
71764W        W35532  21.741  23.648  14.407
71765W        W35533  32.935  20.652   2.863
71766W        W35534  25.638  43.973  11.571
71767W        W35535  27.956  30.426   1.870
71768W        W35536  41.511  35.951  11.909
71769W        W35537  38.853  31.610   4.182
71770W        W35538  16.271  35.008  13.450
71771W        W35539  18.769  25.004  13.449
71772W        W35540   8.320  35.390   3.834
71773W        W35541  21.665  34.079   4.646
71774W        W35542  11.735  32.562  11.899
71775W        W35543  42.022  41.894   1.405
71776W        W35544  21.086  29.558   3.325
71777W        W35545  34.069  40.345   2.668
71778W        W35546  36.052   9.208  11.983
71779W        W35547  33.560  17.119  12.557
71780W        W35548  19.179  27.523  10.479
71781W        W35549  19.105  32.085   1.790
71782W        W35550  13.230  30.163   4.699
71783W        W35551  39.971   5.925  11.857
71784W        W35552  38.977  18.209   4.197
71785W        W35553  24.613   7.373  13.024
71786W        W35554   4.228  25.183  10.955
71787W        W35555  18.220  23.695  12.830
71788W        W35556  23.536  32.020  10.533
71789W        W35557  28.165  16.208  14.808
71790W        W35558   3.853   6.689   2.234
71791W        W35559  41.867  44.873   2.861
71792W        W35560  19.160  41.389  14.321
71793W        W35561  30.452  32.465   4.795
71794W        W35562  31.979  31.505   2.828
71795W        W35563  44.917  14.234   4.680
71796W        W35564  29.026  12.168  14.890
71797W        W35565  22.645  43.494  11.116
71798W        W35566  32.932  27.061   0.867
71799W        W35567  14.301   9.280  11.116
71800W        W35568   9.729  36.923   0.819
71801W        W35569  34.052  37.998  14.928
71802W        W35570   6.879  37.028   3.177
71803W        W35571   0.958  41.418   4.165
71804W        W35572  44.926  19.242  12.933
71805W        W35573  13.192  10.206   1.424
71806W        W35574  44.459  43.902   2.294
71807W        W35575  14.209   6.315  10.414
71808W        W35576   4.845   6.749  12.831
71809W        W35577  30.114   9.756   0.907
71810W        W35578  33.105  38.060  14.462
71811W        W35579  44.314   0.883  13.495
71812W        W35580  41.975  28.048   2.404
71813W        W35581  35.420  18.732   1.724
71814W        W35582  33.107  18.195  11.563
71815W        W35583  31.481  31.962  13.414
71816W        W35584   2.774  13.319   1.729
71817W        W35585   8.259  32.612  13.533
71818W        W35586   4.237  21.744  11.411
71819W        W35587  42.489  24.016  14.502
71820W        W35588  13.634   9.196   0.366
71821W        W35589   4.313  44.859  13.346
71822W        W35590  36.974   2.277  12.997
71823W        W35591  22.134  24.119  11.514
71824W        W35592  11.340  14.799  13.525
71825W        W35593  23.158  41.867   0.834
71826W        W35594  43.465  42.489   0.846
71827W        W35595   7.871  35.545   4.652
71828W        W35596  32.066  33.467  14.767
71829W        W35597  10.778  30.428  12.367
71830W        W35598  13.334  32.032   3.374
71831W        W35599  40.376  11.173   0.807
71832W        W35600  44.392  38.832   1.244
71833W        W35601  38.332  38.351  12.096
71834W        W35602  37.433   5.699  11.444
71835W        W35603  42.378  35.085  13.907
71836W        W35604  36.884  34.493  10.964
71837W        W35605  26.577  23.051  10.601
71838W        W35606  40.900  35.869   2.348
71839W        W35607   5.219  19.131  10.554
71840W        W35608  16.594  15.097  11.095
71841W        W35609   2.403  42.825  11.915
71842W        W35610  10.265  16.722  10.889
71843W        W35611   9.711  34.390  10.495
71844W        W35612  32.945  10.772   4.121
71845W        W35613   6.799  42.432   3.151
71846W        W35614   2.444  27.166   1.347
71847W        W35615   3.806  39.063  12.868
71848W        W35616  26.611  35.470   4.127
71849W        W35617  12.211  43.382   4.629
71850W        W35618  41.993  44.817  10.987
71851W        W35619  21.647  39.410  11.579
71852W        W35620  44.836  23.595   2.274
71853W        W35621  15.590   2.729  14.970
71854W        W35622  17.202   3.906  11.467
71855W        W35623  11.759  40.446   3.195
71856W        W35624   4.730  20.590   1.748
71857W        W35625  34.522  40.006   2.412
71858W        W35626  17.129  26.147  14.315
71859W        W35627   0.840  30.469  10.562
71860W        W35628  28.451  15.237  14.875
71861W        W35629  19.712  10.801  14.015
71862W        W35630  44.332  19.573   2.312
71863W        W35631  41.461   8.795   1.838
71864W        W35632  18.230  23.638   3.216
71865W        W35633  42.874  29.108   2.764
71866W        W35634   8.299  29.981   1.316
71867W        W35635  20.525  36.407  12.543
71868W        W35636  32.522  41.035   0.948
71869W        W35637   4.251  22.995  12.826
71870W        W35638  17.264  14.302   2.275
71871W        W35639  25.126  37.068  12.047
71872W        W35640   1.833  13.778  12.516
71873W        W35641  41.829  33.078   4.188
71874W        W35642  42.497  16.650   4.786
71875W        W35643  41.324  40.518   3.696
71876W        W35644  34.068   0.421  11.377
71877W        W35645  25.617  22.588  12.964
71878W        W35646   3.768  33.450   0.438
71879W        W35647  40.306  14.239  12.956
71880W        W35648  32.526  29.447   4.706
71881W        W35649  41.939  29.139   0.383
71882W        W35650   4.371  10.253   3.256
71883W        W35651  41.437   4.362   3.214
71884W        W35652   5.804  32.914   2.821
71885W        W35653  31.531  43.929  12.006
71886W        W35654   5.410  25.528  11.602
71887W        W35655   8.780  18.131   2.305
71888W        W35656   4.924  11.245  11.476
71889W        W35657  32.050  44.810  10.637
71890W        W35658   1.798   3.297  11.082
71891W        W35659  14.730  21.681   0.406
71892W        W35660  43.898  35.543  14.348
71893W        W35661  42.289  41.982   0.254
71894W        W35662  41.488  28.102   1.924
71895W        W35663  20.652  12.296  11.445
71896W        W35664   1.769  13.300  14.294
71897W        W35665  28.955  28.131   1.248
71898W        W35666   7.192  36.903  13.860
71899W        W35667  20.178  38.334  12.996
71900W        W35668  33.508   6.833   2.781
71901W        W35669  28.587  25.061   3.268
71902W        W35670  23.197  31.557  12.955
71903W        W35671  12.775   6.367  13.464
71904W        W35672  14.213   6.845   0.444
71905W        W35673  32.991  19.253  12.060
71906W        W35674   6.380  33.493   4.623
71907W        W35675  41.942  41.824   0.464
71908W        W35676  34.583  36.552   0.841
71909W        W35677  43.430  21.101   0.858
71910W        W35678   9.886  27.055  10.929
71911W        W35679   6.418  42.316  14.989
71912W        W35680  43.306  34.610  13.968
71913W        W35681  21.261  16.303   2.304
71914W        W35682   2.774   6.423   2.718
71915W        W35683  22.233  25.977  10.894
71916W        W35684  35.873  36.951  14.919
71917W        W35685   4.230  34.493   2.192
71918W        W35686  29.134  32.042   0.335
71919W        W35687   8.883  11.713   5.275
71920W        W35688  17.599   6.911   2.215
71921W        W35689  22.626  15.795  11.928
71922W        W35690   7.322  33.572  14.787
71923W        W35691   4.320  21.151   0.421
71924W        W35692  12.179   0.446   3.379
71925W        W35693   1.413   5.332  12.855
71926W        W35694  15.110  10.188  10.547
71927W        W35695   3.434   5.362  14.810
71928W        W35696   3.300   5.249  13.048
71929W        W35697  44.977  24.035  14.488
71930W        W35698  41.437  20.635   3.667
71931W        W35699  24.011  39.516   4.669
71932W        W35700  38.399  34.579   1.883
71933W        W35701  43.775  43.484   3.264
71934W        W35702  19.059  34.449   3.865
71935W        W35703  28.560  19.546  11.086
71936W        W35704  28.046  21.113   0.447
71937W        W35705  18.551  35.578  13.325
71938W        W35706   1.459   1.427  12.499
71939W        W35707  32.060  23.027   1.223
71940W        W35708  17.649   7.717  12.991
71941W        W35709  41.922  29.997   0.445
71942W        W35710  33.433  43.858  10.940
71943W        W35711  11.160  42.997  12.492
71944W        W35712  28.497  26.583   3.739
71945W        W35713  20.537  29.099   3.314
71946W        W35714  41.808  43.823  14.472
71947W        W35715  11.626  23.099   1.350
71948W        W35716  37.501  41.009   3.289
71949W        W35717   6.748  36.933  11.535
71950W        W35718  31.137  25.123   4.337
71951W        W35719  16.655  33.578  11.520
71952W        W35720  30.590   5.786  10.408
71953W        W35721  27.610  15.084  11.596
71954W        W35722  10.668   5.813   4.281
71955W        W35723   1.856  33.984   5.177
71956W        W35724   9.359  29.666  12.471
71957W        W35725  16.183  18.783   3.236
71958W        W35726  37.041  37.914  10.422
71959W        W35727  19.098   8.862  12.441
71960W        W35728  24.164  14.191  10.497
71961W        W35729  31.133  39.398  12.532
71962W        W35730  38.440  23.683   2.689
71963W        W35731  11.210  41.396  11.426
71964W        W35732  21.681  32.063  13.432
71965W        W35733  29.474  21.751   4.796
71966W        W35734   7.893   3.795   4.303
71967W        W35735  25.137  34.536   4.300
71968W        W35736  22.057  21.198  13.434
71969W        W35737  19.633  18.769  11.012
71970W        W35738  24.180  14.805  14.849
71971W        W35739  44.426  28.447   1.275
71972W        W35740  35.053   5.789   4.731
71973W        W35741  13.789  31.911  13.307
71974W        W35742   4.737   0.368  10.565
71975W        W35743  11.757  20.213  10.593
71976W        W35744  15.693  44.283   4.814
71977W        W35745  43.813  36.044  14.902
71978W        W35746  44.775   7.703   4.715
71979W        W35747  31.967  16.150  14.508
71980W        W35748  32.508  32.927  12.926
71981W        W35749  27.670  19.749   1.932
71982W        W35750  13.124   8.833  10.616
71983W        W35751  23.074  28.550  11.915
71984W        W35752  18.667  23.144  14.813
71985W        W35753  15.200  26.984   9.480
71986W        W35754  21.050   1.356  12.563
71987W        W35755  42.941  27.089  14.932
71988W        W35756  30.091  23.099   0.858
71989W        W35757  35.570  33.587   4.200
71990W        W35758  38.862  33.574   3.150
71991W        W35759  37.963  17.723   4.134
71992W        W35760  31.408  23.713   3.715
71993W        W35761  26.046  24.688   3.346
71994W        W35762  37.565  26.964  12.079
71995W        W35763  31.065  35.954   4.139
71996W        W35764  35.922  34.039  14.379
71997W        W35765   0.931  22.681  14.968
71998W        W35766  33.444  22.236  14.784
71999W        W35767   3.423  34.594   2.775
72000W        W35768  25.469  15.625   0.311
72001W        W35769   4.756  34.378   1.306
72002W        W35770  32.116   2.929   1.350
72003W        W35771  21.199  18.558   0.865
72004W        W35772  13.676  35.955   1.284
72005W        W35773  10.285  42.923   3.863
72006W        W35774  38.019  31.564   5.274
72007W        W35775   6.825  38.392  14.816
72008W        W35776   9.335  22.620   1.314
72009W        W35777  28.569  11.843   3.153
72010W        W35778  21.021  25.692  14.417
72011W        W35779  16.205  29.578   2.317
72012W        W35780  41.379  41.489  14.309
72013W        W35781   4.928   1.269  13.873
72014W        W35782  25.474  44.923  10.442
72015W        W35783  18.207  29.925   0.831
72016W        W35784  35.532  10.265   3.176
72017W        W35785  10.812  15.271   0.327
72018W        W35786  16.653  34.906  13.497
72019W        W35787  34.393  41.430   3.804
72020W        W35788  15.732  31.418   0.308
72021W        W35789  14.762  11.732   5.763
72022W        W35790  36.074   3.361   1.330
72023W        W35791  15.697  27.616   4.714
72024W        W35792  11.835   3.866  11.889
72025W        W35793  24.988   0.473   2.770
72026W        W35794  22.561   0.347  11.119
72027W        W35795  34.069  31.470   0.267
72028W        W35796  38.846  42.315   0.448
72029W        W35797  14.791   1.840   5.126
72030W        W35798   2.267  40.501  14.376
72031W        W35799  41.312   5.738  10.948
72032W        W35800  11.218  35.899   2.334
72033W        W35801  13.224   9.272   5.256
72034W        W35802   5.723  18.267   3.354
72035W        W35803  36.851  15.098  10.454
72036W        W35804   5.700  29.972   1.814
72037W        W35805   3.417  31.911   2.680
72038W        W35806  14.810   9.296   3.657
72039W        W35807  17.588  39.037   4.340
72040W        W35808  41.013  19.231  11.913
72041W        W35809  39.461  26.615  12.007
72042W        W35810  10.339  23.644   1.806
72043W        W35811   1.370  14.588   4.282
72044W        W35812  16.176   6.717  12.490
72045W        W35813  17.669   1.290   0.440
72046W        W35814  37.979  42.783  11.887
72047W        W35815   2.365  19.770   0.457
72048W        W35816  22.724  25.085   0.834
72049W        W35817  21.086  10.276   3.306
72050W        W35818   0.972  28.555   3.225
72051W        W35819  22.547   4.721   2.416
72052W        W35820  29.984  41.916   3.204
72053W        W35821   1.328  17.687   3.869
72054W        W35822  23.188  14.173   1.417
72055W        W35823  15.233  27.496   4.668
72056W        W35824  26.045  13.724  14.304
72057W        W35825  16.702  26.168  11.036
72058W        W35826  22.606  23.104  14.370
72059W        W35827  22.098  13.639   5.194
72060W        W35828  28.060  40.406   4.150
72061W        W35829  23.607  22.673   0.841
72062W        W35830  26.173  21.090   3.645
72063W        W35831  18.731  13.323  12.909
72064W        W35832  29.948  30.164   3.853
72065W        W35833  26.132  14.144  12.469
72066W        W35834  20.585  10.751  14.972
72067W        W35835  14.659  36.363   4.293
72068W        W35836  39.531  12.640   1.263
72069W        W35837  28.028   9.392  13.803
72070W        W35838  33.587  36.048   4.119
72071W        W35839  16.316   8.190  12.565
72072W        W35840  21.742  27.524  13.939
72073W        W35841  37.055   3.288   4.264
72074W        W35842  25.047  20.188   4.718
72075W        W35843  25.060  39.893   1.814
72076W        W35844   4.414  24.024   4.353
72077W        W35845  30.021  28.549   1.350
72078W        W35846  31.469  12.129  11.471
72079W        W35847   6.699  41.507  13.502
72080W        W35848  25.558  17.102  13.386
72081W        W35849  22.186  41.347   3.309
72082W        W35850  24.681   0.775   3.863
72083W        W35851  44.781   0.469   1.228
72084W        W35852  25.041  33.016  11.481
72085W        W35853  28.931  12.653  14.507
72086W        W35854   2.280   3.748   3.331
72087W        W35855  12.176  32.970   3.378
72088W        W35856  28.149  11.712   4.224
72089W        W35857  22.574   0.865  14.967
72090W        W35858  20.594  26.976  11.871
72091W        W35859  36.905  22.667   3.174
72092W        W35860  37.999   4.855  12.831
72093W        W35861  30.593   8.349  11.466
72094W        W35862   0.958  42.291  10.937
72095W        W35863  21.756   4.379   2.418
72096W        W35864  42.363  14.302  12.458
72097W        W35865  43.775   7.417  12.534
72098W        W35866  16.137  37.060   4.313
72099W        W35867  14.291  44.402  11.561
72100W        W35868   3.356  40.523  11.900
72101W        W35869  19.721   2.959  13.498
72102W        W35870  37.527   8.814  10.494
72103W        W35871  17.230  15.795  11.879
72104W        W35872   0.958  35.042   0.867
72105W        W35873  14.284   9.865   4.328
72106W        W35874   1.450  26.674   1.791
72107W        W35875   6.848   3.223   3.809
72108W        W35876  23.055  20.692   0.830
72109W        W35877  15.096  10.839   4.236
72110W        W35878  34.564  24.100  12.899
72111W        W35879  30.449  10.372  14.887
72112W        W35880  30.933  21.202   3.245
72113W        W35881  14.329  14.236   2.865
72114W        W35882  19.256  17.083   5.143
72115W        W35883   3.443  42.948   0.305
72116W        W35884  38.356  16.692  13.534
72117W        W35885  27.687  21.237   0.259
72118W        W35886  29.125   5.195   2.412
72119W        W35887  20.733   8.816  12.050
72120W        W35888  12.667  44.468  12.077
72121W        W35889  29.541  38.363  11.020
72122W        W35890  23.719  14.832   3.786
72123W        W35891  13.721  27.454   4.787
72124W        W35892  12.152  36.900  14.946
72125W        W35893  43.445  19.568   3.726
72126W        W35894  12.650  20.156   3.810
72127W        W35895  24.716  41.405  11.083
72128W        W35896  11.160  33.557  12.344
72129W        W35897   6.810   0.912   4.765
72130W        W35898   2.329   8.394   4.216
72131W        W35899  32.587  39.953   2.741
72132W        W35900  40.004  33.921   4.731
72133W        W35901  38.954   3.853  13.001
72134W        W35902  14.306  25.698   1.348
72135W        W35903  24.555  41.364  10.587
72136W        W35904   1.357  19.267  13.932
72137W        W35905  43.477  38.895  14.876
72138W        W35906  28.127   9.717   4.293
72139W        W35907  35.569  41.010   2.874
72140W        W35908  38.454  21.588  10.486
72141W        W35909  15.328  18.129  10.997
72142W        W35910  34.015  37.023   0.903
72143W        W35911  36.887  28.476  10.946
72144W        W35912  41.904  30.984   1.256
72145W        W35913  32.015  19.230   1.749
72146W        W35914  31.501  44.853  14.344
72147W        W35915  43.864  33.435  11.059
72148W        W35916  33.436  19.146  10.468
72149W        W35917  29.533  14.668  12.422
72150W        W35918  42.851  32.081   4.259
72151W        W35919  40.015   6.782   0.410
72152W        W35920  14.722  13.720   0.386
72153W        W35921  18.656  36.459  12.467
72154W        W35922  44.873   7.825  12.833
72155W        W35923  31.979  42.405   0.298
72156W        W35924  38.035  10.726   2.385
72157W        W35925   6.362  21.591  11.012
72158W        W35926  42.805  11.763   1.870
72159W        W35927  35.571  43.850   4.608
72160W        W35928  21.689   7.294   1.280
72161W        W35929  33.016  24.076   4.307
72162W        W35930  44.323  34.885   5.085
72163W        W35931  41.852  12.756  14.009
72164W        W35932  43.001  27.070  13.433
72165W        W35933   4.301   4.243   3.262
72166W        W35934  39.857  37.994  11.482
72167W        W35935  35.556  15.141  14.474
72168W        W35936  30.431   2.824   1.245
72169W        W35937  11.269  26.099   3.756
72170W        W35938  35.502  22.070  12.050
72171W        W35939  37.571  28.021  14.511
72172W        W35940  31.933  11.132  10.007
72173W        W35941  15.675   0.763   2.216
72174W        W35942   3.248  40.971  12.948
72175W        W35943   4.217   7.236   0.863
72176W        W35944  39.439  34.012   0.354
72177W        W35945  36.935   3.420   2.229
72178W        W35946  14.738  19.205   4.603
72179W        W35947  17.255   5.390  11.886
72180W        W35948  14.802  15.171   1.808
72181W        W35949  37.371  42.887  14.883
72182W        W35950   8.198   4.272  13.421
72183W        W35951   4.438  15.247  14.476
72184W        W35952  29.065  26.548  12.884
72185W        W35953  19.250  28.169  14.929
72186W        W35954   5.221  33.564   0.399
72187W        W35955  20.205  44.429  12.952
72188W        W35956  42.932   4.759  12.365
72189W        W35957  38.482   2.762  11.985
72190W        W35958  13.821  42.828   1.915
72191W        W35959   0.380  29.067  11.867
72192W        W35960  10.144  26.163  12.433
72193W        W35961   3.869  17.147   0.834
72194W        W35962  38.346  26.476   4.838
72195W        W35963  19.544   9.153  13.013
72196W        W35964  42.887  41.876  12.409
72197W        W35965  25.191  16.302  13.968
72198W        W35966  40.837  34.881   4.254
72199W        W35967   3.710   4.866   0.958
72200W        W35968  41.456  31.927  12.423
72201W        W35969  13.836  11.358   4.161
72202W        W35970  27.608   6.428   4.729
72203W        W35971  18.147  37.919  11.472
72204W        W35972  28.986  29.573   1.246
72205W        W35973  31.504  23.190   2.338
72206W        W35974   8.742  32.548  14.423
72207W        W35975  18.273  43.766   1.730
72208W        W35976  37.548  29.656   4.122
72209W        W35977   4.366  22.604   3.200
72210W        W35978  16.657  28.434   0.258
72211W        W35979  23.671  24.703  11.425
72212W        W35980  34.533  32.971   4.637
72213W        W35981  40.877   3.450  14.315
72214W        W35982  34.894  37.846  11.515
72215W        W35983  31.897   5.364   4.648
72216W        W35984  43.888   4.742   0.956
72217W        W35985   3.248  38.549  14.801
72218W        W35986  12.317  28.591  11.121
72219W        W35987  38.984  26.667   0.434
72220W        W35988  13.155  18.117   0.362
72221W        W35989  34.451  31.537  12.852
72222W        W35990  14.647  28.937  14.859
72223W        W35991  19.136  24.592   0.852
72224W        W35992  31.913   9.675   2.704
72225W        W35993  41.311   8.744   0.926
72226W        W35994  11.856   1.860   4.150
72227W        W35995  25.649   1.929  13.487
72228W        W35996  37.455  40.532  13.502
72229W        W35997  39.358  33.039  12.353
72230W        W35998  33.018   0.926  12.877
72231W        W35999  15.141  38.556  12.925
72232W        W36000  29.632   0.852   3.712
72233W        W36001  14.710  16.271   5.176
72234W        W36002  15.648  13.812  10.916
72235W        W36003  11.862   4.305   2.710
72236W        W36004  16.089  17.633   0.315
72237W        W36005   4.848  34.099   0.879
72238W        W36006  19.235   1.259  12.470
72239W        W36007  14.795   2.760  14.913
72240W        W36008  35.562  39.875   1.777
72241W        W36009  26.650  31.016   1.738
72242W        W36010  32.438  16.130  12.902
72243W        W36011   4.814   6.290  10.560
72244W        W36012  41.964  17.675   4.731
72245W        W36013  35.374  33.971  13.514
72246W        W36014  20.716  24.664  13.519
72247W        W36015  11.357  29.473  11.882
72248W        W36016   6.843   4.706  11.529
72249W        W36017  23.194  14.824   3.281
72250W        W36018  38.466  27.538  10.566
72251W        W36019   8.252  38.006   1.232
72252W        W36020  23.056  20.573   3.277
72253W        W36021  25.658   2.887   3.702
72254W        W36022  35.408  41.359  14.851
72255W        W36023  44.861  35.003  10.612
72256W        W36024  37.949  20.686  14.392
72257W        W36025  44.948  11.322   0.843
72258W        W36026  24.640  31.935  10.552
72259W        W36027  33.615  12.142   1.754
72260W        W36028  35.580  34.600   3.290
72261W        W36029  12.849   4.820   3.716
72262W        W36030   7.270   4.702  12.409
72263W        W36031   5.820  42.453   4.742
72264W        W36032  29.631  13.344  13.377
72265W        W36033  22.193  11.229   0.365
72266W        W36034  35.460  34.897  14.488
72267W        W36035  15.108  30.630  11.006
72268W        W36036  13.157  30.621  12.541
72269W        W36037   9.286  35.862   0.796
72270W        W36038  30.653  38.020   0.323
72271W        W36039  14.803  32.104   0.835
72272W        W36040  17.800  35.467  13.307
72273W        W36041   5.738  19.145  14.499
72274W        W36042   0.850   7.302  12.522
72275W        W36043  37.946  39.931   3.712
72276W        W36044   0.326  36.072   3.224
72277W        W36045  41.036  18.715   3.286
72278W        W36046  16.308  42.351  12.969
72279W        W36047   7.910  35.480   0.871
72280W        W36048  13.668   8.727  12.444
72281W        W36049   0.852  33.443  10.635
72282W        W36050  38.957   3.259  12.075
72283W        W36051  36.578  14.815  12.531
72284W        W36052  30.532   5.741   0.836
72285W        W36053  11.724  29.127   4.314
72286W        W36054   2.947  24.028   3.799
72287W        W36055   5.784  25.985   4.753
72288W        W36056  28.098  36.843  14.886
72289W        W36057   7.692  20.106   0.769
72290W        W36058   2.948   5.924  10.548
72291W        W36059  29.546  26.483   9.971
72292W        W36060  13.244  27.448   3.276
72293W        W36061  28.662  36.009  12.009
72294W        W36062  16.592  26.525  13.882
72295W        W36063  43.894  22.704   0.812
72296W        W36064  41.516  20.070  14.418
72297W        W36065   6.289  20.642   1.794
72298W        W36066   4.821  37.538   4.624
72299W        W36067  14.652  28.988   4.339
72300W        W36068  43.983  43.935   0.935
72301W        W36069  14.674  33.388   0.888
72302W        W36070  13.775   7.338   3.362
72303W        W36071  43.014  14.114   4.834
72304W        W36072   8.323  44.939   2.814
72305W        W36073  35.405  38.940   3.258
72306W        W36074   9.240  11.752  14.306
72307W        W36075  30.005  44.823  11.575
72308W        W36076  13.666  16.641  14.864
72309W        W36077  30.532   1.369  11.087
72310W        W36078  18.606  11.141  13.972
72311W        W36079  35.389   2.442  10.474
72312W        W36080  11.664  26.526  11.491
72313W        W36081  28.020   8.397  13.860
72314W        W36082  43.367  41.979  12.960
72315W        W36083  31.022  10.205  13.980
72316W        W36084  16.643   7.223  13.357
72317W        W36085  41.935   1.769  11.081
72318W        W36086  25.182  35.896   1.257
72319W        W36087  24.648  31.910   4.756
72320W        W36088  35.884  39.981   4.301
72321W        W36089  23.231  24.155   0.282
72322W        W36090  29.495  35.074   0.813
72323W        W36091  35.885  29.497  12.480
72324W        W36092  26.047  27.129   4.127
72325W        W36093   7.878  24.562   1.823
72326W        W36094  33.988  32.471  11.895
72327W        W36095  22.060  33.538   0.740
72328W        W36096  24.104  34.527  11.494
72329W        W36097  10.257  35.035  12.074
72330W        W36098  29.556  24.481   0.966
72331W        W36099  40.856  10.812  13.529
72332W        W36100  15.191  21.128   3.679
72333W        W36101  43.438  41.292   0.337
72334W        W36102   3.380  14.670  12.481
72335W        W36103  37.884  32.534   4.198
72336W        W36104  23.581  37.907  14.902
72337W        W36105  11.158  41.323  13.902
72338W        W36106  25.532   9.660   1.767
72339W        W36107   3.877  14.211   2.841
72340W        W36108  34.378  35.408   2.811
72341W        W36109   5.717  24.995   2.875
72342W        W36110  14.804  35.366  12.897
72343W        W36111  18.616   4.256  10.499
72344W        W36112  14.128  41.321  11.934
72345W        W36113  12.176  33.390   2.318
72346W        W36114  17.082  12.129  10.403
72347W        W36115  27.002  19.107  12.351
72348W        W36116   3.420  11.716  14.360
72349W        W36117  44.919  37.995  12.522
72350W        W36118  19.542  29.597  12.003
72351W        W36119  32.104  41.507   4.679
72352W        W36120  20.608  34.020  13.384
72353W        W36121  28.157  10.837   1.240
72354W        W36122  40.911  43.000   1.722
72355W        W36123  29.081  27.156  10.624
72356W        W36124   8.326   5.382   0.729
72357W        W36125  12.338  40.408   4.265
72358W        W36126   9.230  39.366   3.796
72359W        W36127   9.186  38.343  13.038
72360W        W36128  12.763  21.616  13.486
72361W        W36129  27.941  18.715  11.091
72362W        W36130  26.163  26.993  12.921
72363W        W36131  31.082  16.632  13.353
72364W        W36132   5.895   4.248   3.184
72365W        W36133   8.843  16.164  14.926
72366W        W36134   2.377  30.989  11.966
72367W        W36135  29.078  23.193  11.565
72368W        W36136   5.386   2.361   4.231
72369W        W36137   0.952  16.810  12.507
72370W        W36138  24.721   1.263   3.769
72371W        W36139  19.131   1.740   1.704
72372W        W36140  10.772  17.793  10.541
72373W        W36141  34.607  26.570   3.638
72374W        W36142   2.932  44.366   3.805
72375W        W36143  31.040   6.227  13.329
72376W        W36144  10.278  38.355   2.704
72377W        W36145   9.254  23.667  10.550
72378W        W36146  17.777  40.540  10.588
72379W        W36147  31.147   2.821   3.152
72380W        W36148  10.775  20.673  13.399
72381W        W36149  41.400  37.977   4.693
72382W        W36150  18.064  24.538  14.888
72383W        W36151  43.298  40.434  13.984
72384W        W36152  10.781   0.327  11.591
72385W        W36153  24.119  26.531   0.367
72386W        W36154   0.789  39.867  10.952
72387W        W36155  26.588  39.050   4.224
72388W        W36156  12.611  27.167  13.032
72389W        W36157  37.479  38.855  12.862
72390W        W36158   0.851  11.633   3.377
72391W        W36159  22.086  32.394   4.339
72392W        W36160  42.491   6.732  14.359
72393W        W36161  26.083   1.350   2.349
72394W        W36162  35.044  33.476   9.966
72395W        W36163  39.846  35.007   3.803
72396W        W36164  15.181  11.739  13.544
72397W        W36165  35.868  38.856  11.990
72398W        W36166  40.893  26.616   4.746
72399W        W36167   9.670  35.514  13.387
72400W        W36168  10.368  30.450   2.358
72401W        W36169  35.382  29.645  11.970
72402W        W36170  42.324   7.340   0.483
72403W        W36171  22.687   2.237   3.373
72404W        W36172  11.731  44.352   1.853
72405W        W36173   6.373   0.451   1.787
72406W        W36174  23.026  40.860  14.829
72407W        W36175   9.764  18.295  10.999
72408W        W36176  19.649  33.452  12.574
72409W        W36177   3.388  22.157  14.017
72410W        W36178  31.934  17.104  11.379
72411W        W36179  20.109   8.826  11.576
72412W        W36180  10.273  41.900   0.320
72413W        W36181   5.848  34.518   0.870
72414W        W36182  22.082  25.682  10.639
72415W        W36183  30.489  25.607  12.369
72416W        W36184  19.070  35.582   9.983
72417W        W36185  12.793  10.656  11.580
72418W        W36186  19.217   2.246   4.307
72419W        W36187  18.572  39.848   3.152
72420W        W36188  16.301  27.134  13.543
72421W        W36189  36.569  24.656  13.431
72422W        W36190  17.641   1.381  10.982
72423W        W36191  33.975  32.605   3.342
72424W        W36192  24.530  26.571  10.904
72425W        W36193  30.441  13.312  12.069
72426W        W36194  33.483  37.360  12.468
72427W        W36195  15.760  24.622  14.023
72428W        W36196  41.886  26.146   4.824
72429W        W36197  34.890  39.029  11.612
72430W        W36198  20.273  24.480  12.985
72431W        W36199   8.285  33.955   3.731
72432W        W36200   0.844  27.146   1.279
72433W        W36201  31.100  44.319  11.428
72434W        W36202  19.090  16.309  12.390
72435W        W36203  23.997  43.000  10.931
72436W        W36204   2.344  18.595   0.947
72437W        W36205  28.990  23.060  13.367
72438W        W36206  29.439  11.151   0.816
72439W        W36207  28.471  10.679   3.777
72440W        W36208  26.208  12.129  13.821
72441W        W36209   2.435  24.713   1.277
72442W        W36210  11.289  30.644   1.763
72443W        W36211  15.647  23.563  11.967
72444W        W36212  41.356  11.351  12.472
72445W        W36213  30.457  11.234   3.638
72446W        W36214  15.735  37.871   1.420
72447W        W36215  17.288  42.978   0.454
72448W        W36216  39.873  36.487  11.923
72449W        W36217  10.341  29.069  10.483
72450W        W36218  43.795  17.307  13.885
72451W        W36219  38.489  22.528   3.696
72452W        W36220  16.744  19.093  12.910
72453W        W36221  40.905  12.619   4.313
72454W        W36222  23.188  24.713  14.420
72455W        W36223  12.629  38.569   1.865
72456W        W36224  29.163  19.096   4.785
72457W        W36225  18.715  25.684   9.945
72458W        W36226   7.342  37.350  10.941
72459W        W36227   4.305   9.790   2.388
72460W        W36228  18.083  37.045   3.630
72461W        W36229   0.455  17.277  14.298
72462W        W36230  21.108  44.262  11.912
72463W        W36231   5.850  24.132   1.450
72464W        W36232  11.228   9.355  10.010
72465W        W36233  37.877  37.858  13.526
72466W        W36234  21.034  12.724  11.913
72467W        W36235  32.498   7.351  14.760
72468W        W36236  18.737  18.693  10.456
72469W        W36237  19.685  30.017  11.497
72470W        W36238  38.402  37.902  12.903
72471W        W36239  13.301  15.649   4.720
72472W        W36240   1.766  40.981  14.367
72473W        W36241   6.823   8.796  11.055
72474W        W36242  18.604  43.450  11.047
72475W        W36243   0.790   9.661   4.313
72476W        W36244  21.222  36.844  13.320
72477W        W36245  26.186  10.780   3.836
72478W        W36246  13.223   8.337   1.748
72479W        W36247  40.917  35.560  12.475
72480W        W36248  43.405  43.882   4.146
72481W        W36249  27.490  30.030   1.430
72482W        W36250   1.973  15.263  13.852
72483W        W36251  18.114  16.793   0.274
72484W        W36252   4.900   2.747   3.372
72485W        W36253   3.818  18.596   3.283
72486W        W36254  15.741   6.865  13.397
72487W        W36255  21.163   9.290   3.283
72488W        W36256  44.382  23.157  11.038
72489W        W36257  24.640  19.182   2.416
72490W        W36258   4.937  37.926  12.080
72491W        W36259  12.818  28.085   2.319
72492W        W36260  14.671  23.088   2.396
72493W        W36261   3.779   2.953  10.489
72494W        W36262  41.499  11.716   5.266
72495W        W36263  23.165   3.825  13.353
72496W        W36264  17.608  42.506   2.894
72497W        W36265  28.012  28.452  11.551
72498W        W36266  13.245  15.277   2.773
72499W        W36267   5.922  19.605  11.049
72500W        W36268  39.836  32.528   2.819
72501W        W36269   7.225  38.468  13.379
72502W        W36270   1.291  34.991  11.881
72503W        W36271  10.872  27.962   2.390
72504W        W36272   0.464  20.030  12.904
72505W        W36273   1.346  40.835   3.818
72506W        W36274  30.420  33.117  13.885
72507W        W36275  26.951  32.430  10.908
72508W        W36276  23.675  36.388   5.285
72509W        W36277  13.770  22.684   4.251
72510W        W36278  13.750  24.641   4.622
72511W        W36279   5.763  20.162  14.292
72512W        W36280  17.765  30.421  12.366
72513W        W36281  25.542  23.089  12.909
72514W        W36282   2.251  12.834  10.152
72515W        W36283  36.563  40.404  11.432
72516W        W36284   2.381  20.081   0.248
72517W        W36285  25.032  18.054   1.401
72518W        W36286  27.690  19.049   3.283
72519W        W36287  23.079   1.883   2.237
72520W        W36288  42.460  34.913   2.747
72521W        W36289  14.601  11.802   4.710
72522W        W36290  31.136  32.591  14.870
72523W        W36291   3.948  20.231   1.412
72524W        W36292  39.005  41.446   2.851
72525W        W36293  24.229  28.505  10.903
72526W        W36294  37.841  18.113  12.040
72527W        W36295  31.941  13.621   1.329
72528W        W36296  16.110   6.224   3.321
72529W        W36297  14.273  25.103   4.326
72530W        W36298  32.420  25.492  13.041
72531W        W36299  42.437  23.559  11.446
72532W        W36300  20.696  23.532  10.484
72533W        W36301  22.153  31.953   0.956
72534W        W36302  15.685  13.760   0.734
72535W        W36303  37.364  16.095  10.614
72536W        W36304  19.153   5.434  13.015
72537W        W36305  14.109  28.632   4.773
72538W        W36306  18.288  35.492  12.987
72539W        W36307  27.996  12.742  12.479
72540W        W36308  20.616   6.193  12.431
72541W        W36309  25.190   0.824  11.534
72542W        W36310  26.552  42.930   0.310
72543W        W36311   5.791   6.680   0.883
72544W        W36312  11.682  39.878  10.578
72545W        W36313  10.257  42.353  13.902
72546W        W36314   7.223  30.444  11.957
72547W        W36315  44.771  37.980   0.332
72548W        W36316   3.344  30.012   4.716
72549W        W36317  23.637  19.283  14.467
72550W        W36318  28.142  30.131  14.925
72551W        W36319  29.495  38.940  10.065
72552W        W36320  33.581  28.460  13.955
72553W        W36321  25.015  29.930   4.642
72554W        W36322  32.502   4.705  13.917
72555W        W36323   6.754  19.133  10.516
72556W        W36324  43.824  20.258   1.343
72557W        W36325  41.300  26.503   3.259
72558W        W36326  34.873  32.408  14.876
72559W        W36327  13.321  23.635  14.298
72560W        W36328   9.819   1.802  11.960
72561W        W36329  10.181  29.619   5.178
72562W        W36330  31.101  34.499   5.089
72563W        W36331   0.968  30.076  11.589
72564W        W36332  40.942  22.682  12.393
72565W        W36333  30.963   5.734  11.460
72566W        W36334   4.375  26.668  13.009
72567W        W36335  31.066  34.118   0.261
72568W        W36336  42.397  17.704   0.760
72569W        W36337  24.641  15.262  11.562
72570W        W36338  39.507  29.557   3.169
72571W        W36339  26.475  20.268   4.700
72572W        W36340   8.286   6.255   2.389
72573W        W36341   8.732   2.297  11.900
72574W        W36342   0.897  16.162  12.940
72575W        W36343  41.792  21.201  13.487
72576W        W36344  42.872  15.775   3.831
72577W        W36345  19.721  27.631  12.389
72578W        W36346  42.980  32.983   3.296
72579W        W36347  24.662   1.350   3.194
72580W        W36348   1.411  42.785  10.490
72581W        W36349  24.537  27.448  12.060
72582W        W36350  43.325  25.154   1.293
72583W        W36351  26.984  34.014  13.999
72584W        W36352   1.368   0.885  12.553
72585W        W36353  13.321  28.484   1.437
72586W        W36354  26.533  23.647  11.481
72587W        W36355  19.626   0.917   1.787
72588W        W36356   9.669   0.316   2.669
72589W        W36357   8.183  25.531   1.378
72590W        W36358  21.738   6.368  11.086
72591W        W36359  14.121  24.019  12.461
72592W        W36360   3.308   6.414  13.829
72593W        W36361   2.942  24.613  13.810
72594W        W36362  40.505  38.890   4.299
72595W        W36363  44.473  22.127  13.915
72596W        W36364  33.925  14.676  14.765
72597W        W36365  26.700  23.649  10.523
72598W        W36366  18.773  17.711  14.028
72599W        W36367  17.788   2.756  14.430
72600W        W36368  15.659  27.457  10.950
72601W        W36369  43.498  39.843  10.518
72602W        W36370  37.898   9.367   0.319
72603W        W36371   2.254  39.813   3.320
72604W        W36372  35.106  16.256  11.405
72605W        W36373  30.564  42.845  10.909
72606W        W36374   5.687  32.436  11.580
72607W        W36375  40.853  10.768   2.376
72608W        W36376   5.331  19.536   2.662
72609W        W36377   4.359   7.365   4.725
72610W        W36378  15.638  34.552   3.825
72611W        W36379  26.565  16.118  14.996
72612W        W36380  10.157  43.480   4.837
72613W        W36381  28.006  20.064  14.316
72614W        W36382   9.175  13.613   3.707
72615W        W36383  39.991  17.153  10.484
72616W        W36384  17.102  25.144   3.818
72617W        W36385  13.126   2.465   3.692
72618W        W36386  29.474   2.948   3.646
72619W        W36387  22.514  13.631   3.237
72620W        W36388   3.383  11.193  10.432
72621W        W36389   6.328   6.272  14.488
72622W        W36390  42.328  37.843   1.249
72623W        W36391  26.629  21.201   1.403
72624W        W36392   6.842  41.868  11.027
72625W        W36393  34.970  11.633  12.572
72626W        W36394  37.908  18.555   3.819
72627W        W36395  21.261   5.687  12.550
72628W        W36396  23.606  14.788  11.040
72629W        W36397  36.901  42.028  13.449
72630W        W36398  21.168   8.847  10.406
72631W        W36399  38.394  38.823   0.327
72632W        W36400  36.979  17.573   2.339
72633W        W36401  16.181  37.854   2.358
72634W        W36402   6.192  24.618  11.941
72635W        W36403  15.817   5.770  10.975
72636W        W36404  30.040   0.469  13.922
72637W        W36405  38.561  30.619  14.810
72638W        W36406  12.278  11.776   3.742
72639W        W36407  32.473   2.345   1.295
72640W        W36408  27.575  29.953   3.379
72641W        W36409  24.604  24.164   4.654
72642W        W36410  38.486  11.203   1.429
72643W        W36411  14.326  11.246   1.427
72644W        W36412  28.501  19.679   1.798
72645W        W36413  13.303  40.336  13.501
72646W        W36414  40.857  27.009  13.875
72647W        W36415  14.202  22.225   2.245
72648W        W36416  44.350  16.742  12.511
72649W        W36417  16.215   7.385  11.104
72650W        W36418   1.479  21.194  11.448
72651W        W36419  20.198  31.009   3.700
72652W        W36420   0.769   4.872  12.007
72653W        W36421  38.043  14.165   0.453
72654W        W36422   6.276  19.188   4.258
72655W        W36423  40.503  25.176  14.958
72656W        W36424  10.872  13.105  13.918
72657W        W36425  41.915   8.218   4.246
72658W        W36426   1.425  19.198   3.222
72659W        W36427  41.823  17.074  14.844
72660W        W36428  28.063  25.693   2.214
72661W        W36429  32.503  34.602   0.413
72662W        W36430  41.468  19.687  14.437
72663W        W36431  26.016   5.820   4.182
72664W        W36432  44.456  28.062  14.922
72665W        W36433  32.053   6.691  14.028
72666W        W36434  32.630  37.045  11.048
72667W        W36435  25.560  17.244  14.921
72668W        W36436  32.907  40.389   4.262
72669W        W36437  19.222  24.484  13.855
72670W        W36438  22.192  43.370   1.390
72671W        W36439  15.221  43.831  11.564
72672W        W36440   6.248  44.336  14.444
72673W        W36441   4.282  30.910   1.371
72674W        W36442  10.182   7.239   0.318
72675W        W36443   6.276  43.287   1.222
72676W        W36444  22.662  16.727  10.060
72677W        W36445  19.608  33.447  12.832
72678W        W36446  34.999  42.302  13.409
72679W        W36447  26.041  38.014   3.826
72680W        W36448  35.564  44.896   4.743
72681W        W36449   3.789  43.886   1.223
72682W        W36450   3.913  29.645   3.748
72683W        W36451   6.409  19.054  10.486
72684W        W36452  42.780  40.523  12.048
72685W        W36453  34.597  40.003   3.235
72686W        W36454  41.976  43.356  12.859
72687W        W36455   7.399  12.677  14.844
72688W        W36456  15.322  25.103  11.595
72689W        W36457  33.008  21.146  11.584
72690W        W36458  23.501  18.699  14.867
72691W        W36459  10.371   0.892  11.593
72692W        W36460  41.787  13.153   3.382
72693W        W36461  15.613  22.555   0.736
72694W        W36462  38.011  22.592   3.270
72695W        W36463   2.461  36.864  14.493
72696W        W36464  21.605  40.485   2.264
72697W        W36465  21.641  29.111  10.607
72698W        W36466  44.273   7.841  12.537
72699W        W36467  38.385  34.388   3.809
72700W        W36468  37.365  16.253  14.906
72701W        W36469  10.163  33.131   4.348
72702W        W36470   1.413  36.472   0.826
72703W        W36471  14.714  16.584  11.117
72704W        W36472  40.376  23.135  14.372
72705W        W36473  15.744  26.177  10.531
72706W        W36474  11.350  44.467  11.994
72707W        W36475  22.143  43.910  14.844
72708W        W36476  40.813  19.068   2.675
72709W        W36477  41.474  33.449  13.389
72710W        W36478  26.547  40.494   2.863
72711W        W36479  20.139   0.866  10.904
72712W        W36480  27.669  24.192   4.277
72713W        W36481   7.251   5.198  14.884
72714W        W36482  35.108  38.009   2.253
72715W        W36483   8.811  14.632  12.995
72716W        W36484  39.952  16.291   2.324
72717W        W36485  27.078  11.641  11.902
72718W        W36486  38.439  13.270  11.386
72719W        W36487  37.544  11.194   0.279
72720W        W36488  44.464  14.612  14.871
72721W        W36489  21.133   6.401  12.911
72722W        W36490  33.588  42.309  10.930
72723W        W36491  10.139  11.693  10.466
72724W        W36492   5.701  32.078   3.720
72725W        W36493  16.568  32.085   2.815
72726W        W36494  40.372  16.649  11.609
72727W        W36495  23.988  37.452  11.013
72728W        W36496  24.042  23.550  10.438
72729W        W36497  22.662  11.170   1.289
72730W        W36498   0.354  11.684  13.536
72731W        W36499  23.076  42.470  12.968
72732W        W36500   8.824  44.278   2.768
72733W        W36501  40.382  19.112   3.241
72734W        W36502  43.361  43.778  14.010
72735W        W36503   4.214  34.592  11.965
72736W        W36504  33.535   9.233  10.889
72737W        W36505  31.140  11.362   1.426
72738W        W36506  17.121   8.238   4.608
72739W        W36507  17.100   8.740  14.387
72740W        W36508  21.567   3.382   1.884
72741W        W36509  32.068  14.591  10.115
72742W        W36510  28.947  40.848   1.884
72743W        W36511  41.949  30.465  11.403
72744W        W36512  37.984   5.756   0.732
72745W        W36513  27.686  28.933  13.809
72746W        W36514  43.993  21.231   1.290
72747W        W36515  29.949   2.776   3.697
72748W        W36516   9.215  15.669   2.704
72749W        W36517  32.940  11.206   3.682
72750W        W36518  22.579   8.719  14.017
72751W        W36519   3.835  33.087   0.834
72752W        W36520  21.736  34.470  10.917
72753W        W36521  11.217   3.773   4.292
72754W        W36522   7.754  21.029  12.531
72755W        W36523   9.648  39.042   0.325
72756W        W36524   2.436  12.169  12.402
72757W        W36525  24.995  20.760  11.385
72758W        W36526  44.000  15.633   2.185
72759W        W36527  14.259  13.293   2.321
72760W        W36528  38.977  26.010   3.293
72761W        W36529  44.281  44.361  14.827
72762W        W36530  37.414  35.367  13.870
72763W        W36531   7.813  38.568  10.455
72764W        W36532   5.710  44.314  13.459
72765W        W36533  14.330  35.096  13.006
72766W        W36534  17.617  42.985   5.142
72767W        W36535  22.680   6.828  12.360
72768W        W36536   4.372  17.731  10.582
72769W        W36537  29.526  36.045  14.323
72770W        W36538  25.015   3.903   2.902
72771W        W36539  24.593  43.309  11.064
72772W        W36540  38.051  44.872  10.587
72773W        W36541   2.757  42.966  10.410
72774W        W36542   0.938  13.604  14.944
72775W        W36543  14.650  33.029   1.413
72776W        W36544   8.887  34.396   1.351
72777W        W36545  34.396  19.617   3.254
72778W        W36546  33.945  38.874  11.380
72779W        W36547  33.944   0.350  12.024
72780W        W36548  12.663  15.229   9.644
72781W        W36549  26.662  37.417   3.155
72782W        W36550  37.055   7.740  11.989
72783W        W36551  12.844  35.497  14.442
72784W        W36552  30.544  13.747  12.531
72785W        W36553  42.869   9.379   2.196
72786W        W36554   9.836   3.222  12.963
72787W        W36555  22.098  12.671  12.965
72788W        W36556  10.645   6.315   0.961
72789W        W36557  20.217  10.224   0.276
72790W        W36558  39.560  39.381  11.983
72791W        W36559  36.935  18.646   2.662
72792W        W36560  25.552  29.954   1.451
72793W        W36561  23.164   9.860  14.416
72794W        W36562  39.865  34.545  11.014
72795W        W36563  21.580  39.824  12.531
72796W        W36564   4.785  17.268  12.358
72797W        W36565   1.458   1.813   1.330
72798W        W36566  13.252   1.944   1.375
72799W        W36567  35.413  19.555  10.480
72800W        W36568  28.506  10.711  11.921
72801W        W36569  16.116  14.113  14.024
72802W        W36570  23.106  28.182   0.427
72803W        W36571  11.854  21.620  10.099
72804W        W36572   3.790   9.238   4.781
72805W        W36573   9.832  17.724  11.018
72806W        W36574  12.675   5.915   4.638
72807W        W36575   8.668   8.299  13.881
72808W        W36576  30.970  16.119  11.885
72809W        W36577  19.633  22.581  14.885
72810W        W36578  26.038  38.987  14.481
72811W        W36579   9.777  35.386   3.323
72812W        W36580  23.089   7.359  14.796
72813W        W36581  24.164  28.031   1.449
72814W        W36582  29.138  34.948   1.334
72815W        W36583  27.987  22.214  11.030
72816W        W36584  13.672   5.781  10.925
72817W        W36585  35.880  10.652  11.061
72818W        W36586   2.837  16.159   1.450
72819W        W36587  43.487  40.873   2.798
72820W        W36588   0.473  14.147  11.611
72821W        W36589   0.269  39.480   3.207
72822W        W36590  40.952  36.364   3.830
72823W        W36591  18.675  33.040  10.953
72824W        W36592  13.616   7.864  14.973
72825W        W36593  21.539  26.465  14.366
72826W        W36594   7.839  24.172   4.764
72827W        W36595  33.535  31.467  10.498
72828W        W36596   8.814  20.748   1.267
72829W        W36597   8.350  11.624  14.997
72830W        W36598   2.451  34.021  12.959
72831W        W36599  43.279  33.081  11.377
72832W        W36600  30.068  10.228   1.367
72833W        W36601  39.051  41.834   2.681
72834W        W36602  28.555  11.174   2.814
72835W        W36603  41.436  44.928   3.342
72836W        W36604  19.144  42.282  10.544
72837W        W36605  24.717  30.434   2.218
72838W        W36606  12.128  44.344  14.788
72839W        W36607  40.856   8.238   4.325
72840W        W36608  41.425   0.939   1.726
72841W        W36609  20.621   7.192  11.915
72842W        W36610   4.811   5.815   3.190
72843W        W36611   9.344  29.608   3.169
72844W        W36612  18.581  23.531  10.018
72845W        W36613  12.618  25.084   2.419
72846W        W36614  13.677   9.327   4.282
72847W        W36615  26.160  10.732  11.870
72848W        W36616  44.893  39.847  11.866
72849W        W36617   8.783  39.555   0.931
72850W        W36618  12.148   4.744  13.511
72851W        W36619  25.197  20.125  13.315
72852W        W36620  12.357  21.148  11.873
72853W        W36621  26.985  14.811  14.459
72854W        W36622  31.622  41.803  10.459
72855W        W36623  24.108  19.775  12.911
72856W        W36624  28.083  23.516  11.888
72857W        W36625  39.822   0.431   1.807
72858W        W36626  41.924  10.666  12.879
72859W        W36627   3.380  32.525   3.156
72860W        W36628  43.273  36.094   0.343
72861W        W36629   6.194  40.396   2.810
72862W        W36630   0.285  34.980   5.236
72863W        W36631   0.954   4.232  12.853
72864W        W36632  11.698  18.082  12.074
72865W        W36633   4.767  18.619  12.577
72866W        W36634  26.166   9.889  12.026
72867W        W36635  13.760  31.067   2.815
72868W        W36636  42.832   4.447   1.213
72869W        W36637  25.473  26.087  14.294
72870W        W36638  27.469  32.124   3.233
72871W        W36639   8.272  29.042  12.867
72872W        W36640  43.336  34.017   1.449
72873W        W36641  22.712  20.615   1.827
72874W        W36642  41.427   9.294  11.948
72875W        W36643  22.250   3.824   4.146
72876W        W36644  35.582  14.284  14.959
72877W        W36645  21.709  24.125  10.477
72878W        W36646  31.910  12.681   0.831
72879W        W36647   2.321  27.469   4.349
72880W        W36648  12.228  36.979   1.920
72881W        W36649  32.568   7.847  11.493
72882W        W36650  21.241   6.210   2.845
72883W        W36651  18.121  26.164  12.568
72884W        W36652   7.667  42.008   2.738
72885W        W36653   8.887  16.635  11.957
72886W        W36654  11.329  40.950   2.386
72887W        W36655  15.758  18.244  14.946
72888W        W36656  17.224  14.161   5.307
72889W        W36657   2.773   9.335   1.900
72890W        W36658  41.943  26.570  12.449
72891W        W36659  39.901  36.396   3.354
72892W        W36660  26.605   9.801   3.794
72893W        W36661  10.875  24.147  12.546
72894W        W36662   9.360  21.611  11.571
72895W        W36663  12.307  28.100   1.869
72896W        W36664  10.764  44.769   3.831
72897W        W36665   2.462  37.475  13.446
72898W        W36666  39.481  44.335  12.399
72899W        W36667  28.469  17.705   1.876
72900W        W36668  11.232  29.133  13.438
72901W        W36669  32.510   2.368  14.906
72902W        W36670   9.818   6.837   3.743
72903W        W36671  18.677  19.536   2.704
72904W        W36672  16.569  42.298   4.604
72905W        W36673  18.589  28.122   0.929
72906W        W36674  21.676  28.997  14.492
72907W        W36675  35.515  22.014   2.345
72908W        W36676  30.057  10.834  13.012
72909W        W36677  16.746  34.582   2.351
72910W        W36678  20.150  16.140   3.339
72911W        W36679  23.534  20.614   4.135
72912W        W36680   4.746  34.577   0.831
72913W        W36681  17.183  16.170  12.372
72914W        W36682  33.101  37.431  12.068
72915W        W36683  43.910  13.220   3.177
72916W        W36684  30.526  17.606  12.046
72917W        W36685  38.033  29.940   1.211
72918W        W36686  44.358   2.367  14.768
72919W        W36687  25.664  19.596  14.473
72920W        W36688  32.959  15.240   3.185
72921W        W36689   0.859  11.701   2.789
72922W        W36690   2.234   1.768   3.726
72923W        W36691  33.103  16.770   3.697
72924W        W36692  19.078  35.401   4.199
72925W        W36693  34.094   0.799  12.837
72926W        W36694  21.601  23.607  11.451
72927W        W36695  30.504   0.346   4.174
72928W        W36696  24.054  24.574   2.370
72929W        W36697  18.083  35.534  11.444
72930W        W36698   0.401  17.144  10.904
72931W        W36699  32.489   1.416  12.905
72932W        W36700  23.014   9.354  11.104
72933W        W36701  35.918  13.843   2.417
72934W        W36702  10.728  43.915   3.850
72935W        W36703  20.172  43.906   4.669
72936W        W36704  13.736  29.452  13.879
72937W        W36705  40.504  10.200  12.400
72938W        W36706  35.389  38.936  12.384
72939W        W36707   2.357  22.698   5.096
72940W        W36708   2.316  19.185  10.962
72941W        W36709  38.543   8.879   1.750
72942W        W36710  25.040  26.477   4.819
72943W        W36711  16.134  20.105   3.829
72944W        W36712  17.241  26.637  12.422
72945W        W36713  26.658  32.907  13.881
72946W        W36714  40.378  16.741   2.194
72947W        W36715  16.720   8.700  10.540
72948W        W36716  35.076   2.241  12.859
72949W        W36717  30.965  15.712   1.318
72950W        W36718  14.683  42.873  13.473
72951W        W36719  19.777  14.661  10.612
72952W        W36720  39.524  19.549  10.422
72953W        W36721   9.152  15.646  11.096
72954W        W36722  40.485  34.604   3.754
72955W        W36723  35.541  18.076   3.735
72956W        W36724  42.883  10.848  13.493
72957W        W36725  28.622  21.537   4.751
72958W        W36726   0.834   5.256  13.456
72959W        W36727   5.923  42.853   0.880
72960W        W36728  31.635  20.139   5.107
72961W        W36729  43.419  27.572  11.429
72962W        W36730   8.732  16.146   0.282
72963W        W36731  38.912  20.242  13.869
72964W        W36732  27.588   5.342   4.661
72965W        W36733  22.072  36.446  11.045
72966W        W36734  40.036  25.026  13.461
72967W        W36735  33.905  34.035   3.326
72968W        W36736  31.618  32.020   0.834
72969W        W36737  39.320  36.399   4.156
72970W        W36738  13.821  39.534   1.267
72971W        W36739  24.162   1.401   3.798
72972W        W36740  25.667  17.599  10.629
72973W        W36741  16.316  41.871  11.884
72974W        W36742   0.339  36.923  13.926
72975W        W36743  32.006  35.958   3.679
72976W        W36744  32.393  36.523  12.087
72977W        W36745  40.815   6.398   1.824
72978W        W36746   5.229  15.635   4.331
72979W        W36747  17.076  21.236   9.972
72980W        W36748  15.596  44.446  10.407
72981W        W36749  28.659   4.808   3.852
72982W        W36750   5.750  30.564  11.541
72983W        W36751  31.962  22.083   4.688
72984W        W36752  35.861  24.545  11.378
72985W        W36753   9.761  18.715  13.488
72986W        W36754   5.698  34.071   0.340
72987W        W36755  20.551   6.758   2.758
72988W        W36756   0.781   1.318  14.952
72989W        W36757   9.764   8.344  13.795
72990W        W36758   9.810  23.012  12.985
72991W        W36759   5.342  21.207  14.980
72992W        W36760  11.298  37.860  11.462
72993W        W36761  41.366  27.639   3.648
72994W        W36762   5.335   7.691  11.393
72995W        W36763  17.637   7.249  12.885
72996W        W36764  18.060   7.807  13.501
72997W        W36765  25.137   6.760  10.425
72998W        W36766  30.079  35.004  13.058
72999W        W36767  24.639   2.771  10.445
73000W        W36768  19.239  41.974   1.880
73001W        W36769  20.096  35.015  12.009
73002W        W36770  26.639  40.834   0.336
73003W        W36771  10.142  30.578   1.415
73004W        W36772   2.725  33.418   4.796
73005W        W36773  18.620   1.289   2.892
73006W        W36774  21.116  22.054  14.851
73007W        W36775  19.073  36.876   1.757
73008W        W36776  30.091   7.890  14.875
73009W        W36777   6.258  41.405  12.083
73010W        W36778  35.593  10.339   2.254
73011W        W36779  28.976  16.231  14.480
73012W        W36780  23.013  37.057   2.807
73013W        W36781  30.926  19.547  10.908
73014W        W36782  35.959  41.419  12.476
73015W        W36783  34.075  27.056   0.794
73016W        W36784  22.169   4.858   1.301
73017W        W36785   6.416  37.540  14.352
73018W        W36786  23.164  24.555   3.191
73019W        W36787   1.920  40.493   1.341
73020W        W36788  14.610  27.011  14.772
73021W        W36789   0.759  26.551   1.302
73022W        W36790  10.335   0.335  10.410
73023W        W36791   5.868  27.629  12.023
73024W        W36792  29.980  36.009   1.838
73025W        W36793  21.052   3.259  10.101
73026W        W36794  25.585  11.283   5.644
73027W        W36795  27.635  27.595  12.463
73028W        W36796  20.203  30.486  14.836
73029W        W36797  37.431  13.195  10.583
73030W        W36798  30.035   6.366   2.752
73031W        W36799   2.450  17.158  11.442
73032W        W36800  43.966  29.049   0.375
73033W        W36801  32.073  10.686  14.474
73034W        W36802   0.750  20.175  12.022
73035W        W36803  13.253  40.009   1.451
73036W        W36804   6.734  38.056   3.779
73037W        W36805  32.143  39.017   5.132
73038W        W36806   0.767   7.268  10.414
73039W        W36807   5.739  38.350   1.775
73040W        W36808  34.060  22.664   2.381
73041W        W36809  11.334  31.994  14.344
73042W        W36810   6.386  36.988   4.239
73043W        W36811  38.989   7.383  12.562
73044W        W36812   3.350  31.925  11.517
73045W        W36813  19.126   9.656   3.768
73046W        W36814  41.892  22.542  13.384
73047W        W36815  22.064  42.423   4.272
73048W        W36816  16.094  42.945   4.789
73049W        W36817   8.400  38.876  13.387
73050W        W36818  21.175  41.526   9.948
73051W        W36819   6.894  43.835   0.821
73052W        W36820   2.412  41.324   1.338
73053W        W36821  11.280  18.589  10.525
73054W        W36822  35.010  30.121  11.474
73055W        W36823   8.821  37.891   1.315
73056W        W36824  36.466   8.190  13.903
73057W        W36825  44.336  19.692  13.455
73058W        W36826  22.222  16.805   0.827
73059W        W36827  25.544  21.517  10.497
73060W        W36828  32.571   1.831  12.054
73061W        W36829  27.990  36.352  10.482
73062W        W36830  37.428  13.702   4.308
73063W        W36831  42.012  30.620  12.880
73064W        W36832  43.296  34.872   3.383
73065W        W36833  30.115   1.860   1.877
73066W        W36834  29.131  42.375  12.460
73067W        W36835  29.566   0.909  12.060
73068W        W36836   1.977  21.536  12.931
73069W        W36837  27.457  44.476  12.542
73070W        W36838  13.628  15.110  13.400
73071W        W36839  35.913  19.088   2.698
73072W        W36840   5.810  15.107  14.848
73073W        W36841  28.165  28.597   1.365
73074W        W36842  25.076  22.628  13.376
73075W        W36843  28.521  22.143  13.938
73076W        W36844  38.454  16.108   3.854
73077W        W36845   1.747  14.738   3.155
73078W        W36846  43.310  18.268   4.612
73079W        W36847  35.539  35.894   4.764
73080W        W36848  17.116  36.902  10.514
73081W        W36849  31.124  20.548   0.729
73082W        W36850   2.455  16.702   3.177
73083W        W36851   2.726  35.030   2.861
73084W        W36852   9.725   2.769  14.863
73085W        W36853  29.467  12.333   4.189
73086W        W36854  16.140  21.199  11.443
73087W        W36855  29.121  35.503   2.814
73088W        W36856  17.677   1.760  13.025
73089W        W36857  10.300   9.374   4.799
73090W        W36858  40.906  39.898   0.360
73091W        W36859  34.897  39.966  13.935
73092W        W36860  25.087  34.410   0.855
73093W        W36861  35.899   0.948   2.776
73094W        W36862  23.666  37.854   2.735
73095W        W36863  22.721  31.141  10.619
73096W        W36864   4.338  38.947   4.289
73097W        W36865  25.494  32.412   5.725
73098W        W36866  15.604   5.292   0.413
73099W        W36867  15.776  40.500   3.633
73100W        W36868  22.069  17.170  12.921
73101W        W36869  21.111  31.152   1.267
73102W        W36870  15.626  19.120  10.563
73103W        W36871  31.559  43.342  11.093
73104W        W36872  16.574  16.581   0.831
73105W        W36873  18.121  41.876  12.004
73106W        W36874  28.490  32.108   3.168
73107W        W36875  40.816  39.884   4.331
73108W        W36876  41.915  22.584  13.847
73109W        W36877   6.742  27.673  10.909
73110W        W36878  42.331  37.904  11.959
73111W        W36879   4.208  39.868   3.761
73112W        W36880   5.729   4.372   3.703
73113W        W36881  22.699  23.692   0.408
73114W        W36882   6.425  18.777  11.883
73115W        W36883  16.293  27.589   1.313
73116W        W36884   2.326  38.365  11.097
73117W        W36885  44.832  38.999   0.812
73118W        W36886  33.961  43.342  14.949
73119W        W36887  37.863  36.504  13.905
73120W        W36888  32.113  38.876  12.070
73121W        W36889  43.285  34.586  12.427
73122W        W36890  22.155  21.631   4.201
73123W        W36891  14.822  25.001  12.046
73124W        W36892  12.613  28.099   0.272
73125W        W36893   8.722   0.810   1.874
73126W        W36894   4.941  27.607   4.246
73127W        W36895  33.566  41.973  11.057
73128W        W36896  19.707  24.025   0.348
73129W        W36897   5.798   4.805  13.835
73130W        W36898  24.626   8.829   9.938
73131W        W36899   9.267   7.200  13.394
73132W        W36900  17.633  33.526  11.610
73133W        W36901  21.145  38.462   3.785
73134W        W36902  30.913  17.200   2.233
73135W        W36903  15.807   3.949   2.733
73136W        W36904  19.714  25.192   9.977
73137W        W36905   2.824  35.531  12.009
73138W        W36906  39.546  22.665   3.154
73139W        W36907  38.035  43.802  12.874
73140W        W36908  39.328  38.392  14.336
73141W        W36909  43.018   7.191  13.471
73142W        W36910  42.407  35.443   4.692
73143W        W36911  38.468  31.497   2.234
73144W        W36912  25.132  38.486  11.065
73145W        W36913  10.750   8.675  11.445
73146W        W36914   2.806  38.946   2.248
73147W        W36915   2.951  23.073   0.752
73148W        W36916  19.056   9.664   4.743
73149W        W36917  42.990  27.578  11.542
73150W        W36918  28.579  31.052  14.870
73151W        W36919  23.992  25.478   3.316
73152W        W36920   8.213  17.679   2.815
73153W        W36921  40.422  31.950   4.729
73154W        W36922   8.817  28.568  12.464
73155W        W36923   0.804  28.479   0.800
73156W        W36924  41.869  17.572   1.813
73157W        W36925  10.644  34.909  13.933
73158W        W36926   1.280  13.771   0.768
73159W        W36927  35.393  38.467   4.204
73160W        W36928  28.167   3.813  11.981
73161W        W36929  43.848  36.969  10.902
73162W        W36930   7.900  19.205   3.689
73163W        W36931  32.587   3.901   1.817
73164W        W36932  18.610  30.500   2.230
73165W        W36933  15.649  41.362   4.709
73166W        W36934   9.367  22.580   0.299
73167W        W36935   7.691  29.984  11.092
73168W        W36936  32.910  30.422   1.860
73169W        W36937  35.565  43.313  13.979
73170W        W36938  19.182  30.501   4.278
73171W        W36939  31.089  14.632   0.926
73172W        W36940  35.081  15.784  12.850
73173W        W36941   7.830   6.861   2.814
73174W        W36942  42.994  14.115   2.267
73175W        W36943  27.615  12.780   5.610
73176W        W36944  39.855  16.574  13.906
73177W        W36945  34.908   5.885  12.379
73178W        W36946   1.857  31.587  11.413
73179W        W36947   0.405  33.048  14.335
73180W        W36948  40.450   7.323  10.551
73181W        W36949   5.265  21.077   0.362
73182W        W36950   9.379  19.248  10.573
73183W        W36951  24.601  34.588  13.949
73184W        W36952  31.403  14.676   2.825
73185W        W36953  21.127  20.057  11.110
73186W        W36954  16.174  16.241   3.750
73187W        W36955  37.074  35.365  11.874
73188W        W36956   2.330   3.813  14.017
73189W        W36957  22.141  16.255   3.685
73190W        W36958  19.252  26.602  13.399
73191W        W36959  32.505  44.470   9.981
73192W        W36960   1.263  34.373   3.204
73193W        W36961  33.516  11.295   2.302
73194W        W36962  30.995   0.905   1.361
73195W        W36963  39.016  29.060   0.856
73196W        W36964  28.936  31.144  11.044
73197W        W36965   6.277  22.739  13.504
73198W        W36966   9.257   9.354  14.887
73199W        W36967  37.534  13.612   3.275
73200W        W36968   7.339  15.645  11.092
73201W        W36969  37.977  42.843   2.867
73202W        W36970  25.556  21.064  11.060
73203W        W36971  23.526  14.731   2.376
73204W        W36972  39.364   8.249  14.989
73205W        W36973  19.236  37.380   2.750
73206W        W36974   3.395   7.846   4.212
73207W        W36975   8.759  10.655  12.443
73208W        W36976  30.639  23.657   4.343
73209W        W36977   6.859  15.230  13.902
73210W        W36978  40.488   9.720   4.251
73211W        W36979  44.274   7.348   2.791
73212W        W36980  35.004  27.126  10.483
73213W        W36981  14.324  17.261  10.041
73214W        W36982  44.964  13.749  11.105
73215W        W36983   3.764   2.824  13.326
73216W        W36984  16.277  12.148  11.531
73217W        W36985  41.006  36.990  14.488
73218W        W36986  30.450  16.133   2.293
73219W        W36987  23.535   4.908   0.273
73220W        W36988  15.142  15.159  12.372
73221W        W36989  20.676  25.140  11.469
73222W        W36990  43.351  18.052  12.067
73223W        W36991   2.391  44.504   5.260
73224W        W36992  12.296  23.235  14.470
73225W        W36993  32.983  43.330   2.889
73226W        W36994  33.111  21.258   2.751
73227W        W36995   5.295  33.622  12.555
73228W        W36996  41.482  28.170  11.013
73229W        W36997  14.831  35.372   3.689
73230W        W36998  11.362  41.001  12.356
73231W        W36999  28.619  23.646   4.341
73232W        W37000  26.661   7.294   3.318
73233W        W37001   1.748  10.730  11.416
73234W        W37002   3.714  19.690  11.589
73235W        W37003  26.506   0.807   0.853
73236W        W37004   4.861  24.197  10.561
73237W        W37005  34.478  16.755   1.913
73238W        W37006   7.812  30.536   1.352
73239W        W37007  10.236  37.986   0.477
73240W        W37008   7.849  17.139  11.481
73241W        W37009  12.206  11.171  10.615
73242W        W37010  32.432  34.485   4.626
73243W        W37011  44.988  26.979  12.520
73244W        W37012  21.719   1.385  13.883
73245W        W37013  13.805  29.167  10.631
73246W        W37014  34.905   5.247   3.795
73247W        W37015  28.533   1.300   1.210
73248W        W37016  31.592  14.612  10.454
73249W        W37017  40.491  36.899  13.461
73250W        W37018   1.968  12.742  12.421
73251W        W37019   5.285  28.978   0.372
73252W        W37020   8.881   2.268  12.432
73253W        W37021  29.666  30.477  14.514
73254W        W37022   5.915  20.131   1.885
73255W        W37023  12.698  37.581   0.327
73256W        W37024  24.170   0.437   1.870
73257W        W37025  11.249  17.293  11.445
73258W        W37026   7.784  36.464  10.548
73259W        W37027  19.187  36.983   3.833
73260W        W37028  36.537  10.740   1.846
73261W        W37029   1.317   5.225  11.059
73262W        W37030  19.603  24.074  11.585
73263W        W37031  21.161  36.038  10.609
73264W        W37032   4.709  44.306  13.842
73265W        W37033  16.260  33.905  13.531
73266W        W37034  25.130  13.837   1.781
73267W        W37035   6.813   1.903   3.696
73268W        W37036  36.867  31.947  13.986
73269W        W37037  33.949   1.255   4.756
73270W        W37038  13.158  13.685   3.793
73271W        W37039  33.059   2.390   4.263
73272W        W37040   1.333  19.555   0.859
73273W        W37041  41.913   9.387   0.920
73274W        W37042  43.289  39.850  13.862
73275W        W37043  38.334  42.365   4.303
73276W        W37044  27.055  35.900  10.467
73277W        W37045  41.372  18.705  14.942
73278W        W37046  19.248  12.652  14.367
73279W        W37047  11.828  11.802  13.458
73280W        W37048   5.304  21.604   4.267
73281W        W37049  15.281  13.687   0.419
73282W        W37050  21.744   3.803  12.391
73283W        W37051   2.359   5.829   1.813
73284W        W37052  38.976  41.372   0.257
73285W        W37053  22.509  34.423   0.447
73286W        W37054  26.961   2.812   2.403
73287W        W37055  13.766  26.109   0.332
73288W        W37056  16.144  27.478   2.860
73289W        W37057   2.382   7.185   4.799
73290W        W37058   7.374  21.028  10.509
73291W        W37059  40.041  13.208   2.724
73292W        W37060  20.168   3.927  11.915
73293W        W37061   2.963   2.815   3.659
73294W        W37062  23.579  25.639  11.958
73295W        W37063  16.797  24.981   1.907
73296W        W37064   2.813  20.539  13.027
73297W        W37065  32.117   1.442  14.291
73298W        W37066  15.315  29.995  13.462
73299W        W37067  34.094  23.499  12.544
73300W        W37068   7.263  13.251  14.876
73301W        W37069  31.418  14.638   1.721
73302W        W37070   6.861  18.636   1.291
73303W        W37071  38.943   2.247   4.632
73304W        W37072  40.040  29.063  14.014
73305W        W37073   0.846   2.255  12.071
73306W        W37074   7.750  36.571  14.948
73307W        W37075  28.621  30.612   4.602
73308W        W37076  13.201  34.585  14.833
73309W        W37077  32.914  22.032   4.813
73310W        W37078   2.373  21.079   0.434
73311W        W37079  39.893  37.511  12.384
73312W        W37080  13.635  42.473   1.449
73313W        W37081   0.262  27.952  14.495
73314W        W37082  39.398   9.713   0.462
73315W        W37083   7.381   8.377  12.006
73316W        W37084   0.977   7.673  11.472
73317W        W37085  22.648   8.898   2.349
73318W        W37086   6.717  11.199   3.853
73319W        W37087  25.581   6.414   4.769
73320W        W37088  20.263   3.817   0.751
73321W        W37089  23.047  11.213  12.970
73322W        W37090  20.738   4.830   0.801
73323W        W37091  22.242   8.761   3.807
73324W        W37092   4.279   7.328  10.406
73325W        W37093  24.501  38.864  10.916
73326W        W37094  19.772  22.616  12.533
73327W        W37095  40.983   5.365  11.549
73328W        W37096  22.081  28.074  10.617
73329W        W37097  24.188  33.563   0.838
73330W        W37098  36.969  17.117   1.307
73331W        W37099  37.030   4.311  13.839
73332W        W37100   6.712   9.773   4.326
73333W        W37101   7.211   6.419   2.207
73334W        W37102  36.431  32.612   4.598
73335W        W37103  14.826  33.047   1.862
73336W        W37104  18.547  11.763   2.207
73337W        W37105  37.405  34.560  12.575
73338W        W37106  29.949  30.540   1.855
73339W        W37107  13.137  35.933   3.678
73340W        W37108  36.072  32.410   3.800
73341W        W37109  37.408  23.059  14.369
73342W        W37110  20.205   8.888  14.934
73343W        W37111  29.035  19.174   3.386
73344W        W37112  33.559  41.327   2.673
73345W        W37113  30.076   7.348  14.781
73346W        W37114  23.676  15.274  10.953
73347W        W37115  43.412  32.945  14.029
73348W        W37116   9.151   7.775   2.782
73349W        W37117  27.150   2.922  11.587
73350W        W37118  39.844   5.196   1.720
73351W        W37119   9.885  21.171  10.430
73352W        W37120  13.701  38.476   3.177
73353W        W37121   7.907  21.563   3.727
73354W        W37122  29.551  33.408  13.470
73355W        W37123  20.081  12.701   0.949
73356W        W37124  27.959  41.296   0.774
73357W        W37125  32.416   0.844  11.870
73358W        W37126  42.360  22.190   0.734
73359W        W37127  35.483  24.649   4.645
73360W        W37128  37.014  10.344   3.784
73361W        W37129  19.099  41.362  10.937
73362W        W37130  10.793  18.170  14.307
73363W        W37131   8.342   7.699   1.830
73364W        W37132  31.420  23.587  12.862
73365W        W37133  44.834  39.855  12.501
73366W        W37134   7.226  39.953   2.181
73367W        W37135   3.743  42.512  13.367
73368W        W37136  38.880  35.544   1.713
73369W        W37137  39.963  18.623   0.274
73370W        W37138  11.636  42.316  11.880
73371W        W37139   1.849  34.010   2.740
73372W        W37140  39.043  25.641  13.376
73373W        W37141  15.612  37.475  14.936
73374W        W37142   2.757   7.328  10.996
73375W        W37143  39.919  41.833  13.338
73376W        W37144   1.385  43.949  12.444
73377W        W37145  15.582   3.943  14.856
73378W        W37146  39.926  27.514  14.363
73379W        W37147  20.107  24.010  12.576
73380W        W37148  22.685  22.167   0.439
73381W        W37149  28.657   8.288   2.723
73382W        W37150  19.610  34.105  12.891
73383W        W37151   9.217   2.965  11.408
73384W        W37152  13.150  19.545  11.951
73385W        W37153   1.953   8.204  11.963
73386W        W37154  12.802  17.667  13.011
73387W        W37155   4.884  22.539  12.993
73388W        W37156  31.940  38.332  14.297
73389W        W37157  32.621  33.442   2.181
73390W        W37158  31.898  30.646  11.577
73391W        W37159  10.802  22.638  10.935
73392W        W37160  33.037  10.336  10.015
73393W        W37161  29.562   2.796  11.933
73394W        W37162  24.490  38.993  11.915
73395W        W37163  41.941  36.090  11.442
73396W        W37164  39.487  32.060  14.484
73397W        W37165  10.248  43.839   2.332
73398W        W37166   2.379  38.068   2.263
73399W        W37167  29.498  22.516  11.003
73400W        W37168  27.603  44.894   3.352
73401W        W37169  17.592   7.750  10.490
73402W        W37170  32.565  15.254   3.161
73403W        W37171   0.824   4.423   1.848
73404W        W37172  23.080  13.746  11.871
73405W        W37173  37.073  12.639   4.731
73406W        W37174  11.128  26.600  12.394
73407W        W37175  24.226  44.448  12.499
73408W        W37176   8.722  25.064  11.126
73409W        W37177  39.371   8.718  13.930
73410W        W37178  10.142  33.546   3.768
73411W        W37179  13.241  39.383  12.535
73412W        W37180  38.857  28.670  11.902
73413W        W37181  38.494  40.034  12.888
73414W        W37182  13.170  24.679  11.961
73415W        W37183  15.233  23.013  13.949
73416W        W37184  12.850  31.605  12.933
73417W        W37185  28.666  35.860   3.769
73418W        W37186  30.130  36.973  13.356
73419W        W37187  21.184  42.004  11.035
73420W        W37188  14.312  15.101   3.815
73421W        W37189   8.749  43.004   0.262
73422W        W37190   4.351  22.601  11.112
73423W        W37191  10.734  18.197   3.334
73424W        W37192  18.766  11.331  11.397
73425W        W37193  37.957  18.661   2.735
73426W        W37194  31.411   7.820  13.816
73427W        W37195  30.164  37.896  10.566
73428W        W37196  44.433  22.012  14.933
73429W        W37197   4.709  14.147  12.569
73430W        W37198   1.430  38.518   4.203
73431W        W37199   7.260  23.117   3.336
73432W        W37200  42.391   7.182  13.502
73433W        W37201  39.482  30.003  14.342
73434W        W37202  28.657  32.961   4.149
73435W        W37203  36.902   5.781   0.409
73436W        W37204   4.895  19.092  13.064
73437W        W37205  28.171  15.681  13.314
73438W        W37206  15.770   6.212  11.942
73439W        W37207  19.568  38.365  13.050
73440W        W37208  16.764   6.324  11.122
73441W        W37209  41.949  33.493  11.003
73442W        W37210  23.626  30.921   2.367
73443W        W37211  22.571   3.310   5.266
73444W        W37212  18.155  21.554   2.413
73445W        W37213   1.390  30.621   0.893
73446W        W37214  25.559   7.853  14.773
73447W        W37215  34.076  22.248   4.731
73448W        W37216  31.490  10.267   3.218
73449W        W37217   6.840  12.182   3.648
73450W        W37218   4.704  36.491   0.464
73451W        W37219  43.318   8.667   4.764
73452W        W37220  44.994  17.192   2.264
73453W        W37221  37.567  17.622   1.839
73454W        W37222  23.031  24.005   4.619
73455W        W37223  35.487  24.170   4.824
73456W        W37224  17.224   2.301   4.685
73457W        W37225  25.478   1.923  11.910
73458W        W37226  30.486  44.855  10.922
73459W        W37227  33.454  24.108  14.454
73460W        W37228  14.743  32.394   1.335
73461W        W37229  30.475   9.155  10.632
73462W        W37230  32.143  15.804  14.366
73463W        W37231  44.869   8.840  10.426
73464W        W37232  38.376  19.668  14.814
73465W        W37233   0.807  37.965   4.201
73466W        W37234  20.150   5.305   4.283
73467W        W37235  28.984   9.705  10.973
73468W        W37236   7.271   8.813   1.923
73469W        W37237   4.907  37.864   2.680
73470W        W37238   5.839   3.836  13.955
73471W        W37239   2.433  29.581   2.753
73472W        W37240  14.253  29.437   4.242
73473W        W37241  19.241  44.486  10.960
73474W        W37242  37.461  44.777  12.020
73475W        W37243   3.815  20.084   2.832
73476W        W37244   9.287  32.592   3.844
73477W        W37245  22.537  43.341  14.994
73478W        W37246   8.167  30.489  12.452
73479W        W37247  44.909  32.088   5.182
73480W        W37248  30.567   8.164  11.923
73481W        W37249  16.787  12.778   4.127
73482W        W37250  38.377  28.932   4.270
73483W        W37251  24.601  26.058  13.790
73484W        W37252   2.954  24.190   0.255
73485W        W37253  10.236  30.938  13.059
73486W        W37254  18.252  39.521   2.268
73487W        W37255  37.896  20.713   3.288
73488W        W37256  14.820   5.221   3.177
73489W        W37257  29.961  23.680   0.852
73490W        W37258   3.302   6.753  12.018
73491W        W37259  42.312  21.115  13.885
73492W        W37260  28.107  14.100  13.882
73493W        W37261  37.414   3.244  13.392
73494W        W37262  43.453  16.267   0.327
73495W        W37263  12.779  30.114   3.316
73496W        W37264  44.964  39.382  11.970
73497W        W37265  13.199  23.652   1.306
73498W        W37266  20.649  22.998   4.636
73499W        W37267  29.923  40.449  11.003
73500W        W37268  14.187  27.116   2.205
73501W        W37269  27.677  42.802  14.865
73502W        W37270  28.134  10.690  12.926
73503W        W37271  24.186  32.536  12.939
73504W        W37272   7.377  40.456  13.329
73505W        W37273  35.096  19.683   3.654
73506W        W37274  18.139  28.070  13.522
73507W        W37275   4.799  40.918   4.710
73508W        W37276   7.331  16.703   4.292
73509W        W37277  35.547  24.583   3.228
73510W        W37278  31.921   7.179   4.250
73511W        W37279  11.756  11.851   2.234
73512W        W37280  31.999  24.058  12.486
73513W        W37281  39.398   6.370   5.242
73514W        W37282   8.354  13.807   4.649
73515W        W37283   1.388   8.188  12.980
73516W        W37284  38.533  14.831   1.237
73517W        W37285  23.594  23.189  13.431
73518W        W37286  23.552  28.654   1.328
73519W        W37287   8.885  14.688   0.345
73520W        W37288  25.484  43.312  14.439
73521W        W37289  18.275   7.694   3.180
73522W        W37290  42.819   5.250  14.367
73523W        W37291  42.981  30.022  12.517
73524W        W37292  13.154  23.628  14.828
73525W        W37293  17.658  27.172  12.359
73526W        W37294   1.747  37.891  14.471
73527W        W37295  20.692  41.798  13.912
73528W        W37296   9.728  31.897  14.776
73529W        W37297  30.138  44.771  14.986
73530W        W37298  19.227   0.456   1.725
73531W        W37299  40.849   3.228   2.379
73532W        W37300  17.205  12.797  13.923
73533W        W37301  21.099  23.501  11.595
73534W        W37302  11.178   1.739   1.740
73535W        W37303  17.102  42.990   3.716
73536W        W37304  41.935  24.020  13.797
73537W        W37305  26.471  33.994   2.418
73538W        W37306   2.810  36.536   3.176
73539W        W37307   3.303  26.464  12.490
73540W        W37308  33.063  38.361   3.714
73541W        W37309  26.637  41.894   2.222
73542W        W37310  40.944  44.269  14.801
73543W        W37311  14.640  15.784  10.150
73544W        W37312  18.676  35.542   1.708
73545W        W37313   6.742  18.711   4.233
73546W        W37314  20.230  39.957   2.733
73547W        W37315  28.680  20.690   4.825
73548W        W37316  11.826  26.594   0.852
73549W        W37317  17.684  25.579  11.926
73550W        W37318  43.764  21.513  11.459
73551W        W37319  21.681   4.396  14.898
73552W        W37320  37.868  40.406   4.597
73553W        W37321  25.697  15.133   1.883
73554W        W37322  14.232  35.876   2.223
73555W        W37323  32.392  32.944   2.799
73556W        W37324  44.343  19.679  11.428
73557W        W37325  30.593  27.945   0.254
73558W        W37326  14.691  10.756  12.469
73559W        W37327  26.971   3.398  13.465
73560W        W37328  20.137  44.311   0.423
73561W        W37329  26.968  22.662   1.710
73562W        W37330  44.964   4.852   1.762
73563W        W37331   9.701  26.595  11.578
73564W        W37332  35.516  25.194   5.081
73565W        W37333  42.812  24.689   0.954
73566W        W37334  26.980  20.187   0.366
73567W        W37335  27.985  31.574  10.537
73568W        W37336  14.117  31.128   1.725
73569W        W37337  36.577  23.656  13.932
73570W        W37338   6.416   6.827   3.836
73571W        W37339  43.984  20.264   4.645
73572W        W37340   4.792  28.022  13.901
73573W        W37341   5.367  27.470  13.524
73574W        W37342  38.047  12.140  14.326
73575W        W37343   7.312  34.867   3.369
73576W        W37344  31.039   3.397   0.263
73577W        W37345  18.171  28.061  12.057
73578W        W37346  44.836  13.758  10.588
73579W        W37347   6.695   8.776   4.616
73580W        W37348  14.149  38.008   4.295
73581W        W37349   1.788   9.355   4.141
73582W        W37350   4.280   6.294   2.847
73583W        W37351   4.410  38.509   1.360
73584W        W37352   0.474  42.850   0.885
73585W        W37353   4.828   7.814  11.083
73586W        W37354  26.181  22.166  11.430
73587W        W37355  30.516  11.827   2.278
73588W        W37356  21.537  32.924   1.261
73589W        W37357  13.654  16.576  10.431
73590W        W37358  26.051   4.315  13.946
73591W        W37359   8.753  17.179  11.379
73592W        W37360  36.000  29.099   3.631
73593W        W37361   2.306   1.803   4.307
73594W        W37362  16.085  10.338   1.781
73595W        W37363   0.249  43.410   1.291
73596W        W37364  14.135  10.858  12.374
73597W        W37365   0.276  31.011   1.225
73598W        W37366  25.028  36.568  13.864
73599W        W37367   9.286  12.197   3.793
73600W        W37368  31.491  19.044  14.826
73601W        W37369  33.442  29.975  13.374
73602W        W37370   0.896  25.482  13.418
73603W        W37371  43.366  19.182  13.457
73604W        W37372  40.523   5.880   3.330
73605W        W37373  41.363  39.438   1.818
73606W        W37374  32.429  42.436   2.198
73607W        W37375  29.001  30.918  14.929
73608W        W37376  11.817  13.808  12.080
73609W        W37377  44.320  39.961  14.926
73610W        W37378  23.523  21.073   0.333
73611W        W37379  13.650  33.934   1.761
73612W        W37380  14.756  36.085  12.905
73613W        W37381  26.590  32.566   0.380
73614W        W37382  22.553  28.595   1.697
73615W        W37383  22.194  43.421  13.937
73616W        W37384  31.431   9.744  14.281
73617W        W37385  13.300  43.301   3.785
73618W        W37386  19.138  37.006   0.292
73619W        W37387   8.344   5.424   1.360
73620W        W37388  18.238  22.732   3.222
73621W        W37389  25.551  37.950   4.221
73622W        W37390  37.383  32.061  11.023
73623W        W37391   9.313  13.289  14.285
73624W        W37392  17.285  32.100   4.753
73625W        W37393   8.295  34.434  13.845
73626W        W37394  19.741  36.379   4.778
73627W        W37395   0.822   5.258   2.712
73628W        W37396  41.444   1.801  13.807
73629W        W37397  20.538   8.837  13.852
73630W        W37398  24.045   2.253  10.603
73631W        W37399  33.092  37.339  12.346
73632W        W37400  36.588  21.150   1.305
73633W        W37401   3.257  18.132  12.429
73634W        W37402  36.988  43.370   0.727
73635W        W37403  42.805  36.063  13.003
73636W        W37404  27.105  14.737   5.292
73637W        W37405  21.082   9.200   0.258
73638W        W37406  33.081  44.292  12.917
73639W        W37407   3.854  33.394  11.913
73640W        W37408  10.230  37.472   3.692
73641W        W37409  28.677  25.643   4.132
73642W        W37410  44.804   1.871  13.973
73643W        W37411  21.586  25.567  11.558
73644W        W37412   1.869  19.615   4.777
73645W        W37413  33.607   3.409  11.489
73646W        W37414  33.576  14.107  14.011
73647W        W37415  34.381  34.066  11.554
73648W        W37416  24.169   4.945  12.469
73649W        W37417   4.320  36.443   0.845
73650W        W37418  39.494  36.349  13.317
73651W        W37419   8.778  35.021   3.203
73652W        W37420   3.232  27.685  13.484
73653W        W37421  43.345   5.899  14.833
73654W        W37422   5.367  25.577  13.878
73655W        W37423  13.176  12.356  12.045
73656W        W37424  28.647  41.842  14.502
73657W        W37425  21.535  18.704  14.885
73658W        W37426  42.392  26.604   4.717
73659W        W37427  39.430  16.678  11.963
73660W        W37428   4.870  22.124  10.610
73661W        W37429  31.456  21.531  13.850
73662W        W37430  18.111  32.041   1.728
73663W        W37431  27.522  34.041  11.927
73664W        W37432  29.157  44.360  11.375
73665W        W37433  17.589  36.462  10.523
73666W        W37434  32.612   1.466  12.354
73667W        W37435  31.460  41.946   3.336
73668W        W37436  24.012  11.182   1.914
73669W        W37437  26.551  16.627   2.763
73670W        W37438   8.303  39.920  13.496
73671W        W37439  30.568  16.729   3.156
73672W        W37440  43.346  32.064  11.950
73673W        W37441  14.215  20.567  13.839
73674W        W37442  37.480  31.942   2.772
73675W        W37443  26.185  37.854   1.885
73676W        W37444  36.458  11.641   3.305
73677W        W37445  26.058  33.960   0.812
73678W        W37446  13.349  39.878   4.687
73679W        W37447  33.969  24.723   4.742
73680W        W37448  42.819  14.824  14.922
73681W        W37449  28.584  18.176  11.898
73682W        W37450  26.002   0.295   0.394
73683W        W37451  44.427  33.022   4.238
73684W        W37452  27.547  14.652   3.321
73685W        W37453  42.290  10.691   1.703
73686W        W37454   4.234  19.270  11.004
73687W        W37455   8.709  11.152  14.927
73688W        W37456   3.248   4.333   3.336
73689W        W37457   3.822  41.485   4.642
73690W        W37458   4.826   5.784  13.336
73691W        W37459  11.751  28.677   1.226
73692W        W37460  19.255   1.246  13.404
73693W        W37461   0.864   8.815   1.729
73694W        W37462  37.462  19.731  12.097
73695W        W37463  36.547  13.320  14.962
73696W        W37464  12.833   0.811   0.817
73697W        W37465  27.992  34.901  12.392
73698W        W37466  25.608  22.693   1.885
73699W        W37467  44.957  31.497  13.408
73700W        W37468  31.525  19.586  11.534
73701W        W37469  39.991  40.051  12.090
73702W        W37470  39.945   5.748   4.611
73703W        W37471  38.330  42.910   4.827
73704W        W37472  10.345  19.192   3.802
73705W        W37473   8.374  13.831  12.990
73706W        W37474  42.866   5.761  10.992
73707W        W37475   4.261   8.888  14.288
73708W        W37476   8.807  25.132  14.988
73709W        W37477  28.011  43.367  14.982
73710W        W37478   5.924  40.808  11.101
73711W        W37479  24.187  15.308  12.390
73712W        W37480  27.568   4.236  13.804
73713W        W37481  37.376  38.514  14.438
73714W        W37482  21.578  11.787  10.126
73715W        W37483  10.225  32.419   0.422
73716W        W37484  36.016  12.283  14.502
73717W        W37485  28.511  13.663   1.804
73718W        W37486  12.311  42.288   4.599
73719W        W37487  15.190   2.349  12.916
73720W        W37488  21.651  17.156  14.349
73721W        W37489  19.129  40.933  14.288
73722W        W37490  15.114   3.910   0.362
73723W        W37491   0.943  15.312   0.482
73724W        W37492   7.273  38.455  14.004
73725W        W37493  40.055  38.827   2.375
73726W        W37494  41.425  30.462   5.111
73727W        W37495  24.135  40.044   0.453
73728W        W37496   4.881   9.342  11.570
73729W        W37497  40.925  16.675   3.674
73730W        W37498  27.604   9.770  12.408
73731W        W37499  21.743  38.006   0.465
73732W        W37500   7.755  44.408   4.275
73733W        W37501   3.246  36.548  11.564
73734W        W37502  44.903  37.933   1.257
73735W        W37503  44.814  43.016   0.378
73736W        W37504  20.611  40.983   0.442
73737W        W37505  34.430   8.180   2.282
73738W        W37506  40.480  15.659   1.242
73739W        W37507  42.001  42.931  13.500
73740W        W37508  38.993  20.565   2.746
73741W        W37509  23.225  40.864  10.453
73742W        W37510  24.057  21.082  13.496
73743W        W37511  13.714  41.494   0.471
73744W        W37512  27.638  38.060   4.231
73745W        W37513  29.126  28.601  12.521
73746W        W37514   2.249  38.500  14.796
73747W        W37515  41.341  20.586   4.656
73748W        W37516   2.801   5.204  11.053
73749W        W37517  24.070  11.752  14.000
73750W        W37518  16.634   2.265  11.583
73751W        W37519  29.094  16.813  10.436
73752W        W37520  29.646  39.829  10.561
73753W        W37521  17.743  31.459   1.883
73754W        W37522  23.233  26.032   2.251
73755W        W37523   0.337  44.267  14.368
73756W        W37524  35.522   0.333   3.777
73757W        W37525  37.530   2.413   0.411
73758W        W37526   1.271  15.767   4.345
73759W        W37527  33.938  16.072  12.576
73760W        W37528   6.841  27.592   0.358
73761W        W37529  10.244  10.374  10.915
73762W        W37530  44.841   6.288  11.859
73763W        W37531  17.735   0.867  11.981
73764W        W37532  14.320  19.151  10.614
73765W        W37533  20.096  20.192  10.915
73766W        W37534  19.655  42.830  12.976
73767W        W37535  31.569  40.891   4.207
73768W        W37536  37.932  33.613   0.382
73769W        W37537  33.049   9.302  14.908
73770W        W37538  27.994   7.231   4.191
73771W        W37539  42.882  31.008  14.350
73772W        W37540   9.682  35.482  11.481
73773W        W37541  29.040  44.324  13.546
73774W        W37542  20.726  29.083   1.935
73775W        W37543  36.504  32.085   1.431
73776W        W37544  41.386  13.266  12.366
73777W        W37545   1.910  43.357   3.201
73778W        W37546  33.417   6.229  14.928
73779W        W37547  23.685  43.969  13.480
73780W        W37548   0.264   5.294   0.795
73781W        W37549  35.006  26.491  13.379
73782W        W37550  24.987  44.962   0.954
73783W        W37551  38.955  16.743   1.249
73784W        W37552  32.607  39.949  14.767
73785W        W37553  31.634  16.802   2.834
73786W        W37554  12.765  22.233  13.532
73787W        W37555  24.562  20.664  13.546
73788W        W37556   8.234  22.641   1.908
73789W        W37557  20.116   3.770  13.325
73790W        W37558  19.739  31.636  14.019
73791W        W37559  32.524  33.513  14.997
73792W        W37560  41.885  26.964   3.799
73793W        W37561  13.176  16.726  12.007
73794W        W37562  13.259   1.313   2.258
73795W        W37563  21.214  32.534   4.185
73796W        W37564  23.988   6.694  10.479
73797W        W37565  42.016   4.336   1.714
73798W        W37566  14.167   0.808  11.115
73799W        W37567  17.762  26.040   4.732
73800W        W37568  43.299  36.034   0.818
73801W        W37569  39.349  29.005   4.680
73802W        W37570  40.049  20.149  12.349
73803W        W37571  16.566   8.296   3.153
73804W        W37572  38.024   4.936   2.732
73805W        W37573  27.689  13.198  13.497
73806W        W37574  34.441  35.393   2.320
73807W        W37575  35.366   6.283   4.773
73808W        W37576  30.427  26.147   2.877
73809W        W37577  31.421   1.421   1.240
73810W        W37578   8.754   7.214  13.886
73811W        W37579  27.098  28.029   3.808
73812W        W37580  25.676  30.059  10.575
73813W        W37581  28.968  25.127   2.867
73814W        W37582  29.087  13.195  13.377
73815W        W37583  44.804  40.974   1.397
73816W        W37584   9.816   4.920   3.253
73817W        W37585  18.771  44.942  14.292
73818W        W37586  26.994  25.530   4.285
73819W        W37587   0.448  36.369   2.836
73820W        W37588  36.414   2.395  11.506
73821W        W37589  39.508  29.094  10.957
73822W        W37590  12.129  27.491  10.438
73823W        W37591  30.065  18.647  13.440
73824W        W37592  32.418  36.020   0.282
73825W        W37593  12.326  27.516  11.077
73826W        W37594  17.800  16.687  11.442
73827W        W37595  33.608  32.541   2.377
73828W        W37596  20.712  32.515  12.905
73829W        W37597  33.437  42.309  11.439
73830W        W37598  43.317   6.296  13.384
73831W        W37599  15.698  33.922   1.451
73832W        W37600   8.661  30.605   3.841
73833W        W37601  33.934  16.782   3.661
73834W        W37602   1.346  32.967  12.969
73835W        W37603  10.310  40.349  13.395
73836W        W37604  26.997  40.874   4.746
73837W        W37605  28.466   6.255   3.796
73838W        W37606  16.809   5.356  12.995
73839W        W37607   1.282   6.292   3.375
73840W        W37608  27.460  35.941  12.395
73841W        W37609  24.540  15.201   3.258
73842W        W37610  14.214  32.132   2.726
73843W        W37611   4.710   4.798   4.742
73844W        W37612  14.287  16.803   1.870
73845W        W37613  36.851  14.134  13.839
73846W        W37614  42.943  23.733  14.289
73847W        W37615  29.990  34.419   0.932
73848W        W37616  15.271  36.029  13.522
73849W        W37617   9.380   5.229  12.519
73850W        W37618   7.819  28.186  11.874
73851W        W37619  11.158  40.446   2.210
73852W        W37620   8.260  34.895  14.359
73853W        W37621  26.457  19.755  10.974
73854W        W37622  44.849  35.030  11.899
73855W        W37623  34.406  14.257  12.456
73856W        W37624  35.476  15.086   1.449
73857W        W37625   0.883  41.416   1.393
73858W        W37626  42.908   6.394  13.894
73859W        W37627  12.633  27.621   1.271
73860W        W37628  22.600   7.367  14.384
73861W        W37629  44.985  12.359   1.703
73862W        W37630  39.421  44.958   2.749
73863W        W37631  40.387  42.845   5.143
73864W        W37632  28.149   7.837  10.633
73865W        W37633   9.170  26.060  12.531
73866W        W37634  14.248  28.438  13.817
73867W        W37635   5.268  26.526  12.424
73868W        W37636  11.318   6.195  10.477
73869W        W37637   4.312  29.959   2.760
73870W        W37638  23.165  37.578  13.474
73871W        W37639  16.774  40.454  14.016
73872W        W37640  23.585  26.012   1.429
73873W        W37641  25.031   6.721  11.957
73874W        W37642   9.831  24.188  13.326
73875W        W37643  31.943  15.609  11.443
73876W        W37644  35.447  38.388  12.840
73877W        W37645  20.540   6.260  14.001
73878W        W37646  13.118  35.383  13.366
73879W        W37647   2.734  33.458  12.391
73880W        W37648  12.329  14.697  11.975
73881W        W37649  25.579  33.080   2.735
73882W        W37650  37.423   0.789   0.293
73883W        W37651   6.223  44.761   2.739
73884W        W37652  38.459  18.753  11.982
73885W        W37653   5.759  27.058   2.255
73886W        W37654  44.350  13.201   3.843
73887W        W37655  25.200  24.649   0.319
73888W        W37656   6.389  29.120  14.961
73889W        W37657  11.358  33.619   0.948
73890W        W37658   1.899  31.035   2.285
73891W        W37659   9.658   3.292   3.798
73892W        W37660  23.044  41.481  10.523
73893W        W37661  10.278  34.096  12.541
73894W        W37662  34.494  40.860  10.619
73895W        W37663  20.660  11.280   1.242
73896W        W37664  17.650  41.913   3.671
73897W        W37665  22.996   7.833   0.828
73898W        W37666   5.707  42.915   0.409
73899W        W37667   3.418  30.908   4.330
73900W        W37668  24.158  31.940   2.801
73901W        W37669  44.939  35.514   4.715
73902W        W37670   8.328  22.184  11.031
73903W        W37671   0.955  33.993   2.882
73904W        W37672   5.759   8.346  10.473
73905W        W37673  22.690  15.101   1.278
73906W        W37674  33.423  14.298  14.404
73907W        W37675  11.633  21.755  14.333
73908W        W37676   0.988   8.722  12.487
73909W        W37677  33.446  37.503  11.860
73910W        W37678  33.610  41.890   2.364
73911W        W37679  39.350  18.590   4.262
73912W        W37680  14.211  14.812   1.926
73913W        W37681  25.489   3.290  11.546
73914W        W37682  35.482  15.256   4.716
73915W        W37683  28.509  42.982  12.944
73916W        W37684  24.581  12.649  13.465
73917W        W37685  19.039  24.024   1.315
73918W        W37686   1.921  25.555  10.527
73919W        W37687  42.891  19.225   2.191
73920W        W37688  30.613  22.634   0.320
73921W        W37689   0.753  21.097  14.020
73922W        W37690  20.631  27.608  10.934
73923W        W37691  13.284   8.382  14.976
73924W        W37692  26.006  14.263   2.774
73925W        W37693  43.275  15.765  14.395
73926W        W37694  24.614  43.470  13.365
73927W        W37695  37.352  21.726  10.588
73928W        W37696  18.161  36.546   5.282
73929W        W37697   9.850  34.576   2.878
73930W        W37698  39.965   8.835  10.106
73931W        W37699   2.720  39.369   5.729
73932W        W37700  44.811  21.734  12.069
73933W        W37701  24.145   8.872  13.955
73934W        W37702  44.389  18.550   3.730
73935W        W37703  32.438  21.091  14.470
73936W        W37704  15.312  27.647   1.824
73937W        W37705   6.752  29.503   3.639
73938W        W37706  12.326  38.025  10.968
73939W        W37707  37.925  25.967   1.417
73940W        W37708  38.064  35.060  13.060
73941W        W37709   5.882  44.363  11.598
73942W        W37710  27.110  25.601  12.475
73943W        W37711  25.023   5.905   4.826
73944W        W37712  30.474  35.532   4.671
73945W        W37713  13.260  24.137  14.491
73946W        W37714   9.798   0.475  12.381
73947W        W37715  38.967  25.495  12.379
73948W        W37716  12.612  41.496   4.304
73949W        W37717   0.477  36.067  14.927
73950W        W37718  31.149  25.181   0.317
73951W        W37719  36.051  29.027  12.400
73952W        W37720  25.625  13.230  11.898
73953W        W37721  32.622  18.188   4.686
73954W        W37722  32.890  37.027   0.382
73955W        W37723  40.429   2.767  13.990
73956W        W37724  23.190  38.340  14.453
73957W        W37725  35.942  11.646  12.430
73958W        W37726   2.259  24.137  13.383
73959W        W37727  34.567  31.974  11.396
73960W        W37728  12.223  11.306  10.088
73961W        W37729  12.692  38.367  13.320
73962W        W37730  29.935  23.193   3.799
73963W        W37731   8.661   1.462   2.353
73964W        W37732  38.532   4.386   1.847
73965W        W37733  29.474   0.248   3.289
73966W        W37734  36.479  26.015  12.343
73967W        W37735  15.197  23.582  12.453
73968W        W37736  44.822  26.510  11.494
73969W        W37737  11.363  34.112  12.859
73970W        W37738  40.048  11.622   1.795
73971W        W37739   2.410   7.217   2.397
73972W        W37740   8.170  22.166  14.375
73973W        W37741  30.500   5.340   0.912
73974W        W37742  33.055  40.546  14.025
73975W        W37743  28.027  38.344  11.858
73976W        W37744   5.412  25.502   3.201
73977W        W37745   3.454   5.287   4.318
73978W        W37746   5.862  43.448   2.728
73979W        W37747   9.211  25.706   3.788
73980W        W37748   4.789   1.815   0.463
73981W        W37749  29.664  26.596  10.981
73982W        W37750   8.307  27.523  14.301
73983W        W37751  31.537  30.104  14.454
73984W        W37752  22.239  26.487  13.489
73985W        W37753  12.760  11.711   3.224
73986W        W37754  10.689   6.861   0.791
73987W        W37755  22.737   9.847   4.716
73988W        W37756  13.765  10.225  11.048
73989W        W37757  41.398  29.623  14.408
73990W        W37758  26.481  36.052  12.097
73991W        W37759  42.287  23.597  11.121
73992W        W37760  25.706  35.956   1.810
73993W        W37761  30.616  20.700  13.467
73994W        W37762  40.832  38.392  12.838
73995W        W37763  44.451  16.685  11.113
73996W        W37764   7.885  43.971   3.695
73997W        W37765  12.300  44.495   0.319
73998W        W37766  17.278   1.841   3.801
73999W        W37767  36.072  24.600  14.492
74000W        W37768   5.329  36.361  13.857
74001W        W37769  28.549  42.515  14.404
74002W        W37770  38.466  22.133  11.423
74003W        W37771  35.545   0.751  13.961
74004W        W37772  16.233  36.041   0.357
74005W        W37773  34.499  41.933   4.756
74006W        W37774   6.801  19.567   3.644
74007W        W37775  25.059  13.216   1.273
74008W        W37776  11.744   2.445  14.908
74009W        W37777  35.581  41.816  10.535
74010W        W37778  27.102  16.781   0.259
74011W        W37779  13.625   1.923  13.997
74012W        W37780  35.373  17.721  11.931
74013W        W37781   9.674  34.944  12.032
74014W        W37782  18.646  44.896   0.840
74015W        W37783   8.272   9.209  14.925
74016W        W37784   1.304  23.096  12.376
74017W        W37785  16.087   3.938  14.766
74018W        W37786  15.268   1.306   4.331
74019W        W37787   9.808   8.696   3.794
74020W        W37788  43.975   0.779   4.768
74021W        W37789   9.739  30.582  12.391
74022W        W37790  27.078  34.951  10.115
74023W        W37791  24.632  26.555  14.834
74024W        W37792   6.210   5.765   3.812
74025W        W37793  40.886  17.292  14.920
74026W        W37794   4.341  22.128  13.814
74027W        W37795  10.678  30.960  14.513
74028W        W37796  18.632  34.477   4.255
74029W        W37797  11.640  16.668  13.027
74030W        W37798  38.952  34.613  11.480
74031W        W37799  23.556   0.885  11.986
74032W        W37800  44.915  43.786  14.325
74033W        W37801  25.136  34.455  11.546
74034W        W37802  44.458  35.018   0.924
74035W        W37803  12.717  12.319  14.875
74036W        W37804  41.492   4.808  12.088
74037W        W37805   4.856  39.452   2.414
74038W        W37806  14.796   5.264  13.321
74039W        W37807  31.092  40.811   4.644
74040W        W37808  42.315   1.759   0.910
74041W        W37809  39.521  38.410  12.873
74042W        W37810  27.475  44.281   2.690
74043W        W37811  19.668  38.035   3.168
74044W        W37812  24.644  16.081   2.678
74045W        W37813  37.483  13.269   0.424
74046W        W37814  37.403  42.454  14.866
74047W        W37815  12.621   6.696  11.530
74048W        W37816  30.068  14.271  14.427
74049W        W37817  24.706  16.743   2.352
74050W        W37818  38.837   0.786   0.371
74051W        W37819  19.773   8.883   2.262
74052W        W37820  21.562   3.947  13.962
74053W        W37821  23.003  21.747  12.931
74054W        W37822  28.501   1.758   2.827
74055W        W37823   4.231  32.002   3.645
74056W        W37824  20.537  11.357  11.099
74057W        W37825  31.422  42.844  12.078
74058W        W37826  16.149   3.386  12.996
74059W        W37827  39.025   9.201  11.118
74060W        W37828  26.107  30.591   2.712
74061W        W37829  17.564   3.439   1.372
74062W        W37830  26.513   1.274  10.462
74063W        W37831  27.449  16.078   2.180
74064W        W37832  26.162  25.212  13.319
74065W        W37833  12.227   3.326  13.433
74066W        W37834  41.815  32.410  14.349
74067W        W37835  33.022  21.638   1.248
74068W        W37836  38.437  32.435  11.865
74069W        W37837  33.987  28.633   3.723
74070W        W37838  27.121  39.935  14.323
74071W        W37839   3.879  12.833   3.651
74072W        W37840  11.300  23.612  13.448
74073W        W37841  23.654  42.320   3.838
74074W        W37842  33.449   0.907   3.814
74075W        W37843  27.112  39.945  13.898
74076W        W37844   0.805  35.000  12.488
74077W        W37845  31.037  21.224   0.319
74078W        W37846  37.350  35.047  14.369
74079W        W37847  29.657   1.929  10.996
74080W        W37848  13.258  40.896   2.268
74081W        W37849   7.343   1.301   2.693
74082W        W37850  37.847  32.036   4.783
74083W        W37851  30.156  15.318  10.499
74084W        W37852  33.099  10.171  12.008
74085W        W37853  37.944  32.468   2.374
74086W        W37854  21.113  11.826   3.829
74087W        W37855  21.215  35.597   1.825
74088W        W37856   2.406  24.135  14.473
74089W        W37857  43.405  23.535  12.965
74090W        W37858  26.097  25.545   3.709
74091W        W37859  21.739  33.498   2.780
74092W        W37860   1.799  25.969  14.814
74093W        W37861  21.044   7.777  10.159
74094W        W37862  44.776  14.113   4.327
74095W        W37863  41.798  16.262  14.819
74096W        W37864   5.823  33.455  14.501
74097W        W37865   7.368  44.356  12.468
74098W        W37866  24.485  16.309   3.360
74099W        W37867  30.965  27.999  14.292
74100W        W37868  17.257   0.398   0.931
74101W        W37869  27.946  37.939   1.241
74102W        W37870  34.001  33.927   2.902
74103W        W37871  40.828  28.542   3.378
74104W        W37872   6.199  25.504   3.185
74105W        W37873  36.378  22.030   3.760
74106W        W37874  25.022  13.828  12.045
74107W        W37875  18.187  29.071  13.515
74108W        W37876   3.889  16.130  12.928
74109W        W37877   9.154  28.632  11.505
74110W        W37878   8.668  33.512  10.643
74111W        W37879  14.734  30.611   3.647
74112W        W37880  21.140  37.891   1.817
74113W        W37881  42.433  41.418  14.465
74114W        W37882  35.472  13.673  13.976
74115W        W37883  43.402  17.090   4.196
74116W        W37884  21.223  34.558  12.433
74117W        W37885   0.907  21.628   1.399
74118W        W37886  42.877  14.269   1.404
74119W        W37887   7.261  12.274  11.518
74120W        W37888  20.527  44.468   0.253
74121W        W37889  10.237  36.573   3.853
74122W        W37890  23.513   3.747   4.183
74123W        W37891  37.052  43.992  11.426
74124W        W37892  40.991  14.220  11.025
74125W        W37893  38.956  44.352   5.265
74126W        W37894   4.338  43.938  12.452
74127W        W37895  23.193  12.267  10.034
74128W        W37896   4.818  28.618  10.516
74129W        W37897  22.118  22.104  13.000
74130W        W37898  33.548  13.767  13.860
74131W        W37899  40.493  26.110   2.415
74132W        W37900  24.620   2.965  14.450
74133W        W37901  41.812  22.668   0.953
74134W        W37902  25.668  39.053   3.786
74135W        W37903  25.628   8.729  12.374
74136W        W37904   8.338  24.594   0.756
74137W        W37905  26.019  35.357   1.728
74138W        W37906  26.460  26.004   2.677
74139W        W37907  37.347   8.850  12.518
74140W        W37908  44.833  11.222   0.388
74141W        W37909  17.722  10.200  13.872
74142W        W37910  22.208  43.403   3.726
74143W        W37911   9.870  30.507  12.973
74144W        W37912  26.964  19.251   4.798
74145W        W37913   3.243  24.543  13.961
74146W        W37914  37.854  20.057  11.865
74147W        W37915   7.360  43.795  14.990
74148W        W37916  10.878  11.831   0.916
74149W        W37917  18.608   2.854  12.953
74150W        W37918   1.870  21.728   2.759
74151W        W37919   7.796   9.700  12.574
74152W        W37920   3.407   2.778   0.833
74153W        W37921   1.315  24.979   1.930
74154W        W37922  37.382  32.011  11.485
74155W        W37923  43.770  20.758   4.825
74156W        W37924  13.240  26.564  12.887
74157W        W37925  28.622  10.693   1.256
74158W        W37926  34.553   1.448   4.118
74159W        W37927  29.046  39.895   4.810
74160W        W37928  42.388  18.733  10.571
74161W        W37929  14.800  10.654   1.731
74162W        W37930  26.661   9.314   0.478
74163W        W37931  35.904  44.458   2.340
74164W        W37932  32.414   7.270  10.553
74165W        W37933  16.681   0.491  10.964
74166W        W37934   2.409  24.055   2.377
74167W        W37935  34.874  12.227   3.741
74168W        W37936  42.372  35.427  10.486
74169W        W37937  40.520   3.854   2.249
74170W        W37938  26.137   3.441  13.487
74171W        W37939   9.774  42.306   3.336
74172W        W37940  36.902  15.820  14.289
74173W        W37941  26.492  15.188  10.440
74174W        W37942   5.799  11.158  14.902
74175W        W37943   8.873   7.723   3.850
74176W        W37944  41.315  18.173  14.932
74177W        W37945  18.773   8.182   0.887
74178W        W37946  20.639  26.079   4.637
74179W        W37947  21.655  16.159  12.027
74180W        W37948   7.730   0.861  10.911
74181W        W37949   6.855  12.802   1.773
74182W        W37950   0.275  26.608   0.845
74183W        W37951  40.469  14.284  11.891
74184W        W37952  10.215  23.617   0.401
74185W        W37953  10.740  17.099   3.816
74186W        W37954  34.060  12.202   0.285
74187W        W37955  37.859  28.051   4.721
74188W        W37956  34.489  42.887  10.425
74189W        W37957  37.450  25.643  13.506
74190W        W37958  14.187  35.498  13.941
74191W        W37959  44.822  17.086  13.359
74192W        W37960  40.486   2.248   0.397
74193W        W37961   8.773  20.655  13.960
74194W        W37962  33.572  35.541   0.900
74195W        W37963  39.481  13.175   2.783
74196W        W37964  35.953  28.967   3.174
74197W        W37965  10.206   4.823   1.402
74198W        W37966  31.136  35.009   1.884
74199W        W37967  31.103  41.416   5.182
74200W        W37968   6.875   9.696  11.410
74201W        W37969  24.516  44.766  11.069
74202W        W37970   5.290   7.239   2.238
74203W        W37971  11.138  29.538  13.515
74204W        W37972  38.407   2.821   0.419
74205W        W37973  35.537   6.808   2.850
74206W        W37974  19.071  28.992  12.524
74207W        W37975  34.444  30.930  13.387
74208W        W37976   3.803  16.583  12.344
74209W        W37977  16.584   3.804   3.788
74210W        W37978  33.915   8.671  13.315
74211W        W37979  27.615  42.940   1.298
74212W        W37980  26.468  35.905  10.968
74213W        W37981  28.116  13.667  11.443
74214W        W37982  36.990  32.540  12.973
74215W        W37983  15.318   1.265  12.005
74216W        W37984  41.856  24.525  13.543
74217W        W37985  24.035  21.554   2.820
74218W        W37986   8.662  38.056   3.636
74219W        W37987  40.458  31.453   1.725
74220W        W37988   3.280  36.554  14.853
74221W        W37989  12.620  18.059   4.155
74222W        W37990  41.451  12.302   2.321
74223W        W37991  30.963  39.393   3.293
74224W        W37992  39.842  25.484   4.678
74225W        W37993   7.870  38.062   0.276
74226W        W37994  40.941  22.072   4.744
74227W        W37995   1.870  19.646  11.929
74228W        W37996  29.016   3.772  11.955
74229W        W37997  44.847  32.521   1.696
74230W        W37998  33.876   8.360  12.959
74231W        W37999  37.536   4.399  10.435
74232W        W38000  17.107   6.821  14.295
74233W        W38001  25.051  33.575  12.452
74234W        W38002  44.918  24.171   4.211
74235W        W38003   4.830  42.454   0.786
74236W        W38004  41.514  39.974   2.362
74237W        W38005   6.426  39.488  13.404
74238W        W38006   5.813  33.550  12.480
74239W        W38007   0.925   2.744   3.193
74240W        W38008  37.362  35.384   4.205
74241W        W38009  37.484  12.173  11.408
74242W        W38010  14.766  28.058   1.805
74243W        W38011  16.696   4.852   4.755
74244W        W38012   0.263   5.227   1.405
74245W        W38013  15.131  10.308   2.214
74246W        W38014  40.979  19.538  11.547
74247W        W38015  35.598  32.088  11.459
74248W        W38016  31.560  30.624   4.176
74249W        W38017  23.188  16.201   2.742
74250W        W38018  38.444  12.661  12.466
74251W        W38019  29.507  21.634   2.857
74252W        W38020  16.571   8.335  14.999
74253W        W38021  36.060  11.851   1.924
74254W        W38022  28.623  43.966  14.467
74255W        W38023  33.926   4.299  11.880
74256W        W38024  29.547  28.071   3.664
74257W        W38025  19.671   6.697  12.396
74258W        W38026   1.854  40.999   1.218
74259W        W38027  41.373  21.232   2.276
74260W        W38028  40.034  38.979  12.065
74261W        W38029  28.471  41.990  11.498
74262W        W38030   0.468  36.981   1.772
74263W        W38031   0.765  14.827   3.214
74264W        W38032  33.566   1.315  13.952
74265W        W38033  33.504   6.422   3.315
74266W        W38034  37.839  42.465  14.393
74267W        W38035   8.789  41.817  11.951
74268W        W38036   5.203  44.775  14.408
74269W        W38037  13.667  20.646   0.915
74270W        W38038  36.551  27.541   0.966
74271W        W38039  11.713   8.303  10.579
74272W        W38040  41.018  27.551  11.381
74273W        W38041  24.054  36.996  14.854
74274W        W38042   6.719   7.864   2.714
74275W        W38043   6.844  44.277   0.351
74276W        W38044  40.506  35.522  12.576
74277W        W38045  25.084  21.735  12.021
74278W        W38046  42.921  44.968  12.840
74279W        W38047   4.370   1.799   0.960
74280W        W38048  15.816  39.326   2.716
74281W        W38049   2.811  39.523   0.246
74282W        W38050   8.824   9.310   3.219
74283W        W38051  40.955  11.165   2.891
74284W        W38052  35.998   2.341   4.118
74285W        W38053  19.172  33.549   1.909
74286W        W38054   2.848  29.983   2.203
74287W        W38055  33.409  44.003  14.476
74288W        W38056  28.955  14.283   4.294
74289W        W38057  26.622  38.903  13.907
74290W        W38058   2.371  19.724   1.420
74291W        W38059   9.196  23.994   2.897
74292W        W38060  26.079  20.131   2.390
74293W        W38061   0.450  15.298  12.389
74294W        W38062  17.074  31.428   2.319
74295W        W38063  23.234  33.397   3.742
74296W        W38064  34.021  30.646  12.028
74297W        W38065  23.555  23.186   4.258
74298W        W38066  20.566  37.569   3.263
74299W        W38067  30.936  38.838  10.476
74300W        W38068  36.389  15.806  11.103
74301W        W38069  26.573  30.505  11.550
74302W        W38070  23.509  16.745  10.425
74303W        W38071   7.370   7.889   3.304
74304W        W38072  14.828  41.953  14.948
74305W        W38073   9.767   7.717  10.975
74306W        W38074   3.732   9.175   0.446
74307W        W38075  13.603  44.811   4.778
74308W        W38076  25.032  39.989  10.479
74309W        W38077   3.757  42.362   1.872
74310W        W38078  26.556  12.215   3.233
74311W        W38079  20.574  20.161   2.721
74312W        W38080  13.346  27.958   4.602
74313W        W38081  25.000  11.367  13.353
74314W        W38082  33.113  40.052   0.802
74315W        W38083  28.532  18.188  11.120
74316W        W38084  31.497  35.472   2.669
74317W        W38085  13.838  13.766   3.232
74318W        W38086  21.127  32.452   2.846
74319W        W38087   5.854  30.132  14.875
74320W        W38088  41.861  43.948  13.959
74321W        W38089  23.708  40.499  10.425
74322W        W38090  44.792   7.262  13.899
74323W        W38091  10.864  28.044  13.825
74324W        W38092   2.858   1.746  14.404
74325W        W38093  38.495   9.381   3.690
74326W        W38094  28.024  43.325   0.820
74327W        W38095   7.285  39.930  14.802
74328W        W38096   7.820   9.822   1.212
74329W        W38097  19.086   8.218  11.596
74330W        W38098  21.036  29.012  10.102
74331W        W38099  37.001  14.295   2.270
74332W        W38100  22.055   5.413   1.337
74333W        W38101   0.752   6.822   3.152
74334W        W38102  42.859  19.603   3.331
74335W        W38103  26.171   8.321   2.869
74336W        W38104  25.601  29.460   1.920
74337W        W38105  43.885  27.160  12.365
74338W        W38106   3.401  15.275   2.757
74339W        W38107  11.336   7.702  10.994
74340W        W38108   3.808   5.863  10.973
74341W        W38109  29.443  36.543   4.674
74342W        W38110  32.971   2.927  11.017
74343W        W38111  44.446  28.639   4.795
74344W        W38112  11.832  41.381   4.693
74345W        W38113  25.622  30.588   3.691
74346W        W38114  16.232  40.970  10.639
74347W        W38115  26.038  27.001  12.385
74348W        W38116  36.529  17.225  11.551
74349W        W38117  12.228  22.221  14.028
74350W        W38118  34.893  15.757   3.165
74351W        W38119  40.409  19.208   1.742
74352W        W38120  12.290  18.551  11.582
74353W        W38121  11.734  40.396   1.437
74354W        W38122  36.001  19.091  12.960
74355W        W38123  39.877  23.176  13.329
74356W        W38124  13.840  28.640   2.718
74357W        W38125   3.416  22.201  12.449
74358W        W38126   4.851  38.858  11.967
74359W        W38127  35.894  29.986  14.374
74360W        W38128  23.094  42.518  13.870
74361W        W38129  20.153  23.717  11.081
74362W        W38130  26.127  41.787   0.741
74363W        W38131  15.136  11.864   5.212
74364W        W38132  24.147  42.016   4.614
74365W        W38133  38.523  31.057   1.778
74366W        W38134  40.943  27.611  10.915
74367W        W38135  14.612  30.485   1.757
74368W        W38136   8.360  33.402   3.378
74369W        W38137  38.074  23.517   0.831
74370W        W38138  29.930  43.831  13.963
74371W        W38139  26.493  42.453   1.270
74372W        W38140  29.633  12.304  12.968
74373W        W38141  28.663  39.853   1.821
74374W        W38142  21.648   3.243  10.622
74375W        W38143  19.577  40.401   1.756
74376W        W38144   3.777  30.154   0.438
74377W        W38145  35.954  11.846   3.337
74378W        W38146   5.840   6.360  14.379
74379W        W38147   7.334   5.319   2.779
74380W        W38148  19.652  37.408   3.773
74381W        W38149  14.816  40.547  11.932
74382W        W38150  41.341  15.165  11.051
74383W        W38151  10.246  22.517   4.606
74384W        W38152  20.092  41.825   3.806
74385W        W38153  15.268  24.665  13.923
74386W        W38154  10.695  43.403  14.769
74387W        W38155   0.368   8.809   2.679
74388W        W38156  18.083  29.145  13.931
74389W        W38157   1.744  31.585   1.210
74390W        W38158  15.742  25.684   3.279
74391W        W38159  14.727  32.049  12.396
74392W        W38160  18.200   5.889  10.986
74393W        W38161  42.970  12.730   1.766
74394W        W38162  27.459  42.798   5.125
74395W        W38163  28.184   1.832  12.963
74396W        W38164  17.714  10.836  11.939
74397W        W38165  10.236  36.989  11.900
74398W        W38166  21.706  19.271  12.367
74399W        W38167  19.713   7.357   4.710
74400W        W38168   5.320  40.837  11.936
74401W        W38169  28.565  44.902   4.284
74402W        W38170  39.323  39.493   1.819
74403W        W38171  29.659  43.317   1.769
74404W        W38172  27.940   0.805  11.901
74405W        W38173  28.505  10.749   4.220
74406W        W38174  38.486  28.526   1.314
74407W        W38175  18.159  17.606  14.489
74408W        W38176  31.638  22.250   0.864
74409W        W38177   1.868  36.422   2.899
74410W        W38178   4.295  30.958   4.234
74411W        W38179  13.267  36.470  12.369
74412W        W38180  31.981  34.893   1.387
74413W        W38181  13.238  31.011  13.902
74414W        W38182  35.560  38.459   3.190
74415W        W38183  17.141  42.834  12.836
74416W        W38184  29.505  44.932  10.920
74417W        W38185  42.980  19.255   4.128
74418W        W38186  17.556  29.610   4.689
74419W        W38187  42.787  11.676  11.393
74420W        W38188  34.484  22.601  14.855
74421W        W38189   7.886  10.865   0.956
74422W        W38190   0.890  14.107  10.067
74423W        W38191  44.447  20.093  13.925
74424W        W38192   3.404   8.338   2.281
74425W        W38193  12.257  16.588  13.424
74426W        W38194  15.744  19.175   3.359
74427W        W38195  31.490  39.363   4.644
74428W        W38196  16.676  41.538   1.743
74429W        W38197  21.180  20.596  10.441
74430W        W38198  26.461  12.274   2.356
74431W        W38199  41.464  43.446   3.666
74432W        W38200  39.414  14.329   4.668
74433W        W38201  18.760  18.272  10.970
74434W        W38202  31.070  36.898  12.511
74435W        W38203   7.252   8.328  11.125
74436W        W38204  27.966  29.557   4.709
74437W        W38205  20.136   1.369   0.421
74438W        W38206  15.129  24.716   0.351
74439W        W38207  35.384   8.229   4.180
74440W        W38208  26.121  42.281   0.876
74441W        W38209  10.696  36.024   4.770
74442W        W38210  23.179  32.587  12.435
74443W        W38211  13.643  15.807  14.956
74444W        W38212  19.551  29.512   4.328
74445W        W38213   3.839  42.405  12.390
74446W        W38214  34.026  23.500   3.819
74447W        W38215  36.359  14.122  13.022
74448W        W38216   4.822   8.714   3.712
74449W        W38217  26.033  28.570   1.418
74450W        W38218  29.960  35.035   1.370
74451W        W38219  17.206  25.113  13.881
74452W        W38220  27.176  34.489  14.305
74453W        W38221   6.795  23.660   2.666
74454W        W38222  27.044  39.464  11.427
74455W        W38223  32.603  11.251  11.565
74456W        W38224  37.082  15.736  11.915
74457W        W38225  21.726  41.940  13.383
74458W        W38226  30.561  27.601   3.712
74459W        W38227  37.862  41.869   2.808
74460W        W38228  35.474  18.681  10.902
74461W        W38229  41.421  28.132   4.309
74462W        W38230  31.099  33.544  10.472
74463W        W38231   4.228  42.429   4.143
74464W        W38232  28.442  40.882  12.421
74465W        W38233  27.528   2.279  12.830
74466W        W38234  34.954  40.880  13.038
74467W        W38235   3.242   0.286  13.873
74468W        W38236  20.248  22.246   0.792
74469W        W38237  10.175  20.259   4.788
74470W        W38238   4.930  29.984  11.081
74471W        W38239  34.417  44.323  14.889
74472W        W38240  17.215  28.110   3.694
74473W        W38241  29.920   5.854  11.372
74474W        W38242  42.790  39.837  10.462
74475W        W38243  30.437  40.028  14.353
74476W        W38244   3.396  23.161  14.347
74477W        W38245  27.556  25.552   2.300
74478W        W38246   6.676  18.659   3.244
74479W        W38247  20.745  10.307   3.746
74480W        W38248  20.558  10.716   2.300
74481W        W38249  26.578  38.518  12.954
74482W        W38250  27.115  28.620  14.958
74483W        W38251   1.796  21.138  13.909
74484W        W38252  19.255  17.634   1.709
74485W        W38253  44.473  16.278   1.810
74486W        W38254   5.725  28.660  14.831
74487W        W38255  34.487   9.825  12.562
74488W        W38256  38.373  35.865   1.836
74489W        W38257  10.814  17.266  13.352
74490W        W38258  17.727  11.689   1.384
74491W        W38259  33.466  30.464  10.959
74492W        W38260  28.632  25.577  14.370
74493W        W38261  21.103  29.979   0.925
74494W        W38262   1.321  18.229   1.281
74495W        W38263  20.758  31.612   0.438
74496W        W38264   6.712  25.105  11.104
74497W        W38265  33.539   2.770  14.377
74498W        W38266  13.840   8.207   1.741
74499W        W38267  43.271  22.037   3.758
74500W        W38268  20.576  24.007   0.958
74501W        W38269  12.263  39.444  14.824
74502W        W38270   4.426  40.897   3.185
74503W        W38271   1.380  24.080  10.558
74504W        W38272  15.233  27.668   0.444
74505W        W38273  33.909  36.927  10.447
74506W        W38274  21.553  35.493   0.444
74507W        W38275  32.581  18.239   2.795
74508W        W38276  22.643   9.203  12.899
74509W        W38277  16.777  25.065   2.795
74510W        W38278  15.273  41.843   4.240
74511W        W38279  41.797  40.813  11.054
74512W        W38280  25.199   1.270   3.358
74513W        W38281  10.285   2.927   0.464
74514W        W38282  32.517  10.269  11.073
74515W        W38283  28.599  38.533  14.298
74516W        W38284   2.810  25.500  11.545
74517W        W38285  15.304  39.471  10.504
74518W        W38286  30.916  28.443  11.611
74519W        W38287  12.800  30.420   2.245
74520W        W38288  25.486  36.541   9.661
74521W        W38289  31.122  15.686   3.316
74522W        W38290   8.307  25.103  11.927
74523W        W38291  35.555  14.799   3.813
74524W        W38292  27.037  13.267  12.517
74525W        W38293   3.906  32.970  11.495
74526W        W38294  39.996  43.418  13.399
74527W        W38295  32.454  30.099  11.474
74528W        W38296  44.284   8.718   1.346
74529W        W38297  17.214   3.827   3.154
74530W        W38298  15.177  25.601  11.391
74531W        W38299  31.149  32.437   4.189
74532W        W38300  35.576  22.652  12.505
74533W        W38301  18.668   4.872  10.562
74534W        W38302  32.954   9.715   3.772
74535W        W38303  32.573  15.705   1.414
74536W        W38304   2.401  31.974   3.723
74537W        W38305   6.755  12.792   3.764
74538W        W38306  17.619  40.814  14.309
74539W        W38307  43.337  40.831   0.809
74540W        W38308   7.673  38.395   2.400
74541W        W38309  43.375   3.798   4.700
74542W        W38310  21.527  24.214   2.332
74543W        W38311  23.209  18.624  11.506
74544W        W38312  14.338  43.406   0.796
74545W        W38313  27.085   9.237  14.921
74546W        W38314   9.763   4.274  11.417
74547W        W38315  17.729  33.529   2.365
74548W        W38316   3.310   7.294   1.801
74549W        W38317  29.043  37.905   3.193
74550W        W38318  35.935   4.220   4.144
74551W        W38319  20.135  12.193  10.903
74552W        W38320  15.756   8.724  13.324
74553W        W38321  12.183  42.016   3.696
74554W        W38322  38.822  20.124  10.992
74555W        W38323  44.982   4.285  12.080
74556W        W38324  41.322  35.395   2.730
74557W        W38325  28.168   0.348   2.302
74558W        W38326  12.323  15.187  11.093
74559W        W38327  42.460  34.593   4.118
74560W        W38328  15.595  11.790   1.842
74561W        W38329   6.812   8.366  12.347
74562W        W38330   2.254  27.087  10.412
74563W        W38331  33.010  35.921  13.839
74564W        W38332  32.503  17.067   2.770
74565W        W38333  18.590  27.576  10.428
74566W        W38334  42.334  15.099   3.351
74567W        W38335   9.273   1.237   4.230
74568W        W38336  34.928  15.670  14.914
74569W        W38337  28.628   2.873  10.475
74570W        W38338  37.861  43.833   3.215
74571W        W38339  31.525  35.070  11.042
74572W        W38340   2.922  29.005  11.049
74573W        W38341  13.153  10.855  13.467
74574W        W38342  35.917  13.166  13.944
74575W        W38343   5.434  35.486   3.286
74576W        W38344  44.330  43.863   0.751
74577W        W38345  35.567  22.613  12.015
74578W        W38346  32.039  17.070   0.376
74579W        W38347  28.058  12.640   2.213
74580W        W38348  25.508  38.324  12.862
74581W        W38349  34.557   8.874   4.354
74582W        W38350  23.096  22.740   3.226
74583W        W38351  31.539  29.478   4.129
74584W        W38352  37.425  10.772  10.634
74585W        W38353  26.546  43.984  13.398
74586W        W38354  16.771  42.412  13.470
74587W        W38355  44.284  39.473   4.298
74588W        W38356  37.965  29.443   3.714
74589W        W38357  12.225  37.559  11.891
74590W        W38358  19.713  33.052   0.244
74591W        W38359  17.660  38.515  11.953
74592W        W38360   6.294  29.938   3.635
74593W        W38361  22.245  13.709   1.355
74594W        W38362  33.084   1.286   2.785
74595W        W38363   2.746  21.571  14.943
74596W        W38364  28.439   8.782   4.289
74597W        W38365  32.064  30.986  13.445
74598W        W38366  36.926  42.970   2.690
74599W        W38367   2.279  29.565  10.546
74600W        W38368  17.747  29.170  14.960
74601W        W38369  23.026  21.110   3.761
74602W        W38370  41.042  39.021   2.883
74603W        W38371  26.203  11.199  14.883
74604W        W38372  19.577  42.424  13.030
74605W        W38373  31.964   1.849  11.120
74606W        W38374  20.165  24.640  14.808
74607W        W38375   3.788  25.983  10.513
74608W        W38376   2.353   2.766  14.866
74609W        W38377  24.115  43.889  14.829
74610W        W38378  11.727   3.308  12.919
74611W        W38379  34.580  19.115  12.457
74612W        W38380   2.749   1.789   0.355
74613W        W38381  11.666  43.505  13.359
74614W        W38382   9.322  25.686   4.669
74615W        W38383  11.684  25.593  13.536
74616W        W38384   1.909   0.382  11.016
74617W        W38385  31.576  39.390  11.964
74618W        W38386  27.181  20.218   4.775
74619W        W38387  33.068   6.921  14.330
74620W        W38388  22.157  32.598   1.411
74621W        W38389  27.555  44.268   4.732
74622W        W38390  44.404  26.179   0.863
74623W        W38391  33.479  29.632   2.790
74624W        W38392   8.672  15.105  10.547
74625W        W38393  26.608  27.502  11.988
74626W        W38394  44.418  22.662  11.070
74627W        W38395  33.491  13.685   1.305
74628W        W38396  10.382  14.601   1.934
74629W        W38397   8.328  33.455   3.631
74630W        W38398   9.742  15.314   1.793
74631W        W38399  30.955  13.110  12.367
74632W        W38400  32.890   5.203  14.976
74633W        W38401   2.333  21.726   0.867
74634W        W38402  12.194   3.792  14.297
74635W        W38403   3.948  14.218   0.814
74636W        W38404  21.726  31.085   0.373
74637W        W38405  43.774  30.035   2.679
74638W        W38406  36.426   0.450   0.269
74639W        W38407  41.902  44.951   0.734
74640W        W38408  26.966  21.719   0.892
74641W        W38409  15.618  35.078   4.151
74642W        W38410  36.925  43.902   2.347
74643W        W38411  44.871  21.045  13.049
74644W        W38412  43.434   9.371  14.849
74645W        W38413  34.495  25.021  14.023
74646W        W38414  23.029  12.671  13.825
74647W        W38415  21.159  25.668  11.375
74648W        W38416  40.806  38.045  14.961
74649W        W38417   1.327  12.334  12.946
74650W        W38418   4.860   8.169  11.117
74651W        W38419   8.280  36.922  12.846
74652W        W38420  14.310   8.676  14.790
74653W        W38421  24.552  32.130   1.874
74654W        W38422  16.792   8.845  14.959
74655W        W38423  40.323   3.384  13.039
74656W        W38424  35.539  19.247   1.235
74657W        W38425   6.194   2.742  12.444
74658W        W38426  41.020   8.399   0.726
74659W        W38427   8.349  25.657   4.639
74660W        W38428  12.628  21.214  10.998
74661W        W38429   1.896  33.113  13.920
74662W        W38430  43.272  22.648  11.063
74663W        W38431  30.131  26.093   1.384
74664W        W38432  32.982  20.186   4.615
74665W        W38433  41.317  19.170  12.414
74666W        W38434  37.931  42.497  12.512
74667W        W38435  34.908   6.703  11.901
74668W        W38436  28.158  44.442  13.859
74669W        W38437  13.294  22.146   0.809
74670W        W38438  40.955  38.865  14.377
74671W        W38439  27.134  42.321  12.509
74672W        W38440   7.837  29.655   2.727
74673W        W38441  41.481  28.151   3.824
74674W        W38442  34.603   2.931  13.475
74675W        W38443  25.538  40.495   0.791
74676W        W38444  24.647  28.174  10.589
74677W        W38445  30.626   7.880   3.827
74678W        W38446   1.246   1.785  13.996
74679W        W38447  17.139  29.628   4.733
74680W        W38448   7.674  12.358  10.899
74681W        W38449  19.653  16.281  11.500
74682W        W38450  41.343   9.887  14.805
74683W        W38451  34.002   1.796  13.792
74684W        W38452  29.943   1.956   3.192
74685W        W38453  25.027  17.778  13.324
74686W        W38454  30.908  28.123  12.086
74687W        W38455   1.377  23.093  13.826
74688W        W38456  39.878  42.807   2.883
74689W        W38457   7.236   5.364   4.335
74690W        W38458  24.211   1.410   3.167
74691W        W38459  40.447  33.954  12.376
74692W        W38460  10.241  11.700   4.158
74693W        W38461  13.714   6.350  14.808
74694W        W38462  29.596  12.789  10.912
74695W        W38463   2.727  23.114  12.365
74696W        W38464  27.146  22.659   4.803
74697W        W38465   4.329   0.255  14.302
74698W        W38466  33.486  20.182   5.265
74699W        W38467  42.477   1.937  13.043
74700W        W38468   1.313   2.899  13.952
74701W        W38469  15.644   3.952   0.819
74702W        W38470  18.149  39.319   4.806
74703W        W38471  12.652  22.054  14.005
74704W        W38472  34.459  23.682   2.246
74705W        W38473  27.511   9.872  12.889
74706W        W38474   4.920  32.901   3.691
74707W        W38475  39.550  37.945  12.492
74708W        W38476   2.907  41.347  10.620
74709W        W38477  22.239  19.560  13.948
74710W        W38478  11.697  18.755  13.876
74711W        W38479  33.477   7.335  13.315
74712W        W38480  15.659   5.269  13.041
74713W        W38481  15.619  44.379  14.514
74714W        W38482   3.872  19.553  12.440
74715W        W38483  28.641  32.109  13.792
74716W        W38484  14.130  41.879   3.771
74717W        W38485  35.013  30.553  12.049
74718W        W38486  43.017  12.317  13.434
74719W        W38487   1.376  20.664  11.093
74720W        W38488   7.218  43.892  13.950
74721W        W38489  30.908   7.252   5.116
74722W        W38490  37.963   9.649   4.781
74723W        W38491  13.261  26.700   3.233
74724W        W38492   9.648  38.390  13.927
74725W        W38493  21.586  25.974   1.799
74726W        W38494  16.645   9.180   4.804
74727W        W38495   3.395  18.550   4.227
74728W        W38496  14.171  31.602   4.705
74729W        W38497  34.590  19.697  13.030
74730W        W38498  16.240  28.002  14.981
74731W        W38499  40.391  18.724   2.664
74732W        W38500  15.790  19.559   1.809
74733W        W38501  44.346  26.469  14.774
74734W        W38502   8.712  37.455   0.328
74735W        W38503   6.259  38.052  12.414
74736W        W38504  27.656   1.778  12.026
74737W        W38505  13.798  12.318  12.532
74738W        W38506  25.679   2.741   0.739
74739W        W38507  40.417  21.028   2.355
74740W        W38508   3.788  11.228  13.472
74741W        W38509  33.948   8.183  14.369
74742W        W38510  27.987  22.708   2.888
74743W        W38511  18.120  38.554   0.910
74744W        W38512  14.172  17.173  10.634
74745W        W38513  20.040  12.719  12.894
74746W        W38514   5.434  25.558   4.610
74747W        W38515  42.351  14.274  10.535
74748W        W38516   2.399   4.337  13.055
74749W        W38517  18.226  35.450   5.091
74750W        W38518   6.734  32.100   3.188
74751W        W38519   5.815  15.254  14.319
74752W        W38520  43.964  21.219  13.823
74753W        W38521  32.083   8.805  12.496
74754W        W38522  12.643   9.206   3.845
74755W        W38523  38.882   1.301   3.680
74756W        W38524  22.688  12.830  12.549
74757W        W38525   4.432  22.105  10.471
74758W        W38526   2.279  15.209  14.366
74759W        W38527  18.753  42.013  14.851
74760W        W38528   1.881  38.341  13.497
74761W        W38529  43.365   3.300   4.318
74762W        W38530  37.836   8.737  12.981
74763W        W38531  34.550  39.530  13.386
74764W        W38532   8.192  19.186  14.838
74765W        W38533   8.656  38.462  11.889
74766W        W38534  13.787  33.542   1.423
74767W        W38535  31.469  16.570  11.479
74768W        W38536  35.387  44.005  10.947
74769W        W38537  17.769  41.490   1.840
74770W        W38538   0.448  19.694   0.410
74771W        W38539  12.805  24.655   0.845
74772W        W38540   3.805  23.103   4.140
74773W        W38541  28.536  25.032   2.202
74774W        W38542   1.874  22.145  13.484
74775W        W38543  13.247  29.975   2.729
74776W        W38544  16.242  30.916   1.787
74777W        W38545  12.201  24.058   1.848
74778W        W38546  14.667  22.149   3.182
74779W        W38547  33.976  38.016  12.403
74780W        W38548  15.792   0.296   0.763
74781W        W38549   9.874  23.994   0.362
74782W        W38550  22.155  33.914  12.979
74783W        W38551  41.515  30.152   9.631
74784W        W38552   4.775  23.710  10.054
74785W        W38553  20.725  43.511  13.829
74786W        W38554   5.785  30.961  11.387
74787W        W38555  34.377  39.053  12.924
74788W        W38556  35.036  33.953   2.734
74789W        W38557  20.665  18.232   3.732
74790W        W38558  25.132  15.221   9.942
74791W        W38559  27.666  27.017  11.587
74792W        W38560  36.475  18.553  10.618
74793W        W38561  14.697  35.089   0.818
74794W        W38562  22.997  17.694  11.926
74795W        W38563  31.986  32.896  11.516
74796W        W38564  31.084  10.747  13.535
74797W        W38565   6.849  44.999   2.193
74798W        W38566  41.976   5.287  12.891
74799W        W38567  25.582  24.661  13.483
74800W        W38568  10.871  11.369   9.578
74801W        W38569  43.841  17.267   3.152
74802W        W38570  16.248   6.909  14.783
74803W        W38571  32.423   9.837  14.340
74804W        W38572  16.732  18.723  14.395
74805W        W38573  42.950  38.899   0.262
74806W        W38574   5.375  20.539   2.231
74807W        W38575  23.112  35.996   4.170
74808W        W38576  35.099   7.342  14.377
74809W        W38577  39.434  23.041  13.414
74810W        W38578  18.765  28.085   2.261
74811W        W38579  43.450  28.669   3.666
74812W        W38580   6.800  24.584   3.828
74813W        W38581  42.004  11.824  14.419
74814W        W38582  26.670   4.408  14.361
74815W        W38583  43.904  12.648  10.554
74816W        W38584  12.208   0.383   0.277
74817W        W38585  31.554  31.037   1.328
74818W        W38586   9.715   5.195  14.915
74819W        W38587   4.781   4.279  11.924
74820W        W38588  16.103  37.498   2.866
74821W        W38589   2.453  31.901  13.050
74822W        W38590  30.466  14.333  14.005
74823W        W38591  37.474  24.687   1.212
74824W        W38592  22.110  13.140   0.946
74825W        W38593  23.090  40.544  10.966
74826W        W38594  26.668  18.729   2.680
74827W        W38595  36.971  43.959  10.643
74828W        W38596  28.593  34.408  12.914
74829W        W38597  34.023  38.953  14.788
74830W        W38598   6.797  11.834   4.339
74831W        W38599   1.326  28.609   3.333
74832W        W38600  18.740  28.563  13.493
74833W        W38601   9.852  34.044  14.505
74834W        W38602  42.466  12.808  12.963
74835W        W38603   6.201  41.405  14.426
74836W        W38604  29.438  18.726   9.954
74837W        W38605  30.416   1.842  10.462
74838W        W38606   1.781  22.525   0.242
74839W        W38607   3.381  36.997   4.135
74840W        W38608   4.705  14.716  13.436
74841W        W38609  36.966   6.305   3.235
74842W        W38610   3.743  40.389   4.226
74843W        W38611  20.233  27.102   3.161
74844W        W38612   4.314   5.813  11.478
74845W        W38613  10.640  31.908  14.784
74846W        W38614  21.036  37.556  13.957
74847W        W38615  35.901  30.127   4.222
74848W        W38616   5.760  15.725  11.987
74849W        W38617   2.906  16.724  14.319
74850W        W38618  16.134  22.720   5.256
74851W        W38619  20.715  25.650  10.910
74852W        W38620  13.245  13.351  10.909
74853W        W38621  30.651   4.785  13.324
74854W        W38622  19.120  26.096  12.455
74855W        W38623  30.525  33.399   2.331
74856W        W38624  20.759  26.968  13.389
74857W        W38625  13.245   5.232  14.314
74858W        W38626  22.742   8.690  14.914
74859W        W38627   5.325  36.902   4.740
74860W        W38628  14.151  29.642  14.910
74861W        W38629  17.079  39.908  12.914
74862W        W38630  24.583  23.706  14.400
74863W        W38631  21.669   5.905  12.938
74864W        W38632  20.766  34.514   4.691
74865W        W38633  24.570  27.546   0.891
74866W        W38634  41.538   7.820   3.776
74867W        W38635  18.768  10.684  12.984
74868W        W38636   4.938  28.078  12.941
74869W        W38637  40.853  26.043   4.302
74870W        W38638   1.935   4.361  10.639
74871W        W38639  18.711  24.138  14.937
74872W        W38640   5.223   2.435  13.807
74873W        W38641   2.819   9.808   0.917
74874W        W38642  32.891  38.527  11.549
74875W        W38643  20.599  29.505  12.835
74876W        W38644  32.398  41.003   2.759
74877W        W38645  16.766  31.517  11.029
74878W        W38646  36.939  24.609   1.798
74879W        W38647   2.859   1.366  11.489
74880W        W38648  15.760  39.011   2.386
74881W        W38649  36.492  17.715   1.428
74882W        W38650  16.169  19.649  12.464
74883W        W38651   4.714  38.996   3.857
74884W        W38652  27.627  19.237   0.445
74885W        W38653  42.807   9.210   4.750
74886W        W38654  21.526  23.079  10.943
74887W        W38655  17.559  36.399   3.695
74888W        W38656  16.146  20.528   1.780
74889W        W38657   7.783  18.754  11.380
74890W        W38658  15.314  40.997  13.951
74891W        W38659   2.730  28.116  12.010
74892W        W38660  11.783  28.930   2.688
74893W        W38661  44.764  18.284  10.415
74894W        W38662  25.528  38.333   2.731
74895W        W38663  42.820  13.639  11.994
74896W        W38664  22.589   0.832  13.956
74897W        W38665  12.337  23.721  14.996
74898W        W38666   0.260  37.972  10.529
74899W        W38667  23.186  10.282   3.189
74900W        W38668  28.510  43.418   4.305
74901W        W38669  36.545  21.631  14.928
74902W        W38670   1.358  21.247   0.293
74903W        W38671   7.901  19.044  14.925
74904W        W38672  43.379  30.979   2.277
74905W        W38673  34.006   4.701  13.915
74906W        W38674  44.984  10.761  11.981
74907W        W38675  23.130  28.609   1.781
74908W        W38676   4.732  42.823   3.705
74909W        W38677  13.225  43.912   2.374
74910W        W38678  21.556  15.693  11.859
74911W        W38679  35.455  37.837   3.369
74912W        W38680  39.882   1.830  13.372
74913W        W38681  44.963  35.914  12.970
74914W        W38682  12.362  12.261  14.973
74915W        W38683  43.823  11.867  12.919
74916W        W38684  23.127  35.411   1.763
74917W        W38685  16.192  37.393   2.367
74918W        W38686  18.715  21.095   0.389
74919W        W38687  19.040  38.058   1.344
74920W        W38688  33.000  17.598  11.856
74921W        W38689  39.505  17.194  10.598
74922W        W38690  14.184  44.010  13.972
74923W        W38691  32.985  11.158   1.696
74924W        W38692  32.593  32.526   3.736
74925W        W38693   3.937  19.186  10.494
74926W        W38694   5.916  21.043  11.049
74927W        W38695  31.079  37.020  11.915
74928W        W38696  30.001  35.498   4.632
74929W        W38697   1.303  30.132  12.416
74930W        W38698  20.183  32.994   1.782
74931W        W38699  33.948  31.954  12.388
74932W        W38700  14.722  43.357   4.350
74933W        W38701  44.886  18.766  11.573
74934W        W38702  19.192  26.702   3.713
74935W        W38703  17.721  32.077  13.496
74936W        W38704   4.397   4.924   2.896
74937W        W38705  22.224  26.681   4.715
74938W        W38706  31.448  37.462   1.223
74939W        W38707  11.242  44.857  11.990
74940W        W38708  26.962  28.067   9.970
74941W        W38709  10.321  29.082  12.556
74942W        W38710  29.003  26.002  13.473
74943W        W38711  25.589  16.570   4.128
74944W        W38712  12.134  35.898   1.321
74945W        W38713   9.268  29.984   1.243
74946W        W38714  35.055  16.585   3.723
74947W        W38715   9.339  18.121   4.633
74948W        W38716  39.813  32.486   0.395
74949W        W38717  28.638  23.554   1.267
74950W        W38718  10.166   9.850  10.018
74951W        W38719  28.967   1.331  13.461
74952W        W38720   2.942  17.762   2.671
74953W        W38721   7.742  20.126   2.325
74954W        W38722  39.524  28.597   5.597
74955W        W38723  44.987   2.454  13.350
74956W        W38724  32.033  35.450   1.295
74957W        W38725  27.528   7.834   2.679
74958W        W38726  39.837  44.865   3.197
74959W        W38727  31.490  23.525  14.488
74960W        W38728  24.658  21.632   2.853
74961W        W38729   7.709  23.681   3.692
74962W        W38730   1.749  43.294  12.079
74963W        W38731  23.687  22.649  11.510
74964W        W38732  38.449  11.333   4.646
74965W        W38733  16.708  18.734   2.733
74966W        W38734  32.008  30.638  14.962
74967W        W38735  23.195  42.373  14.997
74968W        W38736  13.693  12.245   3.694
74969W        W38737  24.040   7.902   0.310
74970W        W38738  39.939  14.098  13.385
74971W        W38739   5.255  17.087  12.450
74972W        W38740   9.365   3.380   9.937
74973W        W38741  14.655  29.625   9.937
74974W        W38742   4.363  35.097  11.989
74975W        W38743  27.625  17.184  14.396
74976W        W38744  11.361  10.344  13.452
74977W        W38745  21.027  15.247  12.385
74978W        W38746  16.205  39.420   0.923
74979W        W38747  27.085  35.533   2.244
74980W        W38748   2.441  41.904  11.509
74981W        W38749  39.936  12.679  14.001
74982W        W38750   4.762  33.403   0.325
74983W        W38751  29.604  42.023   0.463
74984W        W38752  26.124  34.531   2.853
74985W        W38753  42.319  32.135   0.948
74986W        W38754  21.544  20.523  10.916
74987W        W38755   6.708   5.296  12.421
74988W        W38756  22.009  17.128   4.327
74989W        W38757  39.529  19.191   4.332
74990W        W38758   4.290  20.267  13.921
74991W        W38759  30.564   6.747  11.430
74992W        W38760  29.020  16.121   3.215
74993W        W38761  37.858  26.667   4.701
74994W        W38762  39.952  11.341   4.690
74995W        W38763  11.247  22.722   1.300
74996W        W38764  38.012   5.275   9.978
74997W        W38765  32.557  25.627   4.282
74998W        W38766  44.496  33.620   2.377
74999W        W38767   2.898  11.350  10.915
75000W        W38768  11.368   7.257  14.486
75001W        W38769  10.707  19.210  10.595
75002W        W38770  38.428  39.464   3.788
75003W        W38771  14.127  39.510  10.909
75004W        W38772  10.347  42.308  13.462
75005W        W38773   7.260   5.344   2.220
75006W        W38774  41.912  21.606   4.684
75007W        W38775   3.279  15.734  13.353
75008W        W38776  19.576  21.563   0.462
75009W        W38777  22.710  17.129   4.329
75010W        W38778  22.541   5.400   3.239
75011W        W38779  26.472  15.175   2.262
75012W        W38780  41.383  14.138   5.321
75013W        W38781   1.775  34.498   3.347
75014W        W38782  27.158  38.363   2.669
75015W        W38783   0.373  18.760   0.942
75016W        W38784  27.095  22.121   2.323
75017W        W38785  17.153  22.695  10.151
75018W        W38786  19.199  12.230  13.382
75019W        W38787   3.772   7.893   3.784
75020W        W38788   7.329   7.292   3.823
75021W        W38789  43.907  34.955  12.445
75022W        W38790  25.515   0.296  13.395
75023W        W38791  41.947  23.662  14.401
75024W        W38792  36.392  33.501  13.860
75025W        W38793  18.073  42.410  14.988
75026W        W38794   8.893  15.729   5.276
75027W        W38795  33.604  11.697   5.087
75028W        W38796  14.781  33.535   4.237
75029W        W38797  33.106  22.574   4.240
75030W        W38798  39.357  37.488  14.405
75031W        W38799  14.666  36.972   3.386
75032W        W38800  30.941  26.630   0.373
75033W        W38801  13.230  16.235  14.460
75034W        W38802  29.067  28.528   0.412
75035W        W38803  31.088  37.025  13.959
75036W        W38804  13.630  10.712  14.466
75037W        W38805  38.846  35.428  11.539
75038W        W38806  10.255  39.924  12.980
75039W        W38807  17.658  36.901  10.564
75040W        W38808  23.655  25.598  13.858
75041W        W38809  38.410  42.781  11.972
75042W        W38810  29.510  26.556   1.376
75043W        W38811  10.341  41.538   4.738
75044W        W38812  35.105  34.006  13.792
75045W        W38813  33.593  11.149  10.996
75046W        W38814  40.389  28.502   1.396
75047W        W38815  39.053  14.650  10.935
75048W        W38816  40.977   1.416   3.243
75049W        W38817  43.777  29.584   1.818
75050W        W38818  15.230  38.984  10.571
75051W        W38819  42.362  21.112   4.653
75052W        W38820  12.290  43.927  14.783
75053W        W38821  33.537  30.414  14.827
75054W        W38822   1.769  44.326   4.691
75055W        W38823  33.542   4.339   0.815
75056W        W38824  43.877  19.151   0.922
75057W        W38825  39.483  42.923  13.340
75058W        W38826  31.512  31.025   2.750
75059W        W38827  23.178  39.525  13.794
75060W        W38828  16.269  15.619  12.843
75061W        W38829   6.751  44.398  13.460
75062W        W38830  41.486  10.871   1.905
75063W        W38831  22.669  43.786  12.972
75064W        W38832  18.135  24.639  12.887
75065W        W38833  44.369  30.497  10.958
75066W        W38834   0.874   0.358   2.662
75067W        W38835   1.288  21.124   0.885
75068W        W38836   1.398   8.271   3.305
75069W        W38837   3.904  43.435   1.893
75070W        W38838  41.366  14.274   1.394
75071W        W38839  41.425  40.367   0.812
75072W        W38840  38.845  35.468   3.269
75073W        W38841  34.480   2.932   1.834
75074W        W38842  34.586  32.935  13.872
75075W        W38843   6.797  27.046  11.960
75076W        W38844  10.162   2.940   2.188
75077W        W38845  22.022  38.000   3.331
75078W        W38846  44.351   9.220   4.199
75079W        W38847  41.819  25.707   3.325
75080W        W38848  42.305  42.312   1.891
75081W        W38849  12.150  24.217   0.293
75082W        W38850  44.483  37.577   5.112
75083W        W38851  21.221  25.494  14.933
75084W        W38852  35.570  31.933   1.792
75085W        W38853  37.040  34.865   1.919
75086W        W38854  11.662  34.975  11.559
75087W        W38855  31.012  19.634   1.257
75088W        W38856  32.594   9.309  11.890
75089W        W38857  40.033  13.290  13.007
75090W        W38858  26.995  19.054   0.776
75091W        W38859   7.282  32.966  13.848
75092W        W38860  24.988  22.608   0.779
75093W        W38861  20.266  33.418   0.932
75094W        W38862   3.228  26.109  10.955
75095W        W38863  38.529  42.363   3.241
75096W        W38864  11.191  23.147  12.445
75097W        W38865   5.907   1.830   2.394
75098W        W38866   2.448  31.000  13.953
75099W        W38867  34.057  21.530  14.373
75100W        W38868  24.636  17.151   3.219
75101W        W38869  27.988  35.473  12.930
75102W        W38870   4.761  43.445  13.310
75103W        W38871   5.832   4.713   4.704
75104W        W38872  16.099   6.281   0.866
75105W        W38873  37.853  13.167   1.745
75106W        W38874   2.228   5.851  13.459
75107W        W38875  27.093  31.031   1.335
75108W        W38876  34.534   4.775   3.164
75109W        W38877  35.966  42.926   3.695
75110W        W38878  10.225   1.962   0.791
75111W        W38879  11.184   5.430  14.282
75112W        W38880  44.760   5.353   0.475
75113W        W38881  37.408  28.108   3.735
75114W        W38882  39.940   9.816   0.957
75115W        W38883  29.071  10.304  14.306
75116W        W38884   2.457  29.044  11.540
75117W        W38885   6.205  29.608   4.348
75118W        W38886  22.245  22.531   4.675
75119W        W38887  11.149  34.390  11.922
75120W        W38888  39.361  14.289   0.764
75121W        W38889  26.648  15.090  14.919
75122W        W38890  13.656  18.086  11.030
75123W        W38891  34.445  20.139   4.133
75124W        W38892   2.353  30.507   5.251
75125W        W38893  35.906  14.676  11.533
75126W        W38894  11.630  13.609  14.347
75127W        W38895   1.436  44.780  10.523
75128W        W38896  42.516  44.977   4.700
75129W        W38897  18.658  19.582  13.400
75130W        W38898  20.250  42.987  13.429
75131W        W38899   0.467  14.279   4.780
75132W        W38900  29.996  17.125  12.912
75133W        W38901  26.069  39.945  13.007
75134W        W38902  36.942  24.703  10.620
75135W        W38903  35.098  26.592   2.235
75136W        W38904  23.195  21.615  14.841
75137W        W38905  30.524  13.239   3.337
75138W        W38906  28.105  43.932   4.826
75139W        W38907   4.444  14.826  11.590
75140W        W38908  15.789  20.217  12.832
75141W        W38909  15.257  40.347  10.428
75142W        W38910  25.099  27.599   2.320
75143W        W38911  10.825  18.716  12.861
75144W        W38912   7.397  28.134   4.204
75145W        W38913  23.986  30.949   0.842
75146W        W38914  14.198  23.654  10.606
75147W        W38915   8.698   5.740   1.348
75148W        W38916  18.779  14.712  11.612
75149W        W38917  18.166   3.753   4.120
75150W        W38918   4.764  16.207  12.441
75151W        W38919  32.965   9.778  12.400
75152W        W38920  23.656   5.337  12.975
75153W        W38921  25.109  42.410  13.003
75154W        W38922   4.816  32.424   2.349
75155W        W38923  29.528   9.871  13.044
75156W        W38924  16.656  15.088   3.645
75157W        W38925  23.130  42.308   0.465
75158W        W38926  28.521  11.206  13.041
75159W        W38927   9.850  42.320   3.763
75160W        W38928   4.433  31.471   4.658
75161W        W38929  28.959  17.659   3.660
75162W        W38930  34.972  36.899  14.842
75163W        W38931  31.105   6.308  14.962
75164W        W38932  36.035  21.252   4.822
75165W        W38933  18.142   0.395   2.304
75166W        W38934  17.717  23.549   2.245
75167W        W38935  13.282  13.120   5.287
75168W        W38936  21.230   8.812   3.371
75169W        W38937  37.460  30.071  12.972
75170W        W38938  25.588   1.763  14.010
75171W        W38939  29.089  33.033   0.758
75172W        W38940  19.667  42.342   2.289
75173W        W38941  36.480  35.379  14.492
75174W        W38942  10.247  14.258  13.040
75175W        W38943   7.359   6.787   3.764
75176W        W38944  23.712  16.160  11.915
75177W        W38945  30.045  37.881   1.402
75178W        W38946  35.905  16.182  10.528
75179W        W38947  29.960   8.654   4.776
75180W        W38948  32.964   3.281   1.324
75181W        W38949  41.014   6.337   3.849
75182W        W38950  34.508   6.689   1.279
75183W        W38951  42.467  42.519  13.060
75184W        W38952  13.176  38.366   1.776
75185W        W38953  28.114  22.626  14.485
75186W        W38954  23.206   4.789  14.476
75187W        W38955   9.772  26.510   1.837
75188W        W38956  11.775  39.998   5.296
75189W        W38957  44.403   0.353   3.856
75190W        W38958  19.049  37.434  14.828
75191W        W38959  26.465  13.284   3.659
75192W        W38960  22.055  18.743  10.510
75193W        W38961  41.895  41.905  12.934
75194W        W38962  14.324  21.670  12.530
75195W        W38963  25.630  30.428  14.390
75196W        W38964  33.128  29.078  14.028
75197W        W38965  38.839  38.444   1.241
75198W        W38966   5.358  22.091   3.253
75199W        W38967  41.858  30.061   3.783
75200W        W38968  39.398  29.553   2.837
75201W        W38969  32.007  21.745   2.710
75202W        W38970  40.926   5.798  11.392
75203W        W38971   7.196  19.630   2.274
75204W        W38972  19.673  17.149  12.395
75205W        W38973   5.879  14.158   3.823
75206W        W38974  16.289  30.527  14.463
75207W        W38975  28.543  17.766  12.477
75208W        W38976  44.361  42.352  11.386
75209W        W38977  22.238  31.615  10.466
75210W        W38978  18.717  22.022  14.467
75211W        W38979   0.479  28.503   3.284
75212W        W38980   4.340  11.314  12.509
75213W        W38981   1.331  26.520  12.967
75214W        W38982  20.192  35.960   3.322
75215W        W38983   4.256  43.399  13.486
75216W        W38984   1.809  18.134   0.269
75217W        W38985  32.585  40.928  14.301
75218W        W38986   7.222  44.924  13.477
75219W        W38987  44.754  37.885   0.917
75220W        W38988  39.947  12.690   1.211
75221W        W38989   7.682  34.597  13.331
75222W        W38990  23.229  34.443   3.654
75223W        W38991  33.433  19.063  13.045
75224W        W38992   0.417  14.799  14.486
75225W        W38993  26.115  38.409  12.967
75226W        W38994  35.924  21.192   0.804
75227W        W38995  29.534   3.390  12.552
75228W        W38996  31.153  11.721  12.542
75229W        W38997  23.996  41.331  12.842
75230W        W38998  15.284  43.981   3.742
75231W        W38999  16.302  36.519  14.953
75232W        W39000   7.733  43.886  11.419
75233W        W39001  20.602  20.061   4.223
75234W        W39002  30.164  18.747   1.769
75235W        W39003   1.385  25.584   4.280
75236W        W39004  24.997  19.208  14.902
75237W        W39005  25.530  19.560   4.346
75238W        W39006  19.539  20.171   2.752
75239W        W39007  32.583   8.167  12.567
75240W        W39008  32.990   7.266   3.216
75241W        W39009  31.510   2.245  13.331
75242W        W39010   1.310  40.861  14.403
75243W        W39011   7.798   4.893  12.050
75244W        W39012   9.736  30.088   1.394
75245W        W39013   6.797  42.464  11.863
75246W        W39014   8.406   3.731   2.784
75247W        W39015   7.344  39.521   1.362
75248W        W39016   3.366  23.055   1.895
75249W        W39017  25.521   9.728   5.152
75250W        W39018  12.807  27.100  11.124
75251W        W39019  27.681  40.836   2.405
75252W        W39020   1.352  34.437  11.097
75253W        W39021  19.067   5.751  14.483
75254W        W39022  31.619  33.066  12.034
75255W        W39023  21.671   9.262   3.767
75256W        W39024  19.668  36.490   4.148
75257W        W39025  15.722  15.732  13.891
75258W        W39026  23.140  29.615   2.855
75259W        W39027   3.763  25.682   2.195
75260W        W39028  44.494  20.686  13.336
75261W        W39029   8.896  19.752   0.430
75262W        W39030  14.621   0.952  14.395
75263W        W39031  12.798  37.032  13.865
75264W        W39032  44.413  19.775   0.964
75265W        W39033  23.622  40.535  12.386
75266W        W39034  32.578   4.358  13.947
75267W        W39035  43.310   1.333   1.694
75268W        W39036  44.344  27.492  12.545
75269W        W39037  31.004   6.242   0.275
75270W        W39038  11.622  32.984   4.838
75271W        W39039  34.927  16.297   9.952
75272W        W39040  44.002  24.225  14.805
75273W        W39041  23.013  15.796   0.793
75274W        W39042  12.232  38.565   4.796
75275W        W39043   8.784   9.725  13.398
75276W        W39044  15.114  27.605  14.336
75277W        W39045  14.221   4.276  10.047
75278W        W39046  27.190  33.994   0.897
75279W        W39047  17.563  37.835   0.345
75280W        W39048  33.030  29.557  12.990
75281W        W39049  34.976  35.931   3.756
75282W        W39050  26.176   1.477   0.807
75283W        W39051  28.090  30.031   0.367
75284W        W39052  29.084   5.282  10.633
75285W        W39053  41.970   6.252   2.823
75286W        W39054   0.453  38.519   2.896
75287W        W39055  25.211  39.027  11.053
75288W        W39056  11.148  24.724   2.256
75289W        W39057  17.229  25.200   0.392
75290W        W39058  41.902   8.900  13.395
75291W        W39059  36.360  36.845  11.504
75292W        W39060   8.861  36.926  11.503
75293W        W39061  23.498  40.933   2.767
75294W        W39062   4.743  15.708  14.359
75295W        W39063  25.058  22.026  14.485
75296W        W39064  36.571  41.303   4.639
75297W        W39065  34.599  13.779   4.118
75298W        W39066   0.260   7.882   1.237
75299W        W39067   0.896  32.071   5.103
75300W        W39068  15.220  44.987   2.752
75301W        W39069  32.567  34.492   1.422
75302W        W39070  40.898   6.401   4.819
75303W        W39071  12.851  37.408   1.734
75304W        W39072  26.123  37.471  13.475
75305W        W39073  36.050   3.727  13.469
75306W        W39074  31.977  17.668   2.766
75307W        W39075  22.538  37.872  13.944
75308W        W39076   5.233  40.804  13.385
75309W        W39077  11.164   8.208  10.530
75310W        W39078   7.198  42.412  11.108
75311W        W39079   3.327  21.172  14.286
75312W        W39080  12.674  29.460  14.512
75313W        W39081   6.779  31.570   0.476
75314W        W39082   0.768  30.526  11.106
75315W        W39083  16.779  16.784   5.762
75316W        W39084   6.271  40.915   1.881
75317W        W39085  38.492  21.035  12.902
75318W        W39086   3.249  11.783   2.684
75319W        W39087  15.672  10.245   4.185
75320W        W39088  43.396  12.220  10.427
75321W        W39089  35.858  44.940   1.374
75322W        W39090  19.777  13.114  13.401
75323W        W39091   3.356  18.129   1.437
75324W        W39092  16.681  20.636  10.443
75325W        W39093   7.897  11.187  13.999
75326W        W39094  10.767  34.072  13.974
75327W        W39095  28.179   9.834   2.335
75328W        W39096   3.382  16.614  11.938
75329W        W39097   9.281  16.731  11.122
75330W        W39098  35.386   7.171   3.670
75331W        W39099   9.234  41.335  14.511
75332W        W39100  28.630  39.037   3.204
75333W        W39101  40.039   6.839   1.284
75334W        W39102   7.383  15.622  14.350
75335W        W39103  34.935  31.148  12.558
75336W        W39104  14.138   5.429   2.788
75337W        W39105  42.938  19.727   3.767
75338W        W39106   3.836  15.779   3.167
75339W        W39107  24.208  16.651  11.483
75340W        W39108  32.923  29.660  11.109
75341W        W39109  17.109  18.264   0.333
75342W        W39110   5.870  32.551  11.114
75343W        W39111  35.912   3.305   4.737
75344W        W39112  17.144   8.737  10.449
75345W        W39113  35.890  39.012   0.458
75346W        W39114  44.814  11.350   2.886
75347W        W39115   2.854  29.624   4.734
75348W        W39116  25.185  28.639   1.734
75349W        W39117  36.460  24.124   2.789
75350W        W39118  22.708   1.467  11.459
75351W        W39119  28.505  39.472  14.466
75352W        W39120  43.360  32.124  14.286
75353W        W39121  43.869   4.211  11.082
75354W        W39122  13.603  24.090  10.893
75355W        W39123  32.004   1.799  12.930
75356W        W39124   1.829   7.832  10.991
75357W        W39125  36.465  44.896  12.414
75358W        W39126  36.856  38.329   0.896
75359W        W39127  33.553  42.929   4.267
75360W        W39128   3.239   7.885  14.369
75361W        W39129   8.857  22.564  10.519
75362W        W39130  12.839  24.085   4.206
75363W        W39131  30.609  44.881  11.564
75364W        W39132  41.007  17.281   1.331
75365W        W39133   1.772   3.396   0.920
75366W        W39134  25.202  10.233   5.180
75367W        W39135   3.778   1.742  13.944
75368W        W39136  33.497  21.617  10.908
75369W        W39137  25.674  34.057  13.871
75370W        W39138   8.253  34.468   4.607
75371W        W39139  13.809  27.961  13.353
75372W        W39140  32.513  44.796   4.765
75373W        W39141  41.849   2.862  13.043
75374W        W39142  38.006   1.279   1.304
75375W        W39143   8.219  14.606   4.730
75376W        W39144   2.285   0.264   4.766
75377W        W39145  28.466   7.683  13.522
75378W        W39146   3.265  29.624   2.246
75379W        W39147  41.314  40.325  13.042
75380W        W39148  41.811   0.823   0.894
75381W        W39149  43.410  30.605  12.561
75382W        W39150   6.731  37.464   3.376
75383W        W39151  18.652  14.603   2.179
75384W        W39152  25.516  44.297   3.157
75385W        W39153  12.793  10.699  12.395
75386W        W39154  37.844  33.514  10.968
75387W        W39155  24.563  43.823  10.955
75388W        W39156  18.075  44.314  13.955
75389W        W39157  40.332   8.291  13.897
75390W        W39158  13.617  28.978   0.433
75391W        W39159  25.622  43.847   0.775
75392W        W39160   3.910  42.301  10.567
75393W        W39161   6.300  28.004  11.033
75394W        W39162  44.809  39.904   1.325
75395W        W39163  25.050   1.299  11.474
75396W        W39164  39.877  29.548  13.980
75397W        W39165  19.671  24.510  11.051
75398W        W39166  14.659  38.053  14.323
75399W        W39167   1.246  44.374  12.872
75400W        W39168  19.283  32.519   0.967
75401W        W39169  16.699  24.977   9.941
75402W        W39170   7.366  43.510   3.270
75403W        W39171  15.089  39.978   2.262
75404W        W39172  41.963   4.386  10.916
75405W        W39173   3.885  20.258  13.444
75406W        W39174  12.689  24.026   1.851
75407W        W39175  37.406  40.406   3.365
75408W        W39176   4.356  42.454   0.253
75409W        W39177  10.804  10.775  14.917
75410W        W39178  14.126  38.985  10.944
75411W        W39179  10.157  39.830   3.335
75412W        W39180  23.220  32.391  13.040
75413W        W39181  29.013  24.486   3.693
75414W        W39182  41.477  16.693   2.267
75415W        W39183  37.993  36.494   3.694
75416W        W39184  41.506  36.930  11.867
75417W        W39185   5.710  17.680   2.390
75418W        W39186  16.108  39.524   4.677
75419W        W39187   2.960  12.256   3.721
75420W        W39188  10.831   5.745  11.892
75421W        W39189  13.781  17.648   0.753
75422W        W39190  43.501   6.804   0.336
75423W        W39191  28.606  32.599  11.601
75424W        W39192  20.229  37.541   4.797
75425W        W39193  41.418  43.917   2.678
75426W        W39194  13.715  13.255  14.030
75427W        W39195  29.082  42.964   4.747
75428W        W39196  20.196  36.860  11.480
75429W        W39197  30.509   3.218  14.973
75430W        W39198  38.852  20.691   1.359
75431W        W39199   3.404  36.589   9.945
75432W        W39200  40.029  27.520  10.495
75433W        W39201   4.878   0.950   5.139
75434W        W39202  17.781  27.585  13.479
75435W        W39203  17.564   3.363   0.756
75436W        W39204   0.792  35.924  14.889
75437W        W39205  16.793  24.088  10.101
75438W        W39206  34.399  25.612  14.340
75439W        W39207  17.644  13.243  13.367
75440W        W39208  21.172  13.696   2.670
75441W        W39209  44.898  21.652   2.366
75442W        W39210  14.596  36.089   1.732
75443W        W39211  40.907  41.862  14.983
75444W        W39212  17.286  16.621  10.982
75445W        W39213  29.008  42.304  10.615
75446W        W39214   8.282   2.785   3.637
75447W        W39215  12.282  41.001  11.955
75448W        W39216   9.719  15.817  13.491
75449W        W39217  13.634  32.943  11.540
75450W        W39218  27.446  23.518   4.825
75451W        W39219  11.167  33.981   4.775
75452W        W39220  11.148  40.851   4.614
75453W        W39221  17.155  31.564   0.282
75454W        W39222  36.934  15.615   0.764
75455W        W39223   4.888  32.408  12.340
75456W        W39224  24.021  16.121   3.762
75457W        W39225  24.620  17.073  13.048
75458W        W39226  44.955   6.254   3.210
75459W        W39227  37.408   2.385   3.379
75460W        W39228  40.494   8.892   2.193
75461W        W39229   0.326   8.700  13.464
75462W        W39230  21.223   6.249  13.540
75463W        W39231  35.374  23.711   0.731
75464W        W39232  16.222  18.096   1.361
75465W        W39233   2.255   5.858   0.467
75466W        W39234  21.080  41.955  14.380
75467W        W39235  40.539  24.152  14.373
75468W        W39236   7.398  32.532   1.417
75469W        W39237  13.636  11.290   1.406
75470W        W39238  34.981  27.639  11.084
75471W        W39239  27.950  10.322   2.370
75472W        W39240  11.195  34.381  13.501
75473W        W39241  38.477   1.848   4.726
75474W        W39242  21.538  31.433  14.396
75475W        W39243  31.453  10.709  14.463
75476W        W39244  32.961  23.028  14.510
75477W        W39245  15.150   5.424  11.534
75478W        W39246  38.968  14.195  13.033
75479W        W39247   5.201  31.032  12.430
75480W        W39248  30.584  27.503  11.886
75481W        W39249  27.033   3.320   0.762
75482W        W39250  12.201   5.824   4.815
75483W        W39251  29.147   4.909  12.444
75484W        W39252  30.577   9.751   1.798
75485W        W39253  18.732   5.921   4.159
75486W        W39254  10.149  12.721   3.702
75487W        W39255  18.726  21.725  10.445
75488W        W39256  30.605   1.328   4.314
75489W        W39257  28.436   8.309   0.874
75490W        W39258  38.869  19.697   2.403
75491W        W39259  22.026   7.235  12.063
75492W        W39260   2.403  33.562   2.817
75493W        W39261  15.155   7.260   3.792
75494W        W39262  43.019  22.192  12.484
75495W        W39263  11.304   1.844  11.881
75496W        W39264  35.542  22.072   0.399
75497W        W39265  23.230  38.460  12.886
75498W        W39266   1.875  37.846  13.445
75499W        W39267  16.179   3.250   3.382
75500W        W39268  43.001   9.391   3.300
75501W        W39269  33.040  36.457   4.233
75502W        W39270  34.093  39.814   1.839
75503W        W39271  34.946  32.495   4.152
75504W        W39272  20.765  23.663   2.739
75505W        W39273   6.371  27.132   2.378
75506W        W39274  21.176  26.655  11.092
75507W        W39275  22.175  29.610  14.900
75508W        W39276  25.495  14.732   1.839
75509W        W39277  22.676  29.656  10.497
75510W        W39278  36.973   5.731   4.647
75511W        W39279   6.407  39.932   4.792
75512W        W39280  32.970  41.500  10.531
75513W        W39281  25.614   0.760  14.856
75514W        W39282  16.191  26.560   1.253
75515W        W39283  34.079   7.722  11.856
75516W        W39284  17.713  42.362   4.626
75517W        W39285  17.267  43.410  12.869
75518W        W39286   0.396  28.635  12.941
75519W        W39287  42.402  23.492   1.748
75520W        W39288   6.419  11.327   0.885
75521W        W39289  12.289  26.591   4.261
75522W        W39290  41.803  23.238   4.273
75523W        W39291  25.536  10.786  14.005
75524W        W39292  11.277   1.978   1.360
75525W        W39293   1.732  22.611   1.697
75526W        W39294   8.240  12.245  13.039
75527W        W39295  16.171  20.191  11.574
75528W        W39296  38.062   1.867  13.315
75529W        W39297  44.970  13.180   0.841
75530W        W39298  10.847   3.893   3.775
75531W        W39299   9.672  29.105  10.436
75532W        W39300  24.711  10.158  12.913
75533W        W39301  14.226  22.128  13.356
75534W        W39302  10.797  43.919  13.013
75535W        W39303  39.813  25.557   2.717
75536W        W39304  10.287  35.093  14.287
75537W        W39305  12.250  11.726   2.709
75538W        W39306  32.117   1.264   4.230
75539W        W39307  26.507  19.057   2.233
75540W        W39308  28.642  31.546  14.353
75541W        W39309  36.355  39.489  13.889
75542W        W39310  11.212  25.603   3.147
75543W        W39311   6.303  29.999   0.345
75544W        W39312   2.254   6.335   2.184
75545W        W39313  43.289  37.995  10.950
75546W        W39314   4.352  20.255  12.551
75547W        W39315  41.859  34.038   2.866
75548W        W39316  22.024  22.244  11.598
75549W        W39317   2.448  43.300   4.703
75550W        W39318  19.544  25.608   5.580
75551W        W39319  44.345  17.148   5.298
75552W        W39320  39.999  22.712  11.552
75553W        W39321   4.731   0.316  12.093
75554W        W39322   9.246  33.985   3.748
75555W        W39323   1.761   4.276   0.401
75556W        W39324  44.298  13.755  13.813
75557W        W39325  25.690  34.109   3.256
75558W        W39326  26.108  23.166   0.316
75559W        W39327  34.440  23.579   2.708
75560W        W39328  33.503  29.108  11.882
75561W        W39329  18.721   6.426   0.313
75562W        W39330  19.271  10.327   0.951
75563W        W39331  19.727  39.388   2.401
75564W        W39332  44.409   3.713  10.915
75565W        W39333  33.035   6.706  11.027
75566W        W39334  31.417  36.403  11.521
75567W        W39335   4.808  24.480   4.668
75568W        W39336   9.188  10.861   3.262
75569W        W39337  27.600  27.525   1.351
75570W        W39338  27.668  14.684   3.737
75571W        W39339  41.959  35.407  12.864
75572W        W39340  19.638  33.072  10.997
75573W        W39341  12.721  20.249   4.835
75574W        W39342   8.778   6.280  12.048
75575W        W39343   3.728  40.379   3.319
75576W        W39344  30.019  36.545  11.075
75577W        W39345  25.615  13.222   1.443
75578W        W39346  40.435  42.483  13.997
75579W        W39347  14.655  24.551   3.387
75580W        W39348  37.521  31.619   1.935
75581W        W39349  18.673  12.250   0.928
75582W        W39350  31.544  20.580   3.212
75583W        W39351  29.986  14.137   4.147
75584W        W39352  36.476  35.083  11.557
75585W        W39353  37.554  15.629   2.325
75586W        W39354  34.871   7.872  14.900
75587W        W39355  32.042  39.905  13.474
75588W        W39356   4.295   6.226  14.788
75589W        W39357  22.137  37.068   0.806
75590W        W39358  10.634  39.363   0.954
75591W        W39359  17.755  30.080  14.907
75592W        W39360  25.107  22.653  12.360
75593W        W39361   4.845  19.208  12.418
75594W        W39362  20.728  30.630  11.454
75595W        W39363  20.175   2.881  14.388
75596W        W39364  29.450  40.873   2.677
75597W        W39365  29.141  16.717   0.268
75598W        W39366   9.676  10.678   1.798
75599W        W39367  27.549   4.927   3.758
75600W        W39368  38.328  44.858  13.541
75601W        W39369  31.058  16.718   0.818
75602W        W39370  14.642  14.192   5.658
75603W        W39371  15.133  19.749   2.364
75604W        W39372  31.056  38.980   3.169
75605W        W39373  16.301  33.017  14.480
75606W        W39374   1.831  24.096   4.790
75607W        W39375  38.963   7.315  12.976
75608W        W39376   2.389   1.373  11.479
75609W        W39377  28.600  34.522  10.604
75610W        W39378   4.914  16.699  13.034
75611W        W39379  29.441  30.949   3.704
75612W        W39380  27.461  30.449   2.675
75613W        W39381  11.156  11.244   2.209
75614W        W39382  11.812  37.844  13.028
75615W        W39383  27.967  15.102   2.290
75616W        W39384   9.808  14.721  10.410
75617W        W39385  31.464   6.824   3.358
75618W        W39386  34.460  43.901  14.391
75619W        W39387  27.612   6.377   1.717
75620W        W39388  37.367   1.871   3.205
75621W        W39389  33.436  37.049   1.709
75622W        W39390  18.786   9.761   0.875
75623W        W39391   5.872  32.012   4.624
75624W        W39392  37.478  32.420  10.471
75625W        W39393   3.350  18.114   3.802
75626W        W39394  30.980  28.447   1.409
75627W        W39395  20.538  16.206  12.878
75628W        W39396  44.910  44.433  14.769
75629W        W39397  36.474   3.925   2.349
75630W        W39398   6.742  14.214   4.680
75631W        W39399  42.519   1.789  14.476
75632W        W39400   4.288   0.348  11.865
75633W        W39401  11.228  29.598   2.697
75634W        W39402  30.993   7.750  11.513
75635W        W39403  19.614   0.974  13.352
75636W        W39404  40.457  35.565  13.408
75637W        W39405  23.505  36.088   3.862
75638W        W39406  39.977  21.194  11.423
75639W        W39407  15.261  14.633  11.010
75640W        W39408   1.834  10.797   1.335
75641W        W39409  25.130  24.213  14.301
75642W        W39410  38.994   3.297   2.299
75643W        W39411  23.127  43.885   0.800
75644W        W39412   4.815  28.576  12.494
75645W        W39413  37.049  16.213  13.899
75646W        W39414  17.088  24.545  12.872
75647W        W39415   3.929  29.996  10.521
75648W        W39416  30.585  21.568   2.342
75649W        W39417  13.692   5.365   0.848
75650W        W39418  17.775  14.694  11.991
75651W        W39419  39.871  33.933   2.675
75652W        W39420  15.774  36.040   2.762
75653W        W39421   0.334  14.702  11.922
75654W        W39422  37.904  20.122  13.517
75655W        W39423   5.208  37.461   4.751
75656W        W39424  23.108  26.525   4.799
75657W        W39425  24.106   8.718  13.493
75658W        W39426  10.290  18.667   2.214
75659W        W39427  19.745  17.234  11.573
75660W        W39428   1.466  36.012   0.342
75661W        W39429  44.368   7.301  11.549
75662W        W39430   8.797  21.047   5.304
75663W        W39431  23.655  23.695   3.164
75664W        W39432   9.306  17.628  13.515
75665W        W39433  20.209  44.887   4.624
75666W        W39434  42.408  14.279   0.798
75667W        W39435  14.798  16.133   9.975
75668W        W39436  12.357   2.862   3.698
75669W        W39437  19.588  30.627   0.429
75670W        W39438  35.579  26.201   2.751
75671W        W39439  22.619  29.521   2.688
75672W        W39440  23.641  33.992   2.893
75673W        W39441  43.988  36.899  14.818
75674W        W39442  25.977   3.403  10.933
75675W        W39443  27.652  32.496   3.780
75676W        W39444  38.348  19.187   2.196
75677W        W39445   6.267  30.558   0.808
75678W        W39446  37.986  44.850  11.952
75679W        W39447  16.197   2.240   0.775
75680W        W39448  35.420   4.770  12.340
75681W        W39449  14.181  34.080  10.597
75682W        W39450  14.630   3.761   0.312
75683W        W39451  29.983  39.334  11.465
75684W        W39452  29.528  20.140  13.449
75685W        W39453  27.509  12.835   3.198
75686W        W39454  30.488  43.418  13.324
75687W        W39455  41.011  28.471  13.509
75688W        W39456  26.159  39.021  11.921
75689W        W39457  38.510   2.257   2.845
75690W        W39458  42.458  15.220   4.318
75691W        W39459  30.154  39.363  12.447
75692W        W39460  39.001   1.405   0.359
75693W        W39461  37.033  41.818   3.797
75694W        W39462  38.869  42.492   4.791
75695W        W39463  41.013  22.144  12.404
75696W        W39464  13.131  16.214   0.411
75697W        W39465  10.819   7.721  10.965
75698W        W39466  10.643  28.611   3.777
75699W        W39467  17.150  43.482   4.826
75700W        W39468   0.296  36.405   1.877
75701W        W39469   3.941   3.264  11.514
75702W        W39470   6.202  18.608   0.333
75703W        W39471  20.613  35.034   2.713
75704W        W39472   5.203  32.133  12.519
75705W        W39473  13.247  35.895  14.962
75706W        W39474  11.776   4.322  14.821
75707W        W39475  40.931  43.901  14.766
75708W        W39476   2.849   2.875  11.095
75709W        W39477   0.957  26.651   2.295
75710W        W39478  41.824  41.967  11.115
75711W        W39479  20.040  17.704  11.926
75712W        W39480  17.264  32.917   0.916
75713W        W39481  12.732  39.887   4.191
75714W        W39482  26.983  33.413   4.603
75715W        W39483  32.915  30.429  11.896
75716W        W39484   4.837  33.952   3.848
75717W        W39485   5.438  40.973   3.166
75718W        W39486  39.541  33.380  10.562
75719W        W39487  13.775   8.718   3.153
75720W        W39488  31.595  43.280   4.327
75721W        W39489  33.535  13.266  14.833
75722W        W39490  30.459  37.980   1.920
75723W        W39491  28.031  12.653  11.431
75724W        W39492  24.214  40.915  14.339
75725W        W39493  41.024  42.414   3.258
75726W        W39494  44.794  29.654  14.923
75727W        W39495  41.456  25.154  12.417
75728W        W39496  38.985  24.539   2.678
75729W        W39497  15.581   1.745  10.609
75730W        W39498  21.072  13.787  10.575
75731W        W39499  17.783  37.420  13.399
75732W        W39500   5.822  36.033   4.247
75733W        W39501  39.408  42.506  12.480
75734W        W39502   5.211  20.116  12.552
75735W        W39503   6.747  30.571   4.666
75736W        W39504  23.089  37.042  13.536
75737W        W39505  26.970  40.302  10.529
75738W        W39506  22.670  27.976   3.782
75739W        W39507  12.226  44.356   0.813
75740W        W39508   5.412  16.585   3.646
75741W        W39509  44.876  31.619   3.307
75742W        W39510   2.843   0.816   2.348
75743W        W39511  16.226  29.565   3.377
75744W        W39512   4.345  11.218  13.886
75745W        W39513  20.667  20.083   1.334
75746W        W39514  40.332  27.485  12.094
75747W        W39515  25.043  28.541  11.023
75748W        W39516  16.677   5.220  12.485
75749W        W39517  12.855  22.152   1.912
75750W        W39518  33.031  19.741   0.411
75751W        W39519  24.559  35.601   5.313
75752W        W39520  12.691  43.386  10.490
75753W        W39521  43.363  12.668   0.892
75754W        W39522  17.754  38.533   0.397
75755W        W39523  39.974   9.277  11.981
75756W        W39524  28.435  28.177   3.253
75757W        W39525  27.567  11.127  11.425
75758W        W39526   0.756  41.351  12.867
75759W        W39527  33.984  42.991  13.919
75760W        W39528   6.905  36.871  12.930
75761W        W39529  26.537   3.238   1.430
75762W        W39530  10.242  40.033   4.744
75763W        W39531   1.744  34.925   0.923
75764W        W39532  29.967   3.367   1.833
75765W        W39533  32.492  22.088   4.156
75766W        W39534  30.042   9.762  13.365
75767W        W39535  15.639  37.506  13.454
75768W        W39536  14.618  40.441   3.264
75769W        W39537  18.664  44.327   0.266
75770W        W39538  14.096  10.707  11.385
75771W        W39539   3.894  35.042   2.335
75772W        W39540   4.862  33.566   2.374
75773W        W39541  16.608  18.637  11.915
75774W        W39542   7.411   4.334   0.416
75775W        W39543  27.553  36.442  10.042
75776W        W39544   0.250  28.085  11.500
75777W        W39545  41.862  35.430   3.271
75778W        W39546  41.337  19.108  13.955
75779W        W39547   3.429   3.930  12.419
75780W        W39548   9.205  25.562   2.884
75781W        W39549   4.251  22.616   0.821
75782W        W39550  14.185  15.608   0.775
75783W        W39551  30.528  43.778   2.304
75784W        W39552  23.646   7.793  11.122
75785W        W39553  10.823  38.465   4.816
75786W        W39554  28.664   9.652   0.260
75787W        W39555  24.216  37.382  12.044
75788W        W39556  10.646   3.325  12.511
75789W        W39557  34.481  29.617   1.700
75790W        W39558  42.358  26.178   2.820
75791W        W39559  33.453  37.422  10.112
75792W        W39560  29.437  10.275   3.175
75793W        W39561  26.071  16.711   2.293
75794W        W39562  44.367  23.215   3.764
75795W        W39563   1.337  43.460   0.272
75796W        W39564  26.665  32.504  13.411
75797W        W39565  42.393  38.514  12.580
75798W        W39566  15.290  43.820  12.943
75799W        W39567  18.690  34.899   4.643
75800W        W39568  15.135  34.949  14.878
75801W        W39569  33.879  39.922   0.451
75802W        W39570  33.021  15.144  14.355
75803W        W39571   6.817  34.521   1.699
75804W        W39572  13.617  42.814   4.787
75805W        W39573  39.346  42.994  10.621
75806W        W39574  33.917  42.887  12.365
75807W        W39575  19.141  12.667  13.877
75808W        W39576  12.682  30.058   1.299
75809W        W39577  12.319  34.951  12.990
75810W        W39578  23.984  41.822  13.800
75811W        W39579  28.472  16.275  13.429
75812W        W39580   4.940  26.098  10.624
75813W        W39581   2.748  25.113  13.055
75814W        W39582  40.957  16.161  12.942
75815W        W39583  14.685  19.282  14.325
75816W        W39584  24.178  29.480  14.498
75817W        W39585   8.378  31.487   1.344
75818W        W39586  36.903   6.251   2.197
75819W        W39587  25.708  44.260  12.346
75820W        W39588  12.325   5.854   3.751
75821W        W39589  25.532  13.659   1.220
75822W        W39590  38.338  36.089   2.186
75823W        W39591  30.005   9.177   3.759
75824W        W39592  44.316  32.589   3.348
75825W        W39593  32.011  19.650   4.336
75826W        W39594  25.043  31.501   3.317
75827W        W39595  42.422  19.606   3.262
75828W        W39596  16.170   9.819   2.803
75829W        W39597  18.775   0.964  14.847
75830W        W39598   6.736  41.012  12.829
75831W        W39599  28.509  13.231   9.969
75832W        W39600  15.798  27.516   3.162
75833W        W39601  22.584  10.844  13.463
75834W        W39602  30.134  44.963   2.418
75835W        W39603  30.088  41.302  11.056
75836W        W39604  17.628  13.600  14.866
75837W        W39605  27.970  45.000  14.907
75838W        W39606  11.289  29.640   1.423
75839W        W39607  23.687   8.703   0.905
75840W        W39608   8.697  28.053   0.304
75841W        W39609  25.696  29.449  13.331
75842W        W39610   6.858  17.690   0.937
75843W        W39611  16.571   5.711  13.844
75844W        W39612  16.272  32.620  14.353
75845W        W39613  41.464  15.083   0.733
75846W        W39614  12.655  19.535  12.425
75847W        W39615  44.925  21.187  11.874
75848W        W39616   0.895   0.860   1.328
75849W        W39617  30.417  18.178   4.703
75850W        W39618  33.395   4.872   0.428
75851W        W39619  21.607  14.642  11.456
75852W        W39620  27.072  30.152  12.088
75853W        W39621  25.097   2.810  12.340
75854W        W39622   1.416   3.229  13.038
75855W        W39623  20.649  15.624  11.414
75856W        W39624  23.582  12.838   1.315
75857W        W39625   3.264  19.567   4.320
75858W        W39626   5.870  43.948  10.442
75859W        W39627  34.373  19.126   4.744
75860W        W39628  20.584   7.900   1.378
75861W        W39629  14.176  34.904  12.511
75862W        W39630  31.441  40.494   3.313
75863W        W39631   8.852  22.137  13.544
75864W        W39632  31.010  38.881   2.196
75865W        W39633  41.881  35.988  12.975
75866W        W39634  41.515  37.966   1.381
75867W        W39635   7.298  33.901  12.946
75868W        W39636  28.132   2.248  13.064
75869W        W39637  18.583  14.701   1.727
75870W        W39638   1.484   4.941   1.751
75871W        W39639   1.898  13.827   0.455
75872W        W39640  40.932  32.930  12.928
75873W        W39641   4.396   3.269  12.935
75874W        W39642   8.161  31.445  11.389
75875W        W39643  33.017  33.593   3.250
75876W        W39644   5.356   7.241  11.580
75877W        W39645  14.209  37.064   0.767
75878W        W39646  15.094  32.110  10.959
75879W        W39647  10.737  27.047   4.173
75880W        W39648   7.785   9.878   0.322
75881W        W39649  16.773  44.481  12.407
75882W        W39650  24.617  37.049   0.957
75883W        W39651  39.548  43.870   1.313
75884W        W39652   2.842   7.224  14.973
75885W        W39653  32.992  25.713   3.741
75886W        W39654   3.293   7.178  11.855
75887W        W39655  27.170  28.147   1.880
75888W        W39656  19.673  26.974   4.270
75889W        W39657   8.224  12.820  13.340
75890W        W39658   2.287  28.979  12.575
75891W        W39659  11.162  34.427   3.172
75892W        W39660  39.928  18.254   4.740
75893W        W39661   8.360  20.618   2.865
75894W        W39662   3.771  31.012   4.779
75895W        W39663   1.255  30.559   1.367
75896W        W39664  32.961  32.004   0.925
75897W        W39665  12.325  43.275  12.360
75898W        W39666  18.189  10.839   4.118
75899W        W39667  19.088  34.061   0.783
75900W        W39668  32.891   6.227  12.569
75901W        W39669  21.654   9.786  13.988
75902W        W39670  36.412  34.615  13.841
75903W        W39671  33.476  28.068   1.408
75904W        W39672   6.814  18.136  14.332
75905W        W39673  22.140  16.262   1.820
75906W        W39674  11.289   5.226   4.132
75907W        W39675  31.004  27.160  13.323
75908W        W39676   4.313   4.237  13.476
75909W        W39677  34.884  14.256  12.531
75910W        W39678  33.019  41.861   3.292
75911W        W39679   2.379  27.101  13.814
75912W        W39680  42.315  41.023   1.896
75913W        W39681  20.645  12.360  12.967
75914W        W39682   5.314  18.746   4.606
75915W        W39683  36.362  28.626   3.781
75916W        W39684  20.546  36.403   4.158
75917W        W39685  14.642  18.590  14.896
75918W        W39686  35.392   3.383  10.601
75919W        W39687   5.389  39.398  13.791
75920W        W39688   7.846  18.790   0.885
75921W        W39689  31.018   4.938   4.295
75922W        W39690   3.403   8.192  12.037
75923W        W39691  28.986   7.330   3.847
75924W        W39692  36.440  21.186  13.521
75925W        W39693  24.007   0.396  10.136
75926W        W39694   9.373  34.914  10.454
75927W        W39695   8.202  19.161  11.944
75928W        W39696  28.564   3.835  11.464
75929W        W39697   0.314  12.145  13.532
75930W        W39698  37.017   3.774   2.393
75931W        W39699  10.644   9.838  11.114
75932W        W39700  25.996   2.323   0.483
75933W        W39701  35.933  14.237  10.590
75934W        W39702  41.510  36.442  12.049
75935W        W39703   8.837   9.842   4.141
75936W        W39704   6.416  25.705   1.381
75937W        W39705  21.124  25.480   1.889
75938W        W39706  30.611  20.564   1.833
75939W        W39707  41.317  18.275   2.777
75940W        W39708   1.401  28.106  14.275
75941W        W39709  14.239  13.284   0.288
75942W        W39710   8.806  23.721   4.748
75943W        W39711  43.788  41.938   1.808
75944W        W39712  30.575   5.307  10.458
75945W        W39713  29.539  22.502  13.401
75946W        W39714  36.366  10.281  10.622
75947W        W39715  34.391  20.182  12.899
75948W        W39716  17.571  32.090  13.980
75949W        W39717  24.183   9.868  11.520
75950W        W39718   8.815  43.294   3.154
75951W        W39719  13.139  35.946   2.756
75952W        W39720  20.063   2.344  14.462
75953W        W39721  34.997   9.706  10.527
75954W        W39722  25.081  33.955   3.188
75955W        W39723   9.174  30.028  12.004
75956W        W39724   4.213   3.844  13.316
75957W        W39725  14.096  19.186  14.312
75958W        W39726  29.546  10.236  14.826
75959W        W39727  44.917   9.856   4.678
75960W        W39728  10.313  28.612   0.764
75961W        W39729  38.877  41.035  13.962
75962W        W39730  42.340   1.882  13.430
75963W        W39731  25.541   9.361  14.489
75964W        W39732  16.209  29.117  12.341
75965W        W39733   0.346  31.076  12.392
75966W        W39734  21.713  21.262  13.400
75967W        W39735  18.709  32.496   4.774
75968W        W39736  18.148   9.243  13.413
75969W        W39737   3.258  14.151   5.195
75970W        W39738  44.481   3.456   0.888
75971W        W39739  28.069  30.059  10.455
75972W        W39740  11.348  39.399   1.776
75973W        W39741  26.461   5.917  10.546
75974W        W39742  19.198   2.382   2.201
75975W        W39743  42.022  30.971  11.014
75976W        W39744  28.675  13.628  13.452
75977W        W39745  37.080  44.500  12.450
75978W        W39746   6.245  27.630  11.523
75979W        W39747   3.308  16.252  13.525
75980W        W39748  31.968  40.902  10.521
75981W        W39749  35.457  29.516  14.829
75982W        W39750  31.986  34.012  13.494
75983W        W39751  14.606   5.891   0.268
75984W        W39752  23.075  13.210  11.874
75985W        W39753  34.460  20.621  11.102
75986W        W39754  11.311   6.742  14.954
75987W        W39755  25.584  28.979  13.010
75988W        W39756  28.555  19.577   3.291
75989W        W39757  39.525  43.931   0.473
75990W        W39758  10.180  24.492   0.399
75991W        W39759  14.658  33.067  12.007
75992W        W39760  17.197  16.239  12.952
75993W        W39761   1.804  35.085   3.239
75994W        W39762   3.421  26.172  12.487
75995W        W39763  22.224  28.560   0.879
75996W        W39764   5.308  43.859   0.921
75997W        W39765   0.863  10.328  11.918
75998W        W39766  40.422   8.313  10.977
75999W        W39767  19.270  31.633  11.925
76000W        W39768  17.228   9.844  12.536
76001W        W39769  41.338  44.413  12.515
76002W        W39770  17.205  33.596   3.157
76003W        W39771  17.600  28.580  11.864
76004W        W39772   1.805  14.743   0.247
76005W        W39773  40.349  18.768  14.390
76006W        W39774  30.632  22.101  13.399
76007W        W39775   3.810  29.587   4.789
76008W        W39776  39.381  38.038   3.191
76009W        W39777   5.850  25.026   0.435
76010W        W39778  12.129   5.402  11.923
76011W        W39779  27.599  27.620  11.529
76012W        W39780  32.117  28.580  11.053
76013W        W39781   8.314  26.169  12.978
76014W        W39782  27.483  15.117  14.288
76015W        W39783  22.179  25.656  10.940
76016W        W39784   0.284  12.293  13.825
76017W        W39785  38.545   3.733  11.105
76018W        W39786  22.149  11.253  13.316
76019W        W39787  14.120  11.278   5.196
76020W        W39788  29.985  15.221   3.761
76021W        W39789  29.653  22.124   2.246
76022W        W39790   2.936   4.216   4.154
76023W        W39791  14.676  37.017   0.924
76024W        W39792  14.157  21.061  14.816
76025W        W39793   6.731   8.317  14.383
76026W        W39794  15.283  20.612   1.341
76027W        W39795   3.850  44.964   2.782
76028W        W39796  38.890   8.886   3.772
76029W        W39797  24.634  17.744   4.263
76030W        W39798  10.643   1.387   0.389
76031W        W39799  39.353  14.639   0.453
76032W        W39800  27.563  33.992   3.825
76033W        W39801  24.640  34.112  14.395
76034W        W39802  37.885  44.807   0.453
76035W        W39803   5.194  23.227   0.434
76036W        W39804   5.256  29.637   2.214
76037W        W39805  13.764  14.751  12.579
76038W        W39806  22.214  32.510  11.599
76039W        W39807  44.468   9.688   1.770
76040W        W39808  28.114   5.714   1.446
76041W        W39809  28.592  27.964   1.222
76042W        W39810   6.197  10.275   4.645
76043W        W39811  39.552  23.205  13.829
76044W        W39812  44.407   2.236   3.707
76045W        W39813  13.280  31.498   4.218
76046W        W39814  17.207   7.897   0.853
76047W        W39815  39.864   1.765   2.893
76048W        W39816  26.204  22.710  11.413
76049W        W39817  31.644  15.780   3.755
76050W        W39818  24.047  34.914  10.954
76051W        W39819   4.358   6.357   3.749
76052W        W39820  35.369   2.382   4.150
76053W        W39821   5.886  27.457  14.494
76054W        W39822  13.340  38.970   2.356
76055W        W39823  22.140   4.345   4.187
76056W        W39824  12.816  43.346  11.963
76057W        W39825  25.124  42.801   1.714
76058W        W39826   6.254   3.342  12.472
76059W        W39827  19.686  18.148  11.561
76060W        W39828   0.374   2.406   3.800
76061W        W39829  33.398  33.054  14.491
76062W        W39830  13.811  38.915   3.767
76063W        W39831  20.664  30.021   1.873
76064W        W39832  22.244  38.057   4.768
76065W        W39833  22.058  29.629   3.171
76066W        W39834  39.373   5.243  12.066
76067W        W39835  36.472  12.652   2.382
76068W        W39836  33.409  14.591   1.700
76069W        W39837  33.028  35.076  12.076
76070W        W39838   6.341  26.190   4.705
76071W        W39839  10.759   9.687  12.501
76072W        W39840  18.204  41.815   1.881
76073W        W39841  42.474   7.834   0.822
76074W        W39842  23.660  17.094  11.866
76075W        W39843   1.275  24.004   3.174
76076W        W39844  27.105  26.029  12.002
76077W        W39845  13.249   0.759   2.806
76078W        W39846  25.041  17.747  12.979
76079W        W39847  24.629   3.446  12.866
76080W        W39848  30.429  33.037   1.372
76081W        W39849  31.111  26.006  10.543
76082W        W39850  14.314  17.177  10.892
76083W        W39851   1.292  33.614   2.719
76084W        W39852  20.196  10.231   4.173
76085W        W39853  33.577   8.864   1.408
76086W        W39854  23.507  27.071  11.856
76087W        W39855   4.327  43.429   3.291
76088W        W39856  36.943  44.303   3.337
76089W        W39857  35.374  24.611  13.471
76090W        W39858  10.697  32.524   0.296
76091W        W39859  44.839  10.708   2.196
76092W        W39860   7.254  10.167  11.059
76093W        W39861  16.745   8.305  13.397
76094W        W39862  32.961   9.822   3.222
76095W        W39863  41.414  18.623   4.266
76096W        W39864  30.925  16.255   3.240
76097W        W39865  23.129  38.906   1.891
76098W        W39866   5.913  40.028   4.326
76099W        W39867  34.466  26.961   4.298
76100W        W39868  38.876  33.530  11.009
76101W        W39869  17.118  43.961   1.860
76102W        W39870  10.704  17.652   4.235
76103W        W39871  31.635  33.119   0.383
76104W        W39872  23.654   9.204  12.947
76105W        W39873  27.043  33.596   5.795
76106W        W39874  19.272  23.669   0.794
76107W        W39875   5.829  18.763  11.488
76108W        W39876  20.057  10.870  14.897
76109W        W39877  20.143   6.764  14.893
76110W        W39878  39.941  22.223   2.293
76111W        W39879  38.352  40.028   0.433
76112W        W39880  10.195  38.534   0.936
76113W        W39881   6.210  43.281   3.281
76114W        W39882  41.973  13.163  11.506
76115W        W39883  40.485  13.627   4.793
76116W        W39884  28.044  16.120  13.466
76117W        W39885   4.222  22.561   2.310
76118W        W39886   8.221   3.262   5.316
76119W        W39887  37.040  24.075   3.243
76120W        W39888   5.306   3.378   9.963
76121W        W39889  44.008  29.935   4.219
76122W        W39890  13.674  16.738   5.294
76123W        W39891  37.069   9.877  11.571
76124W        W39892   9.793  13.766  12.510
76125W        W39893   3.447  35.539  12.346
76126W        W39894  32.130  39.931   1.407
76127W        W39895  15.288  11.162   1.386
76128W        W39896   5.884  15.651   3.308
76129W        W39897  40.416   5.866  12.844
76130W        W39898  22.154  20.540  13.345
76131W        W39899  16.795  22.089   1.445
76132W        W39900  39.366  23.501  10.551
76133W        W39901   6.406  29.629  12.397
76134W        W39902  28.585   4.247   0.408
76135W        W39903   2.786   6.775  10.988
76136W        W39904  15.641  44.482   2.737
76137W        W39905  43.890  18.084   1.308
76138W        W39906   2.901  21.235  13.856
76139W        W39907  32.510  40.990   3.335
76140W        W39908  16.250   5.286   2.310
76141W        W39909  27.945  28.022   4.833
76142W        W39910  28.509  10.788   0.879
76143W        W39911  36.579  12.639   4.313
76144W        W39912  30.415  42.377   1.759
76145W        W39913  39.425   8.881  12.910
76146W        W39914   7.886   5.353  13.314
76147W        W39915  44.380  20.125   3.723
76148W        W39916   1.367  35.982  11.467
76149W        W39917  14.827  10.263  12.862
76150W        W39918  38.995  42.361  10.467
76151W        W39919   4.289   8.293  12.984
76152W        W39920  24.037  12.830   2.806
76153W        W39921  24.634  42.828  11.989
76154W        W39922   2.396   5.362  10.536
76155W        W39923  14.760  35.601  11.892
76156W        W39924  19.535  34.527   3.348
76157W        W39925  41.005  29.604   1.256
76158W        W39926  27.140  38.388  11.551
76159W        W39927   7.870  39.877   3.251
76160W        W39928  19.219  43.871  11.485
76161W        W39929  17.798   5.360  14.318
76162W        W39930  15.147  19.123   1.221
76163W        W39931  15.141  16.793   2.848
76164W        W39932  43.881  41.501   1.379
76165W        W39933  35.883  13.638  14.415
76166W        W39934   6.845   4.274  11.541
76167W        W39935   7.179  14.302  14.906
76168W        W39936  14.163  43.896  10.579
76169W        W39937   7.353  39.844   0.840
76170W        W39938  36.381  31.539  10.458
76171W        W39939   5.241  35.881   0.863
76172W        W39940   6.189  37.973   4.227
76173W        W39941   4.737  13.223  12.485
76174W        W39942   3.802  13.779  13.966
76175W        W39943  28.091   5.297   4.739
76176W        W39944  11.659  36.003  14.999
76177W        W39945  39.482  24.980   1.353
76178W        W39946  37.406  40.372  14.956
76179W        W39947  42.387  26.182  14.025
76180W        W39948   4.367  41.517   3.173
76181W        W39949  34.428   2.860  14.801
76182W        W39950  14.212  33.435   1.858
76183W        W39951  24.981   8.401   3.858
76184W        W39952  20.088  31.623   0.900
76185W        W39953   1.939  29.495   0.386
76186W        W39954   2.894  41.867  13.955
76187W        W39955  35.919  23.021  12.939
76188W        W39956   4.755  17.689   1.232
76189W        W39957  11.829  18.629   0.906
76190W        W39958  12.258  40.549  10.592
76191W        W39959   1.884   5.700  12.421
76192W        W39960   3.910  27.155  12.560
76193W        W39961   7.208  40.390   4.751
76194W        W39962  44.871  34.389  13.523
76195W        W39963  14.145  19.244  13.414
76196W        W39964  15.816  22.101   4.318
76197W        W39965  18.590  22.018   1.919
76198W        W39966  15.142  20.245  10.103
76199W        W39967  30.947   2.396  12.548
76200W        W39968  41.867  15.601   4.725
76201W        W39969  12.340  17.300  11.117
76202W        W39970  36.396  18.053   2.782
76203W        W39971  41.947  44.281   1.739
76204W        W39972   2.453  16.145  11.489
76205W        W39973   8.224  30.034  14.009
76206W        W39974  38.835  44.322  12.374
76207W        W39975  24.061  39.929  10.519
76208W        W39976   5.322   6.365   1.722
76209W        W39977   5.266  22.132  13.043
76210W        W39978   6.366   5.387  13.439
76211W        W39979  29.607   0.968   2.879
76212W        W39980  13.242  20.569   2.807
76213W        W39981  18.142  40.322  14.490
76214W        W39982  21.237  35.005  13.458
76215W        W39983  43.972  24.479  11.972
76216W        W39984  19.742  26.111   0.444
76217W        W39985  41.391  36.994   3.161
76218W        W39986  19.637  38.919  11.010
76219W        W39987  21.618  11.189  10.642
76220W        W39988  40.513   3.748  12.840
76221W        W39989  23.082  16.588  11.599
76222W        W39990   8.375  31.529   3.285
76223W        W39991   9.179  32.559  12.856
76224W        W39992  11.178   8.206   1.302
76225W        W39993  27.036  32.629  12.389
76226W        W39994  16.116  37.051  12.397
76227W        W39995  25.646  10.712  10.964
76228W        W39996   4.801  44.911   2.869
76229W        W39997  44.459  19.759  10.065
76230W        W39998  18.644  40.919  14.285
76231W        W39999  31.119  37.980  12.964
76232W        W40000  40.828  27.085  14.954
76233W        W40001  40.864  25.632   2.868
76234W        W40002   4.942   7.218  11.001
76235W        W40003  10.745  10.269   3.838
76236W        W40004  36.057  16.778   3.749
76237W        W40005  32.515   9.244   0.263
76238W        W40006  35.853  29.988   3.227
76239W        W40007  30.152  26.456  13.888
76240W        W40008  23.178  39.550   0.349
76241W        W40009  19.631  33.393   2.359
76242W        W40010  21.203   4.331   1.819
76243W        W40011  26.565  25.007  14.410
76244W        W40012  12.803  40.933  12.984
76245W        W40013  32.606  36.974  12.845
76246W        W40014  23.597  28.945   4.281
76247W        W40015  26.692  17.599  10.629
76248W        W40016   9.215  26.656   1.442
76249W        W40017  15.130   5.197   4.771
76250W        W40018  34.372  26.674  10.504
76251W        W40019  15.185  39.041   0.752
76252W        W40020   5.924   7.726   4.794
76253W        W40021  22.126  40.369  10.449
76254W        W40022  18.087  19.100   3.820
76255W        W40023  39.525   4.868  13.512
76256W        W40024   9.256  18.672   3.865
76257W        W40025  23.076  14.262   4.610
76258W        W40026   2.303  17.743   3.716
76259W        W40027  36.397  22.642  12.365
76260W        W40028  39.423  16.647   2.668
76261W        W40029  26.998   6.803  10.597
76262W        W40030  12.755  20.715  10.610
76263W        W40031  18.701  37.854  13.398
76264W        W40032  11.685  44.926  14.454
76265W        W40033  21.242  39.407  13.815
76266W        W40034  28.934  17.791   4.715
76267W        W40035  21.108  44.262  14.323
76268W        W40036  41.359  20.639  14.514
76269W        W40037  12.193  42.798   0.865
76270W        W40038  21.167   4.211  12.468
76271W        W40039  38.028  36.561   2.769
76272W        W40040  20.206  20.221   2.205
76273W        W40041   8.789  29.583   2.706
76274W        W40042  44.414  22.101  12.957
76275W        W40043  23.215  44.824   2.758
76276W        W40044   6.293  36.094   2.900
76277W        W40045   8.731  31.062   1.332
76278W        W40046  38.844   9.172   1.303
76279W        W40047  35.015  21.203  14.941
76280W        W40048  35.483  32.131  12.559
76281W        W40049  20.534   8.177   3.299
76282W        W40050  38.042  17.093  13.946
76283W        W40051  17.180  18.220  13.458
76284W        W40052  24.163  29.012   3.349
76285W        W40053   7.356  36.025   2.391
76286W        W40054  20.148  20.573  14.367
76287W        W40055  20.630  28.089  13.906
76288W        W40056   2.781  37.407   3.279
76289W        W40057  17.221  13.773  14.988
76290W        W40058  23.128  29.567  14.972
76291W        W40059  31.430   4.851  10.502
76292W        W40060  17.621  38.041  13.994
76293W        W40061   5.409  25.998  10.468
76294W        W40062  20.122  26.675   2.887
76295W        W40063  10.677  41.494   3.339
76296W        W40064  32.045  34.046  12.369
76297W        W40065  42.497  41.813  13.871
76298W        W40066  42.468  12.238  13.955
76299W        W40067  35.378  44.473  10.537
76300W        W40068   9.273  23.631   2.720
76301W        W40069  29.647   9.847  12.083
76302W        W40070  14.328  18.645   1.722
76303W        W40071  30.557  12.715   2.695
76304W        W40072  11.746  26.146   0.847
76305W        W40073  39.358  33.483  11.591
76306W        W40074  37.436  27.474   0.449
76307W        W40075  44.929  33.574  11.561
76308W        W40076   1.782  38.957  12.035
76309W        W40077  33.510  20.686   0.468
76310W        W40078  35.947  15.651  14.820
76311W        W40079  44.843  20.697  12.576
76312W        W40080   1.387   2.954  12.012
76313W        W40081  12.354  34.978   0.384
76314W        W40082   3.900  33.002  12.006
76315W        W40083  20.155   4.904  10.129
76316W        W40084  18.733  28.167   5.244
76317W        W40085  26.532  15.110  11.936
76318W        W40086  24.515  27.656   2.893
76319W        W40087   2.241  20.596  12.570
76320W        W40088  27.602  32.934  12.500
76321W        W40089  28.981  27.042   3.768
76322W        W40090  38.533   4.229  14.461
76323W        W40091  29.616  34.979   4.816
76324W        W40092  28.464  10.834  11.080
76325W        W40093  40.054  43.910   4.166
76326W        W40094  25.524  41.497   3.708
76327W        W40095  18.160  34.425   1.818
76328W        W40096  11.177   2.847   2.187
76329W        W40097  39.504  35.100  11.101
76330W        W40098  18.554  42.502   1.732
76331W        W40099   9.653   0.290  10.542
76332W        W40100  10.787  33.008  10.540
76333W        W40101  21.136  40.881   0.767
76334W        W40102  34.545  37.016   4.168
76335W        W40103  20.058  33.897   1.798
76336W        W40104  26.594  37.518  13.850
76337W        W40105  13.173  41.485   5.272
76338W        W40106  34.400  12.328  13.493
76339W        W40107  12.351   1.276  11.422
76340W        W40108  33.521  14.211   4.154
76341W        W40109   0.840  35.953   2.403
76342W        W40110  31.124  30.612   5.095
76343W        W40111   1.308  16.204   2.746
76344W        W40112  27.992  39.479   3.827
76345W        W40113  43.480  24.225  10.590
76346W        W40114  16.277   7.894  10.408
76347W        W40115  37.373  19.088   3.723
76348W        W40116  22.027  40.441  12.564
76349W        W40117  39.423  14.593   1.790
76350W        W40118  16.680   3.760  13.824
76351W        W40119  31.616  24.634   4.266
76352W        W40120  16.259  34.921   0.923
76353W        W40121  29.973  37.834   4.621
76354W        W40122  13.773  38.884   0.952
76355W        W40123   5.857  12.185  13.881
76356W        W40124  17.233  35.573  11.431
76357W        W40125  18.635  44.004   4.825
76358W        W40126  18.182  41.919  12.960
76359W        W40127  12.349   7.248  11.059
76360W        W40128  20.263  43.478  12.490
76361W        W40129  10.314  16.654  10.148
76362W        W40130   4.258  18.586   4.227
76363W        W40131  35.461  38.861   0.439
76364W        W40132  19.651  40.381   4.189
76365W        W40133  17.086  25.967  13.933
76366W        W40134  31.082   4.216  13.465
76367W        W40135   2.910   8.381  13.843
76368W        W40136  16.746  11.858  12.506
76369W        W40137  15.270  27.108  10.441
76370W        W40138  23.235   4.310   3.369
76371W        W40139  10.302   6.905  10.464
76372W        W40140  17.656  27.089  10.015
76373W        W40141  23.120   9.728  14.912
76374W        W40142  18.590  25.595   2.234
76375W        W40143  17.669  25.190   1.921
76376W        W40144   9.270  28.548  11.863
76377W        W40145  35.465  41.498  11.038
76378W        W40146  16.635  30.604   5.135
76379W        W40147  18.766  17.755   0.307
76380W        W40148  19.136  35.988  12.497
76381W        W40149   6.265  23.007  11.861
76382W        W40150   1.972  12.236  10.614
76383W        W40151  30.579   4.891  14.910
76384W        W40152  29.509  10.857  13.884
76385W        W40153  15.676  32.515  14.936
76386W        W40154  38.337  28.608  13.916
76387W        W40155   6.232   1.845   3.752
76388W        W40156   8.203  41.299   2.831
76389W        W40157  17.152  40.915   3.862
76390W        W40158  25.183  32.635  14.283
76391W        W40159   7.356  10.784  11.937
76392W        W40160  38.897  10.298  12.381
76393W        W40161  27.176   4.845  10.462
76394W        W40162   0.939  18.106   2.280
76395W        W40163   2.868   7.894  12.386
76396W        W40164  27.038  44.949   2.771
76397W        W40165  35.385  17.182  14.421
76398W        W40166  27.470  28.124   1.385
76399W        W40167  41.880  34.555  12.369
76400W        W40168  12.835  14.719   2.295
76401W        W40169  13.241  30.504  14.882
76402W        W40170  40.936  40.825   1.383
76403W        W40171   5.847   3.709  14.437
76404W        W40172   8.291  21.549   1.751
76405W        W40173  11.340  19.108   1.841
76406W        W40174  21.581   6.893   4.296
76407W        W40175  35.451  25.629   0.464
76408W        W40176  23.067  24.628  11.404
76409W        W40177  20.590  35.005  12.467
76410W        W40178  13.156  26.980  10.419
76411W        W40179  33.067  24.980   3.704
76412W        W40180  27.617   7.417   3.347
76413W        W40181  11.266   6.240   2.718
76414W        W40182  29.457  19.155  14.889
76415W        W40183  35.491  19.582   2.816
76416W        W40184  33.034  40.384   1.915
76417W        W40185   6.803  16.306  13.520
76418NA+    NA+40186   6.838  36.090   3.837
76419NA+    NA+40187  13.771  37.534   1.779
76420NA+    NA+40188   2.423  35.359  10.985
76421NA+    NA+40189  14.601  42.358   3.774
76422NA+    NA+40190  43.874   2.357   2.682
76423NA+    NA+40191   6.881   8.757   2.841
76424NA+    NA+40192  22.516   3.455  12.564
76425NA+    NA+40193  38.916  28.077   1.216
76426NA+    NA+40194  22.670   6.888   1.435
76427NA+    NA+40195  25.646  35.951  12.555
76428NA+    NA+40196  32.926   8.261  11.904
76429NA+    NA+40197  44.840  44.954   1.923
76430NA+    NA+40198  29.533   6.796   1.369
76431NA+    NA+40199  13.688   4.827   3.679
76432NA+    NA+40200  24.531  15.803   0.780
76433NA+    NA+40201   1.466  34.038   1.434
76434NA+    NA+40202  11.299  24.160  11.549
76435NA+    NA+40203   9.357   2.967  13.931
76436NA+    NA+40204  37.519  40.823  10.514
76437NA+    NA+40205  31.962   7.227  13.520
76438NA+    NA+40206   3.322  14.751   3.279
76439NA+    NA+40207  10.165   4.891  13.452
76440NA+    NA+40208  13.339  36.496   1.237
76441NA+    NA+40209  21.550   8.798   3.801
76442NA+    NA+40210  11.222  11.624   2.393
76443NA+    NA+40211   8.764   6.817  12.831
76444NA+    NA+40212  11.775   9.845   4.670
76445NA+    NA+40213  16.681  16.751   9.500
76446NA+    NA+40214  18.737  19.145  11.561
76447NA+    NA+40215  41.366  26.593  11.888
76448NA+    NA+40216  17.624  28.049   3.320
76449NA+    NA+40217  22.165  30.159   3.189
76450NA+    NA+40218  22.083  20.538  13.793
76451NA+    NA+40219  18.731  37.557   2.252
76452NA+    NA+40220  32.498  27.001   3.356
76453NA+    NA+40221  44.886  10.878  14.029
76454NA+    NA+40222  12.763  16.168   0.911
76455NA+    NA+40223   0.370  13.348   1.355
76456NA+    NA+40224  44.486  44.928   2.848
76457NA+    NA+40225  44.798  30.954   0.871
76458NA+    NA+40226  42.005  38.529  13.465
76459NA+    NA+40227  14.669  18.190   3.853
76460NA+    NA+40228  30.587  17.577   1.699
76461NA+    NA+40229   2.419   7.216  11.505
76462NA+    NA+40230   4.361  23.534   1.784
76463NA+    NA+40231  44.291  31.487   0.446
76464NA+    NA+40232  34.980  17.631  14.486
76465NA+    NA+40233  25.166   6.306  11.381
76466NA+    NA+40234  38.945  16.809   3.674
76467NA+    NA+40235  35.968   1.425  14.451
76468NA+    NA+40236  44.794  28.487   2.298
76469NA+    NA+40237   7.669  10.835  12.525
76470NA+    NA+40238   7.281  39.409   2.349
76471NA+    NA+40239  32.057   9.825  12.466
76472NA+    NA+40240   4.260  27.566  10.996
76473NA+    NA+40241  31.926  42.466  11.108
76474NA+    NA+40242  22.023  12.700  14.886
76475NA+    NA+40243  23.672  32.566  12.494
76476NA+    NA+40244  33.031  34.508  13.493
76477NA+    NA+40245   3.855   5.272   3.860
76478NA+    NA+40246   1.945  19.086   1.218
76479NA+    NA+40247   7.321  23.223  14.972
76480NA+    NA+40248  26.572  14.328  14.399
76481NA+    NA+40249  22.221   8.401  14.031
76482NA+    NA+40250  36.423  29.003   2.798
76483NA+    NA+40251  16.195  44.795  12.891
76484NA+    NA+40252  41.925   5.242   4.169
76485NA+    NA+40253   1.752  28.538  11.856
76486NA+    NA+40254   6.266  31.068   3.697
76487NA+    NA+40255  37.026  18.184   1.426
76488NA+    NA+40256  17.109   0.383  14.882
76489NA+    NA+40257   0.487   9.386   0.286
76490NA+    NA+40258  33.578  17.751  13.962
76491NA+    NA+40259  37.963  15.823  13.884
76492NA+    NA+40260  27.009   3.943   2.346
76493NA+    NA+40261   1.363  37.859   0.903
76494NA+    NA+40262  30.643  10.271  13.957
76495NA+    NA+40263  27.520  42.866  13.414
76496NA+    NA+40264  27.133   3.341   1.739
76497NA+    NA+40265  18.211  42.356  12.340
76498NA+    NA+40266  18.230  34.433  12.967
76499NA+    NA+40267  42.343   7.850   1.219
76500NA+    NA+40268  32.443  19.683   3.277
76501NA+    NA+40269  42.845  11.652  14.974
76502NA+    NA+40270  23.491   2.951   1.856
76503NA+    NA+40271  41.796  21.032  14.321
76504NA+    NA+40272  31.992   5.833   0.865
76505NA+    NA+40273  36.928  29.947   0.477
76506NA+    NA+40274  28.672  43.767   0.426
76507NA+    NA+40275   9.708  39.028  10.910
76508NA+    NA+40276  12.332   9.155  11.453
76509NA+    NA+40277  24.651   1.395  14.868
76510NA+    NA+40278  28.676   5.302   2.228
76511NA+    NA+40279  19.044  24.999   2.268
76512NA+    NA+40280  35.423  33.536   0.267
76513NA+    NA+40281  24.028   3.909   0.266
76514NA+    NA+40282  21.752  27.636  12.480
76515NA+    NA+40283   0.930  23.539   4.237
76516NA+    NA+40284  43.955   6.422  14.397
76517NA+    NA+40285  32.588   1.325   0.775
76518NA+    NA+40286  12.252  36.405  14.877
76519NA+    NA+40287  32.091  43.867  13.451
76520NA+    NA+40288  23.144  22.653   0.244
76521NA+    NA+40289  24.211   8.180  10.498
76522NA+    NA+40290  29.949   4.288   1.276
76523NA+    NA+40291   8.224  32.140   4.338
76524NA+    NA+40292   1.325   7.226   1.212
76525NA+    NA+40293  33.102  14.178   1.926
76526NA+    NA+40294  12.763   6.277  11.603
76527NA+    NA+40295  31.456  28.059  11.559
76528NA+    NA+40296  36.864  35.540   3.803
76529NA+    NA+40297   1.337   7.875   2.705
76530NA+    NA+40298   9.378  21.170  11.018
76531NA+    NA+40299   2.869  42.473  13.454
76532NA+    NA+40300  14.705  11.757  10.489
76533NA+    NA+40301   4.764  24.705   0.907
76534NA+    NA+40302  29.036  24.153   1.249
76535NA+    NA+40303  11.224  13.224  12.021
76536NA+    NA+40304  32.131  42.901  14.793
76537NA+    NA+40305   0.430  21.253   3.243
76538NA+    NA+40306   9.771   6.686  12.495
76539NA+    NA+40307  21.196  34.109  11.993
76540NA+    NA+40308  15.584  43.329  12.064
76541NA+    NA+40309   2.846  43.349  11.001
76542NA+    NA+40310   5.210  29.941   2.681
76543NA+    NA+40311  14.726  16.250   1.341
76544NA+    NA+40312  10.864  27.611  10.901
76545NA+    NA+40313  28.567  34.370   1.932
76546NA+    NA+40314  13.784  23.196   1.883
76547NA+    NA+40315  37.485   9.664  13.337
76548NA+    NA+40316  32.102  37.995   0.340
76549NA+    NA+40317  23.093  41.496  14.432
76550NA+    NA+40318  19.223  43.007   0.470
76551NA+    NA+40319  32.029   0.761  13.445
76552NA+    NA+40320  25.712  33.924   4.633
76553NA+    NA+40321  32.530  15.193   5.236
76554NA+    NA+40322  38.542   0.953  11.963
76555NA+    NA+40323   9.290  35.396   3.234
76556NA+    NA+40324   5.358  28.179   9.947
76557NA+    NA+40325  32.038  21.174  11.913
76558NA+    NA+40326  10.827  43.843  11.386
76559NA+    NA+40327  28.601  14.665   2.867
76560NA+    NA+40328  40.809  32.566  10.092
76561NA+    NA+40329  16.090  41.865   2.668
76562NA+    NA+40330   6.192  25.117  10.928
76563NA+    NA+40331  21.230  15.794   2.822
76564NA+    NA+40332  37.080  31.003  12.073
76565NA+    NA+40333  26.171   6.838   2.705
76566NA+    NA+40334  44.475   3.406  11.575
76567NA+    NA+40335   0.297   8.694  13.818
76568NA+    NA+40336  26.696  28.665   3.250
76569NA+    NA+40337   3.870  19.740  14.765
76570NA+    NA+40338  24.708  39.527  12.968
76571NA+    NA+40339  20.212  13.675   3.683
76572NA+    NA+40340  15.693  13.202   3.169
76573NA+    NA+40341  42.421  27.602  14.865
76574NA+    NA+40342  16.195  37.450  11.441
76575NA+    NA+40343  15.683  38.376  10.547
76576NA+    NA+40344  29.591  31.089   0.264
76577NA+    NA+40345  21.625   5.215   0.413
76578NA+    NA+40346  18.127  31.545   4.762
76579NA+    NA+40347   2.445  31.530  12.506
76580NA+    NA+40348  42.298   9.702   4.689
76581NA+    NA+40349  24.507  30.600   4.624
76582NA+    NA+40350  42.840   2.952  11.965
76583NA+    NA+40351  39.346  33.450   3.229
76584NA+    NA+40352  41.797  12.218   2.212
76585NA+    NA+40353   5.694   7.697   2.894
76586NA+    NA+40354  22.714   4.743   4.629
76587NA+    NA+40355   9.765  24.626   3.328
76588NA+    NA+40356  43.000   6.341   0.401
76589NA+    NA+40357  44.990  28.097  12.535
76590NA+    NA+40358  43.292  21.156  10.638
76591NA+    NA+40359  36.391  25.636  12.088
76592NA+    NA+40360  37.984  20.661   1.903
76593NA+    NA+40361  27.134  24.527   2.247
76594NA+    NA+40362  26.200  29.082  14.982
76595NA+    NA+40363   9.690   0.257  13.543
76596NA+    NA+40364   6.197  25.128   4.722
76597NA+    NA+40365   2.894  31.509   0.248
76598NA+    NA+40366  27.074  26.526   1.408
76599NA+    NA+40367  37.549  16.593  14.368
76600NA+    NA+40368  27.086  20.186  14.432
76601NA+    NA+40369  43.770   2.891  14.777
76602NA+    NA+40370   9.353  20.726   1.790
76603NA+    NA+40371  41.465  11.262  12.053
76604NA+    NA+40372  44.794  17.290   3.161
76605NA+    NA+40373  34.508  16.665   0.353
76606NA+    NA+40374  32.030   1.737   2.319
76607NA+    NA+40375  22.629  27.117  14.280
76608NA+    NA+40376  37.409  36.457   1.364
76609NA+    NA+40377   7.250  44.849   2.875
76610NA+    NA+40378  33.496  33.488   0.753
76611NA+    NA+40379   4.725  40.845  13.803
76612NA+    NA+40380  34.976  20.142   3.784
76613NA+    NA+40381   9.760  39.858   3.367
76614NA+    NA+40382   9.729  24.647  14.474
76615NA+    NA+40383  35.866  21.245   0.336
76616NA+    NA+40384  18.094  34.066   3.295
76617NA+    NA+40385  14.741  44.897  10.588
76618NA+    NA+40386  14.135  16.611  13.012
76619NA+    NA+40387  24.994  37.383  11.102
76620NA+    NA+40388  42.414   2.914  14.453
76621NA+    NA+40389  36.365  12.813  14.470
76622NA+    NA+40390   5.300  12.358   3.755
76623NA+    NA+40391  20.119  24.506  12.029
76624NA+    NA+40392  11.790  41.292  13.906
76625NA+    NA+40393   3.218   6.793   4.793
76626NA+    NA+40394   9.777  12.192   0.830
76627NA+    NA+40395   8.390  18.780   1.255
76628NA+    NA+40396  40.363   8.394   2.831
76629NA+    NA+40397  43.503  24.556  10.423
76630NA+    NA+40398  29.559   9.679   1.853
76631NA+    NA+40399  12.668  44.836   4.770
76632NA+    NA+40400   2.890  38.390  13.871
76633NA+    NA+40401   7.799  39.355  11.016
76634NA+    NA+40402  11.202   7.310  14.024
76635NA+    NA+40403  11.732   4.915  12.430
76636NA+    NA+40404  36.041  18.656  11.609
76637NA+    NA+40405  15.313  35.977  14.365
76638NA+    NA+40406  12.705  10.300   0.276
76639NA+    NA+40407  26.641  34.600   1.783
76640NA+    NA+40408   7.223  37.946  13.444
76641NA+    NA+40409   1.926  34.882   1.908
76642NA+    NA+40410  12.718  33.584   0.798
76643NA+    NA+40411   6.722  36.486  12.539
76644NA+    NA+40412  32.889  23.219   4.137
76645NA+    NA+40413  33.029  30.577   2.271
76646NA+    NA+40414   3.749  44.777   4.343
76647NA+    NA+40415   7.718   3.344  12.384
76648NA+    NA+40416  38.906   2.831  11.048
76649NA+    NA+40417  29.931  27.679  11.897
76650NA+    NA+40418  19.604   0.892  11.098
76651NA+    NA+40419  14.338  27.654  12.877
76652NA+    NA+40420   5.824  22.107   3.195
76653NA+    NA+40421  41.845  21.687  11.956
76654NA+    NA+40422  27.948  20.053  11.886
76655NA+    NA+40423  16.087  23.073   3.723
76656NA+    NA+40424  24.715  40.395  14.439
76657NA+    NA+40425  28.639  25.704  12.421
76658NA+    NA+40426   3.714  30.932   3.776
76659NA+    NA+40427  22.032   3.309  13.507
76660NA+    NA+40428   3.897  14.246  11.500
76661NA+    NA+40429  24.682   1.324  14.321
76662NA+    NA+40430   7.813  19.251   3.340
76663NA+    NA+40431   1.899  27.992   3.285
76664NA+    NA+40432  14.732  30.527   0.360
76665NA+    NA+40433   7.786  37.023   2.690
76666NA+    NA+40434  15.658   8.662  12.476
76667NA+    NA+40435  32.139  36.064   1.901
76668NA+    NA+40436   3.841  20.129  14.320
76669NA+    NA+40437  11.284  38.827  14.495
76670NA+    NA+40438  36.933  23.038   2.727
76671NA+    NA+40439   8.817  30.659  10.442
76672NA+    NA+40440  10.251  34.949   1.293
76673NA+    NA+40441  39.489  12.827   3.737
76674NA+    NA+40442  14.108   1.302  12.015
76675NA+    NA+40443  11.640  33.450  11.578
76676NA+    NA+40444  13.718  16.786   3.739
76677NA+    NA+40445  44.946  40.833  13.492
76678NA+    NA+40446   4.393  18.699   0.766
76679NA+    NA+40447  20.687  30.463  11.067
76680NA+    NA+40448  12.333  13.843  12.873
76681NA+    NA+40449  12.761  20.730  12.978
76682NA+    NA+40450  39.032   9.294   3.282
76683NA+    NA+40451  44.368  10.335   4.599
76684NA+    NA+40452  15.712  31.402  11.891
76685NA+    NA+40453   6.850  28.482  12.508
76686NA+    NA+40454  20.084  39.936  12.539
76687NA+    NA+40455  41.992  17.790  13.878
76688NA+    NA+40456  12.614  31.954   0.360
76689NA+    NA+40457  26.010   5.438   3.154
76690NA+    NA+40458  42.345   3.789  10.585
76691NA+    NA+40459   4.440  29.035  12.047
76692NA+    NA+40460  36.902  44.335   4.215
76693NA+    NA+40461  39.017  14.751  11.414
76694NA+    NA+40462  43.464  11.769  10.898
76695NA+    NA+40463  33.509   8.208  11.493
76696NA+    NA+40464  15.809  34.570  11.535
76697NA+    NA+40465  31.035  43.399  11.602
76698NA+    NA+40466  30.138  10.837   2.333
76699NA+    NA+40467  37.061  38.551  12.985
76700NA+    NA+40468  32.566  36.945  14.955
76701NA+    NA+40469  38.075  37.014   0.740
76702NA+    NA+40470  17.299  13.115   1.865
76703NA+    NA+40471  19.282  19.087  10.612
76704NA+    NA+40472  14.809   3.386  14.928
76705NA+    NA+40473  40.009  19.065  14.014
76706NA+    NA+40474  40.968  33.491   3.336
76707NA+    NA+40475  39.404  10.332  12.346
76708NA+    NA+40476  16.766  30.996   5.569
76709NA+    NA+40477   1.446   0.260   1.445
76710NA+    NA+40478  19.182  43.892  12.086
76711NA+    NA+40479   3.726  13.615   0.326
76712NA+    NA+40480  41.327  31.446   2.781
76713NA+    NA+40481  22.023  21.632  11.913
76714NA+    NA+40482  34.873  34.877  14.829
76715NA+    NA+40483  24.066  26.960   0.783
76716NA+    NA+40484  17.202  27.464   0.270
76717NA+    NA+40485  42.020   0.388  11.031
76718NA+    NA+40486   9.844   8.161  10.975
76719NA+    NA+40487  36.034  26.514   3.692
76720NA+    NA+40488  11.364  42.937   3.318
76721NA+    NA+40489  15.613  26.048  14.409
76722NA+    NA+40490  39.958  39.860  15.000
76723NA+    NA+40491  36.962  15.105   3.232
76724NA+    NA+40492  44.419  32.893   0.760
76725NA+    NA+40493   2.308  32.421   1.415
76726NA+    NA+40494   5.323  21.067  13.388
76727NA+    NA+40495   8.203  18.146   2.750
76728NA+    NA+40496   0.847  41.494  14.787
76729NA+    NA+40497  32.123  42.889   3.182
76730NA+    NA+40498  18.661  24.122   1.845
76731NA+    NA+40499   0.793  14.730  10.536
76732NA+    NA+40500  44.990  30.483  12.493
76733NA+    NA+40501  37.000  13.827   4.258
76734NA+    NA+40502  24.067  22.715   4.310
76735NA+    NA+40503  32.060   1.243   2.883
76736NA+    NA+40504  10.186  30.648  14.423
76737NA+    NA+40505   2.929   7.839   1.935
76738NA+    NA+40506  32.442   0.409   3.833
76739NA+    NA+40507   8.165  41.293  10.959
76740NA+    NA+40508  18.229   5.250   2.774
76741NA+    NA+40509  18.599  38.042  14.507
76742NA+    NA+40510   4.399  39.830  10.425
76743NA+    NA+40511  16.686  28.536   3.343
76744NA+    NA+40512  11.242  12.171  11.504
76745NA+    NA+40513  11.283  20.108  13.416
76746NA+    NA+40514   3.779  19.726  13.417
76747NA+    NA+40515   0.448   5.240  11.610
76748NA+    NA+40516  22.693  41.337  13.007
76749NA+    NA+40517  10.374  19.605  13.877
76750NA+    NA+40518  33.908  10.243   0.800
76751NA+    NA+40519  20.136  44.416  13.406
76752NA+    NA+40520   9.360  44.481   2.664
76753NA+    NA+40521  42.521   3.280   4.795
76754NA+    NA+40522   8.706  19.675   1.694
76755NA+    NA+40523  30.143  43.882   1.859
76756NA+    NA+40524  38.360  34.924   3.356
76757NA+    NA+40525   7.900  37.542   1.798
76758NA+    NA+40526   0.452   8.888   3.794
76759NA+    NA+40527  15.262  24.674   3.329
76760NA+    NA+40528   3.738  16.163   1.245
76761NA+    NA+40529  44.887   1.248   4.747
76762NA+    NA+40530  20.527  35.521   4.829
76763NA+    NA+40531  35.381  42.504  10.440
76764NA+    NA+40532   9.367  14.311   3.155
76765NA+    NA+40533  38.414  22.694   2.730
76766NA+    NA+40534  12.690   9.655  11.554
76767NA+    NA+40535  42.438  30.564  11.116
76768NA+    NA+40536  19.135   4.212   0.403
76769NA+    NA+40537  24.624  11.839   3.339
76770NA+    NA+40538  24.659  27.151  14.481
76771NA+    NA+40539  19.272  39.408   4.244
76772NA+    NA+40540  11.214  39.511   1.348
76773NA+    NA+40541  35.403  42.499  12.953
76774NA+    NA+40542  28.154  15.686  12.528
76775NA+    NA+40543   4.417  26.188   3.759
76776NA+    NA+40544  21.236  12.738   2.815
76777NA+    NA+40545  11.690  12.734   3.702
76778NA+    NA+40546   4.743   1.304  11.075
76779NA+    NA+40547  18.714  30.050   2.412
76780NA+    NA+40548  32.478   6.868   0.356
76781NA+    NA+40549   3.449  18.245  13.839
76782NA+    NA+40550  37.885  17.793  10.455
76783NA+    NA+40551  11.813  17.164   0.383
76784NA+    NA+40552   5.297   0.790  11.893
76785NA+    NA+40553   7.798  34.090   1.817
76786NA+    NA+40554  30.464  24.093   0.331
76787NA+    NA+40555  10.633  37.387   2.234
76788NA+    NA+40556  42.969  19.595   0.952
76789NA+    NA+40557  37.547  24.666  14.300
76790NA+    NA+40558  43.287  19.150  12.988
76791NA+    NA+40559  44.307  41.441  10.585
76792NA+    NA+40560  21.515   8.853  10.617
76793NA+    NA+40561  41.370  28.144  10.495
76794NA+    NA+40562  39.514   8.331  10.006
76795NA+    NA+40563   6.803   2.328  10.995
76796NA+    NA+40564   3.275   4.911   9.944
76797NA+    NA+40565  13.618  15.581   3.650
76798NA+    NA+40566  35.531  24.672  12.072
76799NA+    NA+40567  29.036   4.433   1.875
76800NA+    NA+40568  17.564  35.497   1.726
76801NA+    NA+40569  35.949  16.573  14.773
76802NA+    NA+40570   5.321  13.196   4.237
76803NA+    NA+40571  25.589  13.133  11.020
76804NA+    NA+40572   1.802  29.994   1.280
76805NA+    NA+40573  22.116   2.960  12.075
76806NA+    NA+40574  40.865  19.071  10.929
76807NA+    NA+40575   4.710   7.846   1.694
76808NA+    NA+40576  15.696  19.561  13.474
76809NA+    NA+40577  23.684  33.567   4.746
76810NA+    NA+40578  43.422  29.622   0.784
76811NA+    NA+40579   5.331  30.524   0.466
76812NA+    NA+40580   4.707  22.043  13.346
76813NA+    NA+40581  21.598   7.205  13.793
76814NA+    NA+40582  42.775  30.122  14.508
76815NA+    NA+40583   2.363  18.771   4.229
76816NA+    NA+40584   9.658  16.589  10.591
76817NA+    NA+40585   6.797  37.848   4.284
76818NA+    NA+40586  24.495  12.320  11.584
76819NA+    NA+40587   0.838  16.788  10.541
76820NA+    NA+40588  32.413  16.611   3.269
76821NA+    NA+40589  27.077  41.362   0.403
76822NA+    NA+40590  28.108   1.930  14.943
76823NA+    NA+40591  35.420  30.160   3.350
76824NA+    NA+40592   6.679   2.808   0.397
76825NA+    NA+40593  19.669   5.836  11.566
76826NA+    NA+40594  15.163  39.475  11.429
76827NA+    NA+40595  17.141  17.295  11.863
76828NA+    NA+40596  34.924  29.509  13.936
76829NA+    NA+40597  24.623  20.200  12.006
76830NA+    NA+40598  10.667   0.402   0.416
76831NA+    NA+40599  28.520  28.946  10.928
76832NA+    NA+40600   2.938   0.383  14.843
76833NA+    NA+40601  24.502  21.749  12.976
76834NA+    NA+40602  28.036  31.902   0.404
76835NA+    NA+40603  29.075  36.442  11.980
76836NA+    NA+40604  39.449  44.988   3.644
76837NA+    NA+40605  40.798   2.904   0.817
76838NA+    NA+40606  36.942  35.589   4.352
76839NA+    NA+40607  39.547  44.291  14.288
76840NA+    NA+40608  20.167  15.643  14.470
76841NA+    NA+40609  12.224  38.432  10.952
76842NA+    NA+40610  29.918  24.051  13.805
76843NA+    NA+40611   0.280  41.930   4.135
76844NA+    NA+40612   1.460  19.665  13.317
76845NA+    NA+40613  40.966  37.438   1.748
76846NA+    NA+40614  27.093  35.977   4.146
76847NA+    NA+40615  24.144  32.111  13.454
76848NA+    NA+40616   8.262   5.726  11.513
76849NA+    NA+40617  16.721  20.174   5.246
76850NA+    NA+40618  23.999  26.596   5.195
76851NA+    NA+40619   8.400  32.888   1.261
76852NA+    NA+40620  25.712  14.266  11.938
76853NA+    NA+40621  15.111  17.599   4.193
76854NA+    NA+40622  18.152  34.571   3.237
76855NA+    NA+40623  39.384  38.457   4.643
76856NA+    NA+40624  44.956  19.241   2.867
76857NA+    NA+40625  22.695  29.949  14.514
76858NA+    NA+40626   3.265  42.875   5.314
76859NA+    NA+40627  36.480   5.896  12.369
76860NA+    NA+40628  21.549  29.589   2.876
76861NA+    NA+40629  18.231  19.160   0.776
76862NA+    NA+40630  25.081  16.722   3.202
76863NA+    NA+40631   9.661  39.960   2.891
76864NA+    NA+40632  13.718  21.238   4.788
76865NA+    NA+40633  18.081  37.967   0.424
76866NA+    NA+40634  36.946  29.143   0.443
76867NA+    NA+40635  33.905  31.958  14.802
76868NA+    NA+40636  35.066  11.669   4.163
76869NA+    NA+40637  13.169  12.203   2.180
76870NA+    NA+40638   5.753  26.040   0.886
76871NA+    NA+40639  20.067  42.977   5.120
76872NA+    NA+40640  38.920  23.606  12.459
76873NA+    NA+40641  20.261  25.640  13.939
76874NA+    NA+40642   1.800   9.326  11.063
76875NA+    NA+40643  42.300  41.002  13.436
76876NA+    NA+40644  24.559   0.873  10.944
76877NA+    NA+40645   4.396  27.496   0.917
76878NA+    NA+40646  25.203  15.110  12.002
76879NA+    NA+40647  13.671   5.865   0.878
76880NA+    NA+40648  44.963  27.578  12.498
76881NA+    NA+40649  37.882  31.908   0.756
76882NA+    NA+40650  21.580  20.267   1.747
76883NA+    NA+40651  16.136   1.289   0.445
76884NA+    NA+40652   6.881  34.513   0.954
76885NA+    NA+40653  44.403  21.082   0.459
76886NA+    NA+40654  26.540  26.681  10.624
76887NA+    NA+40655  44.862  24.588   4.662
76888NA+    NA+40656  13.329   5.882   2.732
76889NA+    NA+40657   6.879   2.307  12.348
76890NA+    NA+40658  19.615  17.720   1.777
76891NA+    NA+40659  37.568   9.799  10.145
76892NA+    NA+40660   1.328  41.389  12.978
76893NA+    NA+40661  30.148  29.072   2.225
76894NA+    NA+40662  41.811  36.484  10.460
76895NA+    NA+40663   1.866  20.091   3.343
76896NA+    NA+40664  41.452  21.519   4.763
76897NA+    NA+40665  10.278  37.455   3.162
76898NA+    NA+40666  12.270  44.955   3.228
76899NA+    NA+40667  19.699   5.922  10.580
76900NA+    NA+40668  20.092  33.402  10.924
76901NA+    NA+40669  30.921  16.193  10.926
76902NA+    NA+40670  10.164  37.428   1.828
76903NA+    NA+40671  24.205  11.774   2.364
76904NA+    NA+40672  43.909  26.562   1.805
76905NA+    NA+40673  24.483   4.937   3.256
76906NA+    NA+40674  14.174  11.334   1.874
76907NA+    NA+40675  42.857  13.192   2.312
76908NA+    NA+40676   8.216  29.507  10.538
76909NA+    NA+40677   6.799  30.495   2.330
76910NA+    NA+40678  29.064  12.722   4.120
76911NA+    NA+40679  31.934  32.040  10.003
76912NA+    NA+40680   9.156  36.452   3.337
76913NA+    NA+40681  31.617  29.154   3.822
76914NA+    NA+40682  15.646  24.136   0.744
76915NA+    NA+40683  21.194   9.194  14.450
76916NA+    NA+40684  43.290  35.902  12.438
76917NA+    NA+40685  35.016  39.036  14.434
76918NA+    NA+40686  10.320  12.832   1.812
76919NA+    NA+40687  28.528  31.449   1.257
76920NA+    NA+40688   7.361  19.725  12.389
76921NA+    NA+40689  19.191   0.395  14.506
76922NA+    NA+40690  27.469  25.112   4.647
76923NA+    NA+40691  41.891  36.944   0.386
76924NA+    NA+40692  12.221   7.682  13.005
76925NA+    NA+40693   8.814  34.958  13.903
76926NA+    NA+40694  31.500  10.253  13.895
76927NA+    NA+40695  17.299  17.194   1.446
76928NA+    NA+40696   1.849  30.994  14.936
76929NA+    NA+40697  35.949  41.801   4.730
76930NA+    NA+40698  17.579  23.077   2.221
76931NA+    NA+40699  10.148  10.790  14.785
76932NA+    NA+40700  31.430  22.707   4.252
76933NA+    NA+40701   9.336   2.334  14.911
76934NA+    NA+40702  10.666   1.740  10.617
76935NA+    NA+40703   4.386  18.205  13.808
76936NA+    NA+40704  30.019  17.276  13.366
76937NA+    NA+40705   0.858  18.708  14.398
76938NA+    NA+40706  38.488  32.934   5.700
76939NA+    NA+40707   0.782  35.964   4.188
76940NA+    NA+40708   8.166  23.220   0.427
76941NA+    NA+40709  13.321  14.199  13.013
76942NA+    NA+40710  40.536  37.452  11.413
76943NA+    NA+40711  41.955  11.220  11.611
76944NA+    NA+40712  34.102  44.314  10.525
76945NA+    NA+40713  22.159  37.380   3.762
76946NA+    NA+40714   0.390  29.992   1.838
76947NA+    NA+40715  19.569  13.650   4.743
76948NA+    NA+40716  37.024  28.472  14.819
76949NA+    NA+40717  40.004  27.461   4.800
76950NA+    NA+40718  44.492  14.762  14.297
76951NA+    NA+40719   3.710  25.714  12.462
76952NA+    NA+40720  18.272   0.807  11.378
76953NA+    NA+40721  20.187  17.304   0.324
76954NA+    NA+40722  17.117  35.464  12.562
76955NA+    NA+40723  21.225   6.745  12.945
76956NA+    NA+40724  31.591  19.563  10.463
76957NA+    NA+40725   3.381  17.562   1.401
76958NA+    NA+40726  35.896  37.832   3.638
76959NA+    NA+40727  40.862  18.283  12.904
76960NA+    NA+40728  17.657  43.841   4.180
76961NA+    NA+40729  29.587  17.146  13.546
76962NA+    NA+40730  32.521   9.668   3.735
76963NA+    NA+40731  27.054   1.811  14.415
76964NA+    NA+40732   8.261  38.539   4.766
76965NA+    NA+40733  14.274   9.753  12.339
76966NA+    NA+40734  42.372  10.639  11.511
76967NA+    NA+40735  26.478  18.287   0.957
76968NA+    NA+40736  35.386  34.570   1.711
76969NA+    NA+40737  32.955  31.023  13.548
76970NA+    NA+40738  21.577  13.245   9.967
76971NA+    NA+40739  21.027  42.429   2.788
76972NA+    NA+40740  23.546  39.850   2.734
76973NA+    NA+40741  21.600  14.131   0.387
76974NA+    NA+40742  25.705  10.184  11.078
76975NA+    NA+40743  23.701  20.249   0.379
76976NA+    NA+40744  12.142   5.856  14.459
76977NA+    NA+40745  22.156  26.143   3.737
76978NA+    NA+40746  30.098  16.197   3.723
76979NA+    NA+40747  18.660  15.783   1.420
76980NA+    NA+40748  37.028   6.858   4.316
76981NA+    NA+40749   8.178  12.667  12.050
76982NA+    NA+40750  17.153  20.739   2.186
76983NA+    NA+40751  13.187  36.527  10.578
76984NA+    NA+40752   1.482   9.211  12.424
76985NA+    NA+40753  23.569  23.145  11.894
76986NA+    NA+40754   6.253  11.750   4.689
76987NA+    NA+40755   5.719  42.401  11.419
76988NA+    NA+40756   9.315  31.469  10.589
76989NA+    NA+40757  14.702  17.680  13.790
76990NA+    NA+40758  33.399  26.972  11.564
76991NA+    NA+40759  15.674   3.920  10.587
76992NA+    NA+40760  14.832  37.455  11.023
76993NA+    NA+40761  44.778   3.831  13.949
76994NA+    NA+40762  21.256  26.069  13.384
76995NA+    NA+40763  40.930   3.767  10.408
76996NA+    NA+40764   8.308  41.937   2.684
76997NA+    NA+40765  28.037  12.857   3.246
76998NA+    NA+40766   4.305  22.512  12.081
76999NA+    NA+40767  43.958  25.526  10.406
77000NA+    NA+40768  24.990   1.756   0.372
77001NA+    NA+40769  25.011  43.765  11.077
77002NA+    NA+40770  38.468  38.035  12.495
77003NA+    NA+40771  40.493  33.618  13.034
77004NA+    NA+40772  15.284  26.533  12.017
77005NA+    NA+40773  36.873   4.206   1.387
77006NA+    NA+40774   5.237  24.202   1.761
77007NA+    NA+40775  38.942  15.819  13.477
77008NA+    NA+40776  44.936  21.100  13.467
77009NA+    NA+40777  12.363  24.086  11.475
77010NA+    NA+40778   2.921  40.362  14.427
77011NA+    NA+40779   4.751  35.471  13.859
77012NA+    NA+40780  43.348  18.184   4.191
77013NA+    NA+40781  12.807  43.351   4.751
77014NA+    NA+40782  17.657  14.796   4.235
77015NA+    NA+40783  21.638  17.587   1.430
77016NA+    NA+40784  29.474  25.605  13.881
77017NA+    NA+40785  27.476  19.554  13.971
77018NA+    NA+40786   3.724  27.556  12.824
77019NA+    NA+40787  31.447   0.414   1.805
77020NA+    NA+40788  43.904  43.496   1.753
77021NA+    NA+40789   6.761   8.334  10.594
77022NA+    NA+40790   3.231  13.290   0.327
77023NA+    NA+40791  33.029   7.687   3.797
77024NA+    NA+40792  13.696  12.834   0.953
77025NA+    NA+40793  44.886  17.099  10.520
77026NA+    NA+40794  38.021  22.015  10.932
77027NA+    NA+40795   2.942  33.477  10.013
77028NA+    NA+40796   3.432   7.700   3.268
77029NA+    NA+40797  33.395  22.071  10.564
77030NA+    NA+40798  41.834  35.575   4.248
77031NA+    NA+40799   4.348  25.601   1.366
77032NA+    NA+40800  35.944  28.939   4.212
77033NA+    NA+40801  21.532  20.249  14.484
77034NA+    NA+40802  25.468   6.802   0.392
77035NA+    NA+40803  42.994  38.069   3.204
77036NA+    NA+40804  30.072  34.901  11.936
77037NA+    NA+40805  26.208  37.444  10.051
77038NA+    NA+40806  26.115   6.413  12.534
77039NA+    NA+40807  34.564   1.839  10.643
77040NA+    NA+40808  21.673  27.971   3.736
77041NA+    NA+40809  11.365  35.536  14.355
77042NA+    NA+40810   9.829   1.951  13.831
77043NA+    NA+40811   0.292  34.100  14.834
77044NA+    NA+40812  41.882  20.742   2.774
77045NA+    NA+40813  19.554  20.129   4.706
77046NA+    NA+40814  21.052  13.283   2.407
77047NA+    NA+40815  25.136  36.859   3.180
77048NA+    NA+40816   0.269  20.193   2.218
77049NA+    NA+40817  31.560  39.952  11.583
77050NA+    NA+40818  24.017  34.614  12.434
77051NA+    NA+40819  27.572   5.789  13.980
77052NA+    NA+40820  43.315   6.284   0.383
77053NA+    NA+40821  25.665   1.467  12.902
77054NA+    NA+40822   9.294  12.747   5.290
77055NA+    NA+40823  16.646  42.015  11.544
77056NA+    NA+40824  41.037  23.596   0.341
77057NA+    NA+40825  21.226   6.811   1.839
77058NA+    NA+40826   4.801  28.169  14.315
77059NA+    NA+40827   9.703   5.707   3.263
77060NA+    NA+40828  19.146  19.659  10.539
77061NA+    NA+40829   8.704  25.126  12.060
77062NA+    NA+40830   2.414  17.115   1.884
77063NA+    NA+40831  14.255   7.850  11.086
77064NA+    NA+40832  12.235  12.723   5.274
77065NA+    NA+40833  15.224   5.228   3.751
77066NA+    NA+40834   0.821  10.272   0.352
77067NA+    NA+40835   9.380  26.054   2.218
77068NA+    NA+40836   3.900  41.428   3.774
77069NA+    NA+40837  41.794  18.209  12.919
77070NA+    NA+40838  17.135   0.332  11.599
77071NA+    NA+40839  26.485   1.363   2.416
77072NA+    NA+40840  29.114  39.820   0.967
77073NA+    NA+40841  31.430   8.387   2.882
77074NA+    NA+40842  28.049  40.905  11.593
77075NA+    NA+40843   6.799   3.244   2.209
77076NA+    NA+40844  25.515  39.548  12.501
77077NA+    NA+40845  31.521  36.851  11.386
77078NA+    NA+40846  19.682  30.004   3.370
77079NA+    NA+40847  33.065  42.870   0.367
77080NA+    NA+40848  30.025  34.550   0.319
77081NA+    NA+40849  30.553  31.107  10.494
77082NA+    NA+40850  44.908  33.549   4.838
77083NA+    NA+40851  15.113  23.712   3.783
77084NA+    NA+40852  26.621  11.227  12.979
77085NA+    NA+40853  41.459  44.281   4.710
77086NA+    NA+40854  33.983  37.420  14.365
77087NA+    NA+40855  20.650  20.687  14.365
77088NA+    NA+40856  38.060  23.549  10.952
77089NA+    NA+40857   6.700  28.969  11.070
77090NA+    NA+40858  42.896  11.700  14.280
77091NA+    NA+40859  11.220  28.162   2.378
77092NA+    NA+40860  32.895  11.266   0.351
77093NA+    NA+40861   6.690   2.423  12.001
77094NA+    NA+40862  11.840   3.449   4.330
77095NA+    NA+40863   6.296  30.096  14.906
77096NA+    NA+40864  42.496  15.206  13.330
77097NA+    NA+40865  39.930  44.428  12.958
77098NA+    NA+40866  29.038   2.372  10.920
77099NA+    NA+40867  43.964  32.945   4.262
77100NA+    NA+40868  22.690  39.840   1.217
77101NA+    NA+40869  11.328  33.917   4.240
77102NA+    NA+40870  42.850  41.878   5.098
77103NA+    NA+40871  10.302  44.457   2.829
77104NA+    NA+40872  15.612  44.503   0.443
77105NA+    NA+40873  40.016  21.533  14.392
77106NA+    NA+40874   0.267  29.998  11.038
77107NA+    NA+40875  21.559  13.759   3.304
77108NA+    NA+40876   5.392   4.444  12.524
77109NA+    NA+40877   4.331  10.807  12.020
77110NA+    NA+40878  35.473  43.332   0.434
77111NA+    NA+40879  38.419  16.715  10.979
77112NA+    NA+40880  20.754  36.976   3.732
77113NA+    NA+40881  38.972   8.313   3.649
77114NA+    NA+40882  36.538  19.104   0.474
77115NA+    NA+40883  41.340  35.532  13.413
77116NA+    NA+40884  36.444  43.482  13.360
77117NA+    NA+40885  34.077  18.110  14.799
77118NA+    NA+40886  18.687  10.149   3.646
77119NA+    NA+40887  18.662  12.647  10.920
77120NA+    NA+40888  15.086  40.912  14.807
77121NA+    NA+40889  13.840  42.847  11.879
77122NA+    NA+40890  33.398  30.155   1.845
77123NA+    NA+40891  22.144   7.854  12.091
77124NA+    NA+40892  38.846   6.206   2.722
77125NA+    NA+40893  33.492  28.631   2.389
77126NA+    NA+40894  28.053  42.832   3.253
77127NA+    NA+40895  10.304  37.523  14.823
77128NA+    NA+40896   2.446  24.615  14.942
77129NA+    NA+40897   0.389   3.432   1.324
77130NA+    NA+40898   5.339  20.577   2.690
77131NA+    NA+40899  23.720   4.418  14.897
77132NA+    NA+40900  16.151  24.210   3.152
77133NA+    NA+40901  29.513   6.208  12.897
77134NA+    NA+40902  24.562  20.036   0.320
77135NA+    NA+40903  36.889  38.068   2.370
77136NA+    NA+40904  27.196  18.772  13.460
77137NA+    NA+40905  25.995  31.901  13.533
77138NA+    NA+40906  30.445  21.724  12.934
77139NA+    NA+40907  35.514  10.735   1.231
77140NA+    NA+40908  39.432  18.085  13.040
77141NA+    NA+40909  24.500  33.605  13.416
77142NA+    NA+40910   5.918  29.949  11.001
77143NA+    NA+40911  36.912  23.054  10.444
77144NA+    NA+40912  36.925  27.460   2.706
77145NA+    NA+40913  15.127   4.833   2.741
77146NA+    NA+40914   5.361  29.154  12.053
77147NA+    NA+40915  18.788   6.880   4.749
77148NA+    NA+40916  17.795   7.879   2.210
77149NA+    NA+40917   3.249  39.859   1.772
77150NA+    NA+40918   5.841   5.921  12.061
77151NA+    NA+40919  11.853  24.524   4.284
77152NA+    NA+40920  33.486  39.052  11.992
77153NA+    NA+40921  22.168  15.133   4.265
77154NA+    NA+40922  34.895   2.964  11.443
77155NA+    NA+40923  33.511   3.289  11.123
77156NA+    NA+40924  40.046   7.367   4.305
77157NA+    NA+40925  25.658   9.187  13.498
77158NA+    NA+40926  40.007   6.406   4.758
77159NA+    NA+40927  12.221  43.923   4.238
77160NA+    NA+40928  37.406  29.493  13.887
77161NA+    NA+40929  38.020  23.110   1.905
77162NA+    NA+40930  18.631  17.112  11.456
77163NA+    NA+40931  35.474  43.362   2.375
77164NA+    NA+40932  22.173  17.667  13.834
77165NA+    NA+40933  18.119  40.452  12.494
77166NA+    NA+40934  16.623  19.257   2.313
77167NA+    NA+40935  19.200  41.403   0.774
77168NA+    NA+40936  18.187  20.693   2.778
77169NA+    NA+40937  12.179  12.678  13.794
77170NA+    NA+40938  18.739  36.573   2.727
77171NA+    NA+40939  35.439  31.635  12.570
77172NA+    NA+40940  17.081   4.325   4.793
77173NA+    NA+40941  43.833  13.664   4.824
77174NA+    NA+40942  30.599  33.970   0.791
77175NA+    NA+40943  43.418   9.875  13.822
77176NA+    NA+40944  26.995   6.352   2.343
77177NA+    NA+40945   9.206   3.382  10.416
77178NA+    NA+40946  29.558  37.930  13.004
77179NA+    NA+40947  34.017  35.480   2.833
77180NA+    NA+40948  32.046  38.332  12.855
77181NA+    NA+40949  30.441  27.502  13.453
77182NA+    NA+40950   2.428  14.165   2.312
77183NA+    NA+40951  13.728   9.347   1.318
77184NA+    NA+40952  27.993  34.895  14.915
77185NA+    NA+40953  16.285   5.919  10.559
77186NA+    NA+40954   1.800  35.912   1.229
77187NA+    NA+40955  12.348   7.294   2.669
77188NA+    NA+40956  44.380  28.165   4.800
77189NA+    NA+40957  23.073   8.720  12.062
77190NA+    NA+40958   2.849   5.895   3.190
77191NA+    NA+40959  33.033  12.157  11.129
77192NA+    NA+40960  14.329   3.285  13.940
77193NA+    NA+40961  21.194   1.754  14.022
77194NA+    NA+40962  34.542  12.202   4.608
77195NA+    NA+40963  14.752  18.129  10.549
77196NA+    NA+40964  23.240  27.129   4.301
77197NA+    NA+40965   4.349   4.234   1.843
77198NA+    NA+40966  24.047  18.296   4.162
77199NA+    NA+40967  16.781  21.553   2.308
77200NA+    NA+40968  17.591   9.303  14.483
77201NA+    NA+40969  27.490  11.312   0.415
77202NA+    NA+40970  10.750   5.358   1.382
77203NA+    NA+40971  43.891  28.019  13.310
77204NA+    NA+40972   7.182  28.117   3.282
77205NA+    NA+40973  10.837  25.149  14.291
77206NA+    NA+40974  14.252  11.373  11.881
77207NA+    NA+40975  34.519  28.452   2.383
77208NA+    NA+40976  24.572  31.427   1.920
77209NA+    NA+40977  13.289  42.308  13.843
77210NA+    NA+40978  19.597   9.689   3.372
77211NA+    NA+40979  18.665   7.848  12.398
77212NA+    NA+40980  19.247   3.804  11.460
77213NA+    NA+40981  21.081  40.488   5.242
77214NA+    NA+40982  44.978  21.082   4.811
77215NA+    NA+40983  44.894  24.500  12.359
77216NA+    NA+40984  14.780   0.889   9.998
77217NA+    NA+40985  31.142  28.951   0.271
77218NA+    NA+40986  30.165  29.439  14.765
77219NA+    NA+40987   7.885  31.487   0.951
77220NA+    NA+40988  20.746  25.636   3.340
77221NA+    NA+40989   3.437  25.035   5.228
77222NA+    NA+40990  27.676  17.259  14.925
77223NA+    NA+40991  23.510  27.510  11.399
77224NA+    NA+40992   0.896  17.231   5.118
77225NA+    NA+40993  24.676  41.963  13.523
77226NA+    NA+40994  15.213  33.056  11.916
77227NA+    NA+40995  32.499  42.805   4.165
77228NA+    NA+40996  16.132  42.398   3.346
77229NA+    NA+40997  16.187  38.987  11.521
77230NA+    NA+40998  26.001  36.352  10.443
77231NA+    NA+40999   7.712   4.920  12.828
77232NA+    NA+41000  36.915  30.998  10.926
77233NA+    NA+41001  23.160  12.199   3.695
77234NA+    NA+41002  24.063   2.304   4.711
77235NA+    NA+41003  31.108  24.216  11.960
77236NA+    NA+41004   1.929   9.880  12.016
77237NA+    NA+41005  44.885   5.423   0.889
77238NA+    NA+41006  33.604  17.692   0.468
77239NA+    NA+41007  12.321  17.183  14.386
77240NA+    NA+41008  12.272   9.885  11.392
77241NA+    NA+41009  32.082   7.718  14.958
77242NA+    NA+41010  32.502  37.372   1.347
77243NA+    NA+41011   0.942  15.612   3.686
77244NA+    NA+41012  30.011  23.020   4.268
77245NA+    NA+41013  27.544  24.497   0.857
77246NA+    NA+41014  32.490  32.564   2.363
77247NA+    NA+41015  14.337   4.411  14.311
77248NA+    NA+41016   2.950  36.964  12.347
77249NA+    NA+41017  14.720  26.548  14.316
77250NA+    NA+41018   6.922   6.914   1.789
77251NA+    NA+41019  29.597  12.336   2.332
77252NA+    NA+41020  26.639   3.277   4.608
77253NA+    NA+41021  13.170   7.862  10.582
77254NA+    NA+41022  34.443  20.668   1.780
77255NA+    NA+41023  10.267   6.412  14.842
77256NA+    NA+41024  12.333  25.031  13.330
77257NA+    NA+41025   4.857  44.458  10.994
77258NA+    NA+41026   3.778  16.088   3.372
77259NA+    NA+41027  41.318  11.769  11.410
77260NA+    NA+41028  12.329  41.998   2.419
77261NA+    NA+41029  22.532  25.510  13.015
77262NA+    NA+41030  28.560   5.213   4.307
77263NA+    NA+41031  31.610  28.073   4.137
77264NA+    NA+41032  40.452  33.080   4.236
77265NA+    NA+41033  26.585  21.032  13.307
77266NA+    NA+41034  24.507  20.638  12.908
77267NA+    NA+41035  40.992  23.106  11.124
77268NA+    NA+41036  34.532  35.948  13.993
77269NA+    NA+41037   1.893   4.757  13.931
77270NA+    NA+41038  15.630  42.319  12.412
77271NA+    NA+41039  42.406  20.756  13.395
77272NA+    NA+41040  29.021  33.932   4.701
77273NA+    NA+41041  27.495  28.161  13.398
77274NA+    NA+41042  24.201   4.339  10.520
77275NA+    NA+41043  22.630  40.327   3.212
77276NA+    NA+41044   7.242  36.549  11.604
77277NA+    NA+41045  20.539  36.497  13.894
77278NA+    NA+41046  23.716  36.551  14.293
77279NA+    NA+41047  25.962  21.593  14.802
77280NA+    NA+41048  10.675   8.196   1.377
77281NA+    NA+41049  38.554  39.499   0.769
77282NA+    NA+41050  16.077  42.875   1.913
77283NA+    NA+41051  40.887   2.300  11.883
77284NA+    NA+41052  31.562  40.883  12.866
77285NA+    NA+41053   7.324  16.672   3.198
77286NA+    NA+41054   3.439  39.478  14.768
77287NA+    NA+41055  14.730  40.852  12.880
77288NA+    NA+41056  11.180   9.382  13.000
77289NA+    NA+41057  42.363  30.104  13.836
77290NA+    NA+41058  12.350  19.709   3.169
77291NA+    NA+41059   2.382   9.175   4.642
77292NA+    NA+41060  22.567  19.673  12.091
77293NA+    NA+41061  30.980   5.890  14.350
77294NA+    NA+41062  25.202  27.037   1.289
77295NA+    NA+41063  10.697  20.153   4.264
77296NA+    NA+41064  36.095  44.966  10.611
77297NA+    NA+41065  32.584   8.211  10.435
77298NA+    NA+41066   7.774   1.445   1.833
77299NA+    NA+41067  38.037  10.758   4.634
77300NA+    NA+41068  14.732  27.044  12.550
77301NA+    NA+41069  15.174  13.778   4.724
77302NA+    NA+41070  19.046  18.693  13.410
77303NA+    NA+41071  36.094  41.328  11.609
77304NA+    NA+41072  40.357  34.590   2.857
77305NA+    NA+41073  44.459  34.101   1.876
77306NA+    NA+41074  29.946  41.793  12.095
77307NA+    NA+41075   9.291   5.750  10.443
77308NA+    NA+41076  30.443  12.299  12.452
77309NA+    NA+41077   7.354   4.717   9.951
77310NA+    NA+41078  19.585  27.990  13.830
77311NA+    NA+41079   6.370  18.078  13.364
77312NA+    NA+41080  11.342  35.489   3.799
77313NA+    NA+41081  10.762   5.736   0.906
77314NA+    NA+41082   2.466  43.452  10.948
77315NA+    NA+41083  17.278  31.938  10.506
77316NA+    NA+41084  33.121  41.811  11.943
77317NA+    NA+41085  10.671   0.896  13.806
77318NA+    NA+41086  31.022  15.104  11.552
77319NA+    NA+41087  43.829  40.003  10.448
77320NA+    NA+41088   2.323  42.827   2.855
77321NA+    NA+41089  27.690  11.752  13.032
77322NA+    NA+41090  44.891  25.603   3.212
77323NA+    NA+41091  23.217   3.825   0.433
77324NA+    NA+41092  19.536  26.112   1.295
77325NA+    NA+41093  18.091  18.710   1.845
77326NA+    NA+41094  27.672  30.031  14.939
77327NA+    NA+41095  39.910  35.517   1.871
77328NA+    NA+41096  15.699   1.952  12.834
77329NA+    NA+41097   5.390  34.071   1.890
77330NA+    NA+41098  41.316  36.930  10.887
77331NA+    NA+41099  10.376  21.123   1.434
77332NA+    NA+41100  10.297  35.590  14.784
77333NA+    NA+41101  20.631  18.634   4.637
77334NA+    NA+41102   3.798   1.381  13.927
77335NA+    NA+41103  35.489  16.092  12.494
77336NA+    NA+41104  17.256  24.231   4.189
77337NA+    NA+41105  38.434  31.537   0.466
77338NA+    NA+41106  10.774  44.398  12.040
77339NA+    NA+41107  24.583  21.713   0.868
77340NA+    NA+41108  26.095  15.681   0.245
77341NA+    NA+41109  14.309  13.829  10.456
77342NA+    NA+41110  18.121  26.048   1.740
77343NA+    NA+41111  13.225  17.574  13.888
77344NA+    NA+41112  33.127  25.639   1.788
77345NA+    NA+41113  27.614  27.096  11.988
77346NA+    NA+41114   7.809   0.484  12.947
77347NA+    NA+41115  29.536  36.097  10.907
77348NA+    NA+41116  39.033   9.394   0.791
77349NA+    NA+41117  30.968  40.012  14.787
77350NA+    NA+41118  27.000  20.655   1.248
77351NA+    NA+41119  15.640  11.773   3.661
77352NA+    NA+41120   2.880  32.087  13.049
77353NA+    NA+41121   7.338  41.824  14.966
77354NA+    NA+41122  32.911   3.802   3.233
77355NA+    NA+41123  17.230  28.962  13.486
77356NA+    NA+41124  17.064  15.677   0.329
77357NA+    NA+41125  28.135   2.256  14.760
77358NA+    NA+41126  37.077  40.858  13.400
77359NA+    NA+41127  28.072  30.418   0.895
77360NA+    NA+41128  38.513   0.933  11.456
77361NA+    NA+41129  21.088   0.934   3.846
77362NA+    NA+41130   5.701  44.262  14.835
77363NA+    NA+41131  35.459   6.225   9.968
77364NA+    NA+41132   8.711  33.610   1.882
77365NA+    NA+41133  31.613   7.773  13.045
77366NA+    NA+41134  26.618  41.971  14.941
77367NA+    NA+41135   4.284   4.214  14.882
77368NA+    NA+41136  25.707   0.444   3.378
77369NA+    NA+41137  29.609  21.055  10.514
77370NA+    NA+41138  28.568  34.864   1.296
77371NA+    NA+41139  24.072  14.833   3.250
77372NA+    NA+41140  42.405  28.021   1.268
77373NA+    NA+41141  37.909  10.646  13.977
77374NA+    NA+41142  16.651  23.094   4.216
77375NA+    NA+41143  44.497  17.688   4.658
77376NA+    NA+41144   6.732  33.618  12.092
77377NA+    NA+41145  17.069  32.421   4.234
77378NA+    NA+41146  11.672  34.508  10.038
77379NA+    NA+41147  10.268   3.380   0.386
77380NA+    NA+41148  11.706  11.638   4.126
77381NA+    NA+41149  44.304  19.624   4.838
77382NA+    NA+41150  13.153  17.564   1.815
77383NA+    NA+41151  19.233  39.537   2.367
77384NA+    NA+41152   0.299  27.025  13.440
77385NA+    NA+41153  29.976  17.219   0.301
77386NA+    NA+41154   4.418  18.092   3.333
77387NA+    NA+41155  34.899   9.162   1.884
77388NA+    NA+41156  36.371   4.944  11.024
77389NA+    NA+41157  16.296  32.021   1.341
77390NA+    NA+41158  38.973   6.825  10.042
77391NA+    NA+41159   8.817  42.840  13.377
77392NA+    NA+41160  29.979  20.662  13.426
77393NA+    NA+41161  16.795  37.087   1.315
77394NA+    NA+41162   6.378  11.774   0.840
77395NA+    NA+41163  39.378  11.170   3.811
77396NA+    NA+41164  20.593  34.937   0.935
77397NA+    NA+41165  41.033   0.406   3.666
77398NA+    NA+41166  17.719  41.961  11.609
77399NA+    NA+41167  24.693  18.132   3.243
77400NA+    NA+41168  37.499  44.392   2.753
77401NA+    NA+41169  17.731  44.798   0.339
77402NA+    NA+41170  39.867  18.684   1.860
77403NA+    NA+41171  27.052  29.967   2.379
77404NA+    NA+41172  17.572   1.450   3.838
77405NA+    NA+41173   9.861  37.946   4.676
77406NA+    NA+41174  34.424  14.217   4.311
77407NA+    NA+41175  19.239  42.427   3.866
77408NA+    NA+41176  22.070   6.365   2.372
77409NA+    NA+41177  23.682  42.938   0.282
77410NA+    NA+41178  28.467  26.632  10.133
77411NA+    NA+41179  10.329  44.945   1.772
77412NA+    NA+41180  13.181  33.423  11.574
77413NA+    NA+41181   1.803   7.673  14.814
77414NA+    NA+41182   1.787   7.392   3.774
77415NA+    NA+41183  37.347   3.849   1.281
77416NA+    NA+41184  15.310  34.945   1.878
77417NA+    NA+41185   8.832  38.944   0.257
77418NA+    NA+41186   6.323  22.690  12.411
77419NA+    NA+41187  28.659   7.761   0.871
77420NA+    NA+41188  31.036  29.476  11.860
77421NA+    NA+41189  21.590  22.577  12.015
77422NA+    NA+41190  19.080  22.709  10.559
77423NA+    NA+41191  35.090  40.991   3.283
77424NA+    NA+41192  21.601  27.553   0.788
77425NA+    NA+41193   4.744  34.446  10.942
77426NA+    NA+41194  36.502  32.916   4.710
77427NA+    NA+41195   6.831  42.501   0.954
77428NA+    NA+41196  17.210  31.587  14.487
77429NA+    NA+41197  11.331  32.409  13.960
77430NA+    NA+41198  35.094  37.392  14.977
77431NA+    NA+41199  14.291  31.059   2.809
77432NA+    NA+41200  32.944   7.869   1.761
77433NA+    NA+41201  40.952  10.845  11.915
77434NA+    NA+41202   3.802  21.675  11.980
77435NA+    NA+41203  34.937  11.674   0.897
77436NA+    NA+41204  24.589  11.845  13.063
77437NA+    NA+41205  37.963  38.558   4.300
77438NA+    NA+41206  38.907  35.093   0.948
77439NA+    NA+41207  12.215  15.154   0.815
77440NA+    NA+41208  14.725   1.270   3.198
77441NA+    NA+41209   9.717   3.826  13.355
77442NA+    NA+41210  36.386   9.150   3.766
77443NA+    NA+41211  41.296   6.894   4.605
77444NA+    NA+41212   7.269  44.974  14.344
77445NA+    NA+41213  40.813   5.891   3.309
77446NA+    NA+41214  33.481  28.615  12.377
77447NA+    NA+41215  27.073   4.370  13.307
77448NA+    NA+41216  44.274  28.955  11.994
77449NA+    NA+41217  44.762  21.182  14.400
77450NA+    NA+41218   8.829  35.874  12.458
77451NA+    NA+41219  44.279  31.440  10.918
77452NA+    NA+41220   5.773  23.527   3.684
77453NA+    NA+41221  10.720   3.858  13.972
77454NA+    NA+41222  24.082  15.151  10.909
77455NA+    NA+41223   2.896   2.318  10.990
77456NA+    NA+41224  36.576   9.210  14.296
77457NA+    NA+41225  38.837  43.986  13.354
77458NA+    NA+41226  14.690   6.802  14.506
77459NA+    NA+41227  10.695  31.536  10.896
77460NA+    NA+41228   4.212  15.090   3.200
77461NA+    NA+41229  31.611   0.451  13.413
77462NA+    NA+41230  13.249  32.448   1.829
77463NA+    NA+41231  42.816   2.935   4.213
77464NA+    NA+41232  19.577  30.994   3.698
77465NA+    NA+41233  40.955  39.918  12.864
77466NA+    NA+41234  41.918  38.468   0.771
77467NA+    NA+41235  37.520   9.866   2.872
77468NA+    NA+41236  41.408  31.510  11.518
77469NA+    NA+41237  22.562  41.490   4.791
77470NA+    NA+41238   3.920  14.637   1.819
77471NA+    NA+41239   4.825  35.573   9.612
77472NA+    NA+41240  12.257  41.456   0.927
77473NA+    NA+41241   7.268  21.603   2.693
77474NA+    NA+41242  30.450  23.590   1.329
77475NA+    NA+41243  30.127  28.073   4.789
77476NA+    NA+41244   5.777  17.725  14.981
77477NA+    NA+41245  29.595  26.077  13.382
77478NA+    NA+41246  12.718  20.706   0.252
77479NA+    NA+41247  20.130   1.336   0.748
77480NA+    NA+41248   6.775  19.108   0.248
77481NA+    NA+41249   8.223  28.990   2.824
77482NA+    NA+41250   6.708  43.298   4.772
77483NA+    NA+41251   3.330  40.916  12.562
77484NA+    NA+41252  12.747  31.100  13.545
77485NA+    NA+41253  29.168  42.857   1.324
77486NA+    NA+41254  20.596  40.331  12.012
77487NA+    NA+41255  29.597  23.083  10.471
77488NA+    NA+41256   3.892  22.244  14.293
77489NA+    NA+41257  30.936  37.835  11.460
77490NA+    NA+41258  25.039  30.618  10.892
77491NA+    NA+41259  37.474  35.000   1.375
77492NA+    NA+41260  15.641  16.716  11.955
77493NA+    NA+41261  16.309  21.520   3.318
77494NA+    NA+41262   0.337  34.926   1.725
77495NA+    NA+41263  10.711   0.932   0.867
77496NA+    NA+41264   8.687   5.211   4.219
77497NA+    NA+41265  44.277   8.671  14.870
77498NA+    NA+41266  15.289  11.182  10.028
77499NA+    NA+41267  27.952   9.815  12.409
77500NA+    NA+41268  41.428  15.149  11.946
77501NA+    NA+41269  18.559  27.075  12.053
77502NA+    NA+41270  24.107   1.893  12.531
77503NA+    NA+41271  42.322  16.287   2.672
77504NA+    NA+41272   3.285  36.915   4.739
77505NA+    NA+41273  10.836   3.828   2.194
77506NA+    NA+41274  12.654  39.455   1.823
77507NA+    NA+41275  33.411  40.896   0.751
77508NA+    NA+41276  32.535  35.992   3.803
77509NA+    NA+41277   9.224  33.502  10.997
77510NA+    NA+41278  38.007  13.296   0.820
77511NA+    NA+41279   4.880  41.909   1.326
77512NA+    NA+41280  28.175  36.564   0.362
77513NA+    NA+41281  17.730  18.191  12.993
77514NA+    NA+41282   3.846   4.873  12.491
77515NA+    NA+41283   1.966  16.798  11.607
77516NA+    NA+41284  13.765   9.871   5.227
77517NA+    NA+41285  27.680   5.830  11.575
77518NA+    NA+41286  34.005  12.851   0.347
77519NA+    NA+41287   7.734  17.652  14.409
77520NA+    NA+41288   6.228  12.657   5.264
77521NA+    NA+41289  24.975   9.389   4.700
77522NA+    NA+41290  38.470   0.420   0.740
77523NA+    NA+41291  36.003  44.440   3.796
77524NA+    NA+41292   6.912   0.466   4.274
77525NA+    NA+41293  19.609  16.153   1.834
77526NA+    NA+41294  36.004  40.532  14.836
77527NA+    NA+41295   8.353  36.982   2.221
77528NA+    NA+41296  22.666  44.989   0.891
77529NA+    NA+41297  37.581  36.441  14.402
77530NA+    NA+41298  29.566   1.444  13.914
77531NA+    NA+41299  20.723   1.927   4.641
77532NA+    NA+41300  12.171  44.984  12.563
77533NA+    NA+41301  22.150   4.334  14.804
77534NA+    NA+41302  20.638  14.720   3.258
77535NA+    NA+41303  29.064   5.720   0.783
77536NA+    NA+41304  22.565  28.005  13.495
77537NA+    NA+41305  22.182   9.800   2.193
77538NA+    NA+41306  33.577  21.263   5.294
77539NA+    NA+41307  17.648  34.109  13.329
77540NA+    NA+41308  10.262  31.101  11.932
77541NA+    NA+41309  36.360  30.496   0.304
77542NA+    NA+41310  23.000  24.601   4.679
77543NA+    NA+41311  18.267  33.030  14.904
77544NA+    NA+41312   5.354   3.832   3.858
77545NA+    NA+41313  25.031  30.552   3.750
77546NA+    NA+41314   5.234  28.018  12.464
77547NA+    NA+41315  25.704  33.595   5.178
77548NA+    NA+41316  34.058   3.453  12.535
77549NA+    NA+41317  34.890  26.098  13.371
77550NA+    NA+41318  40.835  27.001  10.982
77551NA+    NA+41319   2.358  19.102  14.507
77552NA+    NA+41320  35.911  18.575  13.850
77553NA+    NA+41321  37.934   8.401  13.546
77554NA+    NA+41322   1.338  18.151   3.353
77555NA+    NA+41323  37.889  27.036   4.700
77556NA+    NA+41324  35.510  29.541  12.485
77557NA+    NA+41325  35.895  29.038  11.501
77558NA+    NA+41326  44.312   7.735  11.603
77559NA+    NA+41327  14.609  14.780   0.428
77560NA+    NA+41328  31.536  39.054  13.411
77561NA+    NA+41329  16.292  24.089  13.030
77562NA+    NA+41330  31.457   4.213   0.333
77563NA+    NA+41331  15.268  10.278   3.341
77564NA+    NA+41332  34.105  13.795  14.494
77565NA+    NA+41333  36.011   3.919  13.883
77566NA+    NA+41334   3.223  26.087   4.801
77567NA+    NA+41335   5.241  30.070  13.799
77568NA+    NA+41336  40.417  17.566  12.515
77569NA+    NA+41337  36.990  41.860   4.751
77570NA+    NA+41338   4.890  22.707   3.295
77571NA+    NA+41339   0.354   5.827   3.678
77572NA+    NA+41340   2.898  30.026  10.532
77573NA+    NA+41341  11.160  37.437  11.569
77574NA+    NA+41342  32.959  12.732  11.939
77575NA+    NA+41343  12.760  36.090   2.687
77576NA+    NA+41344  27.617  19.179  10.453
77577NA+    NA+41345  21.550  40.816  12.834
77578NA+    NA+41346  19.141   0.443  14.883
77579NA+    NA+41347  10.228  33.578  12.066
77580NA+    NA+41348  16.613  33.559   0.796
77581NA+    NA+41349   3.335  18.750   5.318
77582NA+    NA+41350  19.193  17.698  11.445
77583NA+    NA+41351  17.610  12.718   3.812
77584NA+    NA+41352  13.137  37.352   4.837
77585NA+    NA+41353  33.999   8.175   0.857
77586NA+    NA+41354  38.009  28.599  14.921
77587NA+    NA+41355   9.378  29.532   2.662
77588NA+    NA+41356  34.429  28.056   3.665
77589NA+    NA+41357  44.932  25.169  11.862
77590NA+    NA+41358  26.055  39.966   3.772
77591NA+    NA+41359   5.344  19.041  11.421
77592NA+    NA+41360  43.785  24.545   4.731
77593NA+    NA+41361  42.302   9.199  13.497
77594NA+    NA+41362  14.326  12.154   3.826
77595NA+    NA+41363  29.938  20.708   2.386
77596NA+    NA+41364  37.992   5.916  13.357
77597NA+    NA+41365  26.040  26.049   3.632
77598NA+    NA+41366  42.888  39.468   4.754
77599NA+    NA+41367  12.303  29.945  13.806
77600NA+    NA+41368  42.422   1.897  14.976
77601NA+    NA+41369  21.191  32.482   5.146
77602NA+    NA+41370  43.881  14.594   2.334
77603NA+    NA+41371  35.600  10.319  13.319
77604NA+    NA+41372  42.881  38.546  13.900
77605NA+    NA+41373  28.571  26.193   1.413
77606NA+    NA+41374   4.395  23.704  13.989
77607NA+    NA+41375  10.263   5.911  14.380
77608NA+    NA+41376   8.715  25.091  14.452
77609NA+    NA+41377  33.105  30.627  11.486
77610NA+    NA+41378  13.231  29.461   9.953
77611NA+    NA+41379  18.145  41.872   1.375
77612NA+    NA+41380  17.219  28.067   0.406
77613NA+    NA+41381  27.171  32.984   2.395
77614NA+    NA+41382  21.095  10.848  11.861
77615NA+    NA+41383  13.142  38.874  11.393
77616NA+    NA+41384  43.996  14.340   0.448
77617NA+    NA+41385  25.109  32.065   0.852
77618NA+    NA+41386  31.133  34.955  10.542
77619NA+    NA+41387   1.769  40.028   1.722
77620NA+    NA+41388  26.599  25.566   2.816
77621NA+    NA+41389  40.876  26.111   2.742
77622NA+    NA+41390  25.148  31.504  14.502
77623NA+    NA+41391   6.917  24.624   1.724
77624NA+    NA+41392  17.076  41.496   2.832
77625NA+    NA+41393   3.373  18.699  13.867
77626NA+    NA+41394   0.336  24.623   3.293
77627NA+    NA+41395   2.737   4.272   3.182
77628NA+    NA+41396  19.594   4.268  13.902
77629NA+    NA+41397  40.392  24.673  12.462
77630NA+    NA+41398  27.005  42.946   4.234
77631NA+    NA+41399  21.069  18.683   4.322
77632NA+    NA+41400  31.118  17.617   1.383
77633NA+    NA+41401  30.548  22.567   1.294
77634NA+    NA+41402   3.889  43.455  10.405
77635NA+    NA+41403  44.397  35.460   0.943
77636NA+    NA+41404  27.103  18.600  12.945
77637NA+    NA+41405  35.361   4.289  12.048
77638NA+    NA+41406  14.697  20.239   4.732
77639NA+    NA+41407  27.982   2.772  10.476
77640NA+    NA+41408  19.546  16.274  13.893
77641NA+    NA+41409  34.570  40.542  10.404
77642NA+    NA+41410  39.041  40.020   4.782
77643NA+    NA+41411  20.644  23.116   4.209
77644NA+    NA+41412   0.861  19.737  10.562
77645NA+    NA+41413  32.409  38.540   0.285
77646NA+    NA+41414  16.213  37.575   3.709
77647NA+    NA+41415  10.867  25.204   3.249
77648NA+    NA+41416  22.065  35.544  12.566
77649NA+    NA+41417  36.890  14.614  11.596
77650NA+    NA+41418  28.135  34.934  13.011
77651NA+    NA+41419  19.633  20.032   3.861
77652NA+    NA+41420  42.824  17.753  11.960
77653NA+    NA+41421  11.673  30.075   0.434
77654NA+    NA+41422  14.170  16.150   1.386
77655NA+    NA+41423  38.336  10.695   0.756
77656NA+    NA+41424  23.564   8.778   1.884
77657NA+    NA+41425  24.630   7.321   4.131
77658NA+    NA+41426  24.080   9.722   0.386
77659NA+    NA+41427  33.936  30.570   3.730
77660NA+    NA+41428  25.191  24.127   5.120
77661NA+    NA+41429  25.091  24.480   3.376
77662NA+    NA+41430  12.193  35.981  13.403
77663NA+    NA+41431  21.040   7.313   4.787
77664NA+    NA+41432   9.172  44.011  11.527
77665NA+    NA+41433  17.263   1.830  14.416
77666NA+    NA+41434  26.481  36.473   3.770
77667NA+    NA+41435  44.263  38.479   4.716
77668NA+    NA+41436   7.237  13.252   1.284
77669NA+    NA+41437  11.793  21.540   2.666
77670NA+    NA+41438   1.366  41.295   4.189
77671NA+    NA+41439  32.486  42.511  12.852
77672NA+    NA+41440  26.084  37.871  10.072
77673NA+    NA+41441   3.220  24.022  12.575
77674NA+    NA+41442  18.685   8.672   3.311
77675NA+    NA+41443   6.202  34.087  11.553
77676NA+    NA+41444  32.039  23.522   2.271
77677NA+    NA+41445  38.417  37.366   2.681
77678NA+    NA+41446   6.859  29.605  10.497
77679NA+    NA+41447  41.792  20.550  12.918
77680NA+    NA+41448  12.175   6.195   4.260
77681NA+    NA+41449   4.344  36.882   4.343
77682NA+    NA+41450  38.550  39.542  12.405
77683NA+    NA+41451  22.198  39.914  10.629
77684NA+    NA+41452   5.266  35.993  12.573
77685NA+    NA+41453  37.904   2.945  13.803
77686NA+    NA+41454  35.388  44.302   2.832
77687NA+    NA+41455  43.881   3.284  10.415
77688NA+    NA+41456  14.169  21.237  11.373
77689NA+    NA+41457  44.008  36.435   3.846
77690NA+    NA+41458  34.370  18.268   0.414
77691NA+    NA+41459   0.412  28.601  13.966
77692NA+    NA+41460  24.031  34.399   0.394
77693NA+    NA+41461  25.213  28.008   4.339
77694NA+    NA+41462  12.204  24.574  14.412
77695NA+    NA+41463  17.236  31.616   4.699
77696NA+    NA+41464  30.929  26.039  13.014
77697NA+    NA+41465  13.233   9.752  14.356
77698NA+    NA+41466  23.158  19.105   1.310
77699NA+    NA+41467   2.466  42.379   4.665
77700NA+    NA+41468  26.590   9.763   2.400
77701NA+    NA+41469   3.784  24.061   2.215
77702NA+    NA+41470  35.879  37.479   3.248
77703NA+    NA+41471  19.574  29.103  13.819
77704NA+    NA+41472   3.918   3.384  13.962
77705NA+    NA+41473  15.264  32.450  10.998
77706NA+    NA+41474  44.501  26.021  11.983
77707NA+    NA+41475  18.134   8.321   0.434
77708NA+    NA+41476  18.049  25.183   5.128
77709NA+    NA+41477   8.696  35.382   1.737
77710NA+    NA+41478  38.925   2.879  13.413
77711NA+    NA+41479  17.128  12.673   3.745
77712NA+    NA+41480   8.160  11.307   2.815
77713NA+    NA+41481   1.334  16.190  11.541
77714NA+    NA+41482   6.261   6.228   1.236
77715NA+    NA+41483  39.372  32.576  14.443
77716NA+    NA+41484  23.547   9.342  13.325
77717NA+    NA+41485  33.989  41.427   2.671
77718NA+    NA+41486  41.426  24.479   3.791
77719NA+    NA+41487  39.047  42.870  10.054
77720NA+    NA+41488  38.014  19.677   3.170
77721NA+    NA+41489  40.822  40.534   3.231
77722NA+    NA+41490   2.404  42.864   2.177
77723NA+    NA+41491  32.128  17.263  12.072
77724NA+    NA+41492  22.050  29.048  13.969
77725NA+    NA+41493   7.823  12.772  13.960
77726NA+    NA+41494  37.989  42.878  14.838
77727NA+    NA+41495  41.963  44.426   1.390
77728NA+    NA+41496  32.921   8.795  11.000
77729NA+    NA+41497  27.502  41.978   2.337
77730NA+    NA+41498   3.783   6.880  12.922
77731NA+    NA+41499  41.929  12.679   0.930
77732NA+    NA+41500   0.830  14.176   4.703
77733NA+    NA+41501   7.227  33.998  10.920
77734NA+    NA+41502  26.146   4.387  14.929
77735NA+    NA+41503  20.075  33.079  12.003
77736NA+    NA+41504   9.676  14.095   2.346
77737NA+    NA+41505  25.158  28.442   2.212
77738NA+    NA+41506  18.707  23.548  10.429
77739NA+    NA+41507  22.522  41.031  10.438
77740NA+    NA+41508  32.952  27.499  14.318
77741NA+    NA+41509  16.112  23.578   2.674
77742NA+    NA+41510   7.801   7.390  14.990
77743NA+    NA+41511  26.651  42.945   2.419
77744NA+    NA+41512  35.452   3.434   3.234
77745NA+    NA+41513  22.603  39.891  14.287
77746NA+    NA+41514  19.670  28.440   0.948
77747NA+    NA+41515  10.672  30.028   4.819
77748NA+    NA+41516  11.693   9.360   5.309
77749NA+    NA+41517  29.145  35.971   3.275
77750NA+    NA+41518  40.839   5.835  10.561
77751NA+    NA+41519   2.824   3.245  10.891
77752NA+    NA+41520  32.420  18.160   3.744
77753NA+    NA+41521  14.632   3.262   1.327
77754NA+    NA+41522   4.758  22.690   1.236
77755NA+    NA+41523  29.609  17.618   0.255
77756NA+    NA+41524  12.300  15.296   3.348
77757NA+    NA+41525   3.261  27.485   1.432
77758NA+    NA+41526  34.032  15.205   3.675
77759NA+    NA+41527   3.323   9.337   3.689
77760NA+    NA+41528   6.263  21.620  14.806
77761NA+    NA+41529  26.496  35.573   2.209
77762NA+    NA+41530  36.472  19.040  13.338
77763NA+    NA+41531  25.489  30.964   2.392
77764NA+    NA+41532  28.512   4.923  14.453
77765NA+    NA+41533  13.173  15.101   0.730
77766NA+    NA+41534  29.646   6.201  11.400
77767NA+    NA+41535  23.075  35.996  14.326
77768NA+    NA+41536  37.864  38.052  13.061
77769NA+    NA+41537   1.348  19.751  12.985
77770NA+    NA+41538  41.839  37.408  14.847
77771NA+    NA+41539  24.479  39.478   2.802
77772NA+    NA+41540   8.329  39.458  12.567
77773NA+    NA+41541  32.100  10.725  13.520
77774NA+    NA+41542   8.687   4.748   2.733
77775NA+    NA+41543  34.547  36.471  12.542
77776NA+    NA+41544  29.641  42.880  14.909
77777NA+    NA+41545  24.211  10.304  11.864
77778NA+    NA+41546  28.500  35.463   3.811
77779NA+    NA+41547  10.749  12.633  14.802
77780NA+    NA+41548  23.042  38.368  14.996
77781NA+    NA+41549   7.389  13.787  12.524
77782NA+    NA+41550  29.964  13.261   1.777
77783NA+    NA+41551  43.397  38.889   3.166
77784NA+    NA+41552  13.351  16.093   1.922
77785NA+    NA+41553   2.869  20.117   3.687
77786NA+    NA+41554  31.552  18.077   0.448
77787NA+    NA+41555  11.718  32.957  13.822
77788NA+    NA+41556  24.207  30.033   4.710
77789NA+    NA+41557  24.069  43.960  10.506
77790NA+    NA+41558  36.429  27.052   3.842
77791NA+    NA+41559  29.065   8.866   1.441
77792NA+    NA+41560  22.227   1.752  12.442
77793NA+    NA+41561  38.991  18.594   2.308
77794NA+    NA+41562   6.193   9.316  10.639
77795NA+    NA+41563   4.312  38.955   2.857
77796NA+    NA+41564  31.506   3.239   3.798
77797NA+    NA+41565   7.247  13.602   3.705
77798NA+    NA+41566  17.777  22.716  12.499
77799NA+    NA+41567   9.246  36.047   3.729
77800NA+    NA+41568  40.456   3.753  12.419
77801NA+    NA+41569  21.562  25.070   0.778
77802NA+    NA+41570   0.975  44.960  13.025
77803NA+    NA+41571  13.115  20.606   3.651
77804NA+    NA+41572   0.771  25.192   1.401
77805NA+    NA+41573  22.540  30.019   4.681
77806NA+    NA+41574  25.478  26.676   0.750
77807NA+    NA+41575   9.163  22.109  11.105
77808NA+    NA+41576   2.932  41.445  12.058
77809NA+    NA+41577   2.372  24.613   1.781
77810NA+    NA+41578  11.363  11.227  13.975
77811NA+    NA+41579   7.752  21.669  14.382
77812NA+    NA+41580   2.744  17.700  13.400
77813NA+    NA+41581   2.390  41.411   9.979
77814NA+    NA+41582  42.349  29.066  13.417
77815NA+    NA+41583   8.378  23.149  12.349
77816NA+    NA+41584  41.849  18.696   0.922
77817NA+    NA+41585  25.081  11.772   0.805
77818NA+    NA+41586  29.486   3.391  10.030
77819NA+    NA+41587  36.869  39.969   4.327
77820NA+    NA+41588  38.007  24.696   1.783
77821NA+    NA+41589  10.794  28.977  10.405
77822NA+    NA+41590  24.989   0.765  10.471
77823NA+    NA+41591  37.470   5.846  12.950
77824NA+    NA+41592   8.167  21.628   3.299
77825NA+    NA+41593   1.843  33.414   0.452
77826NA+    NA+41594  39.907   5.230  13.058
77827NA+    NA+41595  13.162  12.849  11.957
77828NA+    NA+41596  27.095  42.378   2.201
77829NA+    NA+41597  29.530  43.511   4.718
77830NA+    NA+41598  42.354   6.842  12.847
77831NA+    NA+41599  14.177  23.506  14.799
77832NA+    NA+41600   8.366   0.856  13.321
77833NA+    NA+41601   1.785  28.668   4.233
77834NA+    NA+41602  32.457   1.812   2.334
77835NA+    NA+41603  15.289  29.657   4.162
77836NA+    NA+41604  31.109  34.521   3.692
77837NA+    NA+41605  14.173  39.962  12.851
77838NA+    NA+41606  11.832  33.591   3.848
77839NA+    NA+41607  41.925  17.083   4.256
77840NA+    NA+41608  33.458  23.054   0.367
77841NA+    NA+41609  28.164  38.995  12.453
77842NA+    NA+41610  40.843  42.827   4.223
77843NA+    NA+41611  43.369  40.047   4.636
77844NA+    NA+41612  25.074  43.368  14.761
77845NA+    NA+41613   7.844  11.141  12.835
77846NA+    NA+41614  39.424  39.039  12.021
77847NA+    NA+41615  32.499   7.361   2.875
77848NA+    NA+41616   4.216   9.395  13.928
77849NA+    NA+41617  19.633  43.022   1.294
77850NA+    NA+41618  31.413  44.762  12.987
77851NA+    NA+41619  27.670  14.229   4.197
77852NA+    NA+41620   6.843   3.797   1.781
77853NA+    NA+41621   9.320   6.329  14.817
77854NA+    NA+41622  11.791  22.026   0.787
77855NA+    NA+41623  10.159  10.193  14.407
77856NA+    NA+41624   9.186  12.841   0.808
77857NA+    NA+41625  22.521  37.501   3.314
77858NA+    NA+41626  41.527  11.166  10.910
77859NA+    NA+41627  26.679  40.396  14.480
77860NA+    NA+41628  20.766  10.743  13.363
77861NA+    NA+41629  25.692  40.529  11.559
77862NA+    NA+41630   7.893  27.638   0.919
77863NA+    NA+41631   7.710  27.996  14.905
77864NA+    NA+41632  21.626   0.777  10.966
77865NA+    NA+41633  43.887  39.372  12.380
77866NA+    NA+41634  41.472   7.332   4.733
77867NA+    NA+41635  27.504  36.351  11.439
77868NA+    NA+41636   0.828   0.810   2.373
77869NA+    NA+41637  11.659   2.332  13.838
77870NA+    NA+41638   3.901  12.195   1.703
77871NA+    NA+41639   8.877  12.754  10.506
77872NA+    NA+41640   7.414  23.991  11.956
77873NA+    NA+41641  25.194   6.879   0.322
77874NA+    NA+41642  15.599  43.270  14.791
77875NA+    NA+41643   9.375  31.117   0.895
77876NA+    NA+41644  24.199   3.850   4.235
77877NA+    NA+41645  37.955  25.198  11.390
77878NA+    NA+41646  39.536  40.814   1.278
77879NA+    NA+41647  33.086  21.210  10.556
77880NA+    NA+41648  32.976  26.643   2.284
77881NA+    NA+41649  14.721  43.782   0.846
77882NA+    NA+41650  15.757   2.815   3.380
77883NA+    NA+41651   9.244  43.348  10.563
77884NA+    NA+41652   8.317  23.582   1.754
77885NA+    NA+41653  18.739   4.768   4.133
77886NA+    NA+41654  28.647  28.677  11.508
77887NA+    NA+41655  27.609  13.807  13.536
77888NA+    NA+41656  38.842  41.897  13.896
77889NA+    NA+41657  29.643  25.996   1.413
77890NA+    NA+41658  22.645  30.160  14.863
77891NA+    NA+41659   1.889  37.550  12.918
77892NA+    NA+41660   2.882  44.286   4.243
77893NA+    NA+41661  36.365  10.816  13.414
77894NA+    NA+41662  15.316  18.605   4.293
77895NA+    NA+41663  33.487   0.846  10.978
77896NA+    NA+41664  14.246  32.593   1.862
77897NA+    NA+41665  11.342  26.643   0.349
77898NA+    NA+41666  32.528  44.907  13.443
77899NA+    NA+41667  39.362  23.166   2.270
77900NA+    NA+41668  31.616  31.601  13.865
77901NA+    NA+41669  31.644  28.936   2.302
77902NA+    NA+41670   6.784  17.304   2.363
77903NA+    NA+41671  14.116   8.693   2.258
77904NA+    NA+41672  29.461  17.756   1.227
77905NA+    NA+41673   7.780  32.007  14.384
77906NA+    NA+41674  16.754   4.286   0.783
77907NA+    NA+41675  23.572   3.830  14.341
77908NA+    NA+41676   4.433   2.914   3.673
77909NA+    NA+41677  27.556  15.813   1.764
77910NA+    NA+41678  15.652  13.672   1.414
77911NA+    NA+41679   0.382  28.657   0.273
77912NA+    NA+41680  40.375   4.337  11.035
77913NA+    NA+41681  40.996  27.135  14.464
77914NA+    NA+41682   3.425  35.028   2.901
77915NA+    NA+41683  36.846  44.890  11.979
77916NA+    NA+41684  10.246  36.963   0.377
77917NA+    NA+41685  18.111  20.274  12.544
77918NA+    NA+41686  27.571  30.639  14.394
77919NA+    NA+41687  41.840  31.426  12.862
77920NA+    NA+41688  30.159  16.083   0.310
77921NA+    NA+41689  18.095  36.920  14.868
77922NA+    NA+41690  17.169  21.716   2.878
77923NA+    NA+41691   9.256  21.182  13.308
77924NA+    NA+41692  39.513  24.166  13.814
77925NA+    NA+41693  43.954   6.306  12.477
77926NA+    NA+41694   8.300  29.523  12.439
77927NA+    NA+41695  37.017  40.449   4.734
77928NA+    NA+41696  16.155  24.061   0.286
77929NA+    NA+41697   7.864  39.880  14.869
77930NA+    NA+41698  13.346   8.236  10.958
77931NA+    NA+41699   6.709  25.214   1.294
77932NA+    NA+41700  21.117  33.597   0.914
77933NA+    NA+41701   0.822  10.147  13.900
77934NA+    NA+41702  42.022  12.166  11.469
77935NA+    NA+41703  41.798  29.499   2.865
77936NA+    NA+41704  29.601  15.217  14.930
77937NA+    NA+41705  35.912  29.565   4.315
77938NA+    NA+41706  10.352  31.114  11.567
77939NA+    NA+41707   2.316   1.332  11.941
77940NA+    NA+41708  35.049  24.049  13.514
77941NA+    NA+41709   4.765  27.469   1.248
77942NA+    NA+41710  29.587  11.773   4.263
77943NA+    NA+41711  33.572   7.789  10.926
77944NA+    NA+41712  13.732  44.969  11.580
77945NA+    NA+41713  37.000  39.519  12.408
77946NA+    NA+41714  21.210  23.577   3.864
77947NA+    NA+41715   0.250   6.366   2.797
77948NA+    NA+41716   3.912  16.709  11.945
77949NA+    NA+41717  16.113  42.997   2.306
77950NA+    NA+41718  43.320  36.405   0.339
77951NA+    NA+41719   5.861   0.959   0.943
77952NA+    NA+41720  18.596  31.642   3.846
77953NA+    NA+41721  18.735   5.241  12.955
77954NA+    NA+41722  23.716  34.563   0.330
77955NA+    NA+41723  15.599  21.076  12.932
77956NA+    NA+41724  28.064  41.456   0.262
77957NA+    NA+41725   0.955  12.168   3.331
77958NA+    NA+41726  41.977  39.471  11.935
77959NA+    NA+41727   6.376  32.067   2.689
77960NA+    NA+41728  37.573  44.322   0.852
77961NA+    NA+41729   7.193  32.550  10.632
77962NA+    NA+41730  39.514  15.293   2.269
77963NA+    NA+41731  37.474  39.458   0.323
77964NA+    NA+41732  19.189  15.165  11.515
77965NA+    NA+41733  20.045  25.615  14.947
77966NA+    NA+41734  18.059  42.931   1.764
77967NA+    NA+41735   3.232  10.660  11.613
77968NA+    NA+41736  30.656  19.269  14.950
77969NA+    NA+41737  33.608  36.399  10.139
77970NA+    NA+41738  33.522  23.029   4.786
77971NA+    NA+41739  43.992  16.143   3.647
77972NA+    NA+41740   5.388  14.601   1.220
77973NA+    NA+41741   2.343  26.201  12.847
77974NA+    NA+41742  38.413  14.667  12.040
77975NA+    NA+41743  10.655  22.156  11.531
77976NA+    NA+41744  16.190  12.706  13.384
77977NA+    NA+41745   1.765   9.265   2.326
77978NA+    NA+41746  20.636  24.018   2.359
77979NA+    NA+41747  29.979  43.957   4.674
77980NA+    NA+41748  40.006  40.396  14.853
77981NA+    NA+41749  37.516  25.153  12.085
77982NA+    NA+41750  41.344  38.025   3.803
77983NA+    NA+41751  42.336  10.841  10.475
77984NA+    NA+41752   0.450  37.541  14.342
77985NA+    NA+41753  26.090  18.729  12.835
77986NA+    NA+41754   6.287   2.265   2.768
77987NA+    NA+41755  42.905  40.014   0.453
77988NA+    NA+41756  39.832  23.518   0.315
77989NA+    NA+41757   5.308  11.799   1.446
77990NA+    NA+41758   4.267   8.347   1.443
77991NA+    NA+41759  11.626  38.064   1.328
77992NA+    NA+41760   2.859  43.348   2.215
77993NA+    NA+41761  38.070  10.750   3.177
77994NA+    NA+41762  23.113  40.346   4.337
77995NA+    NA+41763  30.953  34.915  13.342
77996NA+    NA+41764  11.849  23.684   2.294
77997NA+    NA+41765   5.775  44.467  10.924
77998NA+    NA+41766  10.764  25.681  14.958
77999NA+    NA+41767  14.820   2.427  13.852
78000NA+    NA+41768  19.050   7.711  14.784
78001NA+    NA+41769   0.852  36.436   2.840
78002NA+    NA+41770  42.787   9.161   3.791
78003NA+    NA+41771   2.263  44.454   2.812
78004NA+    NA+41772  23.189  16.779  13.047
78005NA+    NA+41773  35.038  42.510   2.880
78006NA+    NA+41774  29.109  30.503   3.262
78007NA+    NA+41775   1.288  32.455  11.967
78008NA+    NA+41776  14.157  29.590  10.944
78009NA+    NA+41777   5.376  13.320  12.423
78010NA+    NA+41778  28.460  37.075   4.620
78011NA+    NA+41779  36.982   0.743   3.341
78012NA+    NA+41780  44.772  31.609  14.010
78013NA+    NA+41781  25.587  32.431   9.550
78014NA+    NA+41782   4.232  22.625   4.637
78015NA+    NA+41783  40.318   4.416   2.235
78016NA+    NA+41784   2.851  31.939  11.066
78017NA+    NA+41785  24.671  29.424   1.269
78018NA+    NA+41786  17.298  16.254   2.207
78019NA+    NA+41787   8.883   9.281  14.331
78020NA+    NA+41788  16.740  28.992  12.937
78021NA+    NA+41789  40.532  34.070   2.282
78022NA+    NA+41790  30.150   9.382  14.516
78023NA+    NA+41791   2.460   0.330   3.752
78024NA+    NA+41792  10.851   0.424  10.890
78025NA+    NA+41793  33.445  26.041  12.568
78026NA+    NA+41794  42.028  13.801   4.709
78027NA+    NA+41795  12.746   8.768  10.065
78028NA+    NA+41796   4.718   5.888  14.782
78029NA+    NA+41797  10.675  12.801  12.567
78030NA+    NA+41798   5.438  20.093  10.494
78031NA+    NA+41799  21.675  35.410  11.017
78032NA+    NA+41800  18.561  22.720   3.257
78033NA+    NA+41801  26.511  37.858  12.385
78034NA+    NA+41802  42.398  10.792  12.354
78035NA+    NA+41803  20.140  41.828   0.819
78036NA+    NA+41804  35.911  25.059   1.336
78037NA+    NA+41805   6.423  21.242  10.468
78038NA+    NA+41806  15.594  38.342  12.349
78039NA+    NA+41807  41.936  23.549   2.685
78040NA+    NA+41808  11.252  29.958  11.546
78041NA+    NA+41809  17.224  19.117   1.240
78042NA+    NA+41810  22.057  44.802   4.616
78043NA+    NA+41811   5.371  14.274   1.393
78044NA+    NA+41812  32.046  25.712  13.318
78045NA+    NA+41813  14.312  34.599  11.886
78046NA+    NA+41814   7.860  43.777   1.772
78047NA+    NA+41815  14.108  16.237   2.722
78048NA+    NA+41816  35.885  40.856  13.848
78049NA+    NA+41817   0.883  35.913   3.834
78050NA+    NA+41818   1.850  29.157  10.447
78051NA+    NA+41819  36.926   0.961   4.798
78052NA+    NA+41820  13.209  44.809   1.838
78053NA+    NA+41821  19.552  24.044  14.779
78054NA+    NA+41822  41.865  21.616   3.668
78055NA+    NA+41823  17.787  38.909   2.754
78056NA+    NA+41824  18.181  36.052   9.934
78057NA+    NA+41825   1.859  43.009  13.857
78058NA+    NA+41826   4.440  19.123   1.866
78059NA+    NA+41827  22.118  43.853  10.515
78060NA+    NA+41828  27.624  15.298  13.499
78061NA+    NA+41829  42.487  27.041   0.246
78062NA+    NA+41830   9.677   0.823   0.379
78063NA+    NA+41831   2.902  28.680   2.265
78064NA+    NA+41832  18.055  24.492   1.925
78065NA+    NA+41833   9.721   7.688  14.306
78066NA+    NA+41834  27.136  25.613   4.640
78067NA+    NA+41835  31.074  43.290  13.953
78068NA+    NA+41836  11.660  11.174  12.861
78069NA+    NA+41837  26.606  31.981  10.550
78070NA+    NA+41838  18.582  29.026   3.183
78071NA+    NA+41839  30.069  23.130  13.053
78072NA+    NA+41840   1.885  26.106   0.476
78073NA+    NA+41841  12.214  15.746   4.817
78074NA+    NA+41842  15.813  38.547   2.677
78075NA+    NA+41843   9.248  19.574   0.330
78076NA+    NA+41844  29.526  17.255  10.992
78077NA+    NA+41845  31.971  15.209  10.461
78078NA+    NA+41846   5.865  29.100   1.258
78079NA+    NA+41847  40.031  40.437   3.180
78080NA+    NA+41848  22.618  29.590   1.229
78081NA+    NA+41849  12.705   2.876  11.589
78082NA+    NA+41850  19.736   8.292   3.805
78083NA+    NA+41851  42.946  36.027  10.895
78084NA+    NA+41852   0.473  15.109  11.483
78085NA+    NA+41853  16.617  20.527   1.341
78086NA+    NA+41854  18.172  21.595  13.875
78087NA+    NA+41855  28.499  10.145   4.689
78088NA+    NA+41856  21.618   5.756   4.128
78089NA+    NA+41857  14.105  12.773  12.884
78090NA+    NA+41858  16.581  17.244  14.031
78091NA+    NA+41859  11.274  17.128  14.001
78092NA+    NA+41860   3.294  36.949   3.378
78093NA+    NA+41861  20.700   1.821  14.772
78094NA+    NA+41862  12.154  10.841   3.185
78095NA+    NA+41863  15.620  33.537  14.304
78096NA+    NA+41864  12.624   7.687  11.961
78097NA+    NA+41865   6.830  39.018  12.911
78098NA+    NA+41866  26.176   2.933   1.292
78099NA+    NA+41867  43.494  42.404   4.682
78100NA+    NA+41868  29.628  11.295  14.793
78101NA+    NA+41869  40.537  41.033   3.316
78102NA+    NA+41870   4.764  28.094   0.329
78103NA+    NA+41871  11.644  33.891  10.929
78104NA+    NA+41872   6.338  34.963   3.825
78105NA+    NA+41873  29.995   6.750  11.914
78106NA+    NA+41874  26.194   6.725   3.155
78107NA+    NA+41875   0.749  27.683   1.874
78108NA+    NA+41876  24.524  32.126   2.260
78109NA+    NA+41877  13.676  39.408   0.476
78110NA+    NA+41878  28.975  38.001  12.458
78111NA+    NA+41879  13.679   5.197   2.402
78112NA+    NA+41880   2.909  22.192   2.892
78113NA+    NA+41881   6.343  16.307  13.333
78114NA+    NA+41882  14.755  22.221  10.556
78115NA+    NA+41883  12.271   3.902   2.797
78116NA+    NA+41884   3.403  23.587   4.814
78117NA+    NA+41885  18.788  26.532  13.876
78118NA+    NA+41886   0.856  14.180  12.063
78119NA+    NA+41887   8.783  29.571  13.474
78120NA+    NA+41888   0.425  18.294   1.771
78121NA+    NA+41889  41.483  44.767  11.581
78122NA+    NA+41890  20.059  42.500   3.186
78123NA+    NA+41891  40.485  32.430   1.782
78124NA+    NA+41892  17.108   2.280   1.302
78125NA+    NA+41893  19.052  10.647  13.045
78126NA+    NA+41894   9.387  41.395   3.386
78127NA+    NA+41895  27.574  26.118  12.843
78128NA+    NA+41896   5.253   6.309  12.467
78129NA+    NA+41897  23.594  31.531   4.598
78130NA+    NA+41898  39.477  11.696  12.522
78131NA+    NA+41899  26.069  39.505   4.830
78132NA+    NA+41900   1.749  43.325  14.278
78133NA+    NA+41901  29.650  23.526   2.754
78134NA+    NA+41902  22.581   9.655   3.241
78135NA+    NA+41903  37.913  12.756   1.760
78136NA+    NA+41904  35.527  21.169  11.539
78137NA+    NA+41905  19.719  20.669  11.078
78138NA+    NA+41906  38.467  44.003  10.900
78139NA+    NA+41907  44.331   6.272   3.851
78140NA+    NA+41908  12.327  36.444   3.765
78141NA+    NA+41909  34.976  27.122   4.622
78142NA+    NA+41910  12.688   4.220   4.303
78143NA+    NA+41911  10.809  42.407   0.842
78144NA+    NA+41912  10.844   7.320   2.264
78145NA+    NA+41913  41.863  27.531   2.323
78146NA+    NA+41914  23.044  10.219  10.145
78147NA+    NA+41915  38.956  31.489   1.903
78148NA+    NA+41916  40.470  31.487   0.832
78149NA+    NA+41917  15.689  40.493   2.737
78150NA+    NA+41918  24.092  34.040  12.020
78151NA+    NA+41919  42.981  14.203  12.413
78152NA+    NA+41920   6.282  36.993   0.754
78153NA+    NA+41921   5.713  13.689  11.522
78154NA+    NA+41922   2.351  13.699   2.712
78155NA+    NA+41923   9.658   6.726   2.848
78156NA+    NA+41924   9.729  20.741  12.074
78157NA+    NA+41925  11.640   0.902  13.897
78158NA+    NA+41926   3.433  32.128   1.266
78159NA+    NA+41927  15.801  39.344  12.446
78160NA+    NA+41928  42.855  26.700   3.308
78161NA+    NA+41929  26.535  33.951   1.792
78162NA+    NA+41930  38.045  18.211   1.274
78163NA+    NA+41931  36.010  33.967   3.241
78164NA+    NA+41932  12.360   9.375   0.848
78165NA+    NA+41933  25.179  38.534   4.223
78166NA+    NA+41934  28.984  14.759  14.959
78167NA+    NA+41935  19.641  32.536   0.350
78168NA+    NA+41936  17.594  15.593  12.466
78169NA+    NA+41937   0.373   7.236  14.992
78170NA+    NA+41938  10.730  42.825   3.660
78171NA+    NA+41939  10.279  36.562  11.402
78172NA+    NA+41940  33.950  10.807  14.778
78173NA+    NA+41941  24.564   0.971  13.364
78174NA+    NA+41942  29.618  38.830   0.840
78175NA+    NA+41943   5.724  24.530   0.856
78176NA+    NA+41944  24.636   4.713   2.251
78177NA+    NA+41945   4.854  42.281   3.838
78178NA+    NA+41946   5.273  33.507  12.875
78179NA+    NA+41947   1.252  42.932   3.761
78180NA+    NA+41948  33.588  18.088   1.212
78181NA+    NA+41949  23.691   1.404  14.857
78182NA+    NA+41950  40.979   8.203  11.549
78183NA+    NA+41951  41.534  39.391   0.812
78184NA+    NA+41952  34.547  13.171   4.215
78185NA+    NA+41953  41.813  14.681  11.866
78186NA+    NA+41954  15.799  44.396   0.846
78187NA+    NA+41955  19.135   9.750   2.380
78188NA+    NA+41956  41.375  43.443   4.649
78189NA+    NA+41957  13.781   8.304   0.942
78190NA+    NA+41958   2.382   9.783   4.770
78191NA+    NA+41959  17.631  17.208   2.762
78192NA+    NA+41960  35.496   8.729   0.457
78193NA+    NA+41961  26.554  22.141  11.914
78194NA+    NA+41962  38.328  11.282   2.414
78195NA+    NA+41963   3.246  26.579   4.770
78196NA+    NA+41964  24.149  41.325  12.559
78197NA+    NA+41965  33.565  17.729  14.328
78198NA+    NA+41966  37.354   9.301   2.195
78199NA+    NA+41967  12.129   4.219   4.251
78200NA+    NA+41968   0.389   3.300  14.372
78201NA+    NA+41969   8.736  27.454   3.348
78202NA+    NA+41970  20.240  27.646   3.313
78203NA+    NA+41971  29.987  42.933  14.435
78204NA+    NA+41972  35.578  37.493  11.041
78205NA+    NA+41973  28.567   1.254   2.717
78206NA+    NA+41974  41.821  31.412  12.031
78207NA+    NA+41975   1.927  28.440  12.476
78208NA+    NA+41976  27.019  40.305  13.314
78209NA+    NA+41977  19.100   3.746  12.860
78210NA+    NA+41978  30.590  43.879  13.923
78211NA+    NA+41979   5.346  43.776  14.428
78212NA+    NA+41980  34.002  22.127  10.432
78213NA+    NA+41981  22.682   7.194   1.755
78214NA+    NA+41982  19.137  36.882  13.505
78215NA+    NA+41983  14.671  18.549   4.168
78216NA+    NA+41984   2.848  37.453  13.016
78217NA+    NA+41985  20.033  19.605   2.756
78218NA+    NA+41986  35.526  40.360  12.368
78219NA+    NA+41987   1.899  42.815  14.485
78220NA+    NA+41988  28.554   0.487  13.458
78221NA+    NA+41989  16.627   0.806   1.352
78222NA+    NA+41990  28.059  34.894   3.149
78223NA+    NA+41991  12.657   3.286  11.383
78224NA+    NA+41992  42.781  10.693   3.308
78225NA+    NA+41993  24.230  39.938   3.866
78226NA+    NA+41994  17.260   3.348  14.922
78227NA+    NA+41995  34.437  21.621   1.375
78228NA+    NA+41996  44.407   8.719  12.990
78229NA+    NA+41997   1.917  35.538   2.863
78230NA+    NA+41998   1.321   9.149   3.813
78231NA+    NA+41999  15.752  15.673  12.997
78232NA+    NA+42000   2.337  28.118  12.036
78233NA+    NA+42001  42.500  15.687  11.929
78234NA+    NA+42002  28.062  41.828   4.616
78235NA+    NA+42003  13.734  29.535   3.706
78236NA+    NA+42004  26.701  21.706   4.695
78237NA+    NA+42005  10.720   1.257  11.605
78238NA+    NA+42006   2.940  39.437   2.848
78239NA+    NA+42007  39.023  40.961  12.398
78240NA+    NA+42008  34.372  44.296   0.847
78241NA+    NA+42009  23.617  29.661  14.382
78242NA+    NA+42010  21.140  21.583   3.318
78243NA+    NA+42011  41.444  35.023   0.852
78244NA+    NA+42012  30.072  35.567   3.165
78245NA+    NA+42013  25.139  13.142   4.240
78246NA+    NA+42014  18.746  12.338   3.349
78247CL-    CL-42015  32.461   0.908  13.895
78248CL-    CL-42016  42.878   9.263  13.811
78249CL-    CL-42017   3.923  14.197   3.174
78250CL-    CL-42018  16.229   6.206  14.308
78251CL-    CL-42019   1.738  29.931  12.846
78252CL-    CL-42020  43.314   1.953   5.108
78253CL-    CL-42021   0.279   5.402   3.348
78254CL-    CL-42022  39.507  31.421  12.431
78255CL-    CL-42023  30.958  16.171   0.749
78256CL-    CL-42024  36.070  24.544  12.377
78257CL-    CL-42025  15.736  29.023  10.530
78258CL-    CL-42026  12.825  13.728  12.031
78259CL-    CL-42027   4.434  37.545  14.337
78260CL-    CL-42028   5.435   4.859   1.719
78261CL-    CL-42029  29.668  15.658  14.907
78262CL-    CL-42030  13.328  42.354   3.285
78263CL-    CL-42031   5.928  37.885  13.812
78264CL-    CL-42032  33.038   0.969  11.473
78265CL-    CL-42033   6.784  34.063  10.568
78266CL-    CL-42034   8.818  14.723   0.770
78267CL-    CL-42035  26.134  32.542   9.993
78268CL-    CL-42036   5.752   8.720  13.370
78269CL-    CL-42037  26.115  13.826  12.066
78270CL-    CL-42038  28.500  26.612  14.955
78271CL-    CL-42039   5.795  13.259  13.503
78272CL-    CL-42040  33.952   4.381   0.314
78273CL-    CL-42041  33.053  44.455   2.353
78274CL-    CL-42042   6.282  16.089   2.292
78275CL-    CL-42043  22.642  14.214   2.285
78276CL-    CL-42044  10.856  43.390  10.507
78277CL-    CL-42045  41.461  41.795   3.234
78278CL-    CL-42046  23.551  24.072   4.667
78279CL-    CL-42047  29.077   7.394  12.509
78280CL-    CL-42048  36.938  28.171  12.572
78281CL-    CL-42049  33.062  34.038  12.927
78282CL-    CL-42050  33.895   0.464  11.077
78283CL-    CL-42051  34.973  27.641   1.410
78284CL-    CL-42052  27.994  20.688   2.811
78285CL-    CL-42053  42.836  20.663   0.845
78286CL-    CL-42054   6.374   8.713  11.890
78287CL-    CL-42055   7.856  25.011   3.233
78288CL-    CL-42056  40.997  14.760  11.933
78289CL-    CL-42057  31.593   4.701   3.211
78290CL-    CL-42058  38.968  21.139   2.711
78291CL-    CL-42059  44.427  40.038   3.761
78292CL-    CL-42060  12.641  31.427   3.379
78293CL-    CL-42061  28.465   0.806  14.798
78294CL-    CL-42062  39.817  10.767  10.615
78295CL-    CL-42063  16.654  15.753   1.697
78296CL-    CL-42064   0.900  42.875  11.447
78297CL-    CL-42065  35.988  13.643  11.391
78298CL-    CL-42066  41.502  41.535   0.409
78299CL-    CL-42067  25.604  32.578  10.568
78300CL-    CL-42068  37.863  22.545   0.310
78301CL-    CL-42069   5.242   0.451   3.694
78302CL-    CL-42070  32.906  16.257  13.882
78303CL-    CL-42071  11.347  36.071  13.859
78304CL-    CL-42072  33.512  33.543  11.861
78305CL-    CL-42073  37.359  14.764   4.154
78306CL-    CL-42074  42.994  43.805  12.447
78307CL-    CL-42075  37.017   1.742  11.451
78308CL-    CL-42076  30.468  35.570  11.402
78309CL-    CL-42077  35.480  29.078  11.937
78310CL-    CL-42078  17.597  14.720  11.044
78311CL-    CL-42079  10.190  23.658  14.464
78312CL-    CL-42080   8.785  44.830   3.267
78313CL-    CL-42081  17.082   6.414   5.314
78314CL-    CL-42082   8.766  36.954  12.567
78315CL-    CL-42083   7.313   3.363  12.494
78316CL-    CL-42084  30.429  26.096   4.195
78317CL-    CL-42085  37.036  39.064  13.327
78318CL-    CL-42086  28.175  42.397  11.022
78319CL-    CL-42087  34.597  12.654   4.707
78320CL-    CL-42088  41.468  31.617   3.267
78321CL-    CL-42089  33.384   8.389   4.738
78322CL-    CL-42090  17.621   9.384   0.770
78323CL-    CL-42091  40.841  27.636   0.396
78324CL-    CL-42092   3.331  38.555   0.814
78325CL-    CL-42093  22.660  21.074  12.005
78326CL-    CL-42094  25.975   7.201   4.222
78327CL-    CL-42095  12.721  31.039   3.243
78328CL-    CL-42096  16.702  28.639  12.514
78329CL-    CL-42097  36.359  43.393   2.885
78330CL-    CL-42098  18.595  30.921   0.885
78331CL-    CL-42099   4.277  22.660   4.160
78332CL-    CL-42100  43.355  17.736   4.336
78333CL-    CL-42101   9.236  25.656   0.406
78334CL-    CL-42102   9.816  23.040  11.862
78335CL-    CL-42103  40.981  43.952  13.531
78336CL-    CL-42104  16.787   0.473   1.844
78337CL-    CL-42105  30.519  36.894   0.842
78338CL-    CL-42106   3.317  43.007   4.222
78339CL-    CL-42107   1.304   6.220   4.241
78340CL-    CL-42108  12.807  28.473   0.757
78341CL-    CL-42109  41.464  11.680   3.693
78342CL-    CL-42110  32.983  18.098  13.972
78343CL-    CL-42111   8.246  43.858   0.309
78344CL-    CL-42112  26.521  44.476  14.939
78345CL-    CL-42113  10.323  14.107  13.987
78346CL-    CL-42114  12.165  15.200  12.018
78347CL-    CL-42115   6.811  32.964   4.118
78348CL-    CL-42116  43.487   8.187  14.976
78349CL-    CL-42117  19.209  20.597  12.008
78350CL-    CL-42118  26.177  18.568   0.906
78351CL-    CL-42119  39.369  39.489  14.840
78352CL-    CL-42120  27.189  28.015  13.470
78353CL-    CL-42121  14.318  43.298   2.833
78354CL-    CL-42122  15.304   8.680   3.306
78355CL-    CL-42123   7.254   9.178  11.606
78356CL-    CL-42124  14.775  42.415   2.347
78357CL-    CL-42125   0.266  40.841  12.515
78358CL-    CL-42126   5.851  39.952  12.429
78359CL-    CL-42127  27.064  15.707  11.592
78360CL-    CL-42128  26.131  40.484   0.368
78361CL-    CL-42129  40.916  43.877   3.158
78362CL-    CL-42130   2.936   4.866  12.903
78363CL-    CL-42131  28.534  17.118  10.438
78364CL-    CL-42132  39.341  22.633  13.805
78365CL-    CL-42133  40.331  12.726  11.434
78366CL-    CL-42134  35.972  31.064  11.410
78367CL-    CL-42135  15.221  12.290  11.470
78368CL-    CL-42136   0.756   3.711  12.067
78369CL-    CL-42137   1.923  15.587  14.416
78370CL-    CL-42138  42.295  31.951  14.845
78371CL-    CL-42139   5.308  23.626   0.448
78372CL-    CL-42140  30.104  29.499   2.406
78373CL-    CL-42141  44.426  23.502  10.936
78374CL-    CL-42142   1.833  25.579  12.846
78375CL-    CL-42143   9.283  15.218  11.373
78376CL-    CL-42144  17.278  31.052  14.856
78377CL-    CL-42145  39.547   5.816  14.508
78378CL-    CL-42146  33.084   9.710  13.880
78379CL-    CL-42147  29.993  16.299  10.446
78380CL-    CL-42148  42.983  43.910   1.370
78381CL-    CL-42149  43.951  38.478  12.412
78382CL-    CL-42150  43.284  23.056   0.845
78383CL-    CL-42151  37.898  32.496   0.837
78384CL-    CL-42152  22.170  22.087   0.408
78385CL-    CL-42153   5.287  23.221   2.809
78386CL-    CL-42154   2.419  20.699   2.256
78387CL-    CL-42155  38.836  17.621   2.813
78388CL-    CL-42156   3.260  19.274   4.193
78389CL-    CL-42157  25.100  15.086  12.480
78390CL-    CL-42158  27.448  26.185  13.489
78391CL-    CL-42159   4.356   1.917  10.641
78392CL-    CL-42160  17.739  30.517  11.499
78393CL-    CL-42161  13.170  44.821  14.339
78394CL-    CL-42162   0.299  22.998  13.373
78395CL-    CL-42163  42.311  36.063  14.887
78396CL-    CL-42164  11.695  23.127   2.408
78397CL-    CL-42165  13.144  18.770  13.497
78398CL-    CL-42166   5.691  43.464   4.783
78399CL-    CL-42167   3.955  38.913   0.802
78400CL-    CL-42168  25.062  30.082   0.252
78401CL-    CL-42169  14.321  19.640  10.041
78402CL-    CL-42170  40.325  36.921   1.344
78403CL-    CL-42171  12.702  30.585   4.312
78404CL-    CL-42172  38.936  36.376  12.056
78405CL-    CL-42173   4.766   8.389   3.812
78406CL-    CL-42174   5.838   7.780  13.947
78407CL-    CL-42175  30.050  15.640   1.436
78408CL-    CL-42176  41.790   5.907   3.237
78409CL-    CL-42177   9.745  27.532  11.934
78410CL-    CL-42178   2.348   1.887  14.877
78411CL-    CL-42179  23.524  36.876  11.049
78412CL-    CL-42180  39.443  25.611  12.551
78413CL-    CL-42181  31.077  38.016   3.266
78414CL-    CL-42182  40.348   2.818  14.942
78415CL-    CL-42183  35.511  10.163  14.313
78416CL-    CL-42184  23.082  16.112   4.782
78417CL-    CL-42185   6.842   0.361  12.029
78418CL-    CL-42186  16.116  41.988   3.720
78419CL-    CL-42187  14.796  34.113   0.347
78420CL-    CL-42188  39.945  13.190  12.344
78421CL-    CL-42189  11.154   6.782   0.858
78422CL-    CL-42190  15.108   1.913  10.938
78423CL-    CL-42191  20.560  42.825  11.046
78424CL-    CL-42192  44.868  23.560  13.359
78425CL-    CL-42193  36.854   7.761  14.871
78426CL-    CL-42194  32.527  13.824   3.284
78427CL-    CL-42195  17.218  41.800  14.760
78428CL-    CL-42196  30.485  28.466  11.894
78429CL-    CL-42197  10.756   9.222  13.034
78430CL-    CL-42198  31.971  10.758   4.227
78431CL-    CL-42199   6.685  21.675   2.850
78432CL-    CL-42200  19.060  27.548   1.823
78433CL-    CL-42201  16.750  12.157   1.278
78434CL-    CL-42202  30.013  13.844  12.529
78435CL-    CL-42203  38.339  24.189  14.905
78436CL-    CL-42204  43.444  10.789   1.908
78437CL-    CL-42205  25.150  20.159  11.604
78438CL-    CL-42206  28.601  38.570   0.951
78439CL-    CL-42207  26.107  37.548   1.755
78440CL-    CL-42208  27.617  10.797  12.013
78441CL-    CL-42209  34.543  20.634   0.841
78442CL-    CL-42210  28.058  25.137  13.946
78443CL-    CL-42211  15.693   1.321  13.058
78444CL-    CL-42212  21.203  21.128  14.323
78445CL-    CL-42213  37.535  41.429  14.330
78446CL-    CL-42214  38.843  39.065   2.875
78447CL-    CL-42215   5.395   9.200   2.805
78448CL-    CL-42216  33.450  16.567  13.972
78449CL-    CL-42217  36.941  34.463  14.948
78450CL-    CL-42218  26.565  36.431  13.844
78451CL-    CL-42219   4.829  35.933  14.507
78452CL-    CL-42220  43.509  16.682  12.857
78453CL-    CL-42221   1.928  26.539  12.938
78454CL-    CL-42222  13.308  34.877   2.789
78455CL-    CL-42223  39.367  40.832   4.324
78456CL-    CL-42224  29.447  16.241  13.884
78457CL-    CL-42225   3.918   1.833  14.793
78458CL-    CL-42226  33.458  24.609  10.453
78459CL-    CL-42227  24.613   8.710  10.599
78460CL-    CL-42228  30.990  39.558  12.915
78461CL-    CL-42229  25.691  44.928   0.246
78462CL-    CL-42230  24.045   1.807   9.970
78463CL-    CL-42231  40.903   2.318   0.885
78464CL-    CL-42232  41.837  42.463   4.118
78465CL-    CL-42233  21.705   4.245   4.648
78466CL-    CL-42234  29.488  23.508  12.553
78467CL-    CL-42235  15.119  12.322   2.184
78468CL-    CL-42236  21.730  41.427   4.164
78469CL-    CL-42237   8.847  22.521  14.978
78470CL-    CL-42238  16.226  12.350   3.768
78471CL-    CL-42239  16.233   3.217   2.270
78472CL-    CL-42240  19.695  37.532  10.438
78473CL-    CL-42241  18.549  22.128   0.826
78474CL-    CL-42242  44.787  18.207   0.798
78475CL-    CL-42243  37.841  17.775   1.322
78476CL-    CL-42244  23.628   9.755  11.880
78477CL-    CL-42245  22.627  23.185   3.376
78478CL-    CL-42246   9.819  26.091  12.967
78479CL-    CL-42247   4.764  32.484   3.819
78480CL-    CL-42248  19.108  28.527   1.259
78481CL-    CL-42249  19.651  25.507  13.940
78482CL-    CL-42250   7.791  35.569   2.183
78483CL-    CL-42251  39.869  31.474  12.092
78484CL-    CL-42252  30.471   3.714  12.887
78485CL-    CL-42253  40.896   9.651  14.782
78486CL-    CL-42254   6.710  33.919  13.461
78487CL-    CL-42255   2.366   0.253  10.547
78488CL-    CL-42256   8.216   6.322  14.360
78489CL-    CL-42257  11.374   0.978   4.186
78490CL-    CL-42258  33.914  17.171  12.983
78491CL-    CL-42259  42.911  25.640  14.014
78492CL-    CL-42260  14.781  20.157   0.853
78493CL-    CL-42261   3.916   5.844   2.190
78494CL-    CL-42262   2.239  17.783  12.040
78495CL-    CL-42263  16.110   7.285   5.265
78496CL-    CL-42264  26.984  22.650   3.672
78497CL-    CL-42265  42.925  31.101   1.421
78498CL-    CL-42266  20.242  24.722   1.344
78499CL-    CL-42267  40.324  37.510  13.962
78500CL-    CL-42268  32.443   3.292   4.324
78501CL-    CL-42269   5.885  22.587   2.784
78502CL-    CL-42270  14.696  29.071  11.907
78503CL-    CL-42271   2.341  22.578  13.020
78504CL-    CL-42272   4.875   6.866   4.353
78505CL-    CL-42273   2.858  11.221   4.794
78506CL-    CL-42274   8.728  23.671  14.877
78507CL-    CL-42275  10.686  41.812  13.353
78508CL-    CL-42276  43.930  11.677  11.862
78509CL-    CL-42277  42.010  32.088   3.680
78510CL-    CL-42278  16.141  44.377   1.417
78511CL-    CL-42279  28.142  11.277  11.443
78512CL-    CL-42280  16.286  13.831  12.511
78513CL-    CL-42281  35.872  31.532   2.780
78514CL-    CL-42282  18.729  19.131   5.289
78515CL-    CL-42283  34.452  19.692   1.824
78516CL-    CL-42284  26.099  33.499  14.494
78517CL-    CL-42285  23.501  38.915   2.670
78518CL-    CL-42286   9.163  21.597  14.434
78519CL-    CL-42287   1.414   2.352  12.526
78520CL-    CL-42288   1.483  40.974   2.847
78521CL-    CL-42289  22.713  24.994   2.302
78522CL-    CL-42290  19.240  16.667  14.916
78523CL-    CL-42291  26.496  28.534   4.737
78524CL-    CL-42292  40.426   6.283   0.271
78525CL-    CL-42293  27.522  23.692  13.328
78526CL-    CL-42294  26.639   5.371   2.230
78527CL-    CL-42295   4.876  20.235   0.350
78528CL-    CL-42296  24.152  34.434   3.207
78529CL-    CL-42297  24.083  11.750   1.339
78530CL-    CL-42298  38.840  14.141  10.055
78531CL-    CL-42299  13.158  44.489  11.476
78532CL-    CL-42300  36.409   7.213   1.345
78533CL-    CL-42301   2.767  38.343   2.354
78534CL-    CL-42302  12.663  27.978   4.219
78535CL-    CL-42303  38.942  10.686   4.302
78536CL-    CL-42304  30.940   0.250   3.745
78537CL-    CL-42305  28.649  34.553   5.185
78538CL-    CL-42306  29.156  13.840   4.598
78539CL-    CL-42307  16.211  33.458   4.761
78540CL-    CL-42308  10.353  19.192  12.905
78541CL-    CL-42309  18.550   5.890   3.832
78542CL-    CL-42310  32.492  14.285   4.683
78543CL-    CL-42311   3.798  20.713  14.979
78544CL-    CL-42312  13.779  36.382   2.784
78545CL-    CL-42313   4.840   7.212   2.339
78546CL-    CL-42314  44.445  40.874   1.788
78547CL-    CL-42315  18.670  25.133  12.567
78548CL-    CL-42316  38.571  39.381   4.796
78549CL-    CL-42317  34.556  39.905   1.910
78550CL-    CL-42318  17.235  44.935  13.429
78551CL-    CL-42319   4.226  43.317   2.860
78552CL-    CL-42320   7.817   4.760   1.826
78553CL-    CL-42321  41.404  25.656   1.350
78554CL-    CL-42322  44.277  18.756  10.546
78555CL-    CL-42323  38.876  30.953  11.014
78556CL-    CL-42324  33.623  23.509  10.636
78557CL-    CL-42325  22.529  23.114   1.910
78558CL-    CL-42326  15.236  34.512  13.825
78559CL-    CL-42327  19.712  37.976   2.371
78560CL-    CL-42328  32.997   2.770   4.191
78561CL-    CL-42329  12.275  18.281   0.791
78562CL-    CL-42330   7.887  44.469  10.061
78563CL-    CL-42331  13.293  27.685   0.871
78564CL-    CL-42332  14.777  35.568  13.846
78565CL-    CL-42333   7.180  39.541  14.280
78566CL-    CL-42334  42.004  16.191   3.642
78567CL-    CL-42335  25.999  36.542  13.932
78568CL-    CL-42336  44.353  30.918  13.395
78569CL-    CL-42337  41.821  42.468   1.211
78570CL-    CL-42338  31.958  39.997   2.237
78571CL-    CL-42339   8.173  35.033  13.492
78572CL-    CL-42340   4.239  11.177  14.981
78573CL-    CL-42341  38.829   6.796   5.179
78574CL-    CL-42342  17.282  30.489   1.446
78575CL-    CL-42343   1.934   7.184   3.151
78576CL-    CL-42344  42.999   3.757   2.746
78577CL-    CL-42345  38.502  31.902   4.140
78578CL-    CL-42346  32.105   0.874  10.505
78579CL-    CL-42347  15.780  42.458   0.770
78580CL-    CL-42348   5.399  40.826  14.331
78581CL-    CL-42349  20.052  22.998   1.871
78582CL-    CL-42350  41.444  44.334   2.729
78583CL-    CL-42351  32.617  32.456   4.749
78584CL-    CL-42352  32.588  33.917   3.683
78585CL-    CL-42353   0.930  30.991   1.815
78586CL-    CL-42354  19.281   4.808  14.972
78587CL-    CL-42355   0.763  44.789   0.444
78588CL-    CL-42356  33.404   7.720   0.325
78589CL-    CL-42357  32.468  23.593   3.683
78590CL-    CL-42358  30.944  31.449  14.998
78591CL-    CL-42359   1.368  13.218  11.568
78592CL-    CL-42360  22.664  17.647   3.278
78593CL-    CL-42361  14.272  12.784   2.266
78594CL-    CL-42362  23.547  19.262  10.550
78595CL-    CL-42363   4.307   7.799  14.895
78596CL-    CL-42364  29.557   3.947   3.755
78597CL-    CL-42365  10.759  10.652  14.461
78598CL-    CL-42366  22.153  10.190   2.265
78599CL-    CL-42367  39.479  12.135   4.694
78600CL-    CL-42368  14.304   2.435  13.433
78601CL-    CL-42369  40.375  29.493  13.055
78602CL-    CL-42370  10.258  20.098   4.163
78603CL-    CL-42371  41.366  26.611   2.310
78604CL-    CL-42372  25.188  36.919  10.488
78605CL-    CL-42373   6.321   8.834  14.840
78606CL-    CL-42374  27.499   8.241   4.193
78607CL-    CL-42375  36.916  24.220  14.458
78608CL-    CL-42376   2.883  18.736  13.992
78609CL-    CL-42377   3.321  22.129  10.463
78610CL-    CL-42378   1.736   0.345  12.355
78611CL-    CL-42379  12.846   6.224   3.308
78612CL-    CL-42380  21.756  42.500   4.684
78613CL-    CL-42381   1.971  30.554  14.795
78614CL-    CL-42382  11.276  28.170  14.313
78615CL-    CL-42383   1.947  37.529   4.760
78616CL-    CL-42384  44.350  20.230  11.013
78617CL-    CL-42385  31.469  19.649   0.824
78618CL-    CL-42386  11.733   7.837   1.814
78619CL-    CL-42387  10.233  24.722  10.460
78620CL-    CL-42388  13.705  33.113  12.094
78621CL-    CL-42389  16.759  41.462  12.863
78622CL-    CL-42390  21.511  39.439  11.083
78623CL-    CL-42391   5.376  43.973  12.018
78624CL-    CL-42392  25.641   3.454   3.274
78625CL-    CL-42393   3.216  37.482   3.851
78626CL-    CL-42394  13.765  39.012  14.804
78627CL-    CL-42395  11.221  16.182  14.439
78628CL-    CL-42396  21.523   8.292   2.367
78629CL-    CL-42397  29.932  37.948   0.807
78630CL-    CL-42398  43.283  13.253   0.730
78631CL-    CL-42399  43.779  14.272   2.684
78632CL-    CL-42400  22.565  40.001   0.755
78633CL-    CL-42401  14.320   4.243  13.876
78634CL-    CL-42402   4.260  40.503  12.949
78635CL-    CL-42403  44.765  43.288   0.810
78636CL-    CL-42404  20.247  21.176   9.941
78637CL-    CL-42405  39.448  32.126  12.005
78638CL-    CL-42406   6.911  23.597   3.824
78639CL-    CL-42407  32.514  34.596  13.404
78640CL-    CL-42408  40.948  43.415   1.768
78641CL-    CL-42409   1.875  18.189   4.155
78642CL-    CL-42410  27.075   6.303  12.378
78643CL-    CL-42411  28.646   8.269  11.882
78644CL-    CL-42412   7.324  30.099   0.847
78645CL-    CL-42413  26.678  37.515  14.819
78646CL-    CL-42414  36.458   8.231   2.799
78647CL-    CL-42415   0.887  10.674   0.425
78648CL-    CL-42416  20.140  42.975   1.788
78649CL-    CL-42417   3.318   1.855   0.810
78650CL-    CL-42418  20.745  22.520   0.848
78651CL-    CL-42419   4.398  34.977   3.851
78652CL-    CL-42420  30.519  33.585  12.477
78653CL-    CL-42421  21.541  28.930   2.818
78654CL-    CL-42422  34.382  14.728  12.376
78655CL-    CL-42423  33.436  24.551  14.437
78656CL-    CL-42424  37.490   4.255   2.874
78657CL-    CL-42425  40.305  33.506   1.234
78658CL-    CL-42426  28.174  29.002  12.576
78659CL-    CL-42427  13.821  12.228   0.313
78660CL-    CL-42428   9.283  41.937  12.053
78661CL-    CL-42429  38.880  24.482   1.286
78662CL-    CL-42430  15.140  40.492  12.381
78663CL-    CL-42431  43.270  38.334   4.801
78664CL-    CL-42432  14.637  14.616  10.424
78665CL-    CL-42433  43.937  44.292  13.902
78666CL-    CL-42434  31.983  44.961  13.542
78667CL-    CL-42435  16.604  17.084   0.855
78668CL-    CL-42436  16.764  35.936  14.773
78669CL-    CL-42437  20.617  30.030   4.638
78670CL-    CL-42438   7.726   8.315   1.240
78671CL-    CL-42439  20.528  35.429  13.958
78672CL-    CL-42440  36.096  20.212   4.640
78673CL-    CL-42441   5.722  17.742   3.799
78674CL-    CL-42442  11.861  26.626  11.128
78675CL-    CL-42443   4.900  26.133  11.380
78676CL-    CL-42444   6.882  10.339  12.562
78677CL-    CL-42445   5.339   1.428  13.467
78678CL-    CL-42446  15.763  36.062  13.313
78679CL-    CL-42447   9.678  39.367  14.927
78680CL-    CL-42448   2.806   6.248  13.445
78681CL-    CL-42449   8.177  42.846   0.365
78682CL-    CL-42450  24.194  38.926  13.347
78683CL-    CL-42451  37.903  32.529  11.040
78684CL-    CL-42452  27.597   6.223  14.031
78685CL-    CL-42453  10.200  24.592  11.550
78686CL-    CL-42454  34.096  40.902  14.902
78687CL-    CL-42455  12.118  15.644  11.483
78688CL-    CL-42456  12.300  14.269   4.766
78689CL-    CL-42457  44.772  29.429   3.331
78690CL-    CL-42458   5.883   0.837  11.966
78691CL-    CL-42459  40.014  24.141  14.798
78692CL-    CL-42460   7.687  34.980  14.782
78693CL-    CL-42461  10.317  22.568   4.191
78694CL-    CL-42462  29.582  26.598   4.307
78695CL-    CL-42463  18.108   5.922   1.795
78696CL-    CL-42464  34.116  32.576   3.734
78697CL-    CL-42465  37.034  34.403  14.434
78698CL-    CL-42466  41.512  40.988   2.379
78699CL-    CL-42467  21.714  37.004   1.339
78700CL-    CL-42468   7.672   2.279   3.328
78701CL-    CL-42469   8.718   6.263  13.890
78702CL-    CL-42470  27.074  43.968   0.483
78703CL-    CL-42471   9.875  14.148  12.078
78704CL-    CL-42472  11.161  42.849   4.597
78705CL-    CL-42473  32.901  42.473   3.341
78706CL-    CL-42474  23.565  19.587  12.038
78707CL-    CL-42475  25.630  22.606  11.947
78708CL-    CL-42476  40.905  14.331  13.926
78709CL-    CL-42477  42.458  15.135   1.412
78710CL-    CL-42478   8.807   4.408   3.789
78711CL-    CL-42479  26.046  13.678   0.890
78712CL-    CL-42480  35.004  31.430   1.232
78713CL-    CL-42481  16.262  16.615   4.742
78714CL-    CL-42482  20.269   1.426   3.148
78715CL-    CL-42483  15.250  32.074   3.785
78716CL-    CL-42484  30.937   6.397  14.012
78717CL-    CL-42485  40.895  34.530  12.417
78718CL-    CL-42486   8.672  35.538   2.415
78719CL-    CL-42487  43.779   7.203   4.311
78720CL-    CL-42488  24.222  19.172   3.751
78721CL-    CL-42489  33.405  41.022  11.123
78722CL-    CL-42490  16.657  22.086   3.746
78723CL-    CL-42491   8.396  13.273   1.714
78724CL-    CL-42492   0.365  41.029   0.726
78725CL-    CL-42493   0.787  40.848   3.371
78726CL-    CL-42494  12.244  16.792   1.878
78727CL-    CL-42495  12.793  31.020   0.261
78728CL-    CL-42496  33.448  40.497  10.980
78729CL-    CL-42497  39.915  12.832  10.586
78730CL-    CL-42498  20.737  27.178   4.246
78731CL-    CL-42499  33.018  24.659  13.834
78732CL-    CL-42500  21.729  33.408   0.769
78733CL-    CL-42501  44.927  38.435   2.342
78734CL-    CL-42502  13.235  27.449   4.305
78735CL-    CL-42503  40.360  30.156  13.421
78736CL-    CL-42504  14.778  36.395   3.790
78737CL-    CL-42505  11.295  29.989  10.418
78738CL-    CL-42506   7.779   6.406   3.322
78739CL-    CL-42507  32.598  38.414   2.819
78740CL-    CL-42508  23.210  16.790  11.983
78741CL-    CL-42509  38.485  36.576   2.406
78742CL-    CL-42510  44.884  42.414  14.436
78743CL-    CL-42511  44.972  21.174   2.678
78744CL-    CL-42512  16.674  39.314  13.469
78745CL-    CL-42513   7.852  26.159  14.783
78746CL-    CL-42514  10.705  19.710  14.959
78747CL-    CL-42515  34.925  27.166  12.940
78748CL-    CL-42516  20.668   7.897  14.454
78749CL-    CL-42517  23.502  29.471   1.338
78750CL-    CL-42518   4.370  19.731   2.740
78751CL-    CL-42519  40.884   0.904  12.853
78752CL-    CL-42520   7.266   4.811   1.820
78753CL-    CL-42521  26.643  34.431   2.713
78754CL-    CL-42522  39.494  31.569   1.722
78755CL-    CL-42523  13.824  19.057  14.983
78756CL-    CL-42524  22.013   8.663  12.570
78757CL-    CL-42525  34.459  36.846  14.844
78758CL-    CL-42526  15.244   3.879   3.147
78759CL-    CL-42527  24.221  18.719  13.927
78760CL-    CL-42528  14.326  36.846   2.193
78761CL-    CL-42529   9.313  14.733   1.236
78762CL-    CL-42530  27.092  22.513  13.877
78763CL-    CL-42531  30.024  30.022   0.428
78764CL-    CL-42532  35.079   2.836  14.013
78765CL-    CL-42533  11.213   1.824   0.476
78766CL-    CL-42534  20.179  16.617   2.778
78767CL-    CL-42535  31.587  34.114  13.499
78768CL-    CL-42536  26.956  24.206  10.420
78769CL-    CL-42537  16.746  41.344  12.392
78770CL-    CL-42538  32.603  39.442   3.637
78771CL-    CL-42539  39.467  26.101   3.175
78772CL-    CL-42540  13.197  38.398  12.973
78773CL-    CL-42541  18.721  17.171  10.995
78774CL-    CL-42542  35.891  43.962  14.491
78775CL-    CL-42543  41.315  20.565   0.966
78776CL-    CL-42544  41.310   0.851   3.181
78777CL-    CL-42545  37.965  16.175   2.746
78778CL-    CL-42546  15.765  40.397  14.479
78779CL-    CL-42547  15.273   3.441  12.502
78780CL-    CL-42548  17.164  28.929   0.378
78781CL-    CL-42549  15.319  32.051  14.317
78782CL-    CL-42550  21.533  40.930   4.762
78783CL-    CL-42551  17.256  31.453  14.796
78784CL-    CL-42552   2.772   4.877   1.749
78785CL-    CL-42553   2.344   9.649   2.881
78786CL-    CL-42554  28.002  14.633   1.449
78787CL-    CL-42555  21.641  23.063  11.589
78788CL-    CL-42556  30.430  14.127   0.472
78789CL-    CL-42557   8.832  42.877  10.607
78790CL-    CL-42558  34.471  12.244  11.090
78791CL-    CL-42559  17.664  24.565   3.184
78792CL-    CL-42560  41.346  38.931   3.145
78793CL-    CL-42561  25.621  41.856  13.848
78794CL-    CL-42562  24.640   2.729   0.452
78795CL-    CL-42563  41.871  43.371   2.191
78796CL-    CL-42564   5.749  31.139  11.931
78797CL-    CL-42565   6.336  28.498  10.586
78798CL-    CL-42566  12.131   5.290   1.932
78799CL-    CL-42567  37.472  25.498  11.373
78800CL-    CL-42568  13.600  20.618   0.482
78801CL-    CL-42569   5.254  12.748   2.724
78802CL-    CL-42570  28.504  26.956   1.790
78803CL-    CL-42571  39.063   1.422  11.860
78804CL-    CL-42572  40.342   2.738  13.540
78805CL-    CL-42573  21.682   6.791   0.339
78806CL-    CL-42574  24.022  21.192   2.808
78807CL-    CL-42575  27.468  28.173  11.503
78808CL-    CL-42576  39.968  20.213  11.108
78809CL-    CL-42577  42.972  34.474  12.520
78810CL-    CL-42578  41.852  30.590   1.905
78811CL-    CL-42579  11.725  29.537   3.176
78812CL-    CL-42580  42.523  12.733   1.401
78813CL-    CL-42581  37.999  28.632  10.948
78814CL-    CL-42582  11.640  16.237  13.485
78815CL-    CL-42583   1.426  16.273   1.393
78816CL-    CL-42584  36.849  13.156   0.425
78817CL-    CL-42585  31.490  20.536   3.743
78818CL-    CL-42586  11.139  26.032   2.711
78819CL-    CL-42587  24.690   0.821   0.260
78820CL-    CL-42588   9.726  26.588  13.988
78821CL-    CL-42589  38.913  38.482   3.178
78822CL-    CL-42590  22.218  11.773   3.638
78823CL-    CL-42591  24.985  17.130   1.806
78824CL-    CL-42592  17.240   8.805   2.282
78825CL-    CL-42593  34.414  26.081  11.060
78826CL-    CL-42594  10.299   1.825   1.409
78827CL-    CL-42595  17.174  26.673  14.448
78828CL-    CL-42596  18.080  27.520  12.944
78829CL-    CL-42597  39.415  30.575   2.731
78830CL-    CL-42598  11.183  29.158   3.238
78831CL-    CL-42599  43.420   2.458   1.817
78832CL-    CL-42600   5.754  44.849  12.377
78833CL-    CL-42601  10.270   2.320  11.003
78834CL-    CL-42602  13.816  25.505  12.499
78835CL-    CL-42603  35.014  11.297   2.212
78836CL-    CL-42604   5.719  36.448  14.381
78837CL-    CL-42605   7.680  24.625   4.352
78838CL-    CL-42606   9.367  29.574   3.721
78839CL-    CL-42607  14.291  16.633  12.349
78840CL-    CL-42608  17.137  29.482  11.129
78841CL-    CL-42609  35.546  18.114   0.467
78842CL-    CL-42610  28.050  18.281  11.896
78843CL-    CL-42611  22.655  25.066  10.458
78844CL-    CL-42612  18.260  15.201  13.546
78845CL-    CL-42613  25.084  14.782  11.514
78846CL-    CL-42614  28.617  22.649   0.248
78847CL-    CL-42615   1.294  22.617   4.341
78848CL-    CL-42616  35.100  40.501   4.737
78849CL-    CL-42617  10.807  18.665   4.660
78850CL-    CL-42618  21.052   3.801  14.998
78851CL-    CL-42619  12.305  42.950   3.376
78852CL-    CL-42620   1.868  24.673  11.022
78853CL-    CL-42621  42.964  26.991  13.830
78854CL-    CL-42622  21.598  30.086  13.510
78855CL-    CL-42623   8.360  36.457   2.406
78856CL-    CL-42624  18.091  34.006  10.952
78857CL-    CL-42625  10.768   6.341   0.269
78858CL-    CL-42626  35.448  38.957  14.429
78859CL-    CL-42627  10.731  17.283   0.453
78860CL-    CL-42628  43.972   6.896   0.795
78861CL-    CL-42629  10.797   9.237  11.075
78862CL-    CL-42630  41.525  33.413   4.203
78863CL-    CL-42631  22.706  43.935   0.390
78864CL-    CL-42632  30.570  10.724  11.894
78865CL-    CL-42633   8.162  38.571   3.864
78866CL-    CL-42634   4.809  23.011   0.266
78867CL-    CL-42635  24.101   1.363  12.943
78868CL-    CL-42636  11.667  13.771   3.857
78869CL-    CL-42637  11.171  28.467  12.417
78870CL-    CL-42638  41.428  15.617  14.404
78871CL-    CL-42639  18.788  39.335   1.309
78872CL-    CL-42640  11.281  42.467   2.847
78873CL-    CL-42641  27.042  32.117  13.473
78874CL-    CL-42642   4.240  37.368   4.203
78875CL-    CL-42643  24.017  43.795  12.925
78876CL-    CL-42644  29.160  16.099  12.905
78877CL-    CL-42645  30.512   2.295  14.382
78878CL-    CL-42646  39.392  21.087   2.865
78879CL-    CL-42647  13.667  22.235   0.944
78880CL-    CL-42648  10.326  15.742  10.942
78881CL-    CL-42649   5.387   2.326  13.016
78882CL-    CL-42650  41.529  21.244   1.331
78883CL-    CL-42651  14.097  17.296   5.574
78884CL-    CL-42652  21.559   1.804   5.119
78885CL-    CL-42653  32.026   1.924   2.683
78886CL-    CL-42654  18.249  25.512   4.780
78887CL-    CL-42655   5.705   8.675   1.892
78888CL-    CL-42656  37.471  44.352   2.247
78889CL-    CL-42657  28.456  28.073  11.938
78890CL-    CL-42658  43.998  41.436   0.790
78891CL-    CL-42659   0.249   8.200  12.359
78892CL-    CL-42660  16.169  22.105   4.759
78893CL-    CL-42661   6.250  30.448  11.499
78894CL-    CL-42662  29.527  38.406  11.472
78895CL-    CL-42663  20.757   6.785  11.605
78896CL-    CL-42664  41.878   1.314  12.863
78897CL-    CL-42665  40.525   4.280   0.828
78898CL-    CL-42666  34.931   2.965   4.653
78899CL-    CL-42667  11.831  22.571   1.908
78900CL-    CL-42668   2.291  14.794  12.864
78901CL-    CL-42669  34.990   0.841   1.845
78902CL-    CL-42670  11.810   1.742  10.082
78903CL-    CL-42671  29.644   1.773   4.252
78904CL-    CL-42672  40.935  30.645   1.376
78905CL-    CL-42673  13.274  27.447  12.986
78906CL-    CL-42674  18.182  16.275  12.488
78907CL-    CL-42675   6.188  35.922   4.145
78908CL-    CL-42676  32.496  14.606  13.815
78909CL-    CL-42677  18.676  36.969  14.897
78910CL-    CL-42678  23.226  13.633   2.698
78911CL-    CL-42679  41.994  11.670  13.863
78912CL-    CL-42680   3.297  32.952  13.345
78913CL-    CL-42681  28.068  11.206  12.970
78914CL-    CL-42682  40.400  19.229   0.768
78915CL-    CL-42683  22.512  32.922   2.288
78916CL-    CL-42684  35.933   4.419  10.985
78917CL-    CL-42685   3.285  17.187   0.750
78918CL-    CL-42686  29.170  19.761  14.298
78919CL-    CL-42687  28.605  38.480  10.457
78920CL-    CL-42688  23.198  11.218  10.589
78921CL-    CL-42689  43.956  14.317   4.734
78922CL-    CL-42690   4.321  41.506  12.433
78923CL-    CL-42691  30.625  26.465  14.017
78924CL-    CL-42692  40.010  19.118   2.403
78925CL-    CL-42693  31.602  21.645  12.426
78926CL-    CL-42694  10.234  18.215  14.378
78927CL-    CL-42695  20.165  27.454  11.503
78928CL-    CL-42696  25.601  12.733   3.363
78929CL-    CL-42697   4.394  31.403   1.720
78930CL-    CL-42698   7.199   3.919  11.592
78931CL-    CL-42699  35.443  36.044  10.619
78932CL-    CL-42700  40.499  33.435   2.192
78933CL-    CL-42701  35.853  40.412   2.810
78934CL-    CL-42702  26.645  44.292   1.427
78935CL-    CL-42703  23.548  14.767   3.192
78936CL-    CL-42704   2.766  25.492  12.887
78937CL-    CL-42705  39.018  16.162  10.972
78938CL-    CL-42706   1.369  17.136  13.340
78939CL-    CL-42707  19.574  33.553  10.105
78940CL-    CL-42708   7.777  12.334   1.351
78941CL-    CL-42709  12.804  19.187   3.370
78942CL-    CL-42710  18.764  43.941   0.963
78943CL-    CL-42711  36.397   0.810   2.808
78944CL-    CL-42712  34.077  21.643  11.127
78945CL-    CL-42713  25.182  38.349  13.040
78946CL-    CL-42714  22.125  21.145   4.121
78947CL-    CL-42715  15.229   9.745   0.364
78948CL-    CL-42716  32.581  22.743  11.438
78949CL-    CL-42717  17.667   2.291  13.974
78950CL-    CL-42718  11.778  36.504  10.952
78951CL-    CL-42719  25.193   6.307  14.315
78952CL-    CL-42720   9.385  30.416   3.276
78953CL-    CL-42721  11.671  18.561   0.266
78954CL-    CL-42722  34.010  30.973   0.258
78955CL-    CL-42723  11.818   0.971   1.721
78956CL-    CL-42724   3.224   9.358  11.602
78957CL-    CL-42725  19.065  11.301  10.455
78958CL-    CL-42726   7.713   9.310  14.887
78959CL-    CL-42727  10.380   8.388   4.811
78960CL-    CL-42728  27.618  28.164  14.360
78961CL-    CL-42729  25.625  26.200   2.765
78962CL-    CL-42730   9.712   2.270  11.922
78963CL-    CL-42731  40.918  42.456  12.039
78964CL-    CL-42732  12.219  18.714   2.883
78965CL-    CL-42733   5.266  21.150   2.785
78966CL-    CL-42734  13.199  15.668  14.001
78967CL-    CL-42735  40.361  43.998   4.718
78968CL-    CL-42736  12.183  44.807   4.774
78969CL-    CL-42737  27.097  21.181   3.152
78970CL-    CL-42738  39.526  18.122  13.438
78971CL-    CL-42739  12.285  39.883   3.784
78972CL-    CL-42740  19.665  22.136  11.441
78973CL-    CL-42741  16.100  36.522   3.211
78974CL-    CL-42742  21.246  36.846   1.212
78975CL-    CL-42743  18.278  44.288  11.443
78976CL-    CL-42744  14.190  13.810   4.631
78977CL-    CL-42745  32.531  23.061   0.855
78978CL-    CL-42746   6.425   7.370  11.979
78979CL-    CL-42747  18.641  24.216   1.394
78980CL-    CL-42748   4.360  44.818   1.223
78981CL-    CL-42749   4.302  27.570  13.482
78982CL-    CL-42750  15.297   3.770  12.421
78983CL-    CL-42751  35.903   4.897  12.513
78984CL-    CL-42752  33.459  23.227  10.063
78985CL-    CL-42753  25.135  16.188   0.764
78986CL-    CL-42754  31.415  12.848  14.009
78987CL-    CL-42755   6.377  17.289   0.799
78988CL-    CL-42756  35.970  10.702  14.393
78989CL-    CL-42757  14.667  43.406  10.947
78990CL-    CL-42758  35.586  33.036   0.305
78991CL-    CL-42759  34.103  18.775  11.039
78992CL-    CL-42760  12.793  14.276  12.417
78993CL-    CL-42761  35.486  11.820   1.795
78994CL-    CL-42762  39.980  39.440  10.925
78995CL-    CL-42763  14.687  43.913   3.164
78996CL-    CL-42764  35.078   7.738  11.446
78997CL-    CL-42765  35.431   9.219  10.631
78998CL-    CL-42766   0.874   8.200  13.978
78999CL-    CL-42767  19.621  22.089   1.220
79000CL-    CL-42768  30.961  21.172  10.151
79001CL-    CL-42769  13.150  19.681   0.282
79002CL-    CL-42770  38.514  13.140  14.925
79003CL-    CL-42771  19.264  16.254  11.518
79004CL-    CL-42772  24.145  16.747   2.214
79005CL-    CL-42773  37.451  41.038  14.393
79006CL-    CL-42774  40.947  19.757  12.459
79007CL-    CL-42775  14.834  34.498  14.996
79008CL-    CL-42776  30.966  11.654   2.847
79009CL-    CL-42777  38.074  22.583  10.437
79010CL-    CL-42778  11.855  38.902  10.547
79011CL-    CL-42779  38.893  28.597   0.419
79012CL-    CL-42780  16.249  42.973  12.377
79013CL-    CL-42781   3.382  11.143   4.599
79014CL-    CL-42782  36.092  20.755   3.355
79015CL-    CL-42783   8.690  44.327   1.347
79016CL-    CL-42784  29.076  44.870   1.771
79017CL-    CL-42785  30.953  14.167  14.872
79018CL-    CL-42786   3.436  17.189  13.842
79019CL-    CL-42787  38.901  29.544  12.570
79020CL-    CL-42788  35.922  19.114   0.261
79021CL-    CL-42789   8.383  37.898  12.923
79022CL-    CL-42790   8.352  34.560  14.405
79023CL-    CL-42791  39.334  36.560  12.888
79024CL-    CL-42792  24.996   3.948  10.949
79025CL-    CL-42793  35.033  35.037   5.222
79026CL-    CL-42794  15.590  36.582   1.701
79027CL-    CL-42795  29.578  44.265   1.357
79028CL-    CL-42796  18.189  11.682  13.473
79029CL-    CL-42797  39.913  19.156  12.972
79030CL-    CL-42798  31.953   1.438  11.479
79031CL-    CL-42799  11.368  42.494   1.360
79032CL-    CL-42800  38.944  15.245   0.750
79033CL-    CL-42801  28.133  17.122  10.575
79034CL-    CL-42802   3.928   8.657   1.275
79035CL-    CL-42803  22.179   7.369  12.353
79036CL-    CL-42804  33.899   5.817   1.762
79037CL-    CL-42805   8.860  42.849  14.405
79038CL-    CL-42806  15.604  20.217   0.773
79039CL-    CL-42807  29.664  34.474   3.801
79040CL-    CL-42808  30.067  10.744   1.798
79041CL-    CL-42809   4.804  42.494  12.998
79042CL-    CL-42810  19.155  13.109   3.248
79043CL-    CL-42811  43.285  31.095   3.316
79044CL-    CL-42812  29.023  37.845  10.615
79045CL-    CL-42813  11.300  34.513   0.284
79046CL-    CL-42814  38.453   6.215   2.365
79047CL-    CL-42815  26.586  26.484  11.995
79048CL-    CL-42816  37.361  24.708   3.297
79049CL-    CL-42817  10.151  22.502   0.439
79050CL-    CL-42818  43.406  16.297   4.201
79051CL-    CL-42819  25.166  21.722  13.412
79052CL-    CL-42820  16.568  14.684  13.034
79053CL-    CL-42821  27.459  44.813   2.804
79054CL-    CL-42822   8.686  14.269   3.731
79055CL-    CL-42823  36.548  26.123  11.970
79056CL-    CL-42824  24.675   6.338   2.761
79057CL-    CL-42825  17.687  23.733   2.736
79058CL-    CL-42826   4.724  30.126   1.759
79059CL-    CL-42827  12.335  28.642   0.855
79060CL-    CL-42828  16.233  17.193  13.852
79061CL-    CL-42829  15.659  37.023  14.986
79062CL-    CL-42830  25.111  25.018   2.191
79063CL-    CL-42831  30.591  43.393   0.945
79064CL-    CL-42832  12.846  25.650   3.166
79065CL-    CL-42833  13.329  40.916   0.361
79066CL-    CL-42834   4.347  26.574  10.639
79067CL-    CL-42835  15.250  33.124   2.375
79068CL-    CL-42836  29.605   4.901   5.180
79069CL-    CL-42837   3.812   5.292  14.286
79070CL-    CL-42838  37.064  11.190   1.696
79071CL-    CL-42839  42.350  12.127  12.435
79072CL-    CL-42840  44.852   0.980   0.299
79073CL-    CL-42841  23.189   6.319   1.441
79074CL-    CL-42842  37.886  23.031  13.384
79075CL-    CL-42843  25.038   1.820  11.895
79076CL-    CL-42844   3.235  39.022  10.627
79077CL-    CL-42845   7.309  18.117   1.704
79078CL-    CL-42846  40.015   2.437   4.762
79079CL-    CL-42847  38.880  20.560   4.188
79080CL-    CL-42848  22.995   3.846   4.156
79081CL-    CL-42849  20.644  19.732   2.227
79082CL-    CL-42850  22.040  18.689  14.898
79083CL-    CL-42851   4.368  23.506   0.923
79084CL-    CL-42852   9.882  20.702   3.162
79085CL-    CL-42853  17.253  14.610  12.494
79086CL-    CL-42854  38.482  14.262  12.886
79087CL-    CL-42855  11.372   3.303  12.555
79088CL-    CL-42856  11.185   1.418  12.091
79089CL-    CL-42857   8.789  35.410   3.803
79090CL-    CL-42858  18.658  31.597   1.349
79091CL-    CL-42859  12.810  42.375  12.882
79092CL-    CL-42860  27.192  36.360  14.391
79093CL-    CL-42861  17.217  30.126   4.149
79094CL-    CL-42862  13.329  10.697   3.820
79095CL-    CL-42863  12.682  21.199   3.831
79096CL-    CL-42864  28.068   3.773  11.555
79097CL-    CL-42865  30.098   1.976   0.448
79098CL-    CL-42866  41.832  14.829  14.967
79099CL-    CL-42867  43.903  12.723   0.385
79100CL-    CL-42868  31.997  42.804   0.897
79101CL-    CL-42869  26.068   9.333  13.955
79102CL-    CL-42870  33.902   6.362   1.299
79103CL-    CL-42871  12.119  18.161   1.369
79104CL-    CL-42872  24.681  42.302  11.553
79105CL-    CL-42873  31.022  20.756   2.345
79106CL-    CL-42874  39.340  12.705   2.197
79107CL-    CL-42875  12.797  30.562   3.350
79108CL-    CL-42876  35.563  41.468   3.652
79109CL-    CL-42877  39.984  17.297   0.780
79110CL-    CL-42878  27.632  22.640   0.860
79111CL-    CL-42879  20.758  19.056   4.738
79112CL-    CL-42880  23.052  41.498   2.795
79113CL-    CL-42881   0.311  28.056   1.700
79114CL-    CL-42882  29.460  28.585  13.863
79115CL-    CL-42883  44.870  35.039   2.821
79116CL-    CL-42884   7.900  16.744  14.304
79117CL-    CL-42885   0.752  25.040   3.718
79118CL-    CL-42886  42.523   0.981   2.199
79119CL-    CL-42887  10.814  21.080  12.527
79120CL-    CL-42888  34.478   7.306   2.196
79121CL-    CL-42889  39.977  18.720  11.565
79122CL-    CL-42890  35.390  16.636   2.362
79123CL-    CL-42891   5.814  40.883   0.931
79124CL-    CL-42892  30.985   5.710  13.893
79125CL-    CL-42893   7.687  30.458  14.793
79126CL-    CL-42894  43.819  14.299  14.987
79127CL-    CL-42895  12.336  30.500   0.819
79128CL-    CL-42896  39.372  43.869   2.669
79129CL-    CL-42897  15.128  30.634   3.854
79130CL-    CL-42898  35.990  42.315  13.995
79131CL-    CL-42899  13.708  38.033   4.778
79132CL-    CL-42900  26.982  15.137   2.184
79133CL-    CL-42901  40.520   9.212   3.183
79134CL-    CL-42902   6.368  44.484   0.262
79135CL-    CL-42903  41.851  42.805   5.123
79136CL-    CL-42904   3.946  10.751   1.780
79137CL-    CL-42905   0.417  42.500  14.441
79138CL-    CL-42906  28.592  33.992   5.770
79139CL-    CL-42907  35.028  21.558  12.854
79140CL-    CL-42908  27.011   8.403   3.794
79141CL-    CL-42909  30.050   3.883  13.533
79142CL-    CL-42910  26.081   0.889  11.945
79143CL-    CL-42911  26.491  20.191   2.236
79144CL-    CL-42912  15.137  22.200   0.934
79145CL-    CL-42913  15.114  31.553  13.373
79146CL-    CL-42914  16.657   6.410  14.765
79147CL-    CL-42915  20.598  42.437   2.397
79148CL-    CL-42916  34.938   1.818  14.986
79149CL-    CL-42917   7.359  34.064  11.567
79150CL-    CL-42918   8.676  31.004  12.485
79151CL-    CL-42919  40.340  10.743  12.907
79152CL-    CL-42920  16.669   4.368   3.846
79153CL-    CL-42921  11.317  38.417   0.330
79154CL-    CL-42922  26.632  35.461   0.846
79155CL-    CL-42923  40.513  12.762   3.786
79156CL-    CL-42924  17.736  29.083  10.517
79157CL-    CL-42925  34.532  37.391   0.388
79158CL-    CL-42926  37.879  20.626   1.234
79159CL-    CL-42927  32.560  25.968   2.283
79160CL-    CL-42928  39.808  37.487  11.499
79161CL-    CL-42929   0.273  39.003   2.830
79162CL-    CL-42930  13.339  10.250  14.784
79163CL-    CL-42931  42.468   3.261  13.897
79164CL-    CL-42932  36.958   4.866   0.368
79165CL-    CL-42933  43.837  41.352  12.955
79166CL-    CL-42934   4.252  23.207   0.435
79167CL-    CL-42935  25.207  23.065   1.405
79168CL-    CL-42936  20.724  11.635  13.442
79169CL-    CL-42937  44.830  11.765   4.613
79170CL-    CL-42938  10.318   5.241  11.601
79171CL-    CL-42939  19.153  39.843  14.005
79172CL-    CL-42940  27.980  42.869   2.845
79173CL-    CL-42941  16.079  42.381  11.492
79174CL-    CL-42942   0.825  42.810  10.096
79175CL-    CL-42943  33.033  16.196   0.260
79176CL-    CL-42944   0.453   0.461   1.236
79177CL-    CL-42945  31.015  28.680   4.319
79178CL-    CL-42946  17.632  17.298   4.187
79179CL-    CL-42947  10.846   1.292  12.504
79180CL-    CL-42948  13.145  14.634   2.318
79181CL-    CL-42949  11.819   1.949  11.029
79182CL-    CL-42950  22.582  11.789  14.457
79183CL-    CL-42951  29.455  17.654  13.883
79184CL-    CL-42952   1.815  42.324  12.936
79185CL-    CL-42953  40.532   9.649   0.856
79186CL-    CL-42954   7.876  21.158  11.062
79187CL-    CL-42955  35.976  31.493  13.059
79188CL-    CL-42956  39.544   3.760  13.449
79189CL-    CL-42957  23.086  16.651  13.518
79190CL-    CL-42958  13.681  38.911  12.414
79191CL-    CL-42959  26.562  24.147  11.498
79192CL-    CL-42960  39.324   5.426  11.450
79193CL-    CL-42961  41.947  15.644  11.560
79194CL-    CL-42962   4.752  38.377   2.296
79195CL-    CL-42963  12.772  40.538   4.837
79196CL-    CL-42964  19.700  30.514  13.414
79197CL-    CL-42965  28.058  18.644  10.523
79198CL-    CL-42966  21.088  34.955  12.939
79199CL-    CL-42967  10.821  13.267  10.478
79200CL-    CL-42968  14.267  42.449   1.436
79201CL-    CL-42969  17.293  24.606  10.910
79202CL-    CL-42970   7.895  22.177   2.343
79203CL-    CL-42971  33.038  18.698  14.927
79204CL-    CL-42972  34.410  37.068  11.609
79205CL-    CL-42973  23.496   4.407  13.363
79206CL-    CL-42974  30.015  23.130   2.664
79207CL-    CL-42975  35.042   0.248   2.300
79208CL-    CL-42976  33.473  15.272   4.271
79209CL-    CL-42977  23.124  40.997   2.770
79210CL-    CL-42978  28.034  44.780   4.836
79211CL-    CL-42979  16.729  41.810  13.874
79212CL-    CL-42980   0.826  41.337   0.380
79213CL-    CL-42981  18.684   1.926  14.020
79214CL-    CL-42982  33.499  32.024  13.064
79215CL-    CL-42983   2.256  24.677   0.829
79216CL-    CL-42984  23.169  27.982   3.650
79217CL-    CL-42985  28.156  21.534  12.415
79218CL-    CL-42986  32.615  28.561  14.838
79219CL-    CL-42987  14.205  40.021   4.707
79220CL-    CL-42988  27.157   1.732   2.811
79221CL-    CL-42989  24.047  15.698   0.386
79222CL-    CL-42990  12.811  20.246  13.832
79223CL-    CL-42991  16.173  12.757   3.691
79224CL-    CL-42992  23.238  24.508   1.363
79225CL-    CL-42993  42.391  40.487  12.085
79226CL-    CL-42994   5.254  10.216  13.850
79227CL-    CL-42995  26.671  11.299  10.992
79228CL-    CL-42996  37.069   8.698  11.024
79229CL-    CL-42997  41.337  26.980  11.096
79230CL-    CL-42998  11.227  43.771   1.850
79231CL-    CL-42999  11.841   9.301  12.899
79232CL-    CL-43000  25.196  23.519  13.336
79233CL-    CL-43001   7.285  41.946   2.280
79234CL-    CL-43002  31.423  29.606  13.976
79235CL-    CL-43003  42.983  24.480   4.170
79236CL-    CL-43004  34.407  21.157  14.402
79237CL-    CL-43005  37.088  14.672  12.009
79238CL-    CL-43006  12.336  17.784   0.328
79239CL-    CL-43007  39.369  20.214  14.492
79240CL-    CL-43008  29.571  44.985   2.840
79241CL-    CL-43009  40.915  31.062  10.032
79242CL-    CL-43010  41.907   2.814   0.433
79243CL-    CL-43011  23.647  44.350   3.265
79244CL-    CL-43012   3.299  24.700  11.868
79245CL-    CL-43013  16.185  36.929   2.746
79246CL-    CL-43014  13.610  33.439  10.532
79247CL-    CL-43015  21.064  23.194   2.263
79248CL-    CL-43016  29.654  35.963   4.143
79249CL-    CL-43017  13.211   5.894   3.273
79250CL-    CL-43018  21.025  18.669   1.702
79251CL-    CL-43019  13.603  24.713   2.821
79252CL-    CL-43020  34.076   2.270  12.863
79253CL-    CL-43021  12.667   7.833   2.411
79254CL-    CL-43022  21.134  29.986   3.831
79255CL-    CL-43023  34.402  26.963  10.532
79256CL-    CL-43024   5.800  36.417  14.806
79257CL-    CL-43025  38.425  40.398   3.802
79258CL-    CL-43026  27.535  33.054   2.228
79259CL-    CL-43027  19.593  28.508  12.982
79260CL-    CL-43028   5.235  31.415   4.749
79261CL-    CL-43029  24.602  17.585   4.620
79262CL-    CL-43030   8.820  13.343   0.469
79263CL-    CL-43031  24.215   2.966   4.275
79264CL-    CL-43032  40.912  14.163   0.309
79265CL-    CL-43033  21.023  24.025  12.922
79266CL-    CL-43034   9.660  13.702  13.817
79267CL-    CL-43035  12.158  31.136  13.901
79268CL-    CL-43036  20.112  27.152   0.469
79269CL-    CL-43037  17.305  44.293   4.191
79270CL-    CL-43038   0.965  34.945  14.009
79271CL-    CL-43039  14.646   8.885   1.308
79272CL-    CL-43040  26.158   9.735   4.263
79273CL-    CL-43041   0.850  25.220   3.245
79274CL-    CL-43042  14.117  37.864  11.030
79275CL-    CL-43043  11.774  21.532   3.736
79276CL-    CL-43044  22.185  34.895   2.872
79277CL-    CL-43045  14.663  43.441   3.188
79278CL-    CL-43046  24.512  20.759  11.520
79279CL-    CL-43047  18.171  31.580  12.381
79280CL-    CL-43048  43.002   6.746  14.878
79281CL-    CL-43049  10.784  18.635  14.961
79282CL-    CL-43050  32.068   0.460  10.415
79283CL-    CL-43051  27.691  13.242   2.670
79284CL-    CL-43052  38.017   3.404   1.310
79285CL-    CL-43053  37.984   1.955   3.659
79286CL-    CL-43054  26.608   4.929  12.024
79287CL-    CL-43055  41.042  24.113   1.421
79288CL-    CL-43056  12.223  38.919   1.766
79289CL-    CL-43057  41.380   1.760   3.750
79290CL-    CL-43058  28.946  18.101   1.267
79291CL-    CL-43059  19.117  39.418   4.743
79292CL-    CL-43060  42.999  27.176   3.279
79293CL-    CL-43061  40.433  38.525   4.310
79294CL-    CL-43062  21.132  12.254   3.346
79295CL-    CL-43063  17.125   4.904   0.243
79296CL-    CL-43064  14.622   6.680   3.240
79297CL-    CL-43065  11.712  42.789  14.304
79298CL-    CL-43066  33.970  25.077   2.811
79299CL-    CL-43067  13.301   7.888  13.933
79300CL-    CL-43068   8.177   9.190  13.313
79301CL-    CL-43069   2.352  38.998   3.346
79302CL-    CL-43070  17.706  33.396  12.861
79303CL-    CL-43071  24.069  40.867   3.665
79304CL-    CL-43072  25.559  26.469  14.477
79305CL-    CL-43073  21.141  20.251   4.765
79306CL-    CL-43074  40.922   0.949   1.358
79307CL-    CL-43075  13.293   6.259   3.354
79308CL-    CL-43076  31.914   5.822  10.924
79309CL-    CL-43077   2.436  26.048   4.114
79310CL-    CL-43078  10.705  12.125  13.913
79311CL-    CL-43079  13.621  43.993  12.411
79312CL-    CL-43080  32.010  35.022   2.881
79313CL-    CL-43081  10.781  22.077   4.191
79314CL-    CL-43082  21.250  25.061   3.318
79315CL-    CL-43083  28.999   5.432   3.703
79316CL-    CL-43084  36.465  19.588  13.898
79317CL-    CL-43085  39.391   7.329   0.302
79318CL-    CL-43086   9.748  18.068   4.250
79319CL-    CL-43087  24.123   9.192   2.350
79320CL-    CL-43088  22.037   7.710   3.345
79321CL-    CL-43089  19.175  19.144  10.141
79322CL-    CL-43090  22.657  42.810   2.249
79323CL-    CL-43091  40.897  16.726   0.314
79324CL-    CL-43092   3.362  24.104  10.925
79325CL-    CL-43093  10.799   4.866  12.538
79326CL-    CL-43094   3.447  44.757  12.844
79327CL-    CL-43095  38.887  28.018   0.855
79328CL-    CL-43096   0.905  18.196   4.632
79329CL-    CL-43097  29.144  42.520  12.927
79330CL-    CL-43098  36.013   4.781  12.061
79331CL-    CL-43099  42.347   5.900  12.378
79332CL-    CL-43100  12.765  14.674  12.004
79333CL-    CL-43101   5.757  19.757   0.390
79334CL-    CL-43102  36.417  35.064   1.284
79335CL-    CL-43103  22.173  43.943  12.069
79336CL-    CL-43104  35.499  10.679  12.035
79337CL-    CL-43105  13.731  41.030  11.124
79338CL-    CL-43106  13.288  28.983   4.240
79339CL-    CL-43107  22.735  34.608  14.928
79340CL-    CL-43108  25.627  16.118  13.840
79341CL-    CL-43109  36.095  26.199  11.032
79342CL-    CL-43110   0.857   6.192  11.526
79343CL-    CL-43111  36.049  43.021  11.463
79344CL-    CL-43112  26.505   3.384  14.893
79345CL-    CL-43113  25.474  14.202   5.127
79346CL-    CL-43114  12.340  20.109   0.960
79347CL-    CL-43115  13.215  43.383  13.812
79348CL-    CL-43116  12.706   4.255  14.460
79349CL-    CL-43117  42.795  26.538  11.916
79350CL-    CL-43118  43.835  38.820   2.794
79351CL-    CL-43119  39.430  39.917  11.968
79352CL-    CL-43120  16.314   4.271   2.887
79353CL-    CL-43121  43.985   7.843  13.818
79354CL-    CL-43122  41.502   6.282   1.748
79355CL-    CL-43123  31.911  36.405   4.656
79356CL-    CL-43124  17.697  44.485  14.893
79357CL-    CL-43125   3.781   1.878  11.526
79358CL-    CL-43126  36.041  42.984   0.750
79359CL-    CL-43127  23.512  19.686   1.867
79360CL-    CL-43128   3.878   2.757  13.008
79361CL-    CL-43129   0.850   7.908   2.362
79362CL-    CL-43130  43.321  44.459  11.483
79363CL-    CL-43131  33.939  11.223   3.866
79364CL-    CL-43132  15.700  24.033  14.818
79365CL-    CL-43133  34.090   1.313  12.073
79366CL-    CL-43134  25.711  11.266  12.971
79367CL-    CL-43135  19.257  17.109   0.791
79368CL-    CL-43136   9.272  30.430  12.532
79369CL-    CL-43137  26.122  37.424   1.323
79370CL-    CL-43138  38.496  12.829  13.944
79371CL-    CL-43139  25.124   4.389   2.237
79372CL-    CL-43140   9.180  35.087   1.846
79373CL-    CL-43141  35.414  14.754   3.313
79374CL-    CL-43142  39.396  10.202   1.371
79375CL-    CL-43143  14.677  35.589  10.429
79376CL-    CL-43144  42.512  38.371  10.509
79377CL-    CL-43145  35.016  35.968  13.011
79378CL-    CL-43146  12.836  38.564   0.273
79379CL-    CL-43147   4.891  33.897  12.416
79380CL-    CL-43148  11.640  27.988   4.805
79381CL-    CL-43149  39.347   8.197   3.305
79382CL-    CL-43150  20.274   4.739  10.896
79383CL-    CL-43151   5.208   9.815  13.422
79384CL-    CL-43152   0.409  10.142  13.510
79385CL-    CL-43153  20.229   9.327   0.348
79386CL-    CL-43154  30.062  29.579   2.810
79387CL-    CL-43155  35.374  17.252  11.572
79388CL-    CL-43156  19.145  11.224   3.275
79389CL-    CL-43157  41.874  33.951   1.321
79390CL-    CL-43158  43.469   7.350  11.532
79391CL-    CL-43159  27.530   2.435  13.337
79392CL-    CL-43160  28.517  27.548   4.274
79393CL-    CL-43161   5.359  34.550   1.434
79394CL-    CL-43162  10.177  35.870   2.892
79395CL-    CL-43163  28.064  44.829   3.219
79396CL-    CL-43164  41.417  29.166  13.802
79397CL-    CL-43165  30.968  21.578  14.508
79398CL-    CL-43166   9.321  24.054   1.312
79399CL-    CL-43167  17.196  22.644   0.312
79400CL-    CL-43168  44.368   2.952   9.930
79401CL-    CL-43169  30.493  10.879   0.321
79402CL-    CL-43170  43.384  18.772   3.250
79403CL-    CL-43171   9.654  12.857  14.807
79404CL-    CL-43172  15.730  21.060   3.835
79405CL-    CL-43173  44.954  25.200  14.445
79406CL-    CL-43174   5.362  28.149   2.209
79407CL-    CL-43175  35.015  28.082  10.123
79408CL-    CL-43176  28.045  17.267   2.800
79409CL-    CL-43177  15.242  19.748  14.354
79410CL-    CL-43178  21.157  13.234  10.457
79411CL-    CL-43179  36.431  28.171  10.996
79412CL-    CL-43180  43.868  29.125   3.322
79413CL-    CL-43181  30.641  26.500   3.760
79414CL-    CL-43182  32.952  24.493   0.939
79415CL-    CL-43183  32.524  16.702  14.933
79416CL-    CL-43184  40.403  29.049  10.600
79417CL-    CL-43185  38.984  32.610   0.435
79418CL-    CL-43186  29.589   7.732   1.294
79419CL-    CL-43187  37.405  28.465   4.837
79420CL-    CL-43188  36.908  13.145   3.189
79421CL-    CL-43189  30.927  29.611  11.393
79422CL-    CL-43190  42.371  26.508   1.274
79423CL-    CL-43191   7.402   9.235  11.099
79424CL-    CL-43192  40.533  40.051   1.815
79425CL-    CL-43193  32.115  14.713   4.205
79426CL-    CL-43194  21.172  35.591  14.893
79427CL-    CL-43195  38.512  32.985   5.297
79428CL-    CL-43196  34.913   1.394   2.725
79429CL-    CL-43197  37.053  31.151   0.923
79430CL-    CL-43198  34.112  38.023   1.285
79431CL-    CL-43199  10.784  21.034  11.012
79432CL-    CL-43200  16.601  33.473  12.409
79433CL-    CL-43201   8.181  29.049   0.265
79434CL-    CL-43202  12.245  11.834  13.372
79435CL-    CL-43203  44.935  34.501   3.329
79436CL-    CL-43204   5.313  16.646  11.905
79437CL-    CL-43205   4.247  15.100   4.195
79438CL-    CL-43206  37.542  43.774   1.916
79439CL-    CL-43207  27.058   2.289   3.681
79440CL-    CL-43208  24.100   0.762  10.589
79441CL-    CL-43209  38.363  26.974   2.344
79442CL-    CL-43210   9.874  23.659  11.897
79443CL-    CL-43211  10.161  44.766  14.459
79444CL-    CL-43212  13.351  43.824  14.881
79445CL-    CL-43213  40.503  42.385   0.831
79446CL-    CL-43214  19.700   4.429   4.692
79447CL-    CL-43215  13.699  15.166  10.530
79448CL-    CL-43216  13.684   9.768   3.847
79449CL-    CL-43217  22.011  15.652   2.711
79450CL-    CL-43218   4.908  38.357   9.994
79451CL-    CL-43219   3.322  12.648   4.152
79452CL-    CL-43220  10.701  26.050  12.026
79453CL-    CL-43221  26.460  44.353   3.742
79454CL-    CL-43222  20.535  30.434  13.051
79455CL-    CL-43223   3.868  31.520   1.714
79456CL-    CL-43224  11.187  40.962   2.806
79457CL-    CL-43225   4.204  25.162   2.876
79458CL-    CL-43226  25.660  34.044  11.938
79459CL-    CL-43227  22.055  25.492  13.399
79460CL-    CL-43228  42.939  44.345  12.841
79461CL-    CL-43229  28.581  17.174  14.992
79462CL-    CL-43230  21.051   0.916  12.491
79463CL-    CL-43231  20.210  40.803   1.385
79464CL-    CL-43232   7.198   6.345  11.079
79465CL-    CL-43233  32.623  44.995   1.277
79466CL-    CL-43234   7.822  32.400  10.491
79467CL-    CL-43235  15.723  39.000   1.885
79468CL-    CL-43236  36.463  37.856  12.865
79469CL-    CL-43237  42.362  34.590  10.556
79470CL-    CL-43238  20.768  14.265   4.317
79471CL-    CL-43239  13.670  28.139   4.323
79472CL-    CL-43240   7.251   8.722   2.303
79473CL-    CL-43241  44.274  28.159   4.345
79474CL-    CL-43242  30.636   3.394   0.464
79475CL-    CL-43243  11.185   2.821  13.432
79476CL-    CL-43244  36.462  27.990  14.796
79477CL-    CL-43245  35.943  25.059  14.007
79478CL-    CL-43246  26.190  26.058   4.709
79479CL-    CL-43247  20.077  26.541  10.064
79480CL-    CL-43248  10.340   5.776  13.359
79481CL-    CL-43249  12.321  22.503   2.880
79482CL-    CL-43250  43.020  22.666   2.845
79483CL-    CL-43251  16.725  44.771   4.288
79484CL-    CL-43252  43.279  12.795   4.679
79485CL-    CL-43253  22.226   8.214  14.303
79486CL-    CL-43254  18.119   6.914   0.474
79487CL-    CL-43255  38.334  27.608   2.304
79488CL-    CL-43256  42.338   0.359   0.821
79489CL-    CL-43257  12.304  31.076  12.449
79490CL-    CL-43258  24.557  35.537   2.235
79491CL-    CL-43259  42.974  21.087  13.960
79492CL-    CL-43260   5.923  39.518  12.064
79493CL-    CL-43261  10.356   5.770   2.289
79494CL-    CL-43262  21.231  26.469  11.885
79495CL-    CL-43263  35.363  15.619  14.993
79496CL-    CL-43264  20.127  28.940  11.101
79497CL-    CL-43265   0.897  18.082  13.057
79498CL-    CL-43266  27.656  26.532  10.605
79499CL-    CL-43267   7.884  32.107   4.346
79500CL-    CL-43268  40.507  10.207   1.740
79501CL-    CL-43269  26.484   7.824   3.241
79502CL-    CL-43270  19.598  13.196   1.372
79503CL-    CL-43271  22.138  16.257  14.805
79504CL-    CL-43272   8.208  20.651  12.371
79505CL-    CL-43273  15.731  31.141  13.418
79506CL-    CL-43274  41.304  12.198  14.841
79507CL-    CL-43275  10.670  41.394   4.126
79508CL-    CL-43276  36.066  31.405  12.047
79509CL-    CL-43277  21.161  36.427  12.905
79510CL-    CL-43278   0.249   9.727   2.818
79511CL-    CL-43279  15.305  34.086  10.894
79512CL-    CL-43280  27.593  18.789   1.817
79513CL-    CL-43281  10.870  15.091  12.387
79514CL-    CL-43282  37.017  20.110   3.219
79515CL-    CL-43283   9.835  39.449   1.328
79516CL-    CL-43284  14.747   6.385  14.844
79517CL-    CL-43285  26.638  10.725   4.238
79518CL-    CL-43286  23.089   7.853  10.922
79519CL-    CL-43287  13.144  23.729  12.549
79520CL-    CL-43288  25.212  12.721  13.484
79521CL-    CL-43289  14.281  21.214  12.932
79522CL-    CL-43290   2.312  39.916   2.761
79523CL-    CL-43291  24.027  16.141  12.946
79524CL-    CL-43292  15.252  25.978  14.822
79525CL-    CL-43293  31.098  39.830   1.296
79526CL-    CL-43294  14.698  34.971   4.319
79527CL-    CL-43295   7.327   4.804  14.897
79528CL-    CL-43296   7.792  26.543  11.071
79529CL-    CL-43297  17.729  24.193   0.482
79530CL-    CL-43298  31.989  16.765   2.384
79531CL-    CL-43299  18.158  18.757   0.734
79532CL-    CL-43300  32.458   5.332  13.378
79533CL-    CL-43301  34.572  18.740  13.897
79534CL-    CL-43302   4.862  42.371  13.922
79535CL-    CL-43303   0.311  44.994  12.924
79536CL-    CL-43304  38.370  11.660   4.244
79537CL-    CL-43305  19.127  15.130  10.579
79538CL-    CL-43306   8.368  30.932  10.633
79539CL-    CL-43307  15.577  36.348   0.392
79540CL-    CL-43308  33.885  32.129   0.424
79541CL-    CL-43309  32.011   1.245  13.441
79542CL-    CL-43310  43.924  43.864   1.895
79543CL-    CL-43311  18.156  41.028  12.433
79544CL-    CL-43312  41.500   1.466   0.814
79545CL-    CL-43313  11.632  20.604   2.844
79546CL-    CL-43314  27.186   7.253   2.689
79547CL-    CL-43315  40.429  25.018   3.291
79548CL-    CL-43316  23.721   1.940  10.597
79549CL-    CL-43317  35.052   2.307   2.411
79550CL-    CL-43318  33.477  40.897  14.873
79551CL-    CL-43319  44.934  10.375   1.324
79552CL-    CL-43320  23.071  21.647   4.126
79553CL-    CL-43321  29.528  20.622  14.885
79554CL-    CL-43322  37.873  23.124   0.260
79555CL-    CL-43323  34.919   2.913   4.160
79556CL-    CL-43324  39.325  18.069  14.791
79557CL-    CL-43325  17.110   2.789   2.774
79558CL-    CL-43326  39.048  39.393   2.245
79559CL-    CL-43327   2.939  23.549  13.494
79560CL-    CL-43328   8.879  10.665   0.417
79561CL-    CL-43329  27.967  11.738  10.405
79562CL-    CL-43330   6.228  29.442  13.467
79563CL-    CL-43331   3.371  11.805   5.311
79564CL-    CL-43332  10.193  13.819  14.429
79565CL-    CL-43333  16.313  17.190   2.384
79566CL-    CL-43334   9.828  31.944  11.439
79567CL-    CL-43335  43.983  31.109   3.708
79568CL-    CL-43336  14.781  30.914  13.323
79569CL-    CL-43337  31.088   0.415  12.567
79570CL-    CL-43338  16.300  22.197   4.172
79571CL-    CL-43339  12.652  37.975  10.536
79572CL-    CL-43340   7.877  13.716  14.971
79573CL-    CL-43341  17.797  14.267  14.512
79574CL-    CL-43342   7.332  24.193  12.829
79575CL-    CL-43343   4.837  41.884  12.040
79576CL-    CL-43344  23.668   7.878  14.432
79577CL-    CL-43345  39.403  21.619  10.504
79578CL-    CL-43346  23.523  43.835   3.795
79579CL-    CL-43347  39.966  20.729   4.206
79580CL-    CL-43348  23.574  33.942   1.777
79581CL-    CL-43349  26.672  37.033  14.283
79582CL-    CL-43350   1.348   6.338  10.949
79583CL-    CL-43351  18.560  19.276  10.637
79584CL-    CL-43352  32.056  44.875  14.315
79585CL-    CL-43353  32.085  10.177  11.029
79586CL-    CL-43354   9.672  28.567  13.062
79587CL-    CL-43355  12.203  44.292  14.337
79588CL-    CL-43356  21.671  39.412   2.398
79589CL-    CL-43357  39.463  27.586   4.769
79590CL-    CL-43358  41.836  10.848  13.796
79591CL-    CL-43359  31.466  14.650   4.236
79592CL-    CL-43360  31.007  17.156   2.869
79593CL-    CL-43361  26.007  31.591   0.390
79594CL-    CL-43362  39.434   0.384  12.839
79595CL-    CL-43363   8.265  30.477  13.428
79596CL-    CL-43364  41.311  29.652   1.826
79597CL-    CL-43365  32.528  27.615   3.806
79598CL-    CL-43366  35.046  17.076  12.897
79599CL-    CL-43367  12.289  21.555   0.408
79600CL-    CL-43368  30.111  42.005  12.542
79601CL-    CL-43369  44.789  12.749  12.488
79602CL-    CL-43370   4.367  36.366  14.483
79603CL-    CL-43371   2.236  27.463   3.758
79604CL-    CL-43372  41.512   6.209   3.685
79605CL-    CL-43373  25.469   7.882  13.050
79606CL-    CL-43374  12.333   0.834   0.899
79607CL-    CL-43375   7.370  40.548  14.789
79608CL-    CL-43376  29.431  10.781   4.223
79609CL-    CL-43377  18.591  12.692  14.432
79610CL-    CL-43378  39.056  11.628   3.224
79611CL-    CL-43379  14.710  10.308  10.110
79612CL-    CL-43380   0.356   0.344  11.938
79613CL-    CL-43381  20.120  42.849   1.228
79614CL-    CL-43382  18.780  26.083   1.240
79615CL-    CL-43383  38.017  15.776  14.412
79616CL-    CL-43384  34.458  22.677  11.985
79617CL-    CL-43385  41.438  32.627  13.320
79618CL-    CL-43386  24.166   0.921   1.376
79619CL-    CL-43387   5.750  21.720   4.603
79620CL-    CL-43388  20.041  44.341  12.021
79621CL-    CL-43389  20.650  28.961  13.362
79622CL-    CL-43390  24.178  14.096  12.915
79623CL-    CL-43391  39.847   9.802  13.418
79624CL-    CL-43392  35.481  26.142  12.039
79625CL-    CL-43393  26.134   8.669   2.398
79626CL-    CL-43394  35.576  30.498   4.250
79627CL-    CL-43395   2.349  16.189   2.709
79628CL-    CL-43396  41.792  34.879   5.158
79629CL-    CL-43397  15.739  11.138  10.621
79630CL-    CL-43398  28.436   5.211  13.869
79631CL-    CL-43399   4.371   4.389   1.377
79632CL-    CL-43400  22.995  36.919  12.019
79633CL-    CL-43401  44.824  16.731   0.765
79634CL-    CL-43402  26.118   1.436  12.398
79635CL-    CL-43403  18.117  11.205   4.166
79636CL-    CL-43404  17.781  25.523  14.812
79637CL-    CL-43405  18.125  22.137  13.030
79638CL-    CL-43406  32.009  21.262   0.784
79639CL-    CL-43407  36.540  25.469  14.337
79640CL-    CL-43408  15.618  21.161  14.900
79641CL-    CL-43409  42.415   8.246   2.862
79642CL-    CL-43410  41.021   1.240  13.880
79643CL-    CL-43411   2.410  34.500   3.782
79644CL-    CL-43412  27.566  37.445  14.835
79645CL-    CL-43413  29.130  37.962  12.043
79646CL-    CL-43414  39.011  44.948   1.399
79647CL-    CL-43415  18.743  27.101  13.375
79648CL-    CL-43416  29.012  35.421  14.495
79649CL-    CL-43417  29.095  13.260  10.958
79650CL-    CL-43418  31.520  34.401  11.458
79651CL-    CL-43419  41.800   4.331   0.731
79652CL-    CL-43420  23.232  23.506  13.834
79653CL-    CL-43421   3.840  38.955  13.522
79654CL-    CL-43422   6.898  20.753   2.230
79655CL-    CL-43423  38.356  35.445   2.209
79656CL-    CL-43424  22.239   7.234   1.760
79657CL-    CL-43425  25.473  10.710   1.854
79658CL-    CL-43426  11.651  19.681  12.909
79659CL-    CL-43427   4.261   7.786   2.344
79660CL-    CL-43428  27.193  43.477   2.784
79661CL-    CL-43429  12.644   8.373   4.252
79662CL-    CL-43430   8.683   2.329   3.725
79663CL-    CL-43431  27.143  27.659  12.972
79664CL-    CL-43432  44.341  29.057   3.811
79665CL-    CL-43433  33.041  16.663  13.548
79666CL-    CL-43434   3.766  11.825  13.054
79667CL-    CL-43435   1.878  21.613   0.318
79668CL-    CL-43436  32.410  28.139  10.978
79669CL-    CL-43437  20.039  43.913  12.428
79670CL-    CL-43438  12.620  23.499  13.952
79671CL-    CL-43439   9.674  38.565   4.680
79672CL-    CL-43440   5.711   1.329   0.270
79673CL-    CL-43441  20.724  31.135   0.887
79674CL-    CL-43442  11.809  12.701  11.468
79675CL-    CL-43443  38.832   1.961  10.050
79676CL-    CL-43444  41.903   5.265  10.941
79677CL-    CL-43445  12.640  15.198  12.555
79678CL-    CL-43446  24.064  42.029   0.796
79679CL-    CL-43447  16.755  11.295   3.721
79680CL-    CL-43448  41.009  42.902   4.763
79681CL-    CL-43449  19.719  38.363   1.858
79682CL-    CL-43450  41.303   3.732   2.266
79683CL-    CL-43451   3.367   6.841   0.769
79684CL-    CL-43452  30.018  20.716   0.864
79685CL-    CL-43453  44.897   5.195  13.501
79686CL-    CL-43454   3.224  19.733  13.395
79687CL-    CL-43455  25.607  27.108   4.291
79688CL-    CL-43456   4.404  34.597  10.641
79689CL-    CL-43457  21.744   6.790  13.013
79690CL-    CL-43458   4.291  41.042   0.313
79691CL-    CL-43459   6.877  24.088   1.258
79692CL-    CL-43460  21.236  35.995  14.434
79693CL-    CL-43461  13.274   8.680  10.111
79694CL-    CL-43462  34.988  38.893   5.120
79695CL-    CL-43463  18.751  26.148  12.452
79696CL-    CL-43464  22.039   9.744   3.160
79697CL-    CL-43465  18.061  17.184  14.341
79698CL-    CL-43466  11.225  41.333   1.739
79699CL-    CL-43467  38.061   9.684  13.509
79700CL-    CL-43468  27.046  35.377   0.271
79701CL-    CL-43469  29.129   2.400   4.765
79702CL-    CL-43470   9.269   1.800  12.581
79703CL-    CL-43471  12.706  39.041  12.426
79704CL-    CL-43472   1.946  25.568   0.916
79705CL-    CL-43473  21.093  16.158   4.726
79706CL-    CL-43474  22.592  39.948   1.769
79707CL-    CL-43475  43.881  28.952   3.641
79708CL-    CL-43476   0.431  13.658   2.700
79709CL-    CL-43477  40.822  33.105   1.221
79710CL-    CL-43478  43.000  15.636   2.722
79711CL-    CL-43479  19.581  35.375  11.412
79712CL-    CL-43480   3.888  27.186  13.895
79713CL-    CL-43481  15.140  26.479   1.730
79714CL-    CL-43482   2.739  20.768   3.300
79715CL-    CL-43483  12.252   7.202  10.621
79716CL-    CL-43484  25.099  36.064   3.821
79717CL-    CL-43485  38.564  17.704  11.899
79718CL-    CL-43486   4.721  12.812  13.452
79719CL-    CL-43487  15.224  11.314   4.742
79720CL-    CL-43488  15.648  34.517  11.998
79721CL-    CL-43489   1.286  36.992   4.132
79722CL-    CL-43490  36.034  17.759  10.617
79723CL-    CL-43491   8.841  13.794   2.202
79724CL-    CL-43492  11.783  20.674  11.093
79725CL-    CL-43493  34.522  23.118   1.827
79726CL-    CL-43494  37.076   7.267  12.856
79727CL-    CL-43495   2.296  30.029  11.059
79728CL-    CL-43496  43.853  22.155   2.800
79729CL-    CL-43497   7.319   3.717  13.893
79730CL-    CL-43498  32.920   1.297   1.277
79731CL-    CL-43499  34.120  40.483   0.323
79732CL-    CL-43500  37.017  14.722  12.431
79733CL-    CL-43501  39.334  26.093   2.333
79734CL-    CL-43502  37.496  29.665  14.395
79735CL-    CL-43503  20.032  38.967   2.294
79736CL-    CL-43504  27.603  39.842   3.739
79737CL-    CL-43505  18.587  11.299  14.323
79738CL-    CL-43506  12.212   7.216   1.414
79739CL-    CL-43507  11.697  12.640  13.869
79740CL-    CL-43508  11.628   7.804   0.398
79741CL-    CL-43509  39.389   6.428  14.303
79742CL-    CL-43510  19.662  17.619  14.836
79743CL-    CL-43511  30.579  44.971   1.813
79744CL-    CL-43512  37.427  22.107   3.208
79745CL-    CL-43513  20.689   0.957  12.477
79746CL-    CL-43514  14.207  43.009   0.477
79747CL-    CL-43515  31.009  23.615  13.367
79748CL-    CL-43516  31.646   3.931   4.155
79749CL-    CL-43517   8.187   7.795  13.800
79750CL-    CL-43518   1.324   3.916  10.463
79751CL-    CL-43519  29.601  15.308   4.821
79752CL-    CL-43520  38.466  43.408   4.810
79753CL-    CL-43521   8.279   6.819   3.828
79754CL-    CL-43522  22.513  14.760   3.267
79755CL-    CL-43523   1.731  26.504  13.792
79756CL-    CL-43524  21.706  39.889   2.719
79757CL-    CL-43525  29.565  33.914   2.361
79758CL-    CL-43526   7.193  26.593  13.374
79759CL-    CL-43527  37.415  24.227   4.145
79760CL-    CL-43528   0.960   2.395  10.477
79761CL-    CL-43529  28.070  39.409  11.900
79762CL-    CL-43530  26.571  33.380  12.399
79763CL-    CL-43531  23.217   1.415   3.700
79764CL-    CL-43532  41.981  28.120  12.935
79765CL-    CL-43533   7.842  19.137  11.011
79766CL-    CL-43534   7.415   7.725  14.901
79767CL-    CL-43535  22.230  35.459  11.516
79768CL-    CL-43536  34.440   5.316   0.343
79769CL-    CL-43537  35.975  40.899   3.847
79770CL-    CL-43538  27.166  20.587  14.342
79771CL-    CL-43539   8.302  20.706   1.835
79772CL-    CL-43540  22.580  26.116  14.015
79773CL-    CL-43541  29.499  32.577   3.360
79774CL-    CL-43542  38.999  22.737   0.279
79775CL-    CL-43543  19.554  41.496  10.419
79776CL-    CL-43544  26.958  20.650   3.848
79777CL-    CL-43545  28.129  36.867   1.821
79778CL-    CL-43546   3.403   4.283  13.894
79779CL-    CL-43547  20.703  33.556   2.354
79780CL-    CL-43548   6.807  14.102  13.428
79781CL-    CL-43549  29.989   8.373  10.550
79782CL-    CL-43550  36.364  17.788  11.066
79783CL-    CL-43551  20.039  17.619  13.017
79784CL-    CL-43552  11.724  40.043  14.290
79785CL-    CL-43553  36.926  14.200  13.374
79786CL-    CL-43554  26.642  30.537  12.919
79787CL-    CL-43555   0.338  13.285   2.325
79788CL-    CL-43556  15.812   0.918   0.765
79789CL-    CL-43557  28.139  33.022  11.968
79790CL-    CL-43558  34.887  44.767   2.693
79791CL-    CL-43559   4.698  20.244  12.895
79792CL-    CL-43560  29.930  16.732   3.640
79793CL-    CL-43561  44.426  24.481   3.269
79794CL-    CL-43562   3.298  26.497  11.955
79795CL-    CL-43563  25.040  29.126  11.032
79796CL-    CL-43564  15.716  29.139  11.590
79797CL-    CL-43565  27.678  18.136   4.612
79798CL-    CL-43566  16.156   8.725   0.296
79799CL-    CL-43567  31.066  26.128   4.297
79800CL-    CL-43568  17.245  10.646  11.562
79801CL-    CL-43569  31.920  13.292  14.414
79802CL-    CL-43570  19.674  24.995  13.370
79803CL-    CL-43571  12.795  30.564   3.839
79804CL-    CL-43572  25.129  40.977  12.366
79805CL-    CL-43573  17.221   8.737   1.375
79806CL-    CL-43574  27.950   0.381  13.905
79807CL-    CL-43575   8.161   5.836   1.343
79808CL-    CL-43576  33.926  27.113   3.832
79809CL-    CL-43577  41.887   7.328  13.039
79810CL-    CL-43578  31.066  11.648  10.413
79811CL-    CL-43579  16.195  41.462   1.900
79812CL-    CL-43580  15.675  20.697   3.768
79813CL-    CL-43581  41.481  30.089  11.563
79814CL-    CL-43582   3.343  33.061  12.891
79815CL-    CL-43583   8.869  25.012  12.966
79816CL-    CL-43584  29.466  33.555  14.304
79817CL-    CL-43585  24.037  19.046  12.390
79818CL-    CL-43586  38.904  31.641   3.723
79819CL-    CL-43587   8.720  43.989   0.847
79820CL-    CL-43588  24.588  20.144  11.419
79821CL-    CL-43589  29.084  16.271   2.260
79822CL-    CL-43590  28.056  35.025  13.844
79823CL-    CL-43591  32.059  34.042   0.319
79824CL-    CL-43592   7.364   7.385   4.300
79825CL-    CL-43593   8.717  14.756  12.490
79826CL-    CL-43594  30.058  36.465  14.898
79827CL-    CL-43595  42.850  22.534  10.968
79828CL-    CL-43596  30.944   0.912   3.797
79829CL-    CL-43597  24.651  20.582  11.056
79830CL-    CL-43598   9.224  18.067   2.278
79831CL-    CL-43599   6.290  26.535   4.647
79832CL-    CL-43600   8.167  23.592   1.395
79833CL-    CL-43601  40.304  19.253  11.543
79834CL-    CL-43602  16.157  27.999  14.439
79835CL-    CL-43603  23.235  11.683   0.404
79836CL-    CL-43604  14.149   7.292   4.243
79837CL-    CL-43605  25.986  16.117   4.796
79838CL-    CL-43606   3.263   3.773   5.316
79839CL-    CL-43607   4.902  36.919  13.018
79840CL-    CL-43608  35.093  15.706   2.240
79841CL-    CL-43609   1.940  34.890  13.540
79842CL-    CL-43610  34.117  36.023  13.803
79843CL-    CL-43611  38.485  15.742   2.209
79844CL-    CL-43612   2.296  23.708  13.900
79845CL-    CL-43613  28.049  25.560   1.830
79846CL-    CL-43614  42.827  25.968  11.528
79847CL-    CL-43615   3.889  19.130  12.450
79848CL-    CL-43616   2.832  26.008  11.858
79849CL-    CL-43617  23.659  43.504  12.563
79850CL-    CL-43618  22.726  34.099   3.684
79851CL-    CL-43619  14.667  14.107  10.615
79852CL-    CL-43620  14.321  25.688  10.556
79853CL-    CL-43621   8.697  42.948  11.052
79854CL-    CL-43622  15.250  21.086  11.857
79855CL-    CL-43623  38.384   9.370  10.098
79856CL-    CL-43624  35.475  27.092   0.938
79857CL-    CL-43625  20.140   4.258  11.554
79858CL-    CL-43626  21.139  34.604  12.868
79859CL-    CL-43627   4.435   8.320  14.508
79860CL-    CL-43628  21.539  42.795  10.019
79861CL-    CL-43629  14.687  19.103  11.021
79862CL-    CL-43630   9.674   2.743  14.008
79863CL-    CL-43631  35.921  10.665   3.175
79864CL-    CL-43632   8.781  34.114   0.875
79865CL-    CL-43633   3.853  43.378   3.360
79866CL-    CL-43634   7.340  31.149   3.331
79867CL-    CL-43635  14.798  33.991   1.740
79868CL-    CL-43636  17.132  14.155  12.387
79869CL-    CL-43637  32.404  22.582  13.463
79870CL-    CL-43638  30.611  42.830  12.863
79871CL-    CL-43639  12.768  34.410   2.313
79872CL-    CL-43640  37.345   0.325   0.898
79873CL-    CL-43641  40.933   7.227   2.238
79874CL-    CL-43642  10.764  21.658  12.347
79875CL-    CL-43643  25.021  31.587   0.364
79876CL-    CL-43644  21.236  10.720  10.952
79877CL-    CL-43645   3.244   7.251  11.534
79878CL-    CL-43646  13.105  10.656   0.393
79879CL-    CL-43647  25.158  10.360  11.447
79880CL-    CL-43648   3.310  42.798   3.761
79881CL-    CL-43649  32.114   2.368  13.960
79882CL-    CL-43650   2.737  31.630  14.459
79883CL-    CL-43651  38.051   8.833   3.346
79884CL-    CL-43652  10.372  20.029   3.191
79885CL-    CL-43653  33.949   0.310  13.041
79886CL-    CL-43654  29.493   7.677   0.844
79887CL-    CL-43655  27.493  37.400  10.639
79888CL-    CL-43656   7.717  20.064  10.602
79889CL-    CL-43657   0.383  30.125   3.341
79890CL-    CL-43658  39.879  24.221  11.076
79891CL-    CL-43659  39.385  13.709   1.245
79892CL-    CL-43660  29.496   5.883   2.333
79893CL-    CL-43661   8.238   6.396  10.563
79894CL-    CL-43662  17.124  32.958  13.506
79895CL-    CL-43663  15.702  13.773  13.831
79896CL-    CL-43664   1.926  28.623   3.344
79897CL-    CL-43665  16.726  12.731  13.966
79898CL-    CL-43666  44.935   5.841  12.994
79899CL-    CL-43667  25.651  15.644   2.704
79900CL-    CL-43668  35.900  27.614  13.532
79901CL-    CL-43669  30.115  35.558   2.844
79902CL-    CL-43670  21.624  43.399   3.633
79903CL-    CL-43671  29.644  14.187   0.818
79904CL-    CL-43672  24.635   1.419   0.962
79905CL-    CL-43673  41.868  39.345   3.649
79906CL-    CL-43674  15.273  41.859   0.255
79907CL-    CL-43675  36.492  32.613  10.920
79908CL-    CL-43676  35.489  44.422   4.212
79909CL-    CL-43677  16.149  41.356   0.386
79910CL-    CL-43678  25.184  19.078   2.811
79911CL-    CL-43679  10.349  23.041  10.906
79912CL-    CL-43680  10.857  37.945  10.439
79913CL-    CL-43681  37.482  31.494   0.801
79914CL-    CL-43682  13.200  38.431   3.154
79915CL-    CL-43683  31.983  27.041   4.203
79916CL-    CL-43684  34.994  39.057  14.927
79917CL-    CL-43685  41.859  13.611   2.313
79918CL-    CL-43686  26.640  40.896  14.894
79919CL-    CL-43687   9.301  22.586   2.402
79920CL-    CL-43688  26.999  32.523   3.264
79921CL-    CL-43689  41.039  16.697  13.888
79922CL-    CL-43690  12.330  39.890   0.879
79923CL-    CL-43691   5.748  20.094  12.002
79924CL-    CL-43692   0.312  15.663   3.771
79925CL-    CL-43693  37.023   4.355  14.431
79926CL-    CL-43694  31.607  29.660   1.341
79927CL-    CL-43695  38.961   8.352   1.843
79928CL-    CL-43696  42.796   9.321  12.464
79929CL-    CL-43697   1.304   1.483   3.870
79930CL-    CL-43698   0.985   5.439  11.917
79931CL-    CL-43699  33.612   9.756  12.372
79932CL-    CL-43700  23.687   0.315   1.768
79933CL-    CL-43701  21.727  33.086  14.881
79934CL-    CL-43702  36.521  27.669   1.822
79935CL-    CL-43703  30.078  24.041  13.380
79936CL-    CL-43704  12.773  23.021  13.901
79937CL-    CL-43705  30.116  26.514  13.401
79938CL-    CL-43706  12.632  35.528   3.214
79939CL-    CL-43707  29.014  29.114  13.941
79940CL-    CL-43708   3.850  30.577   0.819
79941CL-    CL-43709  13.216  15.186   1.215
79942CL-    CL-43710   4.927  42.792  13.447
79943CL-    CL-43711   6.729  43.770  13.946
79944CL-    CL-43712  20.132  34.940  14.363
79945CL-    CL-43713  32.020  14.239   3.654
79946CL-    CL-43714   4.854  28.593  14.779
79947CL-    CL-43715  15.734  29.595   4.115
79948CL-    CL-43716   4.324  42.022  12.413
79949CL-    CL-43717   8.712   2.852  13.896
79950CL-    CL-43718  30.564  26.488   1.435
79951CL-    CL-43719  11.157  43.854  11.028
79952CL-    CL-43720  33.392  23.093  12.941
79953CL-    CL-43721  28.956  27.946  11.507
79954CL-    CL-43722  41.926  11.164  13.834
79955CL-    CL-43723  11.692  36.007   4.312
79956CL-    CL-43724  10.367  36.092   9.934
79957CL-    CL-43725  33.900  32.138  11.050
79958CL-    CL-43726  14.203   6.891   4.776
79959CL-    CL-43727  30.433  27.507   2.262
79960CL-    CL-43728  15.606  14.150  14.396
79961CL-    CL-43729  26.051  15.083   2.219
79962CL-    CL-43730  34.455  42.021  13.871
79963CL-    CL-43731   2.442   8.210  12.523
79964CL-    CL-43732   2.371  38.948  10.928
79965CL-    CL-43733  33.097  43.488  13.794
79966CL-    CL-43734  21.656  10.803  13.507
79967CL-    CL-43735  29.520  24.026   2.789
79968CL-    CL-43736  29.982  39.540  11.871
79969CL-    CL-43737  18.195  23.996   1.359
79970CL-    CL-43738  11.182  12.698  11.020
79971CL-    CL-43739  10.775   5.391   0.476
79972CL-    CL-43740  25.975  37.391   5.320
79973CL-    CL-43741  37.550  26.598   0.277
79974CL-    CL-43742   9.387  15.221   3.739
79975CL-    CL-43743  42.001  33.103  10.499
79976CL-    CL-43744   5.749   9.878  10.424
79977CL-    CL-43745  17.797  28.436   4.607
79978CL-    CL-43746  14.702  38.455   2.248
79979CL-    CL-43747  25.072  15.135   0.751
79980CL-    CL-43748  25.504   6.835  12.933
79981CL-    CL-43749   1.477  11.810   1.325
79982CL-    CL-43750  42.895  19.130   0.323
79983CL-    CL-43751  32.889  42.005  10.571
79984CL-    CL-43752   7.377  27.492  13.435
79985CL-    CL-43753  39.515  44.986  10.578
79986CL-    CL-43754  19.598   2.288   2.772
79987CL-    CL-43755  30.611  37.463  10.067
79988CL-    CL-43756   8.270  34.898  14.862
79989CL-    CL-43757   1.273  43.502  12.940
79990CL-    CL-43758  41.498   5.822   3.863
79991CL-    CL-43759  11.371  36.853   0.318
79992CL-    CL-43760  10.222  23.064   1.902
79993CL-    CL-43761  43.888   9.696  13.428
79994CL-    CL-43762  23.522   1.377   2.844
79995CL-    CL-43763   4.833  34.114  13.024
79996CL-    CL-43764  10.350  22.505  12.535
79997CL-    CL-43765  43.795  16.617   4.774
79998CL-    CL-43766   6.755  18.689  12.447
79999CL-    CL-43767   1.747  38.550  10.061
80000CL-    CL-43768  36.871   3.365   4.720
80001CL-    CL-43769  21.665  11.151   3.199
80002CL-    CL-43770  40.305  17.656   0.456
80003CL-    CL-43771  18.070  13.346  12.824
80004CL-    CL-43772   2.278  36.042   1.738
80005CL-    CL-43773  11.635  11.137  13.413
80006CL-    CL-43774  24.642   7.322   2.224
80007CL-    CL-43775   0.948  17.290  13.477
80008CL-    CL-43776  36.376  34.376  14.929
80009CL-    CL-43777  26.188   0.945  12.912
80010CL-    CL-43778  27.174   9.175  14.397
80011CL-    CL-43779  44.443  10.678  10.485
80012CL-    CL-43780  27.558   0.903  12.497
80013CL-    CL-43781  14.214  33.042  14.333
80014CL-    CL-43782  18.615  29.057  10.419
80015CL-    CL-43783  22.572   4.329   2.334
80016CL-    CL-43784   0.873  12.244  12.009
80017CL-    CL-43785  22.102  21.135   3.387
80018CL-    CL-43786  26.483  13.782   0.437
80019CL-    CL-43787  39.821  10.373  12.358
80020CL-    CL-43788  42.775  11.782   1.297
80021CL-    CL-43789  19.278  34.970   4.746
80022CL-    CL-43790   6.418  18.277   2.405
80023CL-    CL-43791  25.519   6.415  12.909
80024CL-    CL-43792  40.806  22.239   4.193
80025CL-    CL-43793  33.057  27.668   3.313
80026CL-    CL-43794  37.443  33.534   1.799
80027CL-    CL-43795  19.087  22.608  13.410
80028CL-    CL-43796  32.962  27.610  11.487
80029CL-    CL-43797  38.477  21.544   0.272
80030CL-    CL-43798  32.410   7.674  14.948
80031CL-    CL-43799  15.592  15.260  10.439
80032CL-    CL-43800  36.067  25.163   2.728
80033CL-    CL-43801   5.744   1.392  12.949
80034CL-    CL-43802  21.565   7.259  12.352
80035CL-    CL-43803   5.215  11.324  14.979
80036CL-    CL-43804  21.204  27.135  10.115
80037CL-    CL-43805  19.696  31.405   2.284
80038CL-    CL-43806  29.097  21.532  12.564
80039CL-    CL-43807  44.843  33.118   2.664
80040CL-    CL-43808  41.021  30.937  12.454
80041CL-    CL-43809  13.678  13.719   2.845
80042CL-    CL-43810  32.619  31.931   4.678
80043CL-    CL-43811   2.385   0.774   1.365
80044CL-    CL-43812  39.848  26.014   1.357
80045CL-    CL-43813  13.773  36.848  11.488
80046CL-    CL-43814   7.186  17.655  11.949
80047CL-    CL-43815  15.201   4.940   4.301
80048CL-    CL-43816  26.545  30.618  12.486
80049CL-    CL-43817  26.975  33.924   4.351
80050CL-    CL-43818   6.795  39.000  12.571
80051CL-    CL-43819  12.628  14.207   0.831
80052CL-    CL-43820  11.836  29.479  11.004
80053CL-    CL-43821   3.393  37.475  10.540
80054CL-    CL-43822  21.745  14.340  11.115
80055CL-    CL-43823  19.269  28.641   0.407
80056CL-    CL-43824  31.449  26.495   4.633
80057CL-    CL-43825   0.328  43.508  12.559
80058CL-    CL-43826  44.341  18.215   0.359
80059CL-    CL-43827  40.957  26.537  13.495
80060CL-    CL-43828  18.546  23.232  12.560
80061CL-    CL-43829  39.432   9.227  13.411
80062CL-    CL-43830  24.653   2.732   1.430
80063CL-    CL-43831  43.435  23.985  11.952
80064CL-    CL-43832  19.070  31.587   3.638
80065CL-    CL-43833  24.156   4.811   3.358
80066CL-    CL-43834  14.338  17.759   4.204
80067CL-    CL-43835  20.674  40.797   3.345
80068CL-    CL-43836  36.592  12.810  11.492
80069CL-    CL-43837  33.997  41.793   3.286
80070CL-    CL-43838  31.606  17.117  11.012
80071CL-    CL-43839  41.385  17.107  14.920
80072CL-    CL-43840  23.152  23.694   3.274
80073CL-    CL-43841  43.296  27.197  11.462
80074CL-    CL-43842  31.060   6.380   4.267
80075CL-    CL-43843   5.921   7.676  11.117
  45.00000  45.00000  15.00000   0.00000   0.00000   0.00000   0.00000   0.00000   0.00000

